<event>
 6    0  0.1230761E+002  0.1240988E+03  0.7546771E-02  0.1236484E+00
         21   -1    0    0  504  502  0.00000000000E+00  0.00000000000E+00  0.13518297707E+04  0.13518297707E+04  0.00000000000E+00 0.  1.
         -2   -1    0    0    0  501 -0.00000000000E+00 -0.00000000000E+00 -0.61003235776E+03  0.61003235776E+03  0.00000000000E+00 0. -1.
         21    1    1    2  503  501  0.18140981883E+01  0.11031751528E+03  0.70650370641E+03  0.71506694253E+03  0.00000000000E+00 0.  1.
         21    1    1    2  504  503 -0.38195164504E+02  0.10661635682E+02  0.61713098014E+03  0.61840374167E+03  0.00000000000E+00 0.  1.
         21    1    1    2  505  502  0.13778634649E+02 -0.99201936018E+02 -0.87306679688E+02  0.13286583910E+03  0.00000000000E+00 0. -1.
         -2    1    1    2    0  505  0.22602431667E+02 -0.21777214946E+02 -0.49453059393E+03  0.49552560513E+03  0.00000000000E+00 0. -1.
<scales pt_clust_3="14000.00000" pt_clust_4="39.50250" pt_clust_5="124.09879" pt_clust_6="31.38657"></scales>
<clustering>
<clus scale="   31.387">  2  6  1 -1</clus>
<clus scale="   39.502">  1  4  2 -1</clus>
<clus scale="  124.099">  2  5  1 -1</clus>
<clus scale="   39.502">  1  3  2 -1</clus>
</clustering>
</event>
<event>
 6    0  0.1230761E+002  0.1703448E+03  0.7546771E-02  0.1177489E+00
         21   -1    0    0  503  502  0.00000000000E+00  0.00000000000E+00  0.56949501307E+03  0.56949501307E+03  0.00000000000E+00 0. -1.
          2   -1    0    0  505    0 -0.00000000000E+00 -0.00000000000E+00 -0.42389308101E+03  0.42389308101E+03  0.00000000000E+00 0. -1.
         21    1    1    2  503  504  0.42986226307E+02 -0.67986108282E+02  0.39161814212E+03  0.39979331636E+03  0.00000000000E+00 0. -1.
         21    1    1    2  504  501 -0.80614750628E+01 -0.48233347124E+02  0.12961722274E+03  0.13853543801E+03  0.00000000000E+00 0.  1.
         21    1    1    2  505  502  0.13430171933E+02 -0.37658164281E+02  0.62896976671E+01  0.40473042286E+02  0.00000000000E+00 0. -1.
          2    1    1    2  501    0 -0.48354923177E+02  0.15387761969E+03 -0.38192313046E+03  0.41458629743E+03  0.00000000000E+00 0. -1.
<scales pt_clust_3="42.34301" pt_clust_4="42.34301" pt_clust_5="39.98133" pt_clust_6="160.10160"></scales>
<clustering>
<clus scale="   39.981">  1  5  2 -1</clus>
<clus scale="   42.343">  3  4 -1 -1</clus>
<clus scale="  160.102">  2  6  1 -1</clus>
<clus scale="   39.981">  1  3  2 -1</clus>
</clustering>
</event>
<event>
 6    0  0.1230761E+002  0.6012605E+02  0.7546771E-02  0.1397304E+00
          2   -1    0    0  503    0 -0.00000000000E+00  0.00000000000E+00  0.34152535743E+04  0.34152535743E+04  0.00000000000E+00 0. -1.
         21   -1    0    0  505  502  0.00000000000E+00 -0.00000000000E+00 -0.22692430395E+02  0.22692430395E+02  0.00000000000E+00 0.  1.
         21    1    1    2  503  504 -0.46511258983E+01 -0.54567422400E+02  0.44757062233E+03  0.45090874746E+03  0.00000000000E+00 0.  1.
         21    1    1    2  504  502 -0.27858094746E+02  0.17819686520E+02  0.13199068884E+03  0.13607041049E+03  0.00000000000E+00 0.  1.
         21    1    1    2  505  501 -0.14173191006E+02 -0.58244995186E+02  0.31995433019E+02  0.67948999563E+02  0.00000000000E+00 0.  1.
          2    1    1    2  501    0  0.46682411650E+02  0.94992731066E+02  0.27810043997E+04  0.27830178472E+04  0.00000000000E+00 0. -1.
<scales pt_clust_3="53.57383" pt_clust_4="33.06985" pt_clust_5="60.12605" pt_clust_6="14000.00000"></scales>
<clustering>
<clus scale="   33.070">  2  4  1 -1</clus>
<clus scale="   53.574">  1  3  2 -1</clus>
<clus scale="   60.126">  2  5  1 -1</clus>
<clus scale="   33.070">  2  3  1 -1</clus>
</clustering>
</event>
<event>
 6    0  0.1230761E+002  0.2068811E+03  0.7546771E-02  0.1144060E+00
         21   -1    0    0  504  502  0.00000000000E+00  0.00000000000E+00  0.20158029053E+03  0.20158029053E+03  0.00000000000E+00 0. -1.
         -3   -1    0    0    0  501 -0.00000000000E+00 -0.00000000000E+00 -0.75567259376E+03  0.75567259376E+03  0.00000000000E+00 0. -1.
         21    1    1    2  503  501 -0.37074891264E+02 -0.66992694966E+02 -0.23607367801E+03  0.24818007613E+03  0.00000000000E+00 0.  1.
         21    1    1    2  504  503 -0.65598249007E+02 -0.65079100712E+02  0.52929396049E+02  0.10648915714E+03  0.00000000000E+00 0. -1.
         21    1    1    2  505  502 -0.15171441841E+03  0.94017311061E+01 -0.21876651276E+02  0.15357162880E+03  0.00000000000E+00 0. -1.
         -3    1    1    2    0  505  0.25438755868E+03  0.12267006457E+03 -0.34907136999E+03  0.44901202222E+03  0.00000000000E+00 0. -1.
<scales pt_clust_3="76.56741" pt_clust_4="96.24299" pt_clust_5="206.88110" pt_clust_6="14000.00000"></scales>
<clustering>
<clus scale="   76.567">  2  3  1 -1</clus>
<clus scale="   96.243">  1  4  2 -1</clus>
<clus scale="  206.881">  1  5  2 -1</clus>
<clus scale="   96.243">  1  3  2 -1</clus>
</clustering>
</event>
<event>
 6    0  0.1230761E+002  0.1347981E+03  0.7546771E-02  0.1220505E+00
          2   -1    0    0  502    0 -0.00000000000E+00  0.00000000000E+00  0.48246537896E+03  0.48246537896E+03  0.00000000000E+00 0. -1.
         21   -1    0    0  503  502  0.00000000000E+00 -0.00000000000E+00 -0.14648041923E+03  0.14648041923E+03  0.00000000000E+00 0. -1.
         21    1    1    2  503  504 -0.53124324033E+02 -0.40503600759E+02 -0.57142166309E+02  0.87908831461E+02  0.00000000000E+00 0. -1.
         21    1    1    2  504  505  0.63384421187E+02 -0.34056188830E+02 -0.19112686480E+02  0.74449336003E+02  0.00000000000E+00 0. -1.
         21    1    1    2  505  501  0.19864435894E+02 -0.47185073588E+02  0.20305067194E+02  0.55075609271E+02  0.00000000000E+00 0. -1.
          2    1    1    2  501    0 -0.30124533048E+02  0.12174486318E+03  0.39193474533E+03  0.41151202145E+03  0.00000000000E+00 0. -1.
<scales pt_clust_3="66.80371" pt_clust_4="48.04874" pt_clust_5="48.04874" pt_clust_6="122.17105"></scales>
<clustering>
<clus scale="   48.049">  4  5 -1 -1</clus>
<clus scale="   66.804">  2  3  1 -1</clus>
<clus scale="  122.171">  1  6  2 -1</clus>
<clus scale="   66.804">  2  3  1 -1</clus>
</clustering>
</event>
<event>
 6    0  0.1230761E+002  0.1565689E+03  0.7546771E-02  0.1192626E+00
         -1   -1    0    0    0  501 -0.00000000000E+00  0.00000000000E+00  0.19339989684E+03  0.19339989684E+03  0.00000000000E+00 0. -1.
         21   -1    0    0  504  502  0.00000000000E+00 -0.00000000000E+00 -0.98570983351E+03  0.98570983351E+03  0.00000000000E+00 0.  1.
         21    1    1    2  503  502  0.68632971170E+02  0.50776276057E+02 -0.79109316708E+02  0.11639157586E+03  0.00000000000E+00 0.  1.
         21    1    1    2  504  501 -0.31952235886E+02 -0.10923036732E+02 -0.13335311021E+03  0.13756202278E+03  0.00000000000E+00 0.  1.
         21    1    1    2  505  503  0.10589837097E+03  0.30721873378E+02 -0.71067714800E+03  0.71918030226E+03  0.00000000000E+00 0.  1.
         -1    1    1    2    0  505 -0.14257910626E+03 -0.70575112703E+02  0.13082963824E+03  0.20597582944E+03  0.00000000000E+00 0. -1.
<scales pt_clust_3="81.68244" pt_clust_4="33.76771" pt_clust_5="156.56889" pt_clust_6="14000.00000"></scales>
<clustering>
<clus scale="   33.768">  2  4  1 -1</clus>
<clus scale="   81.682">  2  3  1 -1</clus>
<clus scale="  156.569">  2  5  1 -1</clus>
<clus scale="   33.768">  2  3  1 -1</clus>
</clustering>
</event>
<event>
 6    0  0.1230761E+002  0.1536015E+03  0.7546771E-02  0.1196116E+00
          1   -1    0    0  503    0 -0.00000000000E+00  0.00000000000E+00  0.11354990200E+03  0.11354990200E+03  0.00000000000E+00 0. -1.
         21   -1    0    0  501  502  0.00000000000E+00 -0.00000000000E+00 -0.75781883846E+03  0.75781883846E+03  0.00000000000E+00 0. -1.
         21    1    1    2  503  505 -0.27232430740E+02  0.23958882289E+02 -0.21093752924E+02  0.41959262827E+02  0.00000000000E+00 0. -1.
         21    1    1    2  504  502  0.19573831599E+02  0.26379423483E+02 -0.66870170075E+02  0.74502540310E+02  0.00000000000E+00 0. -1.
         21    1    1    2  505  504  0.52330985495E+02  0.95519508251E+02 -0.58892591990E+03  0.59891255425E+03  0.00000000000E+00 0. -1.
          1    1    1    2  501    0 -0.44672386354E+02 -0.14585781402E+03  0.32620906446E+02  0.15599438308E+03  0.00000000000E+00 0. -1.
<scales pt_clust_3="36.27166" pt_clust_4="31.97381" pt_clust_5="31.97381" pt_clust_6="142.13971"></scales>
<clustering>
<clus scale="   31.974">  4  5 -1 -1</clus>
<clus scale="   36.272">  1  3  2 -1</clus>
<clus scale="  142.140">  1  6  2 -1</clus>
<clus scale="  153.602">  2  3  1 -1</clus>
</clustering>
</event>
<event>
 6    0  0.1293822E+002  0.9490507E+02  0.7546771E-02  0.1291390E+00
         21   -1    0    0  503  502  0.00000000000E+00  0.00000000000E+00  0.26959376394E+04  0.26959376394E+04  0.00000000000E+00 0. -1.
          1   -1    0    0  505    0 -0.00000000000E+00 -0.00000000000E+00 -0.56157918992E+03  0.56157918992E+03  0.00000000000E+00 0. -1.
         21    1    1    2  503  501  0.59094991808E+02  0.54505013691E+02  0.26085347235E+04  0.26097732504E+04  0.00000000000E+00 0. -1.
         21    1    1    2  504  502 -0.48090606010E+02 -0.38593756932E+01  0.51500290827E+02  0.70568272775E+02  0.00000000000E+00 0. -1.
         21    1    1    2  505  504 -0.11301495594E+02  0.54907730984E+02 -0.18351893593E+02  0.58986224858E+02  0.00000000000E+00 0. -1.
          1    1    1    2  501    0  0.29710979681E+00 -0.10555336898E+03 -0.50732467123E+03  0.51818908134E+03  0.00000000000E+00 0. -1.
<scales pt_clust_3="51.96598" pt_clust_4="48.24522" pt_clust_5="14000.00000" pt_clust_6="94.90507"></scales>
<clustering>
<clus scale="   48.245">  1  4  2 -1</clus>
<clus scale="   51.966">  1  3  2 -1</clus>
<clus scale="   94.905">  2  6  1 -1</clus>
<clus scale="   48.245">  1  3  2 -1</clus>
</clustering>
</event>
<event>
 6    0  0.1230761E+002  0.1131218E+03  0.7546771E-02  0.1254896E+00
         21   -1    0    0  503  502  0.00000000000E+00  0.00000000000E+00  0.56549071150E+03  0.56549071150E+03  0.00000000000E+00 0. -1.
          1   -1    0    0  504    0 -0.00000000000E+00 -0.00000000000E+00 -0.33262927699E+03  0.33262927699E+03  0.00000000000E+00 0.  1.
         21    1    1    2  503  501 -0.56912046235E+02 -0.11313772781E+02  0.12123495159E+03  0.13440571397E+03  0.00000000000E+00 0. -1.
         21    1    1    2  504  505 -0.33696679396E+02 -0.33739349050E+02 -0.16618028723E+03  0.17288637234E+03  0.00000000000E+00 0.  1.
         21    1    1    2  505  502 -0.31661249636E+02 -0.60193621482E+02  0.38899447546E+03  0.39489544026E+03  0.00000000000E+00 0. -1.
          1    1    1    2  501    0  0.12226997527E+03  0.10524674331E+03 -0.11118770531E+03  0.19593246194E+03  0.00000000000E+00 0.  1.
<scales pt_clust_3="59.63541" pt_clust_4="47.68448" pt_clust_5="113.12183" pt_clust_6="14000.00000"></scales>
<clustering>
<clus scale="   47.684">  2  4  1 -1</clus>
<clus scale="   59.635">  1  3  2 -1</clus>
<clus scale="  113.122">  1  5  2 -1</clus>
<clus scale="   59.635">  1  3  2 -1</clus>
</clustering>
</event>
<event>
 6    0  0.1230761E+002  0.1297232E+03  0.7546771E-02  0.1227867E+00
         21   -1    0    0  504  502  0.00000000000E+00  0.00000000000E+00  0.52563596503E+02  0.52563596503E+02  0.00000000000E+00 0. -1.
          2   -1    0    0  505    0 -0.00000000000E+00 -0.00000000000E+00 -0.10017836012E+04  0.10017836012E+04  0.00000000000E+00 0. -1.
         21    1    1    2  503  501 -0.39002007360E+02  0.52032594601E+02  0.53352580464E+01  0.65245784978E+02  0.00000000000E+00 0. -1.
         21    1    1    2  504  503 -0.41699299986E+02  0.36274731022E+02 -0.49416424858E+02  0.74139535849E+02  0.00000000000E+00 0. -1.
         21    1    1    2  505  502  0.34649921287E+02 -0.21471944090E+01 -0.18532875491E+03  0.18855231339E+03  0.00000000000E+00 0. -1.
          2    1    1    2  501    0  0.46051386059E+02 -0.86160131214E+02 -0.71981008296E+03  0.72640956347E+03  0.00000000000E+00 0. -1.
<scales pt_clust_3="51.28622" pt_clust_4="51.28622" pt_clust_5="34.71639" pt_clust_6="116.84976"></scales>
<clustering>
<clus scale="   34.716">  2  5  1 -1</clus>
<clus scale="   51.286">  3  4 -1 -1</clus>
<clus scale="  116.850">  2  6  1 -1</clus>
<clus scale="  129.723">  1  3  2 -1</clus>
</clustering>
</event>
<event>
 6    0  0.1230761E+002  0.1265986E+03  0.7546771E-02  0.1232592E+00
         21   -1    0    0  505  502  0.00000000000E+00  0.00000000000E+00  0.79121206754E+03  0.79121206754E+03  0.00000000000E+00 0.  1.
          1   -1    0    0  503    0 -0.00000000000E+00 -0.00000000000E+00 -0.23774088567E+04  0.23774088567E+04  0.00000000000E+00 0.  1.
         21    1    1    2  503  504  0.51052464053E+02  0.48047793146E+02 -0.72761618096E+03  0.73098580787E+03  0.00000000000E+00 0.  1.
         21    1    1    2  504  502 -0.11907403481E+02 -0.55847120446E+02  0.18480763172E+03  0.19342840500E+03  0.00000000000E+00 0. -1.
         21    1    1    2  505  501  0.81749928433E+01 -0.71343180863E+02  0.59696259536E+03  0.60126618084E+03  0.00000000000E+00 0.  1.
          1    1    1    2  501    0 -0.47320053415E+02  0.79142508163E+02 -0.16403508353E+04  0.16429405305E+04  0.00000000000E+00 0.  1.
<scales pt_clust_3="69.97536" pt_clust_4="57.10243" pt_clust_5="14000.00000" pt_clust_6="126.59858"></scales>
<clustering>
<clus scale="   57.102">  1  4  2 -1</clus>
<clus scale="   69.975">  2  3  1 -1</clus>
<clus scale="  126.599">  2  6  1 -1</clus>
<clus scale="   57.102">  1  3  2 -1</clus>
</clustering>
</event>
<event>
 6    0  0.1230761E+002  0.7720534E+02  0.7546771E-02  0.1337175E+00
         21   -1    0    0  503  502  0.00000000000E+00  0.00000000000E+00  0.36771338487E+03  0.36771338487E+03  0.00000000000E+00 0. -1.
         -1   -1    0    0    0  501 -0.00000000000E+00 -0.00000000000E+00 -0.36584219180E+03  0.36584219180E+03  0.00000000000E+00 0. -1.
         21    1    1    2  503  501 -0.30914838330E+02 -0.22600561082E+02  0.22152606481E+03  0.22481172118E+03  0.00000000000E+00 0. -1.
         21    1    1    2  504  505 -0.31968770085E+02  0.68123103687E+02  0.21321579843E+02  0.78213613162E+02  0.00000000000E+00 0. -1.
         21    1    1    2  505  502 -0.42011890630E+01 -0.77754143322E+02  0.73674165490E+02  0.10719719891E+03  0.00000000000E+00 0. -1.
         -1    1    1    2    0  504  0.67084797478E+02  0.32231600717E+02 -0.31465061707E+03  0.32333304341E+03  0.00000000000E+00 0. -1.
<scales pt_clust_3="38.29507" pt_clust_4="77.20534" pt_clust_5="14000.00000" pt_clust_6="73.29555"></scales>
<clustering>
<clus scale="   38.295">  1  3  2 -1</clus>
<clus scale="   73.296">  2  6  1 -1</clus>
<clus scale="   77.205">  2  4  1 -1</clus>
<clus scale="   38.295">  1  3  2 -1</clus>
</clustering>
</event>
<event>
 6    0  0.1230761E+002  0.9580654E+02  0.7546771E-02  0.1289370E+00
          2   -1    0    0  503    0 -0.00000000000E+00  0.00000000000E+00  0.35070674705E+04  0.35070674705E+04  0.00000000000E+00 0.  1.
         21   -1    0    0  505  502  0.00000000000E+00 -0.00000000000E+00 -0.11398772324E+03  0.11398772324E+03  0.00000000000E+00 0. -1.
         21    1    1    2  503  504 -0.30669990683E+02  0.11632089689E+02  0.42948461827E+03  0.43073540738E+03  0.00000000000E+00 0.  1.
         21    1    1    2  504  502  0.10747509095E+02 -0.62383334407E+02  0.11151076084E+03  0.12822573512E+03  0.00000000000E+00 0. -1.
         21    1    1    2  505  501  0.84696684965E+02  0.80494430679E+02 -0.71930178141E+02  0.13721090460E+03  0.00000000000E+00 0. -1.
          2    1    1    2  501    0 -0.64774203376E+02 -0.29743185961E+02  0.29240145463E+04  0.29248831467E+04  0.00000000000E+00 0.  1.
<scales pt_clust_3="32.80174" pt_clust_4="62.66261" pt_clust_5="95.80654" pt_clust_6="14000.00000"></scales>
<clustering>
<clus scale="   32.802">  1  3  2 -1</clus>
<clus scale="   62.663">  2  4  1 -1</clus>
<clus scale="   95.807">  2  5  1 -1</clus>
<clus scale="   62.663">  2  3  1 -1</clus>
</clustering>
</event>
<event>
 6    0  0.1230761E+002  0.1953751E+03  0.7546771E-02  0.1153701E+00
         21   -1    0    0  501  502  0.00000000000E+00  0.00000000000E+00  0.12379318652E+03  0.12379318652E+03  0.00000000000E+00 0.  1.
          2   -1    0    0  504    0 -0.00000000000E+00 -0.00000000000E+00 -0.11673091877E+04  0.11673091877E+04  0.00000000000E+00 0.  1.
         21    1    1    2  503  505  0.21344238952E+02  0.43871745902E+02 -0.24332344437E+02  0.54519442502E+02  0.00000000000E+00 0.  1.
         21    1    1    2  504  503 -0.11136563373E+03 -0.13503915670E+02 -0.83585244241E+03  0.84334688332E+03  0.00000000000E+00 0.  1.
         21    1    1    2  505  502  0.12762551687E+03  0.69331260975E+02  0.35784918910E+02  0.14958494819E+03  0.00000000000E+00 0.  1.
          2    1    1    2  501    0 -0.37604122088E+02 -0.99699091207E+02 -0.21911613327E+03  0.24365110023E+03  0.00000000000E+00 0.  1.
<scales pt_clust_3="46.80092" pt_clust_4="177.90703" pt_clust_5="46.80092" pt_clust_6="106.55505"></scales>
<clustering>
<clus scale="   46.801">  3  5 -1 -1</clus>
<clus scale="  106.555">  2  6  1 -1</clus>
<clus scale="  177.907">  2  4  1 -1</clus>
<clus scale="  195.375">  1  3  2 -1</clus>
</clustering>
</event>
<event>
 6    0  0.1230761E+002  0.1396369E+03  0.7546771E-02  0.1213818E+00
          1   -1    0    0  505    0 -0.00000000000E+00  0.00000000000E+00  0.15020659308E+04  0.15020659308E+04  0.00000000000E+00 0. -1.
         21   -1    0    0  504  502  0.00000000000E+00 -0.00000000000E+00 -0.61427226814E+02  0.61427226814E+02  0.00000000000E+00 0.  1.
         21    1    1    2  503  502  0.52144252360E+02  0.82589876916E+02  0.36840189069E+02  0.10439018323E+03  0.00000000000E+00 0.  1.
         21    1    1    2  504  501 -0.32112113201E+01 -0.38248939990E+02  0.27786929171E+02  0.47385722758E+02  0.00000000000E+00 0. -1.
         21    1    1    2  505  503 -0.51278253995E+02  0.10130958866E+03  0.10307287996E+04  0.10369642956E+04  0.00000000000E+00 0. -1.
          1    1    1    2  501    0  0.23452129560E+01 -0.14565052558E+03  0.34528278620E+03  0.37475295605E+03  0.00000000000E+00 0. -1.
<scales pt_clust_3="97.67349" pt_clust_4="37.01705" pt_clust_5="119.57502" pt_clust_6="37.01705"></scales>
<clustering>
<clus scale="   37.017">  4  6 -1 -1</clus>
<clus scale="   97.673">  2  3  1 -1</clus>
<clus scale="  119.575">  1  5  2 -1</clus>
<clus scale="   97.673">  2  3  1 -1</clus>
</clustering>
</event>
<event>
 6    0  0.1230761E+002  0.1756023E+03  0.7546771E-02  0.1172128E+00
         21   -1    0    0  501  502  0.00000000000E+00  0.00000000000E+00  0.14099910165E+03  0.14099910165E+03  0.00000000000E+00 0. -1.
          4   -1    0    0  505    0 -0.00000000000E+00 -0.00000000000E+00 -0.82187000155E+03  0.82187000155E+03  0.00000000000E+00 0. -1.
         21    1    1    2  503  504  0.14009348646E+02  0.73477128211E+02 -0.26202431147E+03  0.27249199992E+03  0.00000000000E+00 0. -1.
         21    1    1    2  504  502 -0.18334129192E+03 -0.94413052819E+02 -0.27504043714E+03  0.34376604825E+03  0.00000000000E+00 0. -1.
         21    1    1    2  505  503  0.96430950935E+01 -0.34078875462E+02 -0.17179509530E+03  0.17540784989E+03  0.00000000000E+00 0.  1.
          4    1    1    2  501    0  0.15968884818E+03  0.55014800070E+02  0.27988944011E+02  0.17120320513E+03  0.00000000000E+00 0. -1.
<scales pt_clust_3="62.08942" pt_clust_4="14000.00000" pt_clust_5="35.41693" pt_clust_6="175.60231"></scales>
<clustering>
<clus scale="   35.417">  2  5  1 -1</clus>
<clus scale="   62.089">  2  3  1 -1</clus>
<clus scale="  175.602">  1  6  2 -1</clus>
<clus scale="  175.602">  1  3  2 -1</clus>
</clustering>
</event>
<event>
 6    0  0.1230761E+002  0.1022834E+03  0.7546771E-02  0.1275566E+00
          2   -1    0    0  504    0 -0.00000000000E+00  0.00000000000E+00  0.32469231306E+04  0.32469231306E+04  0.00000000000E+00 0.  1.
         21   -1    0    0  503  502  0.00000000000E+00 -0.00000000000E+00 -0.27686585297E+02  0.27686585297E+02  0.00000000000E+00 0.  1.
         21    1    1    2  503  501 -0.53573003459E+02  0.52128382796E+02  0.16975448251E+03  0.18548320497E+03  0.00000000000E+00 0.  1.
         21    1    1    2  504  505 -0.51982125468E+01 -0.79144193258E+02  0.88283579166E+03  0.88639148224E+03  0.00000000000E+00 0.  1.
         21    1    1    2  505  502 -0.53858098802E+02 -0.61091328981E+02  0.90815745298E+02  0.12198501907E+03  0.00000000000E+00 0.  1.
          2    1    1    2  501    0  0.11262931481E+03  0.88107139443E+02  0.20758305258E+04  0.20807500096E+04  0.00000000000E+00 0.  1.
<scales pt_clust_3="74.74915" pt_clust_4="75.13767" pt_clust_5="102.28336" pt_clust_6="14000.00000"></scales>
<clustering>
<clus scale="   74.749">  2  3  1 -1</clus>
<clus scale="   75.138">  1  4  2 -1</clus>
<clus scale="  102.283">  2  5  1 -1</clus>
<clus scale="   74.749">  2  3  1 -1</clus>
</clustering>
</event>
<event>
 6    0  0.1230761E+002  0.9882456E+02  0.7546771E-02  0.1282787E+00
          1   -1    0    0  503    0 -0.00000000000E+00  0.00000000000E+00  0.26622872344E+04  0.26622872344E+04  0.00000000000E+00 0. -1.
         21   -1    0    0  504  502  0.00000000000E+00 -0.00000000000E+00 -0.38871200502E+02  0.38871200502E+02  0.00000000000E+00 0. -1.
         21    1    1    2  503  505  0.40389465462E+02 -0.15249495957E+02  0.12427052879E+04  0.12434549805E+04  0.00000000000E+00 0. -1.
         21    1    1    2  504  501 -0.47625513802E+02  0.80351432307E+02  0.57026674708E+02  0.10943757977E+03  0.00000000000E+00 0. -1.
         21    1    1    2  505  502 -0.48294939388E+02  0.83596402617E+02  0.44386243446E+03  0.45424070758E+03  0.00000000000E+00 0. -1.
          1    1    1    2  501    0  0.55530987728E+02 -0.14869833897E+03  0.87982163686E+03  0.89402516704E+03  0.00000000000E+00 0. -1.
<scales pt_clust_3="43.17240" pt_clust_4="98.82456" pt_clust_5="86.40750" pt_clust_6="14000.00000"></scales>
<clustering>
<clus scale="   43.172">  1  3  2 -1</clus>
<clus scale="   86.407">  1  5  2 -1</clus>
<clus scale="   98.825">  2  4  1 -1</clus>
<clus scale="   98.825">  2  3  1 -1</clus>
</clustering>
</event>
<event>
 6    0  0.1230761E+002  0.1163510E+03  0.7546771E-02  0.1249241E+00
         21   -1    0    0  505  502  0.00000000000E+00  0.00000000000E+00  0.34935689766E+03  0.34935689766E+03  0.00000000000E+00 0. -1.
         -1   -1    0    0    0  501 -0.00000000000E+00 -0.00000000000E+00 -0.40274314289E+03  0.40274314289E+03  0.00000000000E+00 0.  1.
         21    1    1    2  503  504  0.36442491175E+02 -0.34454564469E+02  0.96150825294E+02  0.10844424088E+03  0.00000000000E+00 0. -1.
         21    1    1    2  504  502  0.25233714049E+02 -0.55200236740E+02  0.21635830682E+03  0.22471030993E+03  0.00000000000E+00 0. -1.
         21    1    1    2  505  501 -0.42812153807E+01 -0.43253941296E+02 -0.28973859261E+02  0.52237120549E+02  0.00000000000E+00 0. -1.
         -1    1    1    2    0  503 -0.57394989844E+02  0.13290874250E+03 -0.33692151807E+03  0.36670836919E+03  0.00000000000E+00 0.  1.
<scales pt_clust_3="35.06532" pt_clust_4="35.06532" pt_clust_5="43.46530" pt_clust_6="109.77021"></scales>
<clustering>
<clus scale="   35.065">  3  4 -1 -1</clus>
<clus scale="   43.465">  2  5  1 -1</clus>
<clus scale="  109.770">  2  6  1 -1</clus>
<clus scale="  116.351">  1  3  2 -1</clus>
</clustering>
</event>
<event>
 6    0  0.1230761E+002  0.1401621E+03  0.7546771E-02  0.1213111E+00
         21   -1    0    0  504  502  0.00000000000E+00  0.00000000000E+00  0.10330680350E+03  0.10330680350E+03  0.00000000000E+00 0. -1.
          1   -1    0    0  503    0 -0.00000000000E+00 -0.00000000000E+00 -0.17203796180E+04  0.17203796180E+04  0.00000000000E+00 0. -1.
         21    1    1    2  503  505 -0.31299438909E+02  0.10045730393E+03 -0.42178573885E+03  0.43471201304E+03  0.00000000000E+00 0. -1.
         21    1    1    2  504  501  0.25304052852E+02  0.39943786062E+02  0.74321789525E+02  0.88088191796E+02  0.00000000000E+00 0. -1.
         21    1    1    2  505  502 -0.14977302829E+02  0.32099656976E+02 -0.23021862772E+02  0.42245872503E+02  0.00000000000E+00 0. -1.
          1    1    1    2  501    0  0.20972688886E+02 -0.17250074696E+03 -0.12465870024E+04  0.12586403441E+04  0.00000000000E+00 0. -1.
<scales pt_clust_3="140.16207" pt_clust_4="68.87587" pt_clust_5="35.42185" pt_clust_6="14000.00000"></scales>
<clustering>
<clus scale="   35.422">  1  5  2 -1</clus>
<clus scale="   68.876">  1  4  2 -1</clus>
<clus scale="  140.162">  1  3  2 -1</clus>
<clus scale="   35.422">  1  3  2 -1</clus>
</clustering>
</event>
<event>
 6    0  0.1230761E+002  0.6930908E+02  0.7546771E-02  0.1362458E+00
         -3   -1    0    0    0  501 -0.00000000000E+00  0.00000000000E+00  0.18820166508E+04  0.18820166508E+04  0.00000000000E+00 0. -1.
         21   -1    0    0  503  502  0.00000000000E+00 -0.00000000000E+00 -0.41002312455E+02  0.41002312455E+02  0.00000000000E+00 0. -1.
         21    1    1    2  503  505  0.10919235718E+03 -0.11842085613E+01  0.15625596472E+03  0.19063131885E+03  0.00000000000E+00 0. -1.
         21    1    1    2  504  502 -0.45865127464E+02 -0.18015324921E+02  0.79023116689E+01  0.49905995422E+02  0.00000000000E+00 0. -1.
         21    1    1    2  505  501 -0.33734394477E+02  0.66498619271E+02  0.68243542379E+03  0.68649703814E+03  0.00000000000E+00 0. -1.
         -3    1    1    2    0  504 -0.29592835241E+02 -0.47299085789E+02  0.99442063812E+03  0.99598461080E+03  0.00000000000E+00 0. -1.
<scales pt_clust_3="14000.00000" pt_clust_4="49.27638" pt_clust_5="69.30908" pt_clust_6="57.35345"></scales>
<clustering>
<clus scale="   49.276">  2  4  1 -1</clus>
<clus scale="   57.353">  1  6  2 -1</clus>
<clus scale="   69.309">  1  5  2 -1</clus>
<clus scale="   49.276">  2  3  1 -1</clus>
</clustering>
</event>
<event>
 6    0  0.1230761E+002  0.1512918E+03  0.7546771E-02  0.1198895E+00
         21   -1    0    0  505  502  0.00000000000E+00  0.00000000000E+00  0.35913084075E+03  0.35913084075E+03  0.00000000000E+00 0.  1.
          4   -1    0    0  502    0 -0.00000000000E+00 -0.00000000000E+00 -0.26303322630E+03  0.26303322630E+03  0.00000000000E+00 0. -1.
         21    1    1    2  503  501  0.21080171939E+02  0.53467580373E+02  0.45755586780E+01  0.57654935063E+02  0.00000000000E+00 0.  1.
         21    1    1    2  504  503  0.24236967226E+02  0.53180727133E+02  0.68004262891E+02  0.89667162831E+02  0.00000000000E+00 0.  1.
         21    1    1    2  505  504  0.30859418332E+02  0.18730307381E+02  0.22373537035E+03  0.22662886855E+03  0.00000000000E+00 0.  1.
          4    1    1    2  501    0 -0.76176557496E+02 -0.12537861489E+03 -0.20021757748E+03  0.24821310061E+03  0.00000000000E+00 0. -1.
<scales pt_clust_3="50.16131" pt_clust_4="50.16131" pt_clust_5="36.09887" pt_clust_6="140.99904"></scales>
<clustering>
<clus scale="   36.099">  1  5  2 -1</clus>
<clus scale="   50.161">  3  4 -1 -1</clus>
<clus scale="  140.999">  2  6  1 -1</clus>
<clus scale="   36.099">  1  3  2 -1</clus>
</clustering>
</event>
<event>
 6    0  0.1230761E+002  0.8997363E+02  0.7546771E-02  0.1302916E+00
         21   -1    0    0  505  502  0.00000000000E+00  0.00000000000E+00  0.99477700529E+02  0.99477700529E+02  0.00000000000E+00 0. -1.
         -1   -1    0    0    0  501 -0.00000000000E+00 -0.00000000000E+00 -0.35072460277E+03  0.35072460277E+03  0.00000000000E+00 0. -1.
         21    1    1    2  503  502  0.83508326947E+02  0.36490010699E+02 -0.10284730205E+01  0.91138462281E+02  0.00000000000E+00 0. -1.
         21    1    1    2  504  501  0.30068283639E+02 -0.52032979996E+01 -0.91907389796E+02  0.96840819339E+02  0.00000000000E+00 0. -1.
         21    1    1    2  505  504 -0.23841026424E+02  0.25448767476E+02  0.30030051716E+02  0.46019977326E+02  0.00000000000E+00 0. -1.
         -1    1    1    2    0  503 -0.89735584162E+02 -0.56735480175E+02 -0.18834109114E+03  0.21620304436E+03  0.00000000000E+00 0. -1.
<scales pt_clust_3="14000.00000" pt_clust_4="30.51518" pt_clust_5="34.11695" pt_clust_6="89.97363"></scales>
<clustering>
<clus scale="   30.515">  2  4  1 -1</clus>
<clus scale="   34.117">  1  5  2 -1</clus>
<clus scale="   89.974">  2  6  1 -1</clus>
<clus scale="   34.117">  1  3  2 -1</clus>
</clustering>
</event>
<event>
 6    0  0.1230761E+002  0.1219778E+03  0.7546771E-02  0.1239869E+00
         21   -1    0    0  504  502  0.00000000000E+00  0.00000000000E+00  0.67094736489E+03  0.67094736489E+03  0.00000000000E+00 0.  1.
         -1   -1    0    0    0  501 -0.00000000000E+00 -0.00000000000E+00 -0.10158979032E+03  0.10158979032E+03  0.00000000000E+00 0.  1.
         21    1    1    2  503  501  0.53666373543E+02  0.71885666968E-01  0.22134997519E+02  0.58052070868E+02  0.00000000000E+00 0.  1.
         21    1    1    2  504  505  0.86779158747E+02  0.29362338906E+02  0.24723469707E+03  0.26366221719E+03  0.00000000000E+00 0. -1.
         21    1    1    2  505  503  0.47498811256E+02 -0.75965176455E+02 -0.48163370079E+01  0.89722027433E+02  0.00000000000E+00 0.  1.
         -1    1    1    2    0  502 -0.18794434355E+03  0.46530951882E+02  0.30480421698E+03  0.36110083972E+03  0.00000000000E+00 0.  1.
<scales pt_clust_3="53.66642" pt_clust_4="96.62171" pt_clust_5="14000.00000" pt_clust_6="121.97781"></scales>
<clustering>
<clus scale="   53.666">  2  3  1 -1</clus>
<clus scale="   96.622">  1  4  2 -1</clus>
<clus scale="  121.978">  1  6  2 -1</clus>
<clus scale="   96.622">  1  3  2 -1</clus>
</clustering>
</event>
<event>
 6    0  0.1230761E+002  0.1530005E+03  0.7546771E-02  0.1196834E+00
         21   -1    0    0  503  502  0.00000000000E+00  0.00000000000E+00  0.48991270808E+03  0.48991270808E+03  0.00000000000E+00 0.  1.
          1   -1    0    0  504    0 -0.00000000000E+00 -0.00000000000E+00 -0.28857615660E+03  0.28857615660E+03  0.00000000000E+00 0.  1.
         21    1    1    2  503  501 -0.76719194555E+02  0.11385981453E+03  0.26921887196E+03  0.30220637518E+03  0.00000000000E+00 0.  1.
         21    1    1    2  504  505 -0.35800046608E+02  0.36198503726E+01 -0.43842442304E+02  0.56717778527E+02  0.00000000000E+00 0. -1.
         21    1    1    2  505  502  0.11924480456E+03 -0.16569310698E+03  0.14060264436E+03  0.24787624476E+03  0.00000000000E+00 0.  1.
          1    1    1    2  501    0 -0.67255633922E+01  0.48213442079E+02 -0.16464252254E+03  0.17168846621E+03  0.00000000000E+00 0.  1.
<scales pt_clust_3="153.00048" pt_clust_4="35.98259" pt_clust_5="14000.00000" pt_clust_6="60.00604"></scales>
<clustering>
<clus scale="   35.983">  2  4  1 -1</clus>
<clus scale="   60.006">  2  6  1 -1</clus>
<clus scale="  153.000">  1  3  2 -1</clus>
<clus scale="  153.000">  1  3  2 -1</clus>
</clustering>
</event>
<event>
 6    0  0.1230761E+002  0.7605129E+02  0.7546771E-02  0.1340646E+00
         21   -1    0    0  504  502  0.00000000000E+00  0.00000000000E+00  0.54986679082E+03  0.54986679082E+03  0.00000000000E+00 0. -1.
          2   -1    0    0  503    0 -0.00000000000E+00 -0.00000000000E+00 -0.69041512008E+03  0.69041512008E+03  0.00000000000E+00 0. -1.
         21    1    1    2  503  505 -0.57817858315E+02  0.15363562652E+02 -0.19133611964E+03  0.20047058257E+03  0.00000000000E+00 0. -1.
         21    1    1    2  504  501  0.56744506971E+01 -0.50994656859E+02  0.46057170322E+03  0.46342091906E+03  0.00000000000E+00 0. -1.
         21    1    1    2  505  502 -0.41962492493E+02  0.29156849798E+02  0.70422282335E+02  0.87007301507E+02  0.00000000000E+00 0.  1.
          2    1    1    2  501    0  0.94105900111E+02  0.64742444086E+01 -0.48020619517E+03  0.48938310776E+03  0.00000000000E+00 0. -1.
<scales pt_clust_3="76.05129" pt_clust_4="41.95548" pt_clust_5="51.09768" pt_clust_6="14000.00000"></scales>
<clustering>
<clus scale="   51.098">  1  5  2 -1</clus>
<clus scale="   41.955">  1  4  2 -1</clus>
<clus scale="   76.051">  2  3  1 -1</clus>
<clus scale="   51.098">  1  3  2 -1</clus>
</clustering>
</event>
<event>
 6    0  0.1230761E+002  0.1517942E+03  0.7546771E-02  0.1198286E+00
         21   -1    0    0  504  502  0.00000000000E+00  0.00000000000E+00  0.16550306189E+04  0.16550306189E+04  0.00000000000E+00 0.  1.
         -4   -1    0    0    0  501 -0.00000000000E+00 -0.00000000000E+00 -0.19656938570E+03  0.19656938570E+03  0.00000000000E+00 0. -1.
         21    1    1    2  503  505  0.44839004209E+02  0.14107977374E+03  0.12894762760E+03  0.19631996719E+03  0.00000000000E+00 0. -1.
         21    1    1    2  504  501 -0.58336867528E+02 -0.50844238962E+02  0.41092332361E+02  0.87617957791E+02  0.00000000000E+00 0. -1.
         21    1    1    2  505  502 -0.76854331707E+02 -0.13188780091E+03  0.14056452901E+04  0.14139093542E+04  0.00000000000E+00 0.  1.
         -4    1    1    2    0  503  0.90352195026E+02  0.41652266134E+02 -0.11722401690E+03  0.15375272537E+03  0.00000000000E+00 0. -1.
<scales pt_clust_3="151.79416" pt_clust_4="77.38428" pt_clust_5="14000.00000" pt_clust_6="44.78579"></scales>
<clustering>
<clus scale="   77.384">  2  4  1 -1</clus>
<clus scale="   44.786">  2  6  1 -1</clus>
<clus scale="  151.794">  2  3  1 -1</clus>
<clus scale="  151.794">  1  3  2 -1</clus>
</clustering>
</event>
<event>
 6    0  0.1230761E+002  0.3612415E+03  0.7546771E-02  0.1058093E+00
          1   -1    0    0  505    0 -0.00000000000E+00  0.00000000000E+00  0.19181693996E+04  0.19181693996E+04  0.00000000000E+00 0. -1.
         21   -1    0    0  503  502  0.00000000000E+00 -0.00000000000E+00 -0.17765252474E+03  0.17765252474E+03  0.00000000000E+00 0.  1.
         21    1    1    2  503  504 -0.52721137419E+02  0.30697060001E+03  0.59949140449E+02  0.31718191474E+03  0.00000000000E+00 0.  1.
         21    1    1    2  504  501  0.25275838536E+02  0.65872450376E+02  0.28101254326E+02  0.75945560942E+02  0.00000000000E+00 0.  1.
         21    1    1    2  505  502  0.19851496824E+02 -0.24227865398E+02  0.30678054385E+02  0.43843065686E+02  0.00000000000E+00 0. -1.
          1    1    1    2  501    0  0.75938020593E+01 -0.34861518499E+03  0.16217884257E+04  0.16588513830E+04  0.00000000000E+00 0. -1.
<scales pt_clust_3="40.66542" pt_clust_4="40.66542" pt_clust_5="31.32206" pt_clust_6="351.37485"></scales>
<clustering>
<clus scale="   31.322">  2  5  1 -1</clus>
<clus scale="   40.665">  3  4 -1 -1</clus>
<clus scale="  351.375">  1  6  2 -1</clus>
<clus scale="   31.322">  2  3  1 -1</clus>
</clustering>
</event>
<event>
 6    0  0.1230761E+002  0.9648544E+02  0.7546771E-02  0.1287865E+00
         -3   -1    0    0    0  501 -0.00000000000E+00  0.00000000000E+00  0.56904172749E+03  0.56904172749E+03  0.00000000000E+00 0. -1.
         21   -1    0    0  503  502  0.00000000000E+00 -0.00000000000E+00 -0.46877065187E+03  0.46877065187E+03  0.00000000000E+00 0. -1.
         21    1    1    2  503  501 -0.42573191722E+02 -0.84228251075E+02  0.24794853422E+02  0.97578992046E+02  0.00000000000E+00 0.  1.
         21    1    1    2  504  502 -0.41818009995E+00  0.46985848443E+02 -0.26595535428E+03  0.27007424035E+03  0.00000000000E+00 0. -1.
         21    1    1    2  505  504 -0.36140831508E+02  0.31638664958E+02 -0.15765360742E+03  0.16480844867E+03  0.00000000000E+00 0.  1.
         -3    1    1    2    0  505  0.79132203331E+02  0.56037376742E+01  0.49908518390E+03  0.50535069829E+03  0.00000000000E+00 0. -1.
<scales pt_clust_3="84.55422" pt_clust_4="45.96761" pt_clust_5="45.96761" pt_clust_6="79.33037"></scales>
<clustering>
<clus scale="   45.968">  4  5 -1 -1</clus>
<clus scale="   79.330">  1  6  2 -1</clus>
<clus scale="   84.554">  1  3  2 -1</clus>
<clus scale="   96.485">  2  3  1 -1</clus>
</clustering>
</event>
<event>
 6    0  0.1230761E+002  0.6053347E+02  0.7546771E-02  0.1395607E+00
         21   -1    0    0  503  502  0.00000000000E+00  0.00000000000E+00  0.82805387737E+03  0.82805387737E+03  0.00000000000E+00 0.  1.
         -2   -1    0    0    0  501 -0.00000000000E+00 -0.00000000000E+00 -0.14946752099E+03  0.14946752099E+03  0.00000000000E+00 0. -1.
         21    1    1    2  503  504  0.40781919360E+02  0.65294750735E+02  0.71091092122E+03  0.71506706492E+03  0.00000000000E+00 0.  1.
         21    1    1    2  504  501 -0.15429070060E+02  0.57058319992E+02 -0.46790094580E+00  0.59109449452E+02  0.00000000000E+00 0.  1.
         21    1    1    2  505  502  0.18188457227E+02 -0.51997838582E+02  0.58823742125E+02  0.80590494670E+02  0.00000000000E+00 0.  1.
         -2    1    1    2    0  505 -0.43541306527E+02 -0.70355232145E+02 -0.90680406013E+02  0.12275438933E+03  0.00000000000E+00 0. -1.
<scales pt_clust_3="14000.00000" pt_clust_4="56.98349" pt_clust_5="55.08716" pt_clust_6="60.53347"></scales>
<clustering>
<clus scale="   55.087">  1  5  2 -1</clus>
<clus scale="   56.983">  2  4  1 -1</clus>
<clus scale="   60.533">  2  6  1 -1</clus>
<clus scale="   55.087">  1  3  2 -1</clus>
</clustering>
</event>
<event>
 6    0  0.1230761E+002  0.1336788E+03  0.7546771E-02  0.1222097E+00
         21   -1    0    0  504  502  0.00000000000E+00  0.00000000000E+00  0.49292164440E+02  0.49292164440E+02  0.00000000000E+00 0. -1.
         -3   -1    0    0    0  501 -0.00000000000E+00 -0.00000000000E+00 -0.74202217942E+03  0.74202217942E+03  0.00000000000E+00 0. -1.
         21    1    1    2  503  502  0.32332176524E+02  0.18041848670E+02  0.52593308012E+01  0.37397038689E+02  0.00000000000E+00 0. -1.
         21    1    1    2  504  505  0.45295692340E+02  0.55802756088E+02 -0.83118616632E+02  0.10988335526E+03  0.00000000000E+00 0. -1.
         21    1    1    2  505  501  0.36559960586E+02 -0.92052920825E+01 -0.42484551579E+02  0.56800574321E+02  0.00000000000E+00 0. -1.
         -3    1    1    2    0  503 -0.11418782945E+03 -0.64639312676E+02 -0.57238617757E+03  0.58723337560E+03  0.00000000000E+00 0. -1.
<scales pt_clust_3="37.02537" pt_clust_4="39.94524" pt_clust_5="39.94524" pt_clust_6="121.38502"></scales>
<clustering>
<clus scale="   37.025">  1  3  2 -1</clus>
<clus scale="   39.945">  4  5 -1 -1</clus>
<clus scale="  121.385">  2  6  1 -1</clus>
<clus scale="   37.025">  1  3  2 -1</clus>
</clustering>
</event>
<event>
 6    0  0.1230761E+002  0.9999290E+02  0.7546771E-02  0.1280311E+00
          2   -1    0    0  503    0 -0.00000000000E+00  0.00000000000E+00  0.51733297322E+03  0.51733297322E+03  0.00000000000E+00 0. -1.
         21   -1    0    0  505  502  0.00000000000E+00 -0.00000000000E+00 -0.20406415276E+03  0.20406415276E+03  0.00000000000E+00 0.  1.
         21    1    1    2  503  504 -0.20146938567E+02  0.65557474490E+02 -0.14268219025E+02  0.70051864138E+02  0.00000000000E+00 0.  1.
         21    1    1    2  504  502 -0.41289868908E+02 -0.42211321807E+02 -0.13248846843E+03  0.14505117452E+03  0.00000000000E+00 0.  1.
         21    1    1    2  505  501 -0.66191668563E+02 -0.15647008532E+02  0.78259758925E+02  0.10368585116E+03  0.00000000000E+00 0.  1.
          2    1    1    2  501    0  0.12762847604E+03 -0.76991441506E+01  0.38176574900E+03  0.40260823616E+03  0.00000000000E+00 0. -1.
<scales pt_clust_3="60.48124" pt_clust_4="59.04785" pt_clust_5="14000.00000" pt_clust_6="99.99290"></scales>
<clustering>
<clus scale="   59.048">  2  4  1 -1</clus>
<clus scale="   60.481">  2  3  1 -1</clus>
<clus scale="   99.993">  1  6  2 -1</clus>
<clus scale="   59.048">  2  3  1 -1</clus>
</clustering>
</event>
<event>
 6    0  0.1230761E+002  0.9108539E+02  0.7546771E-02  0.1300244E+00
         21   -1    0    0  503  502  0.00000000000E+00  0.00000000000E+00  0.22746266199E+03  0.22746266199E+03  0.00000000000E+00 0.  1.
         -4   -1    0    0    0  501 -0.00000000000E+00 -0.00000000000E+00 -0.16245431757E+03  0.16245431757E+03  0.00000000000E+00 0. -1.
         21    1    1    2  503  501 -0.66448942643E+02 -0.41386497568E+02  0.11273368466E+03  0.13724863503E+03  0.00000000000E+00 0.  1.
         21    1    1    2  504  502  0.12406824227E+01 -0.32792199801E+02  0.29607077199E+02  0.44197813079E+02  0.00000000000E+00 0.  1.
         21    1    1    2  505  504 -0.27023399215E+02  0.57857028835E+02  0.26051691064E+02  0.68966589723E+02  0.00000000000E+00 0. -1.
         -4    1    1    2    0  505  0.92231659436E+02  0.16321668534E+02 -0.10338410851E+03  0.13950394173E+03  0.00000000000E+00 0. -1.
<scales pt_clust_3="91.08539" pt_clust_4="32.81566" pt_clust_5="56.40828" pt_clust_6="14000.00000"></scales>
<clustering>
<clus scale="   32.816">  1  4  2 -1</clus>
<clus scale="   56.408">  1  5  2 -1</clus>
<clus scale="   91.085">  1  3  2 -1</clus>
<clus scale="   32.816">  1  3  2 -1</clus>
</clustering>
</event>
<event>
 6    0  0.1230761E+002  0.8348896E+02  0.7546771E-02  0.1319432E+00
         21   -1    0    0  503  502  0.00000000000E+00  0.00000000000E+00  0.31589001978E+02  0.31589001978E+02  0.00000000000E+00 0. -1.
          2   -1    0    0  504    0 -0.00000000000E+00 -0.00000000000E+00 -0.12258091635E+04  0.12258091635E+04  0.00000000000E+00 0.  1.
         21    1    1    2  503  501  0.56639630174E+02 -0.76433458744E+02 -0.12942856816E+03  0.16062962235E+03  0.00000000000E+00 0. -1.
         21    1    1    2  504  505 -0.29159845685E+02  0.33578621973E+02 -0.28962811731E+03  0.29302263870E+03  0.00000000000E+00 0. -1.
         21    1    1    2  505  502 -0.86844565933E+02  0.84981551871E+01 -0.14053423105E+03  0.16542087948E+03  0.00000000000E+00 0. -1.
          2    1    1    2  501    0  0.59364781444E+02  0.34356681584E+02 -0.63462924505E+03  0.63832502498E+03  0.00000000000E+00 0.  1.
<scales pt_clust_3="83.48896" pt_clust_4="44.47269" pt_clust_5="14000.00000" pt_clust_6="69.53780"></scales>
<clustering>
<clus scale="   44.473">  2  4  1 -1</clus>
<clus scale="   69.538">  2  6  1 -1</clus>
<clus scale="   83.489">  1  3  2 -1</clus>
<clus scale="   83.489">  1  3  2 -1</clus>
</clustering>
</event>
<event>
 6    0  0.1230761E+002  0.1689813E+03  0.7546771E-02  0.1178914E+00
          2   -1    0    0  504    0 -0.00000000000E+00  0.00000000000E+00  0.71179467761E+03  0.71179467761E+03  0.00000000000E+00 0. -1.
         21   -1    0    0  505  502  0.00000000000E+00 -0.00000000000E+00 -0.17965337322E+03  0.17965337322E+03  0.00000000000E+00 0. -1.
         21    1    1    2  503  501  0.10272047847E+02  0.65764007036E+02 -0.45454656415E+02  0.80601149981E+02  0.00000000000E+00 0. -1.
         21    1    1    2  504  502 -0.15012424141E+03 -0.22382501936E+02  0.37139161539E+03  0.40121066316E+03  0.00000000000E+00 0. -1.
         21    1    1    2  505  503  0.55806746596E+02  0.97130596105E+02 -0.35664252408E+02  0.11756140764E+03  0.00000000000E+00 0. -1.
          2    1    1    2  501    0  0.84045446964E+02 -0.14051210121E+03  0.24186859782E+03  0.29207483006E+03  0.00000000000E+00 0. -1.
<scales pt_clust_3="32.58600" pt_clust_4="151.78361" pt_clust_5="32.58600" pt_clust_6="163.60810"></scales>
<clustering>
<clus scale="   32.586">  3  5 -1 -1</clus>
<clus scale="  151.784">  1  4  2 -1</clus>
<clus scale="  163.608">  1  6  2 -1</clus>
<clus scale="  168.981">  2  3  1 -1</clus>
</clustering>
</event>
<event>
 6    0  0.1230761E+002  0.9202455E+02  0.7546771E-02  0.1298022E+00
         21   -1    0    0  505  502  0.00000000000E+00  0.00000000000E+00  0.21688391246E+03  0.21688391246E+03  0.00000000000E+00 0. -1.
         -1   -1    0    0    0  501 -0.00000000000E+00 -0.00000000000E+00 -0.61211975944E+03  0.61211975944E+03  0.00000000000E+00 0. -1.
         21    1    1    2  503  504 -0.92255238029E+02  0.10230479220E+03  0.13459359355E+03  0.19259474260E+03  0.00000000000E+00 0. -1.
         21    1    1    2  504  501 -0.55334054307E+02 -0.61989658880E+02 -0.35071174728E+03  0.36042101084E+03  0.00000000000E+00 0. -1.
         21    1    1    2  505  503  0.63224416618E+02 -0.11667089076E+02  0.11743118717E+02  0.65355555704E+02  0.00000000000E+00 0. -1.
         -1    1    1    2    0  502  0.84364875718E+02 -0.28648044243E+02 -0.19086081198E+03  0.21063236276E+03  0.00000000000E+00 0. -1.
<scales pt_clust_3="14000.00000" pt_clust_4="82.19820" pt_clust_5="64.29190" pt_clust_6="92.02455"></scales>
<clustering>
<clus scale="   64.292">  1  5  2 -1</clus>
<clus scale="   82.198">  2  4  1 -1</clus>
<clus scale="   92.025">  2  6  1 -1</clus>
<clus scale="   64.292">  1  3  2 -1</clus>
</clustering>
</event>
<event>
 6    0  0.1230761E+002  0.3121072E+03  0.7546771E-02  0.1079340E+00
         21   -1    0    0  501  502  0.00000000000E+00  0.00000000000E+00  0.23620891662E+03  0.23620891662E+03  0.00000000000E+00 0. -1.
          2   -1    0    0  504    0 -0.00000000000E+00 -0.00000000000E+00 -0.13099312168E+04  0.13099312168E+04  0.00000000000E+00 0. -1.
         21    1    1    2  503  505  0.93485114664E+02  0.12327409105E+03  0.44904098049E+02  0.16109731906E+03  0.00000000000E+00 0. -1.
         21    1    1    2  504  503 -0.52986283255E+02  0.61373563907E+01 -0.39509363830E+03  0.39867806107E+03  0.00000000000E+00 0. -1.
         21    1    1    2  505  502  0.64606299877E+02  0.14648965189E+03  0.42295289493E+02  0.16559614611E+03  0.00000000000E+00 0. -1.
          2    1    1    2  501    0 -0.10510513129E+03 -0.27590109932E+03 -0.76582804939E+03  0.82076860714E+03  0.00000000000E+00 0. -1.
<scales pt_clust_3="36.24549" pt_clust_4="53.34054" pt_clust_5="36.24549" pt_clust_6="309.92155"></scales>
<clustering>
<clus scale="   36.245">  3  5 -1 -1</clus>
<clus scale="   53.341">  2  4  1 -1</clus>
<clus scale="  309.922">  2  6  1 -1</clus>
<clus scale="  312.107">  1  3  2 -1</clus>
</clustering>
</event>
<event>
 6    0  0.1230761E+002  0.9368739E+02  0.7546771E-02  0.1294160E+00
         21   -1    0    0  504  502  0.00000000000E+00  0.00000000000E+00  0.16104862535E+03  0.16104862535E+03  0.00000000000E+00 0. -1.
          2   -1    0    0  505    0 -0.00000000000E+00 -0.00000000000E+00 -0.11344938062E+04  0.11344938062E+04  0.00000000000E+00 0. -1.
         21    1    1    2  503  502 -0.34035512389E+02 -0.19754559250E+02 -0.26183471540E+02  0.47267672850E+02  0.00000000000E+00 0. -1.
         21    1    1    2  504  501 -0.54725258924E+02 -0.85351069833E+02  0.10021083384E+03  0.14255479755E+03  0.00000000000E+00 0. -1.
         21    1    1    2  505  503  0.30537782737E+02  0.31863000044E+02  0.90585103288E+01  0.45054007099E+02  0.00000000000E+00 0.  1.
          2    1    1    2  501    0  0.58222988576E+02  0.73242629040E+02 -0.10565310535E+04  0.10606659541E+04  0.00000000000E+00 0. -1.
<scales pt_clust_3="39.35300" pt_clust_4="14000.00000" pt_clust_5="37.38793" pt_clust_6="93.68739"></scales>
<clustering>
<clus scale="   39.353">  1  3  2 -1</clus>
<clus scale="   37.388">  1  5  2 -1</clus>
<clus scale="   93.687">  2  6  1 -1</clus>
<clus scale="   39.353">  1  3  2 -1</clus>
</clustering>
</event>
<event>
 6    0  0.1230761E+002  0.5464437E+02  0.7546771E-02  0.1421788E+00
         21   -1    0    0  503  502  0.00000000000E+00  0.00000000000E+00  0.60997428105E+02  0.60997428105E+02  0.00000000000E+00 0. -1.
          1   -1    0    0  504    0 -0.00000000000E+00 -0.00000000000E+00 -0.17371287478E+04  0.17371287478E+04  0.00000000000E+00 0. -1.
         21    1    1    2  503  505 -0.24077002091E+01 -0.47914150638E+02 -0.19140090102E+02  0.51651775389E+02  0.00000000000E+00 0. -1.
         21    1    1    2  504  502 -0.42586034552E+02 -0.11285012251E+02 -0.13318520205E+03  0.14028264285E+03  0.00000000000E+00 0.  1.
         21    1    1    2  505  501 -0.50593980107E+02  0.48444278937E+02  0.87753774537E+01  0.70594661514E+02  0.00000000000E+00 0. -1.
          1    1    1    2  501    0  0.95587714868E+02  0.10754883953E+02 -0.15325814050E+04  0.15355970961E+04  0.00000000000E+00 0. -1.
<scales pt_clust_3="48.28007" pt_clust_4="44.05589" pt_clust_5="14000.00000" pt_clust_6="54.64437"></scales>
<clustering>
<clus scale="   44.056">  2  4  1 -1</clus>
<clus scale="   48.280">  1  3  2 -1</clus>
<clus scale="   54.644">  2  6  1 -1</clus>
<clus scale="   48.280">  1  3  2 -1</clus>
</clustering>
</event>
<event>
 6    0  0.1230761E+002  0.9469284E+02  0.7546771E-02  0.1291869E+00
         21   -1    0    0  505  502  0.00000000000E+00  0.00000000000E+00  0.35798707945E+03  0.35798707945E+03  0.00000000000E+00 0.  1.
          2   -1    0    0  504    0 -0.00000000000E+00 -0.00000000000E+00 -0.49436971749E+03  0.49436971749E+03  0.00000000000E+00 0. -1.
         21    1    1    2  503  501  0.54389469036E+01  0.74731327559E+02 -0.10120172749E+03  0.12592117816E+03  0.00000000000E+00 0. -1.
         21    1    1    2  504  502 -0.66730131630E+02 -0.12677470788E+03  0.30331668336E+03  0.33544857643E+03  0.00000000000E+00 0.  1.
         21    1    1    2  505  503  0.91228934799E+01  0.45475193116E+02  0.20283646684E+01  0.46425581716E+02  0.00000000000E+00 0.  1.
          2    1    1    2  501    0  0.52168291246E+02  0.65681872050E+01 -0.34052595857E+03  0.34456146063E+03  0.00000000000E+00 0. -1.
<scales pt_clust_3="94.69284" pt_clust_4="14000.00000" pt_clust_5="46.38125" pt_clust_6="52.66988"></scales>
<clustering>
<clus scale="   46.381">  1  5  2 -1</clus>
<clus scale="   52.670">  2  6  1 -1</clus>
<clus scale="   94.693">  2  3  1 -1</clus>
<clus scale="   46.381">  1  3  2 -1</clus>
</clustering>
</event>
<event>
 6    0  0.1230761E+002  0.1020948E+03  0.7546771E-02  0.1275951E+00
         -2   -1    0    0    0  501 -0.00000000000E+00  0.00000000000E+00  0.47701632137E+02  0.47701632137E+02  0.00000000000E+00 0.  1.
         21   -1    0    0  503  502  0.00000000000E+00 -0.00000000000E+00 -0.18426166040E+04  0.18426166040E+04  0.00000000000E+00 0.  1.
         21    1    1    2  503  504  0.13278788314E+03  0.30858732976E+02 -0.77728405716E+03  0.78914852140E+03  0.00000000000E+00 0.  1.
         21    1    1    2  504  501 -0.12414113397E+02  0.29151113858E+02  0.60804535475E+01  0.32262510224E+02  0.00000000000E+00 0. -1.
         21    1    1    2  505  502 -0.33241328455E+02 -0.29550915918E+02 -0.94931130016E+03  0.95035266463E+03  0.00000000000E+00 0.  1.
         -2    1    1    2    0  505 -0.87132441290E+02 -0.30458930916E+02 -0.74400068103E+02  0.11855453990E+03  0.00000000000E+00 0.  1.
<scales pt_clust_3="14000.00000" pt_clust_4="31.68434" pt_clust_5="44.29668" pt_clust_6="102.09485"></scales>
<clustering>
<clus scale="   31.684">  1  4  2 -1</clus>
<clus scale="   44.297">  2  5  1 -1</clus>
<clus scale="  102.095">  1  6  2 -1</clus>
<clus scale="   44.297">  2  3  1 -1</clus>
</clustering>
</event>
<event>
 6    0  0.1230761E+002  0.1460133E+03  0.7546771E-02  0.1205459E+00
         21   -1    0    0  501  502  0.00000000000E+00  0.00000000000E+00  0.22679015027E+03  0.22679015027E+03  0.00000000000E+00 0.  1.
          2   -1    0    0  503    0 -0.00000000000E+00 -0.00000000000E+00 -0.35539704258E+03  0.35539704258E+03  0.00000000000E+00 0.  1.
         21    1    1    2  503  505 -0.67720703785E+02 -0.53456329867E+02 -0.15036469752E+03  0.17335863170E+03  0.00000000000E+00 0.  1.
         21    1    1    2  504  502  0.10800580163E+03  0.19948676695E+02  0.16191503656E+03  0.19565194083E+03  0.00000000000E+00 0.  1.
         21    1    1    2  505  504  0.36558543269E+02  0.47190570615E+00  0.12887293547E+02  0.38766378679E+02  0.00000000000E+00 0.  1.
          2    1    1    2  501    0 -0.76843641111E+02  0.33035747465E+02 -0.15304452490E+03  0.17441024165E+03  0.00000000000E+00 0.  1.
<scales pt_clust_3="135.05423" pt_clust_4="32.02133" pt_clust_5="32.02133" pt_clust_6="83.64392"></scales>
<clustering>
<clus scale="   32.021">  4  5 -1 -1</clus>
<clus scale="   83.644">  2  6  1 -1</clus>
<clus scale="  135.054">  2  3  1 -1</clus>
<clus scale="  146.013">  1  3  2 -1</clus>
</clustering>
</event>
<event>
 6    0  0.1230761E+002  0.3066485E+03  0.7546771E-02  0.1081964E+00
         21   -1    0    0  504  502  0.00000000000E+00  0.00000000000E+00  0.58640510741E+03  0.58640510741E+03  0.00000000000E+00 0. -1.
          2   -1    0    0  503    0 -0.00000000000E+00 -0.00000000000E+00 -0.21693998068E+04  0.21693998068E+04  0.00000000000E+00 0. -1.
         21    1    1    2  503  502  0.23413486664E+02  0.41483388197E+02 -0.11427921818E+04  0.11437845224E+04  0.00000000000E+00 0. -1.
         21    1    1    2  504  505 -0.38495771520E+02 -0.52839648725E+02  0.73958124880E+02  0.98710471268E+02  0.00000000000E+00 0. -1.
         21    1    1    2  505  501  0.14556323879E+03 -0.23811409316E+03  0.43857888049E+03  0.51984460395E+03  0.00000000000E+00 0. -1.
          2    1    1    2  501    0 -0.13048095393E+03  0.24947035368E+03 -0.95273952294E+03  0.99346531660E+03  0.00000000000E+00 0. -1.
<scales pt_clust_3="47.63468" pt_clust_4="64.80482" pt_clust_5="306.64845" pt_clust_6="14000.00000"></scales>
<clustering>
<clus scale="   47.635">  2  3  1 -1</clus>
<clus scale="   64.805">  1  4  2 -1</clus>
<clus scale="  306.648">  1  5  2 -1</clus>
<clus scale="   64.805">  1  3  2 -1</clus>
</clustering>
</event>
<event>
 6    0  0.1230761E+002  0.8349190E+02  0.7546771E-02  0.1319424E+00
          2   -1    0    0  505    0 -0.00000000000E+00  0.00000000000E+00  0.95221579232E+03  0.95221579232E+03  0.00000000000E+00 0.  1.
         21   -1    0    0  504  502  0.00000000000E+00 -0.00000000000E+00 -0.19348038101E+03  0.19348038101E+03  0.00000000000E+00 0. -1.
         21    1    1    2  503  502 -0.43145157573E+02 -0.59862499722E+02 -0.90811808751E+02  0.11701199983E+03  0.00000000000E+00 0. -1.
         21    1    1    2  504  501 -0.64976088228E+01  0.34976513288E+02  0.20128961128E+02  0.40874814719E+02  0.00000000000E+00 0. -1.
         21    1    1    2  505  503 -0.65795747147E+01  0.87098669436E+02 -0.52502193961E+02  0.10191147821E+03  0.00000000000E+00 0. -1.
          2    1    1    2  501    0  0.56222341111E+02 -0.62212683002E+02  0.88192045289E+03  0.88589788057E+03  0.00000000000E+00 0.  1.
<scales pt_clust_3="61.59848" pt_clust_4="35.57493" pt_clust_5="83.49190" pt_clust_6="14000.00000"></scales>
<clustering>
<clus scale="   35.575">  2  4  1 -1</clus>
<clus scale="   61.598">  2  3  1 -1</clus>
<clus scale="   83.492">  2  5  1 -1</clus>
<clus scale="   35.575">  2  3  1 -1</clus>
</clustering>
</event>
<event>
 6    0  0.1230761E+002  0.1343748E+03  0.7546771E-02  0.1221105E+00
         -2   -1    0    0    0  501 -0.00000000000E+00  0.00000000000E+00  0.95921957972E+03  0.95921957972E+03  0.00000000000E+00 0. -1.
         21   -1    0    0  504  502  0.00000000000E+00 -0.00000000000E+00 -0.83095417951E+02  0.83095417951E+02  0.00000000000E+00 0. -1.
         21    1    1    2  503  502  0.15466668935E+02  0.55404359074E+02 -0.26481814577E+02  0.63325724280E+02  0.00000000000E+00 0. -1.
         21    1    1    2  504  505 -0.24456624957E+02  0.34312225744E+02  0.11731254440E+02  0.43738743358E+02  0.00000000000E+00 0. -1.
         21    1    1    2  505  501  0.66857378241E+02  0.70064730167E+02  0.18058016993E+03  0.20491015887E+03  0.00000000000E+00 0. -1.
         -2    1    1    2    0  503 -0.57867422219E+02 -0.15978131498E+03  0.71029455198E+03  0.73034037116E+03  0.00000000000E+00 0. -1.
<scales pt_clust_3="78.37437" pt_clust_4="42.13615" pt_clust_5="134.37483" pt_clust_6="14000.00000"></scales>
<clustering>
<clus scale="   42.136">  2  4  1 -1</clus>
<clus scale="   78.374">  2  3  1 -1</clus>
<clus scale="  134.375">  2  5  1 -1</clus>
<clus scale="   42.136">  2  3  1 -1</clus>
</clustering>
</event>
<event>
 6    0  0.1230761E+002  0.9823228E+02  0.7546771E-02  0.1284058E+00
         -1   -1    0    0    0  501 -0.00000000000E+00  0.00000000000E+00  0.60070995050E+03  0.60070995050E+03  0.00000000000E+00 0. -1.
         21   -1    0    0  503  502  0.00000000000E+00 -0.00000000000E+00 -0.10684383946E+03  0.10684383946E+03  0.00000000000E+00 0. -1.
         21    1    1    2  503  501 -0.28473547759E+02 -0.51869447372E+02 -0.54072835417E+02  0.80156434693E+02  0.00000000000E+00 0. -1.
         21    1    1    2  504  502  0.34839137925E+02 -0.29740833085E+02  0.81236967295E+01  0.46521792017E+02  0.00000000000E+00 0. -1.
         21    1    1    2  505  504  0.94079935653E+02  0.36031334492E+02  0.20612288074E+03  0.22942522381E+03  0.00000000000E+00 0.  1.
         -1    1    1    2    0  505 -0.10044552582E+03  0.45578945965E+02  0.33369236898E+03  0.35145033944E+03  0.00000000000E+00 0. -1.
<scales pt_clust_3="74.66529" pt_clust_4="45.80702" pt_clust_5="14000.00000" pt_clust_6="98.23228"></scales>
<clustering>
<clus scale="   45.807">  2  4  1 -1</clus>
<clus scale="   74.665">  2  3  1 -1</clus>
<clus scale="   98.232">  1  6  2 -1</clus>
<clus scale="   45.807">  2  3  1 -1</clus>
</clustering>
</event>
<event>
 6    0  0.1230761E+002  0.1130375E+03  0.7546771E-02  0.1255046E+00
         21   -1    0    0  504  502  0.00000000000E+00  0.00000000000E+00  0.45310286967E+03  0.45310286967E+03  0.00000000000E+00 0.  1.
          1   -1    0    0  505    0 -0.00000000000E+00 -0.00000000000E+00 -0.12931582188E+04  0.12931582188E+04  0.00000000000E+00 0. -1.
         21    1    1    2  503  502  0.27907168200E+02  0.31346145087E+02  0.41772757951E+02  0.59214475896E+02  0.00000000000E+00 0. -1.
         21    1    1    2  504  501  0.75521655640E+02  0.14933404505E+02  0.39210046596E+03  0.39958641425E+03  0.00000000000E+00 0.  1.
         21    1    1    2  505  503  0.31145465620E+02 -0.94604710736E+01 -0.97563268246E+02  0.10285004547E+03  0.00000000000E+00 0.  1.
          1    1    1    2  501    0 -0.13457428946E+03 -0.36819078519E+02 -0.11763653048E+04  0.11846101528E+04  0.00000000000E+00 0. -1.
<scales pt_clust_3="42.06923" pt_clust_4="14000.00000" pt_clust_5="32.55058" pt_clust_6="113.03746"></scales>
<clustering>
<clus scale="   32.551">  2  5  1 -1</clus>
<clus scale="   42.069">  1  3  2 -1</clus>
<clus scale="  113.037">  2  6  1 -1</clus>
<clus scale="   42.069">  1  3  2 -1</clus>
</clustering>
</event>
<event>
 6    0  0.1230761E+002  0.8784904E+02  0.7546771E-02  0.1308146E+00
          2   -1    0    0  503    0 -0.00000000000E+00  0.00000000000E+00  0.35417845004E+04  0.35417845004E+04  0.00000000000E+00 0.  1.
         21   -1    0    0  505  502  0.00000000000E+00 -0.00000000000E+00 -0.69724690557E+02  0.69724690557E+02  0.00000000000E+00 0.  1.
         21    1    1    2  503  504 -0.25673925644E+02 -0.19775104001E+02  0.46524181585E+03  0.46636911606E+03  0.00000000000E+00 0. -1.
         21    1    1    2  504  502  0.83251381525E+01 -0.61484110404E+02 -0.29269961951E+02  0.68602729027E+02  0.00000000000E+00 0.  1.
         21    1    1    2  505  501  0.45888901312E+02  0.13053061336E+03  0.22012110959E+03  0.25999487529E+03  0.00000000000E+00 0.  1.
          2    1    1    2  501    0 -0.28540113820E+02 -0.49271398959E+02  0.28159668463E+04  0.28165424706E+04  0.00000000000E+00 0.  1.
<scales pt_clust_3="32.40687" pt_clust_4="62.14870" pt_clust_5="87.84904" pt_clust_6="14000.00000"></scales>
<clustering>
<clus scale="   32.407">  1  3  2 -1</clus>
<clus scale="   62.149">  2  4  1 -1</clus>
<clus scale="   87.849">  2  5  1 -1</clus>
<clus scale="   62.149">  2  3  1 -1</clus>
</clustering>
</event>
<event>
 6    0  0.1230761E+002  0.1486151E+03  0.7546771E-02  0.1202185E+00
         21   -1    0    0  505  502  0.00000000000E+00  0.00000000000E+00  0.62062596678E+02  0.62062596678E+02  0.00000000000E+00 0.  1.
         -1   -1    0    0    0  501 -0.00000000000E+00 -0.00000000000E+00 -0.93582343686E+03  0.93582343686E+03  0.00000000000E+00 0. -1.
         21    1    1    2  503  501 -0.32405826775E+01  0.47577030103E+02 -0.16030517604E+03  0.16724779411E+03  0.00000000000E+00 0. -1.
         21    1    1    2  504  502 -0.26298843648E+01  0.45339696907E+02  0.25068624653E+02  0.51875238307E+02  0.00000000000E+00 0.  1.
         21    1    1    2  505  503 -0.43028869427E+02  0.49321035786E+02 -0.80416942804E+02  0.10368670534E+03  0.00000000000E+00 0.  1.
         -1    1    1    2    0  504  0.48899336469E+02 -0.14223776280E+03 -0.65810734599E+03  0.67507629578E+03  0.00000000000E+00 0. -1.
<scales pt_clust_3="50.34036" pt_clust_4="45.41590" pt_clust_5="50.34036" pt_clust_6="134.75235"></scales>
<clustering>
<clus scale="   45.416">  1  4  2 -1</clus>
<clus scale="   50.340">  3  5 -1 -1</clus>
<clus scale="  134.752">  2  6  1 -1</clus>
<clus scale="   45.416">  1  3  2 -1</clus>
</clustering>
</event>
<event>
 6    0  0.1230761E+002  0.9819783E+02  0.7546771E-02  0.1284132E+00
         21   -1    0    0  501  502  0.00000000000E+00  0.00000000000E+00  0.55055367401E+02  0.55055367401E+02  0.00000000000E+00 0.  1.
          1   -1    0    0  505    0 -0.00000000000E+00 -0.00000000000E+00 -0.16768248616E+04  0.16768248616E+04  0.00000000000E+00 0.  1.
         21    1    1    2  503  502 -0.35026972450E+02  0.23993118666E+02  0.12987820967E+01  0.42476409656E+02  0.00000000000E+00 0. -1.
         21    1    1    2  504  503 -0.64572968415E+02 -0.33616698627E+02 -0.30892408766E+02  0.79082814795E+02  0.00000000000E+00 0.  1.
         21    1    1    2  505  504 -0.62248243559E+02  0.37359169967E+02 -0.63818174622E+03  0.64229782237E+03  0.00000000000E+00 0. -1.
          1    1    1    2  501    0  0.16184818442E+03 -0.27735590007E+02 -0.95399412129E+03  0.96802318216E+03  0.00000000000E+00 0.  1.
<scales pt_clust_3="42.45655" pt_clust_4="98.19783" pt_clust_5="75.22838" pt_clust_6="14000.00000"></scales>
<clustering>
<clus scale="   42.457">  1  3  2 -1</clus>
<clus scale="   75.228">  2  5  1 -1</clus>
<clus scale="   98.198">  1  4  2 -1</clus>
<clus scale="   42.457">  1  3  2 -1</clus>
</clustering>
</event>
<event>
 6    0  0.1230761E+002  0.1007891E+03  0.7546771E-02  0.1278645E+00
         -1   -1    0    0    0  501 -0.00000000000E+00  0.00000000000E+00  0.78837601065E+01  0.78837601065E+01  0.00000000000E+00 0. -1.
         21   -1    0    0  505  502  0.00000000000E+00 -0.00000000000E+00 -0.34287105610E+04  0.34287105610E+04  0.00000000000E+00 0. -1.
         21    1    1    2  503  501 -0.40136877482E+02  0.17334179716E+02 -0.22785043794E+03  0.23200703608E+03  0.00000000000E+00 0. -1.
         21    1    1    2  504  503 -0.49870714872E+02 -0.14994149031E+02 -0.10099418960E+04  0.10112836130E+04  0.00000000000E+00 0. -1.
         21    1    1    2  505  504 -0.26267271945E+02 -0.30606022696E+02 -0.14504564650E+04  0.14510171105E+04  0.00000000000E+00 0. -1.
         -1    1    1    2    0  502  0.11627486430E+03  0.28265992012E+02 -0.73257800205E+03  0.74228656155E+03  0.00000000000E+00 0. -1.
<scales pt_clust_3="43.72005" pt_clust_4="33.95206" pt_clust_5="33.95206" pt_clust_6="93.11311"></scales>
<clustering>
<clus scale="   33.952">  4  5 -1 -1</clus>
<clus scale="   43.720">  1  3  2 -1</clus>
<clus scale="   93.113">  1  6  2 -1</clus>
<clus scale="  100.789">  2  3  1 -1</clus>
</clustering>
</event>
<event>
 6    0  0.1230761E+002  0.1213656E+03  0.7546771E-02  0.1240861E+00
         21   -1    0    0  504  502  0.00000000000E+00  0.00000000000E+00  0.73199750097E+03  0.73199750097E+03  0.00000000000E+00 0. -1.
          1   -1    0    0  505    0 -0.00000000000E+00 -0.00000000000E+00 -0.34834410255E+03  0.34834410255E+03  0.00000000000E+00 0. -1.
         21    1    1    2  503  502 -0.62489527507E+02  0.60337426466E+02  0.28934860862E+03  0.30210621210E+03  0.00000000000E+00 0. -1.
         21    1    1    2  504  501 -0.31959902121E+02  0.18813445069E+02  0.40897004705E+03  0.41064812241E+03  0.00000000000E+00 0. -1.
         21    1    1    2  505  503 -0.29612212913E+02 -0.89451231219E+01 -0.13364297339E+03  0.13717631982E+03  0.00000000000E+00 0. -1.
          1    1    1    2  501    0  0.12406164254E+03 -0.70205748414E+02 -0.18102228385E+03  0.23041094920E+03  0.00000000000E+00 0. -1.
<scales pt_clust_3="14000.00000" pt_clust_4="37.16891" pt_clust_5="30.93377" pt_clust_6="121.36556"></scales>
<clustering>
<clus scale="   30.934">  2  5  1 -1</clus>
<clus scale="   37.169">  1  4  2 -1</clus>
<clus scale="  121.366">  2  6  1 -1</clus>
<clus scale="   37.169">  1  3  2 -1</clus>
</clustering>
</event>
<event>
 6    0  0.1230761E+002  0.1343266E+03  0.7546771E-02  0.1221174E+00
          1   -1    0    0  504    0 -0.00000000000E+00  0.00000000000E+00  0.11360197448E+04  0.11360197448E+04  0.00000000000E+00 0. -1.
         21   -1    0    0  503  502  0.00000000000E+00 -0.00000000000E+00 -0.12476374567E+03  0.12476374567E+03  0.00000000000E+00 0. -1.
         21    1    1    2  503  505 -0.14225690298E+02  0.28341491918E+02 -0.57120962694E+02  0.65333106521E+02  0.00000000000E+00 0. -1.
         21    1    1    2  504  502  0.69557143442E+02  0.10729322318E+02  0.89518817559E+02  0.11387244293E+03  0.00000000000E+00 0. -1.
         21    1    1    2  505  501 -0.76036609046E+02  0.96475392491E+02  0.34880785833E+02  0.12769391721E+03  0.00000000000E+00 0. -1.
          1    1    1    2  501    0  0.20705155902E+02 -0.13554620673E+03  0.94397735839E+03  0.95388402376E+03  0.00000000000E+00 0. -1.
<scales pt_clust_3="31.71136" pt_clust_4="68.75705" pt_clust_5="134.32655" pt_clust_6="14000.00000"></scales>
<clustering>
<clus scale="   31.711">  2  3  1 -1</clus>
<clus scale="   68.757">  2  4  1 -1</clus>
<clus scale="  134.327">  2  5  1 -1</clus>
<clus scale="   31.711">  2  3  1 -1</clus>
</clustering>
</event>
<event>
 6    0  0.1230761E+002  0.1064489E+03  0.7546771E-02  0.1267291E+00
          1   -1    0    0  503    0 -0.00000000000E+00  0.00000000000E+00  0.20234774209E+04  0.20234774209E+04  0.00000000000E+00 0. -1.
         21   -1    0    0  504  502  0.00000000000E+00 -0.00000000000E+00 -0.22663173680E+03  0.22663173680E+03  0.00000000000E+00 0. -1.
         21    1    1    2  503  505 -0.51147718873E+02  0.11719337201E+03  0.76345353455E+03  0.77408764039E+03  0.00000000000E+00 0. -1.
         21    1    1    2  504  501 -0.58242127075E+02 -0.55285929587E+02 -0.89959723977E+02  0.12058785724E+03  0.00000000000E+00 0. -1.
         21    1    1    2  505  502  0.12757063595E+03 -0.24307531755E+02 -0.79230086177E+02  0.15212669001E+03  0.00000000000E+00 0. -1.
          1    1    1    2  501    0 -0.18180790001E+02 -0.37599910671E+02  0.12025819597E+04  0.12033069701E+04  0.00000000000E+00 0. -1.
<scales pt_clust_3="14000.00000" pt_clust_4="81.03336" pt_clust_5="106.44886" pt_clust_6="41.76475"></scales>
<clustering>
<clus scale="   41.765">  1  6  2 -1</clus>
<clus scale="   81.033">  2  4  1 -1</clus>
<clus scale="  106.449">  2  5  1 -1</clus>
<clus scale="   81.033">  2  3  1 -1</clus>
</clustering>
</event>
<event>
 6    0  0.1230761E+002  0.2398334E+03  0.7546771E-02  0.1119904E+00
         -4   -1    0    0    0  501 -0.00000000000E+00  0.00000000000E+00  0.15823262054E+03  0.15823262054E+03  0.00000000000E+00 0. -1.
         21   -1    0    0  505  502  0.00000000000E+00 -0.00000000000E+00 -0.17441528437E+04  0.17441528437E+04  0.00000000000E+00 0.  1.
         21    1    1    2  503  502  0.11400764121E+03 -0.13414527027E+03 -0.99977224858E+03  0.10151538035E+04  0.00000000000E+00 0.  1.
         21    1    1    2  504  503  0.33465483046E+02 -0.42537017581E+02 -0.56887588337E+03  0.57144475420E+03  0.00000000000E+00 0.  1.
         21    1    1    2  505  501  0.42252461334E+02  0.38695861634E+01  0.33647940983E+02  0.54151898565E+02  0.00000000000E+00 0. -1.
         -4    1    1    2    0  504 -0.18972558559E+03  0.17281270169E+03 -0.50920032157E+02  0.26163500791E+03  0.00000000000E+00 0. -1.
<scales pt_clust_3="33.60408" pt_clust_4="33.60408" pt_clust_5="42.42928" pt_clust_6="232.04956"></scales>
<clustering>
<clus scale="   33.604">  3  4 -1 -1</clus>
<clus scale="   42.429">  1  5  2 -1</clus>
<clus scale="  232.050">  1  6  2 -1</clus>
<clus scale="  239.833">  2  3  1 -1</clus>
</clustering>
</event>
<event>
 6    0  0.1230761E+002  0.9996129E+02  0.7546771E-02  0.1280377E+00
         21   -1    0    0  503  502  0.00000000000E+00  0.00000000000E+00  0.67356442412E+03  0.67356442412E+03  0.00000000000E+00 0.  1.
          1   -1    0    0  504    0 -0.00000000000E+00 -0.00000000000E+00 -0.79457273982E+03  0.79457273982E+03  0.00000000000E+00 0.  1.
         21    1    1    2  503  501  0.17717971789E+02 -0.89002297838E+02  0.23136894670E+03  0.24852952549E+03  0.00000000000E+00 0.  1.
         21    1    1    2  504  505 -0.44012621350E+02 -0.30346333612E+00 -0.75571390338E+03  0.75699452223E+03  0.00000000000E+00 0.  1.
         21    1    1    2  505  502 -0.48505857912E+02 -0.10939818822E+02  0.28869467508E+03  0.29294558079E+03  0.00000000000E+00 0.  1.
          1    1    1    2  501    0  0.74800507473E+02  0.10024558000E+03  0.11464196592E+03  0.16966753542E+03  0.00000000000E+00 0.  1.
<scales pt_clust_3="14000.00000" pt_clust_4="44.01367" pt_clust_5="52.11825" pt_clust_6="99.96129"></scales>
<clustering>
<clus scale="   44.014">  2  4  1 -1</clus>
<clus scale="   52.118">  1  5  2 -1</clus>
<clus scale="   99.961">  2  6  1 -1</clus>
<clus scale="   52.118">  1  3  2 -1</clus>
</clustering>
</event>
<event>
 6    0  0.1230761E+002  0.1008193E+03  0.7546771E-02  0.1278583E+00
         21   -1    0    0  505  502  0.00000000000E+00  0.00000000000E+00  0.11337143854E+03  0.11337143854E+03  0.00000000000E+00 0. -1.
          2   -1    0    0  503    0 -0.00000000000E+00 -0.00000000000E+00 -0.98673448215E+03  0.98673448215E+03  0.00000000000E+00 0. -1.
         21    1    1    2  503  502 -0.18227482250E+02 -0.26401883915E+02 -0.13461130902E+03  0.13838173687E+03  0.00000000000E+00 0. -1.
         21    1    1    2  504  501 -0.41871060124E+02 -0.10050707373E+03 -0.43722189260E+02  0.11733067536E+03  0.00000000000E+00 0. -1.
         21    1    1    2  505  504 -0.21812031759E+02  0.27620988581E+02  0.64798965382E+02  0.73740013929E+02  0.00000000000E+00 0. -1.
          2    1    1    2  501    0  0.81910574133E+02  0.99287969065E+02 -0.75982851071E+03  0.77065349454E+03  0.00000000000E+00 0. -1.
<scales pt_clust_3="32.08271" pt_clust_4="100.81927" pt_clust_5="35.14576" pt_clust_6="14000.00000"></scales>
<clustering>
<clus scale="   32.083">  2  3  1 -1</clus>
<clus scale="   35.146">  1  5  2 -1</clus>
<clus scale="  100.819">  1  4  2 -1</clus>
<clus scale="   35.146">  1  3  2 -1</clus>
</clustering>
</event>
<event>
 6    0  0.1230761E+002  0.1136122E+03  0.7546771E-02  0.1254023E+00
          2   -1    0    0  504    0 -0.00000000000E+00  0.00000000000E+00  0.32015578735E+04  0.32015578735E+04  0.00000000000E+00 0.  1.
         21   -1    0    0  505  502  0.00000000000E+00 -0.00000000000E+00 -0.15837220314E+02  0.15837220314E+02  0.00000000000E+00 0. -1.
         21    1    1    2  503  502 -0.58175450295E+02  0.11282680282E+03  0.42518541205E+03  0.44373066727E+03  0.00000000000E+00 0. -1.
         21    1    1    2  504  503  0.33736958390E+02  0.43469041585E+02  0.10247231946E+04  0.10261994765E+04  0.00000000000E+00 0. -1.
         21    1    1    2  505  501  0.26938124986E+02 -0.96135060905E+02  0.48319186646E+03  0.49339841135E+03  0.00000000000E+00 0.  1.
          2    1    1    2  501    0 -0.24996330800E+01 -0.60160783501E+02  0.12526201801E+04  0.12540665387E+04  0.00000000000E+00 0.  1.
<scales pt_clust_3="14000.00000" pt_clust_4="55.02490" pt_clust_5="113.61216" pt_clust_6="38.99227"></scales>
<clustering>
<clus scale="   55.025">  1  4  2 -1</clus>
<clus scale="   38.992">  1  6  2 -1</clus>
<clus scale="  113.612">  1  5  2 -1</clus>
<clus scale="  113.612">  2  3  1 -1</clus>
</clustering>
</event>
<event>
 6    0  0.1230761E+002  0.4177410E+03  0.7546771E-02  0.1037804E+00
         -1   -1    0    0    0  501 -0.00000000000E+00  0.00000000000E+00  0.81102104248E+03  0.81102104248E+03  0.00000000000E+00 0.  1.
         21   -1    0    0  505  502  0.00000000000E+00 -0.00000000000E+00 -0.34018042034E+03  0.34018042034E+03  0.00000000000E+00 0.  1.
         21    1    1    2  503  504  0.21159701240E+03 -0.12980878057E+03 -0.12231324991E+03  0.27673840765E+03  0.00000000000E+00 0.  1.
         21    1    1    2  504  501  0.33132554082E+02 -0.14052658446E+01  0.36293553806E+02  0.49162617505E+02  0.00000000000E+00 0.  1.
         21    1    1    2  505  503  0.66333219433E+02 -0.13248098430E+03  0.17585802139E+02  0.14919975750E+03  0.00000000000E+00 0.  1.
         -1    1    1    2    0  502 -0.31106278591E+03  0.26369503071E+03  0.53927451610E+03  0.67610068016E+03  0.00000000000E+00 0.  1.
<scales pt_clust_3="120.72756" pt_clust_4="33.16234" pt_clust_5="120.72756" pt_clust_6="387.41868"></scales>
<clustering>
<clus scale="   33.162">  1  4  2 -1</clus>
<clus scale="  120.728">  3  5 -1 -1</clus>
<clus scale="  387.419">  1  6  2 -1</clus>
<clus scale="  417.741">  2  3  1 -1</clus>
</clustering>
</event>
<event>
 6    0  0.1230761E+002  0.1545044E+03  0.7546771E-02  0.1195045E+00
         21   -1    0    0  503  502  0.00000000000E+00  0.00000000000E+00  0.68408136183E+02  0.68408136183E+02  0.00000000000E+00 0.  1.
          2   -1    0    0  505    0 -0.00000000000E+00 -0.00000000000E+00 -0.20971610117E+04  0.20971610117E+04  0.00000000000E+00 0.  1.
         21    1    1    2  503  501 -0.13713500237E+02 -0.70589453180E+02 -0.28577571380E+02  0.77379639279E+02  0.00000000000E+00 0.  1.
         21    1    1    2  504  502  0.95918728260E+02 -0.22552975601E+02 -0.52898726304E+02  0.11183610501E+03  0.00000000000E+00 0.  1.
         21    1    1    2  505  504  0.56287162446E+02  0.16848558720E+03 -0.91177809166E+03  0.92892137782E+03  0.00000000000E+00 0.  1.
          2    1    1    2  501    0 -0.13849239047E+03 -0.75343158416E+02 -0.10354984862E+04  0.10474320258E+04  0.00000000000E+00 0.  1.
<scales pt_clust_3="71.90919" pt_clust_4="111.34725" pt_clust_5="154.50442" pt_clust_6="14000.00000"></scales>
<clustering>
<clus scale="   71.909">  1  3  2 -1</clus>
<clus scale="  111.347">  1  4  2 -1</clus>
<clus scale="  154.504">  1  5  2 -1</clus>
<clus scale="   71.909">  1  3  2 -1</clus>
</clustering>
</event>
<event>
 6    0  0.1230761E+002  0.1593278E+03  0.7546771E-02  0.1189458E+00
         21   -1    0    0  503  502  0.00000000000E+00  0.00000000000E+00  0.21876243115E+03  0.21876243115E+03  0.00000000000E+00 0. -1.
         -1   -1    0    0    0  501 -0.00000000000E+00 -0.00000000000E+00 -0.16115843799E+04  0.16115843799E+04  0.00000000000E+00 0.  1.
         21    1    1    2  503  504  0.18322143140E+02  0.26657273590E+02 -0.41929257356E+01  0.32617354134E+02  0.00000000000E+00 0.  1.
         21    1    1    2  504  501  0.60160213265E+02 -0.13625916689E+03 -0.12563233295E+04  0.12651221759E+04  0.00000000000E+00 0.  1.
         21    1    1    2  505  502  0.78401330988E+02  0.11865162091E+03  0.15175476990E+03  0.20797712863E+03  0.00000000000E+00 0. -1.
         -1    1    1    2    0  505 -0.15688368739E+03 -0.90497276099E+01 -0.28406046350E+03  0.32463015242E+03  0.00000000000E+00 0.  1.
<scales pt_clust_3="32.34673" pt_clust_4="148.58487" pt_clust_5="14000.00000" pt_clust_6="159.32783"></scales>
<clustering>
<clus scale="   32.347">  1  3  2 -1</clus>
<clus scale="  148.585">  2  4  1 -1</clus>
<clus scale="  159.328">  2  6  1 -1</clus>
<clus scale="   32.347">  1  3  2 -1</clus>
</clustering>
</event>
<event>
 6    0  0.1230761E+002  0.1033466E+03  0.7546771E-02  0.1273412E+00
         21   -1    0    0  504  502  0.00000000000E+00  0.00000000000E+00  0.23243528726E+03  0.23243528726E+03  0.00000000000E+00 0.  1.
          1   -1    0    0  503    0 -0.00000000000E+00 -0.00000000000E+00 -0.12060953753E+04  0.12060953753E+04  0.00000000000E+00 0. -1.
         21    1    1    2  503  505  0.52652744017E+02  0.54711254148E+02 -0.56071013942E+03  0.56582814814E+03  0.00000000000E+00 0. -1.
         21    1    1    2  504  501 -0.48827392380E+01 -0.85042123623E+02  0.27915765265E+02  0.89639800775E+02  0.00000000000E+00 0. -1.
         21    1    1    2  505  502  0.42112189232E+02  0.10969796591E+03  0.14409926665E+03  0.18593460908E+03  0.00000000000E+00 0.  1.
          1    1    1    2  501    0 -0.89882194011E+02 -0.79367096432E+02 -0.58496498052E+03  0.59712810454E+03  0.00000000000E+00 0. -1.
<scales pt_clust_3="75.93176" pt_clust_4="103.34657" pt_clust_5="14000.00000" pt_clust_6="50.64052"></scales>
<clustering>
<clus scale="   75.932">  2  3  1 -1</clus>
<clus scale="   50.641">  2  6  1 -1</clus>
<clus scale="  103.347">  2  4  1 -1</clus>
<clus scale="  103.347">  1  3  2 -1</clus>
</clustering>
</event>
<event>
 6    0  0.1230761E+002  0.3420936E+03  0.7546771E-02  0.1065908E+00
          4   -1    0    0  504    0 -0.00000000000E+00  0.00000000000E+00  0.19011915463E+03  0.19011915463E+03  0.00000000000E+00 0. -1.
         21   -1    0    0  501  502  0.00000000000E+00 -0.00000000000E+00 -0.73164280379E+03  0.73164280379E+03  0.00000000000E+00 0.  1.
         21    1    1    2  503  502 -0.14268343513E+02  0.57090677563E+02 -0.81665665559E+02  0.10065888943E+03  0.00000000000E+00 0. -1.
         21    1    1    2  504  505  0.24462113373E+02 -0.54135603963E+02  0.76655857957E+01  0.59898412439E+02  0.00000000000E+00 0.  1.
         21    1    1    2  505  503  0.17398715161E+03  0.23942614396E+03 -0.24299083420E+03  0.38293727011E+03  0.00000000000E+00 0.  1.
          4    1    1    2  501    0 -0.18418092147E+03 -0.24238121756E+03 -0.22453273520E+03  0.37826738643E+03  0.00000000000E+00 0. -1.
<scales pt_clust_3="54.66816" pt_clust_4="59.40588" pt_clust_5="54.66816" pt_clust_6="319.36965"></scales>
<clustering>
<clus scale="   54.668">  3  5 -1 -1</clus>
<clus scale="   59.406">  1  4  2 -1</clus>
<clus scale="  319.370">  1  6  2 -1</clus>
<clus scale="  342.094">  2  3  1 -1</clus>
</clustering>
</event>
<event>
 6    0  0.1230761E+002  0.1324897E+03  0.7546771E-02  0.1223807E+00
         21   -1    0    0  505  502  0.00000000000E+00  0.00000000000E+00  0.14726463056E+03  0.14726463056E+03  0.00000000000E+00 0.  1.
          2   -1    0    0  504    0 -0.00000000000E+00 -0.00000000000E+00 -0.39291592003E+04  0.39291592003E+04  0.00000000000E+00 0.  1.
         21    1    1    2  503  502  0.79302024822E+02 -0.64724001623E+02  0.93102446650E+02  0.13836933583E+03  0.00000000000E+00 0.  1.
         21    1    1    2  504  503 -0.36295433040E+02  0.91500577064E+02 -0.12777034851E+04  0.12814897229E+04  0.00000000000E+00 0.  1.
         21    1    1    2  505  501  0.60421836080E+02  0.88615650658E+02 -0.78263942142E+02  0.13277340267E+03  0.00000000000E+00 0.  1.
          2    1    1    2  501    0 -0.10342842786E+03 -0.11539222610E+03 -0.25190295892E+04  0.25237913695E+04  0.00000000000E+00 0.  1.
<scales pt_clust_3="101.62854" pt_clust_4="98.43635" pt_clust_5="132.48974" pt_clust_6="14000.00000"></scales>
<clustering>
<clus scale="   98.436">  2  4  1 -1</clus>
<clus scale="  101.629">  1  3  2 -1</clus>
<clus scale="  132.490">  1  5  2 -1</clus>
<clus scale="  101.629">  1  3  2 -1</clus>
</clustering>
</event>
<event>
 6    0  0.1230761E+002  0.1263457E+03  0.7546771E-02  0.1232981E+00
          2   -1    0    0  505    0 -0.00000000000E+00  0.00000000000E+00  0.26502499115E+04  0.26502499115E+04  0.00000000000E+00 0. -1.
         21   -1    0    0  501  502  0.00000000000E+00 -0.00000000000E+00 -0.46222592390E+03  0.46222592390E+03  0.00000000000E+00 0.  1.
         21    1    1    2  503  504  0.10249335324E+03 -0.16231757632E+01 -0.29333277777E+03  0.31072759883E+03  0.00000000000E+00 0.  1.
         21    1    1    2  504  502  0.14996445521E+02  0.49113817529E+02 -0.15236055108E+03  0.16078183348E+03  0.00000000000E+00 0.  1.
         21    1    1    2  505  503 -0.16826523258E+02  0.42399376932E+02  0.31054011274E+03  0.31387258668E+03  0.00000000000E+00 0. -1.
          2    1    1    2  501    0 -0.10066327550E+03 -0.89890018698E+02  0.23231772038E+04  0.23270938164E+04  0.00000000000E+00 0. -1.
<scales pt_clust_3="126.34574" pt_clust_4="51.41652" pt_clust_5="45.61621" pt_clust_6="14000.00000"></scales>
<clustering>
<clus scale="   45.616">  1  5  2 -1</clus>
<clus scale="   51.417">  2  4  1 -1</clus>
<clus scale="  126.346">  2  3  1 -1</clus>
<clus scale="   51.417">  2  3  1 -1</clus>
</clustering>
</event>
<event>
 6    0  0.1230761E+002  0.1444866E+03  0.7546771E-02  0.1207416E+00
          1   -1    0    0  504    0 -0.00000000000E+00  0.00000000000E+00  0.13101648628E+04  0.13101648628E+04  0.00000000000E+00 0.  1.
         21   -1    0    0  501  502  0.00000000000E+00 -0.00000000000E+00 -0.26142595616E+03  0.26142595616E+03  0.00000000000E+00 0.  1.
         21    1    1    2  503  502 -0.54443108687E+01  0.72561772857E+02 -0.12301885424E+03  0.14292826837E+03  0.00000000000E+00 0.  1.
         21    1    1    2  504  505  0.94964017860E+01  0.38050569782E+02  0.81568300819E+02  0.90506437374E+02  0.00000000000E+00 0.  1.
         21    1    1    2  505  503  0.34458359564E+02  0.61980564396E+02 -0.10678615740E+03  0.12818834705E+03  0.00000000000E+00 0.  1.
          1    1    1    2  501    0 -0.38510450482E+02 -0.17259290703E+03  0.11969756174E+04  0.12099677661E+04  0.00000000000E+00 0.  1.
<scales pt_clust_3="41.31303" pt_clust_4="39.21769" pt_clust_5="41.31303" pt_clust_6="138.29664"></scales>
<clustering>
<clus scale="   39.218">  1  4  2 -1</clus>
<clus scale="   41.313">  3  5 -1 -1</clus>
<clus scale="  138.297">  1  6  2 -1</clus>
<clus scale="  144.487">  2  3  1 -1</clus>
</clustering>
</event>
<event>
 6    0  0.1230761E+002  0.9710888E+02  0.7546771E-02  0.1286496E+00
         21   -1    0    0  505  502  0.00000000000E+00  0.00000000000E+00  0.92916450981E+03  0.92916450981E+03  0.00000000000E+00 0. -1.
         -4   -1    0    0    0  501 -0.00000000000E+00 -0.00000000000E+00 -0.37172679401E+02  0.37172679401E+02  0.00000000000E+00 0.  1.
         21    1    1    2  503  501 -0.31740821513E+02 -0.22443808757E+02  0.38432263532E+02  0.54664825821E+02  0.00000000000E+00 0. -1.
         21    1    1    2  504  502  0.15526378041E+01 -0.48365851270E+02  0.14935970742E+03  0.15700314791E+03  0.00000000000E+00 0.  1.
         21    1    1    2  505  503 -0.83239175232E+02  0.77345533204E+02  0.55832142340E+03  0.56976653432E+03  0.00000000000E+00 0. -1.
         -4    1    1    2    0  504  0.11342735894E+03 -0.65358731762E+01  0.14587843606E+03  0.18490268116E+03  0.00000000000E+00 0.  1.
<scales pt_clust_3="38.87421" pt_clust_4="51.38478" pt_clust_5="14000.00000" pt_clust_6="97.10888"></scales>
<clustering>
<clus scale="   38.874">  2  3  1 -1</clus>
<clus scale="   51.385">  1  4  2 -1</clus>
<clus scale="   97.109">  2  6  1 -1</clus>
<clus scale="   51.385">  1  3  2 -1</clus>
</clustering>
</event>
<event>
 6    0  0.1230761E+002  0.1273146E+03  0.7546771E-02  0.1231496E+00
         21   -1    0    0  505  502  0.00000000000E+00  0.00000000000E+00  0.12542365711E+03  0.12542365711E+03  0.00000000000E+00 0.  1.
          2   -1    0    0  503    0 -0.00000000000E+00 -0.00000000000E+00 -0.16944898806E+04  0.16944898806E+04  0.00000000000E+00 0. -1.
         21    1    1    2  503  504 -0.33695312297E+02 -0.16094834391E+02 -0.24516389773E+03  0.24799144040E+03  0.00000000000E+00 0. -1.
         21    1    1    2  504  502  0.89958394237E+02  0.10439349976E+03  0.37464148393E+02  0.14280783557E+03  0.00000000000E+00 0.  1.
         21    1    1    2  505  501 -0.86119759460E+02 -0.69224754200E+02 -0.57115027082E+02  0.12438169432E+03  0.00000000000E+00 0.  1.
          2    1    1    2  501    0  0.29856677520E+02 -0.19073911172E+02 -0.13042514470E+04  0.13047325674E+04  0.00000000000E+00 0. -1.
<scales pt_clust_3="31.81591" pt_clust_4="14000.00000" pt_clust_5="127.31461" pt_clust_6="35.42930"></scales>
<clustering>
<clus scale="   35.429">  2  6  1 -1</clus>
<clus scale="   31.816">  2  3  1 -1</clus>
<clus scale="  127.315">  2  5  1 -1</clus>
<clus scale="  127.315">  1  3  2 -1</clus>
</clustering>
</event>
<event>
 6    0  0.1230761E+002  0.8225135E+02  0.7546771E-02  0.1322781E+00
         21   -1    0    0  503  502  0.00000000000E+00  0.00000000000E+00  0.53691240015E+02  0.53691240015E+02  0.00000000000E+00 0. -1.
          2   -1    0    0  505    0 -0.00000000000E+00 -0.00000000000E+00 -0.11433696729E+04  0.11433696729E+04  0.00000000000E+00 0. -1.
         21    1    1    2  503  501  0.22869547694E+02 -0.61971405317E+02  0.11128315198E+02  0.66987392007E+02  0.00000000000E+00 0. -1.
         21    1    1    2  504  502 -0.16177533110E+02 -0.25663220840E+02 -0.21989727931E+02  0.37468141345E+02  0.00000000000E+00 0.  1.
         21    1    1    2  505  504 -0.69338605206E+02  0.19683271748E+02 -0.31086232469E+03  0.31910916356E+03  0.00000000000E+00 0.  1.
          2    1    1    2  501    0  0.62646590622E+02  0.67951354410E+02 -0.76795469546E+03  0.77349621599E+03  0.00000000000E+00 0. -1.
<scales pt_clust_3="14000.00000" pt_clust_4="30.33667" pt_clust_5="72.89267" pt_clust_6="82.25135"></scales>
<clustering>
<clus scale="   30.337">  1  4  2 -1</clus>
<clus scale="   72.893">  2  5  1 -1</clus>
<clus scale="   82.251">  2  6  1 -1</clus>
<clus scale="   30.337">  1  3  2 -1</clus>
</clustering>
</event>
<event>
 6    0  0.1230761E+002  0.1610372E+03  0.7546771E-02  0.1187531E+00
         21   -1    0    0  505  502  0.00000000000E+00  0.00000000000E+00  0.13940560669E+04  0.13940560669E+04  0.00000000000E+00 0.  1.
          3   -1    0    0  504    0 -0.00000000000E+00 -0.00000000000E+00 -0.33973956850E+03  0.33973956850E+03  0.00000000000E+00 0. -1.
         21    1    1    2  503  502 -0.91376045797E+01  0.28739972437E+02  0.47206612278E+02  0.56017372983E+02  0.00000000000E+00 0. -1.
         21    1    1    2  504  503 -0.44800990804E+02  0.18697004159E+02 -0.13939231965E+03  0.14760394818E+03  0.00000000000E+00 0. -1.
         21    1    1    2  505  501  0.13966156633E+03  0.67991405051E+02  0.13061342248E+04  0.13153382825E+04  0.00000000000E+00 0.  1.
          3    1    1    2  501    0 -0.85722970946E+02 -0.11542838165E+03 -0.15963201902E+03  0.21483603174E+03  0.00000000000E+00 0. -1.
<scales pt_clust_3="30.15762" pt_clust_4="48.60562" pt_clust_5="14000.00000" pt_clust_6="161.03717"></scales>
<clustering>
<clus scale="   30.158">  1  3  2 -1</clus>
<clus scale="   48.606">  2  4  1 -1</clus>
<clus scale="  161.037">  2  6  1 -1</clus>
<clus scale="   30.158">  1  3  2 -1</clus>
</clustering>
</event>
<event>
 6    0  0.1230761E+002  0.1103872E+03  0.7546771E-02  0.1259854E+00
         21   -1    0    0  504  502  0.00000000000E+00  0.00000000000E+00  0.31896959306E+03  0.31896959306E+03  0.00000000000E+00 0.  1.
          4   -1    0    0  503    0 -0.00000000000E+00 -0.00000000000E+00 -0.12135168782E+03  0.12135168782E+03  0.00000000000E+00 0.  1.
         21    1    1    2  503  505  0.49118478707E+02 -0.55287754253E+02 -0.51740839690E-01  0.73955144500E+02  0.00000000000E+00 0.  1.
         21    1    1    2  504  501 -0.29207917692E+02  0.28128125294E+02  0.33240176055E+02  0.52432844598E+02  0.00000000000E+00 0.  1.
         21    1    1    2  505  502 -0.10069844880E+03 -0.23464698720E+02  0.18904014686E+03  0.21546913190E+03  0.00000000000E+00 0.  1.
          4    1    1    2  501    0  0.80787887783E+02  0.50624327679E+02 -0.24610676839E+02  0.98464159875E+02  0.00000000000E+00 0.  1.
<scales pt_clust_3="68.54654" pt_clust_4="40.54989" pt_clust_5="110.38722" pt_clust_6="14000.00000"></scales>
<clustering>
<clus scale="   40.550">  1  4  2 -1</clus>
<clus scale="   68.547">  2  3  1 -1</clus>
<clus scale="  110.387">  1  5  2 -1</clus>
<clus scale="   40.550">  1  3  2 -1</clus>
</clustering>
</event>
<event>
 6    0  0.1230761E+002  0.7767332E+02  0.7546771E-02  0.1335787E+00
         21   -1    0    0  503  502  0.00000000000E+00  0.00000000000E+00  0.34315481113E+03  0.34315481113E+03  0.00000000000E+00 0.  1.
          2   -1    0    0  504    0 -0.00000000000E+00 -0.00000000000E+00 -0.98948312400E+03  0.98948312400E+03  0.00000000000E+00 0. -1.
         21    1    1    2  503  505  0.71740670441E+02  0.85420054185E+02  0.28119175257E+03  0.30250968772E+03  0.00000000000E+00 0.  1.
         21    1    1    2  504  502 -0.19229934374E+02 -0.27083807181E+02  0.39388233424E+02  0.51524323574E+02  0.00000000000E+00 0.  1.
         21    1    1    2  505  501 -0.62140922542E+02 -0.14863280414E+02 -0.19069161566E+03  0.20111117234E+03  0.00000000000E+00 0.  1.
          2    1    1    2  501    0  0.96301864751E+01 -0.43472966590E+02 -0.77621668321E+03  0.77749275148E+03  0.00000000000E+00 0. -1.
<scales pt_clust_3="77.67332" pt_clust_4="33.21631" pt_clust_5="14000.00000" pt_clust_6="44.57463"></scales>
<clustering>
<clus scale="   33.216">  1  4  2 -1</clus>
<clus scale="   44.575">  2  6  1 -1</clus>
<clus scale="   77.673">  1  3  2 -1</clus>
<clus scale="   33.216">  1  3  2 -1</clus>
</clustering>
</event>
<event>
 6    0  0.1230761E+002  0.1210671E+03  0.7546771E-02  0.1241347E+00
         21   -1    0    0  501  502  0.00000000000E+00  0.00000000000E+00  0.18265165738E+02  0.18265165738E+02  0.00000000000E+00 0. -1.
          2   -1    0    0  503    0 -0.00000000000E+00 -0.00000000000E+00 -0.28956533917E+04  0.28956533917E+04  0.00000000000E+00 0. -1.
         21    1    1    2  503  505  0.40759811909E+02  0.11633689662E+02 -0.14513844379E+04  0.14520032685E+04  0.00000000000E+00 0. -1.
         21    1    1    2  504  502  0.10333566968E+03  0.26379874292E+01 -0.56960944219E+03  0.57891289175E+03  0.00000000000E+00 0. -1.
         21    1    1    2  505  504 -0.13292402615E+03 -0.67787086196E+02 -0.73311056083E+03  0.74814101624E+03  0.00000000000E+00 0. -1.
          2    1    1    2  501    0 -0.11171455441E+02  0.53515409105E+02 -0.12328378496E+03  0.13486138092E+03  0.00000000000E+00 0. -1.
<scales pt_clust_3="42.38756" pt_clust_4="14000.00000" pt_clust_5="121.06712" pt_clust_6="55.07226"></scales>
<clustering>
<clus scale="   42.388">  2  3  1 -1</clus>
<clus scale="   55.072">  1  6  2 -1</clus>
<clus scale="  121.067">  2  5  1 -1</clus>
<clus scale="   55.072">  1  3  2 -1</clus>
</clustering>
</event>
<event>
 6    0  0.1230761E+002  0.1261424E+03  0.7546771E-02  0.1233295E+00
          2   -1    0    0  505    0 -0.00000000000E+00  0.00000000000E+00  0.11275094800E+04  0.11275094800E+04  0.00000000000E+00 0. -1.
         21   -1    0    0  501  502  0.00000000000E+00 -0.00000000000E+00 -0.59032677706E+02  0.59032677706E+02  0.00000000000E+00 0. -1.
         21    1    1    2  503  504 -0.45327538023E+02 -0.21326668404E+02  0.28965650767E+02  0.57865545990E+02  0.00000000000E+00 0.  1.
         21    1    1    2  504  502 -0.52883199346E+02 -0.49230935237E+02 -0.37801201738E+01  0.72350584420E+02  0.00000000000E+00 0. -1.
         21    1    1    2  505  503  0.14475505427E+01  0.37430008559E+02  0.88886874840E+02  0.96457127586E+02  0.00000000000E+00 0. -1.
          2    1    1    2  501    0  0.96763186826E+02  0.33127595082E+02  0.95440439682E+03  0.95986889967E+03  0.00000000000E+00 0. -1.
<scales pt_clust_3="34.31341" pt_clust_4="34.31341" pt_clust_5="37.45799" pt_clust_6="119.22118"></scales>
<clustering>
<clus scale="   34.313">  3  4 -1 -1</clus>
<clus scale="   37.458">  1  5  2 -1</clus>
<clus scale="  119.221">  1  6  2 -1</clus>
<clus scale="  126.142">  2  3  1 -1</clus>
</clustering>
</event>
<event>
 6    0  0.1230761E+002  0.2478093E+03  0.7546771E-02  0.1114697E+00
          1   -1    0    0  505    0 -0.00000000000E+00  0.00000000000E+00  0.16403313218E+03  0.16403313218E+03  0.00000000000E+00 0. -1.
         21   -1    0    0  504  502  0.00000000000E+00 -0.00000000000E+00 -0.80418558695E+03  0.80418558695E+03  0.00000000000E+00 0. -1.
         21    1    1    2  503  502 -0.11761603606E+03  0.31464775553E+02 -0.30016284126E+03  0.32391556819E+03  0.00000000000E+00 0. -1.
         21    1    1    2  504  501  0.46785447337E+02  0.80994103005E+01  0.16289300655E+02  0.50197807179E+02  0.00000000000E+00 0. -1.
         21    1    1    2  505  503 -0.10319175592E+03  0.57437971771E+02 -0.37579937050E+03  0.39391982174E+03  0.00000000000E+00 0. -1.
          1    1    1    2  501    0  0.17402234464E+03 -0.97002157624E+02  0.19520456339E+02  0.20018552203E+03  0.00000000000E+00 0. -1.
<scales pt_clust_3="241.58381" pt_clust_4="33.64459" pt_clust_5="40.64329" pt_clust_6="33.64459"></scales>
<clustering>
<clus scale="   33.645">  4  6 -1 -1</clus>
<clus scale="   40.643">  3  5 -1 -1</clus>
<clus scale="  241.584">  2  3  1 -1</clus>
<clus scale="  241.584">  2  3  1 -1</clus>
</clustering>
</event>
<event>
 6    0  0.1230761E+002  0.8798998E+02  0.7546771E-02  0.1307794E+00
         21   -1    0    0  501  502  0.00000000000E+00  0.00000000000E+00  0.42250975095E+02  0.42250975095E+02  0.00000000000E+00 0. -1.
          2   -1    0    0  503    0 -0.00000000000E+00 -0.00000000000E+00 -0.79059826525E+03  0.79059826525E+03  0.00000000000E+00 0.  1.
         21    1    1    2  503  505 -0.21284930012E+02  0.66016301017E+02 -0.25964842050E+03  0.26875360930E+03  0.00000000000E+00 0. -1.
         21    1    1    2  504  502  0.18578955684E+02  0.23804408974E+02 -0.39653546421E+02  0.49842062805E+02  0.00000000000E+00 0.  1.
         21    1    1    2  505  504  0.70140750681E+02 -0.73189166436E+02 -0.57395968057E+02  0.11649324504E+03  0.00000000000E+00 0. -1.
          2    1    1    2  501    0 -0.67434776352E+02 -0.16631543555E+02 -0.39164935517E+03  0.39776032320E+03  0.00000000000E+00 0.  1.
<scales pt_clust_3="14000.00000" pt_clust_4="30.19648" pt_clust_5="87.98998" pt_clust_6="67.52080"></scales>
<clustering>
<clus scale="   30.196">  1  4  2 -1</clus>
<clus scale="   67.521">  2  6  1 -1</clus>
<clus scale="   87.990">  1  5  2 -1</clus>
<clus scale="   30.196">  1  3  2 -1</clus>
</clustering>
</event>
<event>
 6    0  0.1230761E+002  0.1042545E+03  0.7546771E-02  0.1271595E+00
          1   -1    0    0  503    0 -0.00000000000E+00  0.00000000000E+00  0.26181766995E+04  0.26181766995E+04  0.00000000000E+00 0. -1.
         21   -1    0    0  504  502  0.00000000000E+00 -0.00000000000E+00 -0.77478275870E+02  0.77478275870E+02  0.00000000000E+00 0. -1.
         21    1    1    2  503  502 -0.23255061491E+02  0.42963444280E+02  0.93837997385E+03  0.93965080256E+03  0.00000000000E+00 0. -1.
         21    1    1    2  504  505  0.57111183453E+02  0.72282800713E+02  0.22939639222E+01  0.92150707131E+02  0.00000000000E+00 0. -1.
         21    1    1    2  505  501 -0.63569242554E+02 -0.14762600081E+03  0.17296436361E+03  0.23611682658E+03  0.00000000000E+00 0. -1.
          1    1    1    2  501    0  0.29713120592E+02  0.32379755818E+02  0.14270601222E+04  0.14277366391E+04  0.00000000000E+00 0. -1.
<scales pt_clust_3="68.49746" pt_clust_4="104.25454" pt_clust_5="14000.00000" pt_clust_6="43.94676"></scales>
<clustering>
<clus scale="   43.947">  1  6  2 -1</clus>
<clus scale="   68.497">  1  3  2 -1</clus>
<clus scale="  104.255">  2  4  1 -1</clus>
<clus scale="  104.255">  2  3  1 -1</clus>
</clustering>
</event>
<event>
 6    0  0.1230761E+002  0.1774941E+03  0.7546771E-02  0.1170251E+00
          2   -1    0    0  504    0 -0.00000000000E+00  0.00000000000E+00  0.47264906479E+03  0.47264906479E+03  0.00000000000E+00 0.  1.
         21   -1    0    0  505  502  0.00000000000E+00 -0.00000000000E+00 -0.26012766108E+03  0.26012766108E+03  0.00000000000E+00 0.  1.
         21    1    1    2  503  501  0.90947965786E+02 -0.85088997779E+02 -0.18587564318E+02  0.12592524596E+03  0.00000000000E+00 0. -1.
         21    1    1    2  504  502  0.15371059275E+02 -0.66004190770E+02  0.88371047663E+02  0.11136545572E+03  0.00000000000E+00 0. -1.
         21    1    1    2  505  503  0.95260236401E+02  0.19671853670E+02 -0.10977907141E+03  0.14667289793E+03  0.00000000000E+00 0.  1.
          2    1    1    2  501    0 -0.20157926146E+03  0.13142133488E+03  0.25251699178E+03  0.34881312626E+03  0.00000000000E+00 0.  1.
<scales pt_clust_3="177.49407" pt_clust_4="67.77037" pt_clust_5="97.41228" pt_clust_6="14000.00000"></scales>
<clustering>
<clus scale="   67.770">  1  4  2 -1</clus>
<clus scale="   97.412">  2  5  1 -1</clus>
<clus scale="  177.494">  2  3  1 -1</clus>
<clus scale="   97.412">  2  3  1 -1</clus>
</clustering>
</event>
<event>
 6    0  0.1230761E+002  0.8093106E+02  0.7546771E-02  0.1326430E+00
          2   -1    0    0  505    0 -0.00000000000E+00  0.00000000000E+00  0.19917092948E+03  0.19917092948E+03  0.00000000000E+00 0. -1.
         21   -1    0    0  501  502  0.00000000000E+00 -0.00000000000E+00 -0.16439850130E+04  0.16439850130E+04  0.00000000000E+00 0. -1.
         21    1    1    2  503  502  0.35176743627E+02 -0.67354216406E+02 -0.11747827475E+04  0.11772376555E+04  0.00000000000E+00 0. -1.
         21    1    1    2  504  503 -0.16874505459E+02  0.11958860275E+03 -0.42151418282E+03  0.43847507245E+03  0.00000000000E+00 0.  1.
         21    1    1    2  505  504 -0.13316457360E+02  0.29013069219E+02 -0.19965480676E+02  0.37652445349E+02  0.00000000000E+00 0.  1.
          2    1    1    2  501    0 -0.49857808076E+01 -0.81247455562E+02  0.17144832750E+03  0.18979076913E+03  0.00000000000E+00 0. -1.
<scales pt_clust_3="80.93106" pt_clust_4="14000.00000" pt_clust_5="31.92313" pt_clust_6="56.53132"></scales>
<clustering>
<clus scale="   31.923">  1  5  2 -1</clus>
<clus scale="   56.531">  1  6  2 -1</clus>
<clus scale="   80.931">  2  3  1 -1</clus>
<clus scale="   80.931">  2  3  1 -1</clus>
</clustering>
</event>
<event>
 6    0  0.1230761E+002  0.1330516E+03  0.7546771E-02  0.1222997E+00
         -3   -1    0    0    0  501 -0.00000000000E+00  0.00000000000E+00  0.17251837914E+03  0.17251837914E+03  0.00000000000E+00 0.  1.
         21   -1    0    0  505  502  0.00000000000E+00 -0.00000000000E+00 -0.99471469004E+03  0.99471469004E+03  0.00000000000E+00 0. -1.
         21    1    1    2  503  501  0.34556704970E+02 -0.83096567774E+01 -0.24028831191E+02  0.42902225846E+02  0.00000000000E+00 0. -1.
         21    1    1    2  504  502 -0.22050774302E+02 -0.32879077972E+02 -0.16772976409E+03  0.17233845821E+03  0.00000000000E+00 0.  1.
         21    1    1    2  505  503 -0.11176959389E+03  0.56013066535E+02 -0.77000335897E+03  0.78008658402E+03  0.00000000000E+00 0. -1.
         -3    1    1    2    0  504  0.99263663220E+02 -0.14824331786E+02  0.13956564335E+03  0.17190580110E+03  0.00000000000E+00 0.  1.
<scales pt_clust_3="35.54175" pt_clust_4="39.41712" pt_clust_5="14000.00000" pt_clust_6="133.05160"></scales>
<clustering>
<clus scale="   35.542">  1  3  2 -1</clus>
<clus scale="   39.417">  2  4  1 -1</clus>
<clus scale="  133.052">  1  6  2 -1</clus>
<clus scale="   39.417">  2  3  1 -1</clus>
</clustering>
</event>
<event>
 6    0  0.1230761E+002  0.1440389E+03  0.7546771E-02  0.1207995E+00
          2   -1    0    0  503    0 -0.00000000000E+00  0.00000000000E+00  0.15584976759E+04  0.15584976759E+04  0.00000000000E+00 0.  1.
         21   -1    0    0  505  502  0.00000000000E+00 -0.00000000000E+00 -0.69397772657E+02  0.69397772657E+02  0.00000000000E+00 0.  1.
         21    1    1    2  503  504  0.76522720346E+01 -0.31144597443E+02  0.61873190986E+03  0.61956252267E+03  0.00000000000E+00 0.  1.
         21    1    1    2  504  502 -0.17116525920E+02  0.10468398188E+03  0.13086460495E+01  0.10608215720E+03  0.00000000000E+00 0.  1.
         21    1    1    2  505  501 -0.61712381222E+02  0.30298995067E+02  0.90881894215E+02  0.11395598183E+03  0.00000000000E+00 0.  1.
          2    1    1    2  501    0  0.71176635107E+02 -0.10383837951E+03  0.77817745311E+03  0.78829478685E+03  0.00000000000E+00 0.  1.
<scales pt_clust_3="32.07091" pt_clust_4="14000.00000" pt_clust_5="66.55765" pt_clust_6="144.03885"></scales>
<clustering>
<clus scale="   32.071">  1  3  2 -1</clus>
<clus scale="   66.558">  2  5  1 -1</clus>
<clus scale="  144.039">  1  6  2 -1</clus>
<clus scale="   66.558">  2  3  1 -1</clus>
</clustering>
</event>
<event>
 6    0  0.1230761E+002  0.1858055E+03  0.7546771E-02  0.1162300E+00
         21   -1    0    0  504  502  0.00000000000E+00  0.00000000000E+00  0.61592834181E+03  0.61592834181E+03  0.00000000000E+00 0. -1.
          2   -1    0    0  503    0 -0.00000000000E+00 -0.00000000000E+00 -0.87749008923E+03  0.87749008923E+03  0.00000000000E+00 0. -1.
         21    1    1    2  503  505  0.29842267405E+02  0.73873218532E+02 -0.16051189107E+03  0.17919788089E+03  0.00000000000E+00 0.  1.
         21    1    1    2  504  501  0.47433343211E+02  0.69644374169E+01  0.11457861718E+03  0.12420420666E+03  0.00000000000E+00 0. -1.
         21    1    1    2  505  502 -0.51865500687E+02 -0.19503272846E+03  0.46105812246E+03  0.50329155329E+03  0.00000000000E+00 0. -1.
          2    1    1    2  501    0 -0.25410109928E+02  0.11419507251E+03 -0.67668659599E+03  0.68672479019E+03  0.00000000000E+00 0. -1.
<scales pt_clust_3="80.13275" pt_clust_4="47.94190" pt_clust_5="185.80550" pt_clust_6="14000.00000"></scales>
<clustering>
<clus scale="   47.942">  1  4  2 -1</clus>
<clus scale="   80.133">  2  3  1 -1</clus>
<clus scale="  185.805">  1  5  2 -1</clus>
<clus scale="   47.942">  1  3  2 -1</clus>
</clustering>
</event>
<event>
 6    0  0.1230761E+002  0.1023107E+03  0.7546771E-02  0.1275510E+00
          2   -1    0    0  504    0 -0.00000000000E+00  0.00000000000E+00  0.22470001466E+04  0.22470001466E+04  0.00000000000E+00 0.  1.
         21   -1    0    0  501  502  0.00000000000E+00 -0.00000000000E+00 -0.14191217522E+02  0.14191217522E+02  0.00000000000E+00 0. -1.
         21    1    1    2  503  502  0.42203382891E+02 -0.17387839482E+02  0.14226994188E+03  0.14941284701E+03  0.00000000000E+00 0. -1.
         21    1    1    2  504  505  0.34543883024E+02 -0.22317324430E+02  0.99014811882E+03  0.99100183654E+03  0.00000000000E+00 0. -1.
         21    1    1    2  505  503  0.30077165782E+02 -0.35385963103E+02  0.83580204536E+02  0.95616174764E+02  0.00000000000E+00 0. -1.
          2    1    1    2  501    0 -0.10682443170E+03  0.75091127015E+02  0.10168106639E+04  0.10251605058E+04  0.00000000000E+00 0.  1.
<scales pt_clust_3="31.68383" pt_clust_4="41.12594" pt_clust_5="31.68383" pt_clust_6="97.19108"></scales>
<clustering>
<clus scale="   31.684">  3  5 -1 -1</clus>
<clus scale="   41.126">  1  4  2 -1</clus>
<clus scale="   97.191">  1  6  2 -1</clus>
<clus scale="  102.311">  2  3  1 -1</clus>
</clustering>
</event>
<event>
 6    0  0.1230761E+002  0.1520414E+03  0.7546771E-02  0.1197987E+00
         21   -1    0    0  504  502  0.00000000000E+00  0.00000000000E+00  0.42205722622E+02  0.42205722622E+02  0.00000000000E+00 0.  1.
          2   -1    0    0  505    0 -0.00000000000E+00 -0.00000000000E+00 -0.16048774451E+04  0.16048774451E+04  0.00000000000E+00 0. -1.
         21    1    1    2  503  502 -0.26684022507E+02 -0.30065137642E+02 -0.67372067731E+02  0.78453457979E+02  0.00000000000E+00 0.  1.
         21    1    1    2  504  501  0.56553017224E+02 -0.12524492600E+03 -0.14752946125E+03  0.20161715499E+03  0.00000000000E+00 0.  1.
         21    1    1    2  505  503  0.52362983161E+02  0.23907495535E+02 -0.17951307244E+03  0.18851629512E+03  0.00000000000E+00 0. -1.
          2    1    1    2  501    0 -0.82231977878E+02  0.13140256811E+03 -0.11682571211E+04  0.11784962596E+04  0.00000000000E+00 0. -1.
<scales pt_clust_3="40.19888" pt_clust_4="14000.00000" pt_clust_5="53.08681" pt_clust_6="152.04139"></scales>
<clustering>
<clus scale="   40.199">  1  3  2 -1</clus>
<clus scale="   53.087">  1  5  2 -1</clus>
<clus scale="  152.041">  2  6  1 -1</clus>
<clus scale="   40.199">  1  3  2 -1</clus>
</clustering>
</event>
<event>
 6    0  0.1230761E+002  0.8672387E+02  0.7546771E-02  0.1310985E+00
         21   -1    0    0  501  502  0.00000000000E+00  0.00000000000E+00  0.22084970079E+02  0.22084970079E+02  0.00000000000E+00 0. -1.
          2   -1    0    0  503    0 -0.00000000000E+00 -0.00000000000E+00 -0.13434560885E+04  0.13434560885E+04  0.00000000000E+00 0.  1.
         21    1    1    2  503  505  0.36705815812E+02 -0.92564268543E+00 -0.14883831455E+03  0.15330041620E+03  0.00000000000E+00 0.  1.
         21    1    1    2  504  502  0.28628346287E+02 -0.35384806632E+02 -0.37672443026E+02  0.59083667076E+02  0.00000000000E+00 0. -1.
         21    1    1    2  505  504 -0.70147066263E+02 -0.53633939816E+02 -0.28071811402E+03  0.29427855842E+03  0.00000000000E+00 0. -1.
          2    1    1    2  501    0  0.48129041637E+01  0.89944389134E+02 -0.85414224687E+03  0.85887841693E+03  0.00000000000E+00 0.  1.
<scales pt_clust_3="36.71749" pt_clust_4="46.49530" pt_clust_5="86.72387" pt_clust_6="14000.00000"></scales>
<clustering>
<clus scale="   36.717">  2  3  1 -1</clus>
<clus scale="   46.495">  1  4  2 -1</clus>
<clus scale="   86.724">  1  5  2 -1</clus>
<clus scale="   46.495">  1  3  2 -1</clus>
</clustering>
</event>
<event>
 6    0  0.1230761E+002  0.8771329E+02  0.7546771E-02  0.1308486E+00
         21   -1    0    0  505  502  0.00000000000E+00  0.00000000000E+00  0.11127847518E+04  0.11127847518E+04  0.00000000000E+00 0. -1.
          4   -1    0    0  504    0 -0.00000000000E+00 -0.00000000000E+00 -0.49703925268E+02  0.49703925268E+02  0.00000000000E+00 0. -1.
         21    1    1    2  503  502 -0.71053040763E+01 -0.35189516586E+02  0.43196550820E+03  0.43345471239E+03  0.00000000000E+00 0. -1.
         21    1    1    2  504  503  0.51947388378E+02  0.15599251070E+02  0.50375739412E+02  0.74024204924E+02  0.00000000000E+00 0. -1.
         21    1    1    2  505  501  0.46399886301E+02 -0.48377824406E+02  0.52326623834E+03  0.52754233909E+03  0.00000000000E+00 0. -1.
          4    1    1    2  501    0 -0.91241970602E+02  0.67968089921E+02  0.57473340538E+02  0.12746742062E+03  0.00000000000E+00 0. -1.
<scales pt_clust_3="35.89969" pt_clust_4="52.77046" pt_clust_5="87.71329" pt_clust_6="14000.00000"></scales>
<clustering>
<clus scale="   35.900">  1  3  2 -1</clus>
<clus scale="   52.770">  2  4  1 -1</clus>
<clus scale="   87.713">  1  5  2 -1</clus>
<clus scale="   35.900">  1  3  2 -1</clus>
</clustering>
</event>
<event>
 6    0  0.1230761E+002  0.1032215E+03  0.7546771E-02  0.1273664E+00
         21   -1    0    0  503  502  0.00000000000E+00  0.00000000000E+00  0.41694563179E+03  0.41694563179E+03  0.00000000000E+00 0.  1.
         -3   -1    0    0    0  501 -0.00000000000E+00 -0.00000000000E+00 -0.34162160110E+03  0.34162160110E+03  0.00000000000E+00 0. -1.
         21    1    1    2  503  505  0.37720275515E+02  0.27903643779E+02  0.98789672221E+02  0.10936558809E+03  0.00000000000E+00 0.  1.
         21    1    1    2  504  502 -0.38669924875E+02 -0.12592468924E+03  0.26797240558E+03  0.29859939819E+03  0.00000000000E+00 0.  1.
         21    1    1    2  505  501 -0.40346694386E+02 -0.33170288690E+02 -0.11954472699E+03  0.13045714067E+03  0.00000000000E+00 0. -1.
         -3    1    1    2    0  504  0.41296343747E+02  0.13119133416E+03 -0.17189332012E+03  0.22014510593E+03  0.00000000000E+00 0. -1.
<scales pt_clust_3="46.91943" pt_clust_4="14000.00000" pt_clust_5="51.41429" pt_clust_6="103.22154"></scales>
<clustering>
<clus scale="   46.919">  1  3  2 -1</clus>
<clus scale="   51.414">  2  5  1 -1</clus>
<clus scale="  103.222">  2  6  1 -1</clus>
<clus scale="   46.919">  1  3  2 -1</clus>
</clustering>
</event>
<event>
 6    0  0.1230761E+002  0.1094913E+03  0.7546771E-02  0.1261515E+00
         -4   -1    0    0    0  501 -0.00000000000E+00  0.00000000000E+00  0.31626742728E+03  0.31626742728E+03  0.00000000000E+00 0. -1.
         21   -1    0    0  504  502  0.00000000000E+00 -0.00000000000E+00 -0.15615691750E+03  0.15615691750E+03  0.00000000000E+00 0.  1.
         21    1    1    2  503  502  0.22349007194E+02  0.30019222152E+02 -0.41430613750E+01  0.37653642304E+02  0.00000000000E+00 0.  1.
         21    1    1    2  504  501  0.93659787856E+02 -0.93623390819E+01 -0.94093663613E+02  0.13309179834E+03  0.00000000000E+00 0.  1.
         21    1    1    2  505  503 -0.91796013356E+02 -0.53559520749E+02  0.13543828878E+03  0.17215882318E+03  0.00000000000E+00 0.  1.
         -4    1    1    2    0  505 -0.24212781694E+02  0.32902637679E+02  0.12290894599E+03  0.12952008095E+03  0.00000000000E+00 0. -1.
<scales pt_clust_3="37.42502" pt_clust_4="109.49127" pt_clust_5="14000.00000" pt_clust_6="41.12793"></scales>
<clustering>
<clus scale="   37.425">  2  3  1 -1</clus>
<clus scale="   41.128">  1  6  2 -1</clus>
<clus scale="  109.491">  2  4  1 -1</clus>
<clus scale="   37.425">  2  3  1 -1</clus>
</clustering>
</event>
<event>
 6    0  0.1230761E+002  0.8326351E+02  0.7546771E-02  0.1320037E+00
         21   -1    0    0  504  502  0.00000000000E+00  0.00000000000E+00  0.22120808982E+03  0.22120808982E+03  0.00000000000E+00 0. -1.
         -3   -1    0    0    0  501 -0.00000000000E+00 -0.00000000000E+00 -0.15898066282E+03  0.15898066282E+03  0.00000000000E+00 0. -1.
         21    1    1    2  503  501 -0.72761579177E+02  0.83979901588E+01 -0.51478526153E+01  0.73425295570E+02  0.00000000000E+00 0. -1.
         21    1    1    2  504  503 -0.31373259454E+02  0.33779709311E+02  0.76195221013E+02  0.89056509448E+02  0.00000000000E+00 0. -1.
         21    1    1    2  505  502  0.46725666330E+02  0.48488243486E+02  0.60026137179E+02  0.90208285623E+02  0.00000000000E+00 0. -1.
         -3    1    1    2    0  505  0.57409172300E+02 -0.90665942956E+02 -0.68846078577E+02  0.12749866200E+03  0.00000000000E+00 0. -1.
<scales pt_clust_3="83.26351" pt_clust_4="46.10152" pt_clust_5="73.11146" pt_clust_6="14000.00000"></scales>
<clustering>
<clus scale="   46.102">  1  4  2 -1</clus>
<clus scale="   73.111">  1  5  2 -1</clus>
<clus scale="   83.264">  1  3  2 -1</clus>
<clus scale="   46.102">  1  3  2 -1</clus>
</clustering>
</event>
<event>
 6    0  0.1230761E+002  0.6485172E+02  0.7546771E-02  0.1378530E+00
          1   -1    0    0  505    0 -0.00000000000E+00  0.00000000000E+00  0.13290020024E+04  0.13290020024E+04  0.00000000000E+00 0.  1.
         21   -1    0    0  504  502  0.00000000000E+00 -0.00000000000E+00 -0.22363813951E+03  0.22363813951E+03  0.00000000000E+00 0.  1.
         21    1    1    2  503  502 -0.14865176936E+02 -0.28888064401E+02  0.26000496483E+02  0.41611531666E+02  0.00000000000E+00 0. -1.
         21    1    1    2  504  501  0.66950119130E+02  0.67165237604E+02 -0.20038974615E+03  0.22169695072E+03  0.00000000000E+00 0.  1.
         21    1    1    2  505  503  0.29284142578E+02 -0.51997840679E+02  0.82477161459E+03  0.82692777960E+03  0.00000000000E+00 0.  1.
          1    1    1    2  501    0 -0.81369084772E+02  0.13720667477E+02  0.45498149800E+03  0.46240387995E+03  0.00000000000E+00 0.  1.
<scales pt_clust_3="32.48836" pt_clust_4="64.85172" pt_clust_5="59.76638" pt_clust_6="14000.00000"></scales>
<clustering>
<clus scale="   32.488">  2  3  1 -1</clus>
<clus scale="   59.766">  1  5  2 -1</clus>
<clus scale="   64.852">  2  4  1 -1</clus>
<clus scale="   32.488">  2  3  1 -1</clus>
</clustering>
</event>
<event>
 6    0  0.1230761E+002  0.1714523E+03  0.7546771E-02  0.1176342E+00
          2   -1    0    0  504    0 -0.00000000000E+00  0.00000000000E+00  0.65418385300E+03  0.65418385300E+03  0.00000000000E+00 0.  1.
         21   -1    0    0  505  502  0.00000000000E+00 -0.00000000000E+00 -0.37563049528E+03  0.37563049528E+03  0.00000000000E+00 0.  1.
         21    1    1    2  503  502  0.11108850562E+03 -0.85154082666E+02 -0.28766039810E+03  0.31990682786E+03  0.00000000000E+00 0.  1.
         21    1    1    2  504  503  0.63378237753E+02  0.50024925192E+02  0.36942393623E+02  0.88792086402E+02  0.00000000000E+00 0.  1.
         21    1    1    2  505  501  0.12514812054E+02 -0.38895333568E+02 -0.12901888450E+02  0.42847709620E+02  0.00000000000E+00 0.  1.
          2    1    1    2  501    0 -0.18698155543E+03  0.74024491043E+02  0.54217325065E+03  0.57826772439E+03  0.00000000000E+00 0.  1.
<scales pt_clust_3="171.45232" pt_clust_4="79.72908" pt_clust_5="40.85912" pt_clust_6="14000.00000"></scales>
<clustering>
<clus scale="   40.859">  2  5  1 -1</clus>
<clus scale="   79.729">  1  4  2 -1</clus>
<clus scale="  171.452">  2  3  1 -1</clus>
<clus scale="   40.859">  2  3  1 -1</clus>
</clustering>
</event>
<event>
 6    0  0.1230761E+002  0.3281604E+03  0.7546771E-02  0.1071954E+00
          1   -1    0    0  505    0 -0.00000000000E+00  0.00000000000E+00  0.75231716159E+03  0.75231716159E+03  0.00000000000E+00 0.  1.
         21   -1    0    0  504  502  0.00000000000E+00 -0.00000000000E+00 -0.23151616177E+04  0.23151616177E+04  0.00000000000E+00 0.  1.
         21    1    1    2  503  501  0.58687574030E+02  0.64146216807E+02 -0.39684890367E+03  0.40626102547E+03  0.00000000000E+00 0.  1.
         21    1    1    2  504  503  0.20306553986E+03  0.11316973878E+03 -0.18474596948E+04  0.18620285517E+04  0.00000000000E+00 0.  1.
         21    1    1    2  505  502 -0.33286798492E+02 -0.41709486168E+02 -0.13607944913E+02  0.55071484046E+02  0.00000000000E+00 0. -1.
          1    1    1    2  501    0 -0.22846631540E+03 -0.13560646941E+03  0.69507208730E+03  0.74411771808E+03  0.00000000000E+00 0.  1.
<scales pt_clust_3="55.53241" pt_clust_4="55.53241" pt_clust_5="53.36377" pt_clust_6="315.32265"></scales>
<clustering>
<clus scale="   53.364">  1  5  2 -1</clus>
<clus scale="   55.532">  3  4 -1 -1</clus>
<clus scale="  315.323">  1  6  2 -1</clus>
<clus scale="  328.160">  2  3  1 -1</clus>
</clustering>
</event>
<event>
 6    0  0.1230761E+002  0.1539373E+03  0.7546771E-02  0.1195717E+00
         21   -1    0    0  505  502  0.00000000000E+00  0.00000000000E+00  0.54893905789E+02  0.54893905789E+02  0.00000000000E+00 0.  1.
          2   -1    0    0  503    0 -0.00000000000E+00 -0.00000000000E+00 -0.31819276689E+04  0.31819276689E+04  0.00000000000E+00 0.  1.
         21    1    1    2  503  502  0.97177699332E+02  0.11480945842E+03 -0.81196474947E+02  0.17093152001E+03  0.00000000000E+00 0.  1.
         21    1    1    2  504  501  0.51574177347E+02  0.16221797699E+02 -0.20080390458E+03  0.20795492440E+03  0.00000000000E+00 0. -1.
         21    1    1    2  505  504 -0.35673775074E+02 -0.26254325758E+02 -0.11031514912E+03  0.11887531272E+03  0.00000000000E+00 0.  1.
          2    1    1    2  501    0 -0.11307810161E+03 -0.10477693036E+03 -0.27347182345E+04  0.27390598176E+04  0.00000000000E+00 0.  1.
<scales pt_clust_3="153.93728" pt_clust_4="51.11474" pt_clust_5="44.29343" pt_clust_6="14000.00000"></scales>
<clustering>
<clus scale="   44.293">  1  5  2 -1</clus>
<clus scale="   51.115">  1  4  2 -1</clus>
<clus scale="  153.937">  1  3  2 -1</clus>
<clus scale="   44.293">  1  3  2 -1</clus>
</clustering>
</event>
<event>
 6    0  0.1230761E+002  0.1103988E+03  0.7546771E-02  0.1259833E+00
         -1   -1    0    0    0  501 -0.00000000000E+00  0.00000000000E+00  0.66674514090E+03  0.66674514090E+03  0.00000000000E+00 0. -1.
         21   -1    0    0  504  502  0.00000000000E+00 -0.00000000000E+00 -0.32940280351E+03  0.32940280351E+03  0.00000000000E+00 0.  1.
         21    1    1    2  503  502  0.25736178602E+00 -0.75651554499E+02 -0.61662201946E+02  0.97598417416E+02  0.00000000000E+00 0.  1.
         21    1    1    2  504  505 -0.17241347507E+02 -0.52656913995E+02 -0.23082505023E+03  0.23738200957E+03  0.00000000000E+00 0.  1.
         21    1    1    2  505  501 -0.31674464222E+02  0.43718846977E+02  0.47562300660E+03  0.47867719151E+03  0.00000000000E+00 0. -1.
         -1    1    1    2    0  503  0.48658449942E+02  0.84589621517E+02  0.15420658297E+03  0.18249032591E+03  0.00000000000E+00 0. -1.
<scales pt_clust_3="110.39878" pt_clust_4="54.86490" pt_clust_5="53.98712" pt_clust_6="14000.00000"></scales>
<clustering>
<clus scale="   53.987">  1  5  2 -1</clus>
<clus scale="   54.865">  2  4  1 -1</clus>
<clus scale="  110.399">  2  3  1 -1</clus>
<clus scale="   54.865">  2  3  1 -1</clus>
</clustering>
</event>
<event>
 6    0  0.1230761E+002  0.9475120E+02  0.7546771E-02  0.1291737E+00
         21   -1    0    0  503  502  0.00000000000E+00  0.00000000000E+00  0.30079936808E+03  0.30079936808E+03  0.00000000000E+00 0.  1.
          2   -1    0    0  505    0 -0.00000000000E+00 -0.00000000000E+00 -0.12329735115E+04  0.12329735115E+04  0.00000000000E+00 0. -1.
         21    1    1    2  503  501  0.40250310343E+02  0.24295111301E+02 -0.28679556634E+02  0.55071379904E+02  0.00000000000E+00 0.  1.
         21    1    1    2  504  502 -0.11439543877E+03 -0.85169806723E+02  0.26695845013E+03  0.30266652687E+03  0.00000000000E+00 0.  1.
         21    1    1    2  505  504  0.36807653070E+02  0.60043551806E+01 -0.20956302814E+03  0.21285562800E+03  0.00000000000E+00 0. -1.
          2    1    1    2  501    0  0.37337475359E+02  0.54870340242E+02 -0.96089000874E+03  0.96317934478E+03  0.00000000000E+00 0. -1.
<scales pt_clust_3="48.43623" pt_clust_4="14000.00000" pt_clust_5="37.29418" pt_clust_6="94.75120"></scales>
<clustering>
<clus scale="   37.294">  2  5  1 -1</clus>
<clus scale="   48.436">  1  3  2 -1</clus>
<clus scale="   94.751">  2  6  1 -1</clus>
<clus scale="   48.436">  1  3  2 -1</clus>
</clustering>
</event>
<event>
 6    0  0.1230761E+002  0.1008053E+03  0.7546771E-02  0.1278612E+00
         21   -1    0    0  505  502  0.00000000000E+00  0.00000000000E+00  0.55833706142E+02  0.55833706142E+02  0.00000000000E+00 0.  1.
          1   -1    0    0  504    0 -0.00000000000E+00 -0.00000000000E+00 -0.10673363652E+04  0.10673363652E+04  0.00000000000E+00 0. -1.
         21    1    1    2  503  502 -0.42411381835E+02  0.13023626874E+02 -0.11737755033E+03  0.12548238717E+03  0.00000000000E+00 0.  1.
         21    1    1    2  504  503  0.26126497443E+02  0.17134239967E+02 -0.14779850083E+03  0.15106479701E+03  0.00000000000E+00 0. -1.
         21    1    1    2  505  501 -0.32137922202E+01 -0.10278720074E+03 -0.65628404933E+01  0.10304663009E+03  0.00000000000E+00 0.  1.
          1    1    1    2  501    0  0.19498676613E+02  0.72629333904E+02 -0.73976376743E+03  0.74357625711E+03  0.00000000000E+00 0. -1.
<scales pt_clust_3="41.84846" pt_clust_4="31.24382" pt_clust_5="100.80529" pt_clust_6="14000.00000"></scales>
<clustering>
<clus scale="   31.244">  2  4  1 -1</clus>
<clus scale="   41.848">  2  3  1 -1</clus>
<clus scale="  100.805">  1  5  2 -1</clus>
<clus scale="  100.805">  1  3  2 -1</clus>
</clustering>
</event>
<event>
 6    0  0.1230761E+002  0.9918106E+02  0.7546771E-02  0.1282028E+00
         21   -1    0    0  504  502  0.00000000000E+00  0.00000000000E+00  0.13894858960E+03  0.13894858960E+03  0.00000000000E+00 0.  1.
          2   -1    0    0  503    0 -0.00000000000E+00 -0.00000000000E+00 -0.34437031704E+03  0.34437031704E+03  0.00000000000E+00 0.  1.
         21    1    1    2  503  502 -0.78310992301E+01 -0.40492808110E+02 -0.43238751936E+02  0.59754357939E+02  0.00000000000E+00 0.  1.
         21    1    1    2  504  505  0.31923275244E+02 -0.79236668744E+01  0.60596466525E+02  0.68947891588E+02  0.00000000000E+00 0.  1.
         21    1    1    2  505  501  0.75008243724E+02 -0.57114126875E+01  0.27459312442E+02  0.80080401480E+02  0.00000000000E+00 0.  1.
          2    1    1    2  501    0 -0.99100419739E+02  0.54127887672E+02 -0.25023875447E+03  0.27453625563E+03  0.00000000000E+00 0.  1.
<scales pt_clust_3="41.59542" pt_clust_4="32.89194" pt_clust_5="99.18106" pt_clust_6="14000.00000"></scales>
<clustering>
<clus scale="   32.892">  1  4  2 -1</clus>
<clus scale="   41.595">  2  3  1 -1</clus>
<clus scale="   99.181">  1  5  2 -1</clus>
<clus scale="   32.892">  1  3  2 -1</clus>
</clustering>
</event>
<event>
 6    0  0.1230761E+002  0.1033256E+03  0.7546771E-02  0.1273454E+00
         21   -1    0    0  503  502  0.00000000000E+00  0.00000000000E+00  0.37113606974E+03  0.37113606974E+03  0.00000000000E+00 0. -1.
          2   -1    0    0  505    0 -0.00000000000E+00 -0.00000000000E+00 -0.15305325192E+04  0.15305325192E+04  0.00000000000E+00 0. -1.
         21    1    1    2  503  501  0.43686701071E+02 -0.80744757769E+01  0.29632020462E+02  0.53402075299E+02  0.00000000000E+00 0.  1.
         21    1    1    2  504  502 -0.47340170704E+02 -0.94978367691E+02  0.31288086454E+03  0.33038828292E+03  0.00000000000E+00 0. -1.
         21    1    1    2  505  504  0.32707563877E+02 -0.25678754883E+02 -0.82893413933E+02  0.92738887532E+02  0.00000000000E+00 0.  1.
          2    1    1    2  501    0 -0.29054094244E+02  0.12873159835E+03 -0.14190159206E+04  0.14251393432E+04  0.00000000000E+00 0. -1.
<scales pt_clust_3="44.73031" pt_clust_4="14000.00000" pt_clust_5="41.58345" pt_clust_6="103.32558"></scales>
<clustering>
<clus scale="   41.583">  2  5  1 -1</clus>
<clus scale="   44.730">  1  3  2 -1</clus>
<clus scale="  103.326">  2  6  1 -1</clus>
<clus scale="   44.730">  1  3  2 -1</clus>
</clustering>
</event>
<event>
 6    0  0.1230761E+002  0.7476310E+02  0.7546771E-02  0.1344606E+00
          1   -1    0    0  505    0 -0.00000000000E+00  0.00000000000E+00  0.60977111214E+03  0.60977111214E+03  0.00000000000E+00 0.  1.
         21   -1    0    0  504  502  0.00000000000E+00 -0.00000000000E+00 -0.29259987487E+03  0.29259987487E+03  0.00000000000E+00 0.  1.
         21    1    1    2  503  502 -0.55371153755E+02 -0.32038699294E+02 -0.12561860464E+03  0.14096977248E+03  0.00000000000E+00 0.  1.
         21    1    1    2  504  501  0.62597133726E+02  0.91776006267E+02 -0.12577303905E+03  0.16780969527E+03  0.00000000000E+00 0.  1.
         21    1    1    2  505  503  0.52950119039E+02 -0.21967090841E+02  0.72301331949E+02  0.92269988554E+02  0.00000000000E+00 0. -1.
          1    1    1    2  501    0 -0.60176099009E+02 -0.37770216131E+02  0.49626154901E+03  0.50132153070E+03  0.00000000000E+00 0.  1.
<scales pt_clust_3="74.76310" pt_clust_4="14000.00000" pt_clust_5="57.32598" pt_clust_6="59.40829"></scales>
<clustering>
<clus scale="   57.326">  1  5  2 -1</clus>
<clus scale="   59.408">  1  6  2 -1</clus>
<clus scale="   74.763">  2  3  1 -1</clus>
<clus scale="   74.763">  2  3  1 -1</clus>
</clustering>
</event>
<event>
 6    0  0.1230761E+002  0.4740173E+03  0.7546771E-02  0.1020792E+00
         21   -1    0    0  501  502  0.00000000000E+00  0.00000000000E+00  0.17925909310E+04  0.17925909310E+04  0.00000000000E+00 0. -1.
          3   -1    0    0  503    0 -0.00000000000E+00 -0.00000000000E+00 -0.32358765675E+03  0.32358765675E+03  0.00000000000E+00 0. -1.
         21    1    1    2  503  504 -0.31920082166E+02  0.68967126975E+01 -0.15190331611E+03  0.15537398024E+03  0.00000000000E+00 0. -1.
         21    1    1    2  504  505  0.22129821147E+03  0.36357753267E+01  0.54926772766E+03  0.59218337862E+03  0.00000000000E+00 0. -1.
         21    1    1    2  505  502  0.25403968733E+03  0.39378696038E+02  0.81341838644E+03  0.85307462501E+03  0.00000000000E+00 0. -1.
          3    1    1    2  501    0 -0.44341781663E+03 -0.49911184062E+02  0.25822047625E+03  0.51554660387E+03  0.00000000000E+00 0. -1.
<scales pt_clust_3="32.65664" pt_clust_4="58.99955" pt_clust_5="58.99955" pt_clust_6="469.71430"></scales>
<clustering>
<clus scale="   32.657">  2  3  1 -1</clus>
<clus scale="   59.000">  4  5 -1 -1</clus>
<clus scale="  469.714">  2  6  1 -1</clus>
<clus scale="  474.017">  1  3  2 -1</clus>
</clustering>
</event>
<event>
 6    0  0.1230761E+002  0.9227798E+02  0.7546771E-02  0.1297427E+00
         21   -1    0    0  505  502  0.00000000000E+00  0.00000000000E+00  0.32872578549E+03  0.32872578549E+03  0.00000000000E+00 0.  1.
          2   -1    0    0  503    0 -0.00000000000E+00 -0.00000000000E+00 -0.61229978167E+03  0.61229978167E+03  0.00000000000E+00 0.  1.
         21    1    1    2  503  504  0.67508717802E+02 -0.51602501055E+02 -0.50391143415E+02  0.98790244605E+02  0.00000000000E+00 0. -1.
         21    1    1    2  504  502 -0.68049643764E+02 -0.66026960635E+02  0.26977488512E+03  0.28595244742E+03  0.00000000000E+00 0.  1.
         21    1    1    2  505  501  0.36725768494E+02  0.29225510250E+02 -0.27280211542E+01  0.47014408645E+02  0.00000000000E+00 0.  1.
          2    1    1    2  501    0 -0.36184842532E+02  0.88403951440E+02 -0.50022971673E+03  0.50926846649E+03  0.00000000000E+00 0.  1.
<scales pt_clust_3="92.27798" pt_clust_4="52.64872" pt_clust_5="46.93519" pt_clust_6="14000.00000"></scales>
<clustering>
<clus scale="   46.935">  1  5  2 -1</clus>
<clus scale="   52.649">  1  4  2 -1</clus>
<clus scale="   92.278">  1  3  2 -1</clus>
<clus scale="   46.935">  1  3  2 -1</clus>
</clustering>
</event>
<event>
 6    0  0.1230761E+002  0.1556268E+03  0.7546771E-02  0.1193724E+00
          1   -1    0    0  503    0 -0.00000000000E+00  0.00000000000E+00  0.83281170341E+03  0.83281170341E+03  0.00000000000E+00 0. -1.
         21   -1    0    0  505  502  0.00000000000E+00 -0.00000000000E+00 -0.13471079339E+03  0.13471079339E+03  0.00000000000E+00 0.  1.
         21    1    1    2  503  504 -0.28648997207E+02  0.33278131619E+02  0.40683627510E+01  0.44099327211E+02  0.00000000000E+00 0.  1.
         21    1    1    2  504  502 -0.49527693941E+02  0.87340580990E+02 -0.83699862153E+02  0.13071739165E+03  0.00000000000E+00 0.  1.
         21    1    1    2  505  501  0.39238325016E+02 -0.25590574705E+02  0.16904877465E+03  0.17541953106E+03  0.00000000000E+00 0. -1.
          1    1    1    2  501    0  0.38938366132E+02 -0.95028137905E+02  0.60868363477E+03  0.61728624688E+03  0.00000000000E+00 0. -1.
<scales pt_clust_3="39.45361" pt_clust_4="39.45361" pt_clust_5="36.08327" pt_clust_6="153.34520"></scales>
<clustering>
<clus scale="   36.083">  5  6 -1 -1</clus>
<clus scale="   39.454">  3  4 -1 -1</clus>
<clus scale="  153.345">  1  5  2 -1</clus>
<clus scale="  155.627">  2  3  1 -1</clus>
</clustering>
</event>
<event>
 6    0  0.1230761E+002  0.1276653E+03  0.7546771E-02  0.1230962E+00
         -3   -1    0    0    0  501 -0.00000000000E+00  0.00000000000E+00  0.14464531108E+03  0.14464531108E+03  0.00000000000E+00 0.  1.
         21   -1    0    0  503  502  0.00000000000E+00 -0.00000000000E+00 -0.44764558357E+03  0.44764558357E+03  0.00000000000E+00 0.  1.
         21    1    1    2  503  505 -0.45430187867E+02 -0.92387276633E+02 -0.90369904666E+02  0.13698916206E+03  0.00000000000E+00 0.  1.
         21    1    1    2  504  501 -0.43600185976E+02  0.49436418007E+01  0.51664364059E+02  0.67783643491E+02  0.00000000000E+00 0.  1.
         21    1    1    2  505  504 -0.73526404347E+02  0.22131363733E+02 -0.81797820201E+01  0.77219416152E+02  0.00000000000E+00 0.  1.
         -3    1    1    2    0  502  0.16255677819E+03  0.65312271100E+02 -0.25611494986E+03  0.31029867295E+03  0.00000000000E+00 0.  1.
<scales pt_clust_3="14000.00000" pt_clust_4="43.87956" pt_clust_5="94.38887" pt_clust_6="127.66534"></scales>
<clustering>
<clus scale="   43.880">  1  4  2 -1</clus>
<clus scale="   94.389">  1  5  2 -1</clus>
<clus scale="  127.665">  1  6  2 -1</clus>
<clus scale="  127.665">  2  3  1 -1</clus>
</clustering>
</event>
<event>
 6    0  0.1230761E+002  0.1022189E+03  0.7546771E-02  0.1275698E+00
         21   -1    0    0  505  502  0.00000000000E+00  0.00000000000E+00  0.22006553726E+03  0.22006553726E+03  0.00000000000E+00 0. -1.
         -1   -1    0    0    0  501 -0.00000000000E+00 -0.00000000000E+00 -0.86691482633E+03  0.86691482633E+03  0.00000000000E+00 0.  1.
         21    1    1    2  503  501 -0.59544621711E+01 -0.37021843736E+02 -0.21343830667E+03  0.21670713714E+03  0.00000000000E+00 0.  1.
         21    1    1    2  504  502  0.43492088169E+02  0.28775015425E+02 -0.27336538879E+02  0.58879959272E+02  0.00000000000E+00 0.  1.
         21    1    1    2  505  503  0.60501453673E+02 -0.23352522214E+02  0.19296038750E+03  0.20356688664E+03  0.00000000000E+00 0. -1.
         -1    1    1    2    0  504 -0.98039079670E+02  0.31599350525E+02 -0.59903483102E+03  0.60782638053E+03  0.00000000000E+00 0.  1.
<scales pt_clust_3="37.49763" pt_clust_4="50.50303" pt_clust_5="102.21887" pt_clust_6="14000.00000"></scales>
<clustering>
<clus scale="   37.498">  2  3  1 -1</clus>
<clus scale="   50.503">  1  4  2 -1</clus>
<clus scale="  102.219">  1  5  2 -1</clus>
<clus scale="   50.503">  1  3  2 -1</clus>
</clustering>
</event>
<event>
 6    0  0.1230761E+002  0.7520763E+02  0.7546771E-02  0.1343229E+00
         21   -1    0    0  503  502  0.00000000000E+00  0.00000000000E+00  0.53082528252E+03  0.53082528252E+03  0.00000000000E+00 0.  1.
          2   -1    0    0  504    0 -0.00000000000E+00 -0.00000000000E+00 -0.21815639140E+03  0.21815639140E+03  0.00000000000E+00 0.  1.
         21    1    1    2  503  501 -0.29440136676E+02  0.62669871170E+02  0.38111550208E+03  0.38735417944E+03  0.00000000000E+00 0.  1.
         21    1    1    2  504  505  0.76586358032E+01  0.49610630616E+02 -0.21928825015E+02  0.54779035579E+02  0.00000000000E+00 0.  1.
         21    1    1    2  505  502  0.54088085223E+02  0.72078340062E+01  0.10068533027E+03  0.11452078224E+03  0.00000000000E+00 0.  1.
          2    1    1    2  501    0 -0.32306584350E+02 -0.11948833579E+03 -0.14720311623E+03  0.19232767666E+03  0.00000000000E+00 0.  1.
<scales pt_clust_3="75.20763" pt_clust_4="50.19830" pt_clust_5="55.14159" pt_clust_6="14000.00000"></scales>
<clustering>
<clus scale="   50.198">  2  4  1 -1</clus>
<clus scale="   55.142">  1  5  2 -1</clus>
<clus scale="   75.208">  1  3  2 -1</clus>
<clus scale="   55.142">  1  3  2 -1</clus>
</clustering>
</event>
<event>
 6    0  0.1230761E+002  0.1197748E+03  0.7546771E-02  0.1243469E+00
          1   -1    0    0  503    0 -0.00000000000E+00  0.00000000000E+00  0.19496315505E+04  0.19496315505E+04  0.00000000000E+00 0.  1.
         21   -1    0    0  501  502  0.00000000000E+00 -0.00000000000E+00 -0.17460067857E+02  0.17460067857E+02  0.00000000000E+00 0. -1.
         21    1    1    2  503  504 -0.13806496393E+02 -0.34424771729E+02  0.70066890954E+03  0.70164991630E+03  0.00000000000E+00 0.  1.
         21    1    1    2  504  505 -0.17908746397E+02  0.29244906701E+02  0.98805445778E+02  0.10458730268E+03  0.00000000000E+00 0. -1.
         21    1    1    2  505  502 -0.81684551616E+02  0.16494471317E+02  0.15018956274E+03  0.17175953631E+03  0.00000000000E+00 0. -1.
          1    1    1    2  501    0  0.11339979441E+03 -0.11314606289E+02  0.98250756458E+03  0.98909486306E+03  0.00000000000E+00 0.  1.
<scales pt_clust_3="37.09022" pt_clust_4="31.15134" pt_clust_5="31.15134" pt_clust_6="109.48904"></scales>
<clustering>
<clus scale="   31.151">  4  5 -1 -1</clus>
<clus scale="   37.090">  1  3  2 -1</clus>
<clus scale="  109.489">  1  6  2 -1</clus>
<clus scale="  119.775">  2  3  1 -1</clus>
</clustering>
</event>
<event>
 6    0  0.1230761E+002  0.9419318E+02  0.7546771E-02  0.1293004E+00
          2   -1    0    0  504    0 -0.00000000000E+00  0.00000000000E+00  0.28659734039E+04  0.28659734039E+04  0.00000000000E+00 0. -1.
         21   -1    0    0  505  502  0.00000000000E+00 -0.00000000000E+00 -0.85417956057E+02  0.85417956057E+02  0.00000000000E+00 0.  1.
         21    1    1    2  503  502  0.15295998268E+02 -0.33185270192E+02 -0.13044036492E+02  0.38799183094E+02  0.00000000000E+00 0.  1.
         21    1    1    2  504  503  0.79396787415E+01  0.72855924422E+02  0.38031318741E+03  0.38731014025E+03  0.00000000000E+00 0. -1.
         21    1    1    2  505  501  0.13237241357E+02  0.54523967491E+02 -0.40638662832E+02  0.69279062540E+02  0.00000000000E+00 0.  1.
          2    1    1    2  501    0 -0.36472918367E+02 -0.94194621722E+02  0.24539249598E+04  0.24560029741E+04  0.00000000000E+00 0. -1.
<scales pt_clust_3="36.54080" pt_clust_4="94.19318" pt_clust_5="36.31380" pt_clust_6="14000.00000"></scales>
<clustering>
<clus scale="   36.541">  2  3  1 -1</clus>
<clus scale="   36.314">  2  5  1 -1</clus>
<clus scale="   94.193">  2  4  1 -1</clus>
<clus scale="   36.541">  2  3  1 -1</clus>
</clustering>
</event>
<event>
 6    0  0.1230761E+002  0.2421370E+03  0.7546771E-02  0.1118377E+00
         21   -1    0    0  501  502  0.00000000000E+00  0.00000000000E+00  0.59816178295E+03  0.59816178295E+03  0.00000000000E+00 0.  1.
          3   -1    0    0  504    0 -0.00000000000E+00 -0.00000000000E+00 -0.10413211155E+04  0.10413211155E+04  0.00000000000E+00 0. -1.
         21    1    1    2  503  505 -0.44525834592E+02  0.45237828330E+01  0.46994055479E+02  0.64895730272E+02  0.00000000000E+00 0.  1.
         21    1    1    2  504  503  0.74005186895E+01 -0.47585903102E+02 -0.42454720123E+03  0.42726983502E+03  0.00000000000E+00 0. -1.
         21    1    1    2  505  502 -0.18561722283E+03  0.68818512943E+01  0.50266217796E+03  0.53588280289E+03  0.00000000000E+00 0.  1.
          3    1    1    2  501    0  0.22274253873E+03  0.36180268975E+02 -0.56826836475E+03  0.61143453027E+03  0.00000000000E+00 0. -1.
<scales pt_clust_3="37.11463" pt_clust_4="48.15793" pt_clust_5="37.11463" pt_clust_6="230.02901"></scales>
<clustering>
<clus scale="   37.115">  3  5 -1 -1</clus>
<clus scale="   48.158">  2  4  1 -1</clus>
<clus scale="  230.029">  2  6  1 -1</clus>
<clus scale="  242.137">  1  3  2 -1</clus>
</clustering>
</event>
<event>
 6    0  0.1230761E+002  0.1369052E+03  0.7546771E-02  0.1217555E+00
         21   -1    0    0  503  502  0.00000000000E+00  0.00000000000E+00  0.36433806499E+03  0.36433806499E+03  0.00000000000E+00 0. -1.
          2   -1    0    0  504    0 -0.00000000000E+00 -0.00000000000E+00 -0.17171732665E+04  0.17171732665E+04  0.00000000000E+00 0.  1.
         21    1    1    2  503  505  0.27705114815E+02  0.60174825834E+02  0.22874644483E+03  0.23814600369E+03  0.00000000000E+00 0. -1.
         21    1    1    2  504  502 -0.25285815364E+02  0.20485708509E+02  0.10828237040E+03  0.11306683179E+03  0.00000000000E+00 0.  1.
         21    1    1    2  505  501  0.12875315353E+03 -0.26243509246E+02 -0.24102454118E+03  0.27451580240E+03  0.00000000000E+00 0. -1.
          2    1    1    2  501    0 -0.13117245298E+03 -0.54417025097E+02 -0.14488394755E+04  0.14557826936E+04  0.00000000000E+00 0.  1.
<scales pt_clust_3="79.15213" pt_clust_4="32.54284" pt_clust_5="14000.00000" pt_clust_6="136.90519"></scales>
<clustering>
<clus scale="   32.543">  1  4  2 -1</clus>
<clus scale="   79.152">  1  3  2 -1</clus>
<clus scale="  136.905">  2  6  1 -1</clus>
<clus scale="   32.543">  1  3  2 -1</clus>
</clustering>
</event>
<event>
 6    0  0.1230761E+002  0.8968968E+02  0.7546771E-02  0.1303605E+00
         21   -1    0    0  503  502  0.00000000000E+00  0.00000000000E+00  0.33376987038E+03  0.33376987038E+03  0.00000000000E+00 0.  1.
          2   -1    0    0  505    0 -0.00000000000E+00 -0.00000000000E+00 -0.18335250889E+03  0.18335250889E+03  0.00000000000E+00 0. -1.
         21    1    1    2  503  501  0.21328347566E+02  0.39634516243E+02  0.44377083880E+02  0.63206952635E+02  0.00000000000E+00 0. -1.
         21    1    1    2  504  502 -0.15166538936E+02 -0.92337030591E+02  0.21209496383E+03  0.23181981107E+03  0.00000000000E+00 0.  1.
         21    1    1    2  505  504  0.25593314613E+02 -0.66729249799E+02 -0.42083077587E+02  0.82938507044E+02  0.00000000000E+00 0. -1.
          2    1    1    2  501    0 -0.31755123243E+02  0.11943176415E+03 -0.63971608642E+02  0.13915710852E+03  0.00000000000E+00 0. -1.
<scales pt_clust_3="45.00881" pt_clust_4="60.94097" pt_clust_5="14000.00000" pt_clust_6="89.68968"></scales>
<clustering>
<clus scale="   45.009">  1  3  2 -1</clus>
<clus scale="   60.941">  1  4  2 -1</clus>
<clus scale="   89.690">  1  6  2 -1</clus>
<clus scale="   45.009">  1  3  2 -1</clus>
</clustering>
</event>
<event>
 6    0  0.1230761E+002  0.1092702E+03  0.7546771E-02  0.1261927E+00
         21   -1    0    0  505  502  0.00000000000E+00  0.00000000000E+00  0.41481659402E+02  0.41481659402E+02  0.00000000000E+00 0.  1.
         -3   -1    0    0    0  501 -0.00000000000E+00 -0.00000000000E+00 -0.21348404102E+04  0.21348404102E+04  0.00000000000E+00 0.  1.
         21    1    1    2  503  502  0.83749028472E+02 -0.89514090563E+01 -0.19733252296E+02  0.86506813259E+02  0.00000000000E+00 0.  1.
         21    1    1    2  504  501 -0.19899008617E+02  0.36711387919E+02 -0.19479438263E+03  0.19921984854E+03  0.00000000000E+00 0. -1.
         21    1    1    2  505  504  0.26601729986E+02 -0.20020459588E+02 -0.53536637501E+02  0.63044765011E+02  0.00000000000E+00 0. -1.
         -3    1    1    2    0  503 -0.90451749842E+02 -0.77395192740E+01 -0.18252944784E+04  0.18275506428E+04  0.00000000000E+00 0.  1.
<scales pt_clust_3="109.27019" pt_clust_4="39.94216" pt_clust_5="33.29371" pt_clust_6="14000.00000"></scales>
<clustering>
<clus scale="   33.294">  1  5  2 -1</clus>
<clus scale="   39.942">  2  4  1 -1</clus>
<clus scale="  109.270">  1  3  2 -1</clus>
<clus scale="   33.294">  1  3  2 -1</clus>
</clustering>
</event>
<event>
 6    0  0.1230761E+002  0.2226348E+03  0.7546771E-02  0.1131934E+00
         21   -1    0    0  501  502  0.00000000000E+00  0.00000000000E+00  0.31104463559E+03  0.31104463559E+03  0.00000000000E+00 0. -1.
          2   -1    0    0  503    0 -0.00000000000E+00 -0.00000000000E+00 -0.84675118212E+03  0.84675118212E+03  0.00000000000E+00 0.  1.
         21    1    1    2  503  504  0.17840704156E+02  0.65506988096E+02 -0.51667426471E+02  0.85316933679E+02  0.00000000000E+00 0. -1.
         21    1    1    2  504  505  0.16911826654E+02  0.85526952205E+02  0.64910638400E+02  0.10869342396E+03  0.00000000000E+00 0. -1.
         21    1    1    2  505  502  0.20165497355E+01  0.12860310899E+03  0.15736490185E+03  0.20324010049E+03  0.00000000000E+00 0. -1.
          2    1    1    2  501    0 -0.36769080546E+02 -0.27963704929E+03 -0.70631466031E+03  0.76054535959E+03  0.00000000000E+00 0.  1.
<scales pt_clust_3="67.89298" pt_clust_4="33.80729" pt_clust_5="33.80729" pt_clust_6="218.81527"></scales>
<clustering>
<clus scale="   33.807">  4  5 -1 -1</clus>
<clus scale="   67.893">  2  3  1 -1</clus>
<clus scale="  218.815">  2  6  1 -1</clus>
<clus scale="  222.635">  1  3  2 -1</clus>
</clustering>
</event>
<event>
 6    0  0.1230761E+002  0.8942406E+02  0.7546771E-02  0.1304252E+00
          2   -1    0    0  505    0 -0.00000000000E+00  0.00000000000E+00  0.51673627507E+03  0.51673627507E+03  0.00000000000E+00 0.  1.
         21   -1    0    0  501  502  0.00000000000E+00 -0.00000000000E+00 -0.78543024015E+02  0.78543024015E+02  0.00000000000E+00 0.  1.
         21    1    1    2  503  502  0.13369855928E+02 -0.28039903343E+02  0.88361144506E+01  0.32296534575E+02  0.00000000000E+00 0. -1.
         21    1    1    2  504  503  0.55459068941E+02  0.73545927060E+02  0.95958936023E+00  0.92117493054E+02  0.00000000000E+00 0.  1.
         21    1    1    2  505  504  0.58330687766E+02 -0.30957291291E+02  0.17342007368E+03  0.18556762911E+03  0.00000000000E+00 0.  1.
          2    1    1    2  501    0 -0.12715961263E+03 -0.14548732426E+02  0.25497747356E+03  0.28529764234E+03  0.00000000000E+00 0.  1.
<scales pt_clust_3="31.06428" pt_clust_4="89.42406" pt_clust_5="68.32578" pt_clust_6="14000.00000"></scales>
<clustering>
<clus scale="   31.064">  2  3  1 -1</clus>
<clus scale="   68.326">  1  5  2 -1</clus>
<clus scale="   89.424">  2  4  1 -1</clus>
<clus scale="   31.064">  2  3  1 -1</clus>
</clustering>
</event>
<event>
 6    0  0.1230761E+002  0.6872470E+02  0.7546771E-02  0.1364484E+00
          2   -1    0    0  504    0 -0.00000000000E+00  0.00000000000E+00  0.21458683314E+04  0.21458683314E+04  0.00000000000E+00 0.  1.
         21   -1    0    0  505  502  0.00000000000E+00 -0.00000000000E+00 -0.45088992425E+03  0.45088992425E+03  0.00000000000E+00 0. -1.
         21    1    1    2  503  502 -0.30798893677E+02  0.97786568793E+02 -0.40265124133E+03  0.41549826358E+03  0.00000000000E+00 0. -1.
         21    1    1    2  504  503  0.16012787534E+02  0.30279554579E+02  0.86462887748E+03  0.86530708801E+03  0.00000000000E+00 0.  1.
         21    1    1    2  505  501  0.39329412569E+02 -0.30238944248E+02 -0.23861317752E+02  0.55050512506E+02  0.00000000000E+00 0.  1.
          2    1    1    2  501    0 -0.24543306426E+02 -0.97827179123E+02  0.12568620887E+04  0.12609023915E+04  0.00000000000E+00 0.  1.
<scales pt_clust_3="14000.00000" pt_clust_4="34.25289" pt_clust_5="49.54200" pt_clust_6="68.72470"></scales>
<clustering>
<clus scale="   34.253">  1  4  2 -1</clus>
<clus scale="   49.542">  2  5  1 -1</clus>
<clus scale="   68.725">  1  6  2 -1</clus>
<clus scale="   49.542">  2  3  1 -1</clus>
</clustering>
</event>
<event>
 6    0  0.1230761E+002  0.6392502E+02  0.7546771E-02  0.1382061E+00
         -2   -1    0    0    0  501 -0.00000000000E+00  0.00000000000E+00  0.18624626430E+03  0.18624626430E+03  0.00000000000E+00 0.  1.
         21   -1    0    0  504  502  0.00000000000E+00 -0.00000000000E+00 -0.34810148498E+03  0.34810148498E+03  0.00000000000E+00 0.  1.
         21    1    1    2  503  502  0.50682444647E+02 -0.59059507431E+02 -0.27897416828E+03  0.28962617662E+03  0.00000000000E+00 0.  1.
         21    1    1    2  504  505 -0.25366590426E+02  0.33178778766E+02 -0.21890290036E+02  0.47153791662E+02  0.00000000000E+00 0.  1.
         21    1    1    2  505  501  0.51583470606E+02  0.30636883633E+02  0.82552071268E+02  0.10205056369E+03  0.00000000000E+00 0.  1.
         -2    1    1    2    0  503 -0.76899324827E+02 -0.47561549681E+01  0.56457166374E+02  0.95517217316E+02  0.00000000000E+00 0.  1.
<scales pt_clust_3="40.07726" pt_clust_4="41.76476" pt_clust_5="63.92502" pt_clust_6="14000.00000"></scales>
<clustering>
<clus scale="   41.765">  2  4  1 -1</clus>
<clus scale="   40.077">  2  3  1 -1</clus>
<clus scale="   63.925">  1  5  2 -1</clus>
<clus scale="   41.765">  2  3  1 -1</clus>
</clustering>
</event>
<event>
 6    0  0.1230761E+002  0.8744031E+02  0.7546771E-02  0.1309171E+00
         21   -1    0    0  503  502  0.00000000000E+00  0.00000000000E+00  0.53166345245E+02  0.53166345245E+02  0.00000000000E+00 0. -1.
         -3   -1    0    0    0  501 -0.00000000000E+00 -0.00000000000E+00 -0.97756720485E+03  0.97756720485E+03  0.00000000000E+00 0.  1.
         21    1    1    2  503  501  0.44127070833E+02  0.39630198473E+02  0.18064211173E+02  0.62000538197E+02  0.00000000000E+00 0. -1.
         21    1    1    2  504  505 -0.38727443371E+01  0.69104262013E+02 -0.21872512360E+03  0.22941463962E+03  0.00000000000E+00 0. -1.
         21    1    1    2  505  502 -0.32016624007E+02 -0.82249758158E+01 -0.65194366248E+02  0.73095963162E+02  0.00000000000E+00 0.  1.
         -3    1    1    2    0  504 -0.82377024892E+01 -0.10050948467E+03 -0.65854558092E+03  0.66622240911E+03  0.00000000000E+00 0.  1.
<scales pt_clust_3="37.57774" pt_clust_4="14000.00000" pt_clust_5="33.05623" pt_clust_6="87.44031"></scales>
<clustering>
<clus scale="   33.056">  1  5  2 -1</clus>
<clus scale="   37.578">  1  3  2 -1</clus>
<clus scale="   87.440">  2  6  1 -1</clus>
<clus scale="   33.056">  1  3  2 -1</clus>
</clustering>
</event>
<event>
 6    0  0.1230761E+002  0.1306796E+03  0.7546771E-02  0.1226451E+00
          2   -1    0    0  504    0 -0.00000000000E+00  0.00000000000E+00  0.31653904867E+04  0.31653904867E+04  0.00000000000E+00 0.  1.
         21   -1    0    0  503  502  0.00000000000E+00 -0.00000000000E+00 -0.15998066853E+02  0.15998066853E+02  0.00000000000E+00 0. -1.
         21    1    1    2  503  505  0.20418357919E+02  0.27125779248E+02  0.27527813713E+02  0.43709241217E+02  0.00000000000E+00 0. -1.
         21    1    1    2  504  502 -0.96850895661E+01  0.33939690310E+02  0.19892960736E+03  0.20203636361E+03  0.00000000000E+00 0. -1.
         21    1    1    2  505  501  0.12340115651E+03 -0.20364024196E+02  0.10390586461E+04  0.10465588416E+04  0.00000000000E+00 0.  1.
          2    1    1    2  501    0 -0.13413442486E+03 -0.40701445363E+02  0.18838763527E+04  0.18890841071E+04  0.00000000000E+00 0.  1.
<scales pt_clust_3="33.95169" pt_clust_4="39.67628" pt_clust_5="130.67961" pt_clust_6="14000.00000"></scales>
<clustering>
<clus scale="   33.952">  2  3  1 -1</clus>
<clus scale="   39.676">  2  4  1 -1</clus>
<clus scale="  130.680">  2  5  1 -1</clus>
<clus scale="   33.952">  2  3  1 -1</clus>
</clustering>
</event>
<event>
 6    0  0.1230761E+002  0.1123298E+03  0.7546771E-02  0.1256315E+00
         -1   -1    0    0    0  501 -0.00000000000E+00  0.00000000000E+00  0.30426192383E+04  0.30426192383E+04  0.00000000000E+00 0.  1.
         21   -1    0    0  505  502  0.00000000000E+00 -0.00000000000E+00 -0.14727224540E+02  0.14727224540E+02  0.00000000000E+00 0. -1.
         21    1    1    2  503  501  0.82667215017E+02 -0.58056395850E+01  0.63375033618E+03  0.63914557223E+03  0.00000000000E+00 0. -1.
         21    1    1    2  504  502 -0.60514486699E+02  0.32727516966E+01  0.91950217411E+03  0.92149713087E+03  0.00000000000E+00 0. -1.
         21    1    1    2  505  503  0.30606457660E+02 -0.31926020829E+02  0.36941805979E+02  0.57625715488E+02  0.00000000000E+00 0. -1.
         -1    1    1    2    0  504 -0.52759185979E+02  0.34458908717E+02  0.14376976974E+04  0.14390780442E+04  0.00000000000E+00 0.  1.
<scales pt_clust_3="104.63589" pt_clust_4="40.06757" pt_clust_5="44.22698" pt_clust_6="40.06757"></scales>
<clustering>
<clus scale="   40.068">  4  6 -1 -1</clus>
<clus scale="   44.227">  2  5  1 -1</clus>
<clus scale="  104.636">  2  3  1 -1</clus>
<clus scale="   44.227">  2  3  1 -1</clus>
</clustering>
</event>
<event>
 6    0  0.1230761E+002  0.1488494E+03  0.7546771E-02  0.1201894E+00
         -1   -1    0    0    0  501 -0.00000000000E+00  0.00000000000E+00  0.34395952156E+03  0.34395952156E+03  0.00000000000E+00 0.  1.
         21   -1    0    0  505  502  0.00000000000E+00 -0.00000000000E+00 -0.62245501787E+03  0.62245501787E+03  0.00000000000E+00 0. -1.
         21    1    1    2  503  504  0.11231020222E+03 -0.32172531903E+02 -0.54196809665E+03  0.55441687485E+03  0.00000000000E+00 0. -1.
         21    1    1    2  504  502  0.27504403935E+02 -0.30227824257E+02 -0.35510260133E+02  0.54140485497E+02  0.00000000000E+00 0. -1.
         21    1    1    2  505  501 -0.43884719210E+01  0.59182043060E+02  0.11468670920E+03  0.12913099617E+03  0.00000000000E+00 0.  1.
         -1    1    1    2    0  503 -0.13542613423E+03  0.32183130991E+01  0.18429615127E+03  0.22872618291E+03  0.00000000000E+00 0.  1.
<scales pt_clust_3="148.84935" pt_clust_4="40.86825" pt_clust_5="58.94303" pt_clust_6="14000.00000"></scales>
<clustering>
<clus scale="   40.868">  2  4  1 -1</clus>
<clus scale="   58.943">  1  5  2 -1</clus>
<clus scale="  148.849">  2  3  1 -1</clus>
<clus scale="   40.868">  2  3  1 -1</clus>
</clustering>
</event>
<event>
 6    0  0.1230761E+002  0.9537626E+02  0.7546771E-02  0.1290331E+00
         21   -1    0    0  505  502  0.00000000000E+00  0.00000000000E+00  0.43230131303E+03  0.43230131303E+03  0.00000000000E+00 0.  1.
          2   -1    0    0  504    0 -0.00000000000E+00 -0.00000000000E+00 -0.15692031719E+04  0.15692031719E+04  0.00000000000E+00 0. -1.
         21    1    1    2  503  501 -0.10426580984E+03  0.21976764230E+02 -0.73688864201E+03  0.74455302564E+03  0.00000000000E+00 0. -1.
         21    1    1    2  504  502  0.92938210863E+02 -0.77797069862E+02  0.40520950355E+03  0.42294755808E+03  0.00000000000E+00 0.  1.
         21    1    1    2  505  503 -0.98421421255E+01  0.31961608501E+02 -0.57961268978E+01  0.33941232544E+02  0.00000000000E+00 0. -1.
          2    1    1    2  501    0  0.21169741106E+02  0.23858697131E+02 -0.79942659356E+03  0.80006266871E+03  0.00000000000E+00 0. -1.
<scales pt_clust_3="95.37626" pt_clust_4="14000.00000" pt_clust_5="33.87789" pt_clust_6="31.89664"></scales>
<clustering>
<clus scale="   31.897">  2  6  1 -1</clus>
<clus scale="   33.878">  1  5  2 -1</clus>
<clus scale="   95.376">  2  3  1 -1</clus>
<clus scale="   33.878">  1  3  2 -1</clus>
</clustering>
</event>
<event>
 6    0  0.1230761E+002  0.1294890E+03  0.7546771E-02  0.1228216E+00
         21   -1    0    0  504  502  0.00000000000E+00  0.00000000000E+00  0.23287764965E+03  0.23287764965E+03  0.00000000000E+00 0.  1.
         -2   -1    0    0    0  501 -0.00000000000E+00 -0.00000000000E+00 -0.29235602488E+03  0.29235602488E+03  0.00000000000E+00 0. -1.
         21    1    1    2  503  505 -0.52118382048E+02  0.37415449608E+02  0.11638657296E+03  0.13289874335E+03  0.00000000000E+00 0.  1.
         21    1    1    2  504  503 -0.17401763335E+02  0.61323151437E+02  0.72342168629E+02  0.96419601904E+02  0.00000000000E+00 0.  1.
         21    1    1    2  505  501 -0.24662382325E+02 -0.30547661605E+02 -0.32927580869E+02  0.51240787595E+02  0.00000000000E+00 0.  1.
         -2    1    1    2    0  502  0.94182527708E+02 -0.68190939441E+02 -0.21527953595E+03  0.24467454168E+03  0.00000000000E+00 0. -1.
<scales pt_clust_3="48.24598" pt_clust_4="48.24598" pt_clust_5="39.26057" pt_clust_6="119.92241"></scales>
<clustering>
<clus scale="   39.261">  2  5  1 -1</clus>
<clus scale="   48.246">  3  4 -1 -1</clus>
<clus scale="  119.922">  2  6  1 -1</clus>
<clus scale="  129.489">  1  3  2 -1</clus>
</clustering>
</event>
<event>
 6    0  0.1230761E+002  0.1563593E+03  0.7546771E-02  0.1192869E+00
         21   -1    0    0  503  502  0.00000000000E+00  0.00000000000E+00  0.36920755403E+03  0.36920755403E+03  0.00000000000E+00 0. -1.
         -2   -1    0    0    0  501 -0.00000000000E+00 -0.00000000000E+00 -0.12340835347E+03  0.12340835347E+03  0.00000000000E+00 0. -1.
         21    1    1    2  503  504 -0.40979487263E+02 -0.28106819042E+02  0.44478644828E+02  0.66690790209E+02  0.00000000000E+00 0. -1.
         21    1    1    2  504  505 -0.10194439887E+03  0.22122508236E+02  0.13661619627E+02  0.10520791644E+03  0.00000000000E+00 0. -1.
         21    1    1    2  505  501 -0.33200607445E+02 -0.12623783269E+02 -0.25395520236E+02  0.43664318233E+02  0.00000000000E+00 0. -1.
         -2    1    1    2    0  502  0.17612449357E+03  0.18608094076E+02  0.21305445634E+03  0.27705288262E+03  0.00000000000E+00 0. -1.
<scales pt_clust_3="49.69217" pt_clust_4="35.35411" pt_clust_5="35.35411" pt_clust_6="144.14360"></scales>
<clustering>
<clus scale="   35.354">  4  5 -1 -1</clus>
<clus scale="   49.692">  1  3  2 -1</clus>
<clus scale="  144.144">  1  6  2 -1</clus>
<clus scale="   49.692">  1  3  2 -1</clus>
</clustering>
</event>
<event>
 6    0  0.1230761E+002  0.1030029E+03  0.7546771E-02  0.1274105E+00
         21   -1    0    0  501  502  0.00000000000E+00  0.00000000000E+00  0.71585974359E+03  0.71585974359E+03  0.00000000000E+00 0. -1.
          2   -1    0    0  503    0 -0.00000000000E+00 -0.00000000000E+00 -0.64060119203E+03  0.64060119203E+03  0.00000000000E+00 0. -1.
         21    1    1    2  503  504  0.88914216420E+02  0.13180314237E+02 -0.41522706648E+02  0.99013098792E+02  0.00000000000E+00 0.  1.
         21    1    1    2  504  505  0.36384205902E+01 -0.77429037242E+02  0.57911859663E+03  0.58428318722E+03  0.00000000000E+00 0. -1.
         21    1    1    2  505  502 -0.19279209087E+02 -0.26340790958E+02  0.96727886900E+02  0.10208726304E+03  0.00000000000E+00 0. -1.
          2    1    1    2  501    0 -0.73273427924E+02  0.90589513964E+02 -0.55906522532E+03  0.57107738657E+03  0.00000000000E+00 0. -1.
<scales pt_clust_3="88.82303" pt_clust_4="14000.00000" pt_clust_5="32.64238" pt_clust_6="103.00291"></scales>
<clustering>
<clus scale="   32.642">  1  5  2 -1</clus>
<clus scale="   88.823">  2  3  1 -1</clus>
<clus scale="  103.003">  2  6  1 -1</clus>
<clus scale="   32.642">  1  3  2 -1</clus>
</clustering>
</event>
<event>
 6    0  0.1230761E+002  0.1413494E+03  0.7546771E-02  0.1211525E+00
          2   -1    0    0  503    0 -0.00000000000E+00  0.00000000000E+00  0.58787782528E+03  0.58787782528E+03  0.00000000000E+00 0. -1.
         21   -1    0    0  501  502  0.00000000000E+00 -0.00000000000E+00 -0.18550898466E+03  0.18550898466E+03  0.00000000000E+00 0.  1.
         21    1    1    2  503  505  0.51596995117E+02  0.72933037460E+01  0.19348519638E+03  0.20037954836E+03  0.00000000000E+00 0. -1.
         21    1    1    2  504  502 -0.12049568206E+03 -0.20831517746E+02 -0.70015706474E+01  0.12248340099E+03  0.00000000000E+00 0. -1.
         21    1    1    2  505  504  0.16443063700E+03 -0.22094354879E+02 -0.43754931719E+02  0.17158114393E+03  0.00000000000E+00 0.  1.
          2    1    1    2  501    0 -0.95531950061E+02  0.35632568879E+02  0.25964014660E+03  0.27894271666E+03  0.00000000000E+00 0. -1.
<scales pt_clust_3="52.10990" pt_clust_4="14000.00000" pt_clust_5="141.34937" pt_clust_6="72.46959"></scales>
<clustering>
<clus scale="   52.110">  1  3  2 -1</clus>
<clus scale="   72.470">  1  6  2 -1</clus>
<clus scale="  141.349">  1  5  2 -1</clus>
<clus scale="  141.349">  2  3  1 -1</clus>
</clustering>
</event>
<event>
 6    0  0.1230761E+002  0.1235969E+03  0.7546771E-02  0.1237278E+00
          2   -1    0    0  505    0 -0.00000000000E+00  0.00000000000E+00  0.20796704463E+04  0.20796704463E+04  0.00000000000E+00 0.  1.
         21   -1    0    0  503  502  0.00000000000E+00 -0.00000000000E+00 -0.75955296014E+02  0.75955296014E+02  0.00000000000E+00 0. -1.
         21    1    1    2  503  501 -0.81400457008E+02  0.30084681847E+02 -0.35451856020E+02  0.93744101565E+02  0.00000000000E+00 0. -1.
         21    1    1    2  504  502 -0.43673072186E+02 -0.11853744947E+01  0.49052909077E+02  0.65688128576E+02  0.00000000000E+00 0. -1.
         21    1    1    2  505  504  0.44722359284E+02 -0.48753590992E+01  0.24702480135E+03  0.25108785520E+03  0.00000000000E+00 0. -1.
          2    1    1    2  501    0  0.80351169911E+02 -0.24023948253E+02  0.17430892959E+04  0.17451056570E+04  0.00000000000E+00 0.  1.
<scales pt_clust_3="123.59693" pt_clust_4="43.68916" pt_clust_5="43.68752" pt_clust_6="14000.00000"></scales>
<clustering>
<clus scale="   43.689">  2  4  1 -1</clus>
<clus scale="   43.688">  1  5  2 -1</clus>
<clus scale="  123.597">  2  3  1 -1</clus>
<clus scale="   43.689">  2  3  1 -1</clus>
</clustering>
</event>
<event>
 6    0  0.2040945E+002  0.1274279E+03  0.7546771E-02  0.1231323E+00
         21   -1    0    0  504  502  0.00000000000E+00  0.00000000000E+00  0.39760948035E+03  0.39760948035E+03  0.00000000000E+00 0. -1.
          2   -1    0    0  503    0 -0.00000000000E+00 -0.00000000000E+00 -0.15286472645E+04  0.15286472645E+04  0.00000000000E+00 0.  1.
         21    1    1    2  503  505 -0.63544807989E+02  0.25913863162E+02 -0.40486732430E+02  0.79678393742E+02  0.00000000000E+00 0. -1.
         21    1    1    2  504  501 -0.26264585900E+02  0.27031878126E+02  0.31810530021E+03  0.32033034968E+03  0.00000000000E+00 0. -1.
         21    1    1    2  505  502 -0.45345766276E+02 -0.28288169212E+02  0.42696883271E+02  0.68406745848E+02  0.00000000000E+00 0.  1.
          2    1    1    2  501    0  0.13515516017E+03 -0.24657572076E+02 -0.14513532352E+04  0.14578412555E+04  0.00000000000E+00 0.  1.
<scales pt_clust_3="14000.00000" pt_clust_4="37.69020" pt_clust_5="64.60669" pt_clust_6="127.42786"></scales>
<clustering>
<clus scale="   37.690">  1  4  2 -1</clus>
<clus scale="   64.607">  1  5  2 -1</clus>
<clus scale="  127.428">  2  6  1 -1</clus>
<clus scale="   37.690">  1  3  2 -1</clus>
</clustering>
</event>
<event>
 6    0  0.1230761E+002  0.2744634E+03  0.7546771E-02  0.1098752E+00
          3   -1    0    0  503    0 -0.00000000000E+00  0.00000000000E+00  0.16534224198E+04  0.16534224198E+04  0.00000000000E+00 0. -1.
         21   -1    0    0  501  502  0.00000000000E+00 -0.00000000000E+00 -0.51788941463E+03  0.51788941463E+03  0.00000000000E+00 0. -1.
         21    1    1    2  503  505 -0.15007110125E+03  0.89720855996E+02  0.14884176035E+04  0.14986521043E+04  0.00000000000E+00 0. -1.
         21    1    1    2  504  502  0.67021926914E+02  0.14902986641E+03 -0.10073876602E+03  0.19196389960E+03  0.00000000000E+00 0. -1.
         21    1    1    2  505  504  0.92457074774E+01  0.78248162876E+02 -0.21158877403E+02  0.81584043741E+02  0.00000000000E+00 0. -1.
          3    1    1    2  501    0  0.73803466859E+02 -0.31699888528E+03 -0.23098695490E+03  0.39911178675E+03  0.00000000000E+00 0. -1.
<scales pt_clust_3="174.84613" pt_clust_4="34.70165" pt_clust_5="34.70165" pt_clust_6="269.87544"></scales>
<clustering>
<clus scale="   34.702">  4  5 -1 -1</clus>
<clus scale="  174.846">  1  3  2 -1</clus>
<clus scale="  269.875">  1  6  2 -1</clus>
<clus scale="  274.463">  2  3  1 -1</clus>
</clustering>
</event>
<event>
 6    0  0.1230761E+002  0.2436479E+03  0.7546771E-02  0.1117386E+00
         21   -1    0    0  505  502  0.00000000000E+00  0.00000000000E+00  0.29987895539E+03  0.29987895539E+03  0.00000000000E+00 0.  1.
         -2   -1    0    0    0  501 -0.00000000000E+00 -0.00000000000E+00 -0.61761669312E+03  0.61761669312E+03  0.00000000000E+00 0.  1.
         21    1    1    2  503  502 -0.60100669264E+02  0.17813632234E+03  0.17654893792E+03  0.25790340685E+03  0.00000000000E+00 0.  1.
         21    1    1    2  504  503 -0.37742102496E+02  0.32763725572E+02  0.24216330818E+02  0.55537002912E+02  0.00000000000E+00 0.  1.
         21    1    1    2  505  501 -0.25833723925E+02  0.22979986823E+02 -0.20656027605E+02  0.40275706855E+02  0.00000000000E+00 0. -1.
         -2    1    1    2    0  504  0.12367649568E+03 -0.23388003474E+03 -0.49784697886E+03  0.56377953190E+03  0.00000000000E+00 0.  1.
<scales pt_clust_3="32.14211" pt_clust_4="32.14211" pt_clust_5="34.57544" pt_clust_6="235.53800"></scales>
<clustering>
<clus scale="   32.142">  3  4 -1 -1</clus>
<clus scale="   34.575">  2  5  1 -1</clus>
<clus scale="  235.538">  2  6  1 -1</clus>
<clus scale="  243.648">  1  3  2 -1</clus>
</clustering>
</event>
<event>
 6    0  0.1230761E+002  0.1160329E+03  0.7546771E-02  0.1249789E+00
          2   -1    0    0  505    0 -0.00000000000E+00  0.00000000000E+00  0.10394464352E+04  0.10394464352E+04  0.00000000000E+00 0.  1.
         21   -1    0    0  504  502  0.00000000000E+00 -0.00000000000E+00 -0.59140089780E+02  0.59140089780E+02  0.00000000000E+00 0.  1.
         21    1    1    2  503  502  0.16140141019E+02 -0.35954461135E+02  0.12837237790E+02  0.41449030166E+02  0.00000000000E+00 0.  1.
         21    1    1    2  504  501  0.86374919917E+02  0.91509206949E+02  0.66157801082E+02  0.14216686109E+03  0.00000000000E+00 0.  1.
         21    1    1    2  505  503  0.12606488309E+02 -0.35829123392E+02  0.30245114740E+03  0.30482674784E+03  0.00000000000E+00 0.  1.
          2    1    1    2  501    0 -0.11512154924E+03 -0.19725622422E+02  0.59886015910E+03  0.61014388585E+03  0.00000000000E+00 0.  1.
<scales pt_clust_3="40.80740" pt_clust_4="14000.00000" pt_clust_5="37.98223" pt_clust_6="116.03286"></scales>
<clustering>
<clus scale="   37.982">  1  5  2 -1</clus>
<clus scale="   40.807">  2  3  1 -1</clus>
<clus scale="  116.033">  1  6  2 -1</clus>
<clus scale="   40.807">  2  3  1 -1</clus>
</clustering>
</event>
<event>
 6    0  0.1230761E+002  0.1465737E+03  0.7546771E-02  0.1204748E+00
         21   -1    0    0  505  502  0.00000000000E+00  0.00000000000E+00  0.18959580060E+03  0.18959580060E+03  0.00000000000E+00 0.  1.
          2   -1    0    0  504    0 -0.00000000000E+00 -0.00000000000E+00 -0.67427907221E+03  0.67427907221E+03  0.00000000000E+00 0.  1.
         21    1    1    2  503  502  0.21759559594E+02  0.21385454995E+02  0.29228308816E+01  0.30648965063E+02  0.00000000000E+00 0.  1.
         21    1    1    2  504  503 -0.16571316810E+03  0.11186364725E+03 -0.13460624983E+03  0.24102525210E+03  0.00000000000E+00 0.  1.
         21    1    1    2  505  501  0.41702414218E+02 -0.42459635168E+02  0.10145342180E+03  0.11762103879E+03  0.00000000000E+00 0.  1.
          2    1    1    2  501    0  0.10225119429E+03 -0.90789467078E+02 -0.45445327446E+03  0.47457961685E+03  0.00000000000E+00 0.  1.
<scales pt_clust_3="30.50928" pt_clust_4="146.57369" pt_clust_5="62.57110" pt_clust_6="14000.00000"></scales>
<clustering>
<clus scale="   30.509">  1  3  2 -1</clus>
<clus scale="   62.571">  1  5  2 -1</clus>
<clus scale="  146.574">  1  4  2 -1</clus>
<clus scale="   30.509">  1  3  2 -1</clus>
</clustering>
</event>
<event>
 6    0  0.1230761E+002  0.1200405E+03  0.7546771E-02  0.1243030E+00
          2   -1    0    0  503    0 -0.00000000000E+00  0.00000000000E+00  0.43822211214E+03  0.43822211214E+03  0.00000000000E+00 0.  1.
         21   -1    0    0  501  502  0.00000000000E+00 -0.00000000000E+00 -0.91694705383E+02  0.91694705383E+02  0.00000000000E+00 0.  1.
         21    1    1    2  503  504  0.28604162580E+02 -0.15875983231E+02  0.42674441680E+02  0.53771302134E+02  0.00000000000E+00 0.  1.
         21    1    1    2  504  505  0.34807381879E+02  0.20177372556E+02  0.94285340304E+01  0.41322844173E+02  0.00000000000E+00 0.  1.
         21    1    1    2  505  502  0.69229401348E+02  0.14211340215E+02 -0.35255284965E+02  0.78978524421E+02  0.00000000000E+00 0.  1.
          2    1    1    2  501    0 -0.13264094581E+03 -0.18512729540E+02  0.32967971601E+03  0.35584414680E+03  0.00000000000E+00 0.  1.
<scales pt_clust_3="32.71460" pt_clust_4="32.00359" pt_clust_5="32.00359" pt_clust_6="112.29680"></scales>
<clustering>
<clus scale="   32.004">  4  5 -1 -1</clus>
<clus scale="   32.715">  1  3  2 -1</clus>
<clus scale="  112.297">  1  6  2 -1</clus>
<clus scale="  120.041">  2  3  1 -1</clus>
</clustering>
</event>
<event>
 6    0  0.1230761E+002  0.1076693E+03  0.7546771E-02  0.1264948E+00
         21   -1    0    0  503  502  0.00000000000E+00  0.00000000000E+00  0.21051119686E+03  0.21051119686E+03  0.00000000000E+00 0. -1.
          2   -1    0    0  504    0 -0.00000000000E+00 -0.00000000000E+00 -0.17616210862E+04  0.17616210862E+04  0.00000000000E+00 0.  1.
         21    1    1    2  503  505  0.65223563649E+01  0.49548015006E+02  0.15626795454E+03  0.16406468401E+03  0.00000000000E+00 0. -1.
         21    1    1    2  504  502 -0.35320150245E+02  0.51278979511E+01 -0.77618142040E+02  0.85430581904E+02  0.00000000000E+00 0. -1.
         21    1    1    2  505  501  0.73451159751E+02  0.29845937558E+02  0.10161684211E+02  0.79931925308E+02  0.00000000000E+00 0. -1.
          2    1    1    2  501    0 -0.44653365870E+02 -0.84521850515E+02 -0.16399213860E+04  0.16427050918E+04  0.00000000000E+00 0.  1.
<scales pt_clust_3="49.97663" pt_clust_4="35.69045" pt_clust_5="14000.00000" pt_clust_6="107.66934"></scales>
<clustering>
<clus scale="   35.690">  2  4  1 -1</clus>
<clus scale="   49.977">  1  3  2 -1</clus>
<clus scale="  107.669">  2  6  1 -1</clus>
<clus scale="   49.977">  1  3  2 -1</clus>
</clustering>
</event>
<event>
 6    0  0.1230761E+002  0.9225155E+02  0.7546771E-02  0.1297489E+00
         -3   -1    0    0    0  501 -0.00000000000E+00  0.00000000000E+00  0.23660184566E+04  0.23660184566E+04  0.00000000000E+00 0.  1.
         21   -1    0    0  503  502  0.00000000000E+00 -0.00000000000E+00 -0.35749931323E+02  0.35749931323E+02  0.00000000000E+00 0.  1.
         21    1    1    2  503  505 -0.21635298605E+02  0.21539408489E+02  0.33168536185E+02  0.45079752178E+02  0.00000000000E+00 0.  1.
         21    1    1    2  504  502  0.21115387203E+02  0.71487063472E+02  0.24328586720E+02  0.78410075579E+02  0.00000000000E+00 0.  1.
         21    1    1    2  505  501  0.30216961882E+02  0.19178576505E+02  0.30611441254E+03  0.30819947461E+03  0.00000000000E+00 0.  1.
         -3    1    1    2    0  504 -0.29697050480E+02 -0.11220504847E+03  0.19666569898E+04  0.19700790856E+04  0.00000000000E+00 0.  1.
<scales pt_clust_3="30.52920" pt_clust_4="92.25155" pt_clust_5="35.56940" pt_clust_6="14000.00000"></scales>
<clustering>
<clus scale="   30.529">  2  3  1 -1</clus>
<clus scale="   35.569">  1  5  2 -1</clus>
<clus scale="   92.252">  2  4  1 -1</clus>
<clus scale="   30.529">  2  3  1 -1</clus>
</clustering>
</event>
<event>
 6    0  0.1230761E+002  0.2357195E+03  0.7546771E-02  0.1122678E+00
         21   -1    0    0  503  502  0.00000000000E+00  0.00000000000E+00  0.70677715547E+02  0.70677715547E+02  0.00000000000E+00 0.  1.
          1   -1    0    0  505    0 -0.00000000000E+00 -0.00000000000E+00 -0.14263913200E+04  0.14263913200E+04  0.00000000000E+00 0.  1.
         21    1    1    2  503  504 -0.20091163766E+02 -0.16832035233E+03 -0.14450147752E+03  0.22274665626E+03  0.00000000000E+00 0.  1.
         21    1    1    2  504  501 -0.36646046720E+02 -0.45937832427E+02 -0.78909481163E+02  0.98386601759E+02  0.00000000000E+00 0.  1.
         21    1    1    2  505  502 -0.66675249638E+02 -0.38140997058E+01 -0.23685383755E+03  0.24608916399E+03  0.00000000000E+00 0.  1.
          1    1    1    2  501    0  0.12341246012E+03  0.21807228446E+03 -0.89544880826E+03  0.92984661358E+03  0.00000000000E+00 0.  1.
<scales pt_clust_3="37.64697" pt_clust_4="37.64697" pt_clust_5="66.78425" pt_clust_6="226.88155"></scales>
<clustering>
<clus scale="   37.647">  3  4 -1 -1</clus>
<clus scale="   66.784">  2  5  1 -1</clus>
<clus scale="  226.882">  2  6  1 -1</clus>
<clus scale="  235.719">  1  3  2 -1</clus>
</clustering>
</event>
<event>
 6    0  0.1230761E+002  0.1616536E+03  0.7546771E-02  0.1186842E+00
          2   -1    0    0  504    0 -0.00000000000E+00  0.00000000000E+00  0.20590071696E+04  0.20590071696E+04  0.00000000000E+00 0.  1.
         21   -1    0    0  505  502  0.00000000000E+00 -0.00000000000E+00 -0.43262422269E+03  0.43262422269E+03  0.00000000000E+00 0.  1.
         21    1    1    2  503  502  0.34167174446E+02 -0.14877084299E+02 -0.33806466428E+02  0.50315013855E+02  0.00000000000E+00 0. -1.
         21    1    1    2  504  503  0.26016719436E+02  0.23829755845E+02  0.19799955576E+03  0.20111825137E+03  0.00000000000E+00 0.  1.
         21    1    1    2  505  501  0.11321249671E+03 -0.52429335575E+02 -0.37454821672E+03  0.39478129551E+03  0.00000000000E+00 0.  1.
          2    1    1    2  501    0 -0.17339639059E+03  0.43476664029E+02  0.18367380743E+04  0.18454168316E+04  0.00000000000E+00 0.  1.
<scales pt_clust_3="37.32951" pt_clust_4="35.28069" pt_clust_5="14000.00000" pt_clust_6="161.65359"></scales>
<clustering>
<clus scale="   35.281">  1  4  2 -1</clus>
<clus scale="   37.330">  2  3  1 -1</clus>
<clus scale="  161.654">  1  6  2 -1</clus>
<clus scale="   37.330">  2  3  1 -1</clus>
</clustering>
</event>
<event>
 6    0  0.1230761E+002  0.1421663E+03  0.7546771E-02  0.1210443E+00
         21   -1    0    0  505  502  0.00000000000E+00  0.00000000000E+00  0.90515067962E+02  0.90515067962E+02  0.00000000000E+00 0.  1.
          1   -1    0    0  503    0 -0.00000000000E+00 -0.00000000000E+00 -0.20305907084E+04  0.20305907084E+04  0.00000000000E+00 0.  1.
         21    1    1    2  503  502 -0.91355305925E+02  0.16792247815E+02 -0.93261944938E+03  0.93723359355E+03  0.00000000000E+00 0.  1.
         21    1    1    2  504  501 -0.81618351628E+02  0.12182432106E+02 -0.10417686923E+02  0.83177491999E+02  0.00000000000E+00 0.  1.
         21    1    1    2  505  504 -0.43025923629E+02  0.23065096799E+02  0.24956639237E+02  0.54827571864E+02  0.00000000000E+00 0.  1.
          1    1    1    2  501    0  0.21599958118E+03 -0.52039776719E+02 -0.10219951433E+04  0.10458671189E+04  0.00000000000E+00 0.  1.
<scales pt_clust_3="92.88580" pt_clust_4="34.87039" pt_clust_5="34.87039" pt_clust_6="134.74352"></scales>
<clustering>
<clus scale="   34.870">  4  5 -1 -1</clus>
<clus scale="   92.886">  2  3  1 -1</clus>
<clus scale="  134.744">  2  6  1 -1</clus>
<clus scale="  142.166">  1  3  2 -1</clus>
</clustering>
</event>
<event>
 6    0  0.1230761E+002  0.1160990E+03  0.7546771E-02  0.1249675E+00
         21   -1    0    0  505  502  0.00000000000E+00  0.00000000000E+00  0.23133764615E+03  0.23133764615E+03  0.00000000000E+00 0.  1.
          2   -1    0    0  504    0 -0.00000000000E+00 -0.00000000000E+00 -0.72347264541E+03  0.72347264541E+03  0.00000000000E+00 0.  1.
         21    1    1    2  503  501 -0.42948308999E+02 -0.13323424114E+02  0.48214099924E+02  0.65929282625E+02  0.00000000000E+00 0.  1.
         21    1    1    2  504  502 -0.87478148697E+02 -0.56484248444E+02 -0.86011293824E+02  0.13505865203E+03  0.00000000000E+00 0.  1.
         21    1    1    2  505  503 -0.57259152726E+02  0.33423847389E+02  0.12623244350E+03  0.14258469040E+03  0.00000000000E+00 0.  1.
          2    1    1    2  501    0  0.18768561042E+03  0.36383825170E+02 -0.58057024886E+03  0.61123766651E+03  0.00000000000E+00 0.  1.
<scales pt_clust_3="42.00044" pt_clust_4="104.12923" pt_clust_5="42.00044" pt_clust_6="104.29789"></scales>
<clustering>
<clus scale="   42.000">  3  5 -1 -1</clus>
<clus scale="  104.129">  2  4  1 -1</clus>
<clus scale="  104.298">  2  6  1 -1</clus>
<clus scale="  116.099">  1  3  2 -1</clus>
</clustering>
</event>
<event>
 6    0  0.1230761E+002  0.1073843E+03  0.7546771E-02  0.1265492E+00
          1   -1    0    0  503    0 -0.00000000000E+00  0.00000000000E+00  0.16894225666E+03  0.16894225666E+03  0.00000000000E+00 0.  1.
         21   -1    0    0  505  502  0.00000000000E+00 -0.00000000000E+00 -0.59126381487E+03  0.59126381487E+03  0.00000000000E+00 0.  1.
         21    1    1    2  503  504  0.28126248000E+02 -0.22999115406E+02 -0.61871035627E+01  0.36855466169E+02  0.00000000000E+00 0.  1.
         21    1    1    2  504  502 -0.68408656702E+00 -0.30840456081E+02 -0.26556590655E+02  0.40704474114E+02  0.00000000000E+00 0.  1.
         21    1    1    2  505  501 -0.45083898770E+02 -0.68054952456E+02 -0.50637197981E+03  0.51290994962E+03  0.00000000000E+00 0.  1.
          1    1    1    2  501    0  0.17641737337E+02  0.12189452394E+03  0.11679411581E+03  0.16973618162E+03  0.00000000000E+00 0.  1.
<scales pt_clust_3="37.07731" pt_clust_4="30.84804" pt_clust_5="14000.00000" pt_clust_6="107.38428"></scales>
<clustering>
<clus scale="   30.848">  2  4  1 -1</clus>
<clus scale="   37.077">  1  3  2 -1</clus>
<clus scale="  107.384">  1  6  2 -1</clus>
<clus scale="   30.848">  2  3  1 -1</clus>
</clustering>
</event>
<event>
 6    0  0.1230761E+002  0.1168708E+03  0.7546771E-02  0.1248350E+00
          2   -1    0    0  503    0 -0.00000000000E+00  0.00000000000E+00  0.10548269941E+04  0.10548269941E+04  0.00000000000E+00 0. -1.
         21   -1    0    0  504  502  0.00000000000E+00 -0.00000000000E+00 -0.24769682441E+03  0.24769682441E+03  0.00000000000E+00 0. -1.
         21    1    1    2  503  502 -0.34273818171E+02  0.54317542517E+02 -0.20857277890E+03  0.21823770099E+03  0.00000000000E+00 0. -1.
         21    1    1    2  504  505 -0.53404113443E+01 -0.34808385008E+02 -0.47797798875E+01  0.35538569977E+02  0.00000000000E+00 0.  1.
         21    1    1    2  505  501 -0.92823725713E+02 -0.23445804402E+02  0.26567222078E+03  0.28239631494E+03  0.00000000000E+00 0. -1.
          2    1    1    2  501    0  0.13243795523E+03  0.39366468932E+01  0.75481050770E+03  0.76635123260E+03  0.00000000000E+00 0. -1.
<scales pt_clust_3="44.86374" pt_clust_4="35.21567" pt_clust_5="14000.00000" pt_clust_6="116.87085"></scales>
<clustering>
<clus scale="   35.216">  2  4  1 -1</clus>
<clus scale="   44.864">  2  3  1 -1</clus>
<clus scale="  116.871">  1  6  2 -1</clus>
<clus scale="   35.216">  2  3  1 -1</clus>
</clustering>
</event>
<event>
 6    0  0.1230761E+002  0.7863365E+02  0.7546771E-02  0.1332974E+00
         21   -1    0    0  501  502  0.00000000000E+00  0.00000000000E+00  0.65077990044E+02  0.65077990044E+02  0.00000000000E+00 0.  1.
          2   -1    0    0  503    0 -0.00000000000E+00 -0.00000000000E+00 -0.15120443121E+04  0.15120443121E+04  0.00000000000E+00 0.  1.
         21    1    1    2  503  505  0.33897200252E+02  0.46080833937E+02 -0.68308601341E+03  0.68547718063E+03  0.00000000000E+00 0.  1.
         21    1    1    2  504  502  0.15119871922E+02 -0.54960082291E+02  0.20937714619E+02  0.60725687035E+02  0.00000000000E+00 0.  1.
         21    1    1    2  505  504  0.61069452584E+02  0.24507074580E+02 -0.38241587759E+02  0.76108434340E+02  0.00000000000E+00 0.  1.
          2    1    1    2  501    0 -0.11008652476E+03 -0.15627826226E+02 -0.74657643555E+03  0.75481100018E+03  0.00000000000E+00 0.  1.
<scales pt_clust_3="55.50805" pt_clust_4="57.00194" pt_clust_5="78.63365" pt_clust_6="14000.00000"></scales>
<clustering>
<clus scale="   57.002">  1  4  2 -1</clus>
<clus scale="   55.508">  2  3  1 -1</clus>
<clus scale="   78.634">  1  5  2 -1</clus>
<clus scale="   57.002">  1  3  2 -1</clus>
</clustering>
</event>
<event>
 6    0  0.1230761E+002  0.2968285E+03  0.7546771E-02  0.1086837E+00
          1   -1    0    0  503    0 -0.00000000000E+00  0.00000000000E+00  0.23787148417E+03  0.23787148417E+03  0.00000000000E+00 0.  1.
         21   -1    0    0  501  502  0.00000000000E+00 -0.00000000000E+00 -0.15953004300E+04  0.15953004300E+04  0.00000000000E+00 0. -1.
         21    1    1    2  503  504  0.62919174883E+00 -0.34453712119E+02  0.45081614555E+02  0.56743335573E+02  0.00000000000E+00 0.  1.
         21    1    1    2  504  505 -0.48915977076E+02 -0.11922653285E+02 -0.53703607606E+02  0.73613857015E+02  0.00000000000E+00 0. -1.
         21    1    1    2  505  502  0.18206296641E+03 -0.23357349386E+03 -0.13604650849E+04  0.13923249434E+04  0.00000000000E+00 0. -1.
          1    1    1    2  501    0 -0.13377618108E+03  0.27994985926E+03  0.11658132101E+02  0.31048977820E+03  0.00000000000E+00 0.  1.
<scales pt_clust_3="34.45946" pt_clust_4="50.78147" pt_clust_5="14000.00000" pt_clust_6="296.82855"></scales>
<clustering>
<clus scale="   34.459">  1  3  2 -1</clus>
<clus scale="   50.781">  1  4  2 -1</clus>
<clus scale="  296.829">  1  6  2 -1</clus>
<clus scale="  296.829">  2  3  1 -1</clus>
</clustering>
</event>
<event>
 6    0  0.1230761E+002  0.8873308E+02  0.7546771E-02  0.1305949E+00
         21   -1    0    0  504  502  0.00000000000E+00  0.00000000000E+00  0.13261312686E+04  0.13261312686E+04  0.00000000000E+00 0.  1.
         -1   -1    0    0    0  501 -0.00000000000E+00 -0.00000000000E+00 -0.18274438029E+03  0.18274438029E+03  0.00000000000E+00 0.  1.
         21    1    1    2  503  505 -0.33081527201E+01 -0.38071630584E+02 -0.86152767505E+01  0.39174174187E+02  0.00000000000E+00 0. -1.
         21    1    1    2  504  501  0.53368822270E+02  0.11778915430E+03  0.66120776952E+03  0.67373454010E+03  0.00000000000E+00 0.  1.
         21    1    1    2  505  502 -0.13632169410E+02 -0.74016234939E+02  0.63891172680E+03  0.64332917991E+03  0.00000000000E+00 0.  1.
         -1    1    1    2    0  503 -0.36428500140E+02 -0.57012887733E+01 -0.14811733129E+03  0.15263775465E+03  0.00000000000E+00 0.  1.
<scales pt_clust_3="51.95933" pt_clust_4="88.73308" pt_clust_5="14000.00000" pt_clust_6="36.87194"></scales>
<clustering>
<clus scale="   36.872">  2  6  1 -1</clus>
<clus scale="   51.959">  2  3  1 -1</clus>
<clus scale="   88.733">  2  4  1 -1</clus>
<clus scale="   88.733">  1  3  2 -1</clus>
</clustering>
</event>
<event>
 6    0  0.1230761E+002  0.1301924E+03  0.7546771E-02  0.1227171E+00
          2   -1    0    0  503    0 -0.00000000000E+00  0.00000000000E+00  0.79737318055E+03  0.79737318055E+03  0.00000000000E+00 0.  1.
         21   -1    0    0  505  502  0.00000000000E+00 -0.00000000000E+00 -0.94570938349E+02  0.94570938349E+02  0.00000000000E+00 0. -1.
         21    1    1    2  503  502  0.21010791465E+02 -0.65588162380E+02  0.10003766857E+03  0.12145285314E+03  0.00000000000E+00 0. -1.
         21    1    1    2  504  501  0.38454452020E+02 -0.74240860273E+02 -0.21465627822E+02  0.86320469137E+02  0.00000000000E+00 0. -1.
         21    1    1    2  505  504  0.31634331514E+02  0.37523777658E+02  0.42790540987E+01  0.49265354196E+02  0.00000000000E+00 0. -1.
          2    1    1    2  501    0 -0.91099575000E+02  0.10230524499E+03  0.61995114736E+03  0.63490544243E+03  0.00000000000E+00 0.  1.
<scales pt_clust_3="65.28914" pt_clust_4="130.19241" pt_clust_5="49.07917" pt_clust_6="14000.00000"></scales>
<clustering>
<clus scale="   49.079">  2  5  1 -1</clus>
<clus scale="   65.289">  2  3  1 -1</clus>
<clus scale="  130.192">  2  4  1 -1</clus>
<clus scale="   49.079">  2  3  1 -1</clus>
</clustering>
</event>
<event>
 6    0  0.1230761E+002  0.1170933E+03  0.7546771E-02  0.1247971E+00
         21   -1    0    0  505  502  0.00000000000E+00  0.00000000000E+00  0.20029189757E+03  0.20029189757E+03  0.00000000000E+00 0.  1.
          2   -1    0    0  504    0 -0.00000000000E+00 -0.00000000000E+00 -0.99664659048E+03  0.99664659048E+03  0.00000000000E+00 0.  1.
         21    1    1    2  503  502 -0.70876866988E+02 -0.46609325902E+02  0.13442034556E+03  0.15894901332E+03  0.00000000000E+00 0.  1.
         21    1    1    2  504  503 -0.44662809535E+01  0.35255671674E+02 -0.69868138700E+03  0.69958458431E+03  0.00000000000E+00 0.  1.
         21    1    1    2  505  501 -0.79156682677E+02  0.32281262418E+02 -0.51414055637E+02  0.99756029556E+02  0.00000000000E+00 0.  1.
          2    1    1    2  501    0  0.15449983062E+03 -0.20927608191E+02 -0.18067959583E+03  0.23864886087E+03  0.00000000000E+00 0.  1.
<scales pt_clust_3="84.19457" pt_clust_4="35.53745" pt_clust_5="117.09328" pt_clust_6="14000.00000"></scales>
<clustering>
<clus scale="   35.537">  2  4  1 -1</clus>
<clus scale="   84.195">  1  3  2 -1</clus>
<clus scale="  117.093">  1  5  2 -1</clus>
<clus scale="   84.195">  1  3  2 -1</clus>
</clustering>
</event>
<event>
 6    0  0.1230761E+002  0.1301352E+03  0.7546771E-02  0.1227255E+00
         21   -1    0    0  505  502  0.00000000000E+00  0.00000000000E+00  0.10597752771E+03  0.10597752771E+03  0.00000000000E+00 0. -1.
          2   -1    0    0  504    0 -0.00000000000E+00 -0.00000000000E+00 -0.82289270814E+03  0.82289270814E+03  0.00000000000E+00 0. -1.
         21    1    1    2  503  501  0.61684712236E+01  0.73569673057E+02  0.15514371752E+02  0.75440324508E+02  0.00000000000E+00 0. -1.
         21    1    1    2  504  502 -0.31631382433E+02 -0.38288086665E+01 -0.29944527682E+03  0.30113564708E+03  0.00000000000E+00 0. -1.
         21    1    1    2  505  503  0.44179256904E+02  0.30584541975E+02  0.40910771406E+02  0.67534525729E+02  0.00000000000E+00 0. -1.
          2    1    1    2  501    0 -0.18716345695E+02 -0.10032540637E+03 -0.47389504676E+03  0.48475973853E+03  0.00000000000E+00 0. -1.
<scales pt_clust_3="52.87601" pt_clust_4="31.86227" pt_clust_5="52.87601" pt_clust_6="114.28106"></scales>
<clustering>
<clus scale="   31.862">  2  4  1 -1</clus>
<clus scale="   52.876">  3  5 -1 -1</clus>
<clus scale="  114.281">  2  6  1 -1</clus>
<clus scale="  130.135">  1  3  2 -1</clus>
</clustering>
</event>
<event>
 6    0  0.1230761E+002  0.5875944E+02  0.7546771E-02  0.1403113E+00
          1   -1    0    0  505    0 -0.00000000000E+00  0.00000000000E+00  0.24188260575E+04  0.24188260575E+04  0.00000000000E+00 0.  1.
         21   -1    0    0  504  502  0.00000000000E+00 -0.00000000000E+00 -0.45211673760E+03  0.45211673760E+03  0.00000000000E+00 0. -1.
         21    1    1    2  503  501 -0.48657449673E+02 -0.86129973093E+02 -0.38041451913E+03  0.39306631252E+03  0.00000000000E+00 0. -1.
         21    1    1    2  504  503  0.10112597287E+02  0.42053561961E+02 -0.56835003256E+02  0.71421175380E+02  0.00000000000E+00 0.  1.
         21    1    1    2  505  502  0.14448636236E+02 -0.28499938529E+02  0.87844066789E+03  0.87902162464E+03  0.00000000000E+00 0.  1.
          1    1    1    2  501    0  0.24096216150E+02  0.72576349661E+02  0.15255181745E+04  0.15274336826E+04  0.00000000000E+00 0.  1.
<scales pt_clust_3="58.75944" pt_clust_4="43.13725" pt_clust_5="31.95324" pt_clust_6="14000.00000"></scales>
<clustering>
<clus scale="   31.953">  1  5  2 -1</clus>
<clus scale="   43.137">  2  4  1 -1</clus>
<clus scale="   58.759">  2  3  1 -1</clus>
<clus scale="   43.137">  2  3  1 -1</clus>
</clustering>
</event>
<event>
 6    0  0.1230761E+002  0.1042913E+03  0.7546771E-02  0.1271522E+00
          1   -1    0    0  504    0 -0.00000000000E+00  0.00000000000E+00  0.65415432467E+03  0.65415432467E+03  0.00000000000E+00 0.  1.
         21   -1    0    0  503  502  0.00000000000E+00 -0.00000000000E+00 -0.36621440057E+03  0.36621440057E+03  0.00000000000E+00 0. -1.
         21    1    1    2  503  501 -0.78570294261E+02 -0.46422265668E+02 -0.11428263415E+03  0.14624923370E+03  0.00000000000E+00 0. -1.
         21    1    1    2  504  505 -0.27036901344E+02 -0.21605823159E+02  0.67438181547E+02  0.75800487855E+02  0.00000000000E+00 0. -1.
         21    1    1    2  505  502  0.30048638044E+02 -0.46704366964E+02 -0.21993678324E+03  0.22684004753E+03  0.00000000000E+00 0. -1.
          1    1    1    2  501    0  0.75558557561E+02  0.11473245579E+03  0.55472115995E+03  0.57147895615E+03  0.00000000000E+00 0.  1.
<scales pt_clust_3="104.29134" pt_clust_4="34.60933" pt_clust_5="55.55710" pt_clust_6="14000.00000"></scales>
<clustering>
<clus scale="   34.609">  1  4  2 -1</clus>
<clus scale="   55.557">  2  5  1 -1</clus>
<clus scale="  104.291">  2  3  1 -1</clus>
<clus scale="   55.557">  2  3  1 -1</clus>
</clustering>
</event>
<event>
 6    0  0.1230761E+002  0.8897949E+02  0.7546771E-02  0.1305342E+00
         -4   -1    0    0    0  501 -0.00000000000E+00  0.00000000000E+00  0.63253359932E+02  0.63253359932E+02  0.00000000000E+00 0.  1.
         21   -1    0    0  505  502  0.00000000000E+00 -0.00000000000E+00 -0.12120994410E+04  0.12120994410E+04  0.00000000000E+00 0. -1.
         21    1    1    2  503  502 -0.26157372629E+02  0.41862975095E+02 -0.51033551481E+03  0.51271732417E+03  0.00000000000E+00 0. -1.
         21    1    1    2  504  501  0.12381522986E+02 -0.29231925899E+02 -0.25092112295E+02  0.40465067684E+02  0.00000000000E+00 0. -1.
         21    1    1    2  505  504 -0.41371215160E+02 -0.96872664006E+02 -0.61248716673E+03  0.62147921919E+03  0.00000000000E+00 0. -1.
         -4    1    1    2    0  503  0.55147064803E+02  0.84241614811E+02 -0.93128721727E+00  0.10069118987E+03  0.00000000000E+00 0.  1.
<scales pt_clust_3="48.69131" pt_clust_4="31.74599" pt_clust_5="88.97949" pt_clust_6="14000.00000"></scales>
<clustering>
<clus scale="   31.746">  1  4  2 -1</clus>
<clus scale="   48.691">  2  3  1 -1</clus>
<clus scale="   88.979">  2  5  1 -1</clus>
<clus scale="   48.691">  2  3  1 -1</clus>
</clustering>
</event>
<event>
 6    0  0.1230761E+002  0.1038562E+03  0.7546771E-02  0.1272390E+00
         21   -1    0    0  503  502  0.00000000000E+00  0.00000000000E+00  0.75780465948E+03  0.75780465948E+03  0.00000000000E+00 0. -1.
          1   -1    0    0  505    0 -0.00000000000E+00 -0.00000000000E+00 -0.27375738360E+04  0.27375738360E+04  0.00000000000E+00 0.  1.
         21    1    1    2  503  501  0.47683596843E+02  0.11748202103E+03  0.73544886476E+03  0.74629805262E+03  0.00000000000E+00 0. -1.
         21    1    1    2  504  502 -0.40919600167E+02 -0.14535547493E+02 -0.22432919427E+02  0.48876698873E+02  0.00000000000E+00 0. -1.
         21    1    1    2  505  504 -0.37141662611E+02  0.36606042873E+02 -0.48271591726E+03  0.48552462579E+03  0.00000000000E+00 0.  1.
          1    1    1    2  501    0  0.30377665934E+02 -0.13955251641E+03 -0.22100692046E+04  0.22146791182E+04  0.00000000000E+00 0.  1.
<scales pt_clust_3="103.85616" pt_clust_4="43.42460" pt_clust_5="52.18465" pt_clust_6="14000.00000"></scales>
<clustering>
<clus scale="   43.425">  1  4  2 -1</clus>
<clus scale="   52.185">  2  5  1 -1</clus>
<clus scale="  103.856">  1  3  2 -1</clus>
<clus scale="   43.425">  1  3  2 -1</clus>
</clustering>
</event>
<event>
 6    0  0.1230761E+002  0.1022134E+03  0.7546771E-02  0.1275709E+00
         21   -1    0    0  504  502  0.00000000000E+00  0.00000000000E+00  0.85934958603E+02  0.85934958603E+02  0.00000000000E+00 0. -1.
          1   -1    0    0  505    0 -0.00000000000E+00 -0.00000000000E+00 -0.45892641915E+04  0.45892641915E+04  0.00000000000E+00 0.  1.
         21    1    1    2  503  502  0.36398569710E+02 -0.45682412828E+02 -0.77656798081E+02  0.97171585388E+02  0.00000000000E+00 0.  1.
         21    1    1    2  504  501 -0.72513487558E+02 -0.49952057279E+02  0.47124481468E+02  0.99870569528E+02  0.00000000000E+00 0. -1.
         21    1    1    2  505  503  0.31427165861E+01 -0.37272210085E+02 -0.22007686889E+03  0.22323288856E+03  0.00000000000E+00 0.  1.
          1    1    1    2  501    0  0.32972201263E+02  0.13290668019E+03 -0.42527200474E+04  0.42549241066E+04  0.00000000000E+00 0.  1.
<scales pt_clust_3="59.03417" pt_clust_4="14000.00000" pt_clust_5="37.40447" pt_clust_6="102.21338"></scales>
<clustering>
<clus scale="   37.404">  2  5  1 -1</clus>
<clus scale="   59.034">  1  3  2 -1</clus>
<clus scale="  102.213">  2  6  1 -1</clus>
<clus scale="   59.034">  1  3  2 -1</clus>
</clustering>
</event>
<event>
 6    0  0.1230761E+002  0.6666943E+02  0.7546771E-02  0.1371800E+00
         21   -1    0    0  504  502  0.00000000000E+00  0.00000000000E+00  0.44691490536E+03  0.44691490536E+03  0.00000000000E+00 0.  1.
          2   -1    0    0  505    0 -0.00000000000E+00 -0.00000000000E+00 -0.12063115579E+04  0.12063115579E+04  0.00000000000E+00 0. -1.
         21    1    1    2  503  501  0.76632689473E+02 -0.65270926209E+02  0.14340683942E+03  0.17520954454E+03  0.00000000000E+00 0.  1.
         21    1    1    2  504  503 -0.12264295657E+02  0.51723173853E+02  0.28063733220E+03  0.28562740045E+03  0.00000000000E+00 0.  1.
         21    1    1    2  505  502  0.27327257235E+02  0.33045947512E+02 -0.20315119392E+03  0.20762760227E+03  0.00000000000E+00 0. -1.
          2    1    1    2  501    0 -0.91695651052E+02 -0.19498195156E+02 -0.98028963027E+03  0.98476191602E+03  0.00000000000E+00 0. -1.
<scales pt_clust_3="14000.00000" pt_clust_4="53.22181" pt_clust_5="42.88139" pt_clust_6="66.66943"></scales>
<clustering>
<clus scale="   42.881">  2  5  1 -1</clus>
<clus scale="   53.222">  1  4  2 -1</clus>
<clus scale="   66.669">  2  6  1 -1</clus>
<clus scale="   53.222">  1  3  2 -1</clus>
</clustering>
</event>
<event>
 6    0  0.1230761E+002  0.9495250E+02  0.7546771E-02  0.1291283E+00
          2   -1    0    0  505    0 -0.00000000000E+00  0.00000000000E+00  0.10994297225E+04  0.10994297225E+04  0.00000000000E+00 0.  1.
         21   -1    0    0  504  502  0.00000000000E+00 -0.00000000000E+00 -0.24392419330E+04  0.24392419330E+04  0.00000000000E+00 0.  1.
         21    1    1    2  503  501 -0.47263740807E+00  0.32864080562E+02 -0.66477475318E+03  0.66558676643E+03  0.00000000000E+00 0. -1.
         21    1    1    2  504  503 -0.50402612504E+02  0.33881242655E+02 -0.17534258149E+04  0.17544772584E+04  0.00000000000E+00 0.  1.
         21    1    1    2  505  502  0.56371075261E+02  0.43588962083E+02  0.56968183412E+02  0.91230859159E+02  0.00000000000E+00 0.  1.
          2    1    1    2  501    0 -0.54958253483E+01 -0.11033428530E+03  0.10214201742E+04  0.10273767716E+04  0.00000000000E+00 0.  1.
<scales pt_clust_3="32.67396" pt_clust_4="32.67396" pt_clust_5="71.25795" pt_clust_6="83.92442"></scales>
<clustering>
<clus scale="   32.674">  3  4 -1 -1</clus>
<clus scale="   71.258">  1  5  2 -1</clus>
<clus scale="   83.924">  1  6  2 -1</clus>
<clus scale="   94.952">  2  3  1 -1</clus>
</clustering>
</event>
<event>
 6    0  0.1230761E+002  0.2240865E+03  0.7546771E-02  0.1130873E+00
          2   -1    0    0  503    0 -0.00000000000E+00  0.00000000000E+00  0.34121079113E+04  0.34121079113E+04  0.00000000000E+00 0.  1.
         21   -1    0    0  505  502  0.00000000000E+00 -0.00000000000E+00 -0.97437437161E+02  0.97437437161E+02  0.00000000000E+00 0. -1.
         21    1    1    2  503  504  0.22169362349E+02 -0.27691611112E+02  0.39782157644E+03  0.39939994070E+03  0.00000000000E+00 0. -1.
         21    1    1    2  504  502 -0.59721689698E+02 -0.53258595891E+02  0.60900657178E+02  0.10055868089E+03  0.00000000000E+00 0. -1.
         21    1    1    2  505  501  0.14387318153E+02 -0.16935840226E+03  0.30140713387E+02  0.17262017826E+03  0.00000000000E+00 0. -1.
          2    1    1    2  501    0  0.23165009196E+02  0.25030860926E+03  0.28258075272E+04  0.28369665486E+04  0.00000000000E+00 0.  1.
<scales pt_clust_3="35.47261" pt_clust_4="80.07585" pt_clust_5="224.08651" pt_clust_6="14000.00000"></scales>
<clustering>
<clus scale="   35.473">  1  3  2 -1</clus>
<clus scale="   80.076">  2  4  1 -1</clus>
<clus scale="  224.087">  2  5  1 -1</clus>
<clus scale="   80.076">  2  3  1 -1</clus>
</clustering>
</event>
<event>
 6    0  0.1230761E+002  0.1259250E+03  0.7546771E-02  0.1233631E+00
          3   -1    0    0  503    0 -0.00000000000E+00  0.00000000000E+00  0.93169514885E+03  0.93169514885E+03  0.00000000000E+00 0. -1.
         21   -1    0    0  504  502  0.00000000000E+00 -0.00000000000E+00 -0.40770257787E+03  0.40770257787E+03  0.00000000000E+00 0. -1.
         21    1    1    2  503  505 -0.39226574319E+02 -0.17436628658E+02  0.40459074994E+03  0.40686169036E+03  0.00000000000E+00 0. -1.
         21    1    1    2  504  501  0.10242284234E+02  0.38358542921E+02 -0.12053173891E+03  0.12690225485E+03  0.00000000000E+00 0. -1.
         21    1    1    2  505  502  0.11117526215E+03 -0.75738613076E+02 -0.26176102499E+03  0.29430445228E+03  0.00000000000E+00 0. -1.
          3    1    1    2  501    0 -0.82190972063E+02  0.54816698814E+02  0.50169458495E+03  0.51132932923E+03  0.00000000000E+00 0. -1.
<scales pt_clust_3="42.82784" pt_clust_4="39.70242" pt_clust_5="14000.00000" pt_clust_6="125.92499"></scales>
<clustering>
<clus scale="   39.702">  2  4  1 -1</clus>
<clus scale="   42.828">  1  3  2 -1</clus>
<clus scale="  125.925">  1  6  2 -1</clus>
<clus scale="   39.702">  2  3  1 -1</clus>
</clustering>
</event>
<event>
 6    0  0.1230761E+002  0.7466690E+02  0.7546771E-02  0.1344906E+00
         21   -1    0    0  505  502  0.00000000000E+00  0.00000000000E+00  0.13412102355E+03  0.13412102355E+03  0.00000000000E+00 0. -1.
          1   -1    0    0  504    0 -0.00000000000E+00 -0.00000000000E+00 -0.11065122597E+04  0.11065122597E+04  0.00000000000E+00 0. -1.
         21    1    1    2  503  502 -0.64000803206E+02 -0.40535693997E+02  0.84971314538E+02  0.11383922695E+03  0.00000000000E+00 0. -1.
         21    1    1    2  504  503 -0.47359333044E+02  0.69576513598E+01 -0.37764692534E+03  0.38066851139E+03  0.00000000000E+00 0. -1.
         21    1    1    2  505  501 -0.86457043335E+01  0.46884436289E+02  0.76072173490E+01  0.48278031498E+02  0.00000000000E+00 0. -1.
          1    1    1    2  501    0  0.12000584058E+03 -0.13306393651E+02 -0.68732284270E+03  0.69784751342E+03  0.00000000000E+00 0. -1.
<scales pt_clust_3="74.66690" pt_clust_4="48.09065" pt_clust_5="47.67493" pt_clust_6="14000.00000"></scales>
<clustering>
<clus scale="   47.675">  1  5  2 -1</clus>
<clus scale="   48.091">  2  4  1 -1</clus>
<clus scale="   74.667">  1  3  2 -1</clus>
<clus scale="   47.675">  1  3  2 -1</clus>
</clustering>
</event>
<event>
 6    0  0.1230761E+002  0.1267212E+03  0.7546771E-02  0.1232404E+00
          1   -1    0    0  503    0 -0.00000000000E+00  0.00000000000E+00  0.13518578717E+04  0.13518578717E+04  0.00000000000E+00 0. -1.
         21   -1    0    0  501  502  0.00000000000E+00 -0.00000000000E+00 -0.17547405399E+03  0.17547405399E+03  0.00000000000E+00 0.  1.
         21    1    1    2  503  504  0.18686522011E+01  0.36881398741E+02  0.10406613947E+04  0.10413164110E+04  0.00000000000E+00 0. -1.
         21    1    1    2  504  505  0.34873539474E+02 -0.16826893261E+02  0.20360765914E+02  0.43747787154E+02  0.00000000000E+00 0.  1.
         21    1    1    2  505  502  0.11888660256E+03 -0.34366662357E+02 -0.11163964070E+03  0.16666883670E+03  0.00000000000E+00 0.  1.
          1    1    1    2  501    0 -0.15562879423E+03  0.14312156877E+02  0.22700129788E+03  0.27559889090E+03  0.00000000000E+00 0. -1.
<scales pt_clust_3="36.92871" pt_clust_4="37.40674" pt_clust_5="14000.00000" pt_clust_6="126.72120"></scales>
<clustering>
<clus scale="   36.929">  1  3  2 -1</clus>
<clus scale="   37.407">  1  4  2 -1</clus>
<clus scale="  126.721">  1  6  2 -1</clus>
<clus scale="  126.721">  2  3  1 -1</clus>
</clustering>
</event>
<event>
 6    0  0.1230761E+002  0.5352085E+02  0.7546771E-02  0.1427226E+00
         21   -1    0    0  501  502  0.00000000000E+00  0.00000000000E+00  0.12444407232E+03  0.12444407232E+03  0.00000000000E+00 0.  1.
          2   -1    0    0  505    0 -0.00000000000E+00 -0.00000000000E+00 -0.70726851273E+03  0.70726851273E+03  0.00000000000E+00 0.  1.
         21    1    1    2  503  504 -0.68803952020E+02  0.31586628768E+02  0.51647090930E+02  0.91646718065E+02  0.00000000000E+00 0.  1.
         21    1    1    2  504  502  0.37834262332E+02  0.67534745449E+01  0.31569799115E+02  0.49736234686E+02  0.00000000000E+00 0.  1.
         21    1    1    2  505  503 -0.99193841367E+01  0.47942906429E+02 -0.63053117265E+02  0.79828641823E+02  0.00000000000E+00 0.  1.
          2    1    1    2  501    0  0.40889073825E+02 -0.86283009741E+02 -0.60298821319E+03  0.61050099048E+03  0.00000000000E+00 0.  1.
<scales pt_clust_3="53.52085" pt_clust_4="38.43229" pt_clust_5="49.00413" pt_clust_6="14000.00000"></scales>
<clustering>
<clus scale="   38.432">  1  4  2 -1</clus>
<clus scale="   49.004">  2  5  1 -1</clus>
<clus scale="   53.521">  1  3  2 -1</clus>
<clus scale="   38.432">  1  3  2 -1</clus>
</clustering>
</event>
<event>
 6    0  0.1796725E+002  0.5681715E+03  0.7546771E-02  0.9973733E-01
          2   -1    0    0  503    0 -0.00000000000E+00  0.00000000000E+00  0.28959027472E+04  0.28959027472E+04  0.00000000000E+00 0.  1.
         21   -1    0    0  504  502  0.00000000000E+00 -0.00000000000E+00 -0.22943221684E+04  0.22943221684E+04  0.00000000000E+00 0.  1.
         21    1    1    2  503  502 -0.99083613433E+02  0.12743127680E+03  0.28746758702E+02  0.16395935134E+03  0.00000000000E+00 0. -1.
         21    1    1    2  504  505  0.40793930051E+02  0.35162188516E+02 -0.35602493275E+03  0.36007537679E+03  0.00000000000E+00 0.  1.
         21    1    1    2  505  501  0.28561896277E+03  0.41604462937E+03 -0.17989710109E+04  0.18684132368E+04  0.00000000000E+00 0.  1.
          2    1    1    2  501    0 -0.22732927939E+03 -0.57863809468E+03  0.27278297637E+04  0.27977769507E+04  0.00000000000E+00 0.  1.
<scales pt_clust_3="161.41962" pt_clust_4="35.81745" pt_clust_5="35.81745" pt_clust_6="557.49245"></scales>
<clustering>
<clus scale="   35.817">  4  5 -1 -1</clus>
<clus scale="  161.420">  1  3  2 -1</clus>
<clus scale="  557.492">  1  6  2 -1</clus>
<clus scale="  568.171">  2  3  1 -1</clus>
</clustering>
</event>
<event>
 6    0  0.1230761E+002  0.9041264E+02  0.7546771E-02  0.1301856E+00
         21   -1    0    0  503  502  0.00000000000E+00  0.00000000000E+00  0.45108961943E+03  0.45108961943E+03  0.00000000000E+00 0. -1.
          3   -1    0    0  505    0 -0.00000000000E+00 -0.00000000000E+00 -0.67348769232E+03  0.67348769232E+03  0.00000000000E+00 0. -1.
         21    1    1    2  503  504  0.75632417440E+01 -0.90632101273E+02  0.42305027574E+03  0.43271574527E+03  0.00000000000E+00 0. -1.
         21    1    1    2  504  501  0.13766179673E+02  0.45725392046E+02 -0.14363484316E+02  0.49866109356E+02  0.00000000000E+00 0.  1.
         21    1    1    2  505  502 -0.61887249748E+02  0.44264797894E+02 -0.36602706785E+03  0.37385186693E+03  0.00000000000E+00 0. -1.
          3    1    1    2  501    0  0.40557828331E+02  0.64191133328E+00 -0.26505779646E+03  0.26814359018E+03  0.00000000000E+00 0. -1.
<scales pt_clust_3="14000.00000" pt_clust_4="48.81944" pt_clust_5="90.41264" pt_clust_6="40.56291"></scales>
<clustering>
<clus scale="   40.563">  2  6  1 -1</clus>
<clus scale="   48.819">  2  4  1 -1</clus>
<clus scale="   90.413">  2  5  1 -1</clus>
<clus scale="   90.413">  1  3  2 -1</clus>
</clustering>
</event>
<event>
 6    0  0.1230761E+002  0.1237892E+03  0.7546771E-02  0.1236974E+00
         21   -1    0    0  505  502  0.00000000000E+00  0.00000000000E+00  0.23489349494E+02  0.23489349494E+02  0.00000000000E+00 0. -1.
          2   -1    0    0  503    0 -0.00000000000E+00 -0.00000000000E+00 -0.13152675177E+04  0.13152675177E+04  0.00000000000E+00 0. -1.
         21    1    1    2  503  502 -0.47337394037E+02 -0.27312512743E+02 -0.70322781371E+02  0.89062314175E+02  0.00000000000E+00 0. -1.
         21    1    1    2  504  501  0.46339592239E+02  0.44916647769E+02 -0.20326352953E+03  0.21326257406E+03  0.00000000000E+00 0. -1.
         21    1    1    2  505  504 -0.40181404330E+01  0.82964241836E+02 -0.30269604334E+03  0.31388549748E+03  0.00000000000E+00 0. -1.
          2    1    1    2  501    0  0.50159422307E+01 -0.10056837686E+03 -0.71549581398E+03  0.72254648150E+03  0.00000000000E+00 0. -1.
<scales pt_clust_3="54.65164" pt_clust_4="53.94458" pt_clust_5="53.94458" pt_clust_6="107.60296"></scales>
<clustering>
<clus scale="   53.945">  4  5 -1 -1</clus>
<clus scale="   54.652">  1  3  2 -1</clus>
<clus scale="  107.603">  2  6  1 -1</clus>
<clus scale="   54.652">  1  3  2 -1</clus>
</clustering>
</event>
<event>
 6    0  0.1230761E+002  0.1119989E+03  0.7546771E-02  0.1256912E+00
          2   -1    0    0  503    0 -0.00000000000E+00  0.00000000000E+00  0.10953424342E+04  0.10953424342E+04  0.00000000000E+00 0.  1.
         21   -1    0    0  501  502  0.00000000000E+00 -0.00000000000E+00 -0.84643040198E+03  0.84643040198E+03  0.00000000000E+00 0. -1.
         21    1    1    2  503  504 -0.41279320182E+01 -0.10039255034E+03  0.69643013430E+03  0.70364098513E+03  0.00000000000E+00 0.  1.
         21    1    1    2  504  505 -0.16382675843E+02 -0.36962334685E+02 -0.20269277823E+03  0.20668567585E+03  0.00000000000E+00 0.  1.
         21    1    1    2  505  502  0.91527007745E+01 -0.34977798256E+02 -0.61862314838E+03  0.61967880229E+03  0.00000000000E+00 0. -1.
          2    1    1    2  501    0  0.11357907087E+02  0.17233268328E+03  0.37379782458E+03  0.41176737296E+03  0.00000000000E+00 0.  1.
<scales pt_clust_3="111.99890" pt_clust_4="68.94572" pt_clust_5="36.15547" pt_clust_6="14000.00000"></scales>
<clustering>
<clus scale="   36.155">  2  5  1 -1</clus>
<clus scale="   68.946">  2  4  1 -1</clus>
<clus scale="  111.999">  1  3  2 -1</clus>
<clus scale="   36.155">  2  3  1 -1</clus>
</clustering>
</event>
<event>
 6    0  0.1230761E+002  0.8725991E+02  0.7546771E-02  0.1309626E+00
          2   -1    0    0  505    0 -0.00000000000E+00  0.00000000000E+00  0.90424935703E+03  0.90424935703E+03  0.00000000000E+00 0. -1.
         21   -1    0    0  504  502  0.00000000000E+00 -0.00000000000E+00 -0.14771326633E+03  0.14771326633E+03  0.00000000000E+00 0.  1.
         21    1    1    2  503  502  0.27085641033E+02 -0.31517055991E+02 -0.74467162044E+02  0.85277869295E+02  0.00000000000E+00 0. -1.
         21    1    1    2  504  501  0.59737823092E+02  0.46494122332E+02 -0.38116527634E+02  0.84753646518E+02  0.00000000000E+00 0.  1.
         21    1    1    2  505  503  0.15945479405E+02  0.25908028923E+02  0.90061345716E+02  0.95060666252E+02  0.00000000000E+00 0. -1.
          2    1    1    2  501    0 -0.10276894353E+03 -0.40885095263E+02  0.77905843466E+03  0.78687044130E+03  0.00000000000E+00 0. -1.
<scales pt_clust_3="41.49548" pt_clust_4="87.25991" pt_clust_5="30.42177" pt_clust_6="14000.00000"></scales>
<clustering>
<clus scale="   30.422">  1  5  2 -1</clus>
<clus scale="   41.495">  2  3  1 -1</clus>
<clus scale="   87.260">  2  4  1 -1</clus>
<clus scale="   41.495">  2  3  1 -1</clus>
</clustering>
</event>
<event>
 6    0  0.1230761E+002  0.1204770E+03  0.7546771E-02  0.1242312E+00
         21   -1    0    0  503  502  0.00000000000E+00  0.00000000000E+00  0.12870223291E+04  0.12870223291E+04  0.00000000000E+00 0.  1.
          2   -1    0    0  504    0 -0.00000000000E+00 -0.00000000000E+00 -0.49272771615E+03  0.49272771615E+03  0.00000000000E+00 0.  1.
         21    1    1    2  503  501  0.17578261656E+02  0.83575317988E+02  0.54051771067E+03  0.54722319451E+03  0.00000000000E+00 0.  1.
         21    1    1    2  504  505 -0.79848918635E+02  0.33016934211E+02  0.20789457851E+02  0.88871645138E+02  0.00000000000E+00 0.  1.
         21    1    1    2  505  502 -0.38052825762E+02 -0.39762648130E+02  0.67841844828E+03  0.68064724836E+03  0.00000000000E+00 0.  1.
          2    1    1    2  501    0  0.10032348274E+03 -0.76829604068E+02 -0.44543100386E+03  0.46300795722E+03  0.00000000000E+00 0.  1.
<scales pt_clust_3="50.73141" pt_clust_4="14000.00000" pt_clust_5="55.03713" pt_clust_6="120.47699"></scales>
<clustering>
<clus scale="   55.037">  1  5  2 -1</clus>
<clus scale="   50.731">  1  3  2 -1</clus>
<clus scale="  120.477">  2  6  1 -1</clus>
<clus scale="   55.037">  1  3  2 -1</clus>
</clustering>
</event>
<event>
 6    0  0.1230761E+002  0.8262034E+02  0.7546771E-02  0.1321776E+00
         21   -1    0    0  504  502  0.00000000000E+00  0.00000000000E+00  0.36555432487E+02  0.36555432487E+02  0.00000000000E+00 0. -1.
          2   -1    0    0  503    0 -0.00000000000E+00 -0.00000000000E+00 -0.57816285649E+03  0.57816285649E+03  0.00000000000E+00 0.  1.
         21    1    1    2  503  505 -0.25175833830E+02 -0.93437979942E+02 -0.25576849460E+03  0.27346298019E+03  0.00000000000E+00 0. -1.
         21    1    1    2  504  501  0.52279038819E+02 -0.13625620905E+02 -0.45343795337E+02  0.70532370018E+02  0.00000000000E+00 0. -1.
         21    1    1    2  505  502 -0.25986400612E+02  0.33692385019E+02 -0.45102192470E+02  0.62005464200E+02  0.00000000000E+00 0. -1.
          2    1    1    2  501    0 -0.11168043769E+01  0.73371215828E+02 -0.19539294160E+03  0.20871747457E+03  0.00000000000E+00 0.  1.
<scales pt_clust_3="14000.00000" pt_clust_4="40.66032" pt_clust_5="42.54962" pt_clust_6="82.62034"></scales>
<clustering>
<clus scale="   42.550">  1  5  2 -1</clus>
<clus scale="   40.660">  1  4  2 -1</clus>
<clus scale="   82.620">  2  6  1 -1</clus>
<clus scale="   42.550">  1  3  2 -1</clus>
</clustering>
</event>
<event>
 6    0  0.1230761E+002  0.1394991E+03  0.7546771E-02  0.1214005E+00
          1   -1    0    0  503    0 -0.00000000000E+00  0.00000000000E+00  0.47936543056E+03  0.47936543056E+03  0.00000000000E+00 0. -1.
         21   -1    0    0  505  502  0.00000000000E+00 -0.00000000000E+00 -0.10239902854E+04  0.10239902854E+04  0.00000000000E+00 0.  1.
         21    1    1    2  503  504  0.22291610175E+02  0.80416540016E+02  0.44384189177E+02  0.94518210103E+02  0.00000000000E+00 0.  1.
         21    1    1    2  504  502 -0.41518436660E+02  0.25149154108E+02 -0.75693424521E+02  0.89920826569E+02  0.00000000000E+00 0.  1.
         21    1    1    2  505  501  0.32468174598E+02 -0.17439714915E+03 -0.90438335458E+03  0.92161694864E+03  0.00000000000E+00 0.  1.
          1    1    1    2  501    0 -0.13241348113E+02  0.68831455025E+02  0.39106773511E+03  0.39729973061E+03  0.00000000000E+00 0. -1.
<scales pt_clust_3="14000.00000" pt_clust_4="48.54133" pt_clust_5="139.49908" pt_clust_6="70.20136"></scales>
<clustering>
<clus scale="   48.541">  2  4  1 -1</clus>
<clus scale="   70.201">  1  6  2 -1</clus>
<clus scale="  139.499">  2  5  1 -1</clus>
<clus scale="   48.541">  2  3  1 -1</clus>
</clustering>
</event>
<event>
 6    0  0.1230761E+002  0.8686668E+02  0.7546771E-02  0.1310622E+00
          2   -1    0    0  505    0 -0.00000000000E+00  0.00000000000E+00  0.45002094730E+03  0.45002094730E+03  0.00000000000E+00 0. -1.
         21   -1    0    0  504  502  0.00000000000E+00 -0.00000000000E+00 -0.24064668592E+03  0.24064668592E+03  0.00000000000E+00 0.  1.
         21    1    1    2  503  502 -0.36638301522E+02  0.56689946705E+02 -0.15746515639E+03  0.17132247568E+03  0.00000000000E+00 0.  1.
         21    1    1    2  504  501 -0.75652394448E+02  0.54270264888E+01  0.59727079182E+02  0.96540465039E+02  0.00000000000E+00 0.  1.
         21    1    1    2  505  503  0.22750624966E+02 -0.80457247021E+02 -0.17625587784E+02  0.85449522405E+02  0.00000000000E+00 0. -1.
          2    1    1    2  501    0  0.89540071004E+02  0.18340273827E+02  0.32473792638E+03  0.33735517009E+03  0.00000000000E+00 0. -1.
<scales pt_clust_3="67.49900" pt_clust_4="86.86668" pt_clust_5="42.18984" pt_clust_6="14000.00000"></scales>
<clustering>
<clus scale="   67.499">  2  3  1 -1</clus>
<clus scale="   42.190">  2  5  1 -1</clus>
<clus scale="   86.867">  2  4  1 -1</clus>
<clus scale="   67.499">  2  3  1 -1</clus>
</clustering>
</event>
<event>
 6    0  0.1230761E+002  0.1200642E+03  0.7546771E-02  0.1242991E+00
         21   -1    0    0  505  502  0.00000000000E+00  0.00000000000E+00  0.16769387094E+03  0.16769387094E+03  0.00000000000E+00 0. -1.
          2   -1    0    0  504    0 -0.00000000000E+00 -0.00000000000E+00 -0.18160627414E+04  0.18160627414E+04  0.00000000000E+00 0.  1.
         21    1    1    2  503  502  0.11751128184E+03 -0.40344830178E+02  0.12057351601E+03  0.17313168238E+03  0.00000000000E+00 0. -1.
         21    1    1    2  504  503  0.25160789861E+01 -0.40252235152E+02 -0.84364620337E+02  0.93509155984E+02  0.00000000000E+00 0. -1.
         21    1    1    2  505  501 -0.67231481300E+02  0.81875323424E+02 -0.16165103714E+03  0.19327363626E+03  0.00000000000E+00 0. -1.
          2    1    1    2  501    0 -0.52795879523E+02 -0.12782580943E+01 -0.15229267290E+04  0.15238421377E+04  0.00000000000E+00 0.  1.
<scales pt_clust_3="120.06422" pt_clust_4="40.33080" pt_clust_5="14000.00000" pt_clust_6="62.53733"></scales>
<clustering>
<clus scale="   40.331">  2  4  1 -1</clus>
<clus scale="   62.537">  2  6  1 -1</clus>
<clus scale="  120.064">  1  3  2 -1</clus>
<clus scale="  120.064">  1  3  2 -1</clus>
</clustering>
</event>
<event>
 6    0  0.1230761E+002  0.1999827E+03  0.7546771E-02  0.1149754E+00
         21   -1    0    0  505  502  0.00000000000E+00  0.00000000000E+00  0.12305509892E+03  0.12305509892E+03  0.00000000000E+00 0.  1.
          2   -1    0    0  503    0 -0.00000000000E+00 -0.00000000000E+00 -0.23194264811E+04  0.23194264811E+04  0.00000000000E+00 0.  1.
         21    1    1    2  503  504 -0.23078034620E+02 -0.20024975135E+03  0.12822767651E+02  0.20198262789E+03  0.00000000000E+00 0.  1.
         21    1    1    2  504  502 -0.25866786898E+02  0.16552939343E+02 -0.10048494347E+02  0.32311959148E+02  0.00000000000E+00 0.  1.
         21    1    1    2  505  501 -0.57376994702E+01  0.92666717498E+02 -0.94203924395E+03  0.94660339048E+03  0.00000000000E+00 0.  1.
          2    1    1    2  501    0  0.54682520988E+02  0.91030094510E+02 -0.12571064115E+04  0.12615836025E+04  0.00000000000E+00 0.  1.
<scales pt_clust_3="190.48626" pt_clust_4="30.70978" pt_clust_5="57.04695" pt_clust_6="57.04695"></scales>
<clustering>
<clus scale="   30.710">  1  4  2 -1</clus>
<clus scale="   57.047">  5  6 -1 -1</clus>
<clus scale="  190.486">  1  3  2 -1</clus>
<clus scale="   30.710">  1  3  2 -1</clus>
</clustering>
</event>
<event>
 6    0  0.1230761E+002  0.1216578E+03  0.7546771E-02  0.1240387E+00
         -2   -1    0    0    0  501 -0.00000000000E+00  0.00000000000E+00  0.13078642958E+04  0.13078642958E+04  0.00000000000E+00 0. -1.
         21   -1    0    0  504  502  0.00000000000E+00 -0.00000000000E+00 -0.21756783090E+03  0.21756783090E+03  0.00000000000E+00 0.  1.
         21    1    1    2  503  502  0.14332566673E+02  0.58208724815E+02 -0.17410708803E+03  0.18413841591E+03  0.00000000000E+00 0.  1.
         21    1    1    2  504  501  0.30698774305E+02 -0.32759697656E+02  0.15870433740E+03  0.16493234748E+03  0.00000000000E+00 0.  1.
         21    1    1    2  505  503 -0.63526237516E+01  0.75224524476E+02  0.10914294041E+02  0.76277170409E+02  0.00000000000E+00 0.  1.
         -2    1    1    2    0  505 -0.38678717226E+02 -0.10067355164E+03  0.10947849215E+04  0.11000841929E+04  0.00000000000E+00 0. -1.
<scales pt_clust_3="59.84043" pt_clust_4="44.89557" pt_clust_5="121.65777" pt_clust_6="14000.00000"></scales>
<clustering>
<clus scale="   44.896">  1  4  2 -1</clus>
<clus scale="   59.840">  2  3  1 -1</clus>
<clus scale="  121.658">  2  5  1 -1</clus>
<clus scale="   59.840">  2  3  1 -1</clus>
</clustering>
</event>
<event>
 6    0  0.1230761E+002  0.9729088E+02  0.7546771E-02  0.1286098E+00
         21   -1    0    0  504  502  0.00000000000E+00  0.00000000000E+00  0.44057131024E+02  0.44057131024E+02  0.00000000000E+00 0. -1.
          2   -1    0    0  503    0 -0.00000000000E+00 -0.00000000000E+00 -0.20744450702E+04  0.20744450702E+04  0.00000000000E+00 0.  1.
         21    1    1    2  503  505 -0.28214116187E+02 -0.68219064336E+02 -0.24604219419E+03  0.25687864530E+03  0.00000000000E+00 0. -1.
         21    1    1    2  504  501  0.87919803364E+01 -0.67338068013E+02 -0.12277320185E+02  0.69010484079E+02  0.00000000000E+00 0. -1.
         21    1    1    2  505  502 -0.32443939935E+02  0.44943135629E+02 -0.80001339270E+02  0.97327842695E+02  0.00000000000E+00 0. -1.
          2    1    1    2  501    0  0.51866075786E+02  0.90613996720E+02 -0.16920670856E+04  0.16952852292E+04  0.00000000000E+00 0.  1.
<scales pt_clust_3="14000.00000" pt_clust_4="35.73550" pt_clust_5="55.43009" pt_clust_6="97.29088"></scales>
<clustering>
<clus scale="   55.430">  1  5  2 -1</clus>
<clus scale="   35.735">  1  4  2 -1</clus>
<clus scale="   97.291">  2  6  1 -1</clus>
<clus scale="   55.430">  1  3  2 -1</clus>
</clustering>
</event>
<event>
 6    0  0.1230761E+002  0.1188735E+03  0.7546771E-02  0.1244967E+00
         21   -1    0    0  505  502  0.00000000000E+00  0.00000000000E+00  0.25715877198E+02  0.25715877198E+02  0.00000000000E+00 0. -1.
          1   -1    0    0  504    0 -0.00000000000E+00 -0.00000000000E+00 -0.21064394580E+04  0.21064394580E+04  0.00000000000E+00 0.  1.
         21    1    1    2  503  501 -0.33195789861E+02  0.64201325822E+02 -0.93047968906E+02  0.11782060609E+03  0.00000000000E+00 0. -1.
         21    1    1    2  504  502 -0.14080197067E+02 -0.43057011519E+02 -0.11844628259E+04  0.11853287916E+04  0.00000000000E+00 0.  1.
         21    1    1    2  505  503 -0.44973647767E+02  0.22424780304E+02 -0.57580486192E+02  0.76426514740E+02  0.00000000000E+00 0. -1.
          1    1    1    2  501    0  0.92249634695E+02 -0.43569094607E+02 -0.74563229983E+03  0.75257942282E+03  0.00000000000E+00 0.  1.
<scales pt_clust_3="31.51565" pt_clust_4="45.30075" pt_clust_5="31.51565" pt_clust_6="112.70512"></scales>
<clustering>
<clus scale="   31.516">  3  5 -1 -1</clus>
<clus scale="   45.301">  2  4  1 -1</clus>
<clus scale="  112.705">  2  6  1 -1</clus>
<clus scale="  118.874">  1  3  2 -1</clus>
</clustering>
</event>
<event>
 6    0  0.1230761E+002  0.1207288E+03  0.7546771E-02  0.1241900E+00
          1   -1    0    0  504    0 -0.00000000000E+00  0.00000000000E+00  0.41150409531E+04  0.41150409531E+04  0.00000000000E+00 0. -1.
         21   -1    0    0  503  502  0.00000000000E+00 -0.00000000000E+00 -0.93099618758E+02  0.93099618758E+02  0.00000000000E+00 0. -1.
         21    1    1    2  503  501  0.68231647883E+02  0.14341573773E+02  0.47981567793E+02  0.84637281141E+02  0.00000000000E+00 0. -1.
         21    1    1    2  504  505  0.13137654960E+02  0.56225494277E+02  0.22448847933E+03  0.23179512837E+03  0.00000000000E+00 0. -1.
         21    1    1    2  505  502 -0.11315168748E+02  0.32491469908E+02 -0.65879698536E+02  0.74322697339E+02  0.00000000000E+00 0. -1.
          1    1    1    2  501    0 -0.70054134094E+02 -0.10305853796E+03  0.38153509857E+04  0.38173854650E+04  0.00000000000E+00 0. -1.
<scales pt_clust_3="120.72877" pt_clust_4="62.42548" pt_clust_5="34.40536" pt_clust_6="14000.00000"></scales>
<clustering>
<clus scale="   34.405">  2  5  1 -1</clus>
<clus scale="   62.425">  2  4  1 -1</clus>
<clus scale="  120.729">  2  3  1 -1</clus>
<clus scale="   34.405">  2  3  1 -1</clus>
</clustering>
</event>
<event>
 6    0  0.1230761E+002  0.9295514E+02  0.7546771E-02  0.1295849E+00
         21   -1    0    0  503  502  0.00000000000E+00  0.00000000000E+00  0.43144609328E+02  0.43144609328E+02  0.00000000000E+00 0. -1.
          2   -1    0    0  504    0 -0.00000000000E+00 -0.00000000000E+00 -0.89356238420E+03  0.89356238420E+03  0.00000000000E+00 0. -1.
         21    1    1    2  503  501  0.31600062222E+01 -0.63677403176E+02 -0.16938246882E+02  0.65967427735E+02  0.00000000000E+00 0. -1.
         21    1    1    2  504  505  0.78109148548E+02  0.80513770571E+02 -0.34924838642E+03  0.36682140308E+03  0.00000000000E+00 0. -1.
         21    1    1    2  505  502  0.15657852376E+02 -0.27374668093E+02 -0.51904661329E+02  0.60734130947E+02  0.00000000000E+00 0. -1.
          2    1    1    2  501    0 -0.96927007146E+02  0.10538300698E+02 -0.43232648024E+03  0.44318403176E+03  0.00000000000E+00 0. -1.
<scales pt_clust_3="82.05234" pt_clust_4="92.95514" pt_clust_5="31.53634" pt_clust_6="14000.00000"></scales>
<clustering>
<clus scale="   31.536">  1  5  2 -1</clus>
<clus scale="   82.052">  1  3  2 -1</clus>
<clus scale="   92.955">  1  4  2 -1</clus>
<clus scale="   31.536">  1  3  2 -1</clus>
</clustering>
</event>
<event>
 6    0  0.1230761E+002  0.1102462E+03  0.7546771E-02  0.1260115E+00
          4   -1    0    0  504    0 -0.00000000000E+00  0.00000000000E+00  0.14955781381E+03  0.14955781381E+03  0.00000000000E+00 0. -1.
         21   -1    0    0  503  502  0.00000000000E+00 -0.00000000000E+00 -0.26588737738E+03  0.26588737738E+03  0.00000000000E+00 0.  1.
         21    1    1    2  503  501  0.28260580381E+02  0.14886551498E+02 -0.17623705547E+02  0.36481019945E+02  0.00000000000E+00 0.  1.
         21    1    1    2  504  505  0.43659027215E+02 -0.16893767091E+02  0.22485916676E+02  0.51933866336E+02  0.00000000000E+00 0.  1.
         21    1    1    2  505  502  0.51480660538E+02  0.66686591027E+02 -0.16136285035E+03  0.18203112181E+03  0.00000000000E+00 0.  1.
          4    1    1    2  501    0 -0.12340026813E+03 -0.64679375434E+02  0.40171075654E+02  0.14499918311E+03  0.00000000000E+00 0. -1.
<scales pt_clust_3="31.94166" pt_clust_4="48.13012" pt_clust_5="110.24622" pt_clust_6="14000.00000"></scales>
<clustering>
<clus scale="   31.942">  2  3  1 -1</clus>
<clus scale="   48.130">  1  4  2 -1</clus>
<clus scale="  110.246">  2  5  1 -1</clus>
<clus scale="   31.942">  2  3  1 -1</clus>
</clustering>
</event>
<event>
 6    0  0.1230761E+002  0.1228855E+03  0.7546771E-02  0.1238411E+00
         -2   -1    0    0    0  501 -0.00000000000E+00  0.00000000000E+00  0.30181115523E+03  0.30181115523E+03  0.00000000000E+00 0.  1.
         21   -1    0    0  503  502  0.00000000000E+00 -0.00000000000E+00 -0.16076346504E+03  0.16076346504E+03  0.00000000000E+00 0. -1.
         21    1    1    2  503  504  0.79503619580E+02  0.84346334016E+02 -0.57024174012E+02  0.12917773032E+03  0.00000000000E+00 0. -1.
         21    1    1    2  504  501 -0.20241872933E+01  0.38315666765E+02  0.31254966211E+02  0.49487984064E+02  0.00000000000E+00 0.  1.
         21    1    1    2  505  502 -0.24225661757E+02  0.21045178492E+02 -0.23340265314E+02  0.39680602444E+02  0.00000000000E+00 0. -1.
         -2    1    1    2    0  505 -0.53253770529E+02 -0.14370717927E+03  0.19015716330E+03  0.24422830345E+03  0.00000000000E+00 0.  1.
<scales pt_clust_3="14000.00000" pt_clust_4="39.97470" pt_clust_5="32.09022" pt_clust_6="122.88554"></scales>
<clustering>
<clus scale="   32.090">  2  5  1 -1</clus>
<clus scale="   39.975">  1  4  2 -1</clus>
<clus scale="  122.886">  1  6  2 -1</clus>
<clus scale="   32.090">  2  3  1 -1</clus>
</clustering>
</event>
<event>
 6    0  0.1230761E+002  0.7789680E+02  0.7546771E-02  0.1335128E+00
         -4   -1    0    0    0  501 -0.00000000000E+00  0.00000000000E+00  0.26959020643E+03  0.26959020643E+03  0.00000000000E+00 0.  1.
         21   -1    0    0  504  502  0.00000000000E+00 -0.00000000000E+00 -0.24357748919E+03  0.24357748919E+03  0.00000000000E+00 0.  1.
         21    1    1    2  503  505 -0.75200454310E+02 -0.20039394310E+02  0.20704978386E+03  0.22119289918E+03  0.00000000000E+00 0.  1.
         21    1    1    2  504  503  0.73352326110E+02 -0.37844237615E+02 -0.10220891874E+03  0.13137508567E+03  0.00000000000E+00 0.  1.
         21    1    1    2  505  501  0.33346108657E+02 -0.19537727732E+02  0.86554859783E+01  0.39605595628E+02  0.00000000000E+00 0.  1.
         -4    1    1    2    0  502 -0.31497980457E+02  0.77421359657E+02 -0.87483633864E+02  0.12099411514E+03  0.00000000000E+00 0.  1.
<scales pt_clust_3="59.17277" pt_clust_4="14000.00000" pt_clust_5="38.64823" pt_clust_6="77.89680"></scales>
<clustering>
<clus scale="   38.648">  1  5  2 -1</clus>
<clus scale="   59.173">  1  3  2 -1</clus>
<clus scale="   77.897">  1  6  2 -1</clus>
<clus scale="   77.897">  2  3  1 -1</clus>
</clustering>
</event>
<event>
 6    0  0.1230761E+002  0.1057497E+03  0.7546771E-02  0.1268650E+00
         21   -1    0    0  504  502  0.00000000000E+00  0.00000000000E+00  0.13184358966E+03  0.13184358966E+03  0.00000000000E+00 0. -1.
          1   -1    0    0  505    0 -0.00000000000E+00 -0.00000000000E+00 -0.67014400314E+03  0.67014400314E+03  0.00000000000E+00 0. -1.
         21    1    1    2  503  502  0.60590947386E+02 -0.36203826320E+02  0.84635066774E+02  0.11020469352E+03  0.00000000000E+00 0. -1.
         21    1    1    2  504  501  0.33034527282E+02 -0.21508326121E+02 -0.87931585249E+01  0.40388212663E+02  0.00000000000E+00 0.  1.
         21    1    1    2  505  503 -0.25592955353E+02 -0.68566619671E+02 -0.18702525070E+03  0.20083531835E+03  0.00000000000E+00 0. -1.
          1    1    1    2  501    0 -0.68032519315E+02  0.12627877211E+03 -0.42711707103E+03  0.45055936827E+03  0.00000000000E+00 0. -1.
<scales pt_clust_3="105.74968" pt_clust_4="39.41939" pt_clust_5="73.73447" pt_clust_6="14000.00000"></scales>
<clustering>
<clus scale="   39.419">  1  4  2 -1</clus>
<clus scale="   73.734">  2  5  1 -1</clus>
<clus scale="  105.750">  1  3  2 -1</clus>
<clus scale="   39.419">  1  3  2 -1</clus>
</clustering>
</event>
<event>
 6    0  0.1230761E+002  0.8979317E+02  0.7546771E-02  0.1303353E+00
         -2   -1    0    0    0  501 -0.00000000000E+00  0.00000000000E+00  0.10571698112E+04  0.10571698112E+04  0.00000000000E+00 0.  1.
         21   -1    0    0  503  502  0.00000000000E+00 -0.00000000000E+00 -0.37921059246E+02  0.37921059246E+02  0.00000000000E+00 0. -1.
         21    1    1    2  503  504 -0.48450692385E+02 -0.77309648597E+02  0.54319256351E+02  0.10618301639E+03  0.00000000000E+00 0. -1.
         21    1    1    2  504  505  0.75210283874E+02 -0.76186437564E+01  0.42483982118E+03  0.43151304058E+03  0.00000000000E+00 0.  1.
         21    1    1    2  505  501 -0.48933184844E+02  0.20771136869E+01  0.14320587368E+03  0.15134957297E+03  0.00000000000E+00 0. -1.
         -2    1    1    2    0  502  0.22173593356E+02  0.82851178667E+02  0.39688380079E+03  0.40604524056E+03  0.00000000000E+00 0.  1.
<scales pt_clust_3="89.79317" pt_clust_4="52.60424" pt_clust_5="48.97725" pt_clust_6="14000.00000"></scales>
<clustering>
<clus scale="   48.977">  1  5  2 -1</clus>
<clus scale="   52.604">  1  4  2 -1</clus>
<clus scale="   89.793">  2  3  1 -1</clus>
<clus scale="   89.793">  2  3  1 -1</clus>
</clustering>
</event>
<event>
 6    0  0.1230761E+002  0.2040585E+03  0.7546771E-02  0.1146359E+00
         21   -1    0    0  501  502  0.00000000000E+00  0.00000000000E+00  0.71658754772E+03  0.71658754772E+03  0.00000000000E+00 0. -1.
          2   -1    0    0  503    0 -0.00000000000E+00 -0.00000000000E+00 -0.85144759376E+03  0.85144759376E+03  0.00000000000E+00 0.  1.
         21    1    1    2  503  504 -0.32885101342E+02  0.77202303670E+01 -0.21487601608E+02  0.40034346130E+02  0.00000000000E+00 0.  1.
         21    1    1    2  504  505  0.27325198241E+02  0.37470481532E+02  0.81630672567E+02  0.93884344536E+02  0.00000000000E+00 0. -1.
         21    1    1    2  505  502  0.11668641406E+03  0.89190922785E+02  0.60128308491E+03  0.61896048996E+03  0.00000000000E+00 0. -1.
          2    1    1    2  501    0 -0.11112651096E+03 -0.13438163468E+03 -0.79628620190E+03  0.81515596086E+03  0.00000000000E+00 0.  1.
<scales pt_clust_3="33.77916" pt_clust_4="39.70012" pt_clust_5="39.70012" pt_clust_6="191.43087"></scales>
<clustering>
<clus scale="   33.779">  2  3  1 -1</clus>
<clus scale="   39.700">  4  5 -1 -1</clus>
<clus scale="  191.431">  2  6  1 -1</clus>
<clus scale="  204.059">  1  3  2 -1</clus>
</clustering>
</event>
<event>
 6    0  0.1230761E+002  0.1201840E+03  0.7546771E-02  0.1242794E+00
         21   -1    0    0  501  502  0.00000000000E+00  0.00000000000E+00  0.75284841240E+02  0.75284841240E+02  0.00000000000E+00 0. -1.
          2   -1    0    0  503    0 -0.00000000000E+00 -0.00000000000E+00 -0.14158981849E+04  0.14158981849E+04  0.00000000000E+00 0. -1.
         21    1    1    2  503  505 -0.23888228764E+02 -0.20586163879E+02 -0.32155514940E+03  0.32309774329E+03  0.00000000000E+00 0.  1.
         21    1    1    2  504  502  0.90750567998E+02 -0.77179530972E+02  0.78412041199E+01  0.11938940520E+03  0.00000000000E+00 0. -1.
         21    1    1    2  505  504  0.42919443626E+02  0.13646229540E+02 -0.80479985871E+02  0.92224326225E+02  0.00000000000E+00 0.  1.
          2    1    1    2  501    0 -0.10978178286E+03  0.84119465311E+02 -0.94641941249E+03  0.95647155139E+03  0.00000000000E+00 0. -1.
<scales pt_clust_3="31.53470" pt_clust_4="14000.00000" pt_clust_5="42.75764" pt_clust_6="120.18401"></scales>
<clustering>
<clus scale="   31.535">  2  3  1 -1</clus>
<clus scale="   42.758">  2  5  1 -1</clus>
<clus scale="  120.184">  2  6  1 -1</clus>
<clus scale="  120.184">  1  3  2 -1</clus>
</clustering>
</event>
<event>
 6    0  0.1230761E+002  0.7534987E+02  0.7546771E-02  0.1342791E+00
         -2   -1    0    0    0  501 -0.00000000000E+00  0.00000000000E+00  0.48528389710E+03  0.48528389710E+03  0.00000000000E+00 0.  1.
         21   -1    0    0  505  502  0.00000000000E+00 -0.00000000000E+00 -0.11365513566E+04  0.11365513566E+04  0.00000000000E+00 0. -1.
         21    1    1    2  503  504 -0.78089149491E+02 -0.50707175524E+02 -0.91330265348E+03  0.91803642073E+03  0.00000000000E+00 0. -1.
         21    1    1    2  504  502  0.46719790113E+02  0.16856252875E+02 -0.18622985214E+03  0.19273927954E+03  0.00000000000E+00 0.  1.
         21    1    1    2  505  501  0.34376860611E+02 -0.44937439858E+02  0.67981285620E+00  0.56582719906E+02  0.00000000000E+00 0.  1.
         -2    1    1    2    0  503 -0.30075012330E+01  0.78788362506E+02  0.44758523330E+03  0.45447683351E+03  0.00000000000E+00 0.  1.
<scales pt_clust_3="47.61974" pt_clust_4="49.66762" pt_clust_5="14000.00000" pt_clust_6="75.34987"></scales>
<clustering>
<clus scale="   49.668">  2  4  1 -1</clus>
<clus scale="   47.620">  2  3  1 -1</clus>
<clus scale="   75.350">  1  6  2 -1</clus>
<clus scale="   49.668">  2  3  1 -1</clus>
</clustering>
</event>
<event>
 6    0  0.1230761E+002  0.9830862E+02  0.7546771E-02  0.1283893E+00
         21   -1    0    0  503  502  0.00000000000E+00  0.00000000000E+00  0.89393538156E+03  0.89393538156E+03  0.00000000000E+00 0. -1.
          2   -1    0    0  505    0 -0.00000000000E+00 -0.00000000000E+00 -0.42699127271E+03  0.42699127271E+03  0.00000000000E+00 0.  1.
         21    1    1    2  503  501 -0.84484927344E+02  0.40756925590E+01  0.33369518676E+03  0.34424815451E+03  0.00000000000E+00 0. -1.
         21    1    1    2  504  502  0.11296571318E+03  0.39032237107E+02  0.53495318661E+03  0.54814202517E+03  0.00000000000E+00 0. -1.
         21    1    1    2  505  504  0.16898612923E+02  0.35364186542E+02 -0.41424658342E+02  0.57027985474E+02  0.00000000000E+00 0. -1.
          2    1    1    2  501    0 -0.45379398759E+02 -0.78472116208E+02 -0.36027960618E+03  0.37150848912E+03  0.00000000000E+00 0.  1.
<scales pt_clust_3="98.30862" pt_clust_4="14000.00000" pt_clust_5="39.19424" pt_clust_6="52.88690"></scales>
<clustering>
<clus scale="   39.194">  2  5  1 -1</clus>
<clus scale="   52.887">  2  6  1 -1</clus>
<clus scale="   98.309">  1  3  2 -1</clus>
<clus scale="   98.309">  1  3  2 -1</clus>
</clustering>
</event>
<event>
 6    0  0.1230761E+002  0.1628610E+03  0.7546771E-02  0.1185504E+00
         21   -1    0    0  503  502  0.00000000000E+00  0.00000000000E+00  0.21291750475E+03  0.21291750475E+03  0.00000000000E+00 0. -1.
          3   -1    0    0  502    0 -0.00000000000E+00 -0.00000000000E+00 -0.15181443562E+03  0.15181443562E+03  0.00000000000E+00 0.  1.
         21    1    1    2  503  504 -0.31963641986E+02 -0.16537801188E+00  0.41450512044E+02  0.52343545042E+02  0.00000000000E+00 0. -1.
         21    1    1    2  504  505 -0.57565769158E+02  0.57443272183E+02  0.31238533078E+01  0.81383694665E+02  0.00000000000E+00 0. -1.
         21    1    1    2  505  501  0.92795203408E+01  0.71155059013E+02  0.32397789628E+02  0.78732259549E+02  0.00000000000E+00 0. -1.
          3    1    1    2  501    0  0.80249890802E+02 -0.12843295318E+03 -0.15869085853E+02  0.15227244112E+03  0.00000000000E+00 0.  1.
<scales pt_clust_3="31.96407" pt_clust_4="66.99420" pt_clust_5="66.99420" pt_clust_6="144.97399"></scales>
<clustering>
<clus scale="   31.964">  1  3  2 -1</clus>
<clus scale="   66.994">  4  5 -1 -1</clus>
<clus scale="  144.974">  2  6  1 -1</clus>
<clus scale="   31.964">  1  3  2 -1</clus>
</clustering>
</event>
<event>
 6    0  0.1230761E+002  0.1341704E+03  0.7546771E-02  0.1221396E+00
         -1   -1    0    0    0  501 -0.00000000000E+00  0.00000000000E+00  0.35634940713E+04  0.35634940713E+04  0.00000000000E+00 0.  1.
         21   -1    0    0  503  502  0.00000000000E+00 -0.00000000000E+00 -0.56864043906E+02  0.56864043906E+02  0.00000000000E+00 0. -1.
         21    1    1    2  503  504  0.10137094590E+03 -0.12150025400E+03  0.12717811141E+03  0.20300899590E+03  0.00000000000E+00 0. -1.
         21    1    1    2  504  505 -0.11989547470E+03  0.19249763828E+02  0.20493829307E+03  0.23821247286E+03  0.00000000000E+00 0. -1.
         21    1    1    2  505  501  0.21935850414E+02 -0.29961118854E+02  0.91783859082E+03  0.91858942350E+03  0.00000000000E+00 0.  1.
         -1    1    1    2    0  502 -0.34113216179E+01  0.13221160902E+03  0.22566750321E+04  0.22605472229E+04  0.00000000000E+00 0.  1.
<scales pt_clust_3="14000.00000" pt_clust_4="134.17044" pt_clust_5="37.13287" pt_clust_6="107.72465"></scales>
<clustering>
<clus scale="   37.133">  1  5  2 -1</clus>
<clus scale="  107.725">  1  6  2 -1</clus>
<clus scale="  134.170">  1  4  2 -1</clus>
<clus scale="  134.170">  2  3  1 -1</clus>
</clustering>
</event>
<event>
 6    0  0.1230761E+002  0.1986946E+03  0.7546771E-02  0.1150845E+00
         21   -1    0    0  501  502  0.00000000000E+00  0.00000000000E+00  0.71835996280E+02  0.71835996280E+02  0.00000000000E+00 0. -1.
          3   -1    0    0  505    0 -0.00000000000E+00 -0.00000000000E+00 -0.12627782823E+04  0.12627782823E+04  0.00000000000E+00 0. -1.
         21    1    1    2  503  502  0.29974283308E+02 -0.79912638636E+01  0.40599341299E+01  0.31285795868E+02  0.00000000000E+00 0.  1.
         21    1    1    2  504  503  0.30959908344E+01 -0.41344358795E+02  0.11614834550E+01  0.41476381318E+02  0.00000000000E+00 0. -1.
         21    1    1    2  505  504 -0.80699594221E+01 -0.17411140265E+03 -0.45111688660E+03  0.48361797956E+03  0.00000000000E+00 0. -1.
          3    1    1    2  501    0 -0.25000314720E+02  0.22344702531E+03 -0.74504681697E+03  0.77823412180E+03  0.00000000000E+00 0. -1.
<scales pt_clust_3="31.02125" pt_clust_4="46.91665" pt_clust_5="198.69464" pt_clust_6="14000.00000"></scales>
<clustering>
<clus scale="   31.021">  1  3  2 -1</clus>
<clus scale="   46.917">  1  4  2 -1</clus>
<clus scale="  198.695">  2  5  1 -1</clus>
<clus scale="   31.021">  1  3  2 -1</clus>
</clustering>
</event>
<event>
 6    0  0.1230761E+002  0.1412817E+03  0.7546771E-02  0.1211615E+00
          2   -1    0    0  503    0 -0.00000000000E+00  0.00000000000E+00  0.21822137815E+03  0.21822137815E+03  0.00000000000E+00 0. -1.
         21   -1    0    0  504  502  0.00000000000E+00 -0.00000000000E+00 -0.37747224144E+03  0.37747224144E+03  0.00000000000E+00 0. -1.
         21    1    1    2  503  505  0.33722117881E+02 -0.19995104693E+02  0.83708457685E+02  0.92434254116E+02  0.00000000000E+00 0. -1.
         21    1    1    2  504  501  0.43014624705E+02  0.81317181902E+02 -0.22623991938E+03  0.24422785085E+03  0.00000000000E+00 0. -1.
         21    1    1    2  505  502 -0.77091810482E+01  0.71497467480E+02 -0.69796345251E+02  0.10021401668E+03  0.00000000000E+00 0. -1.
          2    1    1    2  501    0 -0.69027561538E+02 -0.13281954469E+03  0.53076943655E+02  0.15881749794E+03  0.00000000000E+00 0. -1.
<scales pt_clust_3="39.20441" pt_clust_4="141.28171" pt_clust_5="69.26351" pt_clust_6="14000.00000"></scales>
<clustering>
<clus scale="   39.204">  1  3  2 -1</clus>
<clus scale="   69.264">  2  5  1 -1</clus>
<clus scale="  141.282">  2  4  1 -1</clus>
<clus scale="   69.264">  2  3  1 -1</clus>
</clustering>
</event>
<event>
 6    0  0.1230761E+002  0.1149310E+03  0.7546771E-02  0.1251702E+00
          1   -1    0    0  503    0 -0.00000000000E+00  0.00000000000E+00  0.12470314270E+04  0.12470314270E+04  0.00000000000E+00 0. -1.
         21   -1    0    0  504  502  0.00000000000E+00 -0.00000000000E+00 -0.12881693897E+04  0.12881693897E+04  0.00000000000E+00 0.  1.
         21    1    1    2  503  505 -0.28502245940E+02 -0.29310869008E+02  0.14243706696E+03  0.14818847158E+03  0.00000000000E+00 0.  1.
         21    1    1    2  504  501  0.67847101980E+01  0.74602216181E+02 -0.12065325420E+04  0.12088557804E+04  0.00000000000E+00 0.  1.
         21    1    1    2  505  502 -0.31672896774E+02  0.38026974067E+02 -0.67233310225E+02  0.83483777769E+02  0.00000000000E+00 0.  1.
          1    1    1    2  501    0  0.53390432516E+02 -0.83318321240E+02  0.10901908225E+04  0.10946727869E+04  0.00000000000E+00 0. -1.
<scales pt_clust_3="40.88404" pt_clust_4="114.93103" pt_clust_5="49.45896" pt_clust_6="14000.00000"></scales>
<clustering>
<clus scale="   40.884">  1  3  2 -1</clus>
<clus scale="   49.459">  2  5  1 -1</clus>
<clus scale="  114.931">  2  4  1 -1</clus>
<clus scale="   49.459">  2  3  1 -1</clus>
</clustering>
</event>
<event>
 6    0  0.1230761E+002  0.1987455E+03  0.7546771E-02  0.1150802E+00
         -2   -1    0    0    0  501 -0.00000000000E+00  0.00000000000E+00  0.81243379491E+02  0.81243379491E+02  0.00000000000E+00 0.  1.
         21   -1    0    0  503  502  0.00000000000E+00 -0.00000000000E+00 -0.73123740835E+03  0.73123740835E+03  0.00000000000E+00 0. -1.
         21    1    1    2  503  505  0.62320593842E+02 -0.13774550776E+03 -0.46363604409E+03  0.48766388292E+03  0.00000000000E+00 0. -1.
         21    1    1    2  504  502 -0.38656862283E+02  0.21994381132E+02 -0.53937926029E+02  0.69909982601E+02  0.00000000000E+00 0.  1.
         21    1    1    2  505  501  0.42526026546E+02 -0.11655136884E+02 -0.97707534520E+02  0.10719639664E+03  0.00000000000E+00 0. -1.
         -2    1    1    2    0  504 -0.66189758105E+02  0.12740626351E+03 -0.34712524218E+02  0.14771052568E+03  0.00000000000E+00 0.  1.
<scales pt_clust_3="196.85563" pt_clust_4="43.77683" pt_clust_5="39.82754" pt_clust_6="43.77683"></scales>
<clustering>
<clus scale="   39.828">  3  5 -1 -1</clus>
<clus scale="   43.777">  4  6 -1 -1</clus>
<clus scale="  196.856">  2  3  1 -1</clus>
<clus scale="  196.856">  2  3  1 -1</clus>
</clustering>
</event>
<event>
 6    0  0.1230761E+002  0.1649015E+03  0.7546771E-02  0.1183272E+00
          3   -1    0    0  505    0 -0.00000000000E+00  0.00000000000E+00  0.12795363845E+03  0.12795363845E+03  0.00000000000E+00 0. -1.
         21   -1    0    0  501  502  0.00000000000E+00 -0.00000000000E+00 -0.32689361973E+03  0.32689361973E+03  0.00000000000E+00 0. -1.
         21    1    1    2  503  504 -0.41161721440E+02 -0.15221688724E+01 -0.26554910799E+02  0.49007832002E+02  0.00000000000E+00 0. -1.
         21    1    1    2  504  502 -0.69632623725E+02 -0.91881092760E+02 -0.14845591827E+03  0.18796275473E+03  0.00000000000E+00 0. -1.
         21    1    1    2  505  503  0.52086912085E+01 -0.29836529614E+02  0.34026303659E+02  0.45553685956E+02  0.00000000000E+00 0.  1.
          3    1    1    2  501    0  0.10558565396E+03  0.12323979125E+03 -0.57955455869E+02  0.17232298550E+03  0.00000000000E+00 0. -1.
<scales pt_clust_3="39.25161" pt_clust_4="39.25161" pt_clust_5="30.28777" pt_clust_6="150.55161"></scales>
<clustering>
<clus scale="   30.288">  1  5  2 -1</clus>
<clus scale="   39.252">  3  4 -1 -1</clus>
<clus scale="  150.552">  1  6  2 -1</clus>
<clus scale="  164.901">  2  3  1 -1</clus>
</clustering>
</event>
<event>
 6    0  0.1230761E+002  0.9816370E+02  0.7546771E-02  0.1284206E+00
          1   -1    0    0  505    0 -0.00000000000E+00  0.00000000000E+00  0.78464326830E+03  0.78464326830E+03  0.00000000000E+00 0.  1.
         21   -1    0    0  504  502  0.00000000000E+00 -0.00000000000E+00 -0.30942180498E+03  0.30942180498E+03  0.00000000000E+00 0.  1.
         21    1    1    2  503  501 -0.34920359077E+02 -0.21881437320E+02 -0.18906057500E+03  0.19349968940E+03  0.00000000000E+00 0.  1.
         21    1    1    2  504  503 -0.23257975845E+02 -0.43653704827E+02 -0.99201798900E+02  0.11084934051E+03  0.00000000000E+00 0.  1.
         21    1    1    2  505  502 -0.26166714087E+02 -0.43019938980E+02  0.97970838467E+02  0.11015306290E+03  0.00000000000E+00 0.  1.
          1    1    1    2  501    0  0.84345049010E+02  0.10855508113E+03  0.66551299875E+03  0.67956298048E+03  0.00000000000E+00 0.  1.
<scales pt_clust_3="39.29731" pt_clust_4="39.29731" pt_clust_5="50.35288" pt_clust_6="88.21876"></scales>
<clustering>
<clus scale="   39.297">  3  4 -1 -1</clus>
<clus scale="   50.353">  1  5  2 -1</clus>
<clus scale="   88.219">  1  6  2 -1</clus>
<clus scale="   98.164">  2  3  1 -1</clus>
</clustering>
</event>
<event>
 6    0  0.1230761E+002  0.1906843E+03  0.7546771E-02  0.1157846E+00
         21   -1    0    0  504  502  0.00000000000E+00  0.00000000000E+00  0.22965311070E+03  0.22965311070E+03  0.00000000000E+00 0. -1.
          2   -1    0    0  503    0 -0.00000000000E+00 -0.00000000000E+00 -0.25267240032E+04  0.25267240032E+04  0.00000000000E+00 0. -1.
         21    1    1    2  503  505 -0.15289495358E+03 -0.27153565460E+01 -0.14381359199E+04  0.14462431207E+04  0.00000000000E+00 0. -1.
         21    1    1    2  504  501  0.15283756773E+03  0.93844301688E+02  0.74911819215E+02  0.19436526368E+03  0.00000000000E+00 0. -1.
         21    1    1    2  505  502 -0.62399415276E+01  0.35554936768E+02  0.83278254713E+02  0.90765401486E+02  0.00000000000E+00 0. -1.
          2    1    1    2  501    0  0.62973273803E+01 -0.12668388191E+03 -0.10171250465E+04  0.10250033281E+04  0.00000000000E+00 0. -1.
<scales pt_clust_3="14000.00000" pt_clust_4="190.68429" pt_clust_5="36.09834" pt_clust_6="125.85107"></scales>
<clustering>
<clus scale="   36.098">  1  5  2 -1</clus>
<clus scale="  125.851">  2  6  1 -1</clus>
<clus scale="  190.684">  1  4  2 -1</clus>
<clus scale="   36.098">  1  3  2 -1</clus>
</clustering>
</event>
<event>
 6    0  0.1230761E+002  0.1271229E+03  0.7546771E-02  0.1231788E+00
         21   -1    0    0  503  502  0.00000000000E+00  0.00000000000E+00  0.10731041225E+04  0.10731041225E+04  0.00000000000E+00 0.  1.
          1   -1    0    0  505    0 -0.00000000000E+00 -0.00000000000E+00 -0.21154882566E+03  0.21154882566E+03  0.00000000000E+00 0.  1.
         21    1    1    2  503  501 -0.14848431822E+02  0.37720168979E+02  0.47221111030E+03  0.47394790829E+03  0.00000000000E+00 0.  1.
         21    1    1    2  504  502  0.49374030368E+02  0.89909150160E+02  0.56208959666E+03  0.57137217715E+03  0.00000000000E+00 0.  1.
         21    1    1    2  505  504 -0.21131637376E+02 -0.28075331966E+02 -0.12166994160E+03  0.12664258783E+03  0.00000000000E+00 0.  1.
          1    1    1    2  501    0 -0.13393961170E+02 -0.99553987173E+02 -0.51075468563E+02  0.11269027485E+03  0.00000000000E+00 0.  1.
<scales pt_clust_3="40.35590" pt_clust_4="14000.00000" pt_clust_5="35.13930" pt_clust_6="127.12287"></scales>
<clustering>
<clus scale="   35.139">  2  5  1 -1</clus>
<clus scale="   40.356">  1  3  2 -1</clus>
<clus scale="  127.123">  2  6  1 -1</clus>
<clus scale="   40.356">  1  3  2 -1</clus>
</clustering>
</event>
<event>
 6    0  0.1230761E+002  0.7739222E+02  0.7546771E-02  0.1336619E+00
          2   -1    0    0  504    0 -0.00000000000E+00  0.00000000000E+00  0.17632262855E+04  0.17632262855E+04  0.00000000000E+00 0. -1.
         21   -1    0    0  505  502  0.00000000000E+00 -0.00000000000E+00 -0.21989510423E+03  0.21989510423E+03  0.00000000000E+00 0. -1.
         21    1    1    2  503  502 -0.50549654270E+02 -0.39703097567E+02 -0.19040069861E+03  0.20095778048E+03  0.00000000000E+00 0. -1.
         21    1    1    2  504  503 -0.46835677259E+02  0.10272820861E+02  0.51460369624E+03  0.51683273474E+03  0.00000000000E+00 0. -1.
         21    1    1    2  505  501 -0.23649371848E+02  0.18829576832E+02 -0.87386017622E+01  0.31467585120E+02  0.00000000000E+00 0. -1.
          2    1    1    2  501    0  0.12103470338E+03  0.10600699873E+02  0.12278667854E+04  0.12338632894E+04  0.00000000000E+00 0. -1.
<scales pt_clust_3="14000.00000" pt_clust_4="48.10047" pt_clust_5="30.22988" pt_clust_6="77.39222"></scales>
<clustering>
<clus scale="   30.230">  2  5  1 -1</clus>
<clus scale="   48.100">  1  4  2 -1</clus>
<clus scale="   77.392">  1  6  2 -1</clus>
<clus scale="   30.230">  2  3  1 -1</clus>
</clustering>
</event>
<event>
 6    0  0.1230761E+002  0.1064100E+03  0.7546771E-02  0.1267366E+00
          2   -1    0    0  505    0 -0.00000000000E+00  0.00000000000E+00  0.11410354537E+04  0.11410354537E+04  0.00000000000E+00 0. -1.
         21   -1    0    0  503  502  0.00000000000E+00 -0.00000000000E+00 -0.16091334186E+03  0.16091334186E+03  0.00000000000E+00 0. -1.
         21    1    1    2  503  504 -0.59403025149E+02 -0.54828281874E+02 -0.88475159917E+02  0.11984454019E+03  0.00000000000E+00 0. -1.
         21    1    1    2  504  501 -0.69052081669E+02 -0.10579934618E+02 -0.13306818222E+02  0.71113967759E+02  0.00000000000E+00 0. -1.
         21    1    1    2  505  502  0.26544109148E+02  0.26981832444E+02  0.18691219289E+02  0.42213394687E+02  0.00000000000E+00 0. -1.
          2    1    1    2  501    0  0.10191099767E+03  0.38426384048E+02  0.10632128707E+04  0.10687768930E+04  0.00000000000E+00 0. -1.
<scales pt_clust_3="54.45182" pt_clust_4="14000.00000" pt_clust_5="37.84982" pt_clust_6="106.40999"></scales>
<clustering>
<clus scale="   37.850">  2  5  1 -1</clus>
<clus scale="   54.452">  2  3  1 -1</clus>
<clus scale="  106.410">  1  6  2 -1</clus>
<clus scale="   37.850">  2  3  1 -1</clus>
</clustering>
</event>
<event>
 6    0  0.1230761E+002  0.1181281E+03  0.7546771E-02  0.1246217E+00
         21   -1    0    0  505  502  0.00000000000E+00  0.00000000000E+00  0.14632310713E+04  0.14632310713E+04  0.00000000000E+00 0. -1.
         -2   -1    0    0    0  501 -0.00000000000E+00 -0.00000000000E+00 -0.21320516549E+03  0.21320516549E+03  0.00000000000E+00 0.  1.
         21    1    1    2  503  501  0.78857512872E+01 -0.33405687824E+02  0.31501519202E+02  0.46588311456E+02  0.00000000000E+00 0. -1.
         21    1    1    2  504  502  0.77678264467E+01  0.11862667018E+03  0.13762581169E+04  0.13813830136E+04  0.00000000000E+00 0. -1.
         21    1    1    2  505  503  0.53081215325E+02 -0.23913854350E+02  0.80908139873E+01  0.58778815242E+02  0.00000000000E+00 0. -1.
         -2    1    1    2    0  504 -0.68734793059E+02 -0.61307128010E+02 -0.16582454426E+03  0.18968609649E+03  0.00000000000E+00 0.  1.
<scales pt_clust_3="34.32383" pt_clust_4="118.12809" pt_clust_5="60.88870" pt_clust_6="14000.00000"></scales>
<clustering>
<clus scale="   34.324">  2  3  1 -1</clus>
<clus scale="   60.889">  2  5  1 -1</clus>
<clus scale="  118.128">  1  4  2 -1</clus>
<clus scale="  118.128">  1  3  2 -1</clus>
</clustering>
</event>
<event>
 6    0  0.1230761E+002  0.8641540E+02  0.7546771E-02  0.1311772E+00
         21   -1    0    0  505  502  0.00000000000E+00  0.00000000000E+00  0.22201800485E+02  0.22201800485E+02  0.00000000000E+00 0.  1.
          2   -1    0    0  503    0 -0.00000000000E+00 -0.00000000000E+00 -0.17137231849E+04  0.17137231849E+04  0.00000000000E+00 0.  1.
         21    1    1    2  503  504 -0.19801585592E+02 -0.33952784586E+02 -0.64636750970E+03  0.64756146579E+03  0.00000000000E+00 0. -1.
         21    1    1    2  504  502  0.33243716074E+02  0.73677905406E+02 -0.14194847966E+03  0.16334916370E+03  0.00000000000E+00 0.  1.
         21    1    1    2  505  501 -0.48129850196E+02 -0.82096037705E+02 -0.22104652539E+03  0.24066118980E+03  0.00000000000E+00 0.  1.
          2    1    1    2  501    0  0.34687719714E+02  0.42370916885E+02 -0.68215886969E+03  0.68435316613E+03  0.00000000000E+00 0.  1.
<scales pt_clust_3="39.30514" pt_clust_4="86.41540" pt_clust_5="14000.00000" pt_clust_6="30.15914"></scales>
<clustering>
<clus scale="   39.305">  2  3  1 -1</clus>
<clus scale="   30.159">  2  6  1 -1</clus>
<clus scale="   86.415">  1  4  2 -1</clus>
<clus scale="   86.415">  1  3  2 -1</clus>
</clustering>
</event>
<event>
 6    0  0.1230761E+002  0.2439569E+03  0.7546771E-02  0.1117185E+00
         -3   -1    0    0    0  501 -0.00000000000E+00  0.00000000000E+00  0.25328236050E+03  0.25328236050E+03  0.00000000000E+00 0.  1.
         21   -1    0    0  505  502  0.00000000000E+00 -0.00000000000E+00 -0.76091877492E+03  0.76091877492E+03  0.00000000000E+00 0.  1.
         21    1    1    2  503  502 -0.48376747478E+02  0.33045943156E+02 -0.16108664646E+03  0.17140960219E+03  0.00000000000E+00 0.  1.
         21    1    1    2  504  503 -0.74410610347E+02  0.16993307959E+03 -0.48866277065E+03  0.52269062923E+03  0.00000000000E+00 0.  1.
         21    1    1    2  505  501 -0.29024935769E+02 -0.19728084237E+02  0.57837907405E+02  0.67652551593E+02  0.00000000000E+00 0.  1.
         -3    1    1    2    0  504  0.15181229359E+03 -0.18325093850E+03  0.84275095281E+02  0.25244835241E+03  0.00000000000E+00 0.  1.
<scales pt_clust_3="32.39800" pt_clust_4="32.39800" pt_clust_5="35.09479" pt_clust_6="237.04719"></scales>
<clustering>
<clus scale="   32.398">  3  4 -1 -1</clus>
<clus scale="   35.095">  1  5  2 -1</clus>
<clus scale="  237.047">  1  6  2 -1</clus>
<clus scale="  243.957">  2  3  1 -1</clus>
</clustering>
</event>
<event>
 6    0  0.1230761E+002  0.1317200E+03  0.7546771E-02  0.1224926E+00
          1   -1    0    0  503    0 -0.00000000000E+00  0.00000000000E+00  0.22566718159E+04  0.22566718159E+04  0.00000000000E+00 0. -1.
         21   -1    0    0  504  502  0.00000000000E+00 -0.00000000000E+00 -0.50937662602E+03  0.50937662602E+03  0.00000000000E+00 0. -1.
         21    1    1    2  503  502  0.93938551955E+02  0.10025489021E+03 -0.38008886360E+03  0.40415719564E+03  0.00000000000E+00 0. -1.
         21    1    1    2  504  505 -0.65778770796E+02  0.14257806843E+02 -0.10549157165E+03  0.12513434154E+03  0.00000000000E+00 0.  1.
         21    1    1    2  505  501 -0.17131808743E+01 -0.58006924218E+02  0.62988224129E+03  0.63254990012E+03  0.00000000000E+00 0. -1.
          1    1    1    2  501    0 -0.26446600284E+02 -0.56505772831E+02  0.16029933838E+04  0.16042070046E+04  0.00000000000E+00 0. -1.
<scales pt_clust_3="117.93390" pt_clust_4="67.30625" pt_clust_5="56.58128" pt_clust_6="56.58128"></scales>
<clustering>
<clus scale="   56.581">  5  6 -1 -1</clus>
<clus scale="   67.306">  2  4  1 -1</clus>
<clus scale="  117.934">  2  3  1 -1</clus>
<clus scale="   67.306">  2  3  1 -1</clus>
</clustering>
</event>
<event>
 6    0  0.1230761E+002  0.1687163E+03  0.7546771E-02  0.1179193E+00
          1   -1    0    0  505    0 -0.00000000000E+00  0.00000000000E+00  0.18055477410E+04  0.18055477410E+04  0.00000000000E+00 0.  1.
         21   -1    0    0  501  502  0.00000000000E+00 -0.00000000000E+00 -0.65709158251E+02  0.65709158251E+02  0.00000000000E+00 0. -1.
         21    1    1    2  503  504 -0.11044276339E+03 -0.43097462107E+02  0.50118490174E+02  0.12871230820E+03  0.00000000000E+00 0. -1.
         21    1    1    2  504  502 -0.39735503775E+02  0.26693133155E+02  0.13044986673E+02  0.49614567369E+02  0.00000000000E+00 0.  1.
         21    1    1    2  505  503 -0.31729341894E+02  0.10440172809E+02  0.92734831179E+02  0.98567222032E+02  0.00000000000E+00 0. -1.
          1    1    1    2  501    0  0.18190760906E+03  0.59641561419E+01  0.15839402747E+04  0.15943628017E+04  0.00000000000E+00 0.  1.
<scales pt_clust_3="44.89909" pt_clust_4="44.89909" pt_clust_5="33.40282" pt_clust_6="153.22194"></scales>
<clustering>
<clus scale="   33.403">  1  5  2 -1</clus>
<clus scale="   44.899">  3  4 -1 -1</clus>
<clus scale="  153.222">  1  6  2 -1</clus>
<clus scale="  168.716">  2  3  1 -1</clus>
</clustering>
</event>
<event>
 6    0  0.1230761E+002  0.1861434E+03  0.7546771E-02  0.1161986E+00
          2   -1    0    0  504    0 -0.00000000000E+00  0.00000000000E+00  0.35051917780E+04  0.35051917780E+04  0.00000000000E+00 0. -1.
         21   -1    0    0  503  502  0.00000000000E+00 -0.00000000000E+00 -0.99509091896E+02  0.99509091896E+02  0.00000000000E+00 0.  1.
         21    1    1    2  503  501  0.16913076827E+03  0.71184293534E+02  0.51104275656E+02  0.19048377205E+03  0.00000000000E+00 0.  1.
         21    1    1    2  504  505  0.72330582188E+02  0.40567920347E+02  0.54373478553E+03  0.55002271433E+03  0.00000000000E+00 0.  1.
         21    1    1    2  505  502 -0.16334069392E+02  0.28741919747E+02 -0.70754312065E+01  0.33807713623E+02  0.00000000000E+00 0. -1.
          2    1    1    2  501    0 -0.22512728107E+03 -0.14049413363E+03  0.28179190562E+04  0.28303866699E+04  0.00000000000E+00 0. -1.
<scales pt_clust_3="14000.00000" pt_clust_4="82.93352" pt_clust_5="33.05903" pt_clust_6="186.14336"></scales>
<clustering>
<clus scale="   33.059">  2  5  1 -1</clus>
<clus scale="   82.934">  1  4  2 -1</clus>
<clus scale="  186.143">  1  6  2 -1</clus>
<clus scale="   33.059">  2  3  1 -1</clus>
</clustering>
</event>
<event>
 6    0  0.1230761E+002  0.1247560E+03  0.7546771E-02  0.1235451E+00
          1   -1    0    0  503    0 -0.00000000000E+00  0.00000000000E+00  0.88537366504E+02  0.88537366504E+02  0.00000000000E+00 0. -1.
         21   -1    0    0  504  502  0.00000000000E+00 -0.00000000000E+00 -0.89416482431E+03  0.89416482431E+03  0.00000000000E+00 0. -1.
         21    1    1    2  503  505  0.37443137108E+02  0.52657847488E+00 -0.32431918273E+02  0.49538824413E+02  0.00000000000E+00 0. -1.
         21    1    1    2  504  501 -0.50166035280E+02 -0.10756617650E+03 -0.24042337270E+03  0.26812406003E+03  0.00000000000E+00 0. -1.
         21    1    1    2  505  502 -0.28316771120E+02  0.13475324265E+03 -0.58029293975E+03  0.59640604612E+03  0.00000000000E+00 0. -1.
          1    1    1    2  501    0  0.41039669292E+02 -0.27713644628E+02  0.47520772918E+02  0.68633260252E+02  0.00000000000E+00 0. -1.
<scales pt_clust_3="37.44684" pt_clust_4="124.75603" pt_clust_5="14000.00000" pt_clust_6="73.49820"></scales>
<clustering>
<clus scale="   37.447">  1  3  2 -1</clus>
<clus scale="   73.498">  1  6  2 -1</clus>
<clus scale="  124.756">  1  4  2 -1</clus>
<clus scale="  124.756">  2  3  1 -1</clus>
</clustering>
</event>
<event>
 6    0  0.1230761E+002  0.1869403E+03  0.7546771E-02  0.1161250E+00
         21   -1    0    0  505  502  0.00000000000E+00  0.00000000000E+00  0.45580113335E+03  0.45580113335E+03  0.00000000000E+00 0.  1.
          1   -1    0    0  504    0 -0.00000000000E+00 -0.00000000000E+00 -0.94941791959E+03  0.94941791959E+03  0.00000000000E+00 0.  1.
         21    1    1    2  503  502 -0.65111923966E+02 -0.16631384430E+03  0.26267850682E+03  0.31764737586E+03  0.00000000000E+00 0.  1.
         21    1    1    2  504  503  0.31231573251E+02  0.26937595783E+01 -0.89490334243E+02  0.94821872115E+02  0.00000000000E+00 0.  1.
         21    1    1    2  505  501 -0.57389647744E+02  0.22825713691E+02  0.14825124919E+03  0.16060204781E+03  0.00000000000E+00 0. -1.
          1    1    1    2  501    0  0.91269998460E+02  0.14079437103E+03 -0.81505620800E+03  0.83214775715E+03  0.00000000000E+00 0.  1.
<scales pt_clust_3="14000.00000" pt_clust_4="31.34753" pt_clust_5="61.56053" pt_clust_6="186.94034"></scales>
<clustering>
<clus scale="   31.348">  2  4  1 -1</clus>
<clus scale="   61.561">  1  5  2 -1</clus>
<clus scale="  186.940">  2  6  1 -1</clus>
<clus scale="   61.561">  1  3  2 -1</clus>
</clustering>
</event>
<event>
 6    0  0.1230761E+002  0.3755443E+03  0.7546771E-02  0.1052593E+00
         -3   -1    0    0    0  501 -0.00000000000E+00  0.00000000000E+00  0.77962245389E+03  0.77962245389E+03  0.00000000000E+00 0.  1.
         21   -1    0    0  503  502  0.00000000000E+00 -0.00000000000E+00 -0.13531667973E+04  0.13531667973E+04  0.00000000000E+00 0.  1.
         21    1    1    2  503  505 -0.19066016849E+03  0.57006104533E+02 -0.84801907131E+03  0.87105530312E+03  0.00000000000E+00 0.  1.
         21    1    1    2  504  502  0.29007868955E+03  0.85083649548E+02  0.35522600795E+03  0.46644441285E+03  0.00000000000E+00 0.  1.
         21    1    1    2  505  501 -0.15783871287E+03 -0.56185919337E+02 -0.41379136177E+03  0.44642267851E+03  0.00000000000E+00 0.  1.
         -3    1    1    2    0  504  0.58420191804E+02 -0.85903834744E+02  0.33304008175E+03  0.34886685668E+03  0.00000000000E+00 0.  1.
<scales pt_clust_3="136.84501" pt_clust_4="344.82318" pt_clust_5="136.84501" pt_clust_6="103.88642"></scales>
<clustering>
<clus scale="  103.886">  1  6  2 -1</clus>
<clus scale="  136.845">  3  5 -1 -1</clus>
<clus scale="  344.823">  1  4  2 -1</clus>
<clus scale="  375.544">  2  3  1 -1</clus>
</clustering>
</event>
<event>
 6    0  0.1230761E+002  0.1404767E+03  0.7546771E-02  0.1212689E+00
          2   -1    0    0  503    0 -0.00000000000E+00  0.00000000000E+00  0.65988782330E+03  0.65988782330E+03  0.00000000000E+00 0.  1.
         21   -1    0    0  501  502  0.00000000000E+00 -0.00000000000E+00 -0.14052751934E+03  0.14052751934E+03  0.00000000000E+00 0. -1.
         21    1    1    2  503  504  0.34305867953E+02  0.98278112989E+01  0.15441228965E+03  0.15848228180E+03  0.00000000000E+00 0.  1.
         21    1    1    2  504  505  0.16577630290E+02 -0.67372545516E+02 -0.76512254731E+02  0.10328602441E+03  0.00000000000E+00 0. -1.
         21    1    1    2  505  502 -0.11027363191E+02 -0.62157680300E+02 -0.15155718401E+02  0.64922074516E+02  0.00000000000E+00 0. -1.
          2    1    1    2  501    0 -0.39856135052E+02  0.11970241452E+03  0.45661598745E+03  0.47372496191E+03  0.00000000000E+00 0.  1.
<scales pt_clust_3="35.68583" pt_clust_4="52.64902" pt_clust_5="52.64902" pt_clust_6="129.04128"></scales>
<clustering>
<clus scale="   35.686">  1  3  2 -1</clus>
<clus scale="   52.649">  4  5 -1 -1</clus>
<clus scale="  129.041">  1  6  2 -1</clus>
<clus scale="  140.477">  2  3  1 -1</clus>
</clustering>
</event>
<event>
 6    0  0.1230761E+002  0.7330217E+02  0.7546771E-02  0.1349211E+00
         21   -1    0    0  505  502  0.00000000000E+00  0.00000000000E+00  0.72312176049E+02  0.72312176049E+02  0.00000000000E+00 0.  1.
          1   -1    0    0  503    0 -0.00000000000E+00 -0.00000000000E+00 -0.72948897592E+03  0.72948897592E+03  0.00000000000E+00 0.  1.
         21    1    1    2  503  504 -0.59967988754E+02  0.22119015215E+02 -0.37194443377E+03  0.37739643920E+03  0.00000000000E+00 0.  1.
         21    1    1    2  504  502  0.18232926639E+02  0.49046840199E+02 -0.64182208132E+01  0.52718362130E+02  0.00000000000E+00 0.  1.
         21    1    1    2  505  501 -0.46527149410E+02 -0.70845246352E+01  0.21821594809E+02  0.51876277060E+02  0.00000000000E+00 0.  1.
          1    1    1    2  501    0  0.88262211526E+02 -0.64081330778E+02 -0.30063574009E+03  0.31981007357E+03  0.00000000000E+00 0.  1.
<scales pt_clust_3="14000.00000" pt_clust_4="46.05100" pt_clust_5="47.06343" pt_clust_6="73.30217"></scales>
<clustering>
<clus scale="   47.063">  1  5  2 -1</clus>
<clus scale="   46.051">  1  4  2 -1</clus>
<clus scale="   73.302">  1  6  2 -1</clus>
<clus scale="   47.063">  1  3  2 -1</clus>
</clustering>
</event>
<event>
 6    0  0.1230761E+002  0.1419988E+03  0.7546771E-02  0.1210664E+00
          2   -1    0    0  504    0 -0.00000000000E+00  0.00000000000E+00  0.49396620627E+02  0.49396620627E+02  0.00000000000E+00 0. -1.
         21   -1    0    0  501  502  0.00000000000E+00 -0.00000000000E+00 -0.14585221643E+04  0.14585221643E+04  0.00000000000E+00 0. -1.
         21    1    1    2  503  502  0.40534462723E+02 -0.78548135378E+02 -0.75911409622E+03  0.76424280390E+03  0.00000000000E+00 0. -1.
         21    1    1    2  504  505  0.21007400323E+02 -0.24588048849E+02 -0.72159206691E+02  0.79074864052E+02  0.00000000000E+00 0.  1.
         21    1    1    2  505  503 -0.61964098246E+01 -0.50767515317E+02 -0.46043035585E+03  0.46326218138E+03  0.00000000000E+00 0. -1.
          2    1    1    2  501    0 -0.55345453221E+02  0.15390369954E+03 -0.11742188489E+03  0.20133893557E+03  0.00000000000E+00 0. -1.
<scales pt_clust_3="30.21859" pt_clust_4="32.34011" pt_clust_5="30.21859" pt_clust_6="136.32855"></scales>
<clustering>
<clus scale="   30.219">  3  5 -1 -1</clus>
<clus scale="   32.340">  1  4  2 -1</clus>
<clus scale="  136.329">  1  6  2 -1</clus>
<clus scale="  141.999">  2  3  1 -1</clus>
</clustering>
</event>
<event>
 6    0  0.1230761E+002  0.1200663E+03  0.7546771E-02  0.1242988E+00
         21   -1    0    0  503  502  0.00000000000E+00  0.00000000000E+00  0.10058353488E+04  0.10058353488E+04  0.00000000000E+00 0.  1.
          2   -1    0    0  502    0 -0.00000000000E+00 -0.00000000000E+00 -0.77437857667E+02  0.77437857667E+02  0.00000000000E+00 0.  1.
         21    1    1    2  503  505  0.60393738271E+02  0.64253749501E+02  0.77621215157E+03  0.78120500011E+03  0.00000000000E+00 0.  1.
         21    1    1    2  504  501  0.24711986768E+02 -0.56064936659E+02  0.33385297502E+02  0.69774905961E+02  0.00000000000E+00 0. -1.
         21    1    1    2  505  504  0.23255373877E+02 -0.50970965856E+02  0.99522247897E+02  0.11420827291E+03  0.00000000000E+00 0.  1.
          2    1    1    2  501    0 -0.10836109892E+03  0.42782153013E+02  0.19277794191E+02  0.11808502752E+03  0.00000000000E+00 0.  1.
<scales pt_clust_3="88.18134" pt_clust_4="47.11732" pt_clust_5="47.11732" pt_clust_6="109.49005"></scales>
<clustering>
<clus scale="   47.117">  4  5 -1 -1</clus>
<clus scale="   88.181">  1  3  2 -1</clus>
<clus scale="  109.490">  2  6  1 -1</clus>
<clus scale="   88.181">  1  3  2 -1</clus>
</clustering>
</event>
<event>
 6    0  0.1230761E+002  0.7506879E+02  0.7546771E-02  0.1343658E+00
          2   -1    0    0  505    0 -0.00000000000E+00  0.00000000000E+00  0.16503563937E+04  0.16503563937E+04  0.00000000000E+00 0.  1.
         21   -1    0    0  504  502  0.00000000000E+00 -0.00000000000E+00 -0.17575881333E+03  0.17575881333E+03  0.00000000000E+00 0.  1.
         21    1    1    2  503  502  0.11982436333E+03 -0.49166311164E+01 -0.14108141337E+03  0.18516483604E+03  0.00000000000E+00 0.  1.
         21    1    1    2  504  501 -0.48399517459E+02 -0.18604654938E+02  0.52098185277E+02  0.73504199776E+02  0.00000000000E+00 0. -1.
         21    1    1    2  505  503 -0.33835781766E+00  0.34089296954E+02  0.32527083590E+03  0.32705245962E+03  0.00000000000E+00 0.  1.
          2    1    1    2  501    0 -0.71086488054E+02 -0.10568010899E+02  0.12383099726E+04  0.12403937116E+04  0.00000000000E+00 0.  1.
<scales pt_clust_3="14000.00000" pt_clust_4="51.30942" pt_clust_5="34.09098" pt_clust_6="75.06879"></scales>
<clustering>
<clus scale="   34.091">  1  5  2 -1</clus>
<clus scale="   51.309">  2  4  1 -1</clus>
<clus scale="   75.069">  1  6  2 -1</clus>
<clus scale="   51.309">  2  3  1 -1</clus>
</clustering>
</event>
<event>
 6    0  0.1230761E+002  0.2394404E+03  0.7546771E-02  0.1120166E+00
          1   -1    0    0  504    0 -0.00000000000E+00  0.00000000000E+00  0.93277754969E+03  0.93277754969E+03  0.00000000000E+00 0.  1.
         21   -1    0    0  503  502  0.00000000000E+00 -0.00000000000E+00 -0.10445794762E+03  0.10445794762E+03  0.00000000000E+00 0. -1.
         21    1    1    2  503  501  0.21929278516E+02  0.63526103485E+02 -0.11814888112E+02  0.68235259663E+02  0.00000000000E+00 0. -1.
         21    1    1    2  504  505 -0.40860856605E+01  0.60321013168E+02  0.12469310367E+03  0.13857738210E+03  0.00000000000E+00 0.  1.
         21    1    1    2  505  502  0.18506044584E+02  0.12504797394E+03  0.86843372891E+02  0.15336636166E+03  0.00000000000E+00 0. -1.
          1    1    1    2  501    0 -0.36349237440E+02 -0.24889509060E+03  0.62859801362E+03  0.67705649388E+03  0.00000000000E+00 0.  1.
<scales pt_clust_3="67.20461" pt_clust_4="53.18348" pt_clust_5="53.18348" pt_clust_6="226.75505"></scales>
<clustering>
<clus scale="   53.183">  4  5 -1 -1</clus>
<clus scale="   67.205">  2  3  1 -1</clus>
<clus scale="  226.755">  1  6  2 -1</clus>
<clus scale="   67.205">  2  3  1 -1</clus>
</clustering>
</event>
<event>
 6    0  0.1230761E+002  0.4548739E+03  0.7546771E-02  0.1026278E+00
         21   -1    0    0  505  502  0.00000000000E+00  0.00000000000E+00  0.70138782736E+03  0.70138782736E+03  0.00000000000E+00 0. -1.
          2   -1    0    0  504    0 -0.00000000000E+00 -0.00000000000E+00 -0.69174244617E+03  0.69174244617E+03  0.00000000000E+00 0. -1.
         21    1    1    2  503  501  0.42604764682E+03 -0.82457785215E+02  0.33261549290E+03  0.54676224250E+03  0.00000000000E+00 0. -1.
         21    1    1    2  504  502 -0.18751425984E+03  0.16861315199E+03 -0.62748293762E+02  0.25986408185E+03  0.00000000000E+00 0.  1.
         21    1    1    2  505  503  0.46467809993E+02 -0.21645764861E+02  0.10614570343E+03  0.11787581117E+03  0.00000000000E+00 0. -1.
          2    1    1    2  501    0 -0.28500119698E+03 -0.64509601913E+02 -0.36636752137E+03  0.46862813801E+03  0.00000000000E+00 0. -1.
<scales pt_clust_3="42.26772" pt_clust_4="252.17453" pt_clust_5="42.26772" pt_clust_6="437.93416"></scales>
<clustering>
<clus scale="   42.268">  3  5 -1 -1</clus>
<clus scale="  252.175">  2  4  1 -1</clus>
<clus scale="  437.934">  2  6  1 -1</clus>
<clus scale="  454.874">  1  3  2 -1</clus>
</clustering>
</event>
<event>
 6    0  0.1230761E+002  0.1118808E+03  0.7546771E-02  0.1257126E+00
         21   -1    0    0  503  502  0.00000000000E+00  0.00000000000E+00  0.19058729196E+04  0.19058729196E+04  0.00000000000E+00 0.  1.
         -1   -1    0    0    0  501 -0.00000000000E+00 -0.00000000000E+00 -0.81162486727E+03  0.81162486727E+03  0.00000000000E+00 0. -1.
         21    1    1    2  503  505  0.15662496620E+02 -0.46019874734E+02  0.17284271779E+04  0.17291106535E+04  0.00000000000E+00 0.  1.
         21    1    1    2  504  502 -0.25383307746E+02 -0.68153652134E+02  0.15730197614E+03  0.17330073372E+03  0.00000000000E+00 0.  1.
         21    1    1    2  505  501  0.40010762567E+02 -0.10545385134E+02 -0.62913291681E+02  0.75300388704E+02  0.00000000000E+00 0.  1.
         -1    1    1    2    0  504 -0.30289951441E+02  0.12471891200E+03 -0.72856781004E+03  0.73978601095E+03  0.00000000000E+00 0. -1.
<scales pt_clust_3="48.62270" pt_clust_4="14000.00000" pt_clust_5="41.37712" pt_clust_6="111.88082"></scales>
<clustering>
<clus scale="   41.377">  2  5  1 -1</clus>
<clus scale="   48.623">  1  3  2 -1</clus>
<clus scale="  111.881">  2  6  1 -1</clus>
<clus scale="   48.623">  1  3  2 -1</clus>
</clustering>
</event>
<event>
 6    0  0.1230761E+002  0.8788195E+02  0.7546771E-02  0.1308063E+00
          1   -1    0    0  505    0 -0.00000000000E+00  0.00000000000E+00  0.30106252666E+03  0.30106252666E+03  0.00000000000E+00 0. -1.
         21   -1    0    0  503  502  0.00000000000E+00 -0.00000000000E+00 -0.92437105190E+03  0.92437105190E+03  0.00000000000E+00 0. -1.
         21    1    1    2  503  504  0.33535284085E+02 -0.83956200805E+02 -0.76185354924E+03  0.76719885911E+03  0.00000000000E+00 0. -1.
         21    1    1    2  504  501 -0.75569754683E+02  0.14678172786E+02  0.77367067338E+02  0.10914164965E+03  0.00000000000E+00 0. -1.
         21    1    1    2  505  502  0.40574896971E+02  0.33326496502E+02 -0.13749943829E+03  0.14718380741E+03  0.00000000000E+00 0. -1.
          1    1    1    2  501    0  0.14595736265E+01  0.35951531517E+02  0.19867739495E+03  0.20190926239E+03  0.00000000000E+00 0. -1.
<scales pt_clust_3="14000.00000" pt_clust_4="87.88195" pt_clust_5="53.67313" pt_clust_6="35.98115"></scales>
<clustering>
<clus scale="   35.981">  1  6  2 -1</clus>
<clus scale="   53.673">  2  5  1 -1</clus>
<clus scale="   87.882">  1  4  2 -1</clus>
<clus scale="   53.673">  2  3  1 -1</clus>
</clustering>
</event>
<event>
 6    0  0.1230761E+002  0.2130476E+03  0.7546771E-02  0.1139175E+00
         21   -1    0    0  505  502  0.00000000000E+00  0.00000000000E+00  0.52563709592E+03  0.52563709592E+03  0.00000000000E+00 0. -1.
         -4   -1    0    0    0  501 -0.00000000000E+00 -0.00000000000E+00 -0.41233131838E+03  0.41233131838E+03  0.00000000000E+00 0. -1.
         21    1    1    2  503  501 -0.13307346818E+02  0.36721917644E+02 -0.14769517532E+03  0.15277254180E+03  0.00000000000E+00 0. -1.
         21    1    1    2  504  502  0.23079023409E+03 -0.14252627303E+03  0.35938063977E+03  0.45025805367E+03  0.00000000000E+00 0. -1.
         21    1    1    2  505  503 -0.28263498351E+02  0.78195433586E+02  0.46282568930E+02  0.95160009245E+02  0.00000000000E+00 0. -1.
         -4    1    1    2    0  504 -0.18921938892E+03  0.27608921802E+02 -0.14466225584E+03  0.23977780959E+03  0.00000000000E+00 0. -1.
<scales pt_clust_3="39.05873" pt_clust_4="14000.00000" pt_clust_5="86.78851" pt_clust_6="213.04756"></scales>
<clustering>
<clus scale="   39.059">  2  3  1 -1</clus>
<clus scale="   86.789">  1  5  2 -1</clus>
<clus scale="  213.048">  2  6  1 -1</clus>
<clus scale="   86.789">  1  3  2 -1</clus>
</clustering>
</event>
<event>
 6    0  0.1230761E+002  0.1137118E+03  0.7546771E-02  0.1253847E+00
         21   -1    0    0  501  502  0.00000000000E+00  0.00000000000E+00  0.22914452660E+03  0.22914452660E+03  0.00000000000E+00 0.  1.
          2   -1    0    0  503    0 -0.00000000000E+00 -0.00000000000E+00 -0.20256392068E+03  0.20256392068E+03  0.00000000000E+00 0.  1.
         21    1    1    2  503  505  0.41039769644E+01 -0.51622785121E+02 -0.77751873593E+02  0.93418993882E+02  0.00000000000E+00 0.  1.
         21    1    1    2  504  502 -0.26061244642E+02 -0.37833115684E+02  0.81754417602E+01  0.46662307729E+02  0.00000000000E+00 0.  1.
         21    1    1    2  505  504 -0.63141802117E+02 -0.42397901804E+02  0.11038828127E+03  0.13405238489E+03  0.00000000000E+00 0.  1.
          2    1    1    2  501    0  0.85099069794E+02  0.13185380261E+03 -0.14231243514E+02  0.15757476078E+03  0.00000000000E+00 0.  1.
<scales pt_clust_3="53.18191" pt_clust_4="45.94054" pt_clust_5="113.71184" pt_clust_6="14000.00000"></scales>
<clustering>
<clus scale="   45.941">  1  4  2 -1</clus>
<clus scale="   53.182">  2  3  1 -1</clus>
<clus scale="  113.712">  1  5  2 -1</clus>
<clus scale="   45.941">  1  3  2 -1</clus>
</clustering>
</event>
<event>
 6    0  0.1230761E+002  0.1209927E+03  0.7546771E-02  0.1241468E+00
         21   -1    0    0  501  502  0.00000000000E+00  0.00000000000E+00  0.45991550127E+03  0.45991550127E+03  0.00000000000E+00 0. -1.
          2   -1    0    0  503    0 -0.00000000000E+00 -0.00000000000E+00 -0.97365733930E+03  0.97365733930E+03  0.00000000000E+00 0. -1.
         21    1    1    2  503  505 -0.27223172288E+02  0.17876851176E+02 -0.74751367680E+03  0.74822281436E+03  0.00000000000E+00 0. -1.
         21    1    1    2  504  502 -0.69497207128E+02  0.97049366835E+02  0.36305699461E+03  0.38217642881E+03  0.00000000000E+00 0. -1.
         21    1    1    2  505  504  0.61171492424E+02  0.46492975071E+02  0.21133912595E+02  0.79688082408E+02  0.00000000000E+00 0. -1.
          2    1    1    2  501    0  0.35548886992E+02 -0.16141919308E+03 -0.15041906844E+03  0.22348551499E+03  0.00000000000E+00 0. -1.
<scales pt_clust_3="32.56813" pt_clust_4="14000.00000" pt_clust_5="75.53188" pt_clust_6="120.99268"></scales>
<clustering>
<clus scale="   32.568">  2  3  1 -1</clus>
<clus scale="   75.532">  2  5  1 -1</clus>
<clus scale="  120.993">  2  6  1 -1</clus>
<clus scale="  120.993">  1  3  2 -1</clus>
</clustering>
</event>
<event>
 6    0  0.1230761E+002  0.7920308E+02  0.7546771E-02  0.1331328E+00
         -2   -1    0    0    0  501 -0.00000000000E+00  0.00000000000E+00  0.11031021395E+04  0.11031021395E+04  0.00000000000E+00 0. -1.
         21   -1    0    0  503  502  0.00000000000E+00 -0.00000000000E+00 -0.11879184124E+03  0.11879184124E+03  0.00000000000E+00 0.  1.
         21    1    1    2  503  501 -0.67843461964E+01 -0.31661950339E+02  0.29598852366E+03  0.29775445016E+03  0.00000000000E+00 0. -1.
         21    1    1    2  504  505 -0.83101347800E+02 -0.40163085369E+01 -0.45800499044E+02  0.94971840317E+02  0.00000000000E+00 0.  1.
         21    1    1    2  505  502  0.26745057743E+02  0.62677201881E+02 -0.20706708732E+02  0.71221468223E+02  0.00000000000E+00 0.  1.
         -2    1    1    2    0  504  0.63140636254E+02 -0.26998943005E+02  0.75482898233E+03  0.75794622199E+03  0.00000000000E+00 0. -1.
<scales pt_clust_3="32.38065" pt_clust_4="79.20308" pt_clust_5="67.14947" pt_clust_6="14000.00000"></scales>
<clustering>
<clus scale="   32.381">  1  3  2 -1</clus>
<clus scale="   67.149">  2  5  1 -1</clus>
<clus scale="   79.203">  2  4  1 -1</clus>
<clus scale="   67.149">  2  3  1 -1</clus>
</clustering>
</event>
<event>
 6    0  0.1230761E+002  0.1954591E+03  0.7546771E-02  0.1153628E+00
         21   -1    0    0  504  502  0.00000000000E+00  0.00000000000E+00  0.29005051880E+03  0.29005051880E+03  0.00000000000E+00 0. -1.
          4   -1    0    0  502    0 -0.00000000000E+00 -0.00000000000E+00 -0.61081310515E+03  0.61081310515E+03  0.00000000000E+00 0.  1.
         21    1    1    2  503  501  0.53385198325E+02 -0.48397387954E+02  0.24729380587E+02  0.76182864381E+02  0.00000000000E+00 0. -1.
         21    1    1    2  504  505  0.11236154224E+02 -0.57458242452E+02  0.16460966334E+03  0.17471131060E+03  0.00000000000E+00 0. -1.
         21    1    1    2  505  503  0.20711232727E+02 -0.74449602107E+02  0.23116354589E+02  0.80660177686E+02  0.00000000000E+00 0. -1.
          4    1    1    2  501    0 -0.85332585276E+02  0.18030523251E+03 -0.53321798486E+03  0.56930927128E+03  0.00000000000E+00 0.  1.
<scales pt_clust_3="40.15090" pt_clust_4="58.54657" pt_clust_5="40.15090" pt_clust_6="190.98536"></scales>
<clustering>
<clus scale="   40.151">  3  5 -1 -1</clus>
<clus scale="   58.547">  1  4  2 -1</clus>
<clus scale="  190.985">  2  6  1 -1</clus>
<clus scale="   58.547">  1  3  2 -1</clus>
</clustering>
</event>
<event>
 6    0  0.1230761E+002  0.1479316E+03  0.7546771E-02  0.1203038E+00
         21   -1    0    0  501  502  0.00000000000E+00  0.00000000000E+00  0.24927968286E+03  0.24927968286E+03  0.00000000000E+00 0.  1.
          2   -1    0    0  504    0 -0.00000000000E+00 -0.00000000000E+00 -0.47138722698E+03  0.47138722698E+03  0.00000000000E+00 0. -1.
         21    1    1    2  503  505  0.11655227378E+02  0.75124707350E+02 -0.92647574849E+02  0.11984631452E+03  0.00000000000E+00 0. -1.
         21    1    1    2  504  503 -0.25573524473E+02  0.25169644969E+02 -0.93765057923E+02  0.10039622637E+03  0.00000000000E+00 0. -1.
         21    1    1    2  505  502 -0.10263277365E+03 -0.11538225995E+03  0.19067575618E+03  0.24536461875E+03  0.00000000000E+00 0.  1.
          2    1    1    2  501    0  0.11655107074E+03  0.15087907635E+02 -0.22637066753E+03  0.25505975019E+03  0.00000000000E+00 0. -1.
<scales pt_clust_3="82.38649" pt_clust_4="35.88198" pt_clust_5="147.93155" pt_clust_6="14000.00000"></scales>
<clustering>
<clus scale="   35.882">  2  4  1 -1</clus>
<clus scale="   82.386">  2  3  1 -1</clus>
<clus scale="  147.932">  1  5  2 -1</clus>
<clus scale="  147.932">  1  3  2 -1</clus>
</clustering>
</event>
<event>
 6    0  0.1230761E+002  0.1551719E+03  0.7546771E-02  0.1194258E+00
          2   -1    0    0  503    0 -0.00000000000E+00  0.00000000000E+00  0.22209946700E+04  0.22209946700E+04  0.00000000000E+00 0.  1.
         21   -1    0    0  505  502  0.00000000000E+00 -0.00000000000E+00 -0.21200323465E+03  0.21200323465E+03  0.00000000000E+00 0.  1.
         21    1    1    2  503  504 -0.31600791858E+02 -0.39913622705E+02  0.15272554780E+03  0.16098695684E+03  0.00000000000E+00 0. -1.
         21    1    1    2  504  502  0.22616863352E+02 -0.37832169685E+02 -0.35394545181E+02  0.56529367585E+02  0.00000000000E+00 0.  1.
         21    1    1    2  505  501  0.13158388898E+03  0.65526617000E+02 -0.12627577601E+03  0.19378758727E+03  0.00000000000E+00 0.  1.
          2    1    1    2  501    0 -0.12259996047E+03  0.12219175390E+02  0.20179362087E+04  0.20216939929E+04  0.00000000000E+00 0.  1.
<scales pt_clust_3="51.30770" pt_clust_4="44.07715" pt_clust_5="155.17185" pt_clust_6="14000.00000"></scales>
<clustering>
<clus scale="   44.077">  2  4  1 -1</clus>
<clus scale="   51.308">  1  3  2 -1</clus>
<clus scale="  155.172">  2  5  1 -1</clus>
<clus scale="   44.077">  2  3  1 -1</clus>
</clustering>
</event>
<event>
 6    0  0.1230761E+002  0.6565557E+02  0.7546771E-02  0.1375522E+00
         21   -1    0    0  505  502  0.00000000000E+00  0.00000000000E+00  0.86898169524E+02  0.86898169524E+02  0.00000000000E+00 0. -1.
         -2   -1    0    0    0  501 -0.00000000000E+00 -0.00000000000E+00 -0.14204666184E+04  0.14204666184E+04  0.00000000000E+00 0.  1.
         21    1    1    2  503  504 -0.64525271472E+01 -0.63595146748E+02 -0.14420870705E+03  0.15774070174E+03  0.00000000000E+00 0.  1.
         21    1    1    2  504  502  0.83602710466E+02  0.13095767691E+02 -0.65041262557E+02  0.10672993096E+03  0.00000000000E+00 0. -1.
         21    1    1    2  505  501 -0.61889232015E+02  0.92841704086E+01  0.42243304909E+02  0.75504765871E+02  0.00000000000E+00 0.  1.
         -2    1    1    2    0  503 -0.15260951304E+02  0.41215208649E+02 -0.11665617842E+04  0.11673893894E+04  0.00000000000E+00 0.  1.
<scales pt_clust_3="42.02735" pt_clust_4="14000.00000" pt_clust_5="65.65557" pt_clust_6="43.94986"></scales>
<clustering>
<clus scale="   43.950">  2  6  1 -1</clus>
<clus scale="   42.027">  2  3  1 -1</clus>
<clus scale="   65.656">  1  5  2 -1</clus>
<clus scale="   65.656">  1  3  2 -1</clus>
</clustering>
</event>
<event>
 6    0  0.1230761E+002  0.1464689E+03  0.7546771E-02  0.1204880E+00
         21   -1    0    0  504  502  0.00000000000E+00  0.00000000000E+00  0.45461385228E+02  0.45461385228E+02  0.00000000000E+00 0.  1.
         -2   -1    0    0    0  501 -0.00000000000E+00 -0.00000000000E+00 -0.10536648534E+04  0.10536648534E+04  0.00000000000E+00 0. -1.
         21    1    1    2  503  505 -0.33818313483E+02  0.32424580950E+02 -0.69347818978E+02  0.83690810569E+02  0.00000000000E+00 0. -1.
         21    1    1    2  504  501 -0.28391276584E+02 -0.22562186338E+02 -0.84606013713E+02  0.92050499155E+02  0.00000000000E+00 0. -1.
         21    1    1    2  505  502 -0.43273068612E+02  0.81189539820E+02 -0.45351187395E+02  0.10257207242E+03  0.00000000000E+00 0.  1.
         -2    1    1    2    0  503  0.10548265868E+03 -0.91051934433E+02 -0.80889844812E+03  0.82081285651E+03  0.00000000000E+00 0. -1.
<scales pt_clust_3="37.26897" pt_clust_4="36.26454" pt_clust_5="37.26897" pt_clust_6="136.99051"></scales>
<clustering>
<clus scale="   36.265">  2  4  1 -1</clus>
<clus scale="   37.269">  3  5 -1 -1</clus>
<clus scale="  136.991">  2  6  1 -1</clus>
<clus scale="  146.469">  1  3  2 -1</clus>
</clustering>
</event>
<event>
 6    0  0.1230761E+002  0.2147769E+03  0.7546771E-02  0.1137838E+00
         21   -1    0    0  504  502  0.00000000000E+00  0.00000000000E+00  0.17775944991E+04  0.17775944991E+04  0.00000000000E+00 0. -1.
         -2   -1    0    0    0  501 -0.00000000000E+00 -0.00000000000E+00 -0.71311125048E+02  0.71311125048E+02  0.00000000000E+00 0. -1.
         21    1    1    2  503  502  0.95385052641E+01  0.71105218793E+02  0.72084478901E+02  0.10170106843E+03  0.00000000000E+00 0. -1.
         21    1    1    2  504  505  0.24926822485E+02 -0.80318770595E+02  0.83056464832E+03  0.83481140770E+03  0.00000000000E+00 0. -1.
         21    1    1    2  505  501  0.25343510244E+02 -0.11167271094E+03  0.76298175425E+03  0.77152721611E+03  0.00000000000E+00 0. -1.
         -2    1    1    2    0  503 -0.59808837994E+02  0.12088626274E+03  0.40652492606E+02  0.14086593193E+03  0.00000000000E+00 0. -1.
<scales pt_clust_3="59.88210" pt_clust_4="33.69327" pt_clust_5="202.32063" pt_clust_6="59.88210"></scales>
<clustering>
<clus scale="   33.693">  4  5 -1 -1</clus>
<clus scale="   59.882">  3  6 -1 -1</clus>
<clus scale="  202.321">  1  4  2 -1</clus>
<clus scale="  202.321">  1  3  2 -1</clus>
</clustering>
</event>
<event>
 6    0  0.1230761E+002  0.6929884E+02  0.7546771E-02  0.1362494E+00
          1   -1    0    0  504    0 -0.00000000000E+00  0.00000000000E+00  0.21811439058E+03  0.21811439058E+03  0.00000000000E+00 0. -1.
         21   -1    0    0  505  502  0.00000000000E+00 -0.00000000000E+00 -0.13439089175E+04  0.13439089175E+04  0.00000000000E+00 0.  1.
         21    1    1    2  503  502  0.18360751026E+01  0.47428394743E+02 -0.15705331421E+03  0.16406878833E+03  0.00000000000E+00 0.  1.
         21    1    1    2  504  503  0.35011589971E+02  0.49574067416E+02  0.11269680840E+03  0.12799988366E+03  0.00000000000E+00 0. -1.
         21    1    1    2  505  501  0.34216267141E+02 -0.25779635662E+02 -0.11483341528E+04  0.11491330075E+04  0.00000000000E+00 0.  1.
          1    1    1    2  501    0 -0.71063932215E+02 -0.71222826497E+02  0.66896131715E+02  0.12082162850E+03  0.00000000000E+00 0. -1.
<scales pt_clust_3="39.83183" pt_clust_4="69.29884" pt_clust_5="42.84090" pt_clust_6="14000.00000"></scales>
<clustering>
<clus scale="   42.841">  2  5  1 -1</clus>
<clus scale="   39.832">  2  3  1 -1</clus>
<clus scale="   69.299">  1  4  2 -1</clus>
<clus scale="   42.841">  2  3  1 -1</clus>
</clustering>
</event>
<event>
 6    0  0.1230761E+002  0.1258952E+03  0.7546771E-02  0.1233677E+00
          3   -1    0    0  503    0 -0.00000000000E+00  0.00000000000E+00  0.89922126394E+03  0.89922126394E+03  0.00000000000E+00 0.  1.
         21   -1    0    0  505  502  0.00000000000E+00 -0.00000000000E+00 -0.13066851487E+03  0.13066851487E+03  0.00000000000E+00 0.  1.
         21    1    1    2  503  502  0.33259264855E+02  0.75592684064E+01  0.34228546982E+02  0.48320954730E+02  0.00000000000E+00 0. -1.
         21    1    1    2  504  501  0.66310798374E+02  0.52324845993E+02 -0.27730157750E+02  0.88904292011E+02  0.00000000000E+00 0.  1.
         21    1    1    2  505  504 -0.14538120320E+02  0.37995787492E+02 -0.53307798998E+02  0.67057872346E+02  0.00000000000E+00 0.  1.
          3    1    1    2  501    0 -0.85031942908E+02 -0.97879901891E+02  0.81536215883E+03  0.82560665972E+03  0.00000000000E+00 0.  1.
<scales pt_clust_3="34.10750" pt_clust_4="14000.00000" pt_clust_5="41.70864" pt_clust_6="125.89522"></scales>
<clustering>
<clus scale="   34.107">  2  3  1 -1</clus>
<clus scale="   41.709">  2  5  1 -1</clus>
<clus scale="  125.895">  1  6  2 -1</clus>
<clus scale="   34.107">  2  3  1 -1</clus>
</clustering>
</event>
<event>
 6    0  0.1230761E+002  0.9635436E+02  0.7546771E-02  0.1288155E+00
         -3   -1    0    0    0  501 -0.00000000000E+00  0.00000000000E+00  0.23260849492E+04  0.23260849492E+04  0.00000000000E+00 0. -1.
         21   -1    0    0  505  502  0.00000000000E+00 -0.00000000000E+00 -0.39431711323E+02  0.39431711323E+02  0.00000000000E+00 0.  1.
         21    1    1    2  503  502  0.79467762159E+02  0.10308355273E+02  0.56401800906E+02  0.97992604601E+02  0.00000000000E+00 0.  1.
         21    1    1    2  504  501 -0.33492933217E+01 -0.61151627591E+02  0.39830874555E+03  0.40298957320E+03  0.00000000000E+00 0.  1.
         21    1    1    2  505  504  0.79642372139E+00 -0.70615979624E+02  0.80032566957E+02  0.10673547977E+03  0.00000000000E+00 0.  1.
         -3    1    1    2    0  503 -0.76914892559E+02  0.12145925194E+03  0.17519101245E+04  0.17577990030E+04  0.00000000000E+00 0. -1.
<scales pt_clust_3="96.35436" pt_clust_4="61.24328" pt_clust_5="73.58458" pt_clust_6="14000.00000"></scales>
<clustering>
<clus scale="   61.243">  1  4  2 -1</clus>
<clus scale="   73.585">  2  5  1 -1</clus>
<clus scale="   96.354">  2  3  1 -1</clus>
<clus scale="   73.585">  2  3  1 -1</clus>
</clustering>
</event>
<event>
 6    0  0.1230761E+002  0.1033560E+03  0.7546771E-02  0.1273393E+00
         21   -1    0    0  505  502  0.00000000000E+00  0.00000000000E+00  0.58510779092E+03  0.58510779092E+03  0.00000000000E+00 0. -1.
          2   -1    0    0  503    0 -0.00000000000E+00 -0.00000000000E+00 -0.18606848062E+03  0.18606848062E+03  0.00000000000E+00 0. -1.
         21    1    1    2  503  504  0.57226808018E+02  0.67944386768E+02 -0.47769420207E+02  0.10086260336E+03  0.00000000000E+00 0. -1.
         21    1    1    2  504  502  0.70529816429E+02  0.26104398673E+02  0.15997751644E+03  0.17677301944E+03  0.00000000000E+00 0. -1.
         21    1    1    2  505  501  0.30412939859E+02 -0.70870593497E+02  0.32094644686E+03  0.33008212567E+03  0.00000000000E+00 0. -1.
          2    1    1    2  501    0 -0.15816956431E+03 -0.23178191943E+02 -0.34115232796E+02  0.16345852307E+03  0.00000000000E+00 0. -1.
<scales pt_clust_3="93.02953" pt_clust_4="75.20568" pt_clust_5="103.35598" pt_clust_6="14000.00000"></scales>
<clustering>
<clus scale="   75.206">  1  4  2 -1</clus>
<clus scale="   93.030">  2  3  1 -1</clus>
<clus scale="  103.356">  1  5  2 -1</clus>
<clus scale="   75.206">  1  3  2 -1</clus>
</clustering>
</event>
<event>
 6    0  0.1230761E+002  0.9598636E+02  0.7546771E-02  0.1288970E+00
         21   -1    0    0  503  502  0.00000000000E+00  0.00000000000E+00  0.94756275917E+03  0.94756275917E+03  0.00000000000E+00 0.  1.
         -1   -1    0    0    0  501 -0.00000000000E+00 -0.00000000000E+00 -0.49812767595E+03  0.49812767595E+03  0.00000000000E+00 0. -1.
         21    1    1    2  503  505  0.28958710479E+02 -0.75065135997E+02  0.67453403105E+03  0.67931549415E+03  0.00000000000E+00 0.  1.
         21    1    1    2  504  502 -0.50638773026E+02  0.26037939953E+02  0.22138822461E+03  0.22859353807E+03  0.00000000000E+00 0.  1.
         21    1    1    2  505  501  0.10752033951E+03  0.58432641195E+01 -0.32045910570E+02  0.11234637301E+03  0.00000000000E+00 0.  1.
         -1    1    1    2    0  504 -0.85840276961E+02  0.43183931924E+02 -0.41444126186E+03  0.42543502989E+03  0.00000000000E+00 0. -1.
<scales pt_clust_3="53.93710" pt_clust_4="56.94084" pt_clust_5="95.98636" pt_clust_6="14000.00000"></scales>
<clustering>
<clus scale="   56.941">  1  4  2 -1</clus>
<clus scale="   53.937">  1  3  2 -1</clus>
<clus scale="   95.986">  1  5  2 -1</clus>
<clus scale="   56.941">  1  3  2 -1</clus>
</clustering>
</event>
<event>
 6    0  0.1230761E+002  0.6714331E+02  0.7546771E-02  0.1370086E+00
          4   -1    0    0  503    0 -0.00000000000E+00  0.00000000000E+00  0.17278034575E+04  0.17278034575E+04  0.00000000000E+00 0.  1.
         21   -1    0    0  504  502  0.00000000000E+00 -0.00000000000E+00 -0.11926127687E+03  0.11926127687E+03  0.00000000000E+00 0. -1.
         21    1    1    2  503  502  0.42792996507E+02 -0.19158850286E+02  0.33561240657E+03  0.33887164168E+03  0.00000000000E+00 0.  1.
         21    1    1    2  504  505 -0.33878043595E+02  0.54119346947E+02 -0.68281405967E+02  0.93482490086E+02  0.00000000000E+00 0. -1.
         21    1    1    2  505  501  0.11628394180E+02 -0.85678313450E+02  0.15465454459E+02  0.87836058817E+02  0.00000000000E+00 0. -1.
          4    1    1    2  501    0 -0.20543347091E+02  0.50717816788E+02  0.13257457256E+04  0.13268745438E+04  0.00000000000E+00 0.  1.
<scales pt_clust_3="46.88605" pt_clust_4="14000.00000" pt_clust_5="67.14331" pt_clust_6="38.25698"></scales>
<clustering>
<clus scale="   46.886">  1  3  2 -1</clus>
<clus scale="   38.257">  1  6  2 -1</clus>
<clus scale="   67.143">  1  5  2 -1</clus>
<clus scale="   67.143">  2  3  1 -1</clus>
</clustering>
</event>
<event>
 6    0  0.1230761E+002  0.1768094E+03  0.7546771E-02  0.1170927E+00
          2   -1    0    0  504    0 -0.00000000000E+00  0.00000000000E+00  0.17245558632E+04  0.17245558632E+04  0.00000000000E+00 0.  1.
         21   -1    0    0  501  502  0.00000000000E+00 -0.00000000000E+00 -0.59594665299E+02  0.59594665299E+02  0.00000000000E+00 0.  1.
         21    1    1    2  503  505  0.76042415764E+02 -0.15373684609E+02  0.13007800307E+02  0.78663854740E+02  0.00000000000E+00 0.  1.
         21    1    1    2  504  503 -0.36249109912E+02 -0.41509013071E+01  0.16858003770E+03  0.17248320806E+03  0.00000000000E+00 0.  1.
         21    1    1    2  505  502  0.61019220809E+02 -0.71110393027E+02  0.80317727199E+02  0.12341381854E+03  0.00000000000E+00 0.  1.
          2    1    1    2  501    0 -0.10081252666E+03  0.90634978943E+02  0.14030556327E+04  0.14095896472E+04  0.00000000000E+00 0.  1.
<scales pt_clust_3="69.68872" pt_clust_4="36.48600" pt_clust_5="69.68872" pt_clust_6="159.37761"></scales>
<clustering>
<clus scale="   36.486">  1  4  2 -1</clus>
<clus scale="   69.689">  3  5 -1 -1</clus>
<clus scale="  159.378">  1  6  2 -1</clus>
<clus scale="  176.809">  2  3  1 -1</clus>
</clustering>
</event>
<event>
 6    0  0.1230761E+002  0.8929202E+02  0.7546771E-02  0.1304575E+00
          2   -1    0    0  503    0 -0.00000000000E+00  0.00000000000E+00  0.36560471124E+04  0.36560471124E+04  0.00000000000E+00 0.  1.
         21   -1    0    0  505  502  0.00000000000E+00 -0.00000000000E+00 -0.49353279641E+02  0.49353279641E+02  0.00000000000E+00 0. -1.
         21    1    1    2  503  504  0.31964133481E+02 -0.22846990395E+00  0.23385529865E+04  0.23387714358E+04  0.00000000000E+00 0.  1.
         21    1    1    2  504  502  0.34835299494E+02  0.46019067341E+01 -0.10354698128E+02  0.36631890611E+02  0.00000000000E+00 0. -1.
         21    1    1    2  505  501  0.48430080022E+01  0.76169407116E+02  0.38791814289E+02  0.85615642045E+02  0.00000000000E+00 0. -1.
          2    1    1    2  501    0 -0.71642440977E+02 -0.80542843946E+02  0.12397037300E+04  0.12443814236E+04  0.00000000000E+00 0.  1.
<scales pt_clust_3="31.96495" pt_clust_4="35.45372" pt_clust_5="14000.00000" pt_clust_6="89.29202"></scales>
<clustering>
<clus scale="   31.965">  1  3  2 -1</clus>
<clus scale="   35.454">  2  4  1 -1</clus>
<clus scale="   89.292">  1  6  2 -1</clus>
<clus scale="   35.454">  2  3  1 -1</clus>
</clustering>
</event>
<event>
 6    0  0.1230761E+002  0.9707335E+02  0.7546771E-02  0.1286573E+00
          1   -1    0    0  503    0 -0.00000000000E+00  0.00000000000E+00  0.13407934130E+04  0.13407934130E+04  0.00000000000E+00 0.  1.
         21   -1    0    0  501  502  0.00000000000E+00 -0.00000000000E+00 -0.10211082788E+03  0.10211082788E+03  0.00000000000E+00 0.  1.
         21    1    1    2  503  504  0.25550398349E+02 -0.30354309671E+02  0.78220501362E+02  0.87707775053E+02  0.00000000000E+00 0.  1.
         21    1    1    2  504  505 -0.11147338812E+02 -0.56902115910E+02  0.93528311151E+01  0.58733205323E+02  0.00000000000E+00 0. -1.
         21    1    1    2  505  502 -0.34148365545E+02 -0.40383353067E+02 -0.59142281551E+02  0.79339369429E+02  0.00000000000E+00 0.  1.
          1    1    1    2  501    0  0.19745306008E+02  0.12763977865E+03  0.12102515342E+04  0.12171238911E+04  0.00000000000E+00 0.  1.
<scales pt_clust_3="39.67628" pt_clust_4="97.07335" pt_clust_5="52.94054" pt_clust_6="14000.00000"></scales>
<clustering>
<clus scale="   39.676">  1  3  2 -1</clus>
<clus scale="   52.941">  2  5  1 -1</clus>
<clus scale="   97.073">  2  4  1 -1</clus>
<clus scale="   52.941">  2  3  1 -1</clus>
</clustering>
</event>
<event>
 6    0  0.1230761E+002  0.1165173E+03  0.7546771E-02  0.1248955E+00
         21   -1    0    0  504  502  0.00000000000E+00  0.00000000000E+00  0.35606089173E+03  0.35606089173E+03  0.00000000000E+00 0.  1.
         -2   -1    0    0    0  501 -0.00000000000E+00 -0.00000000000E+00 -0.80803040425E+03  0.80803040425E+03  0.00000000000E+00 0.  1.
         21    1    1    2  503  501  0.81346155858E+01 -0.35425307627E+02 -0.48804488779E+02  0.60852300829E+02  0.00000000000E+00 0.  1.
         21    1    1    2  504  503 -0.22772589204E+02 -0.85359702539E+02  0.54757038725E+02  0.10393845740E+03  0.00000000000E+00 0.  1.
         21    1    1    2  505  502  0.92939829190E+02  0.10854860273E+03  0.24946111414E+03  0.28749166679E+03  0.00000000000E+00 0.  1.
         -2    1    1    2    0  505 -0.78301855572E+02  0.12236407439E+02 -0.70738317660E+03  0.71180887097E+03  0.00000000000E+00 0.  1.
<scales pt_clust_3="36.34727" pt_clust_4="14000.00000" pt_clust_5="116.51733" pt_clust_6="73.73308"></scales>
<clustering>
<clus scale="   36.347">  2  3  1 -1</clus>
<clus scale="   73.733">  2  6  1 -1</clus>
<clus scale="  116.517">  1  5  2 -1</clus>
<clus scale="  116.517">  1  3  2 -1</clus>
</clustering>
</event>
<event>
 6    0  0.1230761E+002  0.2488787E+03  0.7546771E-02  0.1114015E+00
         21   -1    0    0  503  502  0.00000000000E+00  0.00000000000E+00  0.44997796491E+03  0.44997796491E+03  0.00000000000E+00 0. -1.
         -4   -1    0    0    0  501 -0.00000000000E+00 -0.00000000000E+00 -0.38956437609E+03  0.38956437609E+03  0.00000000000E+00 0.  1.
         21    1    1    2  503  505 -0.43952032439E+02 -0.12371433980E+02  0.71146582137E+02  0.84537977762E+02  0.00000000000E+00 0. -1.
         21    1    1    2  504  501  0.28346349568E+02 -0.38015949461E+02 -0.19582491063E+02  0.51304989071E+02  0.00000000000E+00 0.  1.
         21    1    1    2  505  504 -0.67606617831E+02 -0.18915706935E+03  0.27207495643E+03  0.33819496386E+03  0.00000000000E+00 0. -1.
         -4    1    1    2    0  502  0.83212300702E+02  0.23954445280E+03 -0.26322545868E+03  0.36550441030E+03  0.00000000000E+00 0.  1.
<scales pt_clust_3="42.22275" pt_clust_4="47.42075" pt_clust_5="42.22275" pt_clust_6="232.58888"></scales>
<clustering>
<clus scale="   42.223">  3  5 -1 -1</clus>
<clus scale="   47.421">  2  4  1 -1</clus>
<clus scale="  232.589">  2  6  1 -1</clus>
<clus scale="  248.879">  1  3  2 -1</clus>
</clustering>
</event>
<event>
 6    0  0.1230761E+002  0.1179554E+03  0.7546771E-02  0.1246509E+00
          2   -1    0    0  504    0 -0.00000000000E+00  0.00000000000E+00  0.52091767794E+03  0.52091767794E+03  0.00000000000E+00 0.  1.
         21   -1    0    0  503  502  0.00000000000E+00 -0.00000000000E+00 -0.77257955930E+02  0.77257955930E+02  0.00000000000E+00 0.  1.
         21    1    1    2  503  501  0.56302431249E+02 -0.26045055390E+02  0.73808999895E+02  0.96416166385E+02  0.00000000000E+00 0.  1.
         21    1    1    2  504  505 -0.78906028307E+01  0.12762972749E+03  0.15655907006E+03  0.20214438249E+03  0.00000000000E+00 0. -1.
         21    1    1    2  505  502 -0.59309936247E+02  0.98254848484E+01  0.15898422936E+01  0.60139307351E+02  0.00000000000E+00 0.  1.
          2    1    1    2  501    0  0.10898107829E+02 -0.11141015695E+03  0.21170180976E+03  0.23947577765E+03  0.00000000000E+00 0.  1.
<scales pt_clust_3="48.52845" pt_clust_4="117.95535" pt_clust_5="60.11829" pt_clust_6="14000.00000"></scales>
<clustering>
<clus scale="   60.118">  2  5  1 -1</clus>
<clus scale="   48.528">  2  3  1 -1</clus>
<clus scale="  117.955">  2  4  1 -1</clus>
<clus scale="   60.118">  2  3  1 -1</clus>
</clustering>
</event>
<event>
 6    0  0.1230761E+002  0.1103886E+03  0.7546771E-02  0.1259852E+00
          2   -1    0    0  503    0 -0.00000000000E+00  0.00000000000E+00  0.91108873412E+03  0.91108873412E+03  0.00000000000E+00 0.  1.
         21   -1    0    0  501  502  0.00000000000E+00 -0.00000000000E+00 -0.30763618688E+03  0.30763618688E+03  0.00000000000E+00 0.  1.
         21    1    1    2  503  505 -0.95248681051E+02 -0.26272211459E+02  0.10141570289E+03  0.14158984826E+03  0.00000000000E+00 0.  1.
         21    1    1    2  504  502 -0.69746584195E+01  0.61680522191E+02 -0.20732667894E+03  0.21641969522E+03  0.00000000000E+00 0.  1.
         21    1    1    2  505  504 -0.18017361397E+02  0.37680658697E+02 -0.63028273632E+02  0.75610982195E+02  0.00000000000E+00 0.  1.
          2    1    1    2  501    0  0.12024070087E+03 -0.73088969429E+02  0.77239179693E+03  0.78510439533E+03  0.00000000000E+00 0.  1.
<scales pt_clust_3="98.80557" pt_clust_4="33.74998" pt_clust_5="33.74998" pt_clust_6="102.43423"></scales>
<clustering>
<clus scale="   33.750">  4  5 -1 -1</clus>
<clus scale="   98.806">  1  3  2 -1</clus>
<clus scale="  102.434">  1  6  2 -1</clus>
<clus scale="  110.389">  2  3  1 -1</clus>
</clustering>
</event>
<event>
 6    0  0.1230761E+002  0.1131494E+03  0.7546771E-02  0.1254846E+00
         21   -1    0    0  505  502  0.00000000000E+00  0.00000000000E+00  0.19438883450E+03  0.19438883450E+03  0.00000000000E+00 0.  1.
          2   -1    0    0  503    0 -0.00000000000E+00 -0.00000000000E+00 -0.31478070985E+03  0.31478070985E+03  0.00000000000E+00 0.  1.
         21    1    1    2  503  502  0.20649489749E+02  0.34506946689E+02 -0.30357685651E+01  0.40327988885E+02  0.00000000000E+00 0.  1.
         21    1    1    2  504  501  0.77033250277E+02 -0.11847713020E+03  0.46278951713E+02  0.14870337387E+03  0.00000000000E+00 0.  1.
         21    1    1    2  505  504 -0.35648637152E+02 -0.62612670674E+01  0.60605662892E+02  0.70590900055E+02  0.00000000000E+00 0.  1.
          2    1    1    2  501    0 -0.62034102874E+02  0.90231450579E+02 -0.22424072139E+03  0.24954728154E+03  0.00000000000E+00 0.  1.
<scales pt_clust_3="36.99836" pt_clust_4="14000.00000" pt_clust_5="36.19432" pt_clust_6="113.14944"></scales>
<clustering>
<clus scale="   36.194">  1  5  2 -1</clus>
<clus scale="   36.998">  1  3  2 -1</clus>
<clus scale="  113.149">  2  6  1 -1</clus>
<clus scale="   36.194">  1  3  2 -1</clus>
</clustering>
</event>
<event>
 6    0  0.1230761E+002  0.1308790E+03  0.7546771E-02  0.1226157E+00
         21   -1    0    0  504  502  0.00000000000E+00  0.00000000000E+00  0.26966123589E+03  0.26966123589E+03  0.00000000000E+00 0. -1.
          1   -1    0    0  505    0 -0.00000000000E+00 -0.00000000000E+00 -0.40490786285E+04  0.40490786285E+04  0.00000000000E+00 0. -1.
         21    1    1    2  503  502  0.92097910208E+02 -0.46411811561E+02  0.23744648947E+03  0.25887625747E+03  0.00000000000E+00 0. -1.
         21    1    1    2  504  501  0.31690339640E+02  0.26888987649E+01  0.50338266257E+01  0.32200112011E+02  0.00000000000E+00 0. -1.
         21    1    1    2  505  503 -0.24056274044E+02 -0.42106161407E+02 -0.34273576228E+03  0.34614944157E+03  0.00000000000E+00 0.  1.
          1    1    1    2  501    0 -0.99731975803E+02  0.85829074203E+02 -0.36791619464E+04  0.36815140534E+04  0.00000000000E+00 0. -1.
<scales pt_clust_3="14000.00000" pt_clust_4="31.80421" pt_clust_5="48.37121" pt_clust_6="130.87896"></scales>
<clustering>
<clus scale="   31.804">  1  4  2 -1</clus>
<clus scale="   48.371">  2  5  1 -1</clus>
<clus scale="  130.879">  2  6  1 -1</clus>
<clus scale="   31.804">  1  3  2 -1</clus>
</clustering>
</event>
<event>
 6    0  0.1230761E+002  0.9114897E+02  0.7546771E-02  0.1300093E+00
         21   -1    0    0  505  502  0.00000000000E+00  0.00000000000E+00  0.28725565660E+03  0.28725565660E+03  0.00000000000E+00 0. -1.
          1   -1    0    0  503    0 -0.00000000000E+00 -0.00000000000E+00 -0.19647232466E+04  0.19647232466E+04  0.00000000000E+00 0. -1.
         21    1    1    2  503  502  0.39878039823E+02  0.70859751256E+02  0.12978602634E+03  0.15315278333E+03  0.00000000000E+00 0. -1.
         21    1    1    2  504  501 -0.32074802911E+02  0.69812014991E+02 -0.88448936706E+02  0.11715683857E+03  0.00000000000E+00 0.  1.
         21    1    1    2  505  504  0.41790168140E+02 -0.64100182906E+02  0.11906678631E+03  0.14153498226E+03  0.00000000000E+00 0.  1.
          1    1    1    2  501    0 -0.49593405053E+02 -0.76571583340E+02 -0.18378714660E+04  0.18401342991E+04  0.00000000000E+00 0. -1.
<scales pt_clust_3="91.14897" pt_clust_4="69.91293" pt_clust_5="76.51962" pt_clust_6="14000.00000"></scales>
<clustering>
<clus scale="   76.520">  1  5  2 -1</clus>
<clus scale="   69.913">  1  4  2 -1</clus>
<clus scale="   91.149">  1  3  2 -1</clus>
<clus scale="   76.520">  1  3  2 -1</clus>
</clustering>
</event>
<event>
 6    0  0.1230761E+002  0.8564108E+02  0.7546771E-02  0.1313764E+00
          1   -1    0    0  505    0 -0.00000000000E+00  0.00000000000E+00  0.17276616200E+04  0.17276616200E+04  0.00000000000E+00 0. -1.
         21   -1    0    0  501  502  0.00000000000E+00 -0.00000000000E+00 -0.12334977201E+04  0.12334977201E+04  0.00000000000E+00 0. -1.
         21    1    1    2  503  504 -0.79995355619E+01  0.79931371658E+02 -0.47756529803E+02  0.93454282316E+02  0.00000000000E+00 0.  1.
         21    1    1    2  504  502 -0.38530293897E+02 -0.77822470034E+02 -0.11597280551E+04  0.11629746696E+04  0.00000000000E+00 0. -1.
         21    1    1    2  505  503  0.14226709099E+02 -0.44278639106E+02  0.99603184796E+03  0.99711706398E+03  0.00000000000E+00 0. -1.
          1    1    1    2  501    0  0.32303120360E+02  0.42169737482E+02  0.70561663688E+03  0.70761332420E+03  0.00000000000E+00 0. -1.
<scales pt_clust_3="14000.00000" pt_clust_4="85.64108" pt_clust_5="46.50803" pt_clust_6="46.05787"></scales>
<clustering>
<clus scale="   46.508">  1  5  2 -1</clus>
<clus scale="   46.058">  1  6  2 -1</clus>
<clus scale="   85.641">  2  4  1 -1</clus>
<clus scale="   85.641">  2  3  1 -1</clus>
</clustering>
</event>
<event>
 6    0  0.1230761E+002  0.7395448E+02  0.7546771E-02  0.1347140E+00
         21   -1    0    0  505  502  0.00000000000E+00  0.00000000000E+00  0.28921443865E+03  0.28921443865E+03  0.00000000000E+00 0.  1.
         -4   -1    0    0    0  501 -0.00000000000E+00 -0.00000000000E+00 -0.13869039283E+03  0.13869039283E+03  0.00000000000E+00 0.  1.
         21    1    1    2  503  502 -0.20267991255E+02 -0.42590224252E+02  0.22928546003E+02  0.52444607855E+02  0.00000000000E+00 0.  1.
         21    1    1    2  504  501 -0.32233858870E+02 -0.62166432651E+02 -0.37531360026E+02  0.79449921281E+02  0.00000000000E+00 0.  1.
         21    1    1    2  505  504  0.93464955782E+02  0.21988844561E+02 -0.11494741153E+02  0.96702307722E+02  0.00000000000E+00 0.  1.
         -4    1    1    2    0  503 -0.40963105657E+02  0.82767812342E+02  0.17662160099E+03  0.19930799462E+03  0.00000000000E+00 0.  1.
<scales pt_clust_3="47.16692" pt_clust_4="73.95448" pt_clust_5="73.23753" pt_clust_6="14000.00000"></scales>
<clustering>
<clus scale="   47.167">  1  3  2 -1</clus>
<clus scale="   73.954">  2  4  1 -1</clus>
<clus scale="   73.238">  2  5  1 -1</clus>
<clus scale="   47.167">  1  3  2 -1</clus>
</clustering>
</event>
<event>
 6    0  0.1230761E+002  0.2430511E+03  0.7546771E-02  0.1117777E+00
          1   -1    0    0  504    0 -0.00000000000E+00  0.00000000000E+00  0.16907814141E+04  0.16907814141E+04  0.00000000000E+00 0.  1.
         21   -1    0    0  501  502  0.00000000000E+00 -0.00000000000E+00 -0.48722423572E+03  0.48722423572E+03  0.00000000000E+00 0.  1.
         21    1    1    2  503  502 -0.19622497099E+02  0.67155295639E+02 -0.11197277647E+03  0.13203324883E+03  0.00000000000E+00 0.  1.
         21    1    1    2  504  505 -0.41448849951E+02  0.89273094534E+02  0.74228054009E+02  0.12327812690E+03  0.00000000000E+00 0. -1.
         21    1    1    2  505  503  0.51441439113E+02  0.16337338078E+03 -0.30166813339E+03  0.34690163723E+03  0.00000000000E+00 0.  1.
          1    1    1    2  501    0  0.96299079376E+01 -0.31980177095E+03  0.15429700342E+04  0.15757926368E+04  0.00000000000E+00 0.  1.
<scales pt_clust_3="41.04267" pt_clust_4="98.42608" pt_clust_5="41.04267" pt_clust_6="234.41405"></scales>
<clustering>
<clus scale="   41.043">  3  5 -1 -1</clus>
<clus scale="   98.426">  1  4  2 -1</clus>
<clus scale="  234.414">  1  6  2 -1</clus>
<clus scale="  243.051">  2  3  1 -1</clus>
</clustering>
</event>
<event>
 6    0  0.1230761E+002  0.1301804E+03  0.7546771E-02  0.1227188E+00
          1   -1    0    0  504    0 -0.00000000000E+00  0.00000000000E+00  0.57033095943E+03  0.57033095943E+03  0.00000000000E+00 0.  1.
         21   -1    0    0  505  502  0.00000000000E+00 -0.00000000000E+00 -0.63344911859E+03  0.63344911859E+03  0.00000000000E+00 0.  1.
         21    1    1    2  503  502 -0.61666992972E+02  0.51383925239E+02 -0.57425604883E+03  0.57983888746E+03  0.00000000000E+00 0.  1.
         21    1    1    2  504  503 -0.65198089700E-02 -0.66778325506E+02  0.16504568106E+03  0.17804331394E+03  0.00000000000E+00 0. -1.
         21    1    1    2  505  501 -0.38031266877E+02  0.38359210628E+02 -0.26033349231E+02  0.59962834927E+02  0.00000000000E+00 0. -1.
          1    1    1    2  501    0  0.99704779659E+02 -0.22964810362E+02  0.37212555784E+03  0.38593504168E+03  0.00000000000E+00 0.  1.
<scales pt_clust_3="14000.00000" pt_clust_4="66.35749" pt_clust_5="54.01672" pt_clust_6="130.18037"></scales>
<clustering>
<clus scale="   54.017">  2  5  1 -1</clus>
<clus scale="   66.357">  1  4  2 -1</clus>
<clus scale="  130.180">  1  6  2 -1</clus>
<clus scale="   54.017">  2  3  1 -1</clus>
</clustering>
</event>
<event>
 6    0  0.1230761E+002  0.8001330E+02  0.7546771E-02  0.1329014E+00
          2   -1    0    0  503    0 -0.00000000000E+00  0.00000000000E+00  0.24735479831E+04  0.24735479831E+04  0.00000000000E+00 0. -1.
         21   -1    0    0  505  502  0.00000000000E+00 -0.00000000000E+00 -0.20730263990E+03  0.20730263990E+03  0.00000000000E+00 0.  1.
         21    1    1    2  503  504  0.17235911953E+02  0.76192465084E+02  0.14897100431E+03  0.16821036984E+03  0.00000000000E+00 0.  1.
         21    1    1    2  504  502 -0.35358973713E+02  0.60414369875E+01 -0.25934087194E+02  0.44264352040E+02  0.00000000000E+00 0.  1.
         21    1    1    2  505  501 -0.46130517534E+02 -0.17752083402E+02 -0.15790614388E+03  0.16546151029E+03  0.00000000000E+00 0.  1.
          2    1    1    2  501    0  0.64253579293E+02 -0.64481818669E+02  0.23011145700E+04  0.23029143908E+04  0.00000000000E+00 0. -1.
<scales pt_clust_3="78.03667" pt_clust_4="35.87138" pt_clust_5="14000.00000" pt_clust_6="80.01330"></scales>
<clustering>
<clus scale="   35.871">  2  4  1 -1</clus>
<clus scale="   78.037">  1  3  2 -1</clus>
<clus scale="   80.013">  1  6  2 -1</clus>
<clus scale="   35.871">  2  3  1 -1</clus>
</clustering>
</event>
<event>
 6    0  0.1230761E+002  0.8388958E+02  0.7546771E-02  0.1318362E+00
         21   -1    0    0  501  502  0.00000000000E+00  0.00000000000E+00  0.24674208716E+02  0.24674208716E+02  0.00000000000E+00 0. -1.
          1   -1    0    0  503    0 -0.00000000000E+00 -0.00000000000E+00 -0.22560947421E+04  0.22560947421E+04  0.00000000000E+00 0.  1.
         21    1    1    2  503  505  0.12583742804E+02 -0.77944431943E+02 -0.10981175271E+04  0.11009522189E+04  0.00000000000E+00 0.  1.
         21    1    1    2  504  502  0.32067241982E+02 -0.10597718211E+02 -0.38054728249E+02  0.50880074506E+02  0.00000000000E+00 0. -1.
         21    1    1    2  505  504  0.47418545002E+02  0.57937238177E+02 -0.81935158099E+02  0.11098924322E+03  0.00000000000E+00 0. -1.
          1    1    1    2  501    0 -0.92069529788E+02  0.30604911977E+02 -0.10133131199E+04  0.10179474142E+04  0.00000000000E+00 0.  1.
<scales pt_clust_3="80.19612" pt_clust_4="33.77306" pt_clust_5="14000.00000" pt_clust_6="83.88958"></scales>
<clustering>
<clus scale="   33.773">  1  4  2 -1</clus>
<clus scale="   80.196">  2  3  1 -1</clus>
<clus scale="   83.890">  2  6  1 -1</clus>
<clus scale="   33.773">  1  3  2 -1</clus>
</clustering>
</event>
<event>
 6    0  0.1230761E+002  0.1388433E+03  0.7546771E-02  0.1214894E+00
         21   -1    0    0  503  502  0.00000000000E+00  0.00000000000E+00  0.67818021605E+03  0.67818021605E+03  0.00000000000E+00 0.  1.
         -1   -1    0    0    0  501 -0.00000000000E+00 -0.00000000000E+00 -0.68175388101E+02  0.68175388101E+02  0.00000000000E+00 0. -1.
         21    1    1    2  503  505  0.19456243242E+02 -0.48332525192E+02  0.18533460991E+03  0.19251881992E+03  0.00000000000E+00 0.  1.
         21    1    1    2  504  501  0.35000873858E+02 -0.98548209915E+01  0.44898759756E+02  0.57776096227E+02  0.00000000000E+00 0.  1.
         21    1    1    2  505  504  0.72336997231E+02 -0.39182559806E+02  0.31157882594E+03  0.32225654212E+03  0.00000000000E+00 0.  1.
         -1    1    1    2    0  502 -0.12679411433E+03  0.97369905990E+02  0.68192632336E+02  0.17380414588E+03  0.00000000000E+00 0. -1.
<scales pt_clust_3="35.46353" pt_clust_4="36.36177" pt_clust_5="35.46353" pt_clust_6="131.49767"></scales>
<clustering>
<clus scale="   35.464">  3  5 -1 -1</clus>
<clus scale="   36.362">  2  4  1 -1</clus>
<clus scale="  131.498">  2  6  1 -1</clus>
<clus scale="  138.843">  1  3  2 -1</clus>
</clustering>
</event>
<event>
 6    0  0.1230761E+002  0.1803249E+03  0.7546771E-02  0.1167489E+00
          3   -1    0    0  503    0 -0.00000000000E+00  0.00000000000E+00  0.99356514243E+03  0.99356514243E+03  0.00000000000E+00 0.  1.
         21   -1    0    0  504  502  0.00000000000E+00 -0.00000000000E+00 -0.36302986211E+03  0.36302986211E+03  0.00000000000E+00 0. -1.
         21    1    1    2  503  505 -0.59186475095E+01  0.33289751540E+02  0.58882371941E+02  0.67899717756E+02  0.00000000000E+00 0. -1.
         21    1    1    2  504  501 -0.89129221561E+01 -0.81219663478E+02 -0.27075422055E+03  0.28281428865E+03  0.00000000000E+00 0. -1.
         21    1    1    2  505  502 -0.17204907585E+03  0.58896477625E+02  0.45740032621E+02  0.18751487984E+03  0.00000000000E+00 0.  1.
          3    1    1    2  501    0  0.18688064551E+03 -0.10966565686E+02  0.79666709631E+03  0.81836611830E+03  0.00000000000E+00 0.  1.
<scales pt_clust_3="33.81180" pt_clust_4="81.49693" pt_clust_5="14000.00000" pt_clust_6="180.32493"></scales>
<clustering>
<clus scale="   33.812">  1  3  2 -1</clus>
<clus scale="   81.497">  2  4  1 -1</clus>
<clus scale="  180.325">  1  6  2 -1</clus>
<clus scale="   81.497">  2  3  1 -1</clus>
</clustering>
</event>
<event>
 6    0  0.1230761E+002  0.1090354E+03  0.7546771E-02  0.1262367E+00
         21   -1    0    0  505  502  0.00000000000E+00  0.00000000000E+00  0.23624079815E+03  0.23624079815E+03  0.00000000000E+00 0.  1.
          2   -1    0    0  504    0 -0.00000000000E+00 -0.00000000000E+00 -0.50452744857E+03  0.50452744857E+03  0.00000000000E+00 0. -1.
         21    1    1    2  503  502  0.52322476677E+02 -0.46352796727E+02  0.65332466831E+02  0.95679436412E+02  0.00000000000E+00 0. -1.
         21    1    1    2  504  503 -0.90258735611E+01 -0.57314832526E+02 -0.11733107368E+03  0.13089322852E+03  0.00000000000E+00 0. -1.
         21    1    1    2  505  501  0.28604776803E+01  0.14664443175E+03  0.10907002698E+03  0.18278140628E+03  0.00000000000E+00 0.  1.
          2    1    1    2  501    0 -0.46157080796E+02 -0.42976802498E+02 -0.32535807054E+03  0.33141417551E+03  0.00000000000E+00 0. -1.
<scales pt_clust_3="71.17471" pt_clust_4="58.02117" pt_clust_5="109.03538" pt_clust_6="14000.00000"></scales>
<clustering>
<clus scale="   58.021">  2  4  1 -1</clus>
<clus scale="   71.175">  1  3  2 -1</clus>
<clus scale="  109.035">  1  5  2 -1</clus>
<clus scale="   71.175">  1  3  2 -1</clus>
</clustering>
</event>
<event>
 6    0  0.1230761E+002  0.1161885E+03  0.7546771E-02  0.1249521E+00
         21   -1    0    0  504  502  0.00000000000E+00  0.00000000000E+00  0.33792639568E+03  0.33792639568E+03  0.00000000000E+00 0. -1.
          1   -1    0    0  502    0 -0.00000000000E+00 -0.00000000000E+00 -0.70383286119E+03  0.70383286119E+03  0.00000000000E+00 0.  1.
         21    1    1    2  503  501 -0.33453744504E+02  0.73135809729E+02 -0.34994663624E+02  0.87707617504E+02  0.00000000000E+00 0.  1.
         21    1    1    2  504  505 -0.35242015172E+02 -0.21010312215E+01  0.23258400060E+03  0.23524823336E+03  0.00000000000E+00 0. -1.
         21    1    1    2  505  503 -0.43693144128E+02 -0.89080056016E+01  0.64166178961E+02  0.78139247053E+02  0.00000000000E+00 0. -1.
          1    1    1    2  501    0  0.11238890380E+03 -0.62126772906E+02 -0.62766198144E+03  0.64066415895E+03  0.00000000000E+00 0.  1.
<scales pt_clust_3="14000.00000" pt_clust_4="35.30459" pt_clust_5="68.58667" pt_clust_6="116.18850"></scales>
<clustering>
<clus scale="   35.305">  1  4  2 -1</clus>
<clus scale="   68.587">  1  5  2 -1</clus>
<clus scale="  116.189">  2  6  1 -1</clus>
<clus scale="   35.305">  1  3  2 -1</clus>
</clustering>
</event>
<event>
 6    0  0.1230761E+002  0.8896044E+02  0.7546771E-02  0.1305389E+00
          2   -1    0    0  503    0 -0.00000000000E+00  0.00000000000E+00  0.69049832467E+03  0.69049832467E+03  0.00000000000E+00 0. -1.
         21   -1    0    0  505  502  0.00000000000E+00 -0.00000000000E+00 -0.57715804354E+02  0.57715804354E+02  0.00000000000E+00 0. -1.
         21    1    1    2  503  504 -0.30725813218E+02 -0.25363164923E+02  0.13570412305E+03  0.14143187316E+03  0.00000000000E+00 0. -1.
         21    1    1    2  504  502 -0.25581089883E+01 -0.37222276897E+02  0.18315116389E+02  0.41563028130E+02  0.00000000000E+00 0. -1.
         21    1    1    2  505  501 -0.47866326180E+02 -0.38159209288E+02 -0.78387493133E+01  0.61715123157E+02  0.00000000000E+00 0. -1.
          2    1    1    2  501    0  0.81150248386E+02  0.10074465111E+03  0.48660203019E+03  0.50350410458E+03  0.00000000000E+00 0. -1.
<scales pt_clust_3="41.47078" pt_clust_4="37.31008" pt_clust_5="88.96044" pt_clust_6="14000.00000"></scales>
<clustering>
<clus scale="   37.310">  2  4  1 -1</clus>
<clus scale="   41.471">  1  3  2 -1</clus>
<clus scale="   88.960">  2  5  1 -1</clus>
<clus scale="   37.310">  2  3  1 -1</clus>
</clustering>
</event>
<event>
 6    0  0.1230761E+002  0.1679599E+03  0.7546771E-02  0.1179992E+00
          2   -1    0    0  504    0 -0.00000000000E+00  0.00000000000E+00  0.19331216768E+04  0.19331216768E+04  0.00000000000E+00 0.  1.
         21   -1    0    0  505  502  0.00000000000E+00 -0.00000000000E+00 -0.10322881091E+04  0.10322881091E+04  0.00000000000E+00 0.  1.
         21    1    1    2  503  501  0.65496886257E+02 -0.39506947119E+02 -0.38528785800E+03  0.39280704487E+03  0.00000000000E+00 0.  1.
         21    1    1    2  504  502 -0.56010825089E+02  0.16264983729E+02  0.14473656394E+03  0.15604625969E+03  0.00000000000E+00 0. -1.
         21    1    1    2  505  503  0.23003470836E+02 -0.86282361333E+02 -0.63261288685E+03  0.63888408194E+03  0.00000000000E+00 0.  1.
          2    1    1    2  501    0 -0.32489532004E+02  0.10952432472E+03  0.17739977486E+04  0.17776723994E+04  0.00000000000E+00 0.  1.
<scales pt_clust_3="62.80546" pt_clust_4="58.32463" pt_clust_5="62.80546" pt_clust_6="153.62663"></scales>
<clustering>
<clus scale="   58.325">  1  4  2 -1</clus>
<clus scale="   62.805">  3  5 -1 -1</clus>
<clus scale="  153.627">  1  6  2 -1</clus>
<clus scale="  167.960">  2  3  1 -1</clus>
</clustering>
</event>
<event>
 6    0  0.1230761E+002  0.1782916E+03  0.7546771E-02  0.1169467E+00
         21   -1    0    0  503  502  0.00000000000E+00  0.00000000000E+00  0.21574184053E+03  0.21574184053E+03  0.00000000000E+00 0. -1.
          1   -1    0    0  504    0 -0.00000000000E+00 -0.00000000000E+00 -0.27020870686E+04  0.27020870686E+04  0.00000000000E+00 0.  1.
         21    1    1    2  503  505  0.38628125558E+02  0.64814871425E+02  0.46368534606E+02  0.88561507685E+02  0.00000000000E+00 0. -1.
         21    1    1    2  504  502  0.99291473534E+01 -0.49971216885E+02 -0.20455112969E+03  0.21080055773E+03  0.00000000000E+00 0.  1.
         21    1    1    2  505  501  0.60053707101E+01  0.98153297258E+02  0.12670857182E+03  0.16039076162E+03  0.00000000000E+00 0. -1.
          1    1    1    2  501    0 -0.54562643622E+02 -0.11299695180E+03 -0.24548712048E+04  0.24580760821E+04  0.00000000000E+00 0.  1.
<scales pt_clust_3="51.58300" pt_clust_4="50.94812" pt_clust_5="51.58300" pt_clust_6="168.27697"></scales>
<clustering>
<clus scale="   50.948">  2  4  1 -1</clus>
<clus scale="   51.583">  3  5 -1 -1</clus>
<clus scale="  168.277">  2  6  1 -1</clus>
<clus scale="  178.292">  1  3  2 -1</clus>
</clustering>
</event>
<event>
 6    0  0.1230761E+002  0.1138157E+03  0.7546771E-02  0.1253663E+00
         21   -1    0    0  503  502  0.00000000000E+00  0.00000000000E+00  0.32253028548E+02  0.32253028548E+02  0.00000000000E+00 0. -1.
          2   -1    0    0  504    0 -0.00000000000E+00 -0.00000000000E+00 -0.81445452965E+03  0.81445452965E+03  0.00000000000E+00 0.  1.
         21    1    1    2  503  501  0.13545817908E+02  0.39782309564E+02 -0.14942241815E+03  0.15521978090E+03  0.00000000000E+00 0. -1.
         21    1    1    2  504  505 -0.12951078086E+02 -0.56680257100E+02 -0.14074668999E+03  0.15228267371E+03  0.00000000000E+00 0. -1.
         21    1    1    2  505  502  0.53902967054E+02 -0.73770811874E+02 -0.11102921693E+03  0.14378855849E+03  0.00000000000E+00 0. -1.
          2    1    1    2  501    0 -0.54497706877E+02  0.90668759410E+02 -0.38100317602E+03  0.39541654509E+03  0.00000000000E+00 0.  1.
<scales pt_clust_3="35.40021" pt_clust_4="58.14105" pt_clust_5="98.99248" pt_clust_6="35.40021"></scales>
<clustering>
<clus scale="   35.400">  3  6 -1 -1</clus>
<clus scale="   58.141">  2  4  1 -1</clus>
<clus scale="   98.992">  1  5  2 -1</clus>
<clus scale="   98.992">  1  3  2 -1</clus>
</clustering>
</event>
<event>
 6    0  0.1230761E+002  0.1747639E+03  0.7546771E-02  0.1172969E+00
          2   -1    0    0  505    0 -0.00000000000E+00  0.00000000000E+00  0.21159809689E+04  0.21159809689E+04  0.00000000000E+00 0.  1.
         21   -1    0    0  503  502  0.00000000000E+00 -0.00000000000E+00 -0.34215873262E+02  0.34215873262E+02  0.00000000000E+00 0.  1.
         21    1    1    2  503  501 -0.87782200698E+01  0.45344665947E+02  0.32496641006E+03  0.32823217933E+03  0.00000000000E+00 0. -1.
         21    1    1    2  504  502  0.29493825731E+02 -0.30897241671E+02  0.23220823252E+02  0.48618226332E+02  0.00000000000E+00 0. -1.
         21    1    1    2  505  504  0.40000949304E+02 -0.11665678203E+03  0.19862351192E+03  0.23379516724E+03  0.00000000000E+00 0.  1.
          2    1    1    2  501    0 -0.60716554966E+02  0.10220935775E+03  0.15349543505E+04  0.15395512693E+04  0.00000000000E+00 0.  1.
<scales pt_clust_3="32.43594" pt_clust_4="36.94451" pt_clust_5="36.94451" pt_clust_6="171.20098"></scales>
<clustering>
<clus scale="   32.436">  3  6 -1 -1</clus>
<clus scale="   36.945">  4  5 -1 -1</clus>
<clus scale="  171.201">  1  3  2 -1</clus>
<clus scale="  174.764">  2  3  1 -1</clus>
</clustering>
</event>
<event>
 6    0  0.1230761E+002  0.1382299E+03  0.7546771E-02  0.1215731E+00
          2   -1    0    0  505    0 -0.00000000000E+00  0.00000000000E+00  0.29819203308E+04  0.29819203308E+04  0.00000000000E+00 0. -1.
         21   -1    0    0  504  502  0.00000000000E+00 -0.00000000000E+00 -0.15846807831E+03  0.15846807831E+03  0.00000000000E+00 0. -1.
         21    1    1    2  503  502 -0.88518168703E+02  0.44173680945E+02 -0.82503609755E+02  0.12881624859E+03  0.00000000000E+00 0. -1.
         21    1    1    2  504  501  0.10516539410E+03  0.18375257729E+02  0.66641081266E+03  0.67490797999E+03  0.00000000000E+00 0.  1.
         21    1    1    2  505  503 -0.17178015429E+02 -0.16098321681E+03  0.90713404810E+02  0.18557909936E+03  0.00000000000E+00 0. -1.
          2    1    1    2  501    0  0.53079003220E+00  0.98434278137E+02  0.21488316448E+04  0.21510850812E+04  0.00000000000E+00 0. -1.
<scales pt_clust_3="100.16847" pt_clust_4="138.22994" pt_clust_5="14000.00000" pt_clust_6="98.43571"></scales>
<clustering>
<clus scale="   98.436">  1  6  2 -1</clus>
<clus scale="  100.168">  2  3  1 -1</clus>
<clus scale="  138.230">  1  4  2 -1</clus>
<clus scale="  100.168">  2  3  1 -1</clus>
</clustering>
</event>
<event>
 6    0  0.1230761E+002  0.1513881E+03  0.7546771E-02  0.1198778E+00
          1   -1    0    0  504    0 -0.00000000000E+00  0.00000000000E+00  0.27273360444E+04  0.27273360444E+04  0.00000000000E+00 0. -1.
         21   -1    0    0  501  502  0.00000000000E+00 -0.00000000000E+00 -0.34638871406E+02  0.34638871406E+02  0.00000000000E+00 0.  1.
         21    1    1    2  503  502 -0.58029955622E+02  0.45908661580E+02  0.47198727540E+02  0.87765601684E+02  0.00000000000E+00 0.  1.
         21    1    1    2  504  505  0.17144411643E+02  0.69012927429E+02  0.86289647393E+03  0.86582159809E+03  0.00000000000E+00 0.  1.
         21    1    1    2  505  503 -0.58283855635E+02  0.28639502480E+02  0.11819687974E+03  0.13486189718E+03  0.00000000000E+00 0.  1.
          1    1    1    2  501    0  0.99169399614E+02 -0.14356109149E+03  0.16644050918E+04  0.16735258189E+04  0.00000000000E+00 0. -1.
<scales pt_clust_3="52.33637" pt_clust_4="71.11058" pt_clust_5="52.33637" pt_clust_6="140.70322"></scales>
<clustering>
<clus scale="   52.336">  3  5 -1 -1</clus>
<clus scale="   71.111">  1  4  2 -1</clus>
<clus scale="  140.703">  1  6  2 -1</clus>
<clus scale="  151.388">  2  3  1 -1</clus>
</clustering>
</event>
<event>
 6    0  0.1230761E+002  0.1352934E+03  0.7546771E-02  0.1219806E+00
         21   -1    0    0  505  502  0.00000000000E+00  0.00000000000E+00  0.14553258690E+04  0.14553258690E+04  0.00000000000E+00 0. -1.
          1   -1    0    0  503    0 -0.00000000000E+00 -0.00000000000E+00 -0.20871363599E+04  0.20871363599E+04  0.00000000000E+00 0. -1.
         21    1    1    2  503  502  0.48701765816E+02 -0.14961297062E+02 -0.23409943588E+03  0.23957931522E+03  0.00000000000E+00 0.  1.
         21    1    1    2  504  501 -0.72261244519E+02  0.17341852177E+03  0.15334195379E+03  0.24250654825E+03  0.00000000000E+00 0.  1.
         21    1    1    2  505  504 -0.41532879730E+02 -0.99014611055E+02  0.12512853131E+04  0.12558836761E+04  0.00000000000E+00 0. -1.
          1    1    1    2  501    0  0.65092358433E+02 -0.59442613651E+02 -0.18023383218E+04  0.18044926893E+04  0.00000000000E+00 0. -1.
<scales pt_clust_3="50.94804" pt_clust_4="135.29341" pt_clust_5="107.36634" pt_clust_6="14000.00000"></scales>
<clustering>
<clus scale="   50.948">  2  3  1 -1</clus>
<clus scale="  107.366">  1  5  2 -1</clus>
<clus scale="  135.293">  1  4  2 -1</clus>
<clus scale="  107.366">  1  3  2 -1</clus>
</clustering>
</event>
<event>
 6    0  0.1230761E+002  0.5410812E+02  0.7546771E-02  0.1424364E+00
         21   -1    0    0  505  502  0.00000000000E+00  0.00000000000E+00  0.10345199898E+03  0.10345199898E+03  0.00000000000E+00 0. -1.
          1   -1    0    0  503    0 -0.00000000000E+00 -0.00000000000E+00 -0.58113898297E+03  0.58113898297E+03  0.00000000000E+00 0. -1.
         21    1    1    2  503  504  0.27607528573E+02 -0.25307569520E+02 -0.10632106398E+03  0.11272451976E+03  0.00000000000E+00 0. -1.
         21    1    1    2  504  502  0.41790564924E+02  0.29796730127E+02  0.66024474534E+02  0.83627314200E+02  0.00000000000E+00 0. -1.
         21    1    1    2  505  501 -0.46723205082E+02 -0.75512922160E+02 -0.69206209894E+02  0.11258223125E+03  0.00000000000E+00 0. -1.
          1    1    1    2  501    0 -0.22674888415E+02  0.71023761553E+02 -0.36818418465E+03  0.37565691674E+03  0.00000000000E+00 0. -1.
<scales pt_clust_3="37.45195" pt_clust_4="54.10812" pt_clust_5="14000.00000" pt_clust_6="51.07399"></scales>
<clustering>
<clus scale="   37.452">  2  3  1 -1</clus>
<clus scale="   51.074">  2  6  1 -1</clus>
<clus scale="   54.108">  1  4  2 -1</clus>
<clus scale="   54.108">  1  3  2 -1</clus>
</clustering>
</event>
<event>
 6    0  0.1230761E+002  0.9844897E+02  0.7546771E-02  0.1283592E+00
         -2   -1    0    0    0  501 -0.00000000000E+00  0.00000000000E+00  0.22671634112E+03  0.22671634112E+03  0.00000000000E+00 0. -1.
         21   -1    0    0  505  502  0.00000000000E+00 -0.00000000000E+00 -0.15127198837E+04  0.15127198837E+04  0.00000000000E+00 0.  1.
         21    1    1    2  503  501 -0.47426536251E+02  0.17912942611E+02  0.10498496739E+02  0.51772273347E+02  0.00000000000E+00 0.  1.
         21    1    1    2  504  502  0.12073055668E+03  0.63436506979E+02 -0.13408397767E+04  0.13477579028E+04  0.00000000000E+00 0.  1.
         21    1    1    2  505  503 -0.36793896144E+02 -0.12041051941E+02 -0.13700332397E+03  0.14236814428E+03  0.00000000000E+00 0.  1.
         -2    1    1    2    0  504 -0.36510124281E+02 -0.69308397649E+02  0.18134106134E+03  0.19753790443E+03  0.00000000000E+00 0. -1.
<scales pt_clust_3="51.15135" pt_clust_4="98.44897" pt_clust_5="38.71405" pt_clust_6="14000.00000"></scales>
<clustering>
<clus scale="   38.714">  2  5  1 -1</clus>
<clus scale="   51.151">  1  3  2 -1</clus>
<clus scale="   98.449">  2  4  1 -1</clus>
<clus scale="   38.714">  2  3  1 -1</clus>
</clustering>
</event>
<event>
 6    0  0.1230761E+002  0.1174861E+03  0.7546771E-02  0.1247303E+00
          1   -1    0    0  504    0 -0.00000000000E+00  0.00000000000E+00  0.18915053361E+04  0.18915053361E+04  0.00000000000E+00 0.  1.
         21   -1    0    0  503  502  0.00000000000E+00 -0.00000000000E+00 -0.62441439996E+02  0.62441439996E+02  0.00000000000E+00 0. -1.
         21    1    1    2  503  505  0.73857017193E+02 -0.76257719319E+02  0.24838664318E+02  0.10902778540E+03  0.00000000000E+00 0. -1.
         21    1    1    2  504  502  0.37285305474E+02  0.57984406252E+02  0.46406902996E+02  0.83102262414E+02  0.00000000000E+00 0. -1.
         21    1    1    2  505  501 -0.45729681779E+02  0.25986927280E+02  0.73449998521E+03  0.73638084743E+03  0.00000000000E+00 0.  1.
          1    1    1    2  501    0 -0.65412640888E+02 -0.77136142128E+01  0.10233183436E+04  0.10254358808E+04  0.00000000000E+00 0.  1.
<scales pt_clust_3="111.42983" pt_clust_4="68.93755" pt_clust_5="33.27316" pt_clust_6="33.27316"></scales>
<clustering>
<clus scale="   33.273">  5  6 -1 -1</clus>
<clus scale="   68.938">  2  4  1 -1</clus>
<clus scale="  111.430">  2  3  1 -1</clus>
<clus scale="   68.938">  2  3  1 -1</clus>
</clustering>
</event>
<event>
 6    0  0.1230761E+002  0.8263143E+02  0.7546771E-02  0.1321745E+00
         -2   -1    0    0    0  501 -0.00000000000E+00  0.00000000000E+00  0.24068374635E+03  0.24068374635E+03  0.00000000000E+00 0. -1.
         21   -1    0    0  504  502  0.00000000000E+00 -0.00000000000E+00 -0.32469415348E+03  0.32469415348E+03  0.00000000000E+00 0.  1.
         21    1    1    2  503  501 -0.32611771608E+02  0.49042040471E+02  0.34529729655E+02  0.68271162368E+02  0.00000000000E+00 0. -1.
         21    1    1    2  504  503  0.12723955164E+02  0.31087664274E+02 -0.44373683676E+02  0.55653981960E+02  0.00000000000E+00 0. -1.
         21    1    1    2  505  502 -0.61144678585E+02 -0.11623042885E+02 -0.23814098581E+03  0.24613999262E+03  0.00000000000E+00 0.  1.
         -2    1    1    2    0  505  0.81032495029E+02 -0.68506661861E+02  0.16397453270E+03  0.19531276288E+03  0.00000000000E+00 0. -1.
<scales pt_clust_3="82.63143" pt_clust_4="33.59080" pt_clust_5="52.36294" pt_clust_6="14000.00000"></scales>
<clustering>
<clus scale="   33.591">  2  4  1 -1</clus>
<clus scale="   52.363">  2  5  1 -1</clus>
<clus scale="   82.631">  2  3  1 -1</clus>
<clus scale="   33.591">  2  3  1 -1</clus>
</clustering>
</event>
<event>
 6    0  0.1230761E+002  0.6291908E+02  0.7546771E-02  0.1385975E+00
         -2   -1    0    0    0  501 -0.00000000000E+00  0.00000000000E+00  0.13970039735E+03  0.13970039735E+03  0.00000000000E+00 0.  1.
         21   -1    0    0  504  502  0.00000000000E+00 -0.00000000000E+00 -0.29868703352E+03  0.29868703352E+03  0.00000000000E+00 0.  1.
         21    1    1    2  503  505  0.51393582367E+02  0.64100632623E+02 -0.25779375711E+02  0.86109044956E+02  0.00000000000E+00 0.  1.
         21    1    1    2  504  501 -0.32275456091E+02 -0.37602000962E+02  0.32641752028E+00  0.49555242816E+02  0.00000000000E+00 0.  1.
         21    1    1    2  505  502  0.23670504347E+02 -0.61199271107E+02 -0.20341569941E+03  0.21373719921E+03  0.00000000000E+00 0.  1.
         -2    1    1    2    0  503 -0.42788630623E+02  0.34700639446E+02  0.69882021436E+02  0.88985943882E+02  0.00000000000E+00 0.  1.
<scales pt_clust_3="14000.00000" pt_clust_4="49.55417" pt_clust_5="62.91908" pt_clust_6="65.70396"></scales>
<clustering>
<clus scale="   49.554">  1  4  2 -1</clus>
<clus scale="   65.704">  1  6  2 -1</clus>
<clus scale="   62.919">  2  5  1 -1</clus>
<clus scale="   62.919">  2  3  1 -1</clus>
</clustering>
</event>
<event>
 6    0  0.1230761E+002  0.1070253E+03  0.7546771E-02  0.1266180E+00
          1   -1    0    0  505    0 -0.00000000000E+00  0.00000000000E+00  0.75129448392E+03  0.75129448392E+03  0.00000000000E+00 0. -1.
         21   -1    0    0  503  502  0.00000000000E+00 -0.00000000000E+00 -0.11902643672E+04  0.11902643672E+04  0.00000000000E+00 0.  1.
         21    1    1    2  503  501  0.22838371705E+02 -0.14571234424E+03 -0.49607687844E+03  0.51753835394E+03  0.00000000000E+00 0. -1.
         21    1    1    2  504  502  0.11726069903E+02  0.94805506057E+02 -0.67381398558E+03  0.68055188770E+03  0.00000000000E+00 0.  1.
         21    1    1    2  505  504  0.82413774875E+01  0.29030926901E+02  0.36386695579E+02  0.47272683812E+02  0.00000000000E+00 0.  1.
          1    1    1    2  501    0 -0.42805819096E+02  0.21875911277E+02  0.69453428516E+03  0.69619592566E+03  0.00000000000E+00 0. -1.
<scales pt_clust_3="107.02526" pt_clust_4="14000.00000" pt_clust_5="30.17806" pt_clust_6="61.14857"></scales>
<clustering>
<clus scale="   30.178">  1  5  2 -1</clus>
<clus scale="   61.149">  1  6  2 -1</clus>
<clus scale="  107.025">  1  3  2 -1</clus>
<clus scale="  107.025">  2  3  1 -1</clus>
</clustering>
</event>
<event>
 6    0  0.1230761E+002  0.1033929E+03  0.7546771E-02  0.1273319E+00
         21   -1    0    0  503  502  0.00000000000E+00  0.00000000000E+00  0.54420649664E+02  0.54420649664E+02  0.00000000000E+00 0. -1.
          2   -1    0    0  505    0 -0.00000000000E+00 -0.00000000000E+00 -0.11589406529E+04  0.11589406529E+04  0.00000000000E+00 0.  1.
         21    1    1    2  503  501 -0.53094141701E+02  0.48856469886E+02  0.10083453349E+02  0.72853404616E+02  0.00000000000E+00 0. -1.
         21    1    1    2  504  502 -0.20137551781E+02  0.26033645751E+02 -0.38292301104E+02  0.50493286946E+02  0.00000000000E+00 0.  1.
         21    1    1    2  505  504  0.18748999913E+01  0.38022136433E+02 -0.28061754513E+03  0.28318793185E+03  0.00000000000E+00 0.  1.
          2    1    1    2  501    0  0.71356793490E+02 -0.11291225207E+03 -0.79569361036E+03  0.80682667916E+03  0.00000000000E+00 0.  1.
<scales pt_clust_3="14000.00000" pt_clust_4="32.91309" pt_clust_5="38.73772" pt_clust_6="103.39289"></scales>
<clustering>
<clus scale="   32.913">  1  4  2 -1</clus>
<clus scale="   38.738">  2  5  1 -1</clus>
<clus scale="  103.393">  2  6  1 -1</clus>
<clus scale="   32.913">  1  3  2 -1</clus>
</clustering>
</event>
<event>
 6    0  0.1230761E+002  0.1080580E+03  0.7546771E-02  0.1264209E+00
         21   -1    0    0  503  502  0.00000000000E+00  0.00000000000E+00  0.68421648537E+02  0.68421648537E+02  0.00000000000E+00 0.  1.
          1   -1    0    0  504    0 -0.00000000000E+00 -0.00000000000E+00 -0.94072855579E+03  0.94072855579E+03  0.00000000000E+00 0.  1.
         21    1    1    2  503  501 -0.39497167182E+02  0.96883746799E+02 -0.23154527986E+02  0.10715698193E+03  0.00000000000E+00 0.  1.
         21    1    1    2  504  505  0.22521883270E+02  0.42291227623E+02 -0.41593552680E+03  0.41868621378E+03  0.00000000000E+00 0.  1.
         21    1    1    2  505  502  0.66843214119E+02 -0.97848061937E+02 -0.14187687864E+03  0.18485482734E+03  0.00000000000E+00 0.  1.
          1    1    1    2  501    0 -0.49867930207E+02 -0.41326912485E+02 -0.29133997383E+03  0.29845218127E+03  0.00000000000E+00 0.  1.
<scales pt_clust_3="14000.00000" pt_clust_4="47.91433" pt_clust_5="108.05803" pt_clust_6="41.09162"></scales>
<clustering>
<clus scale="   47.914">  2  4  1 -1</clus>
<clus scale="   41.092">  2  6  1 -1</clus>
<clus scale="  108.058">  2  5  1 -1</clus>
<clus scale="  108.058">  1  3  2 -1</clus>
</clustering>
</event>
<event>
 6    0  0.1230761E+002  0.1448730E+03  0.7546771E-02  0.1206918E+00
          2   -1    0    0  505    0 -0.00000000000E+00  0.00000000000E+00  0.38517423205E+04  0.38517423205E+04  0.00000000000E+00 0.  1.
         21   -1    0    0  503  502  0.00000000000E+00 -0.00000000000E+00 -0.37299908078E+02  0.37299908078E+02  0.00000000000E+00 0.  1.
         21    1    1    2  503  501 -0.68939688975E+01 -0.33954448569E+02  0.89917641156E+02  0.96361888607E+02  0.00000000000E+00 0. -1.
         21    1    1    2  504  502  0.14064022485E+03  0.91136989973E+02  0.18735688724E+03  0.25137268544E+03  0.00000000000E+00 0.  1.
         21    1    1    2  505  504 -0.41594062490E+01 -0.39837735647E+02  0.93442824660E+03  0.93528631653E+03  0.00000000000E+00 0.  1.
          2    1    1    2  501    0 -0.12958684971E+03 -0.17344805757E+02  0.26027396374E+04  0.26060213380E+04  0.00000000000E+00 0.  1.
<scales pt_clust_3="34.64724" pt_clust_4="144.87296" pt_clust_5="40.48849" pt_clust_6="14000.00000"></scales>
<clustering>
<clus scale="   34.647">  2  3  1 -1</clus>
<clus scale="   40.488">  1  5  2 -1</clus>
<clus scale="  144.873">  2  4  1 -1</clus>
<clus scale="   34.647">  2  3  1 -1</clus>
</clustering>
</event>
<event>
 6    0  0.1230761E+002  0.8312569E+02  0.7546771E-02  0.1320408E+00
         21   -1    0    0  505  502  0.00000000000E+00  0.00000000000E+00  0.48556381686E+02  0.48556381686E+02  0.00000000000E+00 0.  1.
          2   -1    0    0  503    0 -0.00000000000E+00 -0.00000000000E+00 -0.20824022420E+04  0.20824022420E+04  0.00000000000E+00 0. -1.
         21    1    1    2  503  504  0.37067586231E+02 -0.31078976708E+02 -0.30417876581E+03  0.30800102324E+03  0.00000000000E+00 0.  1.
         21    1    1    2  504  502  0.54680967373E+02  0.17892569728E+02 -0.63983521652E+01  0.57888609887E+02  0.00000000000E+00 0.  1.
         21    1    1    2  505  501 -0.25824669213E+01  0.52358015955E+02 -0.15695861680E+02  0.54721029267E+02  0.00000000000E+00 0.  1.
          2    1    1    2  501    0 -0.89166086683E+02 -0.39171608975E+02 -0.17075728806E+04  0.17103479613E+04  0.00000000000E+00 0. -1.
<scales pt_clust_3="48.37260" pt_clust_4="83.12569" pt_clust_5="51.77498" pt_clust_6="14000.00000"></scales>
<clustering>
<clus scale="   48.373">  2  3  1 -1</clus>
<clus scale="   51.775">  1  5  2 -1</clus>
<clus scale="   83.126">  1  4  2 -1</clus>
<clus scale="   51.775">  1  3  2 -1</clus>
</clustering>
</event>
<event>
 6    0  0.1230761E+002  0.1207701E+03  0.7546771E-02  0.1241832E+00
         21   -1    0    0  505  502  0.00000000000E+00  0.00000000000E+00  0.83861486125E+02  0.83861486125E+02  0.00000000000E+00 0.  1.
          1   -1    0    0  504    0 -0.00000000000E+00 -0.00000000000E+00 -0.76579204419E+03  0.76579204419E+03  0.00000000000E+00 0. -1.
         21    1    1    2  503  501  0.49339149973E+01  0.98102402757E+02 -0.93886284564E+02  0.13587884078E+03  0.00000000000E+00 0.  1.
         21    1    1    2  504  502 -0.57444007183E+02 -0.67166264296E+02 -0.39770506471E+02  0.96916532159E+02  0.00000000000E+00 0. -1.
         21    1    1    2  505  503  0.30110090020E+02  0.61558891508E+02 -0.88426874209E+01  0.69096365791E+02  0.00000000000E+00 0.  1.
          1    1    1    2  501    0  0.22400002165E+02 -0.92495029969E+02 -0.53943107961E+03  0.54776179158E+03  0.00000000000E+00 0. -1.
<scales pt_clust_3="57.51636" pt_clust_4="88.38055" pt_clust_5="57.51636" pt_clust_6="99.21508"></scales>
<clustering>
<clus scale="   57.516">  3  5 -1 -1</clus>
<clus scale="   88.381">  1  4  2 -1</clus>
<clus scale="   99.215">  2  6  1 -1</clus>
<clus scale="   88.381">  1  3  2 -1</clus>
</clustering>
</event>
<event>
 6    0  0.1230761E+002  0.5972129E+03  0.7546771E-02  0.9911205E-01
         21   -1    0    0  501  502  0.00000000000E+00  0.00000000000E+00  0.19702740394E+03  0.19702740394E+03  0.00000000000E+00 0.  1.
          1   -1    0    0  505    0 -0.00000000000E+00 -0.00000000000E+00 -0.21051726592E+04  0.21051726592E+04  0.00000000000E+00 0. -1.
         21    1    1    2  503  504  0.76209230150E+02  0.61333193906E+02 -0.17253598248E+03  0.19833878261E+03  0.00000000000E+00 0. -1.
         21    1    1    2  504  502  0.46211672977E+02  0.49627948776E+03 -0.47925712981E+03  0.69145950363E+03  0.00000000000E+00 0.  1.
         21    1    1    2  505  503 -0.45538813040E+02 -0.11898057343E+02 -0.33889674803E+03  0.34214960629E+03  0.00000000000E+00 0.  1.
          1    1    1    2  501    0 -0.76882090087E+02 -0.54571462432E+03 -0.91745539491E+03  0.10702521706E+04  0.00000000000E+00 0. -1.
<scales pt_clust_3="88.06171" pt_clust_4="88.06171" pt_clust_5="47.06748" pt_clust_6="561.84994"></scales>
<clustering>
<clus scale="   47.067">  2  5  1 -1</clus>
<clus scale="   88.062">  3  4 -1 -1</clus>
<clus scale="  561.850">  2  6  1 -1</clus>
<clus scale="  597.213">  1  3  2 -1</clus>
</clustering>
</event>
<event>
 6    0  0.1230761E+002  0.2272864E+03  0.7546771E-02  0.1128564E+00
          2   -1    0    0  505    0 -0.00000000000E+00  0.00000000000E+00  0.27220943061E+04  0.27220943061E+04  0.00000000000E+00 0.  1.
         21   -1    0    0  503  502  0.00000000000E+00 -0.00000000000E+00 -0.12477594197E+04  0.12477594197E+04  0.00000000000E+00 0.  1.
         21    1    1    2  503  504  0.90621728191E+02  0.15116461025E+03 -0.11976269842E+04  0.12105260964E+04  0.00000000000E+00 0.  1.
         21    1    1    2  504  501 -0.44357879366E+02 -0.34376234758E+02  0.10945939728E+04  0.10960316201E+04  0.00000000000E+00 0. -1.
         21    1    1    2  505  502  0.21310340476E+02  0.30156221147E+02 -0.30144388879E+02  0.47667729818E+02  0.00000000000E+00 0. -1.
          2    1    1    2  501    0 -0.67574189301E+02 -0.14694459664E+03  0.16075122866E+04  0.16156282794E+04  0.00000000000E+00 0.  1.
<scales pt_clust_3="212.94128" pt_clust_4="46.81918" pt_clust_5="36.92598" pt_clust_6="46.81918"></scales>
<clustering>
<clus scale="   36.926">  2  5  1 -1</clus>
<clus scale="   46.819">  4  6 -1 -1</clus>
<clus scale="  212.941">  2  3  1 -1</clus>
<clus scale="   36.926">  2  3  1 -1</clus>
</clustering>
</event>
<event>
 6    0  0.1230761E+002  0.8997223E+02  0.7546771E-02  0.1302919E+00
         21   -1    0    0  501  502  0.00000000000E+00  0.00000000000E+00  0.56249350057E+03  0.56249350057E+03  0.00000000000E+00 0.  1.
          3   -1    0    0  503    0 -0.00000000000E+00 -0.00000000000E+00 -0.14921742895E+03  0.14921742895E+03  0.00000000000E+00 0.  1.
         21    1    1    2  503  505  0.43980946125E+02  0.15599605694E+02 -0.39810556240E+02  0.61339642223E+02  0.00000000000E+00 0. -1.
         21    1    1    2  504  502  0.37441651094E+02  0.62240692304E+01  0.43070926256E+03  0.43237840502E+03  0.00000000000E+00 0.  1.
         21    1    1    2  505  504  0.58833475460E+02  0.18188564732E+01  0.44839928988E+02  0.73995305968E+02  0.00000000000E+00 0. -1.
          3    1    1    2  501    0 -0.14025607268E+03 -0.23642531398E+02 -0.22462563694E+02  0.14399757631E+03  0.00000000000E+00 0.  1.
<scales pt_clust_3="49.74034" pt_clust_4="37.95545" pt_clust_5="14000.00000" pt_clust_6="89.97223"></scales>
<clustering>
<clus scale="   37.955">  1  4  2 -1</clus>
<clus scale="   49.740">  2  3  1 -1</clus>
<clus scale="   89.972">  2  6  1 -1</clus>
<clus scale="   37.955">  1  3  2 -1</clus>
</clustering>
</event>
<event>
 6    0  0.1230761E+002  0.3304587E+03  0.7546771E-02  0.1070934E+00
         21   -1    0    0  505  502  0.00000000000E+00  0.00000000000E+00  0.13420095657E+03  0.13420095657E+03  0.00000000000E+00 0.  1.
          2   -1    0    0  503    0 -0.00000000000E+00 -0.00000000000E+00 -0.10111131354E+04  0.10111131354E+04  0.00000000000E+00 0. -1.
         21    1    1    2  503  504 -0.81161069248E+02 -0.23321350334E+03 -0.16864155417E+03  0.29902446571E+03  0.00000000000E+00 0.  1.
         21    1    1    2  504  502 -0.69128177770E+02 -0.43077061322E+02 -0.13221194587E+03  0.15528791583E+03  0.00000000000E+00 0.  1.
         21    1    1    2  505  501 -0.35202176228E+02  0.40694481287E+02 -0.16697873480E+02  0.56338734430E+02  0.00000000000E+00 0.  1.
          2    1    1    2  501    0  0.18549142325E+03  0.23559608337E+03 -0.55936080532E+03  0.63466297602E+03  0.00000000000E+00 0. -1.
<scales pt_clust_3="77.46295" pt_clust_4="77.46295" pt_clust_5="53.80738" pt_clust_6="303.70934"></scales>
<clustering>
<clus scale="   53.807">  1  5  2 -1</clus>
<clus scale="   77.463">  3  4 -1 -1</clus>
<clus scale="  303.709">  2  6  1 -1</clus>
<clus scale="   53.807">  1  3  2 -1</clus>
</clustering>
</event>
<event>
 6    0  0.1230761E+002  0.7494256E+02  0.7546771E-02  0.1344049E+00
         21   -1    0    0  504  502  0.00000000000E+00  0.00000000000E+00  0.54323388726E+02  0.54323388726E+02  0.00000000000E+00 0. -1.
         -2   -1    0    0    0  501 -0.00000000000E+00 -0.00000000000E+00 -0.48978422703E+03  0.48978422703E+03  0.00000000000E+00 0. -1.
         21    1    1    2  503  502  0.43711780853E+02  0.63897824771E+02 -0.31219368307E+02  0.83476348467E+02  0.00000000000E+00 0. -1.
         21    1    1    2  504  505  0.33662692900E+02 -0.23418755677E+02 -0.10122477784E+02  0.42238366058E+02  0.00000000000E+00 0.  1.
         21    1    1    2  505  501 -0.23600173760E-01 -0.58696917828E+02 -0.13130698387E+03  0.14382924853E+03  0.00000000000E+00 0. -1.
         -2    1    1    2    0  503 -0.77350873579E+02  0.18217848734E+02 -0.26281200835E+03  0.27456365271E+03  0.00000000000E+00 0. -1.
<scales pt_clust_3="74.94256" pt_clust_4="41.00750" pt_clust_5="62.76884" pt_clust_6="14000.00000"></scales>
<clustering>
<clus scale="   41.007">  1  4  2 -1</clus>
<clus scale="   62.769">  2  5  1 -1</clus>
<clus scale="   74.943">  1  3  2 -1</clus>
<clus scale="   41.007">  1  3  2 -1</clus>
</clustering>
</event>
<event>
 6    0  0.1230761E+002  0.1303251E+03  0.7546771E-02  0.1226974E+00
         21   -1    0    0  505  502  0.00000000000E+00  0.00000000000E+00  0.14567917492E+03  0.14567917492E+03  0.00000000000E+00 0. -1.
          2   -1    0    0  503    0 -0.00000000000E+00 -0.00000000000E+00 -0.82962987072E+03  0.82962987072E+03  0.00000000000E+00 0.  1.
         21    1    1    2  503  504  0.21540438534E+02 -0.87165258131E+02 -0.76745970162E+02  0.11811738506E+03  0.00000000000E+00 0. -1.
         21    1    1    2  504  502 -0.29380805495E+02 -0.29251518922E+02  0.85533542378E+02  0.95051932976E+02  0.00000000000E+00 0. -1.
         21    1    1    2  505  501 -0.18234571408E+02 -0.28828393128E+02  0.16372682879E+02  0.37837026700E+02  0.00000000000E+00 0. -1.
          2    1    1    2  501    0  0.26074938369E+02  0.14524517018E+03 -0.70911095089E+03  0.72430270091E+03  0.00000000000E+00 0.  1.
<scales pt_clust_3="130.32508" pt_clust_4="67.03586" pt_clust_5="34.11123" pt_clust_6="14000.00000"></scales>
<clustering>
<clus scale="   34.111">  1  5  2 -1</clus>
<clus scale="   67.036">  1  4  2 -1</clus>
<clus scale="  130.325">  1  3  2 -1</clus>
<clus scale="   34.111">  1  3  2 -1</clus>
</clustering>
</event>
<event>
 6    0  0.1230761E+002  0.2030724E+03  0.7546771E-02  0.1147172E+00
          2   -1    0    0  505    0 -0.00000000000E+00  0.00000000000E+00  0.16191691061E+04  0.16191691061E+04  0.00000000000E+00 0.  1.
         21   -1    0    0  504  502  0.00000000000E+00 -0.00000000000E+00 -0.86124065764E+03  0.86124065764E+03  0.00000000000E+00 0.  1.
         21    1    1    2  503  501  0.15678286870E+02  0.34412478747E+02  0.22854491048E+03  0.23165233320E+03  0.00000000000E+00 0.  1.
         21    1    1    2  504  503 -0.13232080475E+03 -0.78868599145E+02 -0.35982700718E+03  0.39141349798E+03  0.00000000000E+00 0.  1.
         21    1    1    2  505  502 -0.37570475624E+02 -0.12319274050E+02 -0.47833192559E+03  0.47996326546E+03  0.00000000000E+00 0.  1.
          2    1    1    2  501    0  0.15421299350E+03  0.56775394448E+02  0.13675424708E+04  0.13773806672E+04  0.00000000000E+00 0.  1.
<scales pt_clust_3="31.50753" pt_clust_4="192.15724" pt_clust_5="39.53865" pt_clust_6="31.50753"></scales>
<clustering>
<clus scale="   31.508">  3  6 -1 -1</clus>
<clus scale="   39.539">  2  5  1 -1</clus>
<clus scale="  192.157">  2  4  1 -1</clus>
<clus scale="   39.539">  2  3  1 -1</clus>
</clustering>
</event>
<event>
 6    0  0.1230761E+002  0.1447843E+03  0.7546771E-02  0.1207033E+00
          2   -1    0    0  505    0 -0.00000000000E+00  0.00000000000E+00  0.45229402879E+03  0.45229402879E+03  0.00000000000E+00 0.  1.
         21   -1    0    0  501  502  0.00000000000E+00 -0.00000000000E+00 -0.40900236128E+03  0.40900236128E+03  0.00000000000E+00 0.  1.
         21    1    1    2  503  504 -0.36776017632E+02  0.96833057051E+02 -0.30271960702E+03  0.31995042879E+03  0.00000000000E+00 0.  1.
         21    1    1    2  504  502 -0.48413539160E+02  0.24813741551E+02 -0.61226807370E+02  0.81904300769E+02  0.00000000000E+00 0.  1.
         21    1    1    2  505  503  0.26902542579E+02  0.15538585201E+02  0.63087817467E+01  0.31701658544E+02  0.00000000000E+00 0. -1.
          2    1    1    2  501    0  0.58287014213E+02 -0.13718538380E+03  0.40092930015E+03  0.42774000196E+03  0.00000000000E+00 0.  1.
<scales pt_clust_3="14000.00000" pt_clust_4="54.00358" pt_clust_5="31.06758" pt_clust_6="144.78431"></scales>
<clustering>
<clus scale="   31.068">  1  5  2 -1</clus>
<clus scale="   54.004">  2  4  1 -1</clus>
<clus scale="  144.784">  1  6  2 -1</clus>
<clus scale="   54.004">  2  3  1 -1</clus>
</clustering>
</event>
<event>
 6    0  0.1230761E+002  0.8910960E+02  0.7546771E-02  0.1305022E+00
          1   -1    0    0  505    0 -0.00000000000E+00  0.00000000000E+00  0.19020641395E+04  0.19020641395E+04  0.00000000000E+00 0. -1.
         21   -1    0    0  503  502  0.00000000000E+00 -0.00000000000E+00 -0.26908953723E+03  0.26908953723E+03  0.00000000000E+00 0. -1.
         21    1    1    2  503  501  0.57120064541E+02 -0.28134543662E+02 -0.24411893415E+03  0.25228616358E+03  0.00000000000E+00 0. -1.
         21    1    1    2  504  502 -0.17515547803E+02  0.43507584240E+02  0.20032869261E+02  0.51000197569E+02  0.00000000000E+00 0.  1.
         21    1    1    2  505  504  0.56098182472E+02  0.18396704488E+02  0.22377891370E+03  0.23143562178E+03  0.00000000000E+00 0. -1.
          1    1    1    2  501    0 -0.95702699209E+02 -0.33769745066E+02  0.16332817535E+04  0.16364316938E+04  0.00000000000E+00 0. -1.
<scales pt_clust_3="42.50771" pt_clust_4="46.90101" pt_clust_5="89.10960" pt_clust_6="14000.00000"></scales>
<clustering>
<clus scale="   46.901">  2  4  1 -1</clus>
<clus scale="   42.508">  2  3  1 -1</clus>
<clus scale="   89.110">  2  5  1 -1</clus>
<clus scale="   46.901">  2  3  1 -1</clus>
</clustering>
</event>
<event>
 6    0  0.1230761E+002  0.2495299E+03  0.7546771E-02  0.1113602E+00
         21   -1    0    0  501  502  0.00000000000E+00  0.00000000000E+00  0.22526155553E+03  0.22526155553E+03  0.00000000000E+00 0.  1.
          2   -1    0    0  504    0 -0.00000000000E+00 -0.00000000000E+00 -0.27080254552E+04  0.27080254552E+04  0.00000000000E+00 0.  1.
         21    1    1    2  503  505 -0.37105701509E+02  0.35165337426E+02  0.25334166498E+02  0.57054833563E+02  0.00000000000E+00 0.  1.
         21    1    1    2  504  503 -0.28338503979E+02 -0.20251052042E+02 -0.15994625119E+03  0.16369477447E+03  0.00000000000E+00 0.  1.
         21    1    1    2  505  502  0.38825779453E+02  0.19488500151E+03  0.12211316294E+03  0.23323642410E+03  0.00000000000E+00 0.  1.
          2    1    1    2  501    0  0.26618426035E+02 -0.20979928689E+03 -0.24702649780E+04  0.24793009787E+04  0.00000000000E+00 0.  1.
<scales pt_clust_3="49.79157" pt_clust_4="34.83067" pt_clust_5="49.79157" pt_clust_6="229.48415"></scales>
<clustering>
<clus scale="   34.831">  2  4  1 -1</clus>
<clus scale="   49.792">  3  5 -1 -1</clus>
<clus scale="  229.484">  2  6  1 -1</clus>
<clus scale="  249.530">  1  3  2 -1</clus>
</clustering>
</event>
<event>
 6    0  0.1230761E+002  0.1098818E+03  0.7546771E-02  0.1260789E+00
         -3   -1    0    0    0  501 -0.00000000000E+00  0.00000000000E+00  0.13012276784E+04  0.13012276784E+04  0.00000000000E+00 0.  1.
         21   -1    0    0  504  502  0.00000000000E+00 -0.00000000000E+00 -0.82328474943E+02  0.82328474943E+02  0.00000000000E+00 0.  1.
         21    1    1    2  503  502  0.31158299186E+02  0.11977627876E+02 -0.26654613762E+02  0.42717345570E+02  0.00000000000E+00 0.  1.
         21    1    1    2  504  501 -0.86126863540E+02  0.10163963422E+02  0.20845602800E+03  0.22577656740E+03  0.00000000000E+00 0.  1.
         21    1    1    2  505  503  0.46531176911E+02  0.61707865413E+02  0.27990015644E+01  0.77335926246E+02  0.00000000000E+00 0.  1.
         -3    1    1    2    0  505  0.84373874423E+01 -0.83849456711E+02  0.10342987876E+04  0.10377263141E+04  0.00000000000E+00 0.  1.
<scales pt_clust_3="32.05186" pt_clust_4="98.46582" pt_clust_5="32.05186" pt_clust_6="84.27290"></scales>
<clustering>
<clus scale="   32.052">  3  5 -1 -1</clus>
<clus scale="   84.273">  1  6  2 -1</clus>
<clus scale="   98.466">  1  4  2 -1</clus>
<clus scale="  109.882">  2  3  1 -1</clus>
</clustering>
</event>
<event>
 6    0  0.1230761E+002  0.1035328E+03  0.7546771E-02  0.1273038E+00
         21   -1    0    0  505  502  0.00000000000E+00  0.00000000000E+00  0.70356222974E+03  0.70356222974E+03  0.00000000000E+00 0.  1.
          1   -1    0    0  504    0 -0.00000000000E+00 -0.00000000000E+00 -0.88147587446E+03  0.88147587446E+03  0.00000000000E+00 0. -1.
         21    1    1    2  503  502 -0.87402576570E+02 -0.66593880774E+02  0.33814704726E+03  0.35555221968E+03  0.00000000000E+00 0.  1.
         21    1    1    2  504  503  0.40156098371E+02 -0.24693666937E+02 -0.69509701708E+03  0.69669372939E+03  0.00000000000E+00 0. -1.
         21    1    1    2  505  501  0.26892524954E+02 -0.17530820314E+02  0.33775602852E+03  0.33927816369E+03  0.00000000000E+00 0.  1.
          1    1    1    2  501    0  0.20353953245E+02  0.10881836803E+03 -0.15871970341E+03  0.19351399144E+03  0.00000000000E+00 0. -1.
<scales pt_clust_3="103.53281" pt_clust_4="47.21135" pt_clust_5="32.10199" pt_clust_6="14000.00000"></scales>
<clustering>
<clus scale="   32.102">  1  5  2 -1</clus>
<clus scale="   47.211">  2  4  1 -1</clus>
<clus scale="  103.533">  1  3  2 -1</clus>
<clus scale="   32.102">  1  3  2 -1</clus>
</clustering>
</event>
<event>
 6    0  0.1230761E+002  0.5866491E+02  0.7546771E-02  0.1403521E+00
         21   -1    0    0  505  502  0.00000000000E+00  0.00000000000E+00  0.22730716157E+03  0.22730716157E+03  0.00000000000E+00 0. -1.
          2   -1    0    0  504    0 -0.00000000000E+00 -0.00000000000E+00 -0.46765000286E+03  0.46765000286E+03  0.00000000000E+00 0. -1.
         21    1    1    2  503  502  0.47974349273E+02 -0.94568058600E+02  0.78625727915E+02  0.13201007911E+03  0.00000000000E+00 0. -1.
         21    1    1    2  504  503 -0.39239047082E+02 -0.22800046718E+02 -0.61697567121E+02  0.76590696138E+02  0.00000000000E+00 0.  1.
         21    1    1    2  505  501 -0.25202179340E+02  0.46039544683E+02  0.10466695327E+03  0.11708954105E+03  0.00000000000E+00 0. -1.
          2    1    1    2  501    0  0.16466877150E+02  0.71328560635E+02 -0.36193795535E+03  0.36926684813E+03  0.00000000000E+00 0. -1.
<scales pt_clust_3="14000.00000" pt_clust_4="45.38221" pt_clust_5="52.47280" pt_clust_6="58.66491"></scales>
<clustering>
<clus scale="   45.382">  2  4  1 -1</clus>
<clus scale="   52.473">  1  5  2 -1</clus>
<clus scale="   58.665">  2  6  1 -1</clus>
<clus scale="   52.473">  1  3  2 -1</clus>
</clustering>
</event>
<event>
 6    0  0.1230761E+002  0.1856154E+03  0.7546771E-02  0.1162476E+00
         21   -1    0    0  504  502  0.00000000000E+00  0.00000000000E+00  0.18804143006E+03  0.18804143006E+03  0.00000000000E+00 0.  1.
          1   -1    0    0  503    0 -0.00000000000E+00 -0.00000000000E+00 -0.12251615336E+04  0.12251615336E+04  0.00000000000E+00 0.  1.
         21    1    1    2  503  502  0.92181140060E+02 -0.12204421231E+03 -0.36029369072E+03  0.39141243710E+03  0.00000000000E+00 0.  1.
         21    1    1    2  504  505 -0.10451571757E+03  0.94776682614E+02  0.67529845224E+02  0.15641750152E+03  0.00000000000E+00 0.  1.
         21    1    1    2  505  501 -0.42925534835E+02  0.17035530024E+01  0.51571271504E+02  0.67120039320E+02  0.00000000000E+00 0.  1.
          1    1    1    2  501    0  0.55260112350E+02  0.25563976694E+02 -0.79592752957E+03  0.79825298574E+03  0.00000000000E+00 0.  1.
<scales pt_clust_3="172.38469" pt_clust_4="37.97652" pt_clust_5="37.97652" pt_clust_6="60.88675"></scales>
<clustering>
<clus scale="   37.977">  4  5 -1 -1</clus>
<clus scale="   60.887">  2  6  1 -1</clus>
<clus scale="  172.385">  2  3  1 -1</clus>
<clus scale="  185.615">  1  3  2 -1</clus>
</clustering>
</event>
<event>
 6    0  0.1230761E+002  0.9084105E+02  0.7546771E-02  0.1300828E+00
         21   -1    0    0  501  502  0.00000000000E+00  0.00000000000E+00  0.31792576567E+03  0.31792576567E+03  0.00000000000E+00 0. -1.
          4   -1    0    0  503    0 -0.00000000000E+00 -0.00000000000E+00 -0.25865377478E+03  0.25865377478E+03  0.00000000000E+00 0. -1.
         21    1    1    2  503  505 -0.17904753601E+02 -0.39057390823E+02 -0.91193308148E+00  0.42975476744E+02  0.00000000000E+00 0.  1.
         21    1    1    2  504  502 -0.38444247048E+02 -0.10164542724E+03  0.18649190062E+03  0.21584481001E+03  0.00000000000E+00 0. -1.
         21    1    1    2  505  504  0.93516428548E+02  0.80678320087E+02 -0.18737118617E+03  0.22441540756E+03  0.00000000000E+00 0. -1.
          4    1    1    2  501    0 -0.37167427899E+02  0.60024497976E+02  0.61063209529E+02  0.93343846138E+02  0.00000000000E+00 0. -1.
<scales pt_clust_3="42.96580" pt_clust_4="90.84105" pt_clust_5="14000.00000" pt_clust_6="69.02161"></scales>
<clustering>
<clus scale="   42.966">  2  3  1 -1</clus>
<clus scale="   69.022">  1  6  2 -1</clus>
<clus scale="   90.841">  1  4  2 -1</clus>
<clus scale="   69.022">  1  3  2 -1</clus>
</clustering>
</event>
<event>
 6    0  0.1230761E+002  0.9055738E+02  0.7546771E-02  0.1301508E+00
          2   -1    0    0  505    0 -0.00000000000E+00  0.00000000000E+00  0.92159054142E+02  0.92159054142E+02  0.00000000000E+00 0. -1.
         21   -1    0    0  503  502  0.00000000000E+00 -0.00000000000E+00 -0.21002065476E+04  0.21002065476E+04  0.00000000000E+00 0. -1.
         21    1    1    2  503  501  0.58268385707E+02  0.46904970750E+02 -0.12186111064E+04  0.12209047095E+04  0.00000000000E+00 0. -1.
         21    1    1    2  504  502 -0.41896062201E+02  0.38293481377E+01 -0.72613859454E+03  0.72735631049E+03  0.00000000000E+00 0. -1.
         21    1    1    2  505  504  0.73357120067E+02 -0.58214779983E+02  0.44470548129E+02  0.10367187335E+03  0.00000000000E+00 0. -1.
          2    1    1    2  501    0 -0.89729443573E+02  0.74804610953E+01 -0.10776834068E+03  0.14043270842E+03  0.00000000000E+00 0. -1.
<scales pt_clust_3="54.53651" pt_clust_4="42.07070" pt_clust_5="14000.00000" pt_clust_6="90.55738"></scales>
<clustering>
<clus scale="   42.071">  2  4  1 -1</clus>
<clus scale="   54.537">  2  3  1 -1</clus>
<clus scale="   90.557">  2  6  1 -1</clus>
<clus scale="   42.071">  2  3  1 -1</clus>
</clustering>
</event>
<event>
 6    0  0.1230761E+002  0.1425668E+03  0.7546771E-02  0.1209916E+00
         21   -1    0    0  505  502  0.00000000000E+00  0.00000000000E+00  0.25167190751E+03  0.25167190751E+03  0.00000000000E+00 0. -1.
          1   -1    0    0  503    0 -0.00000000000E+00 -0.00000000000E+00 -0.13172125064E+04  0.13172125064E+04  0.00000000000E+00 0. -1.
         21    1    1    2  503  504 -0.22509393401E+01 -0.57050199129E+02 -0.17722068654E+03  0.18619066488E+03  0.00000000000E+00 0. -1.
         21    1    1    2  504  502  0.18785824253E+02  0.11187339328E+03  0.20602261475E+03  0.23518903271E+03  0.00000000000E+00 0. -1.
         21    1    1    2  505  501  0.23225736455E+02  0.27195199041E+02  0.11764471732E+02  0.37648592004E+02  0.00000000000E+00 0. -1.
          1    1    1    2  501    0 -0.39760621368E+02 -0.82018393197E+02 -0.11061069988E+04  0.11098561243E+04  0.00000000000E+00 0. -1.
<scales pt_clust_3="56.54121" pt_clust_4="142.56678" pt_clust_5="35.76330" pt_clust_6="14000.00000"></scales>
<clustering>
<clus scale="   35.763">  1  5  2 -1</clus>
<clus scale="   56.541">  2  3  1 -1</clus>
<clus scale="  142.567">  1  4  2 -1</clus>
<clus scale="   35.763">  1  3  2 -1</clus>
</clustering>
</event>
<event>
 6    0  0.1230761E+002  0.1476996E+03  0.7546771E-02  0.1203329E+00
         21   -1    0    0  503  502  0.00000000000E+00  0.00000000000E+00  0.21794565529E+03  0.21794565529E+03  0.00000000000E+00 0. -1.
          1   -1    0    0  504    0 -0.00000000000E+00 -0.00000000000E+00 -0.17160884409E+04  0.17160884409E+04  0.00000000000E+00 0. -1.
         21    1    1    2  503  501  0.27754302294E+02  0.16707542302E+03  0.10061467479E+03  0.19699698235E+03  0.00000000000E+00 0. -1.
         21    1    1    2  504  505  0.72024488184E+02  0.47212479832E+01 -0.25963553231E+03  0.26948177437E+03  0.00000000000E+00 0.  1.
         21    1    1    2  505  502  0.45665474856E+02 -0.41877111221E+02  0.40627154358E+02  0.74091792456E+02  0.00000000000E+00 0.  1.
          1    1    1    2  501    0 -0.14544426533E+03 -0.12991955978E+03 -0.13797490824E+04  0.13934635470E+04  0.00000000000E+00 0. -1.
<scales pt_clust_3="14000.00000" pt_clust_4="73.50488" pt_clust_5="61.95989" pt_clust_6="147.69959"></scales>
<clustering>
<clus scale="   61.960">  1  5  2 -1</clus>
<clus scale="   73.505">  2  4  1 -1</clus>
<clus scale="  147.700">  2  6  1 -1</clus>
<clus scale="   61.960">  1  3  2 -1</clus>
</clustering>
</event>
<event>
 6    0  0.1230761E+002  0.1119279E+03  0.7546771E-02  0.1257041E+00
          2   -1    0    0  503    0 -0.00000000000E+00  0.00000000000E+00  0.32570665294E+03  0.32570665294E+03  0.00000000000E+00 0.  1.
         21   -1    0    0  501  502  0.00000000000E+00 -0.00000000000E+00 -0.39367065729E+03  0.39367065729E+03  0.00000000000E+00 0. -1.
         21    1    1    2  503  505  0.70727340186E+02 -0.11671610988E+03  0.45267002731E+02  0.14378493834E+03  0.00000000000E+00 0. -1.
         21    1    1    2  504  502  0.36232159892E+02  0.58867861286E+01 -0.11831268545E+03  0.12387620917E+03  0.00000000000E+00 0. -1.
         21    1    1    2  505  504 -0.27068401566E+02  0.39931783498E+02 -0.20791468857E+03  0.21343796153E+03  0.00000000000E+00 0. -1.
          2    1    1    2  501    0 -0.79891098512E+02  0.70897540256E+02  0.21299636694E+03  0.23827820120E+03  0.00000000000E+00 0.  1.
<scales pt_clust_3="111.92786" pt_clust_4="36.70727" pt_clust_5="44.49157" pt_clust_6="14000.00000"></scales>
<clustering>
<clus scale="   36.707">  2  4  1 -1</clus>
<clus scale="   44.492">  2  5  1 -1</clus>
<clus scale="  111.928">  2  3  1 -1</clus>
<clus scale="   36.707">  2  3  1 -1</clus>
</clustering>
</event>
<event>
 6    0  0.1230761E+002  0.8952786E+02  0.7546771E-02  0.1303999E+00
         21   -1    0    0  505  502  0.00000000000E+00  0.00000000000E+00  0.17791872740E+03  0.17791872740E+03  0.00000000000E+00 0. -1.
          2   -1    0    0  503    0 -0.00000000000E+00 -0.00000000000E+00 -0.89513307500E+03  0.89513307500E+03  0.00000000000E+00 0.  1.
         21    1    1    2  503  504  0.93767581128E+01 -0.39975632399E+02 -0.28256649724E+03  0.28553423637E+03  0.00000000000E+00 0. -1.
         21    1    1    2  504  502  0.58817176506E+02  0.61924624302E+02  0.11106768783E+03  0.14010763943E+03  0.00000000000E+00 0. -1.
         21    1    1    2  505  501 -0.34178074418E+02 -0.12161943372E+03 -0.42493731254E+02  0.13328595059E+03  0.00000000000E+00 0. -1.
          2    1    1    2  501    0 -0.34015860201E+02  0.99670441818E+02 -0.50322180694E+03  0.51412397600E+03  0.00000000000E+00 0.  1.
<scales pt_clust_3="41.06062" pt_clust_4="14000.00000" pt_clust_5="89.52786" pt_clust_6="71.38056"></scales>
<clustering>
<clus scale="   41.061">  2  3  1 -1</clus>
<clus scale="   71.381">  2  6  1 -1</clus>
<clus scale="   89.528">  2  5  1 -1</clus>
<clus scale="   89.528">  1  3  2 -1</clus>
</clustering>
</event>
<event>
 6    0  0.1230761E+002  0.9554536E+02  0.7546771E-02  0.1289953E+00
          2   -1    0    0  505    0 -0.00000000000E+00  0.00000000000E+00  0.24816303437E+03  0.24816303437E+03  0.00000000000E+00 0.  1.
         21   -1    0    0  503  502  0.00000000000E+00 -0.00000000000E+00 -0.24288657973E+04  0.24288657973E+04  0.00000000000E+00 0. -1.
         21    1    1    2  503  501 -0.20780355972E+02  0.13294127319E+03 -0.96423905862E+03  0.97358213187E+03  0.00000000000E+00 0. -1.
         21    1    1    2  504  502 -0.38870716847E+02 -0.74966173377E+02 -0.12393406834E+04  0.12422142284E+04  0.00000000000E+00 0. -1.
         21    1    1    2  505  504 -0.40197654305E+01  0.35469227725E+02  0.22597605431E+03  0.22877806221E+03  0.00000000000E+00 0.  1.
          2    1    1    2  501    0  0.63670838249E+02 -0.93444327536E+02 -0.20309907526E+03  0.23245440922E+03  0.00000000000E+00 0.  1.
<scales pt_clust_3="95.54536" pt_clust_4="82.40727" pt_clust_5="35.69628" pt_clust_6="14000.00000"></scales>
<clustering>
<clus scale="   35.696">  1  5  2 -1</clus>
<clus scale="   82.407">  2  4  1 -1</clus>
<clus scale="   95.545">  2  3  1 -1</clus>
<clus scale="   82.407">  2  3  1 -1</clus>
</clustering>
</event>
<event>
 6    0  0.1230761E+002  0.1468763E+03  0.7546771E-02  0.1204365E+00
          2   -1    0    0  505    0 -0.00000000000E+00  0.00000000000E+00  0.54745921957E+02  0.54745921957E+02  0.00000000000E+00 0. -1.
         21   -1    0    0  501  502  0.00000000000E+00 -0.00000000000E+00 -0.14697328814E+04  0.14697328814E+04  0.00000000000E+00 0. -1.
         21    1    1    2  503  502 -0.13821881981E+03  0.35337157276E+02 -0.10808558107E+04  0.10902304529E+04  0.00000000000E+00 0. -1.
         21    1    1    2  504  503 -0.24115452917E+02  0.36680333841E+02 -0.11405760820E+03  0.12221350150E+03  0.00000000000E+00 0. -1.
         21    1    1    2  505  504 -0.16702681560E+02 -0.27219421448E+02 -0.58934585322E+02  0.67031051180E+02  0.00000000000E+00 0.  1.
          2    1    1    2  501    0  0.17903695428E+03 -0.44798069669E+02 -0.16113895517E+03  0.24500379777E+03  0.00000000000E+00 0. -1.
<scales pt_clust_3="146.87625" pt_clust_4="42.86934" pt_clust_5="31.93550" pt_clust_6="14000.00000"></scales>
<clustering>
<clus scale="   31.936">  1  5  2 -1</clus>
<clus scale="   42.869">  1  4  2 -1</clus>
<clus scale="  146.876">  2  3  1 -1</clus>
<clus scale="  146.876">  2  3  1 -1</clus>
</clustering>
</event>
<event>
 6    0  0.1230761E+002  0.2258007E+03  0.7546771E-02  0.1129631E+00
          1   -1    0    0  504    0 -0.00000000000E+00  0.00000000000E+00  0.10409778316E+04  0.10409778316E+04  0.00000000000E+00 0.  1.
         21   -1    0    0  503  502  0.00000000000E+00 -0.00000000000E+00 -0.12196804964E+04  0.12196804964E+04  0.00000000000E+00 0.  1.
         21    1    1    2  503  501 -0.20603303774E+03  0.48529802706E+02 -0.65701825717E+03  0.69027367373E+03  0.00000000000E+00 0.  1.
         21    1    1    2  504  505 -0.19772387165E+02  0.41341248377E+02  0.21693538515E+03  0.22172281669E+03  0.00000000000E+00 0.  1.
         21    1    1    2  505  502 -0.18844601473E+02 -0.28730790828E+02 -0.52331512139E+03  0.52444188775E+03  0.00000000000E+00 0.  1.
          1    1    1    2  501    0  0.24465002638E+03 -0.61140260255E+02  0.78469532864E+03  0.82421994978E+03  0.00000000000E+00 0.  1.
<scales pt_clust_3="225.80072" pt_clust_4="45.76518" pt_clust_5="34.35953" pt_clust_6="14000.00000"></scales>
<clustering>
<clus scale="   34.360">  2  5  1 -1</clus>
<clus scale="   45.765">  1  4  2 -1</clus>
<clus scale="  225.801">  2  3  1 -1</clus>
<clus scale="   34.360">  2  3  1 -1</clus>
</clustering>
</event>
<event>
 6    0  0.1230761E+002  0.1253074E+03  0.7546771E-02  0.1234590E+00
          4   -1    0    0  504    0 -0.00000000000E+00  0.00000000000E+00  0.15013582220E+04  0.15013582220E+04  0.00000000000E+00 0. -1.
         21   -1    0    0  505  502  0.00000000000E+00 -0.00000000000E+00 -0.28201103730E+02  0.28201103730E+02  0.00000000000E+00 0. -1.
         21    1    1    2  503  501 -0.22904491072E+02 -0.42488179344E+02  0.85629744988E+02  0.98297071787E+02  0.00000000000E+00 0. -1.
         21    1    1    2  504  502 -0.30922101283E+02 -0.87964820055E+01  0.36498187098E+03  0.36639503352E+03  0.00000000000E+00 0. -1.
         21    1    1    2  505  503 -0.14195766460E+02 -0.68186763490E+02  0.58180283908E+02  0.90751859134E+02  0.00000000000E+00 0. -1.
          4    1    1    2  501    0  0.68022358816E+02  0.11947142484E+03  0.96436521841E+03  0.97411536131E+03  0.00000000000E+00 0. -1.
<scales pt_clust_3="31.51148" pt_clust_4="32.14894" pt_clust_5="31.51148" pt_clust_6="119.45357"></scales>
<clustering>
<clus scale="   31.511">  3  5 -1 -1</clus>
<clus scale="   32.149">  1  4  2 -1</clus>
<clus scale="  119.454">  1  6  2 -1</clus>
<clus scale="  125.307">  2  3  1 -1</clus>
</clustering>
</event>
<event>
 6    0  0.1230761E+002  0.1545348E+03  0.7546771E-02  0.1195009E+00
          2   -1    0    0  503    0 -0.00000000000E+00  0.00000000000E+00  0.16833204943E+04  0.16833204943E+04  0.00000000000E+00 0. -1.
         21   -1    0    0  504  502  0.00000000000E+00 -0.00000000000E+00 -0.36712400165E+02  0.36712400165E+02  0.00000000000E+00 0.  1.
         21    1    1    2  503  502 -0.29845601842E+02  0.95259419262E+01  0.52848111784E+03  0.52940891136E+03  0.00000000000E+00 0. -1.
         21    1    1    2  504  505 -0.85453389632E+02  0.51844444490E+01  0.62768433969E+02  0.10615571848E+03  0.00000000000E+00 0.  1.
         21    1    1    2  505  501 -0.50951767128E+02  0.22342240640E+02  0.10364814185E+03  0.11763586018E+03  0.00000000000E+00 0. -1.
          2    1    1    2  501    0  0.16625075860E+03 -0.37052627015E+02  0.95171040045E+03  0.96683240442E+03  0.00000000000E+00 0. -1.
<scales pt_clust_3="31.32896" pt_clust_4="44.92605" pt_clust_5="44.92605" pt_clust_6="144.41915"></scales>
<clustering>
<clus scale="   31.329">  1  3  2 -1</clus>
<clus scale="   44.926">  4  5 -1 -1</clus>
<clus scale="  144.419">  1  6  2 -1</clus>
<clus scale="  154.535">  2  3  1 -1</clus>
</clustering>
</event>
<event>
 6    0  0.1230761E+002  0.9179393E+02  0.7546771E-02  0.1298565E+00
          2   -1    0    0  504    0 -0.00000000000E+00  0.00000000000E+00  0.12945350064E+04  0.12945350064E+04  0.00000000000E+00 0. -1.
         21   -1    0    0  505  502  0.00000000000E+00 -0.00000000000E+00 -0.40808781704E+02  0.40808781704E+02  0.00000000000E+00 0. -1.
         21    1    1    2  503  501  0.23888638081E+02  0.42441303229E+02  0.48118199987E+02  0.68463803715E+02  0.00000000000E+00 0. -1.
         21    1    1    2  504  502 -0.69843468345E+02 -0.39540017253E+02  0.42896246977E+02  0.91003357298E+02  0.00000000000E+00 0. -1.
         21    1    1    2  505  503 -0.47714270594E+02  0.39937423533E+01  0.12393876305E+03  0.13286616794E+03  0.00000000000E+00 0.  1.
          2    1    1    2  501    0  0.93669100858E+02 -0.68950283288E+01  0.10387730147E+04  0.10430104592E+04  0.00000000000E+00 0. -1.
<scales pt_clust_3="44.81468" pt_clust_4="14000.00000" pt_clust_5="47.88112" pt_clust_6="91.79393"></scales>
<clustering>
<clus scale="   47.881">  2  5  1 -1</clus>
<clus scale="   44.815">  2  3  1 -1</clus>
<clus scale="   91.794">  1  6  2 -1</clus>
<clus scale="   47.881">  2  3  1 -1</clus>
</clustering>
</event>
<event>
 6    0  0.1230761E+002  0.1037497E+03  0.7546771E-02  0.1272603E+00
         21   -1    0    0  501  502  0.00000000000E+00  0.00000000000E+00  0.17881980410E+03  0.17881980410E+03  0.00000000000E+00 0. -1.
          1   -1    0    0  503    0 -0.00000000000E+00 -0.00000000000E+00 -0.25833395428E+03  0.25833395428E+03  0.00000000000E+00 0. -1.
         21    1    1    2  503  505 -0.47955008543E+02 -0.96299008190E+02 -0.11573752971E+03  0.15801378929E+03  0.00000000000E+00 0. -1.
         21    1    1    2  504  502  0.98867682463E+02  0.16320667577E+02  0.31024782718E+02  0.10489861757E+03  0.00000000000E+00 0. -1.
         21    1    1    2  505  504  0.24571156879E+02  0.91438218516E+02  0.19226831532E+02  0.96614494805E+02  0.00000000000E+00 0. -1.
          1    1    1    2  501    0 -0.75483830800E+02 -0.11459877903E+02 -0.14028234725E+02  0.77626856714E+02  0.00000000000E+00 0. -1.
<scales pt_clust_3="103.74972" pt_clust_4="64.91726" pt_clust_5="14000.00000" pt_clust_6="76.34879"></scales>
<clustering>
<clus scale="   76.349">  1  6  2 -1</clus>
<clus scale="   64.917">  1  4  2 -1</clus>
<clus scale="  103.750">  2  3  1 -1</clus>
<clus scale="   76.349">  1  3  2 -1</clus>
</clustering>
</event>
<event>
 6    0  0.1230761E+002  0.1026819E+03  0.7546771E-02  0.1274755E+00
          2   -1    0    0  504    0 -0.00000000000E+00  0.00000000000E+00  0.27074565464E+04  0.27074565464E+04  0.00000000000E+00 0. -1.
         21   -1    0    0  501  502  0.00000000000E+00 -0.00000000000E+00 -0.10154881746E+03  0.10154881746E+03  0.00000000000E+00 0. -1.
         21    1    1    2  503  505 -0.49228927678E+02 -0.49609024041E+02  0.14046666070E+02  0.71287105526E+02  0.00000000000E+00 0. -1.
         21    1    1    2  504  503 -0.33437015011E+02 -0.18013996712E+02  0.32593016045E+03  0.32813565418E+03  0.00000000000E+00 0.  1.
         21    1    1    2  505  502 -0.67647403547E+01 -0.38940109492E+02 -0.64152405981E+02  0.75350016805E+02  0.00000000000E+00 0. -1.
          2    1    1    2  501    0  0.89430683043E+02  0.10656313024E+03  0.23300833084E+04  0.23342325873E+04  0.00000000000E+00 0. -1.
<scales pt_clust_3="102.68185" pt_clust_4="37.98076" pt_clust_5="39.57860" pt_clust_6="14000.00000"></scales>
<clustering>
<clus scale="   37.981">  1  4  2 -1</clus>
<clus scale="   39.579">  2  5  1 -1</clus>
<clus scale="  102.682">  2  3  1 -1</clus>
<clus scale="   39.579">  2  3  1 -1</clus>
</clustering>
</event>
<event>
 6    0  0.1230761E+002  0.1281731E+03  0.7546771E-02  0.1230192E+00
         21   -1    0    0  501  502  0.00000000000E+00  0.00000000000E+00  0.75205865512E+02  0.75205865512E+02  0.00000000000E+00 0. -1.
          2   -1    0    0  505    0 -0.00000000000E+00 -0.00000000000E+00 -0.25115327892E+04  0.25115327892E+04  0.00000000000E+00 0.  1.
         21    1    1    2  503  502  0.65846829382E+02  0.51469713112E+01  0.24286003984E+02  0.70371203222E+02  0.00000000000E+00 0. -1.
         21    1    1    2  504  503  0.67520591277E+02 -0.44888582801E+02 -0.51778948207E+02  0.96203298227E+02  0.00000000000E+00 0. -1.
         21    1    1    2  505  504  0.21270944816E+02  0.48848522656E+02 -0.12355725748E+04  0.12367207522E+04  0.00000000000E+00 0.  1.
          2    1    1    2  501    0 -0.15463836548E+03 -0.91069111665E+01 -0.11732614047E+04  0.11834434011E+04  0.00000000000E+00 0.  1.
<scales pt_clust_3="66.50503" pt_clust_4="128.17307" pt_clust_5="53.27881" pt_clust_6="14000.00000"></scales>
<clustering>
<clus scale="   53.279">  2  5  1 -1</clus>
<clus scale="   66.505">  1  3  2 -1</clus>
<clus scale="  128.173">  1  4  2 -1</clus>
<clus scale="   66.505">  1  3  2 -1</clus>
</clustering>
</event>
<event>
 6    0  0.1230761E+002  0.1152326E+03  0.7546771E-02  0.1251176E+00
         -1   -1    0    0    0  501 -0.00000000000E+00  0.00000000000E+00  0.33883573679E+03  0.33883573679E+03  0.00000000000E+00 0. -1.
         21   -1    0    0  503  502  0.00000000000E+00 -0.00000000000E+00 -0.17092338384E+03  0.17092338384E+03  0.00000000000E+00 0. -1.
         21    1    1    2  503  505  0.35517283069E+02 -0.15657516115E+02  0.30375428002E+01  0.38934070860E+02  0.00000000000E+00 0. -1.
         21    1    1    2  504  501  0.55048325555E+02  0.29822851087E+02  0.68611291740E+02  0.92882882963E+02  0.00000000000E+00 0. -1.
         21    1    1    2  505  504  0.47625395008E+02 -0.83560211953E+02  0.17852660681E+03  0.20278618446E+03  0.00000000000E+00 0. -1.
         -1    1    1    2    0  502 -0.13819100363E+03  0.69394876981E+02 -0.82263088404E+02  0.17515598234E+03  0.00000000000E+00 0. -1.
<scales pt_clust_3="38.81540" pt_clust_4="64.53935" pt_clust_5="14000.00000" pt_clust_6="115.23263"></scales>
<clustering>
<clus scale="   38.815">  2  3  1 -1</clus>
<clus scale="   64.539">  1  4  2 -1</clus>
<clus scale="  115.233">  2  6  1 -1</clus>
<clus scale="   38.815">  2  3  1 -1</clus>
</clustering>
</event>
<event>
 6    0  0.1230761E+002  0.7137926E+02  0.7546771E-02  0.1355465E+00
          1   -1    0    0  504    0 -0.00000000000E+00  0.00000000000E+00  0.66444711650E+03  0.66444711650E+03  0.00000000000E+00 0.  1.
         21   -1    0    0  503  502  0.00000000000E+00 -0.00000000000E+00 -0.62351753670E+03  0.62351753670E+03  0.00000000000E+00 0. -1.
         21    1    1    2  503  505  0.10784066223E+03 -0.31380816860E+01 -0.20093795773E+03  0.22806910979E+03  0.00000000000E+00 0. -1.
         21    1    1    2  504  502 -0.49581545474E+02 -0.47607644369E+02 -0.39336178501E+03  0.39932231512E+03  0.00000000000E+00 0. -1.
         21    1    1    2  505  501 -0.28911658745E+02  0.40785795017E+02  0.38655708581E+02  0.63195165104E+02  0.00000000000E+00 0.  1.
          1    1    1    2  501    0 -0.29347458006E+02  0.99599310379E+01  0.59657361395E+03  0.59737806319E+03  0.00000000000E+00 0.  1.
<scales pt_clust_3="14000.00000" pt_clust_4="69.37830" pt_clust_5="71.37926" pt_clust_6="30.99151"></scales>
<clustering>
<clus scale="   30.992">  1  6  2 -1</clus>
<clus scale="   69.378">  2  4  1 -1</clus>
<clus scale="   71.379">  1  5  2 -1</clus>
<clus scale="   69.378">  2  3  1 -1</clus>
</clustering>
</event>
<event>
 6    0  0.1230761E+002  0.1799656E+03  0.7546771E-02  0.1167836E+00
         21   -1    0    0  503  502  0.00000000000E+00  0.00000000000E+00  0.41995215514E+03  0.41995215514E+03  0.00000000000E+00 0.  1.
          2   -1    0    0  504    0 -0.00000000000E+00 -0.00000000000E+00 -0.13967296816E+04  0.13967296816E+04  0.00000000000E+00 0.  1.
         21    1    1    2  503  501 -0.13225570296E+03  0.11682882408E+03  0.31411393445E+03  0.36028892422E+03  0.00000000000E+00 0.  1.
         21    1    1    2  504  505  0.19770246566E+02 -0.34065821639E+02 -0.76709902313E+03  0.76810953264E+03  0.00000000000E+00 0.  1.
         21    1    1    2  505  502  0.13552873972E+03 -0.14673715320E+03 -0.45089574677E+02  0.20477524549E+03  0.00000000000E+00 0.  1.
          2    1    1    2  501    0 -0.23043283334E+02  0.63974150761E+02 -0.47870286315E+03  0.48350813443E+03  0.00000000000E+00 0.  1.
<scales pt_clust_3="179.96558" pt_clust_4="39.38709" pt_clust_5="14000.00000" pt_clust_6="38.74242"></scales>
<clustering>
<clus scale="   39.387">  2  4  1 -1</clus>
<clus scale="   38.742">  2  6  1 -1</clus>
<clus scale="  179.966">  1  3  2 -1</clus>
<clus scale="  179.966">  1  3  2 -1</clus>
</clustering>
</event>
<event>
 6    0  0.1230761E+002  0.1041960E+03  0.7546771E-02  0.1271712E+00
          2   -1    0    0  503    0 -0.00000000000E+00  0.00000000000E+00  0.14403963854E+04  0.14403963854E+04  0.00000000000E+00 0. -1.
         21   -1    0    0  505  502  0.00000000000E+00 -0.00000000000E+00 -0.68997254501E+02  0.68997254501E+02  0.00000000000E+00 0. -1.
         21    1    1    2  503  504  0.31764504937E+01  0.97236415503E+02  0.10129114675E+04  0.10175729219E+04  0.00000000000E+00 0. -1.
         21    1    1    2  504  502  0.30411836260E+02  0.14559021891E+02  0.69907978768E+02  0.77614240952E+02  0.00000000000E+00 0. -1.
         21    1    1    2  505  501 -0.13945560218E+01  0.61941672694E+02 -0.14270458212E+02  0.63579568890E+02  0.00000000000E+00 0. -1.
          2    1    1    2  501    0 -0.32193730732E+02 -0.17373711009E+03  0.30285014280E+03  0.35062690814E+03  0.00000000000E+00 0. -1.
<scales pt_clust_3="104.19599" pt_clust_4="33.71713" pt_clust_5="72.60595" pt_clust_6="14000.00000"></scales>
<clustering>
<clus scale="   33.717">  2  4  1 -1</clus>
<clus scale="   72.606">  2  5  1 -1</clus>
<clus scale="  104.196">  1  3  2 -1</clus>
<clus scale="   33.717">  2  3  1 -1</clus>
</clustering>
</event>
<event>
 6    0  0.1230761E+002  0.1185649E+03  0.7546771E-02  0.1245484E+00
          2   -1    0    0  504    0 -0.00000000000E+00  0.00000000000E+00  0.46507105703E+04  0.46507105703E+04  0.00000000000E+00 0.  1.
         21   -1    0    0  503  502  0.00000000000E+00 -0.00000000000E+00 -0.11659714297E+04  0.11659714297E+04  0.00000000000E+00 0.  1.
         21    1    1    2  503  501  0.12157441766E+03 -0.10999728418E+03 -0.50649386257E+03  0.53236808167E+03  0.00000000000E+00 0.  1.
         21    1    1    2  504  505  0.14221382618E+02  0.58235948056E+02  0.17792318899E+04  0.17802414981E+04  0.00000000000E+00 0.  1.
         21    1    1    2  505  502 -0.70077568496E+02  0.30796456776E+01 -0.64354439460E+03  0.64735595900E+03  0.00000000000E+00 0.  1.
          2    1    1    2  501    0 -0.65718231784E+02  0.48681690447E+02  0.28555455078E+04  0.28567164613E+04  0.00000000000E+00 0.  1.
<scales pt_clust_3="118.56486" pt_clust_4="59.94725" pt_clust_5="70.13748" pt_clust_6="14000.00000"></scales>
<clustering>
<clus scale="   59.947">  1  4  2 -1</clus>
<clus scale="   70.137">  2  5  1 -1</clus>
<clus scale="  118.565">  2  3  1 -1</clus>
<clus scale="   70.137">  2  3  1 -1</clus>
</clustering>
</event>
<event>
 6    0  0.1230761E+002  0.1283842E+03  0.7546771E-02  0.1229873E+00
          1   -1    0    0  503    0 -0.00000000000E+00  0.00000000000E+00  0.80710623360E+03  0.80710623360E+03  0.00000000000E+00 0.  1.
         21   -1    0    0  504  502  0.00000000000E+00 -0.00000000000E+00 -0.35093341302E+04  0.35093341302E+04  0.00000000000E+00 0. -1.
         21    1    1    2  503  505  0.88352645815E+02  0.47127010722E+02  0.13174143530E+02  0.10099853078E+03  0.00000000000E+00 0.  1.
         21    1    1    2  504  501  0.20480861821E+03  0.50760002143E+01 -0.30551092353E+04  0.30619707339E+04  0.00000000000E+00 0. -1.
         21    1    1    2  505  502 -0.90529674394E+02 -0.59468554559E+02 -0.38551257238E+03  0.40043985115E+03  0.00000000000E+00 0. -1.
          1    1    1    2  501    0 -0.20263158963E+03  0.72655436229E+01  0.72521976751E+03  0.75303124798E+03  0.00000000000E+00 0.  1.
<scales pt_clust_3="100.13563" pt_clust_4="14000.00000" pt_clust_5="107.32267" pt_clust_6="128.38423"></scales>
<clustering>
<clus scale="  100.136">  1  3  2 -1</clus>
<clus scale="  107.323">  2  5  1 -1</clus>
<clus scale="  128.384">  1  6  2 -1</clus>
<clus scale="  107.323">  2  3  1 -1</clus>
</clustering>
</event>
<event>
 6    0  0.1230761E+002  0.9187702E+02  0.7546771E-02  0.1298369E+00
         21   -1    0    0  503  502  0.00000000000E+00  0.00000000000E+00  0.29739598329E+03  0.29739598329E+03  0.00000000000E+00 0. -1.
         -1   -1    0    0    0  501 -0.00000000000E+00 -0.00000000000E+00 -0.28830301880E+03  0.28830301880E+03  0.00000000000E+00 0. -1.
         21    1    1    2  503  505  0.55670196014E+00 -0.35789621672E+02  0.19237336782E+03  0.19567503567E+03  0.00000000000E+00 0. -1.
         21    1    1    2  504  501 -0.36196387500E+02 -0.61086144398E+02 -0.79503782575E+02  0.10659524825E+03  0.00000000000E+00 0. -1.
         21    1    1    2  505  504 -0.41613685957E+02 -0.20697516789E+00  0.63037342208E+02  0.75534417389E+02  0.00000000000E+00 0. -1.
         -1    1    1    2    0  502  0.77253371496E+02  0.97082741238E+02 -0.16681396298E+03  0.20789430078E+03  0.00000000000E+00 0. -1.
<scales pt_clust_3="35.79395" pt_clust_4="91.87702" pt_clust_5="47.81418" pt_clust_6="14000.00000"></scales>
<clustering>
<clus scale="   35.794">  1  3  2 -1</clus>
<clus scale="   47.814">  1  5  2 -1</clus>
<clus scale="   91.877">  2  4  1 -1</clus>
<clus scale="   35.794">  1  3  2 -1</clus>
</clustering>
</event>
<event>
 6    0  0.1230761E+002  0.1671198E+03  0.7546771E-02  0.1180885E+00
          2   -1    0    0  504    0 -0.00000000000E+00  0.00000000000E+00  0.94783421503E+03  0.94783421503E+03  0.00000000000E+00 0. -1.
         21   -1    0    0  501  502  0.00000000000E+00 -0.00000000000E+00 -0.31728252331E+03  0.31728252331E+03  0.00000000000E+00 0.  1.
         21    1    1    2  503  505  0.95013538990E+02 -0.15504730428E+02 -0.16340198168E+03  0.18965277977E+03  0.00000000000E+00 0.  1.
         21    1    1    2  504  503 -0.13410384584E+02  0.28922375457E+02  0.29562254385E+02  0.43477225085E+02  0.00000000000E+00 0. -1.
         21    1    1    2  505  502  0.53283760377E+02 -0.47550250506E+02 -0.11841468662E+03  0.13828312786E+03  0.00000000000E+00 0. -1.
          2    1    1    2  501    0 -0.13488691478E+03  0.34132605477E+02  0.88280610564E+03  0.89370360562E+03  0.00000000000E+00 0. -1.
<scales pt_clust_3="39.93115" pt_clust_4="31.88012" pt_clust_5="39.93115" pt_clust_6="160.54823"></scales>
<clustering>
<clus scale="   31.880">  1  4  2 -1</clus>
<clus scale="   39.931">  3  5 -1 -1</clus>
<clus scale="  160.548">  1  6  2 -1</clus>
<clus scale="  167.120">  2  3  1 -1</clus>
</clustering>
</event>
<event>
 6    0  0.1230761E+002  0.7893540E+02  0.7546771E-02  0.1332100E+00
         21   -1    0    0  503  502  0.00000000000E+00  0.00000000000E+00  0.36163708292E+03  0.36163708292E+03  0.00000000000E+00 0.  1.
          2   -1    0    0  504    0 -0.00000000000E+00 -0.00000000000E+00 -0.20737048605E+03  0.20737048605E+03  0.00000000000E+00 0. -1.
         21    1    1    2  503  505  0.53795921125E+02 -0.46936741433E+02  0.56571042617E+02  0.91089745245E+02  0.00000000000E+00 0.  1.
         21    1    1    2  504  502 -0.34605074722E+02  0.30784777894E+02  0.25170456168E+03  0.25593045953E+03  0.00000000000E+00 0.  1.
         21    1    1    2  505  501  0.62349717068E+02 -0.23897322258E+02 -0.47203759672E+02  0.81772636968E+02  0.00000000000E+00 0. -1.
          2    1    1    2  501    0 -0.81540563471E+02  0.40049285797E+02 -0.10680524776E+03  0.14021472723E+03  0.00000000000E+00 0. -1.
<scales pt_clust_3="39.68074" pt_clust_4="46.31645" pt_clust_5="78.93540" pt_clust_6="14000.00000"></scales>
<clustering>
<clus scale="   46.316">  1  4  2 -1</clus>
<clus scale="   39.681">  1  3  2 -1</clus>
<clus scale="   78.935">  1  5  2 -1</clus>
<clus scale="   46.316">  1  3  2 -1</clus>
</clustering>
</event>
<event>
 6    0  0.1230761E+002  0.2380942E+03  0.7546771E-02  0.1121069E+00
         21   -1    0    0  503  502  0.00000000000E+00  0.00000000000E+00  0.58840116999E+03  0.58840116999E+03  0.00000000000E+00 0.  1.
         -1   -1    0    0    0  501 -0.00000000000E+00 -0.00000000000E+00 -0.33692459569E+03  0.33692459569E+03  0.00000000000E+00 0.  1.
         21    1    1    2  503  505  0.22503626843E+01  0.35669427787E+02  0.17092827232E+03  0.17462487362E+03  0.00000000000E+00 0.  1.
         21    1    1    2  504  501 -0.47534592861E+02 -0.48866201922E+01 -0.17331551980E+02  0.50831085660E+02  0.00000000000E+00 0.  1.
         21    1    1    2  505  504  0.12423633371E+03  0.17623223797E+03  0.32017867689E+03  0.38601405861E+03  0.00000000000E+00 0.  1.
         -1    1    1    2    0  502 -0.78952103533E+02 -0.20701504556E+03 -0.22229882293E+03  0.31385574779E+03  0.00000000000E+00 0.  1.
<scales pt_clust_3="35.74034" pt_clust_4="47.56911" pt_clust_5="238.09422" pt_clust_6="14000.00000"></scales>
<clustering>
<clus scale="   35.740">  1  3  2 -1</clus>
<clus scale="   47.569">  2  4  1 -1</clus>
<clus scale="  238.094">  1  5  2 -1</clus>
<clus scale="   35.740">  1  3  2 -1</clus>
</clustering>
</event>
<event>
 6    0  0.1230761E+002  0.1036315E+03  0.7546771E-02  0.1272840E+00
          1   -1    0    0  504    0 -0.00000000000E+00  0.00000000000E+00  0.11124834240E+04  0.11124834240E+04  0.00000000000E+00 0. -1.
         21   -1    0    0  503  502  0.00000000000E+00 -0.00000000000E+00 -0.66489149926E+03  0.66489149926E+03  0.00000000000E+00 0.  1.
         21    1    1    2  503  501  0.30770688261E+02  0.72809867410E+01 -0.10736592694E+03  0.11192537823E+03  0.00000000000E+00 0.  1.
         21    1    1    2  504  505  0.92073263706E+02  0.31103136146E+02  0.85343885911E+03  0.85895446748E+03  0.00000000000E+00 0. -1.
         21    1    1    2  505  502  0.44807090000E+02  0.60419933533E+01 -0.52179006149E+03  0.52374521407E+03  0.00000000000E+00 0.  1.
          1    1    1    2  501    0 -0.16765104197E+03 -0.44426116240E+02  0.22330905405E+03  0.28274986348E+03  0.00000000000E+00 0. -1.
<scales pt_clust_3="31.62037" pt_clust_4="103.63150" pt_clust_5="74.89668" pt_clust_6="14000.00000"></scales>
<clustering>
<clus scale="   31.620">  2  3  1 -1</clus>
<clus scale="   74.897">  2  5  1 -1</clus>
<clus scale="  103.631">  1  4  2 -1</clus>
<clus scale="   31.620">  2  3  1 -1</clus>
</clustering>
</event>
<event>
 6    0  0.1230761E+002  0.6401210E+03  0.7546771E-02  0.9825495E-01
          1   -1    0    0  504    0 -0.00000000000E+00  0.00000000000E+00  0.19761572666E+04  0.19761572666E+04  0.00000000000E+00 0. -1.
         21   -1    0    0  501  502  0.00000000000E+00 -0.00000000000E+00 -0.27273921765E+03  0.27273921765E+03  0.00000000000E+00 0. -1.
         21    1    1    2  503  502  0.88738323721E+02 -0.43535680204E+03  0.48669719792E+03  0.65900242613E+03  0.00000000000E+00 0. -1.
         21    1    1    2  504  505  0.52258629732E+02 -0.55350241314E+02  0.48017318107E+03  0.48616961795E+03  0.00000000000E+00 0. -1.
         21    1    1    2  505  503 -0.31745857273E+02 -0.15812101739E+03  0.11040240207E+03  0.19544499476E+03  0.00000000000E+00 0. -1.
          1    1    1    2  501    0 -0.10925109618E+03  0.64882806075E+03  0.62614526787E+03  0.90827944539E+03  0.00000000000E+00 0. -1.
<scales pt_clust_3="79.95898" pt_clust_4="76.12236" pt_clust_5="79.95898" pt_clust_6="625.83264"></scales>
<clustering>
<clus scale="   76.122">  1  4  2 -1</clus>
<clus scale="   79.959">  3  5 -1 -1</clus>
<clus scale="  625.833">  1  6  2 -1</clus>
<clus scale="  640.121">  2  3  1 -1</clus>
</clustering>
</event>
<event>
 6    0  0.1230761E+002  0.1218958E+03  0.7546771E-02  0.1240002E+00
         21   -1    0    0  503  502  0.00000000000E+00  0.00000000000E+00  0.15018946562E+03  0.15018946562E+03  0.00000000000E+00 0.  1.
         -2   -1    0    0    0  501 -0.00000000000E+00 -0.00000000000E+00 -0.19070688823E+04  0.19070688823E+04  0.00000000000E+00 0.  1.
         21    1    1    2  503  505  0.99199461410E+02 -0.79131374796E+02  0.10257586370E+03  0.16316897816E+03  0.00000000000E+00 0.  1.
         21    1    1    2  504  501  0.32864083531E+02 -0.48438200185E+02 -0.98192152234E+02  0.11431537947E+03  0.00000000000E+00 0. -1.
         21    1    1    2  505  504 -0.47384160902E+02  0.71383037468E+02 -0.23500388880E+03  0.25013521242E+03  0.00000000000E+00 0. -1.
         -2    1    1    2    0  502 -0.84679384038E+02  0.56186537513E+02 -0.15262592394E+04  0.15296387779E+04  0.00000000000E+00 0.  1.
<scales pt_clust_3="14000.00000" pt_clust_4="58.53467" pt_clust_5="121.89579" pt_clust_6="58.76491"></scales>
<clustering>
<clus scale="   58.535">  2  4  1 -1</clus>
<clus scale="   58.765">  2  6  1 -1</clus>
<clus scale="  121.896">  2  5  1 -1</clus>
<clus scale="  121.896">  1  3  2 -1</clus>
</clustering>
</event>
<event>
 6    0  0.1230761E+002  0.1404356E+03  0.7546771E-02  0.1212744E+00
          2   -1    0    0  504    0 -0.00000000000E+00  0.00000000000E+00  0.80810554702E+02  0.80810554702E+02  0.00000000000E+00 0. -1.
         21   -1    0    0  503  502  0.00000000000E+00 -0.00000000000E+00 -0.57712584335E+03  0.57712584335E+03  0.00000000000E+00 0.  1.
         21    1    1    2  503  505  0.24340418550E+02 -0.12966238761E+03 -0.43471527071E+03  0.45429303024E+03  0.00000000000E+00 0.  1.
         21    1    1    2  504  502 -0.33293400059E+02  0.82310184248E+01 -0.53783813600E+02  0.63787920151E+02  0.00000000000E+00 0.  1.
         21    1    1    2  505  501 -0.27920194925E+02  0.68521246839E+02 -0.13124404284E+02  0.75146181146E+02  0.00000000000E+00 0. -1.
          2    1    1    2  501    0  0.36873176433E+02  0.52910122347E+02  0.53081999410E+01  0.64709266520E+02  0.00000000000E+00 0. -1.
<scales pt_clust_3="122.67613" pt_clust_4="34.29577" pt_clust_5="62.74224" pt_clust_6="62.74224"></scales>
<clustering>
<clus scale="   34.296">  2  4  1 -1</clus>
<clus scale="   62.742">  5  6 -1 -1</clus>
<clus scale="  122.676">  2  3  1 -1</clus>
<clus scale="   34.296">  2  3  1 -1</clus>
</clustering>
</event>
<event>
 6    0  0.1230761E+002  0.1159675E+03  0.7546771E-02  0.1249902E+00
          2   -1    0    0  505    0 -0.00000000000E+00  0.00000000000E+00  0.81635276088E+03  0.81635276088E+03  0.00000000000E+00 0.  1.
         21   -1    0    0  503  502  0.00000000000E+00 -0.00000000000E+00 -0.21805157614E+03  0.21805157614E+03  0.00000000000E+00 0.  1.
         21    1    1    2  503  501  0.85621156867E+02  0.94810342226E+02 -0.16547950117E+03  0.20905369838E+03  0.00000000000E+00 0.  1.
         21    1    1    2  504  502  0.12334735830E+02 -0.33206711715E+02 -0.60575670479E+01  0.35937800844E+02  0.00000000000E+00 0. -1.
         21    1    1    2  505  504  0.23077629500E+02 -0.40565380018E+02  0.13615897079E+03  0.14393537566E+03  0.00000000000E+00 0.  1.
          2    1    1    2  501    0 -0.12103352220E+03 -0.21038250492E+02  0.63367928217E+03  0.64547746214E+03  0.00000000000E+00 0.  1.
<scales pt_clust_3="115.96753" pt_clust_4="35.42360" pt_clust_5="47.36040" pt_clust_6="14000.00000"></scales>
<clustering>
<clus scale="   35.424">  2  4  1 -1</clus>
<clus scale="   47.360">  1  5  2 -1</clus>
<clus scale="  115.968">  2  3  1 -1</clus>
<clus scale="   35.424">  2  3  1 -1</clus>
</clustering>
</event>
<event>
 6    0  0.1230761E+002  0.7872966E+02  0.7546771E-02  0.1332696E+00
         21   -1    0    0  504  502  0.00000000000E+00  0.00000000000E+00  0.87826752392E+02  0.87826752392E+02  0.00000000000E+00 0.  1.
          1   -1    0    0  503    0 -0.00000000000E+00 -0.00000000000E+00 -0.28183537595E+03  0.28183537595E+03  0.00000000000E+00 0.  1.
         21    1    1    2  503  505 -0.98984622143E+01 -0.33265727448E+02 -0.73386348180E+02  0.81179703597E+02  0.00000000000E+00 0.  1.
         21    1    1    2  504  501  0.65351704545E+02  0.82501613167E+02 -0.27884320014E+01  0.10528597635E+03  0.00000000000E+00 0.  1.
         21    1    1    2  505  502  0.93210196229E+01 -0.44225238018E+02  0.37410271749E+01  0.45351387728E+02  0.00000000000E+00 0. -1.
          1    1    1    2  501    0 -0.64774261953E+02 -0.50106477013E+01 -0.12157487056E+03  0.13784506068E+03  0.00000000000E+00 0.  1.
<scales pt_clust_3="34.70718" pt_clust_4="78.72966" pt_clust_5="48.32926" pt_clust_6="14000.00000"></scales>
<clustering>
<clus scale="   34.707">  2  3  1 -1</clus>
<clus scale="   48.329">  1  5  2 -1</clus>
<clus scale="   78.730">  1  4  2 -1</clus>
<clus scale="   48.329">  1  3  2 -1</clus>
</clustering>
</event>
<event>
 6    0  0.1230761E+002  0.1196778E+03  0.7546771E-02  0.1243630E+00
         21   -1    0    0  504  502  0.00000000000E+00  0.00000000000E+00  0.70660151185E+02  0.70660151185E+02  0.00000000000E+00 0.  1.
          2   -1    0    0  505    0 -0.00000000000E+00 -0.00000000000E+00 -0.40108894141E+04  0.40108894141E+04  0.00000000000E+00 0.  1.
         21    1    1    2  503  502 -0.48068368463E+02  0.14485021482E+02 -0.11209947626E+03  0.12282783264E+03  0.00000000000E+00 0.  1.
         21    1    1    2  504  501 -0.71664375050E+02  0.11962092940E+02  0.42585566460E+02  0.84216416390E+02  0.00000000000E+00 0.  1.
         21    1    1    2  505  503  0.95424931305E+01 -0.29212674604E+02 -0.21721108220E+04  0.21723282124E+04  0.00000000000E+00 0.  1.
          2    1    1    2  501    0  0.11019025038E+03  0.27655601829E+01 -0.16986045311E+04  0.17021771038E+04  0.00000000000E+00 0.  1.
<scales pt_clust_3="49.10770" pt_clust_4="14000.00000" pt_clust_5="30.73173" pt_clust_6="119.67776"></scales>
<clustering>
<clus scale="   30.732">  2  5  1 -1</clus>
<clus scale="   49.108">  1  3  2 -1</clus>
<clus scale="  119.678">  2  6  1 -1</clus>
<clus scale="   49.108">  1  3  2 -1</clus>
</clustering>
</event>
<event>
 6    0  0.1230761E+002  0.1445949E+03  0.7546771E-02  0.1207277E+00
         21   -1    0    0  504  502  0.00000000000E+00  0.00000000000E+00  0.87916014746E+02  0.87916014746E+02  0.00000000000E+00 0. -1.
          2   -1    0    0  505    0 -0.00000000000E+00 -0.00000000000E+00 -0.10623410971E+04  0.10623410971E+04  0.00000000000E+00 0.  1.
         21    1    1    2  503  502  0.70873191323E+02 -0.13529736558E+03 -0.49003137209E+02  0.16040478122E+03  0.00000000000E+00 0. -1.
         21    1    1    2  504  501 -0.70196769663E+02  0.11122733538E+03 -0.14646827945E+03  0.19685543806E+03  0.00000000000E+00 0. -1.
         21    1    1    2  505  503  0.67351248597E+02  0.26069993519E+02 -0.26916822881E+03  0.27868866258E+03  0.00000000000E+00 0. -1.
          2    1    1    2  501    0 -0.68027670257E+02 -0.19999633198E+01 -0.50978543692E+03  0.51430823002E+03  0.00000000000E+00 0.  1.
<scales pt_clust_3="144.59490" pt_clust_4="14000.00000" pt_clust_5="41.83513" pt_clust_6="68.05706"></scales>
<clustering>
<clus scale="   68.057">  2  6  1 -1</clus>
<clus scale="   41.835">  2  5  1 -1</clus>
<clus scale="  144.595">  1  3  2 -1</clus>
<clus scale="  144.595">  1  3  2 -1</clus>
</clustering>
</event>
<event>
 6    0  0.1230761E+002  0.1106559E+03  0.7546771E-02  0.1259360E+00
          1   -1    0    0  504    0 -0.00000000000E+00  0.00000000000E+00  0.28187085486E+04  0.28187085486E+04  0.00000000000E+00 0.  1.
         21   -1    0    0  501  502  0.00000000000E+00 -0.00000000000E+00 -0.29267435264E+03  0.29267435264E+03  0.00000000000E+00 0. -1.
         21    1    1    2  503  505 -0.26749092393E+02  0.10017531688E+03  0.28792790630E+02  0.10760870247E+03  0.00000000000E+00 0. -1.
         21    1    1    2  504  503 -0.24866260743E+02  0.30238298774E+02  0.16152932201E+04  0.16157675800E+04  0.00000000000E+00 0.  1.
         21    1    1    2  505  502 -0.80924965263E+02 -0.67028615883E+02 -0.23710724333E+03  0.25934827971E+03  0.00000000000E+00 0. -1.
          1    1    1    2  501    0  0.13254031840E+03 -0.63384999771E+02  0.11190554286E+04  0.11286583391E+04  0.00000000000E+00 0.  1.
<scales pt_clust_3="14000.00000" pt_clust_4="39.14953" pt_clust_5="105.07877" pt_clust_6="110.65592"></scales>
<clustering>
<clus scale="   39.150">  1  4  2 -1</clus>
<clus scale="  105.079">  2  5  1 -1</clus>
<clus scale="  110.656">  1  6  2 -1</clus>
<clus scale="  105.079">  2  3  1 -1</clus>
</clustering>
</event>
<event>
 6    0  0.1230761E+002  0.9463650E+02  0.7546771E-02  0.1291997E+00
         21   -1    0    0  501  502  0.00000000000E+00  0.00000000000E+00  0.82963356805E+03  0.82963356805E+03  0.00000000000E+00 0.  1.
          1   -1    0    0  503    0 -0.00000000000E+00 -0.00000000000E+00 -0.14801668512E+03  0.14801668512E+03  0.00000000000E+00 0.  1.
         21    1    1    2  503  504 -0.41204809808E+02 -0.89785056128E+01 -0.69547102592E+01  0.42741290448E+02  0.00000000000E+00 0. -1.
         21    1    1    2  504  505  0.37206061714E+01 -0.54960682790E+02  0.15529237797E+03  0.16477330554E+03  0.00000000000E+00 0.  1.
         21    1    1    2  505  502  0.17635799987E+02 -0.47582095890E+02  0.62335257046E+03  0.62541466595E+03  0.00000000000E+00 0.  1.
          1    1    1    2  501    0  0.19848403650E+02  0.11152128429E+03 -0.90073355241E+02  0.14472099123E+03  0.00000000000E+00 0.  1.
<scales pt_clust_3="42.17167" pt_clust_4="94.63650" pt_clust_5="50.69702" pt_clust_6="14000.00000"></scales>
<clustering>
<clus scale="   42.172">  2  3  1 -1</clus>
<clus scale="   50.697">  1  5  2 -1</clus>
<clus scale="   94.636">  1  4  2 -1</clus>
<clus scale="   50.697">  1  3  2 -1</clus>
</clustering>
</event>
<event>
 6    0  0.1230761E+002  0.2524284E+03  0.7546771E-02  0.1111780E+00
          2   -1    0    0  503    0 -0.00000000000E+00  0.00000000000E+00  0.13083344542E+04  0.13083344542E+04  0.00000000000E+00 0. -1.
         21   -1    0    0  505  502  0.00000000000E+00 -0.00000000000E+00 -0.21258121116E+03  0.21258121116E+03  0.00000000000E+00 0. -1.
         21    1    1    2  503  502  0.31633508083E+02  0.22888663428E+02  0.16126707802E+03  0.16592661089E+03  0.00000000000E+00 0. -1.
         21    1    1    2  504  501  0.54995477681E+02  0.19342400969E+02 -0.11781723997E+02  0.59476382379E+02  0.00000000000E+00 0. -1.
         21    1    1    2  505  504  0.18813190975E+03 -0.26307878244E+02 -0.99284468882E+02  0.21434347596E+03  0.00000000000E+00 0. -1.
          2    1    1    2  501    0 -0.27476089552E+03 -0.15923186153E+02  0.10455523579E+04  0.10811691962E+04  0.00000000000E+00 0. -1.
<scales pt_clust_3="39.04574" pt_clust_4="32.69017" pt_clust_5="32.69017" pt_clust_6="245.43421"></scales>
<clustering>
<clus scale="   32.690">  4  5 -1 -1</clus>
<clus scale="   39.046">  1  3  2 -1</clus>
<clus scale="  245.434">  1  6  2 -1</clus>
<clus scale="  252.428">  2  3  1 -1</clus>
</clustering>
</event>
<event>
 6    0  0.1230761E+002  0.1635991E+03  0.7546771E-02  0.1184692E+00
         -3   -1    0    0    0  501 -0.00000000000E+00  0.00000000000E+00  0.57683406419E+03  0.57683406419E+03  0.00000000000E+00 0. -1.
         21   -1    0    0  504  502  0.00000000000E+00 -0.00000000000E+00 -0.23692352845E+03  0.23692352845E+03  0.00000000000E+00 0. -1.
         21    1    1    2  503  505  0.36120550197E+02 -0.33351795348E+02 -0.11097879232E+03  0.12138092414E+03  0.00000000000E+00 0. -1.
         21    1    1    2  504  501  0.72641154829E+02  0.12918224158E+03  0.61251171895E+02  0.16036363358E+03  0.00000000000E+00 0. -1.
         21    1    1    2  505  502  0.41394048902E+02 -0.76151362061E+01 -0.46303143813E+02  0.62573466508E+02  0.00000000000E+00 0.  1.
         -3    1    1    2    0  503 -0.15015575393E+03 -0.88215310029E+02  0.43594129998E+03  0.46943956841E+03  0.00000000000E+00 0. -1.
<scales pt_clust_3="95.40236" pt_clust_4="163.59914" pt_clust_5="34.80251" pt_clust_6="14000.00000"></scales>
<clustering>
<clus scale="   34.803">  3  5 -1 -1</clus>
<clus scale="   95.402">  2  3  1 -1</clus>
<clus scale="  163.599">  2  4  1 -1</clus>
<clus scale="   95.402">  2  3  1 -1</clus>
</clustering>
</event>
<event>
 6    0  0.1230761E+002  0.1699491E+03  0.7546771E-02  0.1177901E+00
         21   -1    0    0  504  502  0.00000000000E+00  0.00000000000E+00  0.53747777023E+03  0.53747777023E+03  0.00000000000E+00 0. -1.
         -4   -1    0    0    0  501 -0.00000000000E+00 -0.00000000000E+00 -0.11638834164E+03  0.11638834164E+03  0.00000000000E+00 0.  1.
         21    1    1    2  503  502 -0.78394449122E+01 -0.38317818007E+02  0.51810536427E+02  0.64915666509E+02  0.00000000000E+00 0. -1.
         21    1    1    2  504  505  0.57581607654E+02  0.15012518781E+03  0.28382473448E+03  0.32620498687E+03  0.00000000000E+00 0. -1.
         21    1    1    2  505  501  0.32598559822E+02  0.11782305974E+02  0.10719075509E+03  0.11265587785E+03  0.00000000000E+00 0. -1.
         -4    1    1    2    0  503 -0.82340722564E+02 -0.12358967578E+03 -0.21736597402E+02  0.15008958064E+03  0.00000000000E+00 0.  1.
<scales pt_clust_3="39.11153" pt_clust_4="33.99016" pt_clust_5="33.99016" pt_clust_6="153.37356"></scales>
<clustering>
<clus scale="   33.990">  4  5 -1 -1</clus>
<clus scale="   39.112">  1  3  2 -1</clus>
<clus scale="  153.374">  2  6  1 -1</clus>
<clus scale="   39.112">  1  3  2 -1</clus>
</clustering>
</event>
<event>
 6    0  0.1230761E+002  0.1376699E+03  0.7546771E-02  0.1216499E+00
          2   -1    0    0  505    0 -0.00000000000E+00  0.00000000000E+00  0.95282876378E+03  0.95282876378E+03  0.00000000000E+00 0. -1.
         21   -1    0    0  503  502  0.00000000000E+00 -0.00000000000E+00 -0.22671252405E+03  0.22671252405E+03  0.00000000000E+00 0. -1.
         21    1    1    2  503  501  0.22461662161E+02  0.76831432669E+02 -0.16775265446E+03  0.18587239815E+03  0.00000000000E+00 0. -1.
         21    1    1    2  504  502  0.36945094479E+02  0.49685367568E+02 -0.16124359867E+02  0.63981018572E+02  0.00000000000E+00 0. -1.
         21    1    1    2  505  504 -0.16423822454E+02  0.25575519172E+02  0.10427915174E+03  0.10861855557E+03  0.00000000000E+00 0. -1.
          2    1    1    2  501    0 -0.42982934185E+02 -0.15209231941E+03  0.80571410232E+03  0.82106931555E+03  0.00000000000E+00 0. -1.
<scales pt_clust_3="137.66991" pt_clust_4="62.22424" pt_clust_5="30.39489" pt_clust_6="14000.00000"></scales>
<clustering>
<clus scale="   30.395">  1  5  2 -1</clus>
<clus scale="   62.224">  2  4  1 -1</clus>
<clus scale="  137.670">  2  3  1 -1</clus>
<clus scale="   62.224">  2  3  1 -1</clus>
</clustering>
</event>
<event>
 6    0  0.1230761E+002  0.1124116E+03  0.7546771E-02  0.1256168E+00
         -4   -1    0    0    0  501 -0.00000000000E+00  0.00000000000E+00  0.44690909148E+03  0.44690909148E+03  0.00000000000E+00 0. -1.
         21   -1    0    0  503  502  0.00000000000E+00 -0.00000000000E+00 -0.87793450212E+03  0.87793450212E+03  0.00000000000E+00 0. -1.
         21    1    1    2  503  501  0.87859069457E+01 -0.28922981270E+02  0.54631105642E+02  0.62436277196E+02  0.00000000000E+00 0.  1.
         21    1    1    2  504  502  0.84881447002E+01 -0.37588596027E+02 -0.39615621829E+03  0.39802600473E+03  0.00000000000E+00 0. -1.
         21    1    1    2  505  504 -0.49476185023E+02 -0.67687537651E+02 -0.46074661977E+03  0.46831286899E+03  0.00000000000E+00 0. -1.
         -4    1    1    2    0  505  0.32202133377E+02  0.13419911495E+03  0.37124632178E+03  0.39606844267E+03  0.00000000000E+00 0. -1.
<scales pt_clust_3="30.22798" pt_clust_4="38.60764" pt_clust_5="112.41159" pt_clust_6="14000.00000"></scales>
<clustering>
<clus scale="   30.228">  1  3  2 -1</clus>
<clus scale="   38.608">  2  4  1 -1</clus>
<clus scale="  112.412">  2  5  1 -1</clus>
<clus scale="   38.608">  2  3  1 -1</clus>
</clustering>
</event>
<event>
 6    0  0.1230761E+002  0.8819320E+02  0.7546771E-02  0.1307287E+00
          1   -1    0    0  504    0 -0.00000000000E+00  0.00000000000E+00  0.48837840285E+04  0.48837840285E+04  0.00000000000E+00 0.  1.
         21   -1    0    0  503  502  0.00000000000E+00 -0.00000000000E+00 -0.31244947112E+03  0.31244947112E+03  0.00000000000E+00 0.  1.
         21    1    1    2  503  501  0.59649467193E+02  0.27378857548E+02 -0.29847958612E+03  0.30561041230E+03  0.00000000000E+00 0.  1.
         21    1    1    2  504  505  0.31109245497E+02 -0.51884083740E+01  0.14502324451E+04  0.14505753513E+04  0.00000000000E+00 0.  1.
         21    1    1    2  505  502  0.28211642083E+02 -0.26983119595E+02  0.32284180874E+02  0.50658205918E+02  0.00000000000E+00 0.  1.
          1    1    1    2  501    0 -0.11897035477E+03  0.47926704207E+01  0.33872975175E+04  0.33893895301E+04  0.00000000000E+00 0.  1.
<scales pt_clust_3="88.19320" pt_clust_4="31.53894" pt_clust_5="39.35371" pt_clust_6="14000.00000"></scales>
<clustering>
<clus scale="   31.539">  1  4  2 -1</clus>
<clus scale="   39.354">  2  5  1 -1</clus>
<clus scale="   88.193">  2  3  1 -1</clus>
<clus scale="   39.354">  2  3  1 -1</clus>
</clustering>
</event>
<event>
 6    0  0.1230761E+002  0.9753961E+02  0.7546771E-02  0.1285557E+00
          2   -1    0    0  502    0 -0.00000000000E+00  0.00000000000E+00  0.20726776648E+04  0.20726776648E+04  0.00000000000E+00 0.  1.
         21   -1    0    0  504  502  0.00000000000E+00 -0.00000000000E+00 -0.27011610374E+03  0.27011610374E+03  0.00000000000E+00 0.  1.
         21    1    1    2  503  505 -0.84656020437E+02  0.12457379294E+02  0.30888488990E+03  0.32051786737E+03  0.00000000000E+00 0.  1.
         21    1    1    2  504  503  0.62340676240E+02  0.77061397368E+02 -0.25323411579E+03  0.27194178840E+03  0.00000000000E+00 0.  1.
         21    1    1    2  505  501  0.14381977259E+02 -0.54648784773E+02  0.55129619094E+03  0.55418482575E+03  0.00000000000E+00 0.  1.
          2    1    1    2  501    0  0.79333669375E+01 -0.34869991889E+02  0.11956145960E+04  0.11961492870E+04  0.00000000000E+00 0.  1.
<scales pt_clust_3="97.53961" pt_clust_4="14000.00000" pt_clust_5="79.04458" pt_clust_6="35.76108"></scales>
<clustering>
<clus scale="   35.761">  1  6  2 -1</clus>
<clus scale="   79.045">  1  5  2 -1</clus>
<clus scale="   97.540">  1  3  2 -1</clus>
<clus scale="   97.540">  2  3  1 -1</clus>
</clustering>
</event>
<event>
 6    0  0.1230761E+002  0.1099897E+03  0.7546771E-02  0.1260589E+00
          1   -1    0    0  503    0 -0.00000000000E+00  0.00000000000E+00  0.18239213362E+04  0.18239213362E+04  0.00000000000E+00 0. -1.
         21   -1    0    0  505  502  0.00000000000E+00 -0.00000000000E+00 -0.63462680975E+03  0.63462680975E+03  0.00000000000E+00 0.  1.
         21    1    1    2  503  504  0.64095802306E+01  0.30139298972E+02  0.50886824122E+03  0.50980030108E+03  0.00000000000E+00 0. -1.
         21    1    1    2  504  502  0.26875386185E+02  0.15176290824E+02 -0.74705884006E+02  0.80830534397E+02  0.00000000000E+00 0.  1.
         21    1    1    2  505  501  0.65436584373E+02  0.44746977585E+02 -0.55014020618E+03  0.55582235024E+03  0.00000000000E+00 0.  1.
          1    1    1    2  501    0 -0.98721550789E+02 -0.90062567381E+02  0.13052723754E+04  0.13120949603E+04  0.00000000000E+00 0. -1.
<scales pt_clust_3="30.81331" pt_clust_4="30.91189" pt_clust_5="14000.00000" pt_clust_6="109.98968"></scales>
<clustering>
<clus scale="   30.813">  1  3  2 -1</clus>
<clus scale="   30.912">  2  4  1 -1</clus>
<clus scale="  109.990">  1  6  2 -1</clus>
<clus scale="   30.912">  2  3  1 -1</clus>
</clustering>
</event>
<event>
 6    0  0.1230761E+002  0.2286432E+03  0.7546771E-02  0.1127598E+00
          2   -1    0    0  503    0 -0.00000000000E+00  0.00000000000E+00  0.12309575878E+04  0.12309575878E+04  0.00000000000E+00 0. -1.
         21   -1    0    0  505  502  0.00000000000E+00 -0.00000000000E+00 -0.39358296945E+03  0.39358296945E+03  0.00000000000E+00 0. -1.
         21    1    1    2  503  504  0.61402931531E+02  0.18777918772E+03 -0.27364841653E+03  0.33751266526E+03  0.00000000000E+00 0. -1.
         21    1    1    2  504  502  0.64710001414E+02  0.61187453287E+02 -0.25044796822E+02  0.92512326587E+02  0.00000000000E+00 0. -1.
         21    1    1    2  505  501 -0.10379392135E+02 -0.50207085069E+02  0.20059481256E+02  0.55053301086E+02  0.00000000000E+00 0.  1.
          2    1    1    2  501    0 -0.11573354081E+03 -0.19875955594E+03  0.11160083505E+04  0.11394622643E+04  0.00000000000E+00 0. -1.
<scales pt_clust_3="14000.00000" pt_clust_4="82.61530" pt_clust_5="51.26873" pt_clust_6="228.64322"></scales>
<clustering>
<clus scale="   51.269">  2  5  1 -1</clus>
<clus scale="   82.615">  2  4  1 -1</clus>
<clus scale="  228.643">  1  6  2 -1</clus>
<clus scale="   51.269">  2  3  1 -1</clus>
</clustering>
</event>
<event>
 6    0  0.1230761E+002  0.2567070E+03  0.7546771E-02  0.1109138E+00
         -2   -1    0    0    0  501 -0.00000000000E+00  0.00000000000E+00  0.15968610689E+04  0.15968610689E+04  0.00000000000E+00 0. -1.
         21   -1    0    0  503  502  0.00000000000E+00 -0.00000000000E+00 -0.66591619017E+03  0.66591619017E+03  0.00000000000E+00 0. -1.
         21    1    1    2  503  505 -0.59992887773E+02 -0.17272414667E+02 -0.20395938483E+03  0.21330005521E+03  0.00000000000E+00 0. -1.
         21    1    1    2  504  502 -0.70726470640E+01 -0.23366041921E+03 -0.40602779666E+03  0.46851444535E+03  0.00000000000E+00 0. -1.
         21    1    1    2  505  501 -0.53045823499E+02  0.68958683702E+02  0.15298085314E+03  0.17598949081E+03  0.00000000000E+00 0. -1.
         -2    1    1    2    0  504  0.12011135834E+03  0.18197415017E+03  0.13879512071E+04  0.14049732677E+04  0.00000000000E+00 0. -1.
<scales pt_clust_3="62.42982" pt_clust_4="256.70695" pt_clust_5="87.58892" pt_clust_6="14000.00000"></scales>
<clustering>
<clus scale="   62.430">  2  3  1 -1</clus>
<clus scale="   87.589">  1  5  2 -1</clus>
<clus scale="  256.707">  2  4  1 -1</clus>
<clus scale="   62.430">  2  3  1 -1</clus>
</clustering>
</event>
<event>
 6    0  0.1230761E+002  0.1510437E+03  0.7546771E-02  0.1199196E+00
         21   -1    0    0  504  502  0.00000000000E+00  0.00000000000E+00  0.73460709733E+03  0.73460709733E+03  0.00000000000E+00 0.  1.
          2   -1    0    0  503    0 -0.00000000000E+00 -0.00000000000E+00 -0.24798084279E+03  0.24798084279E+03  0.00000000000E+00 0. -1.
         21    1    1    2  503  502  0.29981367198E+02  0.19531618780E+02 -0.25615259030E+02  0.44005772421E+02  0.00000000000E+00 0. -1.
         21    1    1    2  504  505 -0.98781376907E+01 -0.36998717145E+02  0.91493070269E+02  0.99183993577E+02  0.00000000000E+00 0. -1.
         21    1    1    2  505  501 -0.58924345126E+01 -0.10245648177E+03  0.60799028308E+03  0.61659081713E+03  0.00000000000E+00 0.  1.
          2    1    1    2  501    0 -0.14210794994E+02  0.11992358013E+03 -0.18724183978E+03  0.22280735699E+03  0.00000000000E+00 0. -1.
<scales pt_clust_3="35.78221" pt_clust_4="35.40957" pt_clust_5="35.40957" pt_clust_6="139.47772"></scales>
<clustering>
<clus scale="   35.410">  4  5 -1 -1</clus>
<clus scale="   35.782">  2  3  1 -1</clus>
<clus scale="  139.478">  2  6  1 -1</clus>
<clus scale="  151.044">  1  3  2 -1</clus>
</clustering>
</event>
<event>
 6    0  0.1230761E+002  0.1354311E+03  0.7546771E-02  0.1219612E+00
         21   -1    0    0  504  502  0.00000000000E+00  0.00000000000E+00  0.95844867026E+03  0.95844867026E+03  0.00000000000E+00 0. -1.
          2   -1    0    0  503    0 -0.00000000000E+00 -0.00000000000E+00 -0.20884557630E+04  0.20884557630E+04  0.00000000000E+00 0.  1.
         21    1    1    2  503  502  0.33454081231E+02  0.13197587123E+02 -0.47304879631E+03  0.47441386526E+03  0.00000000000E+00 0. -1.
         21    1    1    2  504  505  0.23230148778E+02 -0.55525313621E+02  0.36891600446E+03  0.37379368455E+03  0.00000000000E+00 0. -1.
         21    1    1    2  505  501 -0.41581629495E+02 -0.61580186484E+02  0.58233858384E+03  0.58705994371E+03  0.00000000000E+00 0. -1.
          2    1    1    2  501    0 -0.15102600514E+02  0.10390791298E+03 -0.16082128847E+04  0.16116369397E+04  0.00000000000E+00 0.  1.
<scales pt_clust_3="35.96320" pt_clust_4="59.06280" pt_clust_5="59.06280" pt_clust_6="118.48059"></scales>
<clustering>
<clus scale="   35.963">  2  3  1 -1</clus>
<clus scale="   59.063">  4  5 -1 -1</clus>
<clus scale="  118.481">  2  6  1 -1</clus>
<clus scale="  135.431">  1  3  2 -1</clus>
</clustering>
</event>
<event>
 6    0  0.1230761E+002  0.1161036E+03  0.7546771E-02  0.1249667E+00
          2   -1    0    0  504    0 -0.00000000000E+00  0.00000000000E+00  0.10711239347E+04  0.10711239347E+04  0.00000000000E+00 0. -1.
         21   -1    0    0  505  502  0.00000000000E+00 -0.00000000000E+00 -0.15270749736E+03  0.15270749736E+03  0.00000000000E+00 0.  1.
         21    1    1    2  503  502 -0.35657338810E+02 -0.61460544219E+01 -0.87622611091E+02  0.94799481910E+02  0.00000000000E+00 0.  1.
         21    1    1    2  504  503  0.24698241416E+02  0.38745574063E+02 -0.33001965327E+02  0.56571656808E+02  0.00000000000E+00 0.  1.
         21    1    1    2  505  501 -0.17284950107E+02 -0.13729646716E+03  0.37694545301E+03  0.40154322798E+03  0.00000000000E+00 0. -1.
          2    1    1    2  501    0  0.28244047501E+02  0.10469694752E+03  0.66209556071E+03  0.67091706533E+03  0.00000000000E+00 0. -1.
<scales pt_clust_3="36.18314" pt_clust_4="34.29305" pt_clust_5="116.10359" pt_clust_6="14000.00000"></scales>
<clustering>
<clus scale="   36.183">  2  3  1 -1</clus>
<clus scale="   34.293">  2  4  1 -1</clus>
<clus scale="  116.104">  2  5  1 -1</clus>
<clus scale="   36.183">  2  3  1 -1</clus>
</clustering>
</event>
<event>
 6    0  0.1230761E+002  0.1332455E+03  0.7546771E-02  0.1222718E+00
          2   -1    0    0  504    0 -0.00000000000E+00  0.00000000000E+00  0.17374298183E+04  0.17374298183E+04  0.00000000000E+00 0. -1.
         21   -1    0    0  503  502  0.00000000000E+00 -0.00000000000E+00 -0.93844459989E+02  0.93844459989E+02  0.00000000000E+00 0. -1.
         21    1    1    2  503  501  0.75464451725E+02  0.56706614756E+02  0.13727382372E+03  0.16659719778E+03  0.00000000000E+00 0. -1.
         21    1    1    2  504  505 -0.47174174420E+01  0.33995284989E+02  0.13125520593E+04  0.13130007014E+04  0.00000000000E+00 0. -1.
         21    1    1    2  505  502 -0.12658279617E+03 -0.86553628340E+02  0.35378902908E+01  0.15338595611E+03  0.00000000000E+00 0. -1.
          2    1    1    2  501    0  0.55835761886E+02 -0.41482714046E+01  0.19022158495E+03  0.19829042298E+03  0.00000000000E+00 0. -1.
<scales pt_clust_3="133.24552" pt_clust_4="34.32103" pt_clust_5="14000.00000" pt_clust_6="54.87557"></scales>
<clustering>
<clus scale="   34.321">  1  4  2 -1</clus>
<clus scale="   54.876">  1  6  2 -1</clus>
<clus scale="  133.246">  1  3  2 -1</clus>
<clus scale="  133.246">  2  3  1 -1</clus>
</clustering>
</event>
<event>
 6    0  0.1230761E+002  0.1140635E+03  0.7546771E-02  0.1253225E+00
         21   -1    0    0  503  502  0.00000000000E+00  0.00000000000E+00  0.13173283734E+03  0.13173283734E+03  0.00000000000E+00 0. -1.
         -3   -1    0    0    0  501 -0.00000000000E+00 -0.00000000000E+00 -0.18204480685E+04  0.18204480685E+04  0.00000000000E+00 0. -1.
         21    1    1    2  503  505 -0.28469651001E+02  0.28744363036E+02 -0.91959520648E+02  0.10046548100E+03  0.00000000000E+00 0.  1.
         21    1    1    2  504  502  0.86211854665E+02 -0.74990586554E+02  0.98445223275E+02  0.15082285617E+03  0.00000000000E+00 0. -1.
         21    1    1    2  505  501  0.30805820382E+02 -0.92714917596E+01 -0.28114942883E+03  0.28298402863E+03  0.00000000000E+00 0.  1.
         -3    1    1    2    0  504 -0.88548024046E+02  0.55517715278E+02 -0.14140515050E+04  0.14179085401E+04  0.00000000000E+00 0. -1.
<scales pt_clust_3="38.70105" pt_clust_4="14000.00000" pt_clust_5="32.17078" pt_clust_6="114.06348"></scales>
<clustering>
<clus scale="   32.171">  2  5  1 -1</clus>
<clus scale="   38.701">  2  3  1 -1</clus>
<clus scale="  114.063">  2  6  1 -1</clus>
<clus scale="  114.063">  1  3  2 -1</clus>
</clustering>
</event>
<event>
 6    0  0.1230761E+002  0.8035580E+02  0.7546771E-02  0.1328045E+00
         21   -1    0    0  503  502  0.00000000000E+00  0.00000000000E+00  0.32243973202E+02  0.32243973202E+02  0.00000000000E+00 0. -1.
         -4   -1    0    0    0  501 -0.00000000000E+00 -0.00000000000E+00 -0.66746796981E+03  0.66746796981E+03  0.00000000000E+00 0. -1.
         21    1    1    2  503  504 -0.32271939541E+02 -0.21134267586E+02 -0.45589543984E+02  0.59720531384E+02  0.00000000000E+00 0. -1.
         21    1    1    2  504  505 -0.55595692343E+02  0.42093204498E+01 -0.19405196175E+03  0.20190285596E+03  0.00000000000E+00 0. -1.
         21    1    1    2  505  501 -0.19559338246E+02 -0.47438196342E+02 -0.19486255516E+03  0.20150524953E+03  0.00000000000E+00 0.  1.
         -4    1    1    2    0  502  0.10742697013E+03  0.64363143479E+02 -0.20071993572E+03  0.23658330614E+03  0.00000000000E+00 0. -1.
<scales pt_clust_3="38.57636" pt_clust_4="14000.00000" pt_clust_5="55.58667" pt_clust_6="80.35580"></scales>
<clustering>
<clus scale="   38.576">  1  3  2 -1</clus>
<clus scale="   55.587">  2  5  1 -1</clus>
<clus scale="   80.356">  1  6  2 -1</clus>
<clus scale="   38.576">  1  3  2 -1</clus>
</clustering>
</event>
<event>
 6    0  0.1230761E+002  0.6491304E+02  0.7546771E-02  0.1378299E+00
         21   -1    0    0  503  502  0.00000000000E+00  0.00000000000E+00  0.11578916099E+02  0.11578916099E+02  0.00000000000E+00 0. -1.
          2   -1    0    0  504    0 -0.00000000000E+00 -0.00000000000E+00 -0.26223289558E+04  0.26223289558E+04  0.00000000000E+00 0. -1.
         21    1    1    2  503  501  0.64486437795E+02  0.12916443647E+02 -0.17805511148E+03  0.18981295504E+03  0.00000000000E+00 0. -1.
         21    1    1    2  504  505 -0.33661747163E+02  0.29042761028E+02 -0.10609797521E+04  0.10619108388E+04  0.00000000000E+00 0. -1.
         21    1    1    2  505  502 -0.65628765762E+02  0.25329272477E+02 -0.31512373387E+03  0.32288027904E+03  0.00000000000E+00 0. -1.
          2    1    1    2  501    0  0.34804075130E+02 -0.67288477151E+02 -0.10565914423E+04  0.10593037991E+04  0.00000000000E+00 0. -1.
<scales pt_clust_3="14000.00000" pt_clust_4="44.45892" pt_clust_5="64.91304" pt_clust_6="49.09005"></scales>
<clustering>
<clus scale="   44.459">  2  4  1 -1</clus>
<clus scale="   49.090">  2  6  1 -1</clus>
<clus scale="   64.913">  2  5  1 -1</clus>
<clus scale="   64.913">  1  3  2 -1</clus>
</clustering>
</event>
<event>
 6    0  0.1230761E+002  0.1932190E+03  0.7546771E-02  0.1155590E+00
         21   -1    0    0  504  502  0.00000000000E+00  0.00000000000E+00  0.26612367322E+03  0.26612367322E+03  0.00000000000E+00 0.  1.
         -1   -1    0    0    0  501 -0.00000000000E+00 -0.00000000000E+00 -0.14261664564E+04  0.14261664564E+04  0.00000000000E+00 0. -1.
         21    1    1    2  503  502 -0.15748610960E+02 -0.36801672260E+02 -0.18397604916E+02  0.44055121098E+02  0.00000000000E+00 0.  1.
         21    1    1    2  504  505 -0.35887829347E+02 -0.45872997206E+02  0.22091386093E+03  0.22846269305E+03  0.00000000000E+00 0.  1.
         21    1    1    2  505  501  0.92764179172E+02 -0.13836937455E+03 -0.44766282901E+03  0.47765393878E+03  0.00000000000E+00 0.  1.
         -1    1    1    2    0  503 -0.41127738865E+02  0.22104404401E+03 -0.91489621020E+03  0.94211837671E+03  0.00000000000E+00 0. -1.
<scales pt_clust_3="40.02976" pt_clust_4="93.01040" pt_clust_5="193.21896" pt_clust_6="14000.00000"></scales>
<clustering>
<clus scale="   40.030">  1  3  2 -1</clus>
<clus scale="   93.010">  1  4  2 -1</clus>
<clus scale="  193.219">  1  5  2 -1</clus>
<clus scale="   40.030">  1  3  2 -1</clus>
</clustering>
</event>
<event>
 6    0  0.1230761E+002  0.9607538E+02  0.7546771E-02  0.1288772E+00
         21   -1    0    0  501  502  0.00000000000E+00  0.00000000000E+00  0.76639830832E+02  0.76639830832E+02  0.00000000000E+00 0. -1.
          1   -1    0    0  504    0 -0.00000000000E+00 -0.00000000000E+00 -0.18011628170E+04  0.18011628170E+04  0.00000000000E+00 0. -1.
         21    1    1    2  503  502  0.37253921350E+02  0.61567558333E+02  0.13057816606E+02  0.73136348484E+02  0.00000000000E+00 0. -1.
         21    1    1    2  504  505 -0.56374173409E+02 -0.10077568760E+03 -0.94569066852E+03  0.95271434709E+03  0.00000000000E+00 0. -1.
         21    1    1    2  505  503  0.68625296007E+02 -0.35053125463E+02 -0.26669116104E+02  0.81543820186E+02  0.00000000000E+00 0. -1.
          1    1    1    2  501    0 -0.49505043948E+02  0.74261254734E+02 -0.76522101812E+03  0.77040813203E+03  0.00000000000E+00 0. -1.
<scales pt_clust_3="71.96123" pt_clust_4="14000.00000" pt_clust_5="96.07538" pt_clust_6="91.75118"></scales>
<clustering>
<clus scale="   71.961">  1  3  2 -1</clus>
<clus scale="   91.751">  2  6  1 -1</clus>
<clus scale="   96.075">  1  5  2 -1</clus>
<clus scale="   71.961">  1  3  2 -1</clus>
</clustering>
</event>
<event>
 6    0  0.1230761E+002  0.1311171E+03  0.7546771E-02  0.1225808E+00
          1   -1    0    0  504    0 -0.00000000000E+00  0.00000000000E+00  0.61636897672E+03  0.61636897672E+03  0.00000000000E+00 0.  1.
         21   -1    0    0  501  502  0.00000000000E+00 -0.00000000000E+00 -0.15099832073E+03  0.15099832073E+03  0.00000000000E+00 0.  1.
         21    1    1    2  503  502 -0.33461386955E+02  0.67821971301E+02 -0.73777115450E+02  0.10565295534E+03  0.00000000000E+00 0.  1.
         21    1    1    2  504  505  0.76105504191E+02  0.18488079776E+02  0.43377893220E+03  0.44079248960E+03  0.00000000000E+00 0.  1.
         21    1    1    2  505  503 -0.65529648160E+01  0.45931397386E+02 -0.25407065498E+01  0.46466006967E+02  0.00000000000E+00 0.  1.
          1    1    1    2  501    0 -0.36091152420E+02 -0.13224144846E+03  0.10790954578E+03  0.17445584555E+03  0.00000000000E+00 0.  1.
<scales pt_clust_3="41.25899" pt_clust_4="78.31894" pt_clust_5="41.25899" pt_clust_6="120.07036"></scales>
<clustering>
<clus scale="   41.259">  3  5 -1 -1</clus>
<clus scale="   78.319">  1  4  2 -1</clus>
<clus scale="  120.070">  1  6  2 -1</clus>
<clus scale="  131.117">  2  3  1 -1</clus>
</clustering>
</event>
<event>
 6    0  0.1230761E+002  0.1170472E+03  0.7546771E-02  0.1248049E+00
         21   -1    0    0  504  502  0.00000000000E+00  0.00000000000E+00  0.92851498064E+02  0.92851498064E+02  0.00000000000E+00 0.  1.
          3   -1    0    0  503    0 -0.00000000000E+00 -0.00000000000E+00 -0.16319011854E+04  0.16319011854E+04  0.00000000000E+00 0. -1.
         21    1    1    2  503  505  0.14035498761E+02 -0.39227449812E+02 -0.11022088006E+03  0.11783221311E+03  0.00000000000E+00 0. -1.
         21    1    1    2  504  501  0.64613716300E+02 -0.60962070787E+01  0.40517590568E+02  0.76509941970E+02  0.00000000000E+00 0.  1.
         21    1    1    2  505  502  0.50497052785E+02  0.61502401119E+02 -0.29771513938E+02  0.84963761248E+02  0.00000000000E+00 0.  1.
          3    1    1    2  501    0 -0.12914626785E+03 -0.16178744228E+02 -0.14395748839E+04  0.14454467672E+04  0.00000000000E+00 0. -1.
<scales pt_clust_3="41.66279" pt_clust_4="65.11156" pt_clust_5="14000.00000" pt_clust_6="117.04725"></scales>
<clustering>
<clus scale="   41.663">  2  3  1 -1</clus>
<clus scale="   65.112">  1  4  2 -1</clus>
<clus scale="  117.047">  2  6  1 -1</clus>
<clus scale="   65.112">  1  3  2 -1</clus>
</clustering>
</event>
<event>
 6    0  0.1230761E+002  0.2268046E+03  0.7546771E-02  0.1128909E+00
          2   -1    0    0  505    0 -0.00000000000E+00  0.00000000000E+00  0.38852265853E+03  0.38852265853E+03  0.00000000000E+00 0. -1.
         21   -1    0    0  504  502  0.00000000000E+00 -0.00000000000E+00 -0.85736712634E+03  0.85736712634E+03  0.00000000000E+00 0. -1.
         21    1    1    2  503  501 -0.13474557650E+01  0.10691167966E+03 -0.31912605919E+03  0.33656108589E+03  0.00000000000E+00 0. -1.
         21    1    1    2  504  503  0.54282468461E+02  0.10967528443E+03 -0.44434534524E+03  0.46088831644E+03  0.00000000000E+00 0. -1.
         21    1    1    2  505  502 -0.79756454394E+02 -0.56763331426E+02 -0.14933034494E+02  0.99026073997E+02  0.00000000000E+00 0. -1.
          2    1    1    2  501    0  0.26821441698E+02 -0.15982363266E+03  0.30955997111E+03  0.34941430853E+03  0.00000000000E+00 0. -1.
<scales pt_clust_3="53.89865" pt_clust_4="53.89865" pt_clust_5="97.89366" pt_clust_6="219.35218"></scales>
<clustering>
<clus scale="   53.899">  3  4 -1 -1</clus>
<clus scale="   97.894">  1  5  2 -1</clus>
<clus scale="  219.352">  1  6  2 -1</clus>
<clus scale="  226.805">  2  3  1 -1</clus>
</clustering>
</event>
<event>
 6    0  0.1230761E+002  0.8283805E+02  0.7546771E-02  0.1321185E+00
          2   -1    0    0  504    0 -0.00000000000E+00  0.00000000000E+00  0.42788503690E+03  0.42788503690E+03  0.00000000000E+00 0.  1.
         21   -1    0    0  503  502  0.00000000000E+00 -0.00000000000E+00 -0.86399570085E+02  0.86399570085E+02  0.00000000000E+00 0.  1.
         21    1    1    2  503  501 -0.11852681121E+02 -0.32376109098E+02  0.17608121240E+02  0.38713620648E+02  0.00000000000E+00 0.  1.
         21    1    1    2  504  505 -0.39723470874E+02  0.56830613517E+02  0.11955477094E+03  0.13820642542E+03  0.00000000000E+00 0.  1.
         21    1    1    2  505  502 -0.64754087904E+02 -0.73910650160E+01 -0.32599399532E+02  0.72872769895E+02  0.00000000000E+00 0.  1.
          2    1    1    2  501    0  0.11633023990E+03 -0.17063439403E+02  0.23692197417E+03  0.26449179103E+03  0.00000000000E+00 0.  1.
<scales pt_clust_3="34.47751" pt_clust_4="66.99970" pt_clust_5="82.83805" pt_clust_6="14000.00000"></scales>
<clustering>
<clus scale="   34.478">  2  3  1 -1</clus>
<clus scale="   67.000">  1  4  2 -1</clus>
<clus scale="   82.838">  2  5  1 -1</clus>
<clus scale="   34.478">  2  3  1 -1</clus>
</clustering>
</event>
<event>
 6    0  0.1230761E+002  0.1296059E+03  0.7546771E-02  0.1228042E+00
          2   -1    0    0  505    0 -0.00000000000E+00  0.00000000000E+00  0.15245297281E+04  0.15245297281E+04  0.00000000000E+00 0.  1.
         21   -1    0    0  504  502  0.00000000000E+00 -0.00000000000E+00 -0.11432109410E+03  0.11432109410E+03  0.00000000000E+00 0.  1.
         21    1    1    2  503  502 -0.30129985290E+01  0.31252936402E+02  0.23290963292E+02  0.39093390298E+02  0.00000000000E+00 0.  1.
         21    1    1    2  504  501  0.14814421092E+02  0.47562606215E+02 -0.26458140016E+02  0.56406575462E+02  0.00000000000E+00 0.  1.
         21    1    1    2  505  503  0.11835462236E+03 -0.75066535896E+02  0.17300605723E+02  0.14121654437E+03  0.00000000000E+00 0.  1.
          2    1    1    2  501    0 -0.13015604493E+03 -0.37490067216E+01  0.13960752050E+04  0.14021343120E+04  0.00000000000E+00 0.  1.
<scales pt_clust_3="31.39784" pt_clust_4="61.26821" pt_clust_5="129.60591" pt_clust_6="14000.00000"></scales>
<clustering>
<clus scale="   31.398">  2  3  1 -1</clus>
<clus scale="   61.268">  2  4  1 -1</clus>
<clus scale="  129.606">  2  5  1 -1</clus>
<clus scale="   31.398">  2  3  1 -1</clus>
</clustering>
</event>
<event>
 6    0  0.1230761E+002  0.4441765E+03  0.7546771E-02  0.1029473E+00
          3   -1    0    0  504    0 -0.00000000000E+00  0.00000000000E+00  0.19401536563E+04  0.19401536563E+04  0.00000000000E+00 0.  1.
         21   -1    0    0  503  502  0.00000000000E+00 -0.00000000000E+00 -0.19763925601E+03  0.19763925601E+03  0.00000000000E+00 0. -1.
         21    1    1    2  503  505 -0.93040993694E+02 -0.77438949700E+02  0.36292218126E+02  0.12637461191E+03  0.00000000000E+00 0. -1.
         21    1    1    2  504  502 -0.19836067732E+02 -0.67798841602E+02  0.26899310640E+03  0.27811408413E+03  0.00000000000E+00 0. -1.
         21    1    1    2  505  501 -0.31166947423E+03 -0.49261177603E+02  0.12315311865E+03  0.33871996607E+03  0.00000000000E+00 0. -1.
          3    1    1    2  501    0  0.42454653565E+03  0.19449896890E+03  0.13140759572E+04  0.13945842502E+04  0.00000000000E+00 0.  1.
<scales pt_clust_3="65.09898" pt_clust_4="70.64101" pt_clust_5="65.09898" pt_clust_6="431.56237"></scales>
<clustering>
<clus scale="   65.099">  3  5 -1 -1</clus>
<clus scale="   70.641">  1  4  2 -1</clus>
<clus scale="  431.562">  1  6  2 -1</clus>
<clus scale="  444.176">  2  3  1 -1</clus>
</clustering>
</event>
<event>
 6    0  0.1230761E+002  0.8423724E+02  0.7546771E-02  0.1317439E+00
         21   -1    0    0  503  502  0.00000000000E+00  0.00000000000E+00  0.22947292416E+04  0.22947292416E+04  0.00000000000E+00 0. -1.
          2   -1    0    0  504    0 -0.00000000000E+00 -0.00000000000E+00 -0.62292235278E+02  0.62292235278E+02  0.00000000000E+00 0. -1.
         21    1    1    2  503  501 -0.81662891641E+02  0.97750108029E+02  0.18040570546E+04  0.18085479722E+04  0.00000000000E+00 0. -1.
         21    1    1    2  504  505 -0.36845131204E+01 -0.68754682566E+02  0.15054255797E+03  0.16554106370E+03  0.00000000000E+00 0.  1.
         21    1    1    2  505  502  0.20642605657E+02 -0.32497328641E+02  0.30874725677E+03  0.31113833274E+03  0.00000000000E+00 0.  1.
          2    1    1    2  501    0  0.64704799104E+02  0.35019031786E+01 -0.30909862982E+02  0.71794108272E+02  0.00000000000E+00 0. -1.
<scales pt_clust_3="84.23724" pt_clust_4="14000.00000" pt_clust_5="38.49927" pt_clust_6="64.99462"></scales>
<clustering>
<clus scale="   38.499">  1  5  2 -1</clus>
<clus scale="   64.995">  2  6  1 -1</clus>
<clus scale="   84.237">  1  3  2 -1</clus>
<clus scale="   38.499">  1  3  2 -1</clus>
</clustering>
</event>
<event>
 6    0  0.1230761E+002  0.2019528E+03  0.7546771E-02  0.1148102E+00
         21   -1    0    0  504  502  0.00000000000E+00  0.00000000000E+00  0.37001162986E+03  0.37001162986E+03  0.00000000000E+00 0.  1.
          1   -1    0    0  505    0 -0.00000000000E+00 -0.00000000000E+00 -0.23581123981E+04  0.23581123981E+04  0.00000000000E+00 0. -1.
         21    1    1    2  503  501  0.47546493518E+02  0.35865718048E+02  0.16382970427E+03  0.17431922091E+03  0.00000000000E+00 0.  1.
         21    1    1    2  504  503  0.13249967870E+03  0.14325613737E+02  0.17089997953E+03  0.21672145964E+03  0.00000000000E+00 0.  1.
         21    1    1    2  505  502 -0.31145050408E+02  0.62581162654E+02 -0.72961001158E+03  0.73295101138E+03  0.00000000000E+00 0. -1.
          1    1    1    2  501    0 -0.14890112181E+03 -0.11277249444E+03 -0.15932204404E+04  0.16041323360E+04  0.00000000000E+00 0. -1.
<scales pt_clust_3="51.49155" pt_clust_4="51.49155" pt_clust_5="69.90290" pt_clust_6="186.68659"></scales>
<clustering>
<clus scale="   51.492">  3  4 -1 -1</clus>
<clus scale="   69.903">  2  5  1 -1</clus>
<clus scale="  186.687">  2  6  1 -1</clus>
<clus scale="  201.953">  1  3  2 -1</clus>
</clustering>
</event>
<event>
 6    0  0.1230761E+002  0.9468324E+02  0.7546771E-02  0.1291891E+00
         21   -1    0    0  503  502  0.00000000000E+00  0.00000000000E+00  0.33112357743E+03  0.33112357743E+03  0.00000000000E+00 0. -1.
         -4   -1    0    0    0  501 -0.00000000000E+00 -0.00000000000E+00 -0.27265192485E+03  0.27265192485E+03  0.00000000000E+00 0.  1.
         21    1    1    2  503  505  0.11999390035E+02 -0.37630121195E+02  0.16266669296E+03  0.16739314317E+03  0.00000000000E+00 0. -1.
         21    1    1    2  504  501 -0.13752449377E+03  0.25119171782E+01 -0.26230015323E+02  0.14002610406E+03  0.00000000000E+00 0. -1.
         21    1    1    2  505  504  0.59454678895E+02 -0.29416138840E+02  0.85734524155E+02  0.10840007702E+03  0.00000000000E+00 0. -1.
         -4    1    1    2    0  502  0.66070424841E+02  0.64534342857E+02 -0.16369954920E+03  0.18795617802E+03  0.00000000000E+00 0.  1.
<scales pt_clust_3="39.49698" pt_clust_4="94.68324" pt_clust_5="84.02766" pt_clust_6="14000.00000"></scales>
<clustering>
<clus scale="   39.497">  1  3  2 -1</clus>
<clus scale="   84.028">  1  5  2 -1</clus>
<clus scale="   94.683">  1  4  2 -1</clus>
<clus scale="   39.497">  1  3  2 -1</clus>
</clustering>
</event>
<event>
 6    0  0.1230761E+002  0.7847563E+02  0.7546771E-02  0.1333434E+00
          2   -1    0    0  505    0 -0.00000000000E+00  0.00000000000E+00  0.29813605606E+03  0.29813605606E+03  0.00000000000E+00 0.  1.
         21   -1    0    0  501  502  0.00000000000E+00 -0.00000000000E+00 -0.27529437219E+03  0.27529437219E+03  0.00000000000E+00 0.  1.
         21    1    1    2  503  502  0.36654416971E+02 -0.12646042318E+02 -0.23065623842E+02  0.45116423540E+02  0.00000000000E+00 0.  1.
         21    1    1    2  504  503 -0.35828746343E+01  0.47827241361E+02 -0.59326194853E+02  0.76288134087E+02  0.00000000000E+00 0.  1.
         21    1    1    2  505  504 -0.89186089759E+02  0.19700418213E+02 -0.15516701641E+03  0.18005295906E+03  0.00000000000E+00 0.  1.
          2    1    1    2  501    0  0.56114547422E+02 -0.54881617256E+02  0.26040051897E+03  0.27197291157E+03  0.00000000000E+00 0.  1.
<scales pt_clust_3="38.77459" pt_clust_4="44.77950" pt_clust_5="78.47563" pt_clust_6="14000.00000"></scales>
<clustering>
<clus scale="   38.775">  2  3  1 -1</clus>
<clus scale="   44.780">  2  4  1 -1</clus>
<clus scale="   78.476">  2  5  1 -1</clus>
<clus scale="   38.775">  2  3  1 -1</clus>
</clustering>
</event>
<event>
 6    0  0.1230761E+002  0.1476694E+03  0.7546771E-02  0.1203366E+00
         -3   -1    0    0    0  501 -0.00000000000E+00  0.00000000000E+00  0.71682266339E+03  0.71682266339E+03  0.00000000000E+00 0.  1.
         21   -1    0    0  505  502  0.00000000000E+00 -0.00000000000E+00 -0.23488080762E+03  0.23488080762E+03  0.00000000000E+00 0. -1.
         21    1    1    2  503  501 -0.30562613177E+02 -0.48926046859E+02  0.13798987895E+03  0.14956282318E+03  0.00000000000E+00 0.  1.
         21    1    1    2  504  502 -0.10127030719E+03 -0.83811000620E+02 -0.11554453151E+03  0.17501570703E+03  0.00000000000E+00 0. -1.
         21    1    1    2  505  503 -0.45046313813E+02  0.63633986751E+02 -0.43638148125E+02  0.89346195385E+02  0.00000000000E+00 0. -1.
         -3    1    1    2    0  504  0.17687923418E+03  0.69103060728E+02  0.50313465646E+03  0.53777874541E+03  0.00000000000E+00 0.  1.
<scales pt_clust_3="57.68736" pt_clust_4="14000.00000" pt_clust_5="77.10531" pt_clust_6="147.66939"></scales>
<clustering>
<clus scale="   57.687">  1  3  2 -1</clus>
<clus scale="   77.105">  2  5  1 -1</clus>
<clus scale="  147.669">  1  6  2 -1</clus>
<clus scale="   77.105">  2  3  1 -1</clus>
</clustering>
</event>
<event>
 6    0  0.1230761E+002  0.1243431E+03  0.7546771E-02  0.1236100E+00
          2   -1    0    0  503    0 -0.00000000000E+00  0.00000000000E+00  0.17250786622E+03  0.17250786622E+03  0.00000000000E+00 0. -1.
         21   -1    0    0  505  502  0.00000000000E+00 -0.00000000000E+00 -0.73531600561E+03  0.73531600561E+03  0.00000000000E+00 0.  1.
         21    1    1    2  503  504 -0.11632985830E+02  0.44983709146E+02  0.35393844689E+01  0.46598151146E+02  0.00000000000E+00 0.  1.
         21    1    1    2  504  502  0.15724162449E+03  0.13365841049E+02 -0.62830412807E+03  0.64781915033E+03  0.00000000000E+00 0.  1.
         21    1    1    2  505  501 -0.35971418630E+02  0.21701536428E+01 -0.38594346179E+02  0.52803182499E+02  0.00000000000E+00 0. -1.
          2    1    1    2  501    0 -0.10963722003E+03 -0.60519703838E+02  0.10055095039E+03  0.16060338786E+03  0.00000000000E+00 0. -1.
<scales pt_clust_3="46.82253" pt_clust_4="124.34308" pt_clust_5="36.03682" pt_clust_6="14000.00000"></scales>
<clustering>
<clus scale="   36.037">  2  5  1 -1</clus>
<clus scale="   46.823">  1  3  2 -1</clus>
<clus scale="  124.343">  2  4  1 -1</clus>
<clus scale="   36.037">  2  3  1 -1</clus>
</clustering>
</event>
<event>
 6    0  0.1230761E+002  0.1668644E+03  0.7546771E-02  0.1181158E+00
          2   -1    0    0  504    0 -0.00000000000E+00  0.00000000000E+00  0.57833476985E+03  0.57833476985E+03  0.00000000000E+00 0. -1.
         21   -1    0    0  505  502  0.00000000000E+00 -0.00000000000E+00 -0.73576361146E+02  0.73576361146E+02  0.00000000000E+00 0. -1.
         21    1    1    2  503  501 -0.10051367961E+02  0.40667960124E+02  0.80634199885E+02  0.90866865081E+02  0.00000000000E+00 0.  1.
         21    1    1    2  504  502  0.23358164518E+01 -0.17755455340E+03  0.17935556691E+03  0.25238758855E+03  0.00000000000E+00 0. -1.
         21    1    1    2  505  503 -0.57536643906E+02  0.40859353116E+02  0.74943027247E+02  0.10293886274E+03  0.00000000000E+00 0.  1.
          2    1    1    2  501    0  0.65252195414E+02  0.96027240162E+02  0.16982561466E+03  0.20571781462E+03  0.00000000000E+00 0. -1.
<scales pt_clust_3="35.53537" pt_clust_4="156.02593" pt_clust_5="70.56878" pt_clust_6="35.53537"></scales>
<clustering>
<clus scale="   35.535">  3  6 -1 -1</clus>
<clus scale="   70.569">  2  5  1 -1</clus>
<clus scale="  156.026">  2  4  1 -1</clus>
<clus scale="   70.569">  2  3  1 -1</clus>
</clustering>
</event>
<event>
 6    0  0.1230761E+002  0.8251604E+02  0.7546771E-02  0.1322059E+00
          2   -1    0    0  503    0 -0.00000000000E+00  0.00000000000E+00  0.10284354687E+03  0.10284354687E+03  0.00000000000E+00 0. -1.
         21   -1    0    0  501  502  0.00000000000E+00 -0.00000000000E+00 -0.99533184876E+03  0.99533184876E+03  0.00000000000E+00 0. -1.
         21    1    1    2  503  505 -0.43187444859E+02  0.42595854730E+02 -0.48926933246E+02  0.77932066766E+02  0.00000000000E+00 0. -1.
         21    1    1    2  504  502  0.18360061258E+02 -0.58182940268E+02 -0.29580098661E+03  0.30202743264E+03  0.00000000000E+00 0.  1.
         21    1    1    2  505  504 -0.26225669182E+02  0.12746848791E+03 -0.57726053745E+03  0.59174802850E+03  0.00000000000E+00 0. -1.
          2    1    1    2  501    0  0.51053052783E+02 -0.11188140237E+03  0.29500155424E+02  0.12646786772E+03  0.00000000000E+00 0. -1.
<scales pt_clust_3="60.65940" pt_clust_4="59.12994" pt_clust_5="14000.00000" pt_clust_6="82.51604"></scales>
<clustering>
<clus scale="   60.659">  1  3  2 -1</clus>
<clus scale="   59.130">  2  4  1 -1</clus>
<clus scale="   82.516">  1  6  2 -1</clus>
<clus scale="   59.130">  2  3  1 -1</clus>
</clustering>
</event>
<event>
 6    0  0.1230761E+002  0.2428882E+03  0.7546771E-02  0.1117884E+00
          1   -1    0    0  504    0 -0.00000000000E+00  0.00000000000E+00  0.29850972332E+04  0.29850972332E+04  0.00000000000E+00 0. -1.
         21   -1    0    0  505  502  0.00000000000E+00 -0.00000000000E+00 -0.58000878291E+02  0.58000878291E+02  0.00000000000E+00 0.  1.
         21    1    1    2  503  501  0.35073242375E+02  0.16002760359E+02  0.16740583592E+02  0.42029368408E+02  0.00000000000E+00 0.  1.
         21    1    1    2  504  502  0.20480430923E+02  0.60436713838E+02  0.15760939690E+03  0.17003754416E+03  0.00000000000E+00 0. -1.
         21    1    1    2  505  503  0.31547675563E+02  0.14524784178E+03  0.12991925964E+03  0.19741125956E+03  0.00000000000E+00 0.  1.
          1    1    1    2  501    0 -0.87101348860E+02 -0.22168731598E+03  0.26228271148E+04  0.26336199394E+04  0.00000000000E+00 0. -1.
<scales pt_clust_3="37.36433" pt_clust_4="63.81257" pt_clust_5="37.36433" pt_clust_6="231.54283"></scales>
<clustering>
<clus scale="   37.364">  3  5 -1 -1</clus>
<clus scale="   63.813">  2  4  1 -1</clus>
<clus scale="  231.543">  1  6  2 -1</clus>
<clus scale="   63.813">  2  3  1 -1</clus>
</clustering>
</event>
<event>
 6    0  0.1230761E+002  0.9874607E+02  0.7546771E-02  0.1282955E+00
         21   -1    0    0  503  502  0.00000000000E+00  0.00000000000E+00  0.17959353060E+03  0.17959353060E+03  0.00000000000E+00 0.  1.
          2   -1    0    0  505    0 -0.00000000000E+00 -0.00000000000E+00 -0.12251896816E+04  0.12251896816E+04  0.00000000000E+00 0.  1.
         21    1    1    2  503  501 -0.27149573071E+02 -0.20444201555E+02  0.69946205460E+02  0.77765907398E+02  0.00000000000E+00 0.  1.
         21    1    1    2  504  502  0.18846051834E+02 -0.31521413569E+02  0.93328007982E+02  0.10029401905E+03  0.00000000000E+00 0.  1.
         21    1    1    2  505  504 -0.12300181542E+02 -0.76847931523E+02 -0.42316891082E+03  0.43026599462E+03  0.00000000000E+00 0.  1.
          2    1    1    2  501    0  0.20603702780E+02  0.12881354665E+03 -0.78570145358E+03  0.79645729109E+03  0.00000000000E+00 0.  1.
<scales pt_clust_3="33.98624" pt_clust_4="50.59808" pt_clust_5="98.74607" pt_clust_6="14000.00000"></scales>
<clustering>
<clus scale="   33.986">  1  3  2 -1</clus>
<clus scale="   50.598">  1  4  2 -1</clus>
<clus scale="   98.746">  2  5  1 -1</clus>
<clus scale="   33.986">  1  3  2 -1</clus>
</clustering>
</event>
<event>
 6    0  0.1230761E+002  0.1375276E+03  0.7546771E-02  0.1216695E+00
         21   -1    0    0  503  502  0.00000000000E+00  0.00000000000E+00  0.98615028262E+02  0.98615028262E+02  0.00000000000E+00 0.  1.
          2   -1    0    0  505    0 -0.00000000000E+00 -0.00000000000E+00 -0.34190427371E+04  0.34190427371E+04  0.00000000000E+00 0. -1.
         21    1    1    2  503  501 -0.49366889958E+01 -0.15849338677E+03 -0.78806473658E+01  0.15876595715E+03  0.00000000000E+00 0.  1.
         21    1    1    2  504  502  0.92432854749E+02  0.81175581814E+02 -0.15202730028E+03  0.19556484282E+03  0.00000000000E+00 0.  1.
         21    1    1    2  505  504 -0.91489108516E+01  0.28782357622E+02 -0.35130635696E+03  0.35260215984E+03  0.00000000000E+00 0.  1.
          2    1    1    2  501    0 -0.78347254902E+02  0.48535447331E+02 -0.28092134042E+04  0.28107248056E+04  0.00000000000E+00 0. -1.
<scales pt_clust_3="14000.00000" pt_clust_4="137.52761" pt_clust_5="30.20144" pt_clust_6="114.59800"></scales>
<clustering>
<clus scale="   30.201">  2  5  1 -1</clus>
<clus scale="  114.598">  2  6  1 -1</clus>
<clus scale="  137.528">  2  4  1 -1</clus>
<clus scale="  137.528">  1  3  2 -1</clus>
</clustering>
</event>
<event>
 6    0  0.1230761E+002  0.1674468E+03  0.7546771E-02  0.1180537E+00
          2   -1    0    0  503    0 -0.00000000000E+00  0.00000000000E+00  0.28849408430E+04  0.28849408430E+04  0.00000000000E+00 0.  1.
         21   -1    0    0  501  502  0.00000000000E+00 -0.00000000000E+00 -0.19111105871E+02  0.19111105871E+02  0.00000000000E+00 0.  1.
         21    1    1    2  503  505  0.29150301520E+02 -0.27385264913E+02  0.51028000637E+03  0.51184507198E+03  0.00000000000E+00 0.  1.
         21    1    1    2  504  502  0.15084308504E+02 -0.53209650817E+02  0.24884488930E+03  0.25491681434E+03  0.00000000000E+00 0.  1.
         21    1    1    2  505  504  0.20908847045E+02 -0.94862642708E+02  0.21006036299E+03  0.23143348281E+03  0.00000000000E+00 0.  1.
          2    1    1    2  501    0 -0.65143457070E+02  0.17545755844E+03  0.18966444785E+04  0.19058565798E+04  0.00000000000E+00 0.  1.
<scales pt_clust_3="39.99616" pt_clust_4="39.36475" pt_clust_5="39.36475" pt_clust_6="159.11244"></scales>
<clustering>
<clus scale="   39.365">  4  5 -1 -1</clus>
<clus scale="   39.996">  1  3  2 -1</clus>
<clus scale="  159.112">  1  6  2 -1</clus>
<clus scale="  167.447">  2  3  1 -1</clus>
</clustering>
</event>
<event>
 6    0  0.1230761E+002  0.1092217E+03  0.7546771E-02  0.1262018E+00
         21   -1    0    0  503  502  0.00000000000E+00  0.00000000000E+00  0.11290666139E+04  0.11290666139E+04  0.00000000000E+00 0. -1.
          1   -1    0    0  505    0 -0.00000000000E+00 -0.00000000000E+00 -0.84542462199E+02  0.84542462199E+02  0.00000000000E+00 0. -1.
         21    1    1    2  503  501 -0.26243314790E+02  0.38793651541E+02  0.70207424620E+03  0.70363478180E+03  0.00000000000E+00 0. -1.
         21    1    1    2  504  502 -0.35011839088E+02  0.29164705440E+02  0.23926146223E+03  0.24356201721E+03  0.00000000000E+00 0. -1.
         21    1    1    2  505  504 -0.49857756390E+02 -0.10666660521E+03  0.89619275586E+02  0.14797018313E+03  0.00000000000E+00 0. -1.
          1    1    1    2  501    0  0.11111291027E+03  0.38708248228E+02  0.13569167675E+02  0.11844209396E+03  0.00000000000E+00 0. -1.
<scales pt_clust_3="82.11141" pt_clust_4="45.56763" pt_clust_5="14000.00000" pt_clust_6="109.22166"></scales>
<clustering>
<clus scale="   45.568">  1  4  2 -1</clus>
<clus scale="   82.111">  1  3  2 -1</clus>
<clus scale="  109.222">  2  6  1 -1</clus>
<clus scale="   45.568">  1  3  2 -1</clus>
</clustering>
</event>
<event>
 6    0  0.1230761E+002  0.9347826E+02  0.7546771E-02  0.1294641E+00
          1   -1    0    0  505    0 -0.00000000000E+00  0.00000000000E+00  0.56827899565E+03  0.56827899565E+03  0.00000000000E+00 0.  1.
         21   -1    0    0  503  502  0.00000000000E+00 -0.00000000000E+00 -0.94086485711E+03  0.94086485711E+03  0.00000000000E+00 0.  1.
         21    1    1    2  503  501 -0.15216278594E+03  0.23731698438E+02 -0.54185428210E+03  0.56331409530E+03  0.00000000000E+00 0.  1.
         21    1    1    2  504  502  0.66459499573E+01  0.30736349401E+02 -0.34031818977E+03  0.34176799457E+03  0.00000000000E+00 0.  1.
         21    1    1    2  505  504  0.52623641861E+02 -0.49353964158E+02 -0.12957425302E+02  0.73300452464E+02  0.00000000000E+00 0.  1.
          1    1    1    2  501    0  0.92893194120E+02 -0.51140836808E+01  0.52254403572E+03  0.53076131041E+03  0.00000000000E+00 0.  1.
<scales pt_clust_3="14000.00000" pt_clust_4="31.44665" pt_clust_5="71.00930" pt_clust_6="93.47826"></scales>
<clustering>
<clus scale="   31.447">  2  4  1 -1</clus>
<clus scale="   71.009">  2  5  1 -1</clus>
<clus scale="   93.478">  1  6  2 -1</clus>
<clus scale="   31.447">  2  3  1 -1</clus>
</clustering>
</event>
<event>
 6    0  0.1230761E+002  0.1263107E+03  0.7546771E-02  0.1233035E+00
          2   -1    0    0  503    0 -0.00000000000E+00  0.00000000000E+00  0.33768711215E+04  0.33768711215E+04  0.00000000000E+00 0. -1.
         21   -1    0    0  505  502  0.00000000000E+00 -0.00000000000E+00 -0.38268092989E+03  0.38268092989E+03  0.00000000000E+00 0. -1.
         21    1    1    2  503  502  0.50069327319E+02 -0.83885724770E+00  0.16294854766E+03  0.17046955859E+03  0.00000000000E+00 0.  1.
         21    1    1    2  504  501 -0.45375404113E+02 -0.91126577817E+02 -0.30852932610E+03  0.32488971290E+03  0.00000000000E+00 0. -1.
         21    1    1    2  505  504  0.17464183611E+02 -0.32568187640E+02 -0.55358736082E+02  0.66560305107E+02  0.00000000000E+00 0. -1.
          2    1    1    2  501    0 -0.22158106817E+02  0.12453362270E+03  0.31951297061E+04  0.31976324747E+04  0.00000000000E+00 0. -1.
<scales pt_clust_3="50.28825" pt_clust_4="126.31072" pt_clust_5="36.95517" pt_clust_6="14000.00000"></scales>
<clustering>
<clus scale="   36.955">  2  5  1 -1</clus>
<clus scale="   50.288">  1  3  2 -1</clus>
<clus scale="  126.311">  2  4  1 -1</clus>
<clus scale="   36.955">  2  3  1 -1</clus>
</clustering>
</event>
<event>
 6    0  0.1230761E+002  0.1743173E+03  0.7546771E-02  0.1173419E+00
         21   -1    0    0  503  502  0.00000000000E+00  0.00000000000E+00  0.12422191541E+04  0.12422191541E+04  0.00000000000E+00 0. -1.
         -3   -1    0    0    0  501 -0.00000000000E+00 -0.00000000000E+00 -0.60030630853E+02  0.60030630853E+02  0.00000000000E+00 0.  1.
         21    1    1    2  503  501 -0.30083604192E+02  0.17779788353E+01  0.36137900936E+02  0.47054567621E+02  0.00000000000E+00 0. -1.
         21    1    1    2  504  505  0.10323420434E+03  0.11431145958E+03  0.42861631193E+03  0.45545181259E+03  0.00000000000E+00 0. -1.
         21    1    1    2  505  502  0.14253777986E+02  0.39002085445E+02  0.56164490107E+03  0.56317788287E+03  0.00000000000E+00 0. -1.
         -3    1    1    2    0  504 -0.87404378137E+02 -0.15509152386E+03  0.15578940934E+03  0.23656552190E+03  0.00000000000E+00 0.  1.
<scales pt_clust_3="30.13610" pt_clust_4="14000.00000" pt_clust_5="41.40549" pt_clust_6="174.31730"></scales>
<clustering>
<clus scale="   30.136">  2  3  1 -1</clus>
<clus scale="   41.405">  1  5  2 -1</clus>
<clus scale="  174.317">  2  6  1 -1</clus>
<clus scale="   41.405">  1  3  2 -1</clus>
</clustering>
</event>
<event>
 6    0  0.1230761E+002  0.8391546E+02  0.7546771E-02  0.1318293E+00
         21   -1    0    0  501  502  0.00000000000E+00  0.00000000000E+00  0.27696650667E+03  0.27696650667E+03  0.00000000000E+00 0. -1.
          1   -1    0    0  504    0 -0.00000000000E+00 -0.00000000000E+00 -0.36486664687E+03  0.36486664687E+03  0.00000000000E+00 0. -1.
         21    1    1    2  503  502  0.80919682147E+02 -0.49874798510E+02  0.19595213026E+03  0.21779055958E+03  0.00000000000E+00 0. -1.
         21    1    1    2  504  505  0.26851175803E+02  0.26134782624E+02 -0.62624888994E+02  0.72978690220E+02  0.00000000000E+00 0. -1.
         21    1    1    2  505  503 -0.73652348328E+02 -0.11617631100E+02  0.40439847910E+02  0.84823458227E+02  0.00000000000E+00 0. -1.
          1    1    1    2  501    0 -0.34118509622E+02  0.35357646986E+02 -0.26166722938E+03  0.26624044552E+03  0.00000000000E+00 0. -1.
<scales pt_clust_3="83.91546" pt_clust_4="37.47015" pt_clust_5="14000.00000" pt_clust_6="59.47118"></scales>
<clustering>
<clus scale="   37.470">  2  4  1 -1</clus>
<clus scale="   59.471">  2  6  1 -1</clus>
<clus scale="   83.915">  1  3  2 -1</clus>
<clus scale="   83.915">  1  3  2 -1</clus>
</clustering>
</event>
<event>
 6    0  0.1230761E+002  0.1274082E+03  0.7546771E-02  0.1231353E+00
          2   -1    0    0  504    0 -0.00000000000E+00  0.00000000000E+00  0.36736029311E+04  0.36736029311E+04  0.00000000000E+00 0. -1.
         21   -1    0    0  505  502  0.00000000000E+00 -0.00000000000E+00 -0.33347243700E+02  0.33347243700E+02  0.00000000000E+00 0. -1.
         21    1    1    2  503  502  0.49618294596E+02  0.10491486016E+03  0.19450881822E+03  0.22650117749E+03  0.00000000000E+00 0. -1.
         21    1    1    2  504  503 -0.39594888224E+01  0.38915328321E+02  0.23308704469E+04  0.23311986446E+04  0.00000000000E+00 0. -1.
         21    1    1    2  505  501  0.41197033634E+02 -0.18083284980E+02  0.30963189114E+02  0.54616113520E+02  0.00000000000E+00 0. -1.
          2    1    1    2  501    0 -0.86855839407E+02 -0.12574690350E+03  0.10839132332E+04  0.10946342392E+04  0.00000000000E+00 0. -1.
<scales pt_clust_3="127.40819" pt_clust_4="39.11624" pt_clust_5="44.39032" pt_clust_6="14000.00000"></scales>
<clustering>
<clus scale="   39.116">  1  4  2 -1</clus>
<clus scale="   44.390">  2  5  1 -1</clus>
<clus scale="  127.408">  2  3  1 -1</clus>
<clus scale="   44.390">  2  3  1 -1</clus>
</clustering>
</event>
<event>
 6    0  0.1230761E+002  0.1088345E+03  0.7546771E-02  0.1262744E+00
         21   -1    0    0  505  502  0.00000000000E+00  0.00000000000E+00  0.35212121618E+03  0.35212121618E+03  0.00000000000E+00 0.  1.
          2   -1    0    0  504    0 -0.00000000000E+00 -0.00000000000E+00 -0.15211452300E+04  0.15211452300E+04  0.00000000000E+00 0.  1.
         21    1    1    2  503  501  0.32767601944E+02  0.61122014838E+02 -0.78206459487E+02  0.10452687090E+03  0.00000000000E+00 0.  1.
         21    1    1    2  504  502  0.31592709309E+01  0.57378015318E+02  0.18515604979E+03  0.19386846162E+03  0.00000000000E+00 0. -1.
         21    1    1    2  505  503 -0.55776774498E+02 -0.10891793737E+02  0.14186069601E+03  0.15282060338E+03  0.00000000000E+00 0.  1.
          2    1    1    2  501    0  0.19849901623E+02 -0.10760823642E+03 -0.14178343001E+04  0.14220505103E+04  0.00000000000E+00 0.  1.
<scales pt_clust_3="67.10051" pt_clust_4="14000.00000" pt_clust_5="56.83027" pt_clust_6="108.83447"></scales>
<clustering>
<clus scale="   56.830">  1  5  2 -1</clus>
<clus scale="   67.101">  1  3  2 -1</clus>
<clus scale="  108.834">  2  6  1 -1</clus>
<clus scale="   56.830">  1  3  2 -1</clus>
</clustering>
</event>
<event>
 6    0  0.1230761E+002  0.2825535E+03  0.7546771E-02  0.1094302E+00
          1   -1    0    0  502    0 -0.00000000000E+00  0.00000000000E+00  0.12330458445E+04  0.12330458445E+04  0.00000000000E+00 0.  1.
         21   -1    0    0  504  502  0.00000000000E+00 -0.00000000000E+00 -0.17548983940E+03  0.17548983940E+03  0.00000000000E+00 0.  1.
         21    1    1    2  503  501  0.11041378703E+03  0.37860874445E+02  0.29947188416E+03  0.32141571148E+03  0.00000000000E+00 0. -1.
         21    1    1    2  504  505 -0.11207419176E+03 -0.13202364356E+02 -0.25029528075E+02  0.11559154017E+03  0.00000000000E+00 0.  1.
         21    1    1    2  505  503 -0.13698845416E+03 -0.79951809556E+02 -0.15237021594E+02  0.15934332509E+03  0.00000000000E+00 0.  1.
          1    1    1    2  501    0  0.13864885889E+03  0.55293299467E+02  0.79835067058E+03  0.81218510714E+03  0.00000000000E+00 0.  1.
<scales pt_clust_3="84.47958" pt_clust_4="48.14457" pt_clust_5="271.97019" pt_clust_6="84.47958"></scales>
<clustering>
<clus scale="   48.145">  4  5 -1 -1</clus>
<clus scale="   84.480">  3  6 -1 -1</clus>
<clus scale="  271.970">  2  4  1 -1</clus>
<clus scale="  271.970">  2  3  1 -1</clus>
</clustering>
</event>
<event>
 6    0  0.1230761E+002  0.1984093E+03  0.7546771E-02  0.1151088E+00
          2   -1    0    0  503    0 -0.00000000000E+00  0.00000000000E+00  0.28531104121E+03  0.28531104121E+03  0.00000000000E+00 0.  1.
         21   -1    0    0  501  502  0.00000000000E+00 -0.00000000000E+00 -0.54091511080E+03  0.54091511080E+03  0.00000000000E+00 0.  1.
         21    1    1    2  503  504  0.19847993151E+02  0.48427813998E+02  0.17465292061E+03  0.18232618758E+03  0.00000000000E+00 0.  1.
         21    1    1    2  504  505  0.67278210506E+02 -0.79413491207E+02 -0.57550813579E+02  0.11893257055E+03  0.00000000000E+00 0.  1.
         21    1    1    2  505  502  0.48039993075E+02 -0.93004903629E+02  0.52964524376E+01  0.10481319307E+03  0.00000000000E+00 0.  1.
          2    1    1    2  501    0 -0.13516619673E+03  0.12399058084E+03 -0.37800262906E+03  0.42015420080E+03  0.00000000000E+00 0.  1.
<scales pt_clust_3="52.33733" pt_clust_4="62.71408" pt_clust_5="62.71408" pt_clust_6="187.24576"></scales>
<clustering>
<clus scale="   52.337">  1  3  2 -1</clus>
<clus scale="   62.714">  4  5 -1 -1</clus>
<clus scale="  187.246">  2  6  1 -1</clus>
<clus scale="  187.246">  2  3  1 -1</clus>
</clustering>
</event>
<event>
 6    0  0.1230761E+002  0.1018089E+03  0.7546771E-02  0.1276538E+00
         21   -1    0    0  501  502  0.00000000000E+00  0.00000000000E+00  0.89549944464E+03  0.89549944464E+03  0.00000000000E+00 0. -1.
          2   -1    0    0  503    0 -0.00000000000E+00 -0.00000000000E+00 -0.27014441271E+03  0.27014441271E+03  0.00000000000E+00 0. -1.
         21    1    1    2  503  505  0.43596135475E+02  0.53948209198E+01 -0.34453868435E+02  0.55828273941E+02  0.00000000000E+00 0. -1.
         21    1    1    2  504  502 -0.10071244723E+03  0.21427739573E+02  0.83938103633E+03  0.84567290911E+03  0.00000000000E+00 0. -1.
         21    1    1    2  505  504  0.42133235657E+02  0.28739318750E+02  0.21240052657E+02  0.55247604709E+02  0.00000000000E+00 0. -1.
          2    1    1    2  501    0  0.14983076093E+02 -0.55561879243E+02 -0.20081218863E+03  0.20889506958E+03  0.00000000000E+00 0. -1.
<scales pt_clust_3="43.92866" pt_clust_4="101.80886" pt_clust_5="53.97442" pt_clust_6="14000.00000"></scales>
<clustering>
<clus scale="   43.929">  2  3  1 -1</clus>
<clus scale="   53.974">  2  5  1 -1</clus>
<clus scale="  101.809">  1  4  2 -1</clus>
<clus scale="  101.809">  1  3  2 -1</clus>
</clustering>
</event>
<event>
 6    0  0.1230761E+002  0.1344332E+03  0.7546771E-02  0.1221022E+00
          2   -1    0    0  504    0 -0.00000000000E+00  0.00000000000E+00  0.63087558389E+03  0.63087558389E+03  0.00000000000E+00 0. -1.
         21   -1    0    0  503  502  0.00000000000E+00 -0.00000000000E+00 -0.22239539320E+03  0.22239539320E+03  0.00000000000E+00 0. -1.
         21    1    1    2  503  501  0.96784439277E+02 -0.15380343083E+03  0.21444642939E+02  0.18298250117E+03  0.00000000000E+00 0. -1.
         21    1    1    2  504  505 -0.14533512969E+02  0.27122563526E+02  0.98397805834E+02  0.10309696719E+03  0.00000000000E+00 0. -1.
         21    1    1    2  505  502 -0.51929124836E+02  0.11064159566E+03 -0.11158738174E+03  0.16549906483E+03  0.00000000000E+00 0. -1.
          2    1    1    2  501    0 -0.30321801473E+02  0.16039271646E+02  0.40022512365E+03  0.40169244390E+03  0.00000000000E+00 0. -1.
<scales pt_clust_3="134.43322" pt_clust_4="30.77103" pt_clust_5="14000.00000" pt_clust_6="55.16335"></scales>
<clustering>
<clus scale="   30.771">  1  4  2 -1</clus>
<clus scale="   55.163">  1  6  2 -1</clus>
<clus scale="  134.433">  1  3  2 -1</clus>
<clus scale="  134.433">  2  3  1 -1</clus>
</clustering>
</event>
<event>
 6    0  0.1230761E+002  0.1196356E+03  0.7546771E-02  0.1243699E+00
          2   -1    0    0  504    0 -0.00000000000E+00  0.00000000000E+00  0.21535773940E+04  0.21535773940E+04  0.00000000000E+00 0.  1.
         21   -1    0    0  503  502  0.00000000000E+00 -0.00000000000E+00 -0.10388826692E+03  0.10388826692E+03  0.00000000000E+00 0. -1.
         21    1    1    2  503  501  0.13002458725E+02  0.76863843555E+02 -0.44925849626E+02  0.89974698352E+02  0.00000000000E+00 0. -1.
         21    1    1    2  504  505  0.25068212066E+02 -0.22538589317E+02  0.19768061161E+03  0.20053435484E+03  0.00000000000E+00 0.  1.
         21    1    1    2  505  502  0.62160863169E+02  0.19647810104E+02 -0.74154080084E+00  0.65196313044E+02  0.00000000000E+00 0. -1.
          2    1    1    2  501    0 -0.10023153396E+03 -0.73973064342E+02  0.18976759059E+04  0.19017602947E+04  0.00000000000E+00 0.  1.
<scales pt_clust_3="119.63557" pt_clust_4="33.71058" pt_clust_5="65.47597" pt_clust_6="14000.00000"></scales>
<clustering>
<clus scale="   33.711">  1  4  2 -1</clus>
<clus scale="   65.476">  2  5  1 -1</clus>
<clus scale="  119.636">  2  3  1 -1</clus>
<clus scale="   65.476">  2  3  1 -1</clus>
</clustering>
</event>
<event>
 6    0  0.1230761E+002  0.1668689E+03  0.7546771E-02  0.1181153E+00
         21   -1    0    0  503  502  0.00000000000E+00  0.00000000000E+00  0.15321135268E+03  0.15321135268E+03  0.00000000000E+00 0.  1.
          2   -1    0    0  505    0 -0.00000000000E+00 -0.00000000000E+00 -0.81853335359E+03  0.81853335359E+03  0.00000000000E+00 0.  1.
         21    1    1    2  503  501 -0.47174477524E+02 -0.26063202460E+01 -0.85076103123E+01  0.48006287797E+02  0.00000000000E+00 0.  1.
         21    1    1    2  504  502 -0.52093575193E+02 -0.13614804569E+03  0.65435206075E+02  0.15978672384E+03  0.00000000000E+00 0.  1.
         21    1    1    2  505  504  0.40153427302E+02 -0.29949141717E+02 -0.31827501243E+03  0.32219284962E+03  0.00000000000E+00 0.  1.
          2    1    1    2  501    0  0.59114625415E+02  0.16870350765E+03 -0.40397458425E+03  0.44175884502E+03  0.00000000000E+00 0.  1.
<scales pt_clust_3="47.24642" pt_clust_4="14000.00000" pt_clust_5="49.56224" pt_clust_6="166.86892"></scales>
<clustering>
<clus scale="   47.246">  1  3  2 -1</clus>
<clus scale="   49.562">  2  5  1 -1</clus>
<clus scale="  166.869">  2  6  1 -1</clus>
<clus scale="   47.246">  1  3  2 -1</clus>
</clustering>
</event>
<event>
 6    0  0.1230761E+002  0.1175197E+03  0.7546771E-02  0.1247246E+00
         21   -1    0    0  501  502  0.00000000000E+00  0.00000000000E+00  0.14919796395E+03  0.14919796395E+03  0.00000000000E+00 0. -1.
          2   -1    0    0  503    0 -0.00000000000E+00 -0.00000000000E+00 -0.72373303967E+03  0.72373303967E+03  0.00000000000E+00 0.  1.
         21    1    1    2  503  505  0.34727886993E+02 -0.20161184165E+01 -0.32879751436E+03  0.33063256995E+03  0.00000000000E+00 0.  1.
         21    1    1    2  504  502 -0.56832754234E+02  0.59901878121E+01  0.75776950267E+02  0.94910434072E+02  0.00000000000E+00 0. -1.
         21    1    1    2  505  504 -0.26888916565E+02 -0.10055113761E+03  0.41731994183E+01  0.10416794470E+03  0.00000000000E+00 0. -1.
          2    1    1    2  501    0  0.48993783807E+02  0.96577068215E+02 -0.32568771105E+03  0.34322005490E+03  0.00000000000E+00 0.  1.
<scales pt_clust_3="34.78636" pt_clust_4="56.30390" pt_clust_5="117.51967" pt_clust_6="14000.00000"></scales>
<clustering>
<clus scale="   34.786">  2  3  1 -1</clus>
<clus scale="   56.304">  1  4  2 -1</clus>
<clus scale="  117.520">  1  5  2 -1</clus>
<clus scale="   56.304">  1  3  2 -1</clus>
</clustering>
</event>
<event>
 6    0  0.1230761E+002  0.2611009E+03  0.7546771E-02  0.1106484E+00
         21   -1    0    0  504  502  0.00000000000E+00  0.00000000000E+00  0.22992094792E+04  0.22992094792E+04  0.00000000000E+00 0. -1.
          3   -1    0    0  503    0 -0.00000000000E+00 -0.00000000000E+00 -0.35576213514E+03  0.35576213514E+03  0.00000000000E+00 0.  1.
         21    1    1    2  503  505 -0.13775386115E+03  0.67507573619E+02  0.17445225222E+04  0.17512544730E+04  0.00000000000E+00 0. -1.
         21    1    1    2  504  501  0.58625917279E+02 -0.30538871677E+02 -0.44947591621E+02  0.79936892938E+02  0.00000000000E+00 0. -1.
         21    1    1    2  505  502 -0.61486956273E+02  0.95409948491E+02  0.49450989536E+03  0.50736943214E+03  0.00000000000E+00 0.  1.
          3    1    1    2  501    0  0.14061490014E+03 -0.13237865043E+03 -0.25063748195E+03  0.31641081617E+03  0.00000000000E+00 0.  1.
<scales pt_clust_3="254.34566" pt_clust_4="34.52269" pt_clust_5="113.50641" pt_clust_6="34.52269"></scales>
<clustering>
<clus scale="   34.523">  4  6 -1 -1</clus>
<clus scale="  113.506">  1  5  2 -1</clus>
<clus scale="  254.346">  1  3  2 -1</clus>
<clus scale="  113.506">  1  3  2 -1</clus>
</clustering>
</event>
<event>
 6    0  0.1230761E+002  0.6683645E+02  0.7546771E-02  0.1371194E+00
         21   -1    0    0  504  502  0.00000000000E+00  0.00000000000E+00  0.11535033856E+03  0.11535033856E+03  0.00000000000E+00 0.  1.
          2   -1    0    0  503    0 -0.00000000000E+00 -0.00000000000E+00 -0.97192081878E+03  0.97192081878E+03  0.00000000000E+00 0.  1.
         21    1    1    2  503  505  0.33698795758E+02  0.14617764783E+02 -0.82544112731E+02  0.90348317247E+02  0.00000000000E+00 0.  1.
         21    1    1    2  504  501  0.14465961882E+02 -0.41751500822E+02 -0.44920042752E+01  0.44414299235E+02  0.00000000000E+00 0. -1.
         21    1    1    2  505  502  0.39979934045E+02  0.76198128266E+02  0.67532028920E+02  0.10938521293E+03  0.00000000000E+00 0.  1.
          2    1    1    2  501    0 -0.88144691685E+02 -0.49064392227E+02 -0.83706639214E+03  0.84312332793E+03  0.00000000000E+00 0.  1.
<scales pt_clust_3="36.73265" pt_clust_4="44.12139" pt_clust_5="14000.00000" pt_clust_6="66.83645"></scales>
<clustering>
<clus scale="   36.733">  2  3  1 -1</clus>
<clus scale="   44.121">  1  4  2 -1</clus>
<clus scale="   66.836">  2  6  1 -1</clus>
<clus scale="   44.121">  1  3  2 -1</clus>
</clustering>
</event>
<event>
 6    0  0.1230761E+002  0.9052277E+02  0.7546771E-02  0.1301591E+00
         21   -1    0    0  501  502  0.00000000000E+00  0.00000000000E+00  0.18395480359E+03  0.18395480359E+03  0.00000000000E+00 0.  1.
          1   -1    0    0  504    0 -0.00000000000E+00 -0.00000000000E+00 -0.20828809093E+04  0.20828809093E+04  0.00000000000E+00 0. -1.
         21    1    1    2  503  505  0.65309704406E+02 -0.53993574768E+02 -0.42941395705E+02  0.94998037195E+02  0.00000000000E+00 0. -1.
         21    1    1    2  504  503  0.40170380074E+02  0.18898396451E+02 -0.24122398861E+03  0.24527499160E+03  0.00000000000E+00 0. -1.
         21    1    1    2  505  502 -0.14115927959E+02  0.94724491689E+02  0.13933646631E+03  0.16907583976E+03  0.00000000000E+00 0.  1.
          1    1    1    2  501    0 -0.91364156521E+02 -0.59629313371E+02 -0.17540971877E+04  0.17574868444E+04  0.00000000000E+00 0. -1.
<scales pt_clust_3="14000.00000" pt_clust_4="44.39379" pt_clust_5="90.52277" pt_clust_6="67.39071"></scales>
<clustering>
<clus scale="   44.394">  2  4  1 -1</clus>
<clus scale="   67.391">  2  6  1 -1</clus>
<clus scale="   90.523">  1  5  2 -1</clus>
<clus scale="   90.523">  1  3  2 -1</clus>
</clustering>
</event>
<event>
 6    0  0.1230761E+002  0.1248055E+03  0.7546771E-02  0.1235374E+00
         21   -1    0    0  504  502  0.00000000000E+00  0.00000000000E+00  0.20178640069E+04  0.20178640069E+04  0.00000000000E+00 0.  1.
         -1   -1    0    0    0  501 -0.00000000000E+00 -0.00000000000E+00 -0.26149854277E+03  0.26149854277E+03  0.00000000000E+00 0. -1.
         21    1    1    2  503  501 -0.62268242632E+02  0.23047063385E+02 -0.11903695890E+03  0.13630223313E+03  0.00000000000E+00 0.  1.
         21    1    1    2  504  503  0.22262916220E+02  0.39722984103E+02  0.36106128225E+03  0.36392142345E+03  0.00000000000E+00 0.  1.
         21    1    1    2  505  502  0.79106589610E+02  0.36221020069E+02  0.16239955705E+04  0.16263245149E+04  0.00000000000E+00 0.  1.
         -1    1    1    2    0  505 -0.39101263197E+02 -0.98991067557E+02 -0.10965442968E+03  0.15281437821E+03  0.00000000000E+00 0. -1.
<scales pt_clust_3="66.35998" pt_clust_4="45.53628" pt_clust_5="14000.00000" pt_clust_6="124.80549"></scales>
<clustering>
<clus scale="   45.536">  1  4  2 -1</clus>
<clus scale="   66.360">  2  3  1 -1</clus>
<clus scale="  124.805">  2  6  1 -1</clus>
<clus scale="   45.536">  1  3  2 -1</clus>
</clustering>
</event>
<event>
 6    0  0.1230761E+002  0.1976795E+03  0.7546771E-02  0.1151712E+00
         21   -1    0    0  504  502  0.00000000000E+00  0.00000000000E+00  0.24147681667E+03  0.24147681667E+03  0.00000000000E+00 0.  1.
          2   -1    0    0  505    0 -0.00000000000E+00 -0.00000000000E+00 -0.24939693312E+04  0.24939693312E+04  0.00000000000E+00 0. -1.
         21    1    1    2  503  501 -0.11937041679E+02 -0.11376275140E+03  0.14206856748E+03  0.18239499564E+03  0.00000000000E+00 0.  1.
         21    1    1    2  504  503 -0.54575916086E+02 -0.56394469415E+02  0.51108487569E+02  0.93653319742E+02  0.00000000000E+00 0.  1.
         21    1    1    2  505  502  0.15673524564E+02 -0.28421219101E+02 -0.84951863554E+03  0.85013842237E+03  0.00000000000E+00 0.  1.
          2    1    1    2  501    0  0.50839433201E+02  0.19857843992E+03 -0.15961509341E+04  0.16092594101E+04  0.00000000000E+00 0. -1.
<scales pt_clust_3="61.43291" pt_clust_4="61.43291" pt_clust_5="32.45651" pt_clust_6="183.21936"></scales>
<clustering>
<clus scale="   32.457">  2  5  1 -1</clus>
<clus scale="   61.433">  3  4 -1 -1</clus>
<clus scale="  183.219">  2  6  1 -1</clus>
<clus scale="  197.679">  1  3  2 -1</clus>
</clustering>
</event>
<event>
 6    0  0.1230761E+002  0.1240554E+03  0.7546771E-02  0.1236553E+00
          1   -1    0    0  504    0 -0.00000000000E+00  0.00000000000E+00  0.58834883784E+03  0.58834883784E+03  0.00000000000E+00 0. -1.
         21   -1    0    0  503  502  0.00000000000E+00 -0.00000000000E+00 -0.37516146843E+03  0.37516146843E+03  0.00000000000E+00 0.  1.
         21    1    1    2  503  501  0.90502941517E+02 -0.98270153047E+02  0.15278621414E+03  0.20295672602E+03  0.00000000000E+00 0. -1.
         21    1    1    2  504  505  0.22826606994E+02  0.61551590613E+02  0.10374900091E+03  0.12277421343E+03  0.00000000000E+00 0. -1.
         21    1    1    2  505  502  0.45817483257E+02  0.11052249192E+03 -0.30223450588E+03  0.32505408710E+03  0.00000000000E+00 0.  1.
          1    1    1    2  501    0 -0.15914703177E+03 -0.73803929488E+02  0.25888666023E+03  0.31272527972E+03  0.00000000000E+00 0. -1.
<scales pt_clust_3="124.05536" pt_clust_4="65.64794" pt_clust_5="121.21856" pt_clust_6="14000.00000"></scales>
<clustering>
<clus scale="   65.648">  1  4  2 -1</clus>
<clus scale="  121.219">  2  5  1 -1</clus>
<clus scale="  124.055">  2  3  1 -1</clus>
<clus scale="  121.219">  2  3  1 -1</clus>
</clustering>
</event>
<event>
 6    0  0.1230761E+002  0.1359223E+03  0.7546771E-02  0.1218924E+00
          2   -1    0    0  503    0 -0.00000000000E+00  0.00000000000E+00  0.11612535297E+04  0.11612535297E+04  0.00000000000E+00 0. -1.
         21   -1    0    0  505  502  0.00000000000E+00 -0.00000000000E+00 -0.28798247294E+02  0.28798247294E+02  0.00000000000E+00 0. -1.
         21    1    1    2  503  502 -0.50044278459E+02  0.20162236296E+02  0.38150673027E+03  0.38530290788E+03  0.00000000000E+00 0. -1.
         21    1    1    2  504  501 -0.70525013161E+01 -0.48808957699E+02  0.13018055562E+03  0.13920858159E+03  0.00000000000E+00 0.  1.
         21    1    1    2  505  504  0.20011680391E+01 -0.84715933244E+02  0.10675331070E+03  0.13629770124E+03  0.00000000000E+00 0. -1.
          2    1    1    2  501    0  0.55095611736E+02  0.11336265465E+03  0.51401468582E+03  0.52924258629E+03  0.00000000000E+00 0. -1.
<scales pt_clust_3="53.95318" pt_clust_4="33.35442" pt_clust_5="33.35442" pt_clust_6="128.69817"></scales>
<clustering>
<clus scale="   33.354">  4  5 -1 -1</clus>
<clus scale="   53.953">  1  3  2 -1</clus>
<clus scale="  128.698">  1  6  2 -1</clus>
<clus scale="  135.922">  2  3  1 -1</clus>
</clustering>
</event>
<event>
 6    0  0.1230761E+002  0.9725175E+02  0.7546771E-02  0.1286184E+00
          2   -1    0    0  505    0 -0.00000000000E+00  0.00000000000E+00  0.64006236949E+02  0.64006236949E+02  0.00000000000E+00 0. -1.
         21   -1    0    0  504  502  0.00000000000E+00 -0.00000000000E+00 -0.13130739899E+04  0.13130739899E+04  0.00000000000E+00 0. -1.
         21    1    1    2  503  502 -0.47451609055E+02 -0.89365040026E+02 -0.10045408614E+04  0.10096237457E+04  0.00000000000E+00 0. -1.
         21    1    1    2  504  501  0.52662942906E+02 -0.10506226019E+02 -0.16016153346E+03  0.16892448947E+03  0.00000000000E+00 0.  1.
         21    1    1    2  505  503  0.65051246899E+02  0.11259184854E+02 -0.23296366244E+02  0.70008246992E+02  0.00000000000E+00 0. -1.
          2    1    1    2  501    0 -0.70262580750E+02  0.88612081190E+02 -0.61068991786E+02  0.12852374467E+03  0.00000000000E+00 0. -1.
<scales pt_clust_3="97.25175" pt_clust_4="53.70071" pt_clust_5="68.05797" pt_clust_6="14000.00000"></scales>
<clustering>
<clus scale="   53.701">  2  4  1 -1</clus>
<clus scale="   68.058">  1  5  2 -1</clus>
<clus scale="   97.252">  2  3  1 -1</clus>
<clus scale="   53.701">  2  3  1 -1</clus>
</clustering>
</event>
<event>
 6    0  0.1230761E+002  0.7938332E+02  0.7546771E-02  0.1330811E+00
          2   -1    0    0  504    0 -0.00000000000E+00  0.00000000000E+00  0.13346632904E+04  0.13346632904E+04  0.00000000000E+00 0.  1.
         21   -1    0    0  505  502  0.00000000000E+00 -0.00000000000E+00 -0.30750725673E+03  0.30750725673E+03  0.00000000000E+00 0. -1.
         21    1    1    2  503  502  0.10331420171E+03 -0.10768175573E+01  0.57092443294E+02  0.11804461399E+03  0.00000000000E+00 0.  1.
         21    1    1    2  504  503  0.19507245947E+02 -0.29983127984E+02  0.65447846932E+02  0.74585127715E+02  0.00000000000E+00 0.  1.
         21    1    1    2  505  501 -0.65171129137E+02 -0.44554276006E+02 -0.26477351672E+03  0.27629219088E+03  0.00000000000E+00 0. -1.
          2    1    1    2  501    0 -0.57650318515E+02  0.75614221548E+02  0.11693892602E+04  0.11732486145E+04  0.00000000000E+00 0.  1.
<scales pt_clust_3="14000.00000" pt_clust_4="35.77039" pt_clust_5="79.38332" pt_clust_6="62.09520"></scales>
<clustering>
<clus scale="   35.770">  1  4  2 -1</clus>
<clus scale="   62.095">  1  6  2 -1</clus>
<clus scale="   79.383">  2  5  1 -1</clus>
<clus scale="   79.383">  2  3  1 -1</clus>
</clustering>
</event>
<event>
 6    0  0.1230761E+002  0.1156699E+03  0.7546771E-02  0.1250416E+00
          2   -1    0    0  504    0 -0.00000000000E+00  0.00000000000E+00  0.71094964007E+03  0.71094964007E+03  0.00000000000E+00 0.  1.
         21   -1    0    0  505  502  0.00000000000E+00 -0.00000000000E+00 -0.84661582404E+03  0.84661582404E+03  0.00000000000E+00 0.  1.
         21    1    1    2  503  502 -0.93773274605E+02 -0.22177692506E+02 -0.20330552927E+03  0.22498536688E+03  0.00000000000E+00 0.  1.
         21    1    1    2  504  503 -0.33682297055E+02  0.11548760043E+02  0.52080294701E+03  0.52201875504E+03  0.00000000000E+00 0.  1.
         21    1    1    2  505  501  0.11563981044E+03 -0.93399257874E+02 -0.60674509330E+03  0.62468839862E+03  0.00000000000E+00 0.  1.
          2    1    1    2  501    0  0.11815761222E+02  0.10402819034E+03  0.15358149159E+03  0.18587294358E+03  0.00000000000E+00 0.  1.
<scales pt_clust_3="98.08875" pt_clust_4="35.60718" pt_clust_5="115.66986" pt_clust_6="14000.00000"></scales>
<clustering>
<clus scale="   35.607">  1  4  2 -1</clus>
<clus scale="   98.089">  2  3  1 -1</clus>
<clus scale="  115.670">  2  5  1 -1</clus>
<clus scale="   98.089">  2  3  1 -1</clus>
</clustering>
</event>
<event>
 6    0  0.1230761E+002  0.9007211E+02  0.7546771E-02  0.1302677E+00
         -1   -1    0    0    0  501 -0.00000000000E+00  0.00000000000E+00  0.12918426141E+03  0.12918426141E+03  0.00000000000E+00 0.  1.
         21   -1    0    0  505  502  0.00000000000E+00 -0.00000000000E+00 -0.12110455642E+04  0.12110455642E+04  0.00000000000E+00 0. -1.
         21    1    1    2  503  502  0.61541007402E+01 -0.57313360845E+02 -0.77336099480E+03  0.77550623632E+03  0.00000000000E+00 0. -1.
         21    1    1    2  504  501  0.20856740688E+02 -0.65886710240E+02  0.98644490723E+01  0.69809523518E+02  0.00000000000E+00 0. -1.
         21    1    1    2  505  504  0.34578660815E+02  0.19422019649E+02 -0.36380815252E+03  0.36596348242E+03  0.00000000000E+00 0.  1.
         -1    1    1    2    0  503 -0.61589502244E+02  0.10377805144E+03  0.45443395481E+02  0.12895058332E+03  0.00000000000E+00 0.  1.
<scales pt_clust_3="54.70094" pt_clust_4="90.07211" pt_clust_5="39.65979" pt_clust_6="14000.00000"></scales>
<clustering>
<clus scale="   39.660">  2  5  1 -1</clus>
<clus scale="   54.701">  2  3  1 -1</clus>
<clus scale="   90.072">  1  4  2 -1</clus>
<clus scale="   39.660">  2  3  1 -1</clus>
</clustering>
</event>
<event>
 6    0  0.1230761E+002  0.1372536E+03  0.7546771E-02  0.1217073E+00
          2   -1    0    0  504    0 -0.00000000000E+00  0.00000000000E+00  0.11909814786E+04  0.11909814786E+04  0.00000000000E+00 0.  1.
         21   -1    0    0  505  502  0.00000000000E+00 -0.00000000000E+00 -0.63698057559E+02  0.63698057559E+02  0.00000000000E+00 0. -1.
         21    1    1    2  503  501 -0.30248752871E+02  0.64713565802E+02  0.32565751149E+02  0.78507074821E+02  0.00000000000E+00 0. -1.
         21    1    1    2  504  502 -0.70210204451E+02 -0.14817685510E+02  0.32934270776E+03  0.33706921510E+03  0.00000000000E+00 0.  1.
         21    1    1    2  505  503  0.63503386433E+01  0.63001904137E+02  0.37564076026E+01  0.63432462697E+02  0.00000000000E+00 0. -1.
          2    1    1    2  501    0  0.94108618679E+02 -0.11289778443E+03  0.76161855455E+03  0.77567078356E+03  0.00000000000E+00 0.  1.
<scales pt_clust_3="41.52398" pt_clust_4="71.75679" pt_clust_5="41.52398" pt_clust_6="129.97456"></scales>
<clustering>
<clus scale="   41.524">  3  5 -1 -1</clus>
<clus scale="   71.757">  1  4  2 -1</clus>
<clus scale="  129.975">  1  6  2 -1</clus>
<clus scale="  137.254">  2  3  1 -1</clus>
</clustering>
</event>
<event>
 6    0  0.1230761E+002  0.1456502E+03  0.7546771E-02  0.1205922E+00
         21   -1    0    0  504  502  0.00000000000E+00  0.00000000000E+00  0.52518845361E+03  0.52518845361E+03  0.00000000000E+00 0. -1.
         -1   -1    0    0    0  501 -0.00000000000E+00 -0.00000000000E+00 -0.12209159995E+03  0.12209159995E+03  0.00000000000E+00 0. -1.
         21    1    1    2  503  505  0.36574421947E+02 -0.40686427815E+02 -0.56423192426E+01  0.54999177408E+02  0.00000000000E+00 0. -1.
         21    1    1    2  504  501  0.20898778948E+02 -0.22776945621E+02  0.48608464552E+02  0.57604956726E+02  0.00000000000E+00 0.  1.
         21    1    1    2  505  502 -0.50737113699E+02  0.14845212360E+03  0.40784411468E+03  0.43697724150E+03  0.00000000000E+00 0. -1.
         -1    1    1    2    0  503 -0.67360871952E+01 -0.84988750165E+02 -0.47713406331E+02  0.97698677929E+02  0.00000000000E+00 0. -1.
<scales pt_clust_3="49.68139" pt_clust_4="30.91194" pt_clust_5="132.01798" pt_clust_6="49.68139"></scales>
<clustering>
<clus scale="   30.912">  1  4  2 -1</clus>
<clus scale="   49.681">  3  6 -1 -1</clus>
<clus scale="  132.018">  1  5  2 -1</clus>
<clus scale="   30.912">  1  3  2 -1</clus>
</clustering>
</event>
<event>
 6    0  0.1230761E+002  0.9948045E+02  0.7546771E-02  0.1281392E+00
          1   -1    0    0  505    0 -0.00000000000E+00  0.00000000000E+00  0.13726059683E+04  0.13726059683E+04  0.00000000000E+00 0.  1.
         21   -1    0    0  503  502  0.00000000000E+00 -0.00000000000E+00 -0.65984808591E+02  0.65984808591E+02  0.00000000000E+00 0.  1.
         21    1    1    2  503  504  0.38356994235E+02 -0.15317957264E+02  0.68131442619E+02  0.79673033674E+02  0.00000000000E+00 0. -1.
         21    1    1    2  504  501 -0.27005880328E+02 -0.34796452342E+02  0.30276155756E+02  0.53448632117E+02  0.00000000000E+00 0. -1.
         21    1    1    2  505  502  0.68858672771E+02 -0.11528944893E+02 -0.20369817664E+02  0.72728006008E+02  0.00000000000E+00 0.  1.
          1    1    1    2  501    0 -0.80209786678E+02  0.61643354499E+02  0.12285833790E+04  0.12327411051E+04  0.00000000000E+00 0.  1.
<scales pt_clust_3="41.30253" pt_clust_4="42.54121" pt_clust_5="14000.00000" pt_clust_6="99.48045"></scales>
<clustering>
<clus scale="   41.303">  2  3  1 -1</clus>
<clus scale="   42.541">  2  4  1 -1</clus>
<clus scale="   99.480">  1  6  2 -1</clus>
<clus scale="   41.303">  2  3  1 -1</clus>
</clustering>
</event>
<event>
 6    0  0.1230761E+002  0.1318735E+03  0.7546771E-02  0.1224702E+00
         21   -1    0    0  501  502  0.00000000000E+00  0.00000000000E+00  0.16614963145E+03  0.16614963145E+03  0.00000000000E+00 0. -1.
          1   -1    0    0  503    0 -0.00000000000E+00 -0.00000000000E+00 -0.35506615911E+03  0.35506615911E+03  0.00000000000E+00 0. -1.
         21    1    1    2  503  504  0.22461886464E+02  0.66230870752E+02 -0.94908955977E+02  0.11789306387E+03  0.00000000000E+00 0. -1.
         21    1    1    2  504  505 -0.55369257905E+01  0.31971399849E+02 -0.10908423903E+02  0.34231880866E+02  0.00000000000E+00 0.  1.
         21    1    1    2  505  502 -0.13334571576E+02  0.54383396027E+02  0.10971585363E+03  0.12317846037E+03  0.00000000000E+00 0. -1.
          1    1    1    2  501    0 -0.35903890977E+01 -0.15258566663E+03 -0.19281500141E+03  0.24591238546E+03  0.00000000000E+00 0. -1.
<scales pt_clust_3="30.57219" pt_clust_4="30.57219" pt_clust_5="55.99433" pt_clust_6="124.00030"></scales>
<clustering>
<clus scale="   30.572">  3  4 -1 -1</clus>
<clus scale="   55.994">  1  5  2 -1</clus>
<clus scale="  124.000">  1  6  2 -1</clus>
<clus scale="   55.994">  1  3  2 -1</clus>
</clustering>
</event>
<event>
 6    0  0.1230761E+002  0.1570788E+03  0.7546771E-02  0.1192035E+00
         21   -1    0    0  501  502  0.00000000000E+00  0.00000000000E+00  0.91428874501E+02  0.91428874501E+02  0.00000000000E+00 0. -1.
          1   -1    0    0  504    0 -0.00000000000E+00 -0.00000000000E+00 -0.82722153824E+03  0.82722153824E+03  0.00000000000E+00 0.  1.
         21    1    1    2  503  505 -0.96700686456E+02 -0.31714083577E+02  0.15525358497E+02  0.10294582369E+03  0.00000000000E+00 0. -1.
         21    1    1    2  504  503  0.32126421741E+02 -0.62152201451E+02 -0.20636527552E+03  0.21790279956E+03  0.00000000000E+00 0.  1.
         21    1    1    2  505  502 -0.49153875739E+02  0.19938046022E+02 -0.21797937198E+02  0.57347879171E+02  0.00000000000E+00 0. -1.
          1    1    1    2  501    0  0.11372814045E+03  0.73928239006E+02 -0.52315480952E+03  0.54045391032E+03  0.00000000000E+00 0.  1.
<scales pt_clust_3="47.02416" pt_clust_4="69.96430" pt_clust_5="47.02416" pt_clust_6="142.93794"></scales>
<clustering>
<clus scale="   47.024">  3  5 -1 -1</clus>
<clus scale="   69.964">  2  4  1 -1</clus>
<clus scale="  142.938">  2  6  1 -1</clus>
<clus scale="  157.079">  1  3  2 -1</clus>
</clustering>
</event>
<event>
 6    0  0.1230761E+002  0.1271321E+03  0.7546771E-02  0.1231774E+00
         -2   -1    0    0    0  501 -0.00000000000E+00  0.00000000000E+00  0.35642810282E+03  0.35642810282E+03  0.00000000000E+00 0.  1.
         21   -1    0    0  504  502  0.00000000000E+00 -0.00000000000E+00 -0.22082069701E+03  0.22082069701E+03  0.00000000000E+00 0.  1.
         21    1    1    2  503  502 -0.43679384219E+01  0.37218672677E+02 -0.16492309889E+02  0.40942701026E+02  0.00000000000E+00 0.  1.
         21    1    1    2  504  505  0.60114456000E+02  0.85207677646E+02 -0.15002275377E+03  0.18270446847E+03  0.00000000000E+00 0.  1.
         21    1    1    2  505  501 -0.45198648061E+02 -0.11456804546E+02  0.20909568759E+02  0.51101724262E+02  0.00000000000E+00 0.  1.
         -2    1    1    2    0  503 -0.10547869517E+02 -0.11096954578E+03  0.28121290072E+03  0.30249990607E+03  0.00000000000E+00 0.  1.
<scales pt_clust_3="37.47410" pt_clust_4="127.13210" pt_clust_5="46.33422" pt_clust_6="14000.00000"></scales>
<clustering>
<clus scale="   37.474">  2  3  1 -1</clus>
<clus scale="   46.334">  1  5  2 -1</clus>
<clus scale="  127.132">  2  4  1 -1</clus>
<clus scale="   37.474">  2  3  1 -1</clus>
</clustering>
</event>
<event>
 6    0  0.1230761E+002  0.1269074E+03  0.7546771E-02  0.1232118E+00
          2   -1    0    0  504    0 -0.00000000000E+00  0.00000000000E+00  0.72357184403E+03  0.72357184403E+03  0.00000000000E+00 0.  1.
         21   -1    0    0  503  502  0.00000000000E+00 -0.00000000000E+00 -0.24977801499E+03  0.24977801499E+03  0.00000000000E+00 0.  1.
         21    1    1    2  503  501  0.51713083018E+02  0.14307860730E+02 -0.13910655351E+03  0.14909591229E+03  0.00000000000E+00 0.  1.
         21    1    1    2  504  505 -0.40282883006E+02  0.63009275945E+02  0.15826298692E+03  0.17504300199E+03  0.00000000000E+00 0.  1.
         21    1    1    2  505  502 -0.10626357266E+02  0.10707343761E+03 -0.45002853180E+02  0.11663145933E+03  0.00000000000E+00 0.  1.
          2    1    1    2  501    0 -0.80384274662E+00 -0.18439057429E+03  0.49964024880E+03  0.53257948541E+03  0.00000000000E+00 0.  1.
<scales pt_clust_3="53.65592" pt_clust_4="73.64374" pt_clust_5="126.90738" pt_clust_6="14000.00000"></scales>
<clustering>
<clus scale="   53.656">  2  3  1 -1</clus>
<clus scale="   73.644">  1  4  2 -1</clus>
<clus scale="  126.907">  2  5  1 -1</clus>
<clus scale="   53.656">  2  3  1 -1</clus>
</clustering>
</event>
<event>
 6    0  0.1230761E+002  0.9126856E+02  0.7546771E-02  0.1299808E+00
         21   -1    0    0  503  502  0.00000000000E+00  0.00000000000E+00  0.43273900296E+03  0.43273900296E+03  0.00000000000E+00 0.  1.
          1   -1    0    0  504    0 -0.00000000000E+00 -0.00000000000E+00 -0.41328460432E+03  0.41328460432E+03  0.00000000000E+00 0. -1.
         21    1    1    2  503  501 -0.10603386841E+02  0.46302798321E+02  0.22019775503E+02  0.52356961887E+02  0.00000000000E+00 0.  1.
         21    1    1    2  504  505  0.40881596702E+02 -0.47441352139E+02 -0.14300504672E+03  0.15611671989E+03  0.00000000000E+00 0. -1.
         21    1    1    2  505  502 -0.82650172050E+02 -0.58319409755E+02  0.37581801675E+03  0.38919325046E+03  0.00000000000E+00 0.  1.
          1    1    1    2  501    0  0.52371962189E+02  0.59457963572E+02 -0.23537834689E+03  0.24835667505E+03  0.00000000000E+00 0. -1.
<scales pt_clust_3="47.50138" pt_clust_4="61.93079" pt_clust_5="91.26856" pt_clust_6="14000.00000"></scales>
<clustering>
<clus scale="   47.501">  1  3  2 -1</clus>
<clus scale="   61.931">  2  4  1 -1</clus>
<clus scale="   91.269">  1  5  2 -1</clus>
<clus scale="   47.501">  1  3  2 -1</clus>
</clustering>
</event>
<event>
 6    0  0.1230761E+002  0.3089397E+03  0.7546771E-02  0.1080855E+00
          2   -1    0    0  504    0 -0.00000000000E+00  0.00000000000E+00  0.78197871651E+03  0.78197871651E+03  0.00000000000E+00 0. -1.
         21   -1    0    0  501  502  0.00000000000E+00 -0.00000000000E+00 -0.45109295724E+03  0.45109295724E+03  0.00000000000E+00 0.  1.
         21    1    1    2  503  505 -0.10145620368E+03  0.16141988029E+02 -0.92028510119E+02  0.13792451456E+03  0.00000000000E+00 0.  1.
         21    1    1    2  504  503 -0.15953987924E+02 -0.88699686775E+02  0.12330790215E+03  0.15273180055E+03  0.00000000000E+00 0.  1.
         21    1    1    2  505  502 -0.11746882734E+03  0.17189562642E+03 -0.25665436105E+03  0.33048221257E+03  0.00000000000E+00 0.  1.
          2    1    1    2  501    0  0.23487901894E+03 -0.99337927676E+02  0.55626072829E+03  0.61193314607E+03  0.00000000000E+00 0. -1.
<scales pt_clust_3="84.69894" pt_clust_4="90.12305" pt_clust_5="84.69894" pt_clust_6="284.43796"></scales>
<clustering>
<clus scale="   84.699">  3  5 -1 -1</clus>
<clus scale="   90.123">  1  4  2 -1</clus>
<clus scale="  284.438">  1  6  2 -1</clus>
<clus scale="  308.940">  2  3  1 -1</clus>
</clustering>
</event>
<event>
 6    0  0.1230761E+002  0.1773678E+03  0.7546771E-02  0.1170375E+00
         21   -1    0    0  503  502  0.00000000000E+00  0.00000000000E+00  0.31585666459E+02  0.31585666459E+02  0.00000000000E+00 0. -1.
          2   -1    0    0  505    0 -0.00000000000E+00 -0.00000000000E+00 -0.26601266321E+04  0.26601266321E+04  0.00000000000E+00 0. -1.
         21    1    1    2  503  504 -0.46342359366E+02  0.10506046399E+03 -0.36204074373E+03  0.37981418547E+03  0.00000000000E+00 0. -1.
         21    1    1    2  504  501  0.24232932614E+02  0.38611407799E+02 -0.16199641831E+03  0.16828819144E+03  0.00000000000E+00 0. -1.
         21    1    1    2  505  502  0.35425432256E+02  0.25604171901E+02 -0.13533856665E+02  0.45756968272E+02  0.00000000000E+00 0. -1.
          2    1    1    2  501    0 -0.13316005503E+02 -0.16927604369E+03 -0.20909699470E+04  0.20978529534E+04  0.00000000000E+00 0. -1.
<scales pt_clust_3="43.06158" pt_clust_4="43.06158" pt_clust_5="43.70967" pt_clust_6="163.67191"></scales>
<clustering>
<clus scale="   43.062">  3  4 -1 -1</clus>
<clus scale="   43.710">  1  5  2 -1</clus>
<clus scale="  163.672">  2  6  1 -1</clus>
<clus scale="   43.710">  1  3  2 -1</clus>
</clustering>
</event>
<event>
 6    0  0.1230761E+002  0.8642412E+02  0.7546771E-02  0.1311750E+00
          1   -1    0    0  505    0 -0.00000000000E+00  0.00000000000E+00  0.30357616162E+03  0.30357616162E+03  0.00000000000E+00 0.  1.
         21   -1    0    0  504  502  0.00000000000E+00 -0.00000000000E+00 -0.10177837221E+03  0.10177837221E+03  0.00000000000E+00 0.  1.
         21    1    1    2  503  502  0.45365671222E+01  0.40070179343E+02  0.96723594143E+01  0.41469919827E+02  0.00000000000E+00 0.  1.
         21    1    1    2  504  501 -0.25285320044E+02 -0.60804863639E+02  0.10351812551E+01  0.65860841568E+02  0.00000000000E+00 0.  1.
         21    1    1    2  505  503 -0.57710322611E+02  0.64508272904E+02  0.18931372288E+03  0.20816215862E+03  0.00000000000E+00 0.  1.
          1    1    1    2  501    0  0.78459075533E+02 -0.43773588608E+02  0.17765258617E+01  0.89861613814E+02  0.00000000000E+00 0.  1.
<scales pt_clust_3="40.32617" pt_clust_4="51.40517" pt_clust_5="86.42412" pt_clust_6="14000.00000"></scales>
<clustering>
<clus scale="   40.326">  2  3  1 -1</clus>
<clus scale="   51.405">  2  4  1 -1</clus>
<clus scale="   86.424">  1  5  2 -1</clus>
<clus scale="   40.326">  2  3  1 -1</clus>
</clustering>
</event>
<event>
 6    0  0.1230761E+002  0.7267888E+02  0.7546771E-02  0.1351213E+00
         21   -1    0    0  505  502  0.00000000000E+00  0.00000000000E+00  0.11518518466E+04  0.11518518466E+04  0.00000000000E+00 0.  1.
          2   -1    0    0  503    0 -0.00000000000E+00 -0.00000000000E+00 -0.29838125255E+03  0.29838125255E+03  0.00000000000E+00 0.  1.
         21    1    1    2  503  504 -0.52986351433E+01 -0.41031926330E+02 -0.53185129225E+01  0.41713080592E+02  0.00000000000E+00 0.  1.
         21    1    1    2  504  502  0.14580571421E+02 -0.44942563826E+02 -0.14409224233E+03  0.15164102811E+03  0.00000000000E+00 0.  1.
         21    1    1    2  505  501 -0.57597902666E+02 -0.90307581806E+01  0.11066135964E+04  0.11081483316E+04  0.00000000000E+00 0.  1.
          2    1    1    2  501    0  0.48315966389E+02  0.95005248336E+02 -0.10373224708E+03  0.14873065892E+03  0.00000000000E+00 0.  1.
<scales pt_clust_3="41.37263" pt_clust_4="14000.00000" pt_clust_5="58.33403" pt_clust_6="72.67888"></scales>
<clustering>
<clus scale="   41.373">  2  3  1 -1</clus>
<clus scale="   58.334">  1  5  2 -1</clus>
<clus scale="   72.679">  1  6  2 -1</clus>
<clus scale="   58.334">  1  3  2 -1</clus>
</clustering>
</event>
<event>
 6    0  0.1230761E+002  0.1574705E+03  0.7546771E-02  0.1191582E+00
         21   -1    0    0  504  502  0.00000000000E+00  0.00000000000E+00  0.78487161611E+02  0.78487161611E+02  0.00000000000E+00 0.  1.
          2   -1    0    0  503    0 -0.00000000000E+00 -0.00000000000E+00 -0.10931625318E+04  0.10931625318E+04  0.00000000000E+00 0.  1.
         21    1    1    2  503  505  0.15475272076E+03  0.21612426335E+02 -0.58173161054E+03  0.60235136611E+03  0.00000000000E+00 0.  1.
         21    1    1    2  504  501 -0.28803498210E+01  0.79796060785E+02 -0.58058378220E+02  0.98724277731E+02  0.00000000000E+00 0.  1.
         21    1    1    2  505  502  0.23624124249E+01 -0.57759215931E+02  0.52300374778E+01  0.58043615578E+02  0.00000000000E+00 0.  1.
          2    1    1    2  501    0 -0.15423478337E+03 -0.43649271189E+02 -0.38011541886E+03  0.41253043395E+03  0.00000000000E+00 0.  1.
<scales pt_clust_3="157.47053" pt_clust_4="54.76011" pt_clust_5="57.80751" pt_clust_6="14000.00000"></scales>
<clustering>
<clus scale="   57.808">  1  5  2 -1</clus>
<clus scale="   54.760">  1  4  2 -1</clus>
<clus scale="  157.471">  2  3  1 -1</clus>
<clus scale="   57.808">  1  3  2 -1</clus>
</clustering>
</event>
<event>
 6    0  0.1230761E+002  0.1387341E+03  0.7546771E-02  0.1215043E+00
          2   -1    0    0  504    0 -0.00000000000E+00  0.00000000000E+00  0.13837465858E+04  0.13837465858E+04  0.00000000000E+00 0.  1.
         21   -1    0    0  503  502  0.00000000000E+00 -0.00000000000E+00 -0.58218092972E+03  0.58218092972E+03  0.00000000000E+00 0.  1.
         21    1    1    2  503  501 -0.88921423825E+02  0.58833074623E+02 -0.15146024456E+03  0.18522568927E+03  0.00000000000E+00 0.  1.
         21    1    1    2  504  505 -0.51482646823E+02 -0.33343500470E+02 -0.71696012714E+00  0.61341388795E+02  0.00000000000E+00 0. -1.
         21    1    1    2  505  502  0.40916645876E+01 -0.58131216457E+02 -0.37688842568E+03  0.38136710065E+03  0.00000000000E+00 0.  1.
          2    1    1    2  501    0  0.13631240606E+03  0.32641642304E+02  0.13306312865E+04  0.13379933368E+04  0.00000000000E+00 0.  1.
<scales pt_clust_3="14000.00000" pt_clust_4="66.10271" pt_clust_5="58.27504" pt_clust_6="138.73412"></scales>
<clustering>
<clus scale="   58.275">  2  5  1 -1</clus>
<clus scale="   66.103">  2  4  1 -1</clus>
<clus scale="  138.734">  1  6  2 -1</clus>
<clus scale="   58.275">  2  3  1 -1</clus>
</clustering>
</event>
<event>
 6    0  0.1230761E+002  0.1014420E+03  0.7546771E-02  0.1277293E+00
          3   -1    0    0  505    0 -0.00000000000E+00  0.00000000000E+00  0.67971200578E+02  0.67971200578E+02  0.00000000000E+00 0. -1.
         21   -1    0    0  504  502  0.00000000000E+00 -0.00000000000E+00 -0.13234994558E+04  0.13234994558E+04  0.00000000000E+00 0.  1.
         21    1    1    2  503  502 -0.67093199975E+01  0.36906229008E+02 -0.19971723365E+03  0.20320939479E+03  0.00000000000E+00 0.  1.
         21    1    1    2  504  501 -0.38452627952E+02  0.55667346930E+02 -0.99231143447E+03  0.99461522263E+03  0.00000000000E+00 0.  1.
         21    1    1    2  505  503 -0.28372020278E+02  0.23794329978E+02 -0.39090422872E+02  0.53844246063E+02  0.00000000000E+00 0. -1.
          3    1    1    2  501    0  0.73533968227E+02 -0.11636790592E+03 -0.24409164286E+02  0.13980179295E+03  0.00000000000E+00 0. -1.
<scales pt_clust_3="38.33802" pt_clust_4="14000.00000" pt_clust_5="37.02893" pt_clust_6="101.44198"></scales>
<clustering>
<clus scale="   37.029">  1  5  2 -1</clus>
<clus scale="   38.338">  2  3  1 -1</clus>
<clus scale="  101.442">  1  6  2 -1</clus>
<clus scale="   38.338">  2  3  1 -1</clus>
</clustering>
</event>
<event>
 6    0  0.1230761E+002  0.7762856E+02  0.7546771E-02  0.1335919E+00
          2   -1    0    0  505    0 -0.00000000000E+00  0.00000000000E+00  0.21791231791E+04  0.21791231791E+04  0.00000000000E+00 0. -1.
         21   -1    0    0  503  502  0.00000000000E+00 -0.00000000000E+00 -0.19392761170E+02  0.19392761170E+02  0.00000000000E+00 0. -1.
         21    1    1    2  503  501  0.24072539286E+02  0.33636409686E+02  0.53626702896E+02  0.67725316299E+02  0.00000000000E+00 0. -1.
         21    1    1    2  504  502 -0.19839385491E+02  0.28321363216E+02  0.26449219692E+02  0.43534607536E+02  0.00000000000E+00 0. -1.
         21    1    1    2  505  504  0.15284622802E+02  0.56166394294E+02  0.70114158434E+03  0.70355369719E+03  0.00000000000E+00 0. -1.
          2    1    1    2  501    0 -0.19517776598E+02 -0.11812416720E+03  0.13785129110E+04  0.13837023193E+04  0.00000000000E+00 0. -1.
<scales pt_clust_3="53.22490" pt_clust_4="34.57891" pt_clust_5="14000.00000" pt_clust_6="77.62856"></scales>
<clustering>
<clus scale="   34.579">  2  4  1 -1</clus>
<clus scale="   53.225">  2  3  1 -1</clus>
<clus scale="   77.629">  2  6  1 -1</clus>
<clus scale="   34.579">  2  3  1 -1</clus>
</clustering>
</event>
<event>
 6    0  0.1480085E+002  0.2241087E+03  0.7546771E-02  0.1130856E+00
          2   -1    0    0  504    0 -0.00000000000E+00  0.00000000000E+00  0.21063874377E+04  0.21063874377E+04  0.00000000000E+00 0.  1.
         21   -1    0    0  503  502  0.00000000000E+00 -0.00000000000E+00 -0.43963574157E+03  0.43963574157E+03  0.00000000000E+00 0. -1.
         21    1    1    2  503  501  0.88625403434E+02  0.15556718449E+03 -0.39425809946E+03  0.43300699765E+03  0.00000000000E+00 0. -1.
         21    1    1    2  504  505  0.93007711761E+01 -0.31095027569E+02  0.16311935244E+03  0.16631695110E+03  0.00000000000E+00 0.  1.
         21    1    1    2  505  502  0.40948201278E+01  0.50219271640E+02  0.14438334292E+02  0.52413817768E+02  0.00000000000E+00 0.  1.
          2    1    1    2  501    0 -0.10202099474E+03 -0.17469142856E+03  0.18834521089E+04  0.18942854128E+04  0.00000000000E+00 0.  1.
<scales pt_clust_3="224.10868" pt_clust_4="32.45620" pt_clust_5="49.86583" pt_clust_6="14000.00000"></scales>
<clustering>
<clus scale="   32.456">  1  4  2 -1</clus>
<clus scale="   49.866">  2  5  1 -1</clus>
<clus scale="  224.109">  2  3  1 -1</clus>
<clus scale="   49.866">  2  3  1 -1</clus>
</clustering>
</event>
<event>
 6    0  0.1230761E+002  0.9848347E+02  0.7546771E-02  0.1283518E+00
         21   -1    0    0  503  502  0.00000000000E+00  0.00000000000E+00  0.12600149533E+04  0.12600149533E+04  0.00000000000E+00 0.  1.
          2   -1    0    0  505    0 -0.00000000000E+00 -0.00000000000E+00 -0.14633685704E+03  0.14633685704E+03  0.00000000000E+00 0. -1.
         21    1    1    2  503  501 -0.27978471835E+02  0.43360300214E+02  0.27613498582E+03  0.28091536255E+03  0.00000000000E+00 0. -1.
         21    1    1    2  504  502 -0.69318219917E+02 -0.59462443728E+02  0.89975316648E+03  0.90437633672E+03  0.00000000000E+00 0.  1.
         21    1    1    2  505  504 -0.36238976059E+02 -0.14637383778E+01  0.38494106302E+02  0.52888582282E+02  0.00000000000E+00 0. -1.
          2    1    1    2  501    0  0.13353566781E+03  0.17565881892E+02 -0.10070416235E+03  0.16817152880E+03  0.00000000000E+00 0. -1.
<scales pt_clust_3="51.92257" pt_clust_4="98.48347" pt_clust_5="36.26853" pt_clust_6="14000.00000"></scales>
<clustering>
<clus scale="   36.269">  2  5  1 -1</clus>
<clus scale="   51.923">  1  3  2 -1</clus>
<clus scale="   98.483">  1  4  2 -1</clus>
<clus scale="   51.923">  1  3  2 -1</clus>
</clustering>
</event>
<event>
 6    0  0.1230761E+002  0.2696018E+03  0.7546771E-02  0.1101508E+00
          1   -1    0    0  503    0 -0.00000000000E+00  0.00000000000E+00  0.18226262683E+04  0.18226262683E+04  0.00000000000E+00 0. -1.
         21   -1    0    0  501  502  0.00000000000E+00 -0.00000000000E+00 -0.68359697616E+02  0.68359697616E+02  0.00000000000E+00 0. -1.
         21    1    1    2  503  504  0.74262162657E+01  0.30044445234E+02  0.91047645270E+02  0.96163876204E+02  0.00000000000E+00 0. -1.
         21    1    1    2  504  505 -0.37234371279E+02  0.59144228205E+01  0.26556588756E+02  0.46115411829E+02  0.00000000000E+00 0. -1.
         21    1    1    2  505  502 -0.17325983117E+03 -0.15867025961E+03  0.25463098609E+03  0.34645657658E+03  0.00000000000E+00 0. -1.
          1    1    1    2  501    0  0.20306798618E+03  0.12271139156E+03  0.13820313505E+04  0.14022501013E+04  0.00000000000E+00 0. -1.
<scales pt_clust_3="30.94862" pt_clust_4="34.77894" pt_clust_5="34.77894" pt_clust_6="255.50142"></scales>
<clustering>
<clus scale="   30.949">  1  3  2 -1</clus>
<clus scale="   34.779">  4  5 -1 -1</clus>
<clus scale="  255.501">  1  6  2 -1</clus>
<clus scale="  269.602">  2  3  1 -1</clus>
</clustering>
</event>
<event>
 6    0  0.1230761E+002  0.1367621E+03  0.7546771E-02  0.1217753E+00
          1   -1    0    0  504    0 -0.00000000000E+00  0.00000000000E+00  0.37090448536E+03  0.37090448536E+03  0.00000000000E+00 0.  1.
         21   -1    0    0  503  502  0.00000000000E+00 -0.00000000000E+00 -0.57884394621E+03  0.57884394621E+03  0.00000000000E+00 0. -1.
         21    1    1    2  503  505 -0.20444726220E+02 -0.44783983370E+02 -0.38391907942E+03  0.38706259382E+03  0.00000000000E+00 0. -1.
         21    1    1    2  504  502  0.70080882894E+01 -0.33477217478E+02 -0.18870634485E+02  0.39063259431E+02  0.00000000000E+00 0. -1.
         21    1    1    2  505  501  0.22110784831E+02 -0.43554811327E+02 -0.15001782987E+03  0.15776963483E+03  0.00000000000E+00 0. -1.
          1    1    1    2  501    0 -0.86741469001E+01  0.12181601217E+03  0.34486808292E+03  0.36585294349E+03  0.00000000000E+00 0.  1.
<scales pt_clust_3="57.25774" pt_clust_4="34.20289" pt_clust_5="57.25774" pt_clust_6="121.47781"></scales>
<clustering>
<clus scale="   34.203">  2  4  1 -1</clus>
<clus scale="   57.258">  3  5 -1 -1</clus>
<clus scale="  121.478">  1  6  2 -1</clus>
<clus scale="   34.203">  2  3  1 -1</clus>
</clustering>
</event>
<event>
 6    0  0.1230761E+002  0.1806878E+03  0.7546771E-02  0.1167139E+00
          3   -1    0    0  505    0 -0.00000000000E+00  0.00000000000E+00  0.26608377422E+03  0.26608377422E+03  0.00000000000E+00 0.  1.
         21   -1    0    0  501  502  0.00000000000E+00 -0.00000000000E+00 -0.22800946863E+04  0.22800946863E+04  0.00000000000E+00 0. -1.
         21    1    1    2  503  504 -0.74593113396E+01  0.61561880308E+02 -0.46825335768E+03  0.47234173372E+03  0.00000000000E+00 0. -1.
         21    1    1    2  504  502 -0.12550764857E+02  0.10703383274E+03 -0.17565575601E+04  0.17598602856E+04  0.00000000000E+00 0. -1.
         21    1    1    2  505  503 -0.61217626000E+02 -0.41767248287E+02  0.11040808028E+03  0.13297385064E+03  0.00000000000E+00 0.  1.
          3    1    1    2  501    0  0.81227702196E+02 -0.12682846476E+03  0.10039192542E+03  0.18100259050E+03  0.00000000000E+00 0.  1.
<scales pt_clust_3="48.67459" pt_clust_4="48.67459" pt_clust_5="74.10871" pt_clust_6="168.91053"></scales>
<clustering>
<clus scale="   48.675">  3  4 -1 -1</clus>
<clus scale="   74.109">  1  5  2 -1</clus>
<clus scale="  168.911">  1  6  2 -1</clus>
<clus scale="  180.688">  2  3  1 -1</clus>
</clustering>
</event>
<event>
 6    0  0.1230761E+002  0.2195102E+03  0.7546771E-02  0.1134249E+00
         21   -1    0    0  501  502  0.00000000000E+00  0.00000000000E+00  0.43634081311E+03  0.43634081311E+03  0.00000000000E+00 0.  1.
          1   -1    0    0  504    0 -0.00000000000E+00 -0.00000000000E+00 -0.38339881312E+03  0.38339881312E+03  0.00000000000E+00 0.  1.
         21    1    1    2  503  502  0.12900389509E+02 -0.27802296448E+02  0.11827999728E+03  0.12218651928E+03  0.00000000000E+00 0.  1.
         21    1    1    2  504  505  0.11178771813E+03  0.18329875046E+03 -0.11559641028E+03  0.24383899588E+03  0.00000000000E+00 0.  1.
         21    1    1    2  505  503  0.88149972750E+02 -0.39283109883E+02  0.16054178008E+03  0.18731589246E+03  0.00000000000E+00 0.  1.
          1    1    1    2  501    0 -0.21283808039E+03 -0.11621334413E+03 -0.11028336709E+03  0.26639821860E+03  0.00000000000E+00 0.  1.
<scales pt_clust_3="30.64943" pt_clust_4="14000.00000" pt_clust_5="109.77804" pt_clust_6="219.51024"></scales>
<clustering>
<clus scale="   30.649">  1  3  2 -1</clus>
<clus scale="  109.778">  1  5  2 -1</clus>
<clus scale="  219.510">  1  6  2 -1</clus>
<clus scale="   30.649">  1  3  2 -1</clus>
</clustering>
</event>
<event>
 6    0  0.1230761E+002  0.1678810E+03  0.7546771E-02  0.1180076E+00
          2   -1    0    0  503    0 -0.00000000000E+00  0.00000000000E+00  0.45946575129E+03  0.45946575129E+03  0.00000000000E+00 0.  1.
         21   -1    0    0  501  502  0.00000000000E+00 -0.00000000000E+00 -0.14121928471E+03  0.14121928471E+03  0.00000000000E+00 0.  1.
         21    1    1    2  503  505  0.51084189174E+02  0.12481755647E+02  0.12429824689E+02  0.54035998644E+02  0.00000000000E+00 0.  1.
         21    1    1    2  504  502  0.12670208203E+02 -0.28433090308E+02 -0.14990971011E+02  0.34550021884E+02  0.00000000000E+00 0.  1.
         21    1    1    2  505  504  0.97361030890E+02  0.99632818640E+01 -0.48429895982E+02  0.10919657571E+03  0.00000000000E+00 0.  1.
          2    1    1    2  501    0 -0.16111542827E+03  0.59880527968E+01  0.36923750888E+03  0.40290243976E+03  0.00000000000E+00 0.  1.
<scales pt_clust_3="37.71897" pt_clust_4="31.12836" pt_clust_5="37.71897" pt_clust_6="159.29504"></scales>
<clustering>
<clus scale="   31.128">  2  4  1 -1</clus>
<clus scale="   37.719">  3  5 -1 -1</clus>
<clus scale="  159.295">  1  6  2 -1</clus>
<clus scale="   31.128">  2  3  1 -1</clus>
</clustering>
</event>
<event>
 6    0  0.1230761E+002  0.3231889E+03  0.7546771E-02  0.1074191E+00
         -1   -1    0    0    0  501 -0.00000000000E+00  0.00000000000E+00  0.11325766903E+04  0.11325766903E+04  0.00000000000E+00 0.  1.
         21   -1    0    0  504  502  0.00000000000E+00 -0.00000000000E+00 -0.16614691386E+03  0.16614691386E+03  0.00000000000E+00 0.  1.
         21    1    1    2  503  502 -0.75582527927E+02  0.11621846707E+03 -0.22469151343E+01  0.13865244046E+03  0.00000000000E+00 0.  1.
         21    1    1    2  504  501 -0.36900742097E+01 -0.38089836702E+02  0.64521334910E+02  0.75016364656E+02  0.00000000000E+00 0. -1.
         21    1    1    2  505  503 -0.16879416777E+03  0.71730609753E+02  0.60685615005E+02  0.19318254403E+03  0.00000000000E+00 0.  1.
         -1    1    1    2    0  505  0.24806676990E+03 -0.14985924013E+03  0.84346974165E+03  0.89187225501E+03  0.00000000000E+00 0.  1.
<scales pt_clust_3="93.54810" pt_clust_4="38.26816" pt_clust_5="93.54810" pt_clust_6="304.62517"></scales>
<clustering>
<clus scale="   38.268">  1  4  2 -1</clus>
<clus scale="   93.548">  3  5 -1 -1</clus>
<clus scale="  304.625">  1  6  2 -1</clus>
<clus scale="  323.189">  2  3  1 -1</clus>
</clustering>
</event>
<event>
 6    0  0.1230761E+002  0.1522828E+03  0.7546771E-02  0.1197696E+00
         -1   -1    0    0    0  501 -0.00000000000E+00  0.00000000000E+00  0.17626004518E+04  0.17626004518E+04  0.00000000000E+00 0. -1.
         21   -1    0    0  504  502  0.00000000000E+00 -0.00000000000E+00 -0.27781087452E+02  0.27781087452E+02  0.00000000000E+00 0. -1.
         21    1    1    2  503  502  0.58635906002E+01 -0.31479308102E+02  0.11494266930E+03  0.11931951122E+03  0.00000000000E+00 0. -1.
         21    1    1    2  504  505 -0.56040281048E+02  0.41724787966E+02  0.15745075374E+03  0.17225623612E+03  0.00000000000E+00 0. -1.
         21    1    1    2  505  501 -0.87526319118E+02 -0.11668043447E+01  0.11597464447E+03  0.14530084697E+03  0.00000000000E+00 0. -1.
         -1    1    1    2    0  503  0.13770300957E+03 -0.90786755196E+01  0.13464512968E+04  0.13535049449E+04  0.00000000000E+00 0. -1.
<scales pt_clust_3="32.02075" pt_clust_4="52.99133" pt_clust_5="52.99133" pt_clust_6="139.15933"></scales>
<clustering>
<clus scale="   32.021">  2  3  1 -1</clus>
<clus scale="   52.991">  4  5 -1 -1</clus>
<clus scale="  139.159">  1  6  2 -1</clus>
<clus scale="   32.021">  2  3  1 -1</clus>
</clustering>
</event>
<event>
 6    0  0.1230761E+002  0.8066849E+02  0.7546771E-02  0.1327165E+00
         21   -1    0    0  501  502  0.00000000000E+00  0.00000000000E+00  0.12889378371E+03  0.12889378371E+03  0.00000000000E+00 0. -1.
          1   -1    0    0  503    0 -0.00000000000E+00 -0.00000000000E+00 -0.14224717685E+04  0.14224717685E+04  0.00000000000E+00 0.  1.
         21    1    1    2  503  504 -0.35265467715E+02  0.20256475470E+02 -0.86661432509E+02  0.95729733605E+02  0.00000000000E+00 0. -1.
         21    1    1    2  504  505 -0.39780903077E+02  0.46066105569E+02 -0.68043987560E+03  0.68315666624E+03  0.00000000000E+00 0. -1.
         21    1    1    2  505  502  0.39598364623E+02  0.29447822838E+02  0.11383725178E+03  0.12407306172E+03  0.00000000000E+00 0. -1.
          1    1    1    2  501    0  0.35448006169E+02 -0.95770403877E+02 -0.64031392848E+03  0.64840609066E+03  0.00000000000E+00 0.  1.
<scales pt_clust_3="40.66913" pt_clust_4="80.66849" pt_clust_5="49.28568" pt_clust_6="14000.00000"></scales>
<clustering>
<clus scale="   40.669">  2  3  1 -1</clus>
<clus scale="   49.286">  1  5  2 -1</clus>
<clus scale="   80.668">  2  4  1 -1</clus>
<clus scale="   49.286">  1  3  2 -1</clus>
</clustering>
</event>
<event>
 6    0  0.1230761E+002  0.2573985E+03  0.7546771E-02  0.1108716E+00
          2   -1    0    0  504    0 -0.00000000000E+00  0.00000000000E+00  0.48911652644E+03  0.48911652644E+03  0.00000000000E+00 0.  1.
         21   -1    0    0  505  502  0.00000000000E+00 -0.00000000000E+00 -0.94796799477E+03  0.94796799477E+03  0.00000000000E+00 0. -1.
         21    1    1    2  503  502 -0.48186885864E+02 -0.22452077219E+02 -0.54959734475E+02  0.76463351707E+02  0.00000000000E+00 0. -1.
         21    1    1    2  504  503 -0.47099851267E+02  0.24285116865E+01  0.16157662230E+03  0.16831903794E+03  0.00000000000E+00 0.  1.
         21    1    1    2  505  501 -0.18715094734E+03  0.12411082274E+03 -0.78709677107E+03  0.81850491779E+03  0.00000000000E+00 0. -1.
          2    1    1    2  501    0  0.28243768447E+03 -0.10408725721E+03  0.22162841492E+03  0.37379721377E+03  0.00000000000E+00 0.  1.
<scales pt_clust_3="54.54773" pt_clust_4="47.16242" pt_clust_5="14000.00000" pt_clust_6="257.39847"></scales>
<clustering>
<clus scale="   47.162">  1  4  2 -1</clus>
<clus scale="   54.548">  2  3  1 -1</clus>
<clus scale="  257.398">  1  6  2 -1</clus>
<clus scale="   54.548">  2  3  1 -1</clus>
</clustering>
</event>
<event>
 6    0  0.1230761E+002  0.1246729E+03  0.7546771E-02  0.1235581E+00
          2   -1    0    0  505    0 -0.00000000000E+00  0.00000000000E+00  0.99469076546E+03  0.99469076546E+03  0.00000000000E+00 0.  1.
         21   -1    0    0  503  502  0.00000000000E+00 -0.00000000000E+00 -0.85083937950E+03  0.85083937950E+03  0.00000000000E+00 0.  1.
         21    1    1    2  503  504  0.44261348527E+02  0.52683717545E+02 -0.35600545070E+03  0.36259415604E+03  0.00000000000E+00 0.  1.
         21    1    1    2  504  501  0.51267458462E+02  0.67185885053E+01 -0.47652169684E+03  0.47931870326E+03  0.00000000000E+00 0.  1.
         21    1    1    2  505  502 -0.49581678961E+02 -0.78975814136E+02  0.15618466432E+03  0.18190429208E+03  0.00000000000E+00 0. -1.
          2    1    1    2  501    0 -0.45947128028E+02  0.19573508086E+02  0.82019386918E+03  0.82171299359E+03  0.00000000000E+00 0.  1.
<scales pt_clust_3="47.96337" pt_clust_4="47.96337" pt_clust_5="111.72242" pt_clust_6="49.94257"></scales>
<clustering>
<clus scale="   47.963">  3  4 -1 -1</clus>
<clus scale="   49.943">  1  6  2 -1</clus>
<clus scale="  111.722">  1  5  2 -1</clus>
<clus scale="  124.673">  2  3  1 -1</clus>
</clustering>
</event>
<event>
 6    0  0.1230761E+002  0.7634287E+02  0.7546771E-02  0.1339762E+00
          2   -1    0    0  503    0 -0.00000000000E+00  0.00000000000E+00  0.19557729572E+04  0.19557729572E+04  0.00000000000E+00 0.  1.
         21   -1    0    0  501  502  0.00000000000E+00 -0.00000000000E+00 -0.20646756095E+03  0.20646756095E+03  0.00000000000E+00 0.  1.
         21    1    1    2  503  504  0.33135563490E+02 -0.10633494082E+02  0.65131066590E+03  0.65223969541E+03  0.00000000000E+00 0.  1.
         21    1    1    2  504  505 -0.89339102184E+02 -0.31727143789E+02 -0.72994284438E+02  0.11965054280E+03  0.00000000000E+00 0.  1.
         21    1    1    2  505  502  0.66576343361E+02 -0.40773927970E+02 -0.94225086054E+02  0.12236539355E+03  0.00000000000E+00 0. -1.
          2    1    1    2  501    0 -0.10372804667E+02  0.83134565840E+02  0.12652141008E+04  0.12679848863E+04  0.00000000000E+00 0.  1.
<scales pt_clust_3="34.79995" pt_clust_4="76.34287" pt_clust_5="14000.00000" pt_clust_6="76.00330"></scales>
<clustering>
<clus scale="   34.800">  1  3  2 -1</clus>
<clus scale="   76.003">  1  6  2 -1</clus>
<clus scale="   76.343">  1  4  2 -1</clus>
<clus scale="   76.343">  2  3  1 -1</clus>
</clustering>
</event>
<event>
 6    0  0.1230761E+002  0.2824577E+03  0.7546771E-02  0.1094354E+00
          2   -1    0    0  504    0 -0.00000000000E+00  0.00000000000E+00  0.84042000172E+03  0.84042000172E+03  0.00000000000E+00 0. -1.
         21   -1    0    0  505  502  0.00000000000E+00 -0.00000000000E+00 -0.54520405064E+03  0.54520405064E+03  0.00000000000E+00 0.  1.
         21    1    1    2  503  501  0.30494843332E+02 -0.15392840988E+03 -0.30993485796E+03  0.34739531807E+03  0.00000000000E+00 0.  1.
         21    1    1    2  504  502  0.31181611921E+02  0.41656251840E+02  0.26857593397E+02  0.58556524507E+02  0.00000000000E+00 0. -1.
         21    1    1    2  505  503 -0.38607688534E+02 -0.11723640635E+03 -0.16234934154E+03  0.20394174974E+03  0.00000000000E+00 0. -1.
          2    1    1    2  501    0 -0.23068766718E+02  0.22950856440E+03  0.74064255718E+03  0.77573046004E+03  0.00000000000E+00 0. -1.
<scales pt_clust_3="75.70130" pt_clust_4="52.03399" pt_clust_5="75.70130" pt_clust_6="269.18090"></scales>
<clustering>
<clus scale="   52.034">  1  4  2 -1</clus>
<clus scale="   75.701">  3  5 -1 -1</clus>
<clus scale="  269.181">  1  6  2 -1</clus>
<clus scale="  282.458">  2  3  1 -1</clus>
</clustering>
</event>
<event>
 6    0  0.1230761E+002  0.1069854E+03  0.7546771E-02  0.1266256E+00
         21   -1    0    0  503  502  0.00000000000E+00  0.00000000000E+00  0.22881603609E+02  0.22881603609E+02  0.00000000000E+00 0. -1.
          2   -1    0    0  504    0 -0.00000000000E+00 -0.00000000000E+00 -0.18028671381E+04  0.18028671381E+04  0.00000000000E+00 0. -1.
         21    1    1    2  503  501  0.12164096774E+02 -0.41577971376E+02 -0.84812090866E+02  0.95235412065E+02  0.00000000000E+00 0. -1.
         21    1    1    2  504  505 -0.20196957524E+02 -0.25081583784E+02 -0.23147994670E+03  0.23370915399E+03  0.00000000000E+00 0. -1.
         21    1    1    2  505  502 -0.89183347011E+02 -0.30683800053E+02 -0.15892977408E+03  0.18480757035E+03  0.00000000000E+00 0. -1.
          2    1    1    2  501    0  0.97216207761E+02  0.97343355213E+02 -0.13047637228E+04  0.13119966053E+04  0.00000000000E+00 0. -1.
<scales pt_clust_3="44.40162" pt_clust_4="32.20253" pt_clust_5="14000.00000" pt_clust_6="106.98545"></scales>
<clustering>
<clus scale="   32.203">  2  4  1 -1</clus>
<clus scale="   44.402">  1  3  2 -1</clus>
<clus scale="  106.985">  2  6  1 -1</clus>
<clus scale="   44.402">  1  3  2 -1</clus>
</clustering>
</event>
<event>
 6    0  0.1230761E+002  0.7778775E+02  0.7546771E-02  0.1335449E+00
          2   -1    0    0  503    0 -0.00000000000E+00  0.00000000000E+00  0.17559632775E+04  0.17559632775E+04  0.00000000000E+00 0.  1.
         21   -1    0    0  501  502  0.00000000000E+00 -0.00000000000E+00 -0.16144429691E+03  0.16144429691E+03  0.00000000000E+00 0. -1.
         21    1    1    2  503  504  0.25049027879E+02  0.69681660594E+02  0.73562956621E+03  0.73934690525E+03  0.00000000000E+00 0.  1.
         21    1    1    2  504  505  0.65381160802E+02 -0.18674945709E+02 -0.13807124557E+03  0.15390620078E+03  0.00000000000E+00 0. -1.
         21    1    1    2  505  502 -0.28844321227E+02  0.84972257791E+01  0.74949553164E+01  0.30989870413E+02  0.00000000000E+00 0. -1.
          2    1    1    2  501    0 -0.61585867453E+02 -0.59503940664E+02  0.98946570461E+03  0.99316459796E+03  0.00000000000E+00 0.  1.
<scales pt_clust_3="14000.00000" pt_clust_4="38.67269" pt_clust_5="30.06988" pt_clust_6="77.78775"></scales>
<clustering>
<clus scale="   30.070">  2  5  1 -1</clus>
<clus scale="   38.673">  2  4  1 -1</clus>
<clus scale="   77.788">  1  6  2 -1</clus>
<clus scale="   30.070">  2  3  1 -1</clus>
</clustering>
</event>
<event>
 6    0  0.1230761E+002  0.1534199E+03  0.7546771E-02  0.1196333E+00
         -4   -1    0    0    0  501 -0.00000000000E+00  0.00000000000E+00  0.46425005801E+03  0.46425005801E+03  0.00000000000E+00 0. -1.
         21   -1    0    0  504  502  0.00000000000E+00 -0.00000000000E+00 -0.19722975981E+03  0.19722975981E+03  0.00000000000E+00 0. -1.
         21    1    1    2  503  505 -0.44206182838E+02 -0.16747748849E+01  0.10773383226E+02  0.45530838540E+02  0.00000000000E+00 0.  1.
         21    1    1    2  504  503 -0.10823750967E+03 -0.12494625427E+02 -0.63690476332E+02  0.12620598615E+03  0.00000000000E+00 0. -1.
         21    1    1    2  505  501  0.19015260263E+02  0.26198881515E+02  0.35077862770E+03  0.35226922541E+03  0.00000000000E+00 0. -1.
         -4    1    1    2    0  502  0.13342843225E+03 -0.12029481203E+02 -0.30841236392E+02  0.13747376772E+03  0.00000000000E+00 0. -1.
<scales pt_clust_3="35.42038" pt_clust_4="35.42038" pt_clust_5="32.37223" pt_clust_6="142.42257"></scales>
<clustering>
<clus scale="   32.372">  1  5  2 -1</clus>
<clus scale="   35.420">  3  4 -1 -1</clus>
<clus scale="  142.423">  2  6  1 -1</clus>
<clus scale="  142.423">  2  3  1 -1</clus>
</clustering>
</event>
<event>
 6    0  0.1230761E+002  0.1326433E+03  0.7546771E-02  0.1223585E+00
         21   -1    0    0  503  502  0.00000000000E+00  0.00000000000E+00  0.69495083520E+03  0.69495083520E+03  0.00000000000E+00 0. -1.
         -1   -1    0    0    0  501 -0.00000000000E+00 -0.00000000000E+00 -0.71991841623E+03  0.71991841623E+03  0.00000000000E+00 0. -1.
         21    1    1    2  503  504 -0.29447026990E+02 -0.61996215997E+01  0.25729640112E+03  0.25905018960E+03  0.00000000000E+00 0. -1.
         21    1    1    2  504  505  0.33307362441E+02 -0.40646954122E+02  0.39428845136E+03  0.39777498431E+03  0.00000000000E+00 0. -1.
         21    1    1    2  505  501 -0.46730084850E+02  0.13327446996E+03 -0.63915691616E+03  0.65457417352E+03  0.00000000000E+00 0. -1.
         -1    1    1    2    0  502  0.42869749399E+02 -0.86427894233E+02 -0.37395517348E+02  0.10346990400E+03  0.00000000000E+00 0. -1.
<scales pt_clust_3="30.09257" pt_clust_4="46.73763" pt_clust_5="132.64327" pt_clust_6="14000.00000"></scales>
<clustering>
<clus scale="   30.093">  1  3  2 -1</clus>
<clus scale="   46.738">  1  4  2 -1</clus>
<clus scale="  132.643">  2  5  1 -1</clus>
<clus scale="   30.093">  1  3  2 -1</clus>
</clustering>
</event>
<event>
 6    0  0.1230761E+002  0.7833824E+02  0.7546771E-02  0.1333835E+00
          2   -1    0    0  504    0 -0.00000000000E+00  0.00000000000E+00  0.13563978898E+03  0.13563978898E+03  0.00000000000E+00 0. -1.
         21   -1    0    0  503  502  0.00000000000E+00 -0.00000000000E+00 -0.34482668252E+03  0.34482668252E+03  0.00000000000E+00 0. -1.
         21    1    1    2  503  501  0.60085998636E+02  0.27440309774E+02 -0.96375352709E+02  0.11683966126E+03  0.00000000000E+00 0.  1.
         21    1    1    2  504  505  0.29648689826E+02 -0.10281284922E+02  0.13770354087E+02  0.34269115537E+02  0.00000000000E+00 0. -1.
         21    1    1    2  505  502 -0.68469209166E+02  0.55114036485E+02 -0.20351281975E+03  0.22168233449E+03  0.00000000000E+00 0. -1.
          2    1    1    2  501    0 -0.21265479296E+02 -0.72273061337E+02  0.76930924825E+02  0.10767536022E+03  0.00000000000E+00 0. -1.
<scales pt_clust_3="68.16496" pt_clust_4="31.38072" pt_clust_5="78.33824" pt_clust_6="14000.00000"></scales>
<clustering>
<clus scale="   31.381">  1  4  2 -1</clus>
<clus scale="   68.165">  2  3  1 -1</clus>
<clus scale="   78.338">  2  5  1 -1</clus>
<clus scale="   68.165">  2  3  1 -1</clus>
</clustering>
</event>
<event>
 6    0  0.1230761E+002  0.3031949E+03  0.7546771E-02  0.1083654E+00
         21   -1    0    0  504  502  0.00000000000E+00  0.00000000000E+00  0.38721935919E+03  0.38721935919E+03  0.00000000000E+00 0.  1.
          2   -1    0    0  503    0 -0.00000000000E+00 -0.00000000000E+00 -0.26867395989E+04  0.26867395989E+04  0.00000000000E+00 0.  1.
         21    1    1    2  503  505  0.50496463939E+02  0.19590183066E+02 -0.21088925095E+03  0.21773365452E+03  0.00000000000E+00 0.  1.
         21    1    1    2  504  501 -0.22842143335E+03  0.16121420399E+02  0.25194661027E+03  0.34046049086E+03  0.00000000000E+00 0.  1.
         21    1    1    2  505  502 -0.59295891947E+02  0.94955005650E+02  0.40713826883E+02  0.11912208695E+03  0.00000000000E+00 0. -1.
          2    1    1    2  501    0  0.23722086135E+03 -0.13066660912E+03 -0.23812914260E+04  0.23966427258E+04  0.00000000000E+00 0.  1.
<scales pt_clust_3="54.16335" pt_clust_4="14000.00000" pt_clust_5="111.79101" pt_clust_6="303.19487"></scales>
<clustering>
<clus scale="   54.163">  2  3  1 -1</clus>
<clus scale="  111.791">  1  5  2 -1</clus>
<clus scale="  303.195">  2  6  1 -1</clus>
<clus scale="  111.791">  1  3  2 -1</clus>
</clustering>
</event>
<event>
 6    0  0.1230761E+002  0.1710884E+03  0.7546771E-02  0.1176718E+00
         21   -1    0    0  501  502  0.00000000000E+00  0.00000000000E+00  0.39499086494E+03  0.39499086494E+03  0.00000000000E+00 0.  1.
          1   -1    0    0  503    0 -0.00000000000E+00 -0.00000000000E+00 -0.43673641762E+03  0.43673641762E+03  0.00000000000E+00 0. -1.
         21    1    1    2  503  505  0.10233940813E+03  0.72807882278E+02 -0.54729316092E+02  0.13700233654E+03  0.00000000000E+00 0.  1.
         21    1    1    2  504  502  0.22497351339E+02  0.21664926469E+02  0.20266872652E+03  0.20506124101E+03  0.00000000000E+00 0.  1.
         21    1    1    2  505  504  0.15188426205E+02  0.61077164857E+02  0.10845688139E+03  0.12539538859E+03  0.00000000000E+00 0.  1.
          1    1    1    2  501    0 -0.14002518567E+03 -0.15554997360E+03 -0.29814184449E+03  0.36426831642E+03  0.00000000000E+00 0. -1.
<scales pt_clust_3="14000.00000" pt_clust_4="31.23299" pt_clust_5="79.77053" pt_clust_6="171.08845"></scales>
<clustering>
<clus scale="   31.233">  1  4  2 -1</clus>
<clus scale="   79.771">  1  5  2 -1</clus>
<clus scale="  171.088">  2  6  1 -1</clus>
<clus scale="   31.233">  1  3  2 -1</clus>
</clustering>
</event>
<event>
 6    0  0.1230761E+002  0.8741973E+02  0.7546771E-02  0.1309223E+00
          1   -1    0    0  505    0 -0.00000000000E+00  0.00000000000E+00  0.52370416940E+03  0.52370416940E+03  0.00000000000E+00 0. -1.
         21   -1    0    0  504  502  0.00000000000E+00 -0.00000000000E+00 -0.32250841474E+03  0.32250841474E+03  0.00000000000E+00 0. -1.
         21    1    1    2  503  502 -0.22469899955E+02  0.24728840705E+02 -0.10243388818E+03  0.10774559580E+03  0.00000000000E+00 0. -1.
         21    1    1    2  504  501  0.10082335094E+02  0.37229977259E+02 -0.18604756945E+03  0.19000374414E+03  0.00000000000E+00 0. -1.
         21    1    1    2  505  503  0.21235274537E+01  0.77543544092E+02  0.31640896350E+03  0.32577928538E+03  0.00000000000E+00 0. -1.
          1    1    1    2  501    0  0.10264037407E+02 -0.13950236206E+03  0.17326824878E+03  0.22268395883E+03  0.00000000000E+00 0. -1.
<scales pt_clust_3="33.41275" pt_clust_4="59.35672" pt_clust_5="14000.00000" pt_clust_6="87.41973"></scales>
<clustering>
<clus scale="   33.413">  2  3  1 -1</clus>
<clus scale="   59.357">  2  4  1 -1</clus>
<clus scale="   87.420">  2  6  1 -1</clus>
<clus scale="   33.413">  2  3  1 -1</clus>
</clustering>
</event>
<event>
 6    0  0.1230761E+002  0.1639356E+03  0.7546771E-02  0.1184324E+00
          2   -1    0    0  502    0 -0.00000000000E+00  0.00000000000E+00  0.10479510383E+04  0.10479510383E+04  0.00000000000E+00 0. -1.
         21   -1    0    0  504  502  0.00000000000E+00 -0.00000000000E+00 -0.30239454703E+03  0.30239454703E+03  0.00000000000E+00 0. -1.
         21    1    1    2  503  505  0.58417465496E+02 -0.10109563311E+03 -0.20284317039E+03  0.23404760003E+03  0.00000000000E+00 0. -1.
         21    1    1    2  504  503  0.79551153481E+02 -0.13601365685E+02 -0.51468079633E+02  0.95720146206E+02  0.00000000000E+00 0. -1.
         21    1    1    2  505  501 -0.74628130860E+02  0.71670264703E+02  0.31766859456E+03  0.33409477806E+03  0.00000000000E+00 0. -1.
          2    1    1    2  501    0 -0.63340488117E+02  0.43026734094E+02  0.68219914674E+03  0.68648306104E+03  0.00000000000E+00 0. -1.
<scales pt_clust_3="14000.00000" pt_clust_4="76.48946" pt_clust_5="163.93556" pt_clust_6="76.57230"></scales>
<clustering>
<clus scale="   76.572">  1  6  2 -1</clus>
<clus scale="   76.489">  2  4  1 -1</clus>
<clus scale="  163.936">  1  5  2 -1</clus>
<clus scale="   76.489">  2  3  1 -1</clus>
</clustering>
</event>
<event>
 6    0  0.1230761E+002  0.1272557E+03  0.7546771E-02  0.1231586E+00
         21   -1    0    0  501  502  0.00000000000E+00  0.00000000000E+00  0.92657426048E+02  0.92657426048E+02  0.00000000000E+00 0. -1.
          2   -1    0    0  505    0 -0.00000000000E+00 -0.00000000000E+00 -0.12138850560E+04  0.12138850560E+04  0.00000000000E+00 0. -1.
         21    1    1    2  503  502  0.56362215976E+02  0.48772129706E+02  0.45393368578E+02  0.87269570508E+02  0.00000000000E+00 0. -1.
         21    1    1    2  504  503  0.59751808304E+02  0.58767986680E+02 -0.86505846486E+02  0.12044590624E+03  0.00000000000E+00 0. -1.
         21    1    1    2  505  504 -0.46142626497E+02  0.15767621930E+01 -0.99598398435E+02  0.10977918350E+03  0.00000000000E+00 0. -1.
          2    1    1    2  501    0 -0.69971397783E+02 -0.10911687858E+03 -0.98051675357E+03  0.98904782176E+03  0.00000000000E+00 0. -1.
<scales pt_clust_3="73.89788" pt_clust_4="14000.00000" pt_clust_5="46.16956" pt_clust_6="127.25568"></scales>
<clustering>
<clus scale="   46.170">  2  5  1 -1</clus>
<clus scale="   73.898">  1  3  2 -1</clus>
<clus scale="  127.256">  2  6  1 -1</clus>
<clus scale="   73.898">  1  3  2 -1</clus>
</clustering>
</event>
<event>
 6    0  0.1230761E+002  0.9573262E+02  0.7546771E-02  0.1289535E+00
         21   -1    0    0  505  502  0.00000000000E+00  0.00000000000E+00  0.27773194814E+03  0.27773194814E+03  0.00000000000E+00 0.  1.
          1   -1    0    0  503    0 -0.00000000000E+00 -0.00000000000E+00 -0.50783869729E+03  0.50783869729E+03  0.00000000000E+00 0.  1.
         21    1    1    2  503  504  0.29554661454E+02 -0.61823311282E+02 -0.15372364851E+03  0.16830496113E+03  0.00000000000E+00 0.  1.
         21    1    1    2  504  502  0.24313628018E+02  0.47426923650E+02  0.23341183392E+03  0.23941919265E+03  0.00000000000E+00 0.  1.
         21    1    1    2  505  501  0.46233820121E+02  0.24792581253E+02 -0.36664794298E+00  0.52463059755E+02  0.00000000000E+00 0.  1.
          1    1    1    2  501    0 -0.10010210959E+03 -0.10396193621E+02 -0.30942828662E+03  0.32538343189E+03  0.00000000000E+00 0.  1.
<scales pt_clust_3="68.47096" pt_clust_4="95.73262" pt_clust_5="52.46178" pt_clust_6="14000.00000"></scales>
<clustering>
<clus scale="   52.462">  1  5  2 -1</clus>
<clus scale="   68.471">  2  3  1 -1</clus>
<clus scale="   95.733">  1  4  2 -1</clus>
<clus scale="   52.462">  1  3  2 -1</clus>
</clustering>
</event>
<event>
 6    0  0.1230761E+002  0.1154255E+03  0.7546771E-02  0.1250840E+00
         21   -1    0    0  503  502  0.00000000000E+00  0.00000000000E+00  0.23787975440E+03  0.23787975440E+03  0.00000000000E+00 0. -1.
          2   -1    0    0  504    0 -0.00000000000E+00 -0.00000000000E+00 -0.47388909515E+03  0.47388909515E+03  0.00000000000E+00 0. -1.
         21    1    1    2  503  501  0.10619557072E+03 -0.65144907106E+02  0.13821413324E+03  0.18607661000E+03  0.00000000000E+00 0. -1.
         21    1    1    2  504  505  0.34279006873E+02 -0.11402342374E+02 -0.62490594196E+02  0.72181286264E+02  0.00000000000E+00 0.  1.
         21    1    1    2  505  502  0.31981044895E+01  0.40102524254E+02  0.49067204235E+02  0.63451011460E+02  0.00000000000E+00 0.  1.
          2    1    1    2  501    0 -0.14367268208E+03  0.36444725226E+02 -0.36080008403E+03  0.39005994182E+03  0.00000000000E+00 0. -1.
<scales pt_clust_3="14000.00000" pt_clust_4="36.12567" pt_clust_5="40.08178" pt_clust_6="115.42548"></scales>
<clustering>
<clus scale="   36.126">  2  4  1 -1</clus>
<clus scale="   40.082">  1  5  2 -1</clus>
<clus scale="  115.425">  2  6  1 -1</clus>
<clus scale="   40.082">  1  3  2 -1</clus>
</clustering>
</event>
<event>
 6    0  0.1230761E+002  0.1945422E+03  0.7546771E-02  0.1154427E+00
         21   -1    0    0  505  502  0.00000000000E+00  0.00000000000E+00  0.96181750063E+02  0.96181750063E+02  0.00000000000E+00 0. -1.
          2   -1    0    0  504    0 -0.00000000000E+00 -0.00000000000E+00 -0.18266546855E+04  0.18266546855E+04  0.00000000000E+00 0.  1.
         21    1    1    2  503  502 -0.50269925662E+02  0.18410292415E+03 -0.39899604037E+02  0.19496905013E+03  0.00000000000E+00 0. -1.
         21    1    1    2  504  503  0.48950712793E+02  0.10912067527E+02 -0.22964172305E+03  0.23505439044E+03  0.00000000000E+00 0.  1.
         21    1    1    2  505  501  0.42676282939E+02  0.10267933831E+02 -0.50454260238E+02  0.66875466105E+02  0.00000000000E+00 0.  1.
          2    1    1    2  501    0 -0.41357070070E+02 -0.20528292551E+03 -0.14104773481E+04  0.14259375289E+04  0.00000000000E+00 0.  1.
<scales pt_clust_3="194.54223" pt_clust_4="51.50239" pt_clust_5="43.89414" pt_clust_6="14000.00000"></scales>
<clustering>
<clus scale="   43.894">  1  5  2 -1</clus>
<clus scale="   51.502">  2  4  1 -1</clus>
<clus scale="  194.542">  1  3  2 -1</clus>
<clus scale="   43.894">  1  3  2 -1</clus>
</clustering>
</event>
<event>
 6    0  0.1230761E+002  0.1104220E+03  0.7546771E-02  0.1259790E+00
         -3   -1    0    0    0  501 -0.00000000000E+00  0.00000000000E+00  0.12525648062E+03  0.12525648062E+03  0.00000000000E+00 0. -1.
         21   -1    0    0  504  502  0.00000000000E+00 -0.00000000000E+00 -0.44075943985E+03  0.44075943985E+03  0.00000000000E+00 0.  1.
         21    1    1    2  503  505  0.97831939055E+02  0.22619042663E+02 -0.21177895783E+03  0.23437797757E+03  0.00000000000E+00 0.  1.
         21    1    1    2  504  501  0.62563966920E+02  0.66120550331E+01 -0.29825009042E+02  0.69623992940E+02  0.00000000000E+00 0.  1.
         21    1    1    2  505  502  0.57439702678E+01 -0.34790127024E+02 -0.88377137375E+02  0.95151797373E+02  0.00000000000E+00 0.  1.
         -3    1    1    2    0  503 -0.16613987624E+03  0.55590293278E+01  0.14478145019E+02  0.16686215259E+03  0.00000000000E+00 0. -1.
<scales pt_clust_3="110.42203" pt_clust_4="63.40397" pt_clust_5="35.26111" pt_clust_6="14000.00000"></scales>
<clustering>
<clus scale="   35.261">  2  5  1 -1</clus>
<clus scale="   63.404">  1  4  2 -1</clus>
<clus scale="  110.422">  2  3  1 -1</clus>
<clus scale="   35.261">  2  3  1 -1</clus>
</clustering>
</event>
<event>
 6    0  0.1230761E+002  0.2662097E+03  0.7546771E-02  0.1103469E+00
          4   -1    0    0  505    0 -0.00000000000E+00  0.00000000000E+00  0.13046205604E+03  0.13046205604E+03  0.00000000000E+00 0.  1.
         21   -1    0    0  504  502  0.00000000000E+00 -0.00000000000E+00 -0.16351357310E+04  0.16351357310E+04  0.00000000000E+00 0. -1.
         21    1    1    2  503  501 -0.20874400831E+03 -0.17037955313E+03 -0.12474095387E+04  0.12761793802E+04  0.00000000000E+00 0. -1.
         21    1    1    2  504  503 -0.26387179534E+02  0.42527775721E+02 -0.14917784377E+03  0.15734968708E+03  0.00000000000E+00 0. -1.
         21    1    1    2  505  502 -0.91866452394E+01  0.28717131225E+02  0.22708227811E+02  0.37745618115E+02  0.00000000000E+00 0. -1.
          4    1    1    2  501    0  0.24431783309E+03  0.99134646180E+02 -0.13079452030E+03  0.29432310167E+03  0.00000000000E+00 0.  1.
<scales pt_clust_3="14000.00000" pt_clust_4="51.24193" pt_clust_5="30.15076" pt_clust_6="266.20974"></scales>
<clustering>
<clus scale="   30.151">  1  5  2 -1</clus>
<clus scale="   51.242">  2  4  1 -1</clus>
<clus scale="  266.210">  1  6  2 -1</clus>
<clus scale="   51.242">  2  3  1 -1</clus>
</clustering>
</event>
<event>
 6    0  0.1230761E+002  0.1212855E+03  0.7546771E-02  0.1240991E+00
          2   -1    0    0  503    0 -0.00000000000E+00  0.00000000000E+00  0.12696427420E+04  0.12696427420E+04  0.00000000000E+00 0. -1.
         21   -1    0    0  504  502  0.00000000000E+00 -0.00000000000E+00 -0.15252284669E+03  0.15252284669E+03  0.00000000000E+00 0. -1.
         21    1    1    2  503  502  0.47290864305E+02 -0.46559689249E+02  0.57616661903E+03  0.57997603692E+03  0.00000000000E+00 0. -1.
         21    1    1    2  504  505  0.40352613105E+02 -0.66840370119E+00 -0.88870687600E+02  0.97605221491E+02  0.00000000000E+00 0. -1.
         21    1    1    2  505  501  0.61248600991E+02 -0.66721614493E+02  0.33259374333E+01  0.90632371831E+02  0.00000000000E+00 0. -1.
          2    1    1    2  501    0 -0.14889207840E+03  0.11394970744E+03  0.62649802645E+03  0.65395195847E+03  0.00000000000E+00 0. -1.
<scales pt_clust_3="67.30923" pt_clust_4="40.35815" pt_clust_5="14000.00000" pt_clust_6="121.28550"></scales>
<clustering>
<clus scale="   40.358">  2  4  1 -1</clus>
<clus scale="   67.309">  1  3  2 -1</clus>
<clus scale="  121.286">  1  6  2 -1</clus>
<clus scale="   40.358">  2  3  1 -1</clus>
</clustering>
</event>
<event>
 6    0  0.1230761E+002  0.6118468E+02  0.7546771E-02  0.1392926E+00
         21   -1    0    0  505  502  0.00000000000E+00  0.00000000000E+00  0.50495638534E+03  0.50495638534E+03  0.00000000000E+00 0. -1.
          2   -1    0    0  503    0 -0.00000000000E+00 -0.00000000000E+00 -0.34574711574E+03  0.34574711574E+03  0.00000000000E+00 0. -1.
         21    1    1    2  503  504 -0.18589165629E+02  0.40521122642E+02 -0.26640305917E+02  0.51934808735E+02  0.00000000000E+00 0. -1.
         21    1    1    2  504  502  0.32039467441E+01  0.51913724534E+02  0.26349938216E+03  0.26858373828E+03  0.00000000000E+00 0. -1.
         21    1    1    2  505  501 -0.61410222217E+02 -0.32696602072E+02  0.21279387902E+03  0.22387835565E+03  0.00000000000E+00 0. -1.
          2    1    1    2  501    0  0.76795441102E+02 -0.59738245103E+02 -0.29044368565E+03  0.30630659842E+03  0.00000000000E+00 0. -1.
<scales pt_clust_3="44.58159" pt_clust_4="52.33879" pt_clust_5="14000.00000" pt_clust_6="61.18468"></scales>
<clustering>
<clus scale="   44.582">  2  3  1 -1</clus>
<clus scale="   52.339">  1  4  2 -1</clus>
<clus scale="   61.185">  2  6  1 -1</clus>
<clus scale="   52.339">  1  3  2 -1</clus>
</clustering>
</event>
<event>
 6    0  0.1230761E+002  0.1611649E+03  0.7546771E-02  0.1187388E+00
         21   -1    0    0  501  502  0.00000000000E+00  0.00000000000E+00  0.53647193259E+02  0.53647193259E+02  0.00000000000E+00 0. -1.
          1   -1    0    0  505    0 -0.00000000000E+00 -0.00000000000E+00 -0.24501724338E+04  0.24501724338E+04  0.00000000000E+00 0. -1.
         21    1    1    2  503  504 -0.30647648485E+02  0.14814615715E+03 -0.20792894292E+03  0.25714005433E+03  0.00000000000E+00 0. -1.
         21    1    1    2  504  502  0.76234654323E+02 -0.27278161129E+02 -0.66925035442E+02  0.10504656569E+03  0.00000000000E+00 0.  1.
         21    1    1    2  505  503  0.59417421665E+02 -0.15191678926E+03 -0.16176922452E+04  0.16258958580E+04  0.00000000000E+00 0. -1.
          1    1    1    2  501    0 -0.10500442750E+03  0.31048793242E+02 -0.50397901705E+03  0.51573714913E+03  0.00000000000E+00 0. -1.
<scales pt_clust_3="161.16494" pt_clust_4="80.96802" pt_clust_5="14000.00000" pt_clust_6="95.76035"></scales>
<clustering>
<clus scale="   80.968">  1  4  2 -1</clus>
<clus scale="   95.760">  1  6  2 -1</clus>
<clus scale="  161.165">  1  3  2 -1</clus>
<clus scale="   80.968">  1  3  2 -1</clus>
</clustering>
</event>
<event>
 6    0  0.1230761E+002  0.3077551E+03  0.7546771E-02  0.1081427E+00
          2   -1    0    0  503    0 -0.00000000000E+00  0.00000000000E+00  0.50408084334E+03  0.50408084334E+03  0.00000000000E+00 0.  1.
         21   -1    0    0  505  502  0.00000000000E+00 -0.00000000000E+00 -0.24535792277E+04  0.24535792277E+04  0.00000000000E+00 0.  1.
         21    1    1    2  503  502 -0.33804379225E+02 -0.97540106084E+01  0.10393308698E+03  0.10972676678E+03  0.00000000000E+00 0. -1.
         21    1    1    2  504  501  0.10884688695E+03  0.18200924433E+03 -0.15472614057E+04  0.15617275266E+04  0.00000000000E+00 0.  1.
         21    1    1    2  505  504  0.75500037699E+02  0.57865229456E+02 -0.84471310683E+03  0.85005227682E+03  0.00000000000E+00 0.  1.
          2    1    1    2  501    0 -0.15054254543E+03 -0.23012046318E+03  0.33854304118E+03  0.43615350083E+03  0.00000000000E+00 0.  1.
<scales pt_clust_3="35.18347" pt_clust_4="40.27223" pt_clust_5="40.27223" pt_clust_6="301.82277"></scales>
<clustering>
<clus scale="   35.183">  1  3  2 -1</clus>
<clus scale="   40.272">  4  5 -1 -1</clus>
<clus scale="  301.823">  1  6  2 -1</clus>
<clus scale="  307.755">  2  3  1 -1</clus>
</clustering>
</event>
<event>
 6    0  0.1230761E+002  0.1739464E+03  0.7546771E-02  0.1173794E+00
         21   -1    0    0  505  502  0.00000000000E+00  0.00000000000E+00  0.65205477632E+03  0.65205477632E+03  0.00000000000E+00 0. -1.
         -2   -1    0    0    0  501 -0.00000000000E+00 -0.00000000000E+00 -0.23113695081E+03  0.23113695081E+03  0.00000000000E+00 0. -1.
         21    1    1    2  503  504 -0.27881443778E+02  0.67349301859E+02  0.19882279968E+03  0.21176356873E+03  0.00000000000E+00 0. -1.
         21    1    1    2  504  502 -0.67379628907E+02  0.73133911783E+02  0.39496504827E+03  0.40729101733E+03  0.00000000000E+00 0. -1.
         21    1    1    2  505  501  0.37467007156E+02  0.65302239515E+01 -0.55762231497E+02  0.67497014093E+02  0.00000000000E+00 0. -1.
         -2    1    1    2    0  503  0.57794065530E+02 -0.14701343759E+03 -0.11710779093E+03  0.19664012698E+03  0.00000000000E+00 0. -1.
<scales pt_clust_3="36.66914" pt_clust_4="36.66914" pt_clust_5="38.03183" pt_clust_6="168.59113"></scales>
<clustering>
<clus scale="   36.669">  3  4 -1 -1</clus>
<clus scale="   38.032">  2  5  1 -1</clus>
<clus scale="  168.591">  2  6  1 -1</clus>
<clus scale="  173.946">  1  3  2 -1</clus>
</clustering>
</event>
<event>
 6    0  0.1230761E+002  0.2596723E+03  0.7546771E-02  0.1107340E+00
         21   -1    0    0  505  502  0.00000000000E+00  0.00000000000E+00  0.14110031936E+03  0.14110031936E+03  0.00000000000E+00 0. -1.
          1   -1    0    0  503    0 -0.00000000000E+00 -0.00000000000E+00 -0.16296306490E+04  0.16296306490E+04  0.00000000000E+00 0. -1.
         21    1    1    2  503  502 -0.34699394513E+02 -0.17686940847E+01 -0.16918841723E+03  0.17271912686E+03  0.00000000000E+00 0. -1.
         21    1    1    2  504  501 -0.37778506692E+02 -0.21577905167E+03 -0.40627174256E+03  0.46156748532E+03  0.00000000000E+00 0. -1.
         21    1    1    2  505  504  0.51920451533E+02  0.27081545121E+03 -0.60937105508E+02  0.28240055370E+03  0.00000000000E+00 0. -1.
          1    1    1    2  501    0  0.20557449671E+02 -0.53267705453E+02 -0.85213306436E+03  0.85404380248E+03  0.00000000000E+00 0. -1.
<scales pt_clust_3="34.74444" pt_clust_4="259.67234" pt_clust_5="14000.00000" pt_clust_6="54.30274"></scales>
<clustering>
<clus scale="   34.744">  2  3  1 -1</clus>
<clus scale="   54.303">  2  6  1 -1</clus>
<clus scale="  259.672">  2  4  1 -1</clus>
<clus scale="  259.672">  1  3  2 -1</clus>
</clustering>
</event>
<event>
 6    0  0.1230761E+002  0.7409600E+02  0.7546771E-02  0.1346694E+00
         -2   -1    0    0    0  501 -0.00000000000E+00  0.00000000000E+00  0.13415074120E+03  0.13415074120E+03  0.00000000000E+00 0.  1.
         21   -1    0    0  504  502  0.00000000000E+00 -0.00000000000E+00 -0.29987897680E+04  0.29987897680E+04  0.00000000000E+00 0.  1.
         21    1    1    2  503  502 -0.80153301265E+02 -0.24802055418E+02 -0.24018557447E+04  0.24033207676E+04  0.00000000000E+00 0.  1.
         21    1    1    2  504  505  0.57384215053E+02 -0.10892241533E+02 -0.54544566048E+03  0.54856408704E+03  0.00000000000E+00 0.  1.
         21    1    1    2  505  501  0.38338242507E+02 -0.30331736712E+02 -0.24147225698E+02  0.54524522918E+02  0.00000000000E+00 0. -1.
         -2    1    1    2    0  503 -0.15569156295E+02  0.66026033663E+02  0.10680960408E+03  0.12653113163E+03  0.00000000000E+00 0.  1.
<scales pt_clust_3="14000.00000" pt_clust_4="74.09600" pt_clust_5="48.88594" pt_clust_6="42.44387"></scales>
<clustering>
<clus scale="   48.886">  1  5  2 -1</clus>
<clus scale="   42.444">  1  6  2 -1</clus>
<clus scale="   74.096">  1  4  2 -1</clus>
<clus scale="   74.096">  2  3  1 -1</clus>
</clustering>
</event>
<event>
 6    0  0.1230761E+002  0.9294126E+02  0.7546771E-02  0.1295881E+00
          1   -1    0    0  505    0 -0.00000000000E+00  0.00000000000E+00  0.71875443190E+03  0.71875443190E+03  0.00000000000E+00 0.  1.
         21   -1    0    0  503  502  0.00000000000E+00 -0.00000000000E+00 -0.53046222951E+02  0.53046222951E+02  0.00000000000E+00 0. -1.
         21    1    1    2  503  501  0.19957132329E+02  0.43855245372E+02  0.30141752377E+01  0.48276857083E+02  0.00000000000E+00 0. -1.
         21    1    1    2  504  502 -0.61064802584E+02  0.38156475120E+02  0.75333765288E+02  0.10421133768E+03  0.00000000000E+00 0. -1.
         21    1    1    2  505  504 -0.20742075814E+02  0.41115582804E+02  0.26140387743E+03  0.26542929754E+03  0.00000000000E+00 0.  1.
          1    1    1    2  501    0  0.61849746069E+02 -0.12312730330E+03  0.32595639099E+03  0.35388316255E+03  0.00000000000E+00 0.  1.
<scales pt_clust_3="49.84757" pt_clust_4="92.94126" pt_clust_5="46.05133" pt_clust_6="14000.00000"></scales>
<clustering>
<clus scale="   46.051">  1  5  2 -1</clus>
<clus scale="   49.848">  2  3  1 -1</clus>
<clus scale="   92.941">  2  4  1 -1</clus>
<clus scale="   49.848">  2  3  1 -1</clus>
</clustering>
</event>
<event>
 6    0  0.1230761E+002  0.1136471E+03  0.7546771E-02  0.1253961E+00
         21   -1    0    0  505  502  0.00000000000E+00  0.00000000000E+00  0.10659892034E+03  0.10659892034E+03  0.00000000000E+00 0. -1.
          4   -1    0    0  504    0 -0.00000000000E+00 -0.00000000000E+00 -0.15942413984E+04  0.15942413984E+04  0.00000000000E+00 0.  1.
         21    1    1    2  503  502  0.18600170094E+02  0.43852214326E+02  0.73737004418E+02  0.87784559288E+02  0.00000000000E+00 0. -1.
         21    1    1    2  504  503  0.93184471589E+02  0.24904319007E+02 -0.36011992630E+03  0.37281353539E+03  0.00000000000E+00 0.  1.
         21    1    1    2  505  501 -0.22645587092E+02  0.23463422271E+02 -0.45999606027E+00  0.32612365688E+02  0.00000000000E+00 0. -1.
          4    1    1    2  501    0 -0.89139054592E+02 -0.92219955604E+02 -0.12007995602E+04  0.12076298584E+04  0.00000000000E+00 0.  1.
<scales pt_clust_3="64.80518" pt_clust_4="113.64709" pt_clust_5="32.60912" pt_clust_6="14000.00000"></scales>
<clustering>
<clus scale="   32.609">  1  5  2 -1</clus>
<clus scale="   64.805">  1  3  2 -1</clus>
<clus scale="  113.647">  1  4  2 -1</clus>
<clus scale="   32.609">  1  3  2 -1</clus>
</clustering>
</event>
<event>
 6    0  0.1230761E+002  0.8402774E+02  0.7546771E-02  0.1317995E+00
         21   -1    0    0  503  502  0.00000000000E+00  0.00000000000E+00  0.10057945588E+03  0.10057945588E+03  0.00000000000E+00 0.  1.
          1   -1    0    0  504    0 -0.00000000000E+00 -0.00000000000E+00 -0.47923782300E+03  0.47923782300E+03  0.00000000000E+00 0. -1.
         21    1    1    2  503  501  0.42187844963E+02 -0.35160713560E+02  0.57828023165E+02  0.79750675883E+02  0.00000000000E+00 0.  1.
         21    1    1    2  504  505  0.36445447145E+02  0.56249240080E+02 -0.14736789872E+03  0.16189362310E+03  0.00000000000E+00 0.  1.
         21    1    1    2  505  502  0.30750393940E+02 -0.19434386124E+02 -0.90333816726E+01  0.37481783255E+02  0.00000000000E+00 0.  1.
          1    1    1    2  501    0 -0.10938368605E+03 -0.16541403961E+01 -0.28008510989E+03  0.30069119664E+03  0.00000000000E+00 0. -1.
<scales pt_clust_3="14000.00000" pt_clust_4="67.12854" pt_clust_5="36.37694" pt_clust_6="84.02774"></scales>
<clustering>
<clus scale="   36.377">  1  5  2 -1</clus>
<clus scale="   67.129">  2  4  1 -1</clus>
<clus scale="   84.028">  2  6  1 -1</clus>
<clus scale="   36.377">  1  3  2 -1</clus>
</clustering>
</event>
<event>
 6    0  0.1230761E+002  0.1177827E+03  0.7546771E-02  0.1246800E+00
          2   -1    0    0  504    0 -0.00000000000E+00  0.00000000000E+00  0.66798932125E+03  0.66798932125E+03  0.00000000000E+00 0. -1.
         21   -1    0    0  503  502  0.00000000000E+00 -0.00000000000E+00 -0.32643388996E+03  0.32643388996E+03  0.00000000000E+00 0. -1.
         21    1    1    2  503  505 -0.53645954626E+01  0.82724720552E+02 -0.13552319094E+03  0.15886690517E+03  0.00000000000E+00 0. -1.
         21    1    1    2  504  502  0.81863121362E+02 -0.17488049482E+02  0.12669596216E+03  0.15185278839E+03  0.00000000000E+00 0. -1.
         21    1    1    2  505  501  0.71139880266E+02 -0.74842536395E+02 -0.13859572182E+03  0.17283246780E+03  0.00000000000E+00 0. -1.
          2    1    1    2  501    0 -0.14763840617E+03  0.96058653262E+01  0.48897838189E+03  0.51087104985E+03  0.00000000000E+00 0. -1.
<scales pt_clust_3="82.89848" pt_clust_4="14000.00000" pt_clust_5="66.54592" pt_clust_6="117.78273"></scales>
<clustering>
<clus scale="   82.898">  2  3  1 -1</clus>
<clus scale="   66.546">  2  5  1 -1</clus>
<clus scale="  117.783">  1  6  2 -1</clus>
<clus scale="   82.898">  2  3  1 -1</clus>
</clustering>
</event>
<event>
 6    0  0.1230761E+002  0.1000462E+03  0.7546771E-02  0.1280199E+00
         21   -1    0    0  504  502  0.00000000000E+00  0.00000000000E+00  0.20505059782E+03  0.20505059782E+03  0.00000000000E+00 0. -1.
          2   -1    0    0  503    0 -0.00000000000E+00 -0.00000000000E+00 -0.11409623572E+04  0.11409623572E+04  0.00000000000E+00 0. -1.
         21    1    1    2  503  502  0.33305258390E+00 -0.33309856185E+02 -0.57346538074E+01  0.33801533950E+02  0.00000000000E+00 0. -1.
         21    1    1    2  504  505 -0.34954693369E+02  0.35032802733E+02  0.17322046390E+03  0.18015120585E+03  0.00000000000E+00 0. -1.
         21    1    1    2  505  501  0.67956290872E+02  0.90228117883E+02 -0.26627199687E+03  0.28924029291E+03  0.00000000000E+00 0. -1.
          2    1    1    2  501    0 -0.33334650087E+02 -0.91951064431E+02 -0.83712557258E+03  0.84281992230E+03  0.00000000000E+00 0. -1.
<scales pt_clust_3="33.31152" pt_clust_4="34.90293" pt_clust_5="100.04619" pt_clust_6="14000.00000"></scales>
<clustering>
<clus scale="   33.312">  1  3  2 -1</clus>
<clus scale="   34.903">  1  4  2 -1</clus>
<clus scale="  100.046">  1  5  2 -1</clus>
<clus scale="   33.312">  1  3  2 -1</clus>
</clustering>
</event>
<event>
 6    0  0.1230761E+002  0.2194811E+03  0.7546771E-02  0.1134271E+00
         21   -1    0    0  501  502  0.00000000000E+00  0.00000000000E+00  0.55116462386E+02  0.55116462386E+02  0.00000000000E+00 0.  1.
          2   -1    0    0  504    0 -0.00000000000E+00 -0.00000000000E+00 -0.25406501610E+04  0.25406501610E+04  0.00000000000E+00 0.  1.
         21    1    1    2  503  502 -0.12285879746E+03  0.68098520872E+02 -0.87380609655E+02  0.16542993563E+03  0.00000000000E+00 0.  1.
         21    1    1    2  504  505 -0.83472008203E+01  0.29012513463E+02 -0.11720060115E+03  0.12102637154E+03  0.00000000000E+00 0. -1.
         21    1    1    2  505  503 -0.62151476453E+02  0.16479674920E+02 -0.11479882159E+03  0.13157946325E+03  0.00000000000E+00 0.  1.
          2    1    1    2  501    0  0.19335747474E+03 -0.11359070925E+03 -0.21661536662E+04  0.21777308530E+04  0.00000000000E+00 0.  1.
<scales pt_clust_3="52.32982" pt_clust_4="30.18943" pt_clust_5="52.32982" pt_clust_6="205.46570"></scales>
<clustering>
<clus scale="   30.189">  2  4  1 -1</clus>
<clus scale="   52.330">  3  5 -1 -1</clus>
<clus scale="  205.466">  2  6  1 -1</clus>
<clus scale="  219.481">  1  3  2 -1</clus>
</clustering>
</event>
<event>
 6    0  0.1230761E+002  0.6595842E+02  0.7546771E-02  0.1374402E+00
         -2   -1    0    0    0  501 -0.00000000000E+00  0.00000000000E+00  0.46500757080E+03  0.46500757080E+03  0.00000000000E+00 0.  1.
         21   -1    0    0  505  502  0.00000000000E+00 -0.00000000000E+00 -0.18746176710E+04  0.18746176710E+04  0.00000000000E+00 0.  1.
         21    1    1    2  503  501  0.14941492471E+02  0.28335934804E+02  0.45110870713E+02  0.55327787367E+02  0.00000000000E+00 0.  1.
         21    1    1    2  504  502  0.16774692112E+01  0.59144526997E+02 -0.74646489552E+03  0.74880620271E+03  0.00000000000E+00 0.  1.
         21    1    1    2  505  503  0.63168958768E+02 -0.70424018534E+02 -0.11158288182E+04  0.11198320460E+04  0.00000000000E+00 0.  1.
         -2    1    1    2    0  504 -0.79787920450E+02 -0.17056443267E+02  0.40757274287E+03  0.41565920565E+03  0.00000000000E+00 0.  1.
<scales pt_clust_3="32.03394" pt_clust_4="59.24946" pt_clust_5="65.95842" pt_clust_6="14000.00000"></scales>
<clustering>
<clus scale="   32.034">  1  3  2 -1</clus>
<clus scale="   59.249">  2  4  1 -1</clus>
<clus scale="   65.958">  2  5  1 -1</clus>
<clus scale="   59.249">  2  3  1 -1</clus>
</clustering>
</event>
<event>
 6    0  0.1230761E+002  0.1343757E+03  0.7546771E-02  0.1221104E+00
         21   -1    0    0  501  502  0.00000000000E+00  0.00000000000E+00  0.17641146078E+03  0.17641146078E+03  0.00000000000E+00 0. -1.
          1   -1    0    0  503    0 -0.00000000000E+00 -0.00000000000E+00 -0.85066496923E+03  0.85066496923E+03  0.00000000000E+00 0. -1.
         21    1    1    2  503  504  0.66301570372E+02  0.15107536445E+03 -0.47034825641E+03  0.49844472742E+03  0.00000000000E+00 0. -1.
         21    1    1    2  504  505  0.35292356467E+02 -0.70607009978E+02  0.50960757778E+02  0.93956900313E+02  0.00000000000E+00 0. -1.
         21    1    1    2  505  502 -0.81166754361E+01 -0.48534467752E+02  0.75353064816E+02  0.89997551951E+02  0.00000000000E+00 0.  1.
          1    1    1    2  501    0 -0.93477251403E+02 -0.31933886719E+02 -0.33021907463E+03  0.34467725034E+03  0.00000000000E+00 0. -1.
<scales pt_clust_3="122.90640" pt_clust_4="42.88998" pt_clust_5="42.88998" pt_clust_6="98.78142"></scales>
<clustering>
<clus scale="   42.890">  4  5 -1 -1</clus>
<clus scale="   98.781">  2  6  1 -1</clus>
<clus scale="  122.906">  2  3  1 -1</clus>
<clus scale="  134.376">  1  3  2 -1</clus>
</clustering>
</event>
<event>
 6    0  0.1230761E+002  0.6406449E+02  0.7546771E-02  0.1381525E+00
         21   -1    0    0  504  502  0.00000000000E+00  0.00000000000E+00  0.11573803703E+04  0.11573803703E+04  0.00000000000E+00 0. -1.
          2   -1    0    0  505    0 -0.00000000000E+00 -0.00000000000E+00 -0.51675357775E+02  0.51675357775E+02  0.00000000000E+00 0. -1.
         21    1    1    2  503  502  0.75260623698E+01  0.49555489550E+02  0.37862543694E+03  0.38192880182E+03  0.00000000000E+00 0. -1.
         21    1    1    2  504  501  0.45000471908E+02 -0.73584266697E+02  0.63340881373E+03  0.63925457534E+03  0.00000000000E+00 0. -1.
         21    1    1    2  505  503 -0.43345558531E+02  0.62454908759E+02  0.11880564875E+03  0.14104692569E+03  0.00000000000E+00 0. -1.
          2    1    1    2  501    0 -0.91809757464E+01 -0.38426131611E+02 -0.25134886911E+02  0.46825425212E+02  0.00000000000E+00 0. -1.
<scales pt_clust_3="45.98205" pt_clust_4="64.06449" pt_clust_5="14000.00000" pt_clust_6="39.50769"></scales>
<clustering>
<clus scale="   39.508">  2  6  1 -1</clus>
<clus scale="   45.982">  1  3  2 -1</clus>
<clus scale="   64.064">  1  4  2 -1</clus>
<clus scale="   45.982">  1  3  2 -1</clus>
</clustering>
</event>
<event>
 6    0  0.1230761E+002  0.2659975E+03  0.7546771E-02  0.1103592E+00
         21   -1    0    0  501  502  0.00000000000E+00  0.00000000000E+00  0.10396189896E+04  0.10396189896E+04  0.00000000000E+00 0. -1.
         -2   -1    0    0    0  501 -0.00000000000E+00 -0.00000000000E+00 -0.77086573387E+02  0.77086573387E+02  0.00000000000E+00 0. -1.
         21    1    1    2  503  502  0.12534727818E+03  0.10330945433E+03  0.51476027818E+03  0.53978044379E+03  0.00000000000E+00 0. -1.
         21    1    1    2  504  503  0.87122803810E+02  0.35477631380E+02  0.16129989503E+03  0.18672627402E+03  0.00000000000E+00 0.  1.
         21    1    1    2  505  504 -0.62890285707E+02 -0.76867666593E+02  0.14156349664E+03  0.17292787452E+03  0.00000000000E+00 0. -1.
         -2    1    1    2    0  505 -0.14957979628E+03 -0.61919419113E+02  0.14490874634E+03  0.21727097064E+03  0.00000000000E+00 0. -1.
<scales pt_clust_3="60.63835" pt_clust_4="60.63835" pt_clust_5="59.56540" pt_clust_6="264.93168"></scales>
<clustering>
<clus scale="   59.565">  5  6 -1 -1</clus>
<clus scale="   60.638">  3  4 -1 -1</clus>
<clus scale="  264.932">  2  5  1 -1</clus>
<clus scale="  265.997">  1  3  2 -1</clus>
</clustering>
</event>
<event>
 6    0  0.1230761E+002  0.2896834E+03  0.7546771E-02  0.1090515E+00
         21   -1    0    0  503  502  0.00000000000E+00  0.00000000000E+00  0.25198101833E+04  0.25198101833E+04  0.00000000000E+00 0.  1.
          2   -1    0    0  505    0 -0.00000000000E+00 -0.00000000000E+00 -0.26123138491E+04  0.26123138491E+04  0.00000000000E+00 0. -1.
         21    1    1    2  503  504  0.83202319113E+02 -0.61745968137E+00  0.18151411625E+03  0.19967569096E+03  0.00000000000E+00 0.  1.
         21    1    1    2  504  501 -0.55981254378E+02 -0.36946363667E+02 -0.70615673621E+03  0.70933509058E+03  0.00000000000E+00 0.  1.
         21    1    1    2  505  502  0.18294771597E+03 -0.33039892426E+02  0.23174075911E+04  0.23248525641E+04  0.00000000000E+00 0.  1.
          2    1    1    2  501    0 -0.21016878070E+03  0.70603715775E+02 -0.18852686370E+04  0.18982606867E+04  0.00000000000E+00 0. -1.
<scales pt_clust_3="83.20461" pt_clust_4="60.50697" pt_clust_5="267.98295" pt_clust_6="60.50697"></scales>
<clustering>
<clus scale="   60.507">  4  6 -1 -1</clus>
<clus scale="   83.205">  1  3  2 -1</clus>
<clus scale="  267.983">  1  5  2 -1</clus>
<clus scale="   83.205">  1  3  2 -1</clus>
</clustering>
</event>
<event>
 6    0  0.1230761E+002  0.1098209E+03  0.7546771E-02  0.1260902E+00
         21   -1    0    0  505  502  0.00000000000E+00  0.00000000000E+00  0.25166618346E+03  0.25166618346E+03  0.00000000000E+00 0. -1.
          2   -1    0    0  503    0 -0.00000000000E+00 -0.00000000000E+00 -0.12078365899E+04  0.12078365899E+04  0.00000000000E+00 0.  1.
         21    1    1    2  503  502  0.29957254510E+02  0.80018268672E+01 -0.45016436960E+02  0.54662106871E+02  0.00000000000E+00 0.  1.
         21    1    1    2  504  501 -0.49191024058E+02 -0.47378720389E+02  0.50905019995E+02  0.85181107379E+02  0.00000000000E+00 0. -1.
         21    1    1    2  505  504  0.12810071358E+01 -0.57691804303E+02  0.17194352981E+03  0.18136858246E+03  0.00000000000E+00 0. -1.
          2    1    1    2  501    0  0.17952762412E+02  0.97068697824E+02 -0.11340025193E+04  0.11382909767E+04  0.00000000000E+00 0.  1.
<scales pt_clust_3="31.00752" pt_clust_4="14000.00000" pt_clust_5="57.67631" pt_clust_6="109.82090"></scales>
<clustering>
<clus scale="   31.008">  2  3  1 -1</clus>
<clus scale="   57.676">  1  5  2 -1</clus>
<clus scale="  109.821">  2  6  1 -1</clus>
<clus scale="   57.676">  1  3  2 -1</clus>
</clustering>
</event>
<event>
 6    0  0.1230761E+002  0.1191395E+03  0.7546771E-02  0.1244523E+00
         21   -1    0    0  505  502  0.00000000000E+00  0.00000000000E+00  0.77355340109E+02  0.77355340109E+02  0.00000000000E+00 0. -1.
          2   -1    0    0  504    0 -0.00000000000E+00 -0.00000000000E+00 -0.23901629815E+04  0.23901629815E+04  0.00000000000E+00 0.  1.
         21    1    1    2  503  501 -0.52448028406E+02 -0.14277906309E+03 -0.21358166459E+03  0.26220942773E+03  0.00000000000E+00 0. -1.
         21    1    1    2  504  502  0.17565283728E+02  0.31762673900E+02 -0.13849377532E+03  0.14317099024E+03  0.00000000000E+00 0.  1.
         21    1    1    2  505  503 -0.52666752551E+02  0.78837021179E+02  0.42856406588E+01  0.94907478359E+02  0.00000000000E+00 0. -1.
          2    1    1    2  501    0  0.87549497229E+02  0.32179368016E+02 -0.19650178421E+04  0.19672304253E+04  0.00000000000E+00 0.  1.
<scales pt_clust_3="119.13945" pt_clust_4="36.29610" pt_clust_5="95.14836" pt_clust_6="14000.00000"></scales>
<clustering>
<clus scale="   36.296">  2  4  1 -1</clus>
<clus scale="   95.148">  1  5  2 -1</clus>
<clus scale="  119.139">  1  3  2 -1</clus>
<clus scale="   95.148">  1  3  2 -1</clus>
</clustering>
</event>
<event>
 6    0  0.1230761E+002  0.1050577E+03  0.7546771E-02  0.1270006E+00
         21   -1    0    0  504  502  0.00000000000E+00  0.00000000000E+00  0.86800901198E+02  0.86800901198E+02  0.00000000000E+00 0.  1.
         -1   -1    0    0    0  501 -0.00000000000E+00 -0.00000000000E+00 -0.94958730948E+03  0.94958730948E+03  0.00000000000E+00 0.  1.
         21    1    1    2  503  505 -0.13834169739E+02  0.40906166901E+02  0.97533826400E+01  0.44269935801E+02  0.00000000000E+00 0.  1.
         21    1    1    2  504  503 -0.39187435920E+02  0.19441909380E+02  0.35672711716E+02  0.56446304888E+02  0.00000000000E+00 0.  1.
         21    1    1    2  505  501 -0.74088060760E+02 -0.61885694654E+02 -0.34182942074E+03  0.35519886378E+03  0.00000000000E+00 0.  1.
         -1    1    1    2    0  502  0.12710966642E+03  0.15376183730E+01 -0.56638308189E+03  0.58047310620E+03  0.00000000000E+00 0.  1.
<scales pt_clust_3="40.07628" pt_clust_4="89.89011" pt_clust_5="105.05770" pt_clust_6="14000.00000"></scales>
<clustering>
<clus scale="   40.076">  3  4 -1 -1</clus>
<clus scale="   89.890">  1  3  2 -1</clus>
<clus scale="  105.058">  2  5  1 -1</clus>
<clus scale="   89.890">  1  3  2 -1</clus>
</clustering>
</event>
<event>
 6    0  0.1230761E+002  0.9090846E+02  0.7546771E-02  0.1300667E+00
          2   -1    0    0  505    0 -0.00000000000E+00  0.00000000000E+00  0.32527402457E+04  0.32527402457E+04  0.00000000000E+00 0. -1.
         21   -1    0    0  504  502  0.00000000000E+00 -0.00000000000E+00 -0.48561692552E+03  0.48561692552E+03  0.00000000000E+00 0.  1.
         21    1    1    2  503  502  0.87877599964E+02  0.37207651025E+02 -0.36411804426E+03  0.37641577016E+03  0.00000000000E+00 0.  1.
         21    1    1    2  504  501 -0.53801003736E+02 -0.10002394850E+01  0.33089663816E+03  0.33524339461E+03  0.00000000000E+00 0. -1.
         21    1    1    2  505  503 -0.43856721796E+02 -0.81849796154E+02 -0.93909500419E+02  0.13206738979E+03  0.00000000000E+00 0.  1.
          2    1    1    2  501    0  0.97801255679E+01  0.45642384614E+02  0.28942542267E+04  0.28946306167E+04  0.00000000000E+00 0. -1.
<scales pt_clust_3="14000.00000" pt_clust_4="60.95290" pt_clust_5="90.90846" pt_clust_6="46.67845"></scales>
<clustering>
<clus scale="   46.678">  1  6  2 -1</clus>
<clus scale="   60.953">  1  4  2 -1</clus>
<clus scale="   90.908">  1  5  2 -1</clus>
<clus scale="   90.908">  2  3  1 -1</clus>
</clustering>
</event>
<event>
 6    0  0.1230761E+002  0.2638586E+03  0.7546771E-02  0.1104847E+00
          2   -1    0    0  502    0 -0.00000000000E+00  0.00000000000E+00  0.22914633827E+04  0.22914633827E+04  0.00000000000E+00 0.  1.
         21   -1    0    0  503  502  0.00000000000E+00 -0.00000000000E+00 -0.77550613862E+02  0.77550613862E+02  0.00000000000E+00 0. -1.
         21    1    1    2  503  504 -0.12792353493E+03 -0.56219636795E+02  0.53425552551E+02  0.14959735297E+03  0.00000000000E+00 0. -1.
         21    1    1    2  504  505 -0.11298500938E+03  0.45095935404E+00  0.12735970700E+03  0.17025366567E+03  0.00000000000E+00 0. -1.
         21    1    1    2  505  501  0.31925927456E+02  0.30668371450E+02  0.28684612832E+03  0.29024216645E+03  0.00000000000E+00 0.  1.
          2    1    1    2  501    0  0.20898261685E+03  0.25100305991E+02  0.17462813810E+04  0.17589208115E+04  0.00000000000E+00 0.  1.
<scales pt_clust_3="82.77814" pt_clust_4="82.77814" pt_clust_5="30.12328" pt_clust_6="255.85434"></scales>
<clustering>
<clus scale="   30.123">  5  6 -1 -1</clus>
<clus scale="   82.778">  3  4 -1 -1</clus>
<clus scale="  255.854">  1  5  2 -1</clus>
<clus scale="  263.859">  2  3  1 -1</clus>
</clustering>
</event>
<event>
 6    0  0.1230761E+002  0.8443199E+02  0.7546771E-02  0.1316925E+00
         21   -1    0    0  501  502  0.00000000000E+00  0.00000000000E+00  0.21704095521E+03  0.21704095521E+03  0.00000000000E+00 0.  1.
          1   -1    0    0  504    0 -0.00000000000E+00 -0.00000000000E+00 -0.17550374734E+04  0.17550374734E+04  0.00000000000E+00 0. -1.
         21    1    1    2  503  505  0.16840624684E+02  0.10404741837E+03 -0.12001414596E+02  0.10608254268E+03  0.00000000000E+00 0.  1.
         21    1    1    2  504  503 -0.88572804373E+02 -0.15685219204E+02 -0.69892889644E+03  0.70469338726E+03  0.00000000000E+00 0.  1.
         21    1    1    2  505  502 -0.40691704513E+01 -0.36760552777E+02  0.16292670885E+03  0.16707186731E+03  0.00000000000E+00 0.  1.
          1    1    1    2  501    0  0.75801350141E+02 -0.51601646385E+02 -0.98999291601E+03  0.99423063136E+03  0.00000000000E+00 0. -1.
<scales pt_clust_3="72.03229" pt_clust_4="84.43199" pt_clust_5="36.98508" pt_clust_6="14000.00000"></scales>
<clustering>
<clus scale="   36.985">  1  5  2 -1</clus>
<clus scale="   72.032">  1  3  2 -1</clus>
<clus scale="   84.432">  1  4  2 -1</clus>
<clus scale="   36.985">  1  3  2 -1</clus>
</clustering>
</event>
<event>
 6    0  0.1230761E+002  0.9296845E+02  0.7546771E-02  0.1295818E+00
         -3   -1    0    0    0  501 -0.00000000000E+00  0.00000000000E+00  0.19921200503E+04  0.19921200503E+04  0.00000000000E+00 0. -1.
         21   -1    0    0  504  502  0.00000000000E+00 -0.00000000000E+00 -0.47663161210E+02  0.47663161210E+02  0.00000000000E+00 0. -1.
         21    1    1    2  503  505 -0.52656416950E+02  0.63710296270E+02  0.13803748493E+03  0.16089141475E+03  0.00000000000E+00 0. -1.
         21    1    1    2  504  501 -0.56672954544E+02 -0.71314169086E+02  0.37763208077E+03  0.38846302645E+03  0.00000000000E+00 0. -1.
         21    1    1    2  505  502  0.39172237287E+02 -0.54673743909E+02  0.93619730284E+01  0.67906766865E+02  0.00000000000E+00 0. -1.
         -3    1    1    2    0  503  0.70157134206E+02  0.62277616725E+02  0.14194253504E+04  0.14225220034E+04  0.00000000000E+00 0. -1.
<scales pt_clust_3="41.06425" pt_clust_4="14000.00000" pt_clust_5="67.25833" pt_clust_6="92.96845"></scales>
<clustering>
<clus scale="   67.258">  2  5  1 -1</clus>
<clus scale="   41.064">  2  3  1 -1</clus>
<clus scale="   92.968">  1  6  2 -1</clus>
<clus scale="   67.258">  2  3  1 -1</clus>
</clustering>
</event>
<event>
 6    0  0.1230761E+002  0.8541982E+02  0.7546771E-02  0.1314338E+00
         21   -1    0    0  503  502  0.00000000000E+00  0.00000000000E+00  0.22857734683E+04  0.22857734683E+04  0.00000000000E+00 0.  1.
         -2   -1    0    0    0  501 -0.00000000000E+00 -0.00000000000E+00 -0.67411848995E+02  0.67411848995E+02  0.00000000000E+00 0.  1.
         21    1    1    2  503  504  0.54383547611E+02  0.32313787611E+02  0.10745377377E+04  0.10763982073E+04  0.00000000000E+00 0.  1.
         21    1    1    2  504  501  0.68002212844E+00 -0.83705168778E+02  0.10402909788E+04  0.10436533611E+04  0.00000000000E+00 0.  1.
         21    1    1    2  505  502 -0.32051190704E+02 -0.31005451928E+02  0.13484969481E+03  0.14203188749E+03  0.00000000000E+00 0.  1.
         -2    1    1    2    0  505 -0.23012379036E+02  0.82396833096E+02 -0.31316791872E+02  0.91101861377E+02  0.00000000000E+00 0.  1.
<scales pt_clust_3="41.84505" pt_clust_4="14000.00000" pt_clust_5="44.59391" pt_clust_6="85.41982"></scales>
<clustering>
<clus scale="   44.594">  1  5  2 -1</clus>
<clus scale="   41.845">  1  3  2 -1</clus>
<clus scale="   85.420">  2  6  1 -1</clus>
<clus scale="   44.594">  1  3  2 -1</clus>
</clustering>
</event>
<event>
 6    0  0.1230761E+002  0.1293633E+03  0.7546771E-02  0.1228403E+00
          2   -1    0    0  504    0 -0.00000000000E+00  0.00000000000E+00  0.82238645578E+03  0.82238645578E+03  0.00000000000E+00 0.  1.
         21   -1    0    0  505  502  0.00000000000E+00 -0.00000000000E+00 -0.90715551202E+02  0.90715551202E+02  0.00000000000E+00 0.  1.
         21    1    1    2  503  501  0.52899686227E+02 -0.67350390649E+02 -0.68845161429E+01  0.85917684362E+02  0.00000000000E+00 0.  1.
         21    1    1    2  504  502 -0.13130726973E+02 -0.37957893850E+02  0.33562405645E+03  0.33801882339E+03  0.00000000000E+00 0.  1.
         21    1    1    2  505  503 -0.28867489836E+02 -0.68162964337E+02  0.34243857007E+02  0.81560795848E+02  0.00000000000E+00 0.  1.
          2    1    1    2  501    0 -0.10901469418E+02  0.17347124884E+03  0.36868750726E+03  0.40760470338E+03  0.00000000000E+00 0.  1.
<scales pt_clust_3="14000.00000" pt_clust_4="40.16488" pt_clust_5="78.80308" pt_clust_6="129.36334"></scales>
<clustering>
<clus scale="   40.165">  1  4  2 -1</clus>
<clus scale="   78.803">  2  5  1 -1</clus>
<clus scale="  129.363">  1  6  2 -1</clus>
<clus scale="   78.803">  2  3  1 -1</clus>
</clustering>
</event>
<event>
 6    0  0.1230761E+002  0.3149808E+03  0.7546771E-02  0.1077983E+00
          4   -1    0    0  503    0 -0.00000000000E+00  0.00000000000E+00  0.16310787160E+04  0.16310787160E+04  0.00000000000E+00 0. -1.
         21   -1    0    0  501  502  0.00000000000E+00 -0.00000000000E+00 -0.84499326586E+02  0.84499326586E+02  0.00000000000E+00 0.  1.
         21    1    1    2  503  505  0.61726278786E+01  0.32060912799E+02  0.37340817197E+03  0.37483285123E+03  0.00000000000E+00 0.  1.
         21    1    1    2  504  502  0.65377069275E+02  0.79477180770E+02  0.12166955857E+03  0.15935578098E+03  0.00000000000E+00 0.  1.
         21    1    1    2  505  504  0.63752421286E+02  0.18905066311E+03  0.29434550628E+03  0.35558937204E+03  0.00000000000E+00 0.  1.
          4    1    1    2  501    0 -0.13530211844E+03 -0.30058875668E+03  0.75715615257E+03  0.82580003831E+03  0.00000000000E+00 0. -1.
<scales pt_clust_3="32.64971" pt_clust_4="41.16044" pt_clust_5="41.16044" pt_clust_6="309.66847"></scales>
<clustering>
<clus scale="   32.650">  1  3  2 -1</clus>
<clus scale="   41.160">  4  5 -1 -1</clus>
<clus scale="  309.668">  1  6  2 -1</clus>
<clus scale="  314.981">  2  3  1 -1</clus>
</clustering>
</event>
<event>
 6    0  0.1230761E+002  0.1051656E+03  0.7546771E-02  0.1269794E+00
         -3   -1    0    0    0  501 -0.00000000000E+00  0.00000000000E+00  0.55994283251E+03  0.55994283251E+03  0.00000000000E+00 0. -1.
         21   -1    0    0  503  502  0.00000000000E+00 -0.00000000000E+00 -0.15753510114E+03  0.15753510114E+03  0.00000000000E+00 0.  1.
         21    1    1    2  503  501  0.59923944278E+02 -0.96217541442E+02 -0.43839908302E+02  0.12153448868E+03  0.00000000000E+00 0.  1.
         21    1    1    2  504  505 -0.56636355799E+02  0.57390155059E+02  0.87529238955E+02  0.11900703495E+03  0.00000000000E+00 0.  1.
         21    1    1    2  505  502 -0.75080845809E+02  0.63848106149E+02 -0.11285425313E+02  0.99202191965E+02  0.00000000000E+00 0.  1.
         -3    1    1    2    0  504  0.71793257330E+02 -0.25020719767E+02  0.37000382603E+03  0.37773421806E+03  0.00000000000E+00 0. -1.
<scales pt_clust_3="105.16556" pt_clust_4="46.63238" pt_clust_5="14000.00000" pt_clust_6="76.02834"></scales>
<clustering>
<clus scale="   76.028">  1  6  2 -1</clus>
<clus scale="   46.632">  1  4  2 -1</clus>
<clus scale="  105.166">  2  3  1 -1</clus>
<clus scale="  105.166">  2  3  1 -1</clus>
</clustering>
</event>
<event>
 6    0  0.1230761E+002  0.1213428E+03  0.7546771E-02  0.1240898E+00
         21   -1    0    0  505  502  0.00000000000E+00  0.00000000000E+00  0.40597928415E+03  0.40597928415E+03  0.00000000000E+00 0.  1.
          2   -1    0    0  503    0 -0.00000000000E+00 -0.00000000000E+00 -0.15619614484E+04  0.15619614484E+04  0.00000000000E+00 0. -1.
         21    1    1    2  503  504 -0.68047246834E+01  0.40336441958E+02 -0.28942301029E+02  0.50109775660E+02  0.00000000000E+00 0.  1.
         21    1    1    2  504  502  0.34936102926E+02  0.40867662209E+01  0.61575505139E+02  0.70913861684E+02  0.00000000000E+00 0.  1.
         21    1    1    2  505  501 -0.39873508237E+02  0.76659833800E+02  0.32099042545E+03  0.33241762891E+03  0.00000000000E+00 0.  1.
          2    1    1    2  501    0  0.11742129995E+02 -0.12108304198E+03 -0.15096057938E+04  0.15144994662E+04  0.00000000000E+00 0. -1.
<scales pt_clust_3="40.86554" pt_clust_4="35.17432" pt_clust_5="121.34279" pt_clust_6="14000.00000"></scales>
<clustering>
<clus scale="   35.174">  1  4  2 -1</clus>
<clus scale="   40.866">  1  3  2 -1</clus>
<clus scale="  121.343">  1  5  2 -1</clus>
<clus scale="   35.174">  1  3  2 -1</clus>
</clustering>
</event>
<event>
 6    0  0.1230761E+002  0.9956464E+02  0.7546771E-02  0.1281214E+00
          2   -1    0    0  503    0 -0.00000000000E+00  0.00000000000E+00  0.80401726875E+03  0.80401726875E+03  0.00000000000E+00 0.  1.
         21   -1    0    0  504  502  0.00000000000E+00 -0.00000000000E+00 -0.39759714895E+03  0.39759714895E+03  0.00000000000E+00 0. -1.
         21    1    1    2  503  505 -0.39679801770E+02 -0.31163465584E+02  0.13985290978E+03  0.14867577015E+03  0.00000000000E+00 0. -1.
         21    1    1    2  504  501  0.34415923937E+02 -0.10587618988E+03 -0.33735786566E+03  0.35525280144E+03  0.00000000000E+00 0. -1.
         21    1    1    2  505  502 -0.70835215076E+01  0.67072739083E+02 -0.19513573900E+02  0.70211880557E+02  0.00000000000E+00 0.  1.
          2    1    1    2  501    0  0.12347399341E+02  0.69966916381E+02  0.62343864958E+03  0.62747396556E+03  0.00000000000E+00 0.  1.
<scales pt_clust_3="50.45442" pt_clust_4="14000.00000" pt_clust_5="99.56464" pt_clust_6="47.67193"></scales>
<clustering>
<clus scale="   50.454">  1  3  2 -1</clus>
<clus scale="   47.672">  1  6  2 -1</clus>
<clus scale="   99.565">  1  5  2 -1</clus>
<clus scale="   99.565">  2  3  1 -1</clus>
</clustering>
</event>
<event>
 6    0  0.1230761E+002  0.9767841E+02  0.7546771E-02  0.1285255E+00
          1   -1    0    0  503    0 -0.00000000000E+00  0.00000000000E+00  0.58975315216E+03  0.58975315216E+03  0.00000000000E+00 0.  1.
         21   -1    0    0  505  502  0.00000000000E+00 -0.00000000000E+00 -0.33595224158E+03  0.33595224158E+03  0.00000000000E+00 0.  1.
         21    1    1    2  503  504  0.21780648867E+02  0.80655049388E+02  0.34441539008E+03  0.35440315261E+03  0.00000000000E+00 0.  1.
         21    1    1    2  504  502  0.11603327986E+02 -0.40609533007E+02 -0.18259739123E+02  0.46012927143E+02  0.00000000000E+00 0. -1.
         21    1    1    2  505  501  0.33158451768E+02 -0.50358326021E+02 -0.29065325935E+03  0.29684130625E+03  0.00000000000E+00 0.  1.
          1    1    1    2  501    0 -0.66542428621E+02  0.10312809639E+02  0.21829851898E+03  0.22844800774E+03  0.00000000000E+00 0.  1.
<scales pt_clust_3="97.67841" pt_clust_4="42.23472" pt_clust_5="14000.00000" pt_clust_6="67.04448"></scales>
<clustering>
<clus scale="   42.235">  2  4  1 -1</clus>
<clus scale="   67.044">  1  6  2 -1</clus>
<clus scale="   97.678">  1  3  2 -1</clus>
<clus scale="   42.235">  2  3  1 -1</clus>
</clustering>
</event>
<event>
 6    0  0.1230761E+002  0.1081417E+03  0.7546771E-02  0.1264050E+00
          2   -1    0    0  504    0 -0.00000000000E+00  0.00000000000E+00  0.85585025052E+03  0.85585025052E+03  0.00000000000E+00 0. -1.
         21   -1    0    0  501  502  0.00000000000E+00 -0.00000000000E+00 -0.80492157320E+03  0.80492157320E+03  0.00000000000E+00 0.  1.
         21    1    1    2  503  502  0.21377719015E+01  0.36518882343E+02 -0.35777909197E+03  0.35964437641E+03  0.00000000000E+00 0.  1.
         21    1    1    2  504  505 -0.28242996141E+02  0.13955288942E+02  0.73376406349E+02  0.79853077143E+02  0.00000000000E+00 0. -1.
         21    1    1    2  505  503  0.75403856728E+02  0.39592876099E+02 -0.43544183459E+03  0.44369238077E+03  0.00000000000E+00 0.  1.
          2    1    1    2  501    0 -0.49298632488E+02 -0.90067047384E+02  0.77077319753E+03  0.77758198939E+03  0.00000000000E+00 0. -1.
<scales pt_clust_3="36.59612" pt_clust_4="31.50265" pt_clust_5="14000.00000" pt_clust_6="108.14173"></scales>
<clustering>
<clus scale="   31.503">  1  4  2 -1</clus>
<clus scale="   36.596">  2  3  1 -1</clus>
<clus scale="  108.142">  1  6  2 -1</clus>
<clus scale="   36.596">  2  3  1 -1</clus>
</clustering>
</event>
<event>
 6    0  0.1230761E+002  0.1757148E+03  0.7546771E-02  0.1172016E+00
         -1   -1    0    0    0  501 -0.00000000000E+00  0.00000000000E+00  0.14778426664E+03  0.14778426664E+03  0.00000000000E+00 0.  1.
         21   -1    0    0  504  502  0.00000000000E+00 -0.00000000000E+00 -0.65743146241E+03  0.65743146241E+03  0.00000000000E+00 0.  1.
         21    1    1    2  503  505  0.10508918672E+02 -0.36523963763E+02 -0.14518357155E+03  0.15007567008E+03  0.00000000000E+00 0. -1.
         21    1    1    2  504  501 -0.52855400321E+02  0.30767184303E+02 -0.58626481446E+01  0.61438453889E+02  0.00000000000E+00 0. -1.
         21    1    1    2  505  502 -0.79492301787E+02 -0.11172890341E+03 -0.39711226260E+03  0.42011965321E+03  0.00000000000E+00 0.  1.
         -1    1    1    2    0  503  0.12183878344E+03  0.11748568287E+03  0.38511286534E+02  0.17358195188E+03  0.00000000000E+00 0.  1.
<scales pt_clust_3="34.52404" pt_clust_4="61.15810" pt_clust_5="34.52404" pt_clust_6="163.01959"></scales>
<clustering>
<clus scale="   34.524">  3  5 -1 -1</clus>
<clus scale="   61.158">  1  4  2 -1</clus>
<clus scale="  163.020">  1  6  2 -1</clus>
<clus scale="  175.715">  2  3  1 -1</clus>
</clustering>
</event>
<event>
 6    0  0.1230761E+002  0.1312857E+03  0.7546771E-02  0.1225560E+00
          2   -1    0    0  503    0 -0.00000000000E+00  0.00000000000E+00  0.20890270570E+04  0.20890270570E+04  0.00000000000E+00 0. -1.
         21   -1    0    0  501  502  0.00000000000E+00 -0.00000000000E+00 -0.79784465040E+02  0.79784465040E+02  0.00000000000E+00 0. -1.
         21    1    1    2  503  505  0.31093672938E+02  0.31665508762E+01  0.36946561196E+03  0.37078522350E+03  0.00000000000E+00 0.  1.
         21    1    1    2  504  502  0.70195907492E+02 -0.25507456489E+02 -0.38588767120E+02  0.84066573101E+02  0.00000000000E+00 0. -1.
         21    1    1    2  505  504  0.42649691686E+02 -0.10817800442E+02  0.18824509326E+02  0.47857947706E+02  0.00000000000E+00 0.  1.
          2    1    1    2  501    0 -0.14393927212E+03  0.33158706054E+02  0.16595412378E+04  0.16661017778E+04  0.00000000000E+00 0. -1.
<scales pt_clust_3="31.25450" pt_clust_4="41.92294" pt_clust_5="41.92294" pt_clust_6="119.48280"></scales>
<clustering>
<clus scale="   31.254">  1  3  2 -1</clus>
<clus scale="   41.923">  4  5 -1 -1</clus>
<clus scale="  119.483">  1  6  2 -1</clus>
<clus scale="  131.286">  2  3  1 -1</clus>
</clustering>
</event>
<event>
 6    0  0.1230761E+002  0.8338345E+02  0.7546771E-02  0.1319715E+00
         21   -1    0    0  503  502  0.00000000000E+00  0.00000000000E+00  0.13167538912E+03  0.13167538912E+03  0.00000000000E+00 0. -1.
          2   -1    0    0  505    0 -0.00000000000E+00 -0.00000000000E+00 -0.43168690231E+04  0.43168690231E+04  0.00000000000E+00 0. -1.
         21    1    1    2  503  501  0.17396288258E+02  0.32002804136E+02  0.18551052546E+02  0.40877278142E+02  0.00000000000E+00 0. -1.
         21    1    1    2  504  502 -0.48375042080E+02 -0.47837383710E+02  0.87695664730E+02  0.11099139421E+03  0.00000000000E+00 0. -1.
         21    1    1    2  505  504 -0.28173451034E+02 -0.51666009153E+02 -0.41039824937E+03  0.41459599966E+03  0.00000000000E+00 0.  1.
          2    1    1    2  501    0  0.59152204855E+02  0.67500588727E+02 -0.38810421019E+04  0.38820797402E+04  0.00000000000E+00 0. -1.
<scales pt_clust_3="36.42541" pt_clust_4="35.56660" pt_clust_5="83.38345" pt_clust_6="14000.00000"></scales>
<clustering>
<clus scale="   36.425">  1  3  2 -1</clus>
<clus scale="   35.567">  1  4  2 -1</clus>
<clus scale="   83.383">  1  5  2 -1</clus>
<clus scale="   36.425">  1  3  2 -1</clus>
</clustering>
</event>
<event>
 6    0  0.1230761E+002  0.3468897E+03  0.7546771E-02  0.1063899E+00
          2   -1    0    0  503    0 -0.00000000000E+00  0.00000000000E+00  0.11576201320E+04  0.11576201320E+04  0.00000000000E+00 0. -1.
         21   -1    0    0  504  502  0.00000000000E+00 -0.00000000000E+00 -0.23343205584E+04  0.23343205584E+04  0.00000000000E+00 0.  1.
         21    1    1    2  503  502 -0.93101645369E+01 -0.56142199397E+02  0.16365627526E+03  0.17326858385E+03  0.00000000000E+00 0. -1.
         21    1    1    2  504  505 -0.56322586225E+02 -0.48224674029E+02 -0.47063887333E+03  0.47644391275E+03  0.00000000000E+00 0. -1.
         21    1    1    2  505  501  0.16562963590E+02 -0.27147589953E+03 -0.18090109896E+04  0.18293425749E+04  0.00000000000E+00 0.  1.
          2    1    1    2  501    0  0.49069787171E+02  0.37584277296E+03  0.93929316136E+03  0.10128856189E+04  0.00000000000E+00 0. -1.
<scales pt_clust_3="56.90892" pt_clust_4="66.15339" pt_clust_5="66.15339" pt_clust_6="322.91468"></scales>
<clustering>
<clus scale="   56.909">  1  3  2 -1</clus>
<clus scale="   66.153">  4  5 -1 -1</clus>
<clus scale="  322.915">  1  6  2 -1</clus>
<clus scale="  346.890">  2  3  1 -1</clus>
</clustering>
</event>
<event>
 6    0  0.1230761E+002  0.7637755E+02  0.7546771E-02  0.1339657E+00
          2   -1    0    0  503    0 -0.00000000000E+00  0.00000000000E+00  0.51203336900E+03  0.51203336900E+03  0.00000000000E+00 0. -1.
         21   -1    0    0  504  502  0.00000000000E+00 -0.00000000000E+00 -0.46086595895E+03  0.46086595895E+03  0.00000000000E+00 0. -1.
         21    1    1    2  503  502 -0.92887945297E+01 -0.51810463952E+02  0.93533933600E+02  0.10732754825E+03  0.00000000000E+00 0. -1.
         21    1    1    2  504  505 -0.20758979105E+02  0.25893113472E+02 -0.36761064426E+03  0.36910564113E+03  0.00000000000E+00 0. -1.
         21    1    1    2  505  501  0.13295846864E+02 -0.69391373385E+02 -0.64026021924E+02  0.95348171076E+02  0.00000000000E+00 0. -1.
          2    1    1    2  501    0  0.16751926770E+02  0.95308723865E+02  0.38927014263E+03  0.40111796749E+03  0.00000000000E+00 0. -1.
<scales pt_clust_3="14000.00000" pt_clust_4="33.18717" pt_clust_5="47.30962" pt_clust_6="76.37755"></scales>
<clustering>
<clus scale="   33.187">  2  4  1 -1</clus>
<clus scale="   47.310">  2  5  1 -1</clus>
<clus scale="   76.378">  1  6  2 -1</clus>
<clus scale="   33.187">  2  3  1 -1</clus>
</clustering>
</event>
<event>
 6    0  0.1230761E+002  0.1074533E+03  0.7546771E-02  0.1265360E+00
          1   -1    0    0  503    0 -0.00000000000E+00  0.00000000000E+00  0.97712881952E+03  0.97712881952E+03  0.00000000000E+00 0.  1.
         21   -1    0    0  504  502  0.00000000000E+00 -0.00000000000E+00 -0.32063499046E+03  0.32063499046E+03  0.00000000000E+00 0.  1.
         21    1    1    2  503  505 -0.13166724778E+01  0.51561622885E+02  0.28363018427E+03  0.28828183434E+03  0.00000000000E+00 0.  1.
         21    1    1    2  504  501  0.11058628525E+03 -0.36286567463E+02 -0.16361527438E+03  0.20078844457E+03  0.00000000000E+00 0.  1.
         21    1    1    2  505  502 -0.38024262377E+02  0.12024354171E+03 -0.95653243643E+02  0.15828422812E+03  0.00000000000E+00 0. -1.
          1    1    1    2  501    0 -0.71245350392E+02 -0.13551859713E+03  0.63213216281E+03  0.65040930296E+03  0.00000000000E+00 0.  1.
<scales pt_clust_3="51.57843" pt_clust_4="107.45333" pt_clust_5="14000.00000" pt_clust_6="113.75054"></scales>
<clustering>
<clus scale="   51.578">  1  3  2 -1</clus>
<clus scale="  113.751">  1  6  2 -1</clus>
<clus scale="  107.453">  2  4  1 -1</clus>
<clus scale="  107.453">  2  3  1 -1</clus>
</clustering>
</event>
<event>
 6    0  0.1230761E+002  0.1146769E+03  0.7546771E-02  0.1252146E+00
          2   -1    0    0  504    0 -0.00000000000E+00  0.00000000000E+00  0.32686056192E+04  0.32686056192E+04  0.00000000000E+00 0.  1.
         21   -1    0    0  503  502  0.00000000000E+00 -0.00000000000E+00 -0.39461945155E+02  0.39461945155E+02  0.00000000000E+00 0. -1.
         21    1    1    2  503  501  0.56536269940E+02  0.70226203515E+02  0.24334840083E+02  0.93382299826E+02  0.00000000000E+00 0. -1.
         21    1    1    2  504  505 -0.30398160259E+02  0.18374949470E+02  0.49894412596E+03  0.50020688495E+03  0.00000000000E+00 0. -1.
         21    1    1    2  505  502  0.31537176620E+02  0.63458323211E+01  0.79454958354E+02  0.85720204760E+02  0.00000000000E+00 0. -1.
          2    1    1    2  501    0 -0.57675286301E+02 -0.94946985306E+02  0.26264097497E+04  0.26287581748E+04  0.00000000000E+00 0.  1.
<scales pt_clust_3="114.67694" pt_clust_4="35.11026" pt_clust_5="32.16929" pt_clust_6="14000.00000"></scales>
<clustering>
<clus scale="   32.169">  2  5  1 -1</clus>
<clus scale="   35.110">  1  4  2 -1</clus>
<clus scale="  114.677">  2  3  1 -1</clus>
<clus scale="   32.169">  2  3  1 -1</clus>
</clustering>
</event>
<event>
 6    0  0.1230761E+002  0.2706655E+03  0.7546771E-02  0.1100899E+00
          4   -1    0    0  503    0 -0.00000000000E+00  0.00000000000E+00  0.12024419916E+03  0.12024419916E+03  0.00000000000E+00 0.  1.
         21   -1    0    0  501  502  0.00000000000E+00 -0.00000000000E+00 -0.10095130266E+04  0.10095130266E+04  0.00000000000E+00 0.  1.
         21    1    1    2  503  504  0.43594777000E+02  0.34671054585E+02  0.29392830926E+02  0.62980355013E+02  0.00000000000E+00 0. -1.
         21    1    1    2  504  505  0.58017916104E+02  0.11264701477E+03 -0.17472669721E+03  0.21583523170E+03  0.00000000000E+00 0.  1.
         21    1    1    2  505  502  0.31187832530E+02  0.11475629161E+03 -0.19783475737E+03  0.23082521219E+03  0.00000000000E+00 0.  1.
          4    1    1    2  501    0 -0.13280052563E+03 -0.26207436096E+03 -0.54610020377E+03  0.62011642684E+03  0.00000000000E+00 0.  1.
<scales pt_clust_3="55.70087" pt_clust_4="31.14534" pt_clust_5="31.14534" pt_clust_6="268.74940"></scales>
<clustering>
<clus scale="   31.145">  4  5 -1 -1</clus>
<clus scale="   55.701">  1  3  2 -1</clus>
<clus scale="  268.749">  1  6  2 -1</clus>
<clus scale="  270.666">  2  3  1 -1</clus>
</clustering>
</event>
<event>
 6    0  0.1230761E+002  0.1387212E+03  0.7546771E-02  0.1215060E+00
         21   -1    0    0  505  502  0.00000000000E+00  0.00000000000E+00  0.48599183118E+03  0.48599183118E+03  0.00000000000E+00 0. -1.
          2   -1    0    0  504    0 -0.00000000000E+00 -0.00000000000E+00 -0.33751748978E+03  0.33751748978E+03  0.00000000000E+00 0.  1.
         21    1    1    2  503  502 -0.43954360517E+02 -0.75414177555E+01  0.82428089886E+02  0.93718988431E+02  0.00000000000E+00 0. -1.
         21    1    1    2  504  503  0.51123028175E+02 -0.53637215459E+02  0.31020936114E+03  0.31893629870E+03  0.00000000000E+00 0. -1.
         21    1    1    2  505  501 -0.12905461183E+03 -0.16490147654E+02 -0.35281668535E+01  0.13015170289E+03  0.00000000000E+00 0. -1.
          2    1    1    2  501    0  0.12188594418E+03  0.77668780868E+02 -0.24063494277E+03  0.28070233093E+03  0.00000000000E+00 0.  1.
<scales pt_clust_3="44.59662" pt_clust_4="61.80769" pt_clust_5="14000.00000" pt_clust_6="138.72124"></scales>
<clustering>
<clus scale="   44.597">  1  3  2 -1</clus>
<clus scale="   61.808">  1  4  2 -1</clus>
<clus scale="  138.721">  2  6  1 -1</clus>
<clus scale="   44.597">  1  3  2 -1</clus>
</clustering>
</event>
<event>
 6    0  0.1230761E+002  0.1183382E+03  0.7546771E-02  0.1245864E+00
          1   -1    0    0  505    0 -0.00000000000E+00  0.00000000000E+00  0.27174877006E+04  0.27174877006E+04  0.00000000000E+00 0.  1.
         21   -1    0    0  504  502  0.00000000000E+00 -0.00000000000E+00 -0.80637926416E+03  0.80637926416E+03  0.00000000000E+00 0.  1.
         21    1    1    2  503  501 -0.12664063701E+02  0.88332785949E+02 -0.42726975448E+03  0.43648883454E+03  0.00000000000E+00 0.  1.
         21    1    1    2  504  503 -0.32589921358E+02  0.21292633168E+02 -0.37147432114E+03  0.37350856813E+03  0.00000000000E+00 0.  1.
         21    1    1    2  505  502  0.43419347921E+02 -0.67993390872E+01  0.68676931949E+03  0.68817408333E+03  0.00000000000E+00 0. -1.
          1    1    1    2  501    0  0.18346371385E+01 -0.10282608003E+03  0.20230831925E+04  0.20256954787E+04  0.00000000000E+00 0.  1.
<scales pt_clust_3="118.33817" pt_clust_4="38.92916" pt_clust_5="43.89105" pt_clust_6="14000.00000"></scales>
<clustering>
<clus scale="   38.929">  2  4  1 -1</clus>
<clus scale="   43.891">  1  5  2 -1</clus>
<clus scale="  118.338">  2  3  1 -1</clus>
<clus scale="   38.929">  2  3  1 -1</clus>
</clustering>
</event>
<event>
 6    0  0.1230761E+002  0.2221482E+03  0.7546771E-02  0.1132292E+00
         21   -1    0    0  505  502  0.00000000000E+00  0.00000000000E+00  0.82280507755E+03  0.82280507755E+03  0.00000000000E+00 0. -1.
          2   -1    0    0  504    0 -0.00000000000E+00 -0.00000000000E+00 -0.71233924908E+03  0.71233924908E+03  0.00000000000E+00 0. -1.
         21    1    1    2  503  501  0.15372945154E+03 -0.90931535134E+02  0.13859884366E+03  0.22607726072E+03  0.00000000000E+00 0. -1.
         21    1    1    2  504  502 -0.34260826834E+02  0.17052739493E+02  0.10407240906E+03  0.11088582645E+03  0.00000000000E+00 0.  1.
         21    1    1    2  505  503  0.63880438077E+02 -0.59743053804E+02  0.50981020086E+03  0.51725852699E+03  0.00000000000E+00 0. -1.
          2    1    1    2  501    0 -0.18334906278E+03  0.13362184944E+03 -0.64201562511E+03  0.68092271247E+03  0.00000000000E+00 0. -1.
<scales pt_clust_3="14000.00000" pt_clust_4="38.27010" pt_clust_5="61.64092" pt_clust_6="222.14822"></scales>
<clustering>
<clus scale="   38.270">  1  4  2 -1</clus>
<clus scale="   61.641">  1  5  2 -1</clus>
<clus scale="  222.148">  2  6  1 -1</clus>
<clus scale="   38.270">  1  3  2 -1</clus>
</clustering>
</event>
<event>
 6    0  0.1230761E+002  0.1091980E+03  0.7546771E-02  0.1262062E+00
         21   -1    0    0  505  502  0.00000000000E+00  0.00000000000E+00  0.33685844786E+03  0.33685844786E+03  0.00000000000E+00 0. -1.
         -4   -1    0    0    0  501 -0.00000000000E+00 -0.00000000000E+00 -0.17518466013E+03  0.17518466013E+03  0.00000000000E+00 0.  1.
         21    1    1    2  503  501 -0.24801570846E+02  0.37408549507E+02 -0.43858332463E+01  0.45097150974E+02  0.00000000000E+00 0.  1.
         21    1    1    2  504  503 -0.29197181208E+00  0.40379768315E+02  0.67030407057E+02  0.78253986524E+02  0.00000000000E+00 0. -1.
         21    1    1    2  505  504 -0.42671601882E+02  0.43667093359E+02  0.20496220382E+03  0.21386253913E+03  0.00000000000E+00 0. -1.
         -4    1    1    2    0  502  0.67765144540E+02 -0.12145541118E+03 -0.10593298990E+03  0.17482943136E+03  0.00000000000E+00 0.  1.
<scales pt_clust_3="44.88338" pt_clust_4="40.19120" pt_clust_5="40.19120" pt_clust_6="97.37481"></scales>
<clustering>
<clus scale="   40.191">  4  5 -1 -1</clus>
<clus scale="   44.883">  2  3  1 -1</clus>
<clus scale="   97.375">  2  6  1 -1</clus>
<clus scale="  109.198">  1  3  2 -1</clus>
</clustering>
</event>
<event>
 6    0  0.1230761E+002  0.1524928E+03  0.7546771E-02  0.1197443E+00
          1   -1    0    0  504    0 -0.00000000000E+00  0.00000000000E+00  0.10322347058E+04  0.10322347058E+04  0.00000000000E+00 0. -1.
         21   -1    0    0  501  502  0.00000000000E+00 -0.00000000000E+00 -0.31742242846E+03  0.31742242846E+03  0.00000000000E+00 0. -1.
         21    1    1    2  503  502  0.69396560102E+02  0.60023999788E+01 -0.16995555758E+03  0.18367580927E+03  0.00000000000E+00 0. -1.
         21    1    1    2  504  505  0.30609335741E+02 -0.17082506283E+01  0.67690819102E+03  0.67760205771E+03  0.00000000000E+00 0. -1.
         21    1    1    2  505  503  0.75255902606E+02  0.14015459345E+02 -0.10462165705E+03  0.12963631860E+03  0.00000000000E+00 0. -1.
          1    1    1    2  501    0 -0.17526179845E+03 -0.18309608696E+02  0.31248130096E+03  0.35874294867E+03  0.00000000000E+00 0. -1.
<scales pt_clust_3="36.18868" pt_clust_4="30.65697" pt_clust_5="36.18868" pt_clust_6="147.67282"></scales>
<clustering>
<clus scale="   30.657">  1  4  2 -1</clus>
<clus scale="   36.189">  3  5 -1 -1</clus>
<clus scale="  147.673">  1  6  2 -1</clus>
<clus scale="  152.493">  2  3  1 -1</clus>
</clustering>
</event>
<event>
 6    0  0.1230761E+002  0.1853882E+03  0.7546771E-02  0.1162688E+00
          2   -1    0    0  503    0 -0.00000000000E+00  0.00000000000E+00  0.37555934779E+04  0.37555934779E+04  0.00000000000E+00 0.  1.
         21   -1    0    0  505  502  0.00000000000E+00 -0.00000000000E+00 -0.91224139936E+02  0.91224139936E+02  0.00000000000E+00 0.  1.
         21    1    1    2  503  504  0.61636687064E+02 -0.14475665290E+03  0.44865640311E+02  0.16360469257E+03  0.00000000000E+00 0.  1.
         21    1    1    2  504  502  0.87203758781E+02  0.19143630407E+02  0.52789911281E+02  0.10371956837E+03  0.00000000000E+00 0.  1.
         21    1    1    2  505  501  0.18968997499E+02  0.40519580292E+02  0.12722869980E+03  0.13486586413E+03  0.00000000000E+00 0. -1.
          2    1    1    2  501    0 -0.16780944334E+03  0.85093442197E+02  0.34394850865E+04  0.34446274927E+04  0.00000000000E+00 0.  1.
<scales pt_clust_3="185.38819" pt_clust_4="97.75843" pt_clust_5="44.73991" pt_clust_6="14000.00000"></scales>
<clustering>
<clus scale="   44.740">  2  5  1 -1</clus>
<clus scale="   97.758">  2  4  1 -1</clus>
<clus scale="  185.388">  2  3  1 -1</clus>
<clus scale="   44.740">  2  3  1 -1</clus>
</clustering>
</event>
<event>
 6    0  0.1230761E+002  0.1145739E+03  0.7546771E-02  0.1252327E+00
          2   -1    0    0  504    0 -0.00000000000E+00  0.00000000000E+00  0.29412253294E+03  0.29412253294E+03  0.00000000000E+00 0.  1.
         21   -1    0    0  503  502  0.00000000000E+00 -0.00000000000E+00 -0.11718171967E+04  0.11718171967E+04  0.00000000000E+00 0.  1.
         21    1    1    2  503  505  0.65197574469E+02 -0.14630443401E+01 -0.64799463026E+02  0.91933860051E+02  0.00000000000E+00 0.  1.
         21    1    1    2  504  502 -0.17018345140E+03 -0.11215067923E+02 -0.10748779452E+04  0.10883247594E+04  0.00000000000E+00 0.  1.
         21    1    1    2  505  501  0.55443845048E+02 -0.11568321507E+02  0.16014780619E+03  0.16986808365E+03  0.00000000000E+00 0.  1.
          2    1    1    2  501    0  0.49542031884E+02  0.24246433771E+02  0.10183493823E+03  0.11581302655E+03  0.00000000000E+00 0.  1.
<scales pt_clust_3="65.21399" pt_clust_4="106.44818" pt_clust_5="41.82122" pt_clust_6="41.82122"></scales>
<clustering>
<clus scale="   41.821">  5  6 -1 -1</clus>
<clus scale="   65.214">  2  3  1 -1</clus>
<clus scale="  106.448">  2  4  1 -1</clus>
<clus scale="   65.214">  2  3  1 -1</clus>
</clustering>
</event>
<event>
 6    0  0.1230761E+002  0.1433756E+03  0.7546771E-02  0.1208858E+00
          2   -1    0    0  504    0 -0.00000000000E+00  0.00000000000E+00  0.86068710808E+03  0.86068710808E+03  0.00000000000E+00 0. -1.
         21   -1    0    0  503  502  0.00000000000E+00 -0.00000000000E+00 -0.10651893041E+03  0.10651893041E+03  0.00000000000E+00 0. -1.
         21    1    1    2  503  505 -0.17690104903E+01 -0.40352644900E+02 -0.26691258200E+02  0.48413723394E+02  0.00000000000E+00 0. -1.
         21    1    1    2  504  502  0.36571862073E+02  0.66802160117E+01  0.45090710157E+02  0.58440555472E+02  0.00000000000E+00 0.  1.
         21    1    1    2  505  501  0.80968951266E+02 -0.60285176771E+02 -0.84914902373E+01  0.10130340080E+03  0.00000000000E+00 0. -1.
          2    1    1    2  501    0 -0.11577180285E+03  0.93957605660E+02  0.74426021595E+03  0.75904835883E+03  0.00000000000E+00 0. -1.
<scales pt_clust_3="39.69310" pt_clust_4="37.17696" pt_clust_5="143.37558" pt_clust_6="14000.00000"></scales>
<clustering>
<clus scale="   37.177">  2  4  1 -1</clus>
<clus scale="   39.693">  2  3  1 -1</clus>
<clus scale="  143.376">  2  5  1 -1</clus>
<clus scale="   37.177">  2  3  1 -1</clus>
</clustering>
</event>
<event>
 6    0  0.1230761E+002  0.1887937E+03  0.7546771E-02  0.1159554E+00
         21   -1    0    0  503  502  0.00000000000E+00  0.00000000000E+00  0.61983191768E+03  0.61983191768E+03  0.00000000000E+00 0. -1.
          2   -1    0    0  504    0 -0.00000000000E+00 -0.00000000000E+00 -0.68910523087E+03  0.68910523087E+03  0.00000000000E+00 0. -1.
         21    1    1    2  503  501  0.10795112022E+03  0.90116643286E+02  0.55050035416E+03  0.56817699151E+03  0.00000000000E+00 0. -1.
         21    1    1    2  504  505  0.23843953973E+02  0.51411814542E+02 -0.22096934308E+03  0.22812093152E+03  0.00000000000E+00 0.  1.
         21    1    1    2  505  502  0.48798225536E+02  0.12488658049E+02 -0.21769556628E+01  0.50417978255E+02  0.00000000000E+00 0.  1.
          2    1    1    2  501    0 -0.18059329973E+03 -0.15401711588E+03 -0.39662736860E+03  0.46222124726E+03  0.00000000000E+00 0. -1.
<scales pt_clust_3="188.79372" pt_clust_4="56.86367" pt_clust_5="50.37096" pt_clust_6="14000.00000"></scales>
<clustering>
<clus scale="   50.371">  1  5  2 -1</clus>
<clus scale="   56.864">  2  4  1 -1</clus>
<clus scale="  188.794">  1  3  2 -1</clus>
<clus scale="   50.371">  1  3  2 -1</clus>
</clustering>
</event>
<event>
 6    0  0.1230761E+002  0.9948393E+02  0.7546771E-02  0.1281385E+00
          1   -1    0    0  503    0 -0.00000000000E+00  0.00000000000E+00  0.12636834707E+04  0.12636834707E+04  0.00000000000E+00 0. -1.
         21   -1    0    0  504  502  0.00000000000E+00 -0.00000000000E+00 -0.36058615493E+02  0.36058615493E+02  0.00000000000E+00 0. -1.
         21    1    1    2  503  505  0.59049116354E+02 -0.38966818160E+02  0.11232846596E+03  0.13275125357E+03  0.00000000000E+00 0.  1.
         21    1    1    2  504  501  0.33097427924E+02  0.54632057351E+02  0.15665020896E+03  0.16917266148E+03  0.00000000000E+00 0. -1.
         21    1    1    2  505  502  0.11531408854E+02 -0.49465034479E+02  0.22858341214E+02  0.55697996277E+02  0.00000000000E+00 0. -1.
          1    1    1    2  501    0 -0.10367795313E+03  0.33799795288E+02  0.93578783907E+03  0.94212017486E+03  0.00000000000E+00 0. -1.
<scales pt_clust_3="14000.00000" pt_clust_4="53.50275" pt_clust_5="50.79137" pt_clust_6="99.48393"></scales>
<clustering>
<clus scale="   50.791">  2  5  1 -1</clus>
<clus scale="   53.503">  2  4  1 -1</clus>
<clus scale="   99.484">  1  6  2 -1</clus>
<clus scale="   50.791">  2  3  1 -1</clus>
</clustering>
</event>
<event>
 6    0  0.1230761E+002  0.1599129E+03  0.7546771E-02  0.1188795E+00
          3   -1    0    0  504    0 -0.00000000000E+00  0.00000000000E+00  0.66703129218E+03  0.66703129218E+03  0.00000000000E+00 0. -1.
         21   -1    0    0  503  502  0.00000000000E+00 -0.00000000000E+00 -0.96409859570E+03  0.96409859570E+03  0.00000000000E+00 0.  1.
         21    1    1    2  503  501  0.44841548368E+02  0.15456557594E+03 -0.87045502499E+03  0.88520801638E+03  0.00000000000E+00 0.  1.
         21    1    1    2  504  505 -0.30084905887E+02  0.31326098639E+01  0.20170213548E+02  0.36355911780E+02  0.00000000000E+00 0. -1.
         21    1    1    2  505  502  0.79479363929E+02 -0.10190079887E+03 -0.15719885319E+02  0.13018393486E+03  0.00000000000E+00 0.  1.
          3    1    1    2  501    0 -0.94236006410E+02 -0.55797386928E+02  0.56893739324E+03  0.57938202485E+03  0.00000000000E+00 0. -1.
<scales pt_clust_3="159.91294" pt_clust_4="30.24756" pt_clust_5="127.36721" pt_clust_6="14000.00000"></scales>
<clustering>
<clus scale="   30.248">  1  4  2 -1</clus>
<clus scale="  127.367">  1  5  2 -1</clus>
<clus scale="  159.913">  2  3  1 -1</clus>
<clus scale="  159.913">  2  3  1 -1</clus>
</clustering>
</event>
<event>
 6    0  0.1230761E+002  0.3122994E+03  0.7546771E-02  0.1079249E+00
         21   -1    0    0  504  502  0.00000000000E+00  0.00000000000E+00  0.45971849335E+03  0.45971849335E+03  0.00000000000E+00 0.  1.
          1   -1    0    0  505    0 -0.00000000000E+00 -0.00000000000E+00 -0.12211956576E+04  0.12211956576E+04  0.00000000000E+00 0.  1.
         21    1    1    2  503  501 -0.27913036404E+03  0.12253304575E+03  0.22801669610E+03  0.38068322938E+03  0.00000000000E+00 0.  1.
         21    1    1    2  504  503 -0.41514882879E+02 -0.13680543752E+03  0.87306238184E+02  0.16751594689E+03  0.00000000000E+00 0.  1.
         21    1    1    2  505  502  0.44282337848E+02 -0.43754136225E+01 -0.40960603239E+02  0.60480085212E+02  0.00000000000E+00 0. -1.
          1    1    1    2  501    0  0.27636290907E+03  0.18647805393E+02 -0.10358394953E+04  0.10722348895E+04  0.00000000000E+00 0.  1.
<scales pt_clust_3="312.29940" pt_clust_4="142.67648" pt_clust_5="44.49797" pt_clust_6="14000.00000"></scales>
<clustering>
<clus scale="   44.498">  2  5  1 -1</clus>
<clus scale="  142.676">  1  4  2 -1</clus>
<clus scale="  312.299">  1  3  2 -1</clus>
<clus scale="  142.676">  1  3  2 -1</clus>
</clustering>
</event>
<event>
 6    0  0.1230761E+002  0.8115581E+02  0.7546771E-02  0.1325803E+00
          2   -1    0    0  503    0 -0.00000000000E+00  0.00000000000E+00  0.22621036855E+03  0.22621036855E+03  0.00000000000E+00 0.  1.
         21   -1    0    0  505  502  0.00000000000E+00 -0.00000000000E+00 -0.17065714830E+04  0.17065714830E+04  0.00000000000E+00 0. -1.
         21    1    1    2  503  502  0.55749353761E+02  0.73126660434E+02 -0.15016646812E+04  0.15044774221E+04  0.00000000000E+00 0. -1.
         21    1    1    2  504  501 -0.48421454433E+02 -0.33835119793E+02 -0.70613845545E+02  0.92063933022E+02  0.00000000000E+00 0.  1.
         21    1    1    2  505  504 -0.26101226444E+02  0.39785741314E+02 -0.10931097049E+03  0.11921857029E+03  0.00000000000E+00 0. -1.
          2    1    1    2  501    0  0.18773327116E+02 -0.79077281955E+02  0.20122838284E+03  0.21702192606E+03  0.00000000000E+00 0.  1.
<scales pt_clust_3="81.15581" pt_clust_4="59.05043" pt_clust_5="47.58339" pt_clust_6="14000.00000"></scales>
<clustering>
<clus scale="   47.583">  2  5  1 -1</clus>
<clus scale="   59.050">  2  4  1 -1</clus>
<clus scale="   81.156">  2  3  1 -1</clus>
<clus scale="   47.583">  2  3  1 -1</clus>
</clustering>
</event>
<event>
 6    0  0.1431537E+002  0.6826123E+02  0.7546771E-02  0.1366108E+00
          1   -1    0    0  503    0 -0.00000000000E+00  0.00000000000E+00  0.28117368382E+04  0.28117368382E+04  0.00000000000E+00 0.  1.
         21   -1    0    0  504  502  0.00000000000E+00 -0.00000000000E+00 -0.24193683967E+03  0.24193683967E+03  0.00000000000E+00 0.  1.
         21    1    1    2  503  505 -0.15214272959E+02 -0.44645121068E+02  0.12833926021E+03  0.13673195182E+03  0.00000000000E+00 0.  1.
         21    1    1    2  504  501 -0.35083123649E+02  0.51264945067E+02  0.62934140058E+02  0.88428650010E+02  0.00000000000E+00 0. -1.
         21    1    1    2  505  502  0.15662061109E+02 -0.11423419086E+03 -0.20890509368E+03  0.23861284266E+03  0.00000000000E+00 0.  1.
          1    1    1    2  501    0  0.34635335499E+02  0.10761436686E+03  0.25874316919E+04  0.25899002334E+04  0.00000000000E+00 0.  1.
<scales pt_clust_3="47.16631" pt_clust_4="61.33146" pt_clust_5="68.26123" pt_clust_6="14000.00000"></scales>
<clustering>
<clus scale="   47.166">  1  3  2 -1</clus>
<clus scale="   61.331">  2  4  1 -1</clus>
<clus scale="   68.261">  2  5  1 -1</clus>
<clus scale="   61.331">  2  3  1 -1</clus>
</clustering>
</event>
<event>
 6    0  0.1230761E+002  0.2009211E+03  0.7546771E-02  0.1148964E+00
         21   -1    0    0  501  502  0.00000000000E+00  0.00000000000E+00  0.10396084652E+03  0.10396084652E+03  0.00000000000E+00 0.  1.
          2   -1    0    0  505    0 -0.00000000000E+00 -0.00000000000E+00 -0.60277942469E+03  0.60277942469E+03  0.00000000000E+00 0.  1.
         21    1    1    2  503  502  0.11213109142E+03 -0.25006472043E+02 -0.43495007039E+02  0.12284348149E+03  0.00000000000E+00 0.  1.
         21    1    1    2  504  503  0.66052362918E+02  0.50111996010E+02 -0.27315729599E+02  0.87294191529E+02  0.00000000000E+00 0.  1.
         21    1    1    2  505  504  0.13587738154E+02 -0.30667654881E+02 -0.17974809309E+03  0.18285105593E+03  0.00000000000E+00 0.  1.
          2    1    1    2  501    0 -0.19177119249E+03  0.55621309144E+01 -0.24825974844E+03  0.31375154225E+03  0.00000000000E+00 0.  1.
<scales pt_clust_3="68.28121" pt_clust_4="68.28121" pt_clust_5="33.54298" pt_clust_6="183.31735"></scales>
<clustering>
<clus scale="   33.543">  2  5  1 -1</clus>
<clus scale="   68.281">  3  4 -1 -1</clus>
<clus scale="  183.317">  2  6  1 -1</clus>
<clus scale="  200.921">  1  3  2 -1</clus>
</clustering>
</event>
<event>
 6    0  0.1230761E+002  0.9643363E+02  0.7546771E-02  0.1287979E+00
         21   -1    0    0  505  502  0.00000000000E+00  0.00000000000E+00  0.30316516964E+03  0.30316516964E+03  0.00000000000E+00 0.  1.
         -3   -1    0    0    0  501 -0.00000000000E+00 -0.00000000000E+00 -0.37126153172E+03  0.37126153172E+03  0.00000000000E+00 0.  1.
         21    1    1    2  503  501 -0.91212370006E+02 -0.97860649693E+01 -0.65011963009E+02  0.11243673263E+03  0.00000000000E+00 0. -1.
         21    1    1    2  504  502  0.26846208671E+02 -0.21393285269E+02  0.12557077726E+00  0.34327938222E+02  0.00000000000E+00 0.  1.
         21    1    1    2  505  503  0.59400461414E+02  0.75066327240E+02  0.25152584135E+03  0.26912565312E+03  0.00000000000E+00 0.  1.
         -3    1    1    2    0  504  0.49656999220E+01 -0.43886977002E+02 -0.25473581120E+03  0.25853637739E+03  0.00000000000E+00 0.  1.
<scales pt_clust_3="14000.00000" pt_clust_4="34.32771" pt_clust_5="96.43363" pt_clust_6="44.32864"></scales>
<clustering>
<clus scale="   34.328">  1  4  2 -1</clus>
<clus scale="   44.329">  2  6  1 -1</clus>
<clus scale="   96.434">  1  5  2 -1</clus>
<clus scale="   34.328">  1  3  2 -1</clus>
</clustering>
</event>
<event>
 6    0  0.1230761E+002  0.1353576E+03  0.7546771E-02  0.1219716E+00
          2   -1    0    0  505    0 -0.00000000000E+00  0.00000000000E+00  0.15205910462E+04  0.15205910462E+04  0.00000000000E+00 0. -1.
         21   -1    0    0  501  502  0.00000000000E+00 -0.00000000000E+00 -0.17876537652E+03  0.17876537652E+03  0.00000000000E+00 0. -1.
         21    1    1    2  503  504  0.58790327386E+02 -0.43984113411E+02 -0.69009787063E+02  0.10076336406E+03  0.00000000000E+00 0. -1.
         21    1    1    2  504  502  0.24898283014E+02 -0.55261856867E+02 -0.75735348799E+02  0.97003300867E+02  0.00000000000E+00 0. -1.
         21    1    1    2  505  503  0.47065553044E+02  0.87635731566E+01  0.50005235626E+03  0.50233885525E+03  0.00000000000E+00 0. -1.
          2    1    1    2  501    0 -0.13075416344E+03  0.90482397121E+02  0.98651844930E+03  0.99925090255E+03  0.00000000000E+00 0. -1.
<scales pt_clust_3="32.84683" pt_clust_4="32.84683" pt_clust_5="47.87449" pt_clust_6="130.44052"></scales>
<clustering>
<clus scale="   32.847">  3  4 -1 -1</clus>
<clus scale="   47.874">  1  5  2 -1</clus>
<clus scale="  130.441">  1  6  2 -1</clus>
<clus scale="  135.358">  2  3  1 -1</clus>
</clustering>
</event>
<event>
 6    0  0.1230761E+002  0.8709068E+02  0.7546771E-02  0.1310054E+00
          2   -1    0    0  505    0 -0.00000000000E+00  0.00000000000E+00  0.34398437470E+04  0.34398437470E+04  0.00000000000E+00 0. -1.
         21   -1    0    0  503  502  0.00000000000E+00 -0.00000000000E+00 -0.63794380968E+02  0.63794380968E+02  0.00000000000E+00 0.  1.
         21    1    1    2  503  504  0.49863603260E+02 -0.25004468675E+02  0.27145429361E+02  0.62036092068E+02  0.00000000000E+00 0.  1.
         21    1    1    2  504  501 -0.33745794052E+02 -0.45299280382E+02  0.11665198039E+04  0.11678866624E+04  0.00000000000E+00 0. -1.
         21    1    1    2  505  502 -0.35404840635E+02  0.11383478306E+03  0.32853703937E+02  0.12365769866E+03  0.00000000000E+00 0.  1.
          2    1    1    2  501    0  0.19287031426E+02 -0.43531034001E+02  0.21495304289E+04  0.21500576748E+04  0.00000000000E+00 0. -1.
<scales pt_clust_3="57.06173" pt_clust_4="87.09068" pt_clust_5="14000.00000" pt_clust_6="47.61240"></scales>
<clustering>
<clus scale="   47.612">  1  6  2 -1</clus>
<clus scale="   57.062">  2  3  1 -1</clus>
<clus scale="   87.091">  1  4  2 -1</clus>
<clus scale="   57.062">  2  3  1 -1</clus>
</clustering>
</event>
<event>
 6    0  0.1230761E+002  0.1835398E+03  0.7546771E-02  0.1164420E+00
          2   -1    0    0  503    0 -0.00000000000E+00  0.00000000000E+00  0.95830739474E+03  0.95830739474E+03  0.00000000000E+00 0.  1.
         21   -1    0    0  504  502  0.00000000000E+00 -0.00000000000E+00 -0.41372499008E+03  0.41372499008E+03  0.00000000000E+00 0. -1.
         21    1    1    2  503  505 -0.48030359356E+02 -0.19827842856E+01  0.12148569507E+03  0.13065075951E+03  0.00000000000E+00 0.  1.
         21    1    1    2  504  501 -0.15987442229E+03 -0.44120598747E+02 -0.23223639833E+03  0.28537729911E+03  0.00000000000E+00 0. -1.
         21    1    1    2  505  502  0.98197681138E+02 -0.13241694203E+03 -0.85782071475E+02  0.18583754977E+03  0.00000000000E+00 0.  1.
          2    1    1    2  501    0  0.10970710051E+03  0.17852032507E+03  0.74111517941E+03  0.77016677643E+03  0.00000000000E+00 0.  1.
<scales pt_clust_3="48.07127" pt_clust_4="183.53984" pt_clust_5="163.24801" pt_clust_6="14000.00000"></scales>
<clustering>
<clus scale="   48.071">  1  3  2 -1</clus>
<clus scale="  163.248">  2  5  1 -1</clus>
<clus scale="  183.540">  2  4  1 -1</clus>
<clus scale="  163.248">  2  3  1 -1</clus>
</clustering>
</event>
<event>
 6    0  0.1230761E+002  0.2250405E+03  0.7546771E-02  0.1130180E+00
         21   -1    0    0  504  502  0.00000000000E+00  0.00000000000E+00  0.45694026481E+03  0.45694026481E+03  0.00000000000E+00 0.  1.
         -2   -1    0    0    0  501 -0.00000000000E+00 -0.00000000000E+00 -0.13323283614E+04  0.13323283614E+04  0.00000000000E+00 0.  1.
         21    1    1    2  503  501  0.44990803338E+02 -0.77492801004E+02 -0.20995756900E+03  0.22827940637E+03  0.00000000000E+00 0.  1.
         21    1    1    2  504  503 -0.18620987206E+03  0.20785856842E+02 -0.92435038979E+02  0.20892679275E+03  0.00000000000E+00 0. -1.
         21    1    1    2  505  502 -0.60134028885E+02 -0.21338517661E+03  0.32473922024E+03  0.39319829119E+03  0.00000000000E+00 0.  1.
         -2    1    1    2    0  505  0.20135309761E+03  0.27009212077E+03 -0.89773470882E+03  0.95886413586E+03  0.00000000000E+00 0.  1.
<scales pt_clust_3="89.60640" pt_clust_4="180.41411" pt_clust_5="225.04054" pt_clust_6="14000.00000"></scales>
<clustering>
<clus scale="   89.606">  2  3  1 -1</clus>
<clus scale="  180.414">  2  4  1 -1</clus>
<clus scale="  225.041">  1  5  2 -1</clus>
<clus scale="  225.041">  1  3  2 -1</clus>
</clustering>
</event>
<event>
 6    0  0.1230761E+002  0.1167371E+03  0.7546771E-02  0.1248579E+00
         21   -1    0    0  505  502  0.00000000000E+00  0.00000000000E+00  0.66383361720E+02  0.66383361720E+02  0.00000000000E+00 0. -1.
          2   -1    0    0  503    0 -0.00000000000E+00 -0.00000000000E+00 -0.79368825471E+03  0.79368825471E+03  0.00000000000E+00 0. -1.
         21    1    1    2  503  504  0.30370547885E+02 -0.34985726879E+02 -0.90898357725E+02  0.10202393200E+03  0.00000000000E+00 0. -1.
         21    1    1    2  504  502 -0.78463339310E+02  0.45781343389E+02  0.39344624362E+01  0.90928032052E+02  0.00000000000E+00 0. -1.
         21    1    1    2  505  501 -0.49791844050E+02 -0.17181110820E+02 -0.65900409740E+02  0.84363987025E+02  0.00000000000E+00 0. -1.
          2    1    1    2  501    0  0.97884635475E+02  0.63854943099E+01 -0.57444058796E+03  0.58275566535E+03  0.00000000000E+00 0. -1.
<scales pt_clust_3="46.32895" pt_clust_4="116.73712" pt_clust_5="51.01942" pt_clust_6="14000.00000"></scales>
<clustering>
<clus scale="   46.329">  2  3  1 -1</clus>
<clus scale="   51.019">  1  5  2 -1</clus>
<clus scale="  116.737">  1  4  2 -1</clus>
<clus scale="   51.019">  1  3  2 -1</clus>
</clustering>
</event>
<event>
 6    0  0.1230761E+002  0.1405681E+03  0.7546771E-02  0.1212567E+00
         21   -1    0    0  504  502  0.00000000000E+00  0.00000000000E+00  0.98110575098E+03  0.98110575098E+03  0.00000000000E+00 0.  1.
          2   -1    0    0  503    0 -0.00000000000E+00 -0.00000000000E+00 -0.10753264552E+04  0.10753264552E+04  0.00000000000E+00 0. -1.
         21    1    1    2  503  505 -0.20136814387E+02  0.25776831365E+02 -0.38722257196E+02  0.50688751526E+02  0.00000000000E+00 0. -1.
         21    1    1    2  504  501  0.27253517878E+02  0.85682918447E+02  0.11592530056E+03  0.14670716431E+03  0.00000000000E+00 0.  1.
         21    1    1    2  505  502 -0.74232813454E+02 -0.15162968358E+03  0.83382728160E+03  0.85074673498E+03  0.00000000000E+00 0.  1.
          2    1    1    2  501    0  0.67116109963E+02  0.40169933770E+02 -0.10052510291E+04  0.10082895553E+04  0.00000000000E+00 0. -1.
<scales pt_clust_3="32.70988" pt_clust_4="14000.00000" pt_clust_5="140.56811" pt_clust_6="80.75711"></scales>
<clustering>
<clus scale="   32.710">  2  3  1 -1</clus>
<clus scale="   80.757">  2  6  1 -1</clus>
<clus scale="  140.568">  1  5  2 -1</clus>
<clus scale="  140.568">  1  3  2 -1</clus>
</clustering>
</event>
<event>
 6    0  0.1230761E+002  0.7025537E+02  0.7546771E-02  0.1359227E+00
         -2   -1    0    0    0  501 -0.00000000000E+00  0.00000000000E+00  0.77763476086E+02  0.77763476086E+02  0.00000000000E+00 0. -1.
         21   -1    0    0  504  502  0.00000000000E+00 -0.00000000000E+00 -0.52068814792E+03  0.52068814792E+03  0.00000000000E+00 0. -1.
         21    1    1    2  503  502 -0.48972028586E+02  0.57045495775E+02 -0.27566707932E+03  0.28573551896E+03  0.00000000000E+00 0. -1.
         21    1    1    2  504  505  0.61662256295E+02  0.10053243871E+02 -0.14724342860E+03  0.15994976971E+03  0.00000000000E+00 0. -1.
         21    1    1    2  505  501  0.13718377343E+02  0.32397814470E+02 -0.33942555874E+02  0.48886699200E+02  0.00000000000E+00 0. -1.
         -2    1    1    2    0  503 -0.26408605052E+02 -0.99496554116E+02  0.13928391964E+02  0.10387963614E+03  0.00000000000E+00 0. -1.
<scales pt_clust_3="70.25537" pt_clust_4="64.22773" pt_clust_5="35.18256" pt_clust_6="14000.00000"></scales>
<clustering>
<clus scale="   35.183">  1  5  2 -1</clus>
<clus scale="   64.228">  2  4  1 -1</clus>
<clus scale="   70.255">  2  3  1 -1</clus>
<clus scale="   64.228">  2  3  1 -1</clus>
</clustering>
</event>
<event>
 6    0  0.1230761E+002  0.2650111E+03  0.7546771E-02  0.1104169E+00
          2   -1    0    0  503    0 -0.00000000000E+00  0.00000000000E+00  0.25873927408E+03  0.25873927408E+03  0.00000000000E+00 0.  1.
         21   -1    0    0  504  502  0.00000000000E+00 -0.00000000000E+00 -0.91216808463E+03  0.91216808463E+03  0.00000000000E+00 0.  1.
         21    1    1    2  503  505  0.21283182148E+02 -0.26848698303E+02  0.31894864782E+01  0.34409290415E+02  0.00000000000E+00 0.  1.
         21    1    1    2  504  501 -0.87802538599E+02 -0.25188278648E+03 -0.66870171459E+03  0.71994180807E+03  0.00000000000E+00 0.  1.
         21    1    1    2  505  502 -0.98331690290E+02  0.70294777384E+02 -0.68404676864E+02  0.13888728113E+03  0.00000000000E+00 0.  1.
          2    1    1    2  501    0  0.16485104674E+03  0.20843670740E+03  0.80488094427E+02  0.27766897909E+03  0.00000000000E+00 0.  1.
<scales pt_clust_3="34.26115" pt_clust_4="14000.00000" pt_clust_5="116.04581" pt_clust_6="265.01110"></scales>
<clustering>
<clus scale="   34.261">  1  3  2 -1</clus>
<clus scale="  116.046">  1  5  2 -1</clus>
<clus scale="  265.011">  1  6  2 -1</clus>
<clus scale="  265.011">  2  3  1 -1</clus>
</clustering>
</event>
<event>
 6    0  0.1230761E+002  0.1138250E+03  0.7546771E-02  0.1253646E+00
         21   -1    0    0  503  502  0.00000000000E+00  0.00000000000E+00  0.92697753603E+03  0.92697753603E+03  0.00000000000E+00 0. -1.
         -2   -1    0    0    0  501 -0.00000000000E+00 -0.00000000000E+00 -0.11937487294E+03  0.11937487294E+03  0.00000000000E+00 0.  1.
         21    1    1    2  503  504 -0.31500444265E+02  0.59756305949E+02  0.36054000130E+03  0.36681355840E+03  0.00000000000E+00 0. -1.
         21    1    1    2  504  501 -0.18295840753E+02 -0.31288518200E+02  0.43220926667E+01  0.36501912895E+02  0.00000000000E+00 0.  1.
         21    1    1    2  505  502  0.13697622598E+03 -0.91375443071E+02  0.49631871144E+03  0.52291894344E+03  0.00000000000E+00 0. -1.
         -2    1    1    2    0  505 -0.87179940964E+02  0.62907655322E+02 -0.53578142314E+02  0.12011799423E+03  0.00000000000E+00 0.  1.
<scales pt_clust_3="66.97572" pt_clust_4="36.24513" pt_clust_5="14000.00000" pt_clust_6="113.82502"></scales>
<clustering>
<clus scale="   36.245">  2  4  1 -1</clus>
<clus scale="   66.976">  1  3  2 -1</clus>
<clus scale="  113.825">  2  6  1 -1</clus>
<clus scale="   66.976">  1  3  2 -1</clus>
</clustering>
</event>
<event>
 6    0  0.1230761E+002  0.1200138E+03  0.7546771E-02  0.1243074E+00
          2   -1    0    0  504    0 -0.00000000000E+00  0.00000000000E+00  0.31820133973E+04  0.31820133973E+04  0.00000000000E+00 0.  1.
         21   -1    0    0  503  502  0.00000000000E+00 -0.00000000000E+00 -0.49057984335E+03  0.49057984335E+03  0.00000000000E+00 0. -1.
         21    1    1    2  503  505 -0.31129083034E+02  0.68856069728E+01 -0.20989029423E+03  0.21229782619E+03  0.00000000000E+00 0. -1.
         21    1    1    2  504  502 -0.25206861140E+02  0.69495737853E+02  0.14052761958E+04  0.14072193254E+04  0.00000000000E+00 0.  1.
         21    1    1    2  505  501 -0.49178528908E+02  0.82273340479E+02 -0.26497345186E+03  0.28177714678E+03  0.00000000000E+00 0. -1.
          2    1    1    2  501    0  0.10551447308E+03 -0.15865468530E+03  0.17610211043E+04  0.17712989423E+04  0.00000000000E+00 0.  1.
<scales pt_clust_3="31.88152" pt_clust_4="73.98539" pt_clust_5="120.01379" pt_clust_6="14000.00000"></scales>
<clustering>
<clus scale="   31.882">  2  3  1 -1</clus>
<clus scale="   73.985">  1  4  2 -1</clus>
<clus scale="  120.014">  2  5  1 -1</clus>
<clus scale="   31.882">  2  3  1 -1</clus>
</clustering>
</event>
<event>
 6    0  0.1230761E+002  0.1161406E+03  0.7546771E-02  0.1249603E+00
         21   -1    0    0  504  502  0.00000000000E+00  0.00000000000E+00  0.36232825022E+03  0.36232825022E+03  0.00000000000E+00 0.  1.
          2   -1    0    0  505    0 -0.00000000000E+00 -0.00000000000E+00 -0.68488212412E+03  0.68488212412E+03  0.00000000000E+00 0.  1.
         21    1    1    2  503  501  0.59294866850E+02 -0.11998290279E+02  0.21320943727E+03  0.22162604618E+03  0.00000000000E+00 0.  1.
         21    1    1    2  504  503  0.62642228884E+00 -0.32004726475E+02  0.11319305155E+03  0.11763231631E+03  0.00000000000E+00 0.  1.
         21    1    1    2  505  502  0.13121122733E+02 -0.48481397898E+02 -0.19110161311E+01  0.50261931783E+02  0.00000000000E+00 0.  1.
          2    1    1    2  501    0 -0.73042411872E+02  0.92484414652E+02 -0.64704534659E+03  0.65769008007E+03  0.00000000000E+00 0.  1.
<scales pt_clust_3="116.14062" pt_clust_4="32.01086" pt_clust_5="53.27178" pt_clust_6="14000.00000"></scales>
<clustering>
<clus scale="   32.011">  1  4  2 -1</clus>
<clus scale="   53.272">  1  5  2 -1</clus>
<clus scale="  116.141">  1  3  2 -1</clus>
<clus scale="   32.011">  1  3  2 -1</clus>
</clustering>
</event>
<event>
 6    0  0.1230761E+002  0.6132132E+02  0.7546771E-02  0.1392369E+00
         21   -1    0    0  505  502  0.00000000000E+00  0.00000000000E+00  0.15949738471E+03  0.15949738471E+03  0.00000000000E+00 0. -1.
          1   -1    0    0  504    0 -0.00000000000E+00 -0.00000000000E+00 -0.15088158748E+04  0.15088158748E+04  0.00000000000E+00 0. -1.
         21    1    1    2  503  502 -0.34881717194E+02 -0.42681440352E+01 -0.68870497384E+01  0.35810371431E+02  0.00000000000E+00 0. -1.
         21    1    1    2  504  503  0.30933219693E+01 -0.38821189198E+02 -0.37621859532E+03  0.37822887891E+03  0.00000000000E+00 0. -1.
         21    1    1    2  505  501  0.81189231390E+02 -0.34087489689E+02  0.12847671472E+03  0.15575594522E+03  0.00000000000E+00 0. -1.
          1    1    1    2  501    0 -0.49400836165E+02  0.77176822923E+02 -0.10946895597E+04  0.10985180639E+04  0.00000000000E+00 0. -1.
<scales pt_clust_3="35.14187" pt_clust_4="38.95528" pt_clust_5="14000.00000" pt_clust_6="61.32132"></scales>
<clustering>
<clus scale="   35.142">  1  3  2 -1</clus>
<clus scale="   38.955">  2  4  1 -1</clus>
<clus scale="   61.321">  2  6  1 -1</clus>
<clus scale="   35.142">  1  3  2 -1</clus>
</clustering>
</event>
<event>
 6    0  0.1230761E+002  0.1404619E+03  0.7546771E-02  0.1212709E+00
          2   -1    0    0  503    0 -0.00000000000E+00  0.00000000000E+00  0.35595386785E+04  0.35595386785E+04  0.00000000000E+00 0. -1.
         21   -1    0    0  504  502  0.00000000000E+00 -0.00000000000E+00 -0.71964557267E+02  0.71964557267E+02  0.00000000000E+00 0.  1.
         21    1    1    2  503  502 -0.20443244303E+02  0.40501730297E+02  0.10176995995E+04  0.10187103569E+04  0.00000000000E+00 0. -1.
         21    1    1    2  504  505  0.78859830332E+02 -0.25280352800E+02 -0.73796137319E+01  0.83141011399E+02  0.00000000000E+00 0.  1.
         21    1    1    2  505  501  0.56364463394E+02  0.10719777582E+02  0.83901357912E+01  0.57985004472E+02  0.00000000000E+00 0.  1.
          2    1    1    2  501    0 -0.11478104942E+03 -0.25941155079E+02  0.24688639996E+04  0.24716668630E+04  0.00000000000E+00 0. -1.
<scales pt_clust_3="45.36867" pt_clust_4="31.34268" pt_clust_5="31.34268" pt_clust_6="135.32048"></scales>
<clustering>
<clus scale="   31.343">  4  5 -1 -1</clus>
<clus scale="   45.369">  1  3  2 -1</clus>
<clus scale="  135.320">  1  6  2 -1</clus>
<clus scale="  140.462">  2  3  1 -1</clus>
</clustering>
</event>
<event>
 6    0  0.1230761E+002  0.6953379E+02  0.7546771E-02  0.1361686E+00
         21   -1    0    0  503  502  0.00000000000E+00  0.00000000000E+00  0.57552620667E+02  0.57552620667E+02  0.00000000000E+00 0.  1.
          2   -1    0    0  504    0 -0.00000000000E+00 -0.00000000000E+00 -0.91116288537E+03  0.91116288537E+03  0.00000000000E+00 0.  1.
         21    1    1    2  503  501  0.13117692360E+02 -0.55250008666E+02  0.19470189979E+02  0.60031038708E+02  0.00000000000E+00 0.  1.
         21    1    1    2  504  505  0.19274832913E+01 -0.68629852207E+02 -0.23023617159E+03  0.24025500310E+03  0.00000000000E+00 0.  1.
         21    1    1    2  505  502 -0.47259641203E+02  0.58632545136E+02 -0.12832665906E+03  0.14879173519E+03  0.00000000000E+00 0.  1.
          2    1    1    2  501    0  0.32214465551E+02  0.65247315737E+02 -0.51451762403E+03  0.51963772904E+03  0.00000000000E+00 0.  1.
<scales pt_clust_3="56.78589" pt_clust_4="69.53379" pt_clust_5="47.95743" pt_clust_6="14000.00000"></scales>
<clustering>
<clus scale="   56.786">  1  3  2 -1</clus>
<clus scale="   47.957">  1  5  2 -1</clus>
<clus scale="   69.534">  1  4  2 -1</clus>
<clus scale="   56.786">  1  3  2 -1</clus>
</clustering>
</event>
<event>
 6    0  0.1230761E+002  0.1003050E+03  0.7546771E-02  0.1279656E+00
         21   -1    0    0  505  502  0.00000000000E+00  0.00000000000E+00  0.11077132501E+04  0.11077132501E+04  0.00000000000E+00 0. -1.
          1   -1    0    0  504    0 -0.00000000000E+00 -0.00000000000E+00 -0.15456351912E+04  0.15456351912E+04  0.00000000000E+00 0. -1.
         21    1    1    2  503  501 -0.25727763471E+02  0.61241514162E+02 -0.49962541005E+02  0.83118568165E+02  0.00000000000E+00 0.  1.
         21    1    1    2  504  502 -0.23621263714E+02 -0.99985421309E+02  0.47864928693E+03  0.48955100700E+03  0.00000000000E+00 0. -1.
         21    1    1    2  505  503  0.53200262772E+02 -0.85920290103E+00  0.60559985242E+03  0.60793271621E+03  0.00000000000E+00 0. -1.
          1    1    1    2  501    0 -0.38512355864E+01  0.39603110048E+02 -0.14722085395E+04  0.14727461499E+04  0.00000000000E+00 0. -1.
<scales pt_clust_3="100.30502" pt_clust_4="14000.00000" pt_clust_5="53.13935" pt_clust_6="39.78993"></scales>
<clustering>
<clus scale="   39.790">  2  6  1 -1</clus>
<clus scale="   53.139">  1  5  2 -1</clus>
<clus scale="  100.305">  2  3  1 -1</clus>
<clus scale="   53.139">  1  3  2 -1</clus>
</clustering>
</event>
<event>
 6    0  0.1230761E+002  0.1556879E+03  0.7546771E-02  0.1193653E+00
          2   -1    0    0  503    0 -0.00000000000E+00  0.00000000000E+00  0.13796584535E+04  0.13796584535E+04  0.00000000000E+00 0. -1.
         21   -1    0    0  501  502  0.00000000000E+00 -0.00000000000E+00 -0.87596450369E+02  0.87596450369E+02  0.00000000000E+00 0. -1.
         21    1    1    2  503  505 -0.26462538107E+02  0.55431922008E+02  0.14665368262E+03  0.15899769347E+03  0.00000000000E+00 0.  1.
         21    1    1    2  504  502  0.66539297239E+02 -0.51537568354E+02 -0.15721755365E+02  0.85619931211E+02  0.00000000000E+00 0. -1.
         21    1    1    2  505  504  0.30476572904E+02 -0.65213852164E+02  0.16054186376E+02  0.73752321389E+02  0.00000000000E+00 0. -1.
          2    1    1    2  501    0 -0.70553332036E+02  0.61319498509E+02  0.11450758895E+04  0.11488849578E+04  0.00000000000E+00 0. -1.
<scales pt_clust_3="61.42446" pt_clust_4="44.89327" pt_clust_5="44.89327" pt_clust_6="147.92663"></scales>
<clustering>
<clus scale="   44.893">  4  5 -1 -1</clus>
<clus scale="   61.424">  1  3  2 -1</clus>
<clus scale="  147.927">  1  6  2 -1</clus>
<clus scale="  155.688">  2  3  1 -1</clus>
</clustering>
</event>
<event>
 6    0  0.1230761E+002  0.1302815E+03  0.7546771E-02  0.1227039E+00
          2   -1    0    0  503    0 -0.00000000000E+00  0.00000000000E+00  0.32295184134E+04  0.32295184134E+04  0.00000000000E+00 0. -1.
         21   -1    0    0  505  502  0.00000000000E+00 -0.00000000000E+00 -0.13221928108E+02  0.13221928108E+02  0.00000000000E+00 0.  1.
         21    1    1    2  503  502  0.31949393980E+02 -0.46684570631E+02  0.80693741944E+03  0.80891792650E+03  0.00000000000E+00 0.  1.
         21    1    1    2  504  501 -0.18376918640E+02 -0.40811857895E+02  0.23257494743E+03  0.23684261664E+03  0.00000000000E+00 0.  1.
         21    1    1    2  505  504 -0.48435694170E+02 -0.56379871145E+02  0.18037416604E+03  0.19508855967E+03  0.00000000000E+00 0.  1.
          2    1    1    2  501    0  0.34863218830E+02  0.14387629967E+03  0.19964099524E+04  0.20018912387E+04  0.00000000000E+00 0. -1.
<scales pt_clust_3="56.57042" pt_clust_4="35.79202" pt_clust_5="35.79202" pt_clust_6="121.84353"></scales>
<clustering>
<clus scale="   35.792">  4  5 -1 -1</clus>
<clus scale="   56.570">  1  3  2 -1</clus>
<clus scale="  121.844">  1  6  2 -1</clus>
<clus scale="  130.281">  2  3  1 -1</clus>
</clustering>
</event>
<event>
 6    0  0.1230761E+002  0.9061138E+02  0.7546771E-02  0.1301378E+00
          1   -1    0    0  505    0 -0.00000000000E+00  0.00000000000E+00  0.35248398182E+03  0.35248398182E+03  0.00000000000E+00 0. -1.
         21   -1    0    0  504  502  0.00000000000E+00 -0.00000000000E+00 -0.32281389158E+03  0.32281389158E+03  0.00000000000E+00 0. -1.
         21    1    1    2  503  502  0.93352318014E+01  0.49799519908E+02 -0.20170195273E+01  0.50707071535E+02  0.00000000000E+00 0. -1.
         21    1    1    2  504  501  0.75308561186E+02  0.19752255210E+02 -0.25362215565E+03  0.26530308858E+03  0.00000000000E+00 0. -1.
         21    1    1    2  505  503 -0.49270770910E+02  0.15125290044E+02 -0.78194779021E+01  0.52129909838E+02  0.00000000000E+00 0.  1.
          1    1    1    2  501    0 -0.35373022078E+02 -0.84677065163E+02  0.29312874332E+03  0.30715780344E+03  0.00000000000E+00 0. -1.
<scales pt_clust_3="50.66694" pt_clust_4="14000.00000" pt_clust_5="52.36350" pt_clust_6="90.61138"></scales>
<clustering>
<clus scale="   50.667">  2  3  1 -1</clus>
<clus scale="   52.363">  2  5  1 -1</clus>
<clus scale="   90.611">  1  6  2 -1</clus>
<clus scale="   50.667">  2  3  1 -1</clus>
</clustering>
</event>
<event>
 6    0  0.1230761E+002  0.8373813E+02  0.7546771E-02  0.1318766E+00
         -2   -1    0    0    0  501 -0.00000000000E+00  0.00000000000E+00  0.96302066476E+03  0.96302066476E+03  0.00000000000E+00 0. -1.
         21   -1    0    0  503  502  0.00000000000E+00 -0.00000000000E+00 -0.27128909310E+03  0.27128909310E+03  0.00000000000E+00 0. -1.
         21    1    1    2  503  504  0.34072309883E+02 -0.88153560814E+01 -0.26145099850E+02  0.43842890527E+02  0.00000000000E+00 0. -1.
         21    1    1    2  504  501 -0.44349098386E+02  0.42493520050E+00  0.20862422166E+03  0.21328640125E+03  0.00000000000E+00 0. -1.
         21    1    1    2  505  502 -0.99633246818E+02  0.57910310613E+02 -0.21447877444E+03  0.24347799209E+03  0.00000000000E+00 0. -1.
         -2    1    1    2    0  505  0.10991003532E+03 -0.49519889733E+02  0.72373122429E+03  0.73370247400E+03  0.00000000000E+00 0. -1.
<scales pt_clust_3="35.19422" pt_clust_4="44.01427" pt_clust_5="83.73813" pt_clust_6="14000.00000"></scales>
<clustering>
<clus scale="   35.194">  2  3  1 -1</clus>
<clus scale="   44.014">  1  4  2 -1</clus>
<clus scale="   83.738">  2  5  1 -1</clus>
<clus scale="   35.194">  2  3  1 -1</clus>
</clustering>
</event>
<event>
 6    0  0.1230761E+002  0.1210290E+03  0.7546771E-02  0.1241409E+00
         -1   -1    0    0    0  501 -0.00000000000E+00  0.00000000000E+00  0.16600407073E+04  0.16600407073E+04  0.00000000000E+00 0.  1.
         21   -1    0    0  503  502  0.00000000000E+00 -0.00000000000E+00 -0.60977792487E+02  0.60977792487E+02  0.00000000000E+00 0.  1.
         21    1    1    2  503  504 -0.51209416638E+02  0.20459016949E+01  0.64069977768E+02  0.82046036573E+02  0.00000000000E+00 0.  1.
         21    1    1    2  504  501 -0.23046126800E+02  0.31190436164E+02  0.35023826982E+03  0.35237879181E+03  0.00000000000E+00 0.  1.
         21    1    1    2  505  502 -0.68741272505E+02  0.26009056003E+02 -0.16567222564E+02  0.75341266271E+02  0.00000000000E+00 0.  1.
         -1    1    1    2    0  505  0.14299681594E+03 -0.59245393862E+02  0.12013218898E+04  0.12112524051E+04  0.00000000000E+00 0.  1.
<scales pt_clust_3="52.63235" pt_clust_4="38.78102" pt_clust_5="14000.00000" pt_clust_6="121.02897"></scales>
<clustering>
<clus scale="   38.781">  1  4  2 -1</clus>
<clus scale="   52.632">  2  3  1 -1</clus>
<clus scale="  121.029">  1  6  2 -1</clus>
<clus scale="   52.632">  2  3  1 -1</clus>
</clustering>
</event>
<event>
 6    0  0.1230761E+002  0.1082961E+03  0.7546771E-02  0.1263758E+00
          2   -1    0    0  503    0 -0.00000000000E+00  0.00000000000E+00  0.29235961151E+04  0.29235961151E+04  0.00000000000E+00 0. -1.
         21   -1    0    0  501  502  0.00000000000E+00 -0.00000000000E+00 -0.90997675228E+03  0.90997675228E+03  0.00000000000E+00 0. -1.
         21    1    1    2  503  504 -0.30019963807E+02 -0.93333400109E+02  0.22137057402E+03  0.24211000154E+03  0.00000000000E+00 0.  1.
         21    1    1    2  504  505  0.18759510588E+03 -0.56104960766E+02 -0.13349121689E+03  0.23698015816E+03  0.00000000000E+00 0.  1.
         21    1    1    2  505  502 -0.99234755330E+02  0.42281431923E+01 -0.70858557101E+03  0.71551305040E+03  0.00000000000E+00 0. -1.
          2    1    1    2  501    0 -0.58340386746E+02  0.14521021768E+03  0.26343255767E+04  0.26389696572E+04  0.00000000000E+00 0. -1.
<scales pt_clust_3="98.04245" pt_clust_4="14000.00000" pt_clust_5="99.35834" pt_clust_6="108.29607"></scales>
<clustering>
<clus scale="   98.042">  1  3  2 -1</clus>
<clus scale="   99.358">  2  5  1 -1</clus>
<clus scale="  108.296">  1  6  2 -1</clus>
<clus scale="   99.358">  2  3  1 -1</clus>
</clustering>
</event>
<event>
 6    0  0.1230761E+002  0.1315661E+03  0.7546771E-02  0.1225150E+00
          2   -1    0    0  503    0 -0.00000000000E+00  0.00000000000E+00  0.97316156707E+03  0.97316156707E+03  0.00000000000E+00 0.  1.
         21   -1    0    0  504  502  0.00000000000E+00 -0.00000000000E+00 -0.49285198558E+02  0.49285198558E+02  0.00000000000E+00 0.  1.
         21    1    1    2  503  505  0.47663730537E+02 -0.10219776820E+02  0.59607752875E+02  0.77002332755E+02  0.00000000000E+00 0.  1.
         21    1    1    2  504  501 -0.90585165016E+02  0.16121797180E+02  0.31619898636E+03  0.32931350328E+03  0.00000000000E+00 0.  1.
         21    1    1    2  505  502  0.76416265463E+02 -0.29648109912E+02  0.17295411173E+02  0.83771040917E+02  0.00000000000E+00 0.  1.
          2    1    1    2  501    0 -0.33494830983E+02  0.23746089552E+02  0.53077421810E+03  0.53235988868E+03  0.00000000000E+00 0.  1.
<scales pt_clust_3="40.46199" pt_clust_4="119.83723" pt_clust_5="40.46199" pt_clust_6="41.05826"></scales>
<clustering>
<clus scale="   41.058">  1  6  2 -1</clus>
<clus scale="   40.462">  3  5 -1 -1</clus>
<clus scale="  119.837">  1  4  2 -1</clus>
<clus scale="  131.566">  2  3  1 -1</clus>
</clustering>
</event>
<event>
 6    0  0.1230761E+002  0.1215990E+03  0.7546771E-02  0.1240482E+00
         21   -1    0    0  504  502  0.00000000000E+00  0.00000000000E+00  0.22751919467E+03  0.22751919467E+03  0.00000000000E+00 0.  1.
          2   -1    0    0  505    0 -0.00000000000E+00 -0.00000000000E+00 -0.36704351967E+04  0.36704351967E+04  0.00000000000E+00 0.  1.
         21    1    1    2  503  501 -0.62825196586E+02 -0.14194009445E+02  0.13353915838E+03  0.14826052088E+03  0.00000000000E+00 0.  1.
         21    1    1    2  504  503 -0.44386867740E+02 -0.32324307856E+02  0.73665870216E+02  0.91878807899E+02  0.00000000000E+00 0.  1.
         21    1    1    2  505  502 -0.55158341404E+02  0.16559125518E+02 -0.48802802023E+03  0.49141428123E+03  0.00000000000E+00 0.  1.
          2    1    1    2  501    0  0.16237040573E+03  0.29959191783E+02 -0.31620930104E+04  0.31664007813E+04  0.00000000000E+00 0.  1.
<scales pt_clust_3="30.26730" pt_clust_4="30.26730" pt_clust_5="57.59034" pt_clust_6="117.09708"></scales>
<clustering>
<clus scale="   30.267">  3  4 -1 -1</clus>
<clus scale="   57.590">  2  5  1 -1</clus>
<clus scale="  117.097">  2  6  1 -1</clus>
<clus scale="  121.599">  1  3  2 -1</clus>
</clustering>
</event>
<event>
 6    0  0.1230761E+002  0.1173220E+03  0.7546771E-02  0.1247582E+00
          2   -1    0    0  503    0 -0.00000000000E+00  0.00000000000E+00  0.72203157744E+03  0.72203157744E+03  0.00000000000E+00 0. -1.
         21   -1    0    0  505  502  0.00000000000E+00 -0.00000000000E+00 -0.15619301655E+03  0.15619301655E+03  0.00000000000E+00 0.  1.
         21    1    1    2  503  504 -0.37470675437E+02 -0.35813838707E+02  0.38424246664E+02  0.64522130252E+02  0.00000000000E+00 0.  1.
         21    1    1    2  504  502  0.14948446676E+02 -0.26878198288E+02  0.25014936183E+02  0.39643923033E+02  0.00000000000E+00 0.  1.
         21    1    1    2  505  501 -0.74863923122E+02 -0.67493203915E+01 -0.11927382888E+03  0.14098371029E+03  0.00000000000E+00 0.  1.
          2    1    1    2  501    0  0.97386151882E+02  0.69441357386E+02  0.62167320693E+03  0.63307483041E+03  0.00000000000E+00 0. -1.
<scales pt_clust_3="52.57854" pt_clust_4="30.75538" pt_clust_5="117.32195" pt_clust_6="14000.00000"></scales>
<clustering>
<clus scale="   30.755">  2  4  1 -1</clus>
<clus scale="   52.579">  2  3  1 -1</clus>
<clus scale="  117.322">  2  5  1 -1</clus>
<clus scale="   30.755">  2  3  1 -1</clus>
</clustering>
</event>
<event>
 6    0  0.1230761E+002  0.1028323E+03  0.7546771E-02  0.1274450E+00
         21   -1    0    0  504  502  0.00000000000E+00  0.00000000000E+00  0.43191523995E+03  0.43191523995E+03  0.00000000000E+00 0.  1.
          2   -1    0    0  503    0 -0.00000000000E+00 -0.00000000000E+00 -0.18769900667E+04  0.18769900667E+04  0.00000000000E+00 0. -1.
         21    1    1    2  503  505 -0.21252316652E+02  0.22383548445E+02 -0.49016651782E+03  0.49113735289E+03  0.00000000000E+00 0. -1.
         21    1    1    2  504  501 -0.11104144850E+03 -0.24585865106E+02  0.20006536845E+03  0.23013217875E+03  0.00000000000E+00 0.  1.
         21    1    1    2  505  502  0.95717409841E+02 -0.34201420217E+02  0.20387465990E+03  0.22780789416E+03  0.00000000000E+00 0.  1.
          2    1    1    2  501    0  0.36576355308E+02  0.36403736878E+02 -0.13588483372E+04  0.13598278808E+04  0.00000000000E+00 0. -1.
<scales pt_clust_3="30.86558" pt_clust_4="14000.00000" pt_clust_5="102.83233" pt_clust_6="60.43644"></scales>
<clustering>
<clus scale="   30.866">  2  3  1 -1</clus>
<clus scale="   60.436">  2  6  1 -1</clus>
<clus scale="  102.832">  1  5  2 -1</clus>
<clus scale="  102.832">  1  3  2 -1</clus>
</clustering>
</event>
<event>
 6    0  0.1230761E+002  0.8267515E+02  0.7546771E-02  0.1321627E+00
          2   -1    0    0  502    0 -0.00000000000E+00  0.00000000000E+00  0.18162431709E+04  0.18162431709E+04  0.00000000000E+00 0. -1.
         21   -1    0    0  503  502  0.00000000000E+00 -0.00000000000E+00 -0.13584168764E+04  0.13584168764E+04  0.00000000000E+00 0. -1.
         21    1    1    2  503  505  0.48588848160E+02  0.10723975154E+02 -0.67353574508E+03  0.67537121622E+03  0.00000000000E+00 0. -1.
         21    1    1    2  504  501 -0.24231735930E+02  0.80270279369E+02  0.17286562253E+03  0.19212760923E+03  0.00000000000E+00 0.  1.
         21    1    1    2  505  504  0.27913745361E+02 -0.45241247269E+02 -0.67254425669E+03  0.67464192342E+03  0.00000000000E+00 0. -1.
          2    1    1    2  501    0 -0.52270857591E+02 -0.45753007254E+02  0.16310406737E+04  0.16325192984E+04  0.00000000000E+00 0. -1.
<scales pt_clust_3="49.75821" pt_clust_4="82.67515" pt_clust_5="14000.00000" pt_clust_6="69.41925"></scales>
<clustering>
<clus scale="   49.758">  2  3  1 -1</clus>
<clus scale="   69.419">  1  6  2 -1</clus>
<clus scale="   82.675">  1  4  2 -1</clus>
<clus scale="   49.758">  2  3  1 -1</clus>
</clustering>
</event>
<event>
 6    0  0.1230761E+002  0.1917501E+03  0.7546771E-02  0.1156892E+00
         21   -1    0    0  504  502  0.00000000000E+00  0.00000000000E+00  0.35912938292E+03  0.35912938292E+03  0.00000000000E+00 0. -1.
          2   -1    0    0  505    0 -0.00000000000E+00 -0.00000000000E+00 -0.54096794208E+03  0.54096794208E+03  0.00000000000E+00 0. -1.
         21    1    1    2  503  502  0.14437340337E+03 -0.12981673037E+03  0.13883130507E+03  0.23868429851E+03  0.00000000000E+00 0. -1.
         21    1    1    2  504  501 -0.12588711952E+03  0.14146018195E+03  0.78342117623E+02  0.20492934717E+03  0.00000000000E+00 0. -1.
         21    1    1    2  505  503  0.56930382387E+02  0.44929095378E+02 -0.35124462034E+02  0.80581758999E+02  0.00000000000E+00 0.  1.
          2    1    1    2  501    0 -0.75416666240E+02 -0.56572546950E+02 -0.36388751982E+03  0.37590192032E+03  0.00000000000E+00 0. -1.
<scales pt_clust_3="191.75013" pt_clust_4="14000.00000" pt_clust_5="72.52373" pt_clust_6="38.79001"></scales>
<clustering>
<clus scale="   72.524">  2  5  1 -1</clus>
<clus scale="   38.790">  2  6  1 -1</clus>
<clus scale="  191.750">  1  3  2 -1</clus>
<clus scale="  191.750">  1  3  2 -1</clus>
</clustering>
</event>
<event>
 6    0  0.1230761E+002  0.9239671E+02  0.7546771E-02  0.1297149E+00
          2   -1    0    0  504    0 -0.00000000000E+00  0.00000000000E+00  0.24419555379E+04  0.24419555379E+04  0.00000000000E+00 0. -1.
         21   -1    0    0  503  502  0.00000000000E+00 -0.00000000000E+00 -0.33625929589E+03  0.33625929589E+03  0.00000000000E+00 0. -1.
         21    1    1    2  503  501 -0.47694478253E+02 -0.45708147269E+01 -0.30270617267E+03  0.30647460348E+03  0.00000000000E+00 0. -1.
         21    1    1    2  504  505 -0.75125348874E+00 -0.96632948721E+02  0.49541738158E+03  0.50475427005E+03  0.00000000000E+00 0. -1.
         21    1    1    2  505  502 -0.40450182508E+01  0.86722865865E+02  0.44224235006E+02  0.97432030659E+02  0.00000000000E+00 0. -1.
          2    1    1    2  501    0  0.52490749992E+02  0.14480897583E+02  0.18687607981E+04  0.18695539296E+04  0.00000000000E+00 0. -1.
<scales pt_clust_3="47.91300" pt_clust_4="14000.00000" pt_clust_5="92.39671" pt_clust_6="53.86073"></scales>
<clustering>
<clus scale="   47.913">  2  3  1 -1</clus>
<clus scale="   53.861">  1  6  2 -1</clus>
<clus scale="   92.397">  2  5  1 -1</clus>
<clus scale="   47.913">  2  3  1 -1</clus>
</clustering>
</event>
<event>
 6    0  0.1230761E+002  0.1425882E+03  0.7546771E-02  0.1209888E+00
          1   -1    0    0  504    0 -0.00000000000E+00  0.00000000000E+00  0.24433098201E+04  0.24433098201E+04  0.00000000000E+00 0. -1.
         21   -1    0    0  505  502  0.00000000000E+00 -0.00000000000E+00 -0.23469656163E+03  0.23469656163E+03  0.00000000000E+00 0. -1.
         21    1    1    2  503  502  0.50083246371E+02  0.10063407412E+03 -0.89007546803E+01  0.11275979724E+03  0.00000000000E+00 0. -1.
         21    1    1    2  504  503  0.68210075432E+01  0.29250064440E+02  0.34610893211E+03  0.34740967934E+03  0.00000000000E+00 0. -1.
         21    1    1    2  505  501 -0.11487612708E+03 -0.12392680065E+03 -0.13147888350E+03  0.21410528555E+03  0.00000000000E+00 0. -1.
          1    1    1    2  501    0  0.57971873164E+02 -0.59573379009E+01  0.20028839646E+04  0.20037316196E+04  0.00000000000E+00 0. -1.
<scales pt_clust_3="142.58819" pt_clust_4="30.03485" pt_clust_5="14000.00000" pt_clust_6="68.13619"></scales>
<clustering>
<clus scale="   30.035">  1  4  2 -1</clus>
<clus scale="   68.136">  1  6  2 -1</clus>
<clus scale="  142.588">  1  3  2 -1</clus>
<clus scale="  142.588">  2  3  1 -1</clus>
</clustering>
</event>
<event>
 6    0  0.1230761E+002  0.1346168E+03  0.7546771E-02  0.1220762E+00
         21   -1    0    0  505  502  0.00000000000E+00  0.00000000000E+00  0.60340226747E+02  0.60340226747E+02  0.00000000000E+00 0. -1.
          2   -1    0    0  504    0 -0.00000000000E+00 -0.00000000000E+00 -0.11376994570E+04  0.11376994570E+04  0.00000000000E+00 0. -1.
         21    1    1    2  503  501  0.93100697401E+02 -0.89819664017E+02 -0.82434423274E+02  0.15339734692E+03  0.00000000000E+00 0. -1.
         21    1    1    2  504  502  0.20757200717E+01 -0.45084183049E+02 -0.14414855012E+03  0.15104865665E+03  0.00000000000E+00 0. -1.
         21    1    1    2  505  503  0.22090896236E+02  0.24932773577E+02 -0.62383693544E+01  0.33890531819E+02  0.00000000000E+00 0. -1.
          2    1    1    2  501    0 -0.11726731371E+03  0.10997107349E+03 -0.84453788754E+03  0.85970314840E+03  0.00000000000E+00 0. -1.
<scales pt_clust_3="14000.00000" pt_clust_4="43.39412" pt_clust_5="33.31142" pt_clust_6="134.61683"></scales>
<clustering>
<clus scale="   33.311">  1  5  2 -1</clus>
<clus scale="   43.394">  2  4  1 -1</clus>
<clus scale="  134.617">  2  6  1 -1</clus>
<clus scale="   33.311">  1  3  2 -1</clus>
</clustering>
</event>
<event>
 6    0  0.1230761E+002  0.1039029E+03  0.7546771E-02  0.1272296E+00
          2   -1    0    0  504    0 -0.00000000000E+00  0.00000000000E+00  0.41703850809E+03  0.41703850809E+03  0.00000000000E+00 0. -1.
         21   -1    0    0  501  502  0.00000000000E+00 -0.00000000000E+00 -0.10993491501E+03  0.10993491501E+03  0.00000000000E+00 0. -1.
         21    1    1    2  503  505  0.75583545293E+02  0.68676189306E+01 -0.57607308606E+02  0.95281889746E+02  0.00000000000E+00 0. -1.
         21    1    1    2  504  503  0.39738736189E+02 -0.85752661812E+01  0.80968639480E+02  0.90601451000E+02  0.00000000000E+00 0. -1.
         21    1    1    2  505  502  0.28322588160E+02 -0.10629934134E+02  0.10281361325E+02  0.31951070256E+02  0.00000000000E+00 0. -1.
          2    1    1    2  501    0 -0.14364486964E+03  0.12337581385E+02  0.27346090088E+03  0.30913901209E+03  0.00000000000E+00 0. -1.
<scales pt_clust_3="103.90293" pt_clust_4="42.10851" pt_clust_5="30.25169" pt_clust_6="14000.00000"></scales>
<clustering>
<clus scale="   30.252">  2  5  1 -1</clus>
<clus scale="   42.109">  1  4  2 -1</clus>
<clus scale="  103.903">  2  3  1 -1</clus>
<clus scale="   30.252">  2  3  1 -1</clus>
</clustering>
</event>
<event>
 6    0  0.1230761E+002  0.1555611E+03  0.7546771E-02  0.1193801E+00
          1   -1    0    0  505    0 -0.00000000000E+00  0.00000000000E+00  0.16761161993E+04  0.16761161993E+04  0.00000000000E+00 0. -1.
         21   -1    0    0  504  502  0.00000000000E+00 -0.00000000000E+00 -0.64561796675E+02  0.64561796675E+02  0.00000000000E+00 0. -1.
         21    1    1    2  503  501 -0.46709700077E+02 -0.49335904737E+02  0.32173790284E+02  0.75173002859E+02  0.00000000000E+00 0. -1.
         21    1    1    2  504  503 -0.84013562033E+02  0.11401717323E+02  0.98321852116E+01  0.85351916378E+02  0.00000000000E+00 0. -1.
         21    1    1    2  505  502 -0.18232589774E+02  0.26937816562E+02  0.22622364212E+03  0.22855023418E+03  0.00000000000E+00 0.  1.
          1    1    1    2  501    0  0.14895585188E+03  0.10996370853E+02  0.13433247850E+04  0.13516028426E+04  0.00000000000E+00 0. -1.
<scales pt_clust_3="65.84417" pt_clust_4="65.84417" pt_clust_5="32.52804" pt_clust_6="136.83234"></scales>
<clustering>
<clus scale="   32.528">  1  5  2 -1</clus>
<clus scale="   65.844">  3  4 -1 -1</clus>
<clus scale="  136.832">  1  6  2 -1</clus>
<clus scale="  155.561">  2  3  1 -1</clus>
</clustering>
</event>
<event>
 6    0  0.1230761E+002  0.1283063E+03  0.7546771E-02  0.1229991E+00
         21   -1    0    0  505  502  0.00000000000E+00  0.00000000000E+00  0.80503626225E+02  0.80503626225E+02  0.00000000000E+00 0.  1.
          2   -1    0    0  503    0 -0.00000000000E+00 -0.00000000000E+00 -0.17342681004E+04  0.17342681004E+04  0.00000000000E+00 0.  1.
         21    1    1    2  503  502 -0.12319034686E+01 -0.35025315045E+02 -0.19678001655E+03  0.19987662493E+03  0.00000000000E+00 0.  1.
         21    1    1    2  504  501 -0.72278377129E+02  0.33878577485E+02  0.21265570921E+01  0.79852639642E+02  0.00000000000E+00 0.  1.
         21    1    1    2  505  504 -0.45812135911E+02 -0.68216402142E+01  0.20468160661E+02  0.50638248121E+02  0.00000000000E+00 0.  1.
          2    1    1    2  501    0  0.11932241651E+03  0.79683777743E+01 -0.14795791754E+04  0.14844042140E+04  0.00000000000E+00 0.  1.
<scales pt_clust_3="35.04697" pt_clust_4="32.67392" pt_clust_5="32.67392" pt_clust_6="120.92398"></scales>
<clustering>
<clus scale="   32.674">  4  5 -1 -1</clus>
<clus scale="   35.047">  2  3  1 -1</clus>
<clus scale="  120.924">  2  6  1 -1</clus>
<clus scale="  128.306">  1  3  2 -1</clus>
</clustering>
</event>
<event>
 6    0  0.1230761E+002  0.1006571E+03  0.7546771E-02  0.1278920E+00
          4   -1    0    0  504    0 -0.00000000000E+00  0.00000000000E+00  0.25563233066E+03  0.25563233066E+03  0.00000000000E+00 0.  1.
         21   -1    0    0  501  502  0.00000000000E+00 -0.00000000000E+00 -0.18266680417E+03  0.18266680417E+03  0.00000000000E+00 0. -1.
         21    1    1    2  503  505 -0.29525084362E+02  0.56151976076E+02  0.36280963316E+02  0.73082715624E+02  0.00000000000E+00 0. -1.
         21    1    1    2  504  503 -0.45225118748E+02 -0.21597435750E+02  0.11249007719E+02  0.51364392058E+02  0.00000000000E+00 0. -1.
         21    1    1    2  505  502 -0.90867861862E+02 -0.11610017030E+02 -0.75359332106E+02  0.11862035976E+03  0.00000000000E+00 0. -1.
          4    1    1    2  501    0  0.16561806497E+03 -0.22944523297E+02  0.10079488756E+03  0.19523166739E+03  0.00000000000E+00 0.  1.
<scales pt_clust_3="65.06736" pt_clust_4="50.11747" pt_clust_5="100.65706" pt_clust_6="14000.00000"></scales>
<clustering>
<clus scale="   50.117">  1  4  2 -1</clus>
<clus scale="   65.067">  1  3  2 -1</clus>
<clus scale="  100.657">  2  5  1 -1</clus>
<clus scale="  100.657">  2  3  1 -1</clus>
</clustering>
</event>
<event>
 6    0  0.1230761E+002  0.1235983E+03  0.7546771E-02  0.1237276E+00
         21   -1    0    0  503  502  0.00000000000E+00  0.00000000000E+00  0.44862494049E+02  0.44862494049E+02  0.00000000000E+00 0. -1.
          2   -1    0    0  505    0 -0.00000000000E+00 -0.00000000000E+00 -0.18433963190E+04  0.18433963190E+04  0.00000000000E+00 0. -1.
         21    1    1    2  503  504 -0.16026452490E+02 -0.26078994570E+02 -0.63565882114E+02  0.70551984424E+02  0.00000000000E+00 0. -1.
         21    1    1    2  504  501  0.11331429057E+03  0.37820800608E+02 -0.96911248349E+02  0.15382565281E+03  0.00000000000E+00 0. -1.
         21    1    1    2  505  502  0.26367979219E+02 -0.29736657677E+02 -0.27141868351E+02  0.48127124945E+02  0.00000000000E+00 0. -1.
          2    1    1    2  501    0 -0.12365581730E+03  0.17994851639E+02 -0.16109148262E+04  0.16157540509E+04  0.00000000000E+00 0. -1.
<scales pt_clust_3="30.60982" pt_clust_4="14000.00000" pt_clust_5="42.64781" pt_clust_6="123.59825"></scales>
<clustering>
<clus scale="   30.610">  1  3  2 -1</clus>
<clus scale="   42.648">  1  5  2 -1</clus>
<clus scale="  123.598">  2  6  1 -1</clus>
<clus scale="   30.610">  1  3  2 -1</clus>
</clustering>
</event>
<event>
 6    0  0.1230761E+002  0.9481648E+02  0.7546771E-02  0.1291590E+00
         21   -1    0    0  503  502  0.00000000000E+00  0.00000000000E+00  0.73535302458E+03  0.73535302458E+03  0.00000000000E+00 0. -1.
         -1   -1    0    0    0  501 -0.00000000000E+00 -0.00000000000E+00 -0.87083033447E+02  0.87083033447E+02  0.00000000000E+00 0. -1.
         21    1    1    2  503  501  0.42182387194E+02  0.59156462537E+01  0.41488682551E+02  0.59461411350E+02  0.00000000000E+00 0.  1.
         21    1    1    2  504  505  0.67255696350E+02 -0.42210554532E+02  0.20891792972E+03  0.22349890595E+03  0.00000000000E+00 0.  1.
         21    1    1    2  505  502  0.30517531928E+02  0.57822270797E+02  0.39235695142E+03  0.39776715812E+03  0.00000000000E+00 0. -1.
         -1    1    1    2    0  504 -0.13995561547E+03 -0.21527362518E+02  0.55064274466E+01  0.14170858260E+03  0.00000000000E+00 0. -1.
<scales pt_clust_3="42.59517" pt_clust_4="94.81648" pt_clust_5="66.25546" pt_clust_6="14000.00000"></scales>
<clustering>
<clus scale="   42.595">  2  3  1 -1</clus>
<clus scale="   66.255">  1  5  2 -1</clus>
<clus scale="   94.816">  1  4  2 -1</clus>
<clus scale="   66.255">  1  3  2 -1</clus>
</clustering>
</event>
<event>
 6    0  0.1230761E+002  0.7019672E+02  0.7546771E-02  0.1359425E+00
          2   -1    0    0  505    0 -0.00000000000E+00  0.00000000000E+00  0.30075868402E+03  0.30075868402E+03  0.00000000000E+00 0.  1.
         21   -1    0    0  503  502  0.00000000000E+00 -0.00000000000E+00 -0.73595211042E+03  0.73595211042E+03  0.00000000000E+00 0.  1.
         21    1    1    2  503  501 -0.20490733221E+02  0.25398644397E+02 -0.29301472780E+03  0.29482637601E+03  0.00000000000E+00 0.  1.
         21    1    1    2  504  502  0.19516221914E+02  0.45425039933E+02 -0.40653534963E+03  0.40953059430E+03  0.00000000000E+00 0.  1.
         21    1    1    2  505  504  0.29386565166E+02  0.60396212023E+02  0.87065708220E+02  0.10996231258E+03  0.00000000000E+00 0.  1.
          2    1    1    2  501    0 -0.28412053859E+02 -0.13121989635E+03  0.17729094281E+03  0.22239151154E+03  0.00000000000E+00 0.  1.
<scales pt_clust_3="32.63374" pt_clust_4="70.19672" pt_clust_5="67.52966" pt_clust_6="14000.00000"></scales>
<clustering>
<clus scale="   32.634">  2  3  1 -1</clus>
<clus scale="   67.530">  1  5  2 -1</clus>
<clus scale="   70.197">  2  4  1 -1</clus>
<clus scale="   32.634">  2  3  1 -1</clus>
</clustering>
</event>
<event>
 6    0  0.1230761E+002  0.9524157E+02  0.7546771E-02  0.1290633E+00
          2   -1    0    0  505    0 -0.00000000000E+00  0.00000000000E+00  0.33431498886E+03  0.33431498886E+03  0.00000000000E+00 0. -1.
         21   -1    0    0  503  502  0.00000000000E+00 -0.00000000000E+00 -0.10835237470E+03  0.10835237470E+03  0.00000000000E+00 0. -1.
         21    1    1    2  503  504  0.81761450490E+01 -0.39819947812E+02  0.21329740730E+02  0.45906812471E+02  0.00000000000E+00 0. -1.
         21    1    1    2  504  501 -0.86413691216E+02 -0.68159812869E+02  0.10665678661E+02  0.11057505515E+03  0.00000000000E+00 0. -1.
         21    1    1    2  505  502 -0.25422025020E+01  0.62947278870E+02 -0.85250865425E+01  0.63572791439E+02  0.00000000000E+00 0. -1.
          2    1    1    2  501    0  0.80779748669E+02  0.45032481810E+02  0.20249228131E+03  0.22261270450E+03  0.00000000000E+00 0. -1.
<scales pt_clust_3="40.65068" pt_clust_4="14000.00000" pt_clust_5="48.00732" pt_clust_6="95.24157"></scales>
<clustering>
<clus scale="   40.651">  2  3  1 -1</clus>
<clus scale="   48.007">  2  5  1 -1</clus>
<clus scale="   95.242">  1  6  2 -1</clus>
<clus scale="   40.651">  2  3  1 -1</clus>
</clustering>
</event>
<event>
 6    0  0.1230761E+002  0.1328687E+03  0.7546771E-02  0.1223260E+00
          1   -1    0    0  503    0 -0.00000000000E+00  0.00000000000E+00  0.11664992176E+04  0.11664992176E+04  0.00000000000E+00 0.  1.
         21   -1    0    0  504  502  0.00000000000E+00 -0.00000000000E+00 -0.52985389221E+02  0.52985389221E+02  0.00000000000E+00 0.  1.
         21    1    1    2  503  505 -0.30984627882E+02  0.21019868727E+02  0.11078091518E+03  0.11693713359E+03  0.00000000000E+00 0. -1.
         21    1    1    2  504  501  0.33653188901E+02 -0.12826849359E+03  0.94627082799E+02  0.16290987806E+03  0.00000000000E+00 0.  1.
         21    1    1    2  505  502  0.34711331017E+02  0.66939485863E+01  0.12297772898E+02  0.37428874775E+02  0.00000000000E+00 0.  1.
          1    1    1    2  501    0 -0.37379892036E+02  0.10055467628E+03  0.89580805753E+03  0.90220872041E+03  0.00000000000E+00 0.  1.
<scales pt_clust_3="35.59145" pt_clust_4="132.86868" pt_clust_5="35.35089" pt_clust_6="14000.00000"></scales>
<clustering>
<clus scale="   35.351">  2  5  1 -1</clus>
<clus scale="   35.591">  1  3  2 -1</clus>
<clus scale="  132.869">  2  4  1 -1</clus>
<clus scale="   35.351">  2  3  1 -1</clus>
</clustering>
</event>
<event>
 6    0  0.1230761E+002  0.1930535E+03  0.7546771E-02  0.1155736E+00
          4   -1    0    0  503    0 -0.00000000000E+00  0.00000000000E+00  0.22263688573E+03  0.22263688573E+03  0.00000000000E+00 0. -1.
         21   -1    0    0  504  502  0.00000000000E+00 -0.00000000000E+00 -0.49900544508E+03  0.49900544508E+03  0.00000000000E+00 0. -1.
         21    1    1    2  503  502 -0.24512929438E+02  0.25969223427E+02  0.55931927939E+02  0.66360114812E+02  0.00000000000E+00 0.  1.
         21    1    1    2  504  505  0.63640055891E+02  0.32837761860E+02 -0.21372658802E+03  0.22540503487E+03  0.00000000000E+00 0. -1.
         21    1    1    2  505  501  0.81891353808E+02  0.82025555361E+02 -0.19679237801E+03  0.22838919765E+03  0.00000000000E+00 0. -1.
          4    1    1    2  501    0 -0.12101848026E+03 -0.14083254065E+03  0.78218478736E+02  0.20148798348E+03  0.00000000000E+00 0. -1.
<scales pt_clust_3="35.71112" pt_clust_4="43.13665" pt_clust_5="43.13665" pt_clust_6="185.03848"></scales>
<clustering>
<clus scale="   35.711">  1  3  2 -1</clus>
<clus scale="   43.137">  4  5 -1 -1</clus>
<clus scale="  185.038">  1  6  2 -1</clus>
<clus scale="  193.053">  2  3  1 -1</clus>
</clustering>
</event>
<event>
 6    0  0.1230761E+002  0.1019322E+03  0.7546771E-02  0.1276285E+00
         21   -1    0    0  505  502  0.00000000000E+00  0.00000000000E+00  0.17244497405E+03  0.17244497405E+03  0.00000000000E+00 0. -1.
          1   -1    0    0  504    0 -0.00000000000E+00 -0.00000000000E+00 -0.22863002637E+04  0.22863002637E+04  0.00000000000E+00 0.  1.
         21    1    1    2  503  502  0.13312271738E+03  0.28291106323E+02  0.98249943510E+02  0.16785438922E+03  0.00000000000E+00 0. -1.
         21    1    1    2  504  503  0.10052720165E+02 -0.33851216264E+02 -0.17982024188E+03  0.18325469002E+03  0.00000000000E+00 0.  1.
         21    1    1    2  505  501 -0.32143658116E+02 -0.27401483283E+02  0.23672127313E+02  0.48419269457E+02  0.00000000000E+00 0.  1.
          1    1    1    2  501    0 -0.11103177943E+03  0.32961593224E+02 -0.20559571186E+04  0.20592168890E+04  0.00000000000E+00 0.  1.
<scales pt_clust_3="14000.00000" pt_clust_4="35.31235" pt_clust_5="42.32264" pt_clust_6="101.93218"></scales>
<clustering>
<clus scale="   35.312">  2  4  1 -1</clus>
<clus scale="   42.323">  1  5  2 -1</clus>
<clus scale="  101.932">  2  6  1 -1</clus>
<clus scale="   42.323">  1  3  2 -1</clus>
</clustering>
</event>
<event>
 6    0  0.1230761E+002  0.1395639E+03  0.7546771E-02  0.1213917E+00
          2   -1    0    0  505    0 -0.00000000000E+00  0.00000000000E+00  0.19796139269E+04  0.19796139269E+04  0.00000000000E+00 0.  1.
         21   -1    0    0  503  502  0.00000000000E+00 -0.00000000000E+00 -0.11619953248E+03  0.11619953248E+03  0.00000000000E+00 0.  1.
         21    1    1    2  503  501 -0.23634572369E+02  0.12804799283E+03 -0.31968467757E+02  0.13407782968E+03  0.00000000000E+00 0.  1.
         21    1    1    2  504  502  0.29814126938E+02  0.10517551588E+02 -0.15349829186E+02  0.35144250063E+02  0.00000000000E+00 0.  1.
         21    1    1    2  505  504 -0.41550406709E+02  0.43522031041E+02  0.39647867911E+03  0.40101863607E+03  0.00000000000E+00 0. -1.
          2    1    1    2  501    0  0.35370852141E+02 -0.18208757546E+03  0.15142540122E+04  0.15255727436E+04  0.00000000000E+00 0.  1.
<scales pt_clust_3="139.56387" pt_clust_4="31.61489" pt_clust_5="59.85181" pt_clust_6="14000.00000"></scales>
<clustering>
<clus scale="   31.615">  2  4  1 -1</clus>
<clus scale="   59.852">  1  5  2 -1</clus>
<clus scale="  139.564">  2  3  1 -1</clus>
<clus scale="   31.615">  2  3  1 -1</clus>
</clustering>
</event>
<event>
 6    0  0.1230761E+002  0.1019789E+03  0.7546771E-02  0.1276189E+00
          2   -1    0    0  503    0 -0.00000000000E+00  0.00000000000E+00  0.91486868884E+03  0.91486868884E+03  0.00000000000E+00 0.  1.
         21   -1    0    0  505  502  0.00000000000E+00 -0.00000000000E+00 -0.39097061864E+02  0.39097061864E+02  0.00000000000E+00 0.  1.
         21    1    1    2  503  504 -0.53499962320E+02 -0.94812260063E+02  0.47051630353E+03  0.48294637644E+03  0.00000000000E+00 0.  1.
         21    1    1    2  504  502 -0.32794434613E+02  0.94752813418E+01  0.73483362791E+02  0.81025060970E+02  0.00000000000E+00 0.  1.
         21    1    1    2  505  501 -0.27430156838E+02  0.62632765032E+02  0.48290466401E+02  0.83709294018E+02  0.00000000000E+00 0.  1.
          2    1    1    2  501    0  0.11372455377E+03  0.22704213689E+02  0.28348149425E+03  0.30628501928E+03  0.00000000000E+00 0.  1.
<scales pt_clust_3="101.97893" pt_clust_4="34.13584" pt_clust_5="80.40556" pt_clust_6="14000.00000"></scales>
<clustering>
<clus scale="   34.136">  2  4  1 -1</clus>
<clus scale="   80.406">  2  5  1 -1</clus>
<clus scale="  101.979">  1  3  2 -1</clus>
<clus scale="   34.136">  2  3  1 -1</clus>
</clustering>
</event>
<event>
 6    0  0.1230761E+002  0.1452951E+03  0.7546771E-02  0.1206377E+00
         21   -1    0    0  505  502  0.00000000000E+00  0.00000000000E+00  0.73061340171E+03  0.73061340171E+03  0.00000000000E+00 0.  1.
         -4   -1    0    0    0  501 -0.00000000000E+00 -0.00000000000E+00 -0.47984771504E+02  0.47984771504E+02  0.00000000000E+00 0.  1.
         21    1    1    2  503  501 -0.26817599508E+02 -0.28241693496E+02  0.15110325478E+02  0.41774380079E+02  0.00000000000E+00 0.  1.
         21    1    1    2  504  503 -0.32715384273E+02  0.46926522720E+02  0.18463379432E+03  0.19329260956E+03  0.00000000000E+00 0.  1.
         21    1    1    2  505  504 -0.80423956750E+02  0.29569687747E+02  0.27697541695E+03  0.28992716472E+03  0.00000000000E+00 0.  1.
         -4    1    1    2    0  502  0.13995694053E+03 -0.48254516971E+02  0.20590909346E+03  0.25360401886E+03  0.00000000000E+00 0.  1.
<scales pt_clust_3="38.94582" pt_clust_4="34.33725" pt_clust_5="34.33725" pt_clust_6="139.08469"></scales>
<clustering>
<clus scale="   34.337">  4  5 -1 -1</clus>
<clus scale="   38.946">  2  3  1 -1</clus>
<clus scale="  139.085">  2  6  1 -1</clus>
<clus scale="  145.295">  1  3  2 -1</clus>
</clustering>
</event>
<event>
 6    0  0.1230761E+002  0.9825433E+02  0.7546771E-02  0.1284010E+00
          1   -1    0    0  504    0 -0.00000000000E+00  0.00000000000E+00  0.18086819703E+04  0.18086819703E+04  0.00000000000E+00 0.  1.
         21   -1    0    0  503  502  0.00000000000E+00 -0.00000000000E+00 -0.88512687865E+02  0.88512687865E+02  0.00000000000E+00 0. -1.
         21    1    1    2  503  501  0.99853956264E+02  0.33268124180E+02 -0.35859985604E+02  0.11119136313E+03  0.00000000000E+00 0. -1.
         21    1    1    2  504  505 -0.25501785873E+02 -0.70754547111E+02  0.58135129549E+03  0.58619610694E+03  0.00000000000E+00 0.  1.
         21    1    1    2  505  502 -0.72653022267E+02 -0.21183479520E+02  0.11003426106E+03  0.13354677104E+03  0.00000000000E+00 0.  1.
          1    1    1    2  501    0 -0.16991481247E+01  0.58669902451E+02  0.10646437115E+04  0.10662604171E+04  0.00000000000E+00 0.  1.
<scales pt_clust_3="14000.00000" pt_clust_4="36.45406" pt_clust_5="98.25433" pt_clust_6="58.69450"></scales>
<clustering>
<clus scale="   58.695">  1  6  2 -1</clus>
<clus scale="   36.454">  1  4  2 -1</clus>
<clus scale="   98.254">  1  5  2 -1</clus>
<clus scale="   98.254">  2  3  1 -1</clus>
</clustering>
</event>
<event>
 6    0  0.1230761E+002  0.1839337E+03  0.7546771E-02  0.1164049E+00
          2   -1    0    0  505    0 -0.00000000000E+00  0.00000000000E+00  0.29202764022E+03  0.29202764022E+03  0.00000000000E+00 0. -1.
         21   -1    0    0  504  502  0.00000000000E+00 -0.00000000000E+00 -0.19741671384E+03  0.19741671384E+03  0.00000000000E+00 0. -1.
         21    1    1    2  503  502  0.33847966934E+02 -0.72125970799E+02 -0.92567256171E+01  0.80209273145E+02  0.00000000000E+00 0. -1.
         21    1    1    2  504  501 -0.74099791551E+02 -0.50426960406E+02 -0.23142644960E+02  0.92570186666E+02  0.00000000000E+00 0. -1.
         21    1    1    2  505  503 -0.17599741031E+02 -0.71365493675E+02 -0.71774219468E+01  0.73853232547E+02  0.00000000000E+00 0. -1.
          2    1    1    2  501    0  0.57851565648E+02  0.19391842488E+03  0.13418771891E+03  0.24281166171E+03  0.00000000000E+00 0. -1.
<scales pt_clust_3="49.08311" pt_clust_4="89.63067" pt_clust_5="49.08311" pt_clust_6="176.69253"></scales>
<clustering>
<clus scale="   49.083">  3  5 -1 -1</clus>
<clus scale="   89.631">  2  4  1 -1</clus>
<clus scale="  176.693">  1  6  2 -1</clus>
<clus scale="   89.631">  2  3  1 -1</clus>
</clustering>
</event>
<event>
 6    0  0.1230761E+002  0.1106840E+03  0.7546771E-02  0.1259308E+00
          1   -1    0    0  503    0 -0.00000000000E+00  0.00000000000E+00  0.14069729217E+04  0.14069729217E+04  0.00000000000E+00 0.  1.
         21   -1    0    0  504  502  0.00000000000E+00 -0.00000000000E+00 -0.20307796925E+02  0.20307796925E+02  0.00000000000E+00 0.  1.
         21    1    1    2  503  502 -0.76235691726E+02 -0.16154844935E+02  0.19344366973E+03  0.20855050483E+03  0.00000000000E+00 0.  1.
         21    1    1    2  504  505  0.72540342181E+02  0.10457897175E+02  0.33552613615E+03  0.34343741337E+03  0.00000000000E+00 0. -1.
         21    1    1    2  505  501  0.59381259440E+02  0.43043226015E+02  0.18115320055E+03  0.19543626928E+03  0.00000000000E+00 0.  1.
          1    1    1    2  501    0 -0.55685909895E+02 -0.37346278255E+02  0.67654211837E+03  0.67985653118E+03  0.00000000000E+00 0.  1.
<scales pt_clust_3="95.33794" pt_clust_4="56.20906" pt_clust_5="56.20906" pt_clust_6="67.04972"></scales>
<clustering>
<clus scale="   56.209">  4  5 -1 -1</clus>
<clus scale="   67.050">  1  6  2 -1</clus>
<clus scale="   95.338">  2  3  1 -1</clus>
<clus scale="   95.338">  2  3  1 -1</clus>
</clustering>
</event>
<event>
 6    0  0.1230761E+002  0.1129419E+03  0.7546771E-02  0.1255217E+00
         -2   -1    0    0    0  501 -0.00000000000E+00  0.00000000000E+00  0.23883674900E+04  0.23883674900E+04  0.00000000000E+00 0.  1.
         21   -1    0    0  504  502  0.00000000000E+00 -0.00000000000E+00 -0.81943316024E+02  0.81943316024E+02  0.00000000000E+00 0.  1.
         21    1    1    2  503  501 -0.16313538840E+02  0.25497626079E+02  0.14477332613E+03  0.14790394330E+03  0.00000000000E+00 0.  1.
         21    1    1    2  504  503  0.36667011378E+02  0.19750741114E+02  0.39403267821E+02  0.57333925497E+02  0.00000000000E+00 0. -1.
         21    1    1    2  505  502 -0.22396981256E+01  0.88456973954E+02 -0.41069793570E+02  0.97551937103E+02  0.00000000000E+00 0.  1.
         -2    1    1    2    0  505 -0.18113774412E+02 -0.13370534115E+03  0.21633173736E+04  0.21675210001E+04  0.00000000000E+00 0.  1.
<scales pt_clust_3="30.26979" pt_clust_4="41.60418" pt_clust_5="14000.00000" pt_clust_6="112.94191"></scales>
<clustering>
<clus scale="   30.270">  1  3  2 -1</clus>
<clus scale="   41.604">  2  4  1 -1</clus>
<clus scale="  112.942">  1  6  2 -1</clus>
<clus scale="   41.604">  2  3  1 -1</clus>
</clustering>
</event>
<event>
 6    0  0.1230761E+002  0.9659447E+02  0.7546771E-02  0.1287625E+00
         21   -1    0    0  504  502  0.00000000000E+00  0.00000000000E+00  0.11552416648E+04  0.11552416648E+04  0.00000000000E+00 0. -1.
          4   -1    0    0  503    0 -0.00000000000E+00 -0.00000000000E+00 -0.70312066121E+02  0.70312066121E+02  0.00000000000E+00 0.  1.
         21    1    1    2  503  505  0.21460992727E+02  0.27597803437E+02  0.12938996055E+02  0.37277749158E+02  0.00000000000E+00 0.  1.
         21    1    1    2  504  501 -0.38899955476E+02  0.15163028382E+02  0.90270477001E+02  0.99457945805E+02  0.00000000000E+00 0. -1.
         21    1    1    2  505  502 -0.19452678883E+02  0.63629547471E+02  0.97365357780E+03  0.97592439031E+03  0.00000000000E+00 0. -1.
          4    1    1    2  501    0  0.36891641631E+02 -0.10639037929E+03  0.80665477871E+01  0.11289364562E+03  0.00000000000E+00 0.  1.
<scales pt_clust_3="34.96016" pt_clust_4="41.04828" pt_clust_5="96.59447" pt_clust_6="14000.00000"></scales>
<clustering>
<clus scale="   34.960">  2  3  1 -1</clus>
<clus scale="   41.048">  1  4  2 -1</clus>
<clus scale="   96.594">  1  5  2 -1</clus>
<clus scale="   41.048">  1  3  2 -1</clus>
</clustering>
</event>
<event>
 6    0  0.1230761E+002  0.1255146E+03  0.7546771E-02  0.1234267E+00
          2   -1    0    0  505    0 -0.00000000000E+00  0.00000000000E+00  0.61881893848E+03  0.61881893848E+03  0.00000000000E+00 0.  1.
         21   -1    0    0  504  502  0.00000000000E+00 -0.00000000000E+00 -0.94038672797E+02  0.94038672797E+02  0.00000000000E+00 0. -1.
         21    1    1    2  503  501 -0.10427680684E+02  0.71896787084E+02  0.94188937618E+02  0.11895142070E+03  0.00000000000E+00 0.  1.
         21    1    1    2  504  503 -0.30968594123E+02 -0.73705986667E+01 -0.22257161875E+02  0.38842770259E+02  0.00000000000E+00 0. -1.
         21    1    1    2  505  502 -0.45940789542E+02  0.46222582287E+02 -0.14612730312E+02  0.66787836798E+02  0.00000000000E+00 0. -1.
          2    1    1    2  501    0  0.87337064349E+02 -0.11074877070E+03  0.46746122025E+03  0.48827558352E+03  0.00000000000E+00 0.  1.
<scales pt_clust_3="72.35808" pt_clust_4="31.83362" pt_clust_5="14000.00000" pt_clust_6="125.51459"></scales>
<clustering>
<clus scale="   31.834">  2  4  1 -1</clus>
<clus scale="   72.358">  2  3  1 -1</clus>
<clus scale="  125.515">  1  6  2 -1</clus>
<clus scale="   31.834">  2  3  1 -1</clus>
</clustering>
</event>
<event>
 6    0  0.1230761E+002  0.7574566E+02  0.7546771E-02  0.1341577E+00
          2   -1    0    0  505    0 -0.00000000000E+00  0.00000000000E+00  0.10074262161E+04  0.10074262161E+04  0.00000000000E+00 0. -1.
         21   -1    0    0  503  502  0.00000000000E+00 -0.00000000000E+00 -0.62500847404E+03  0.62500847404E+03  0.00000000000E+00 0.  1.
         21    1    1    2  503  501 -0.24364104127E+01 -0.10009328371E+03 -0.28330097931E+03  0.30047303776E+03  0.00000000000E+00 0.  1.
         21    1    1    2  504  502 -0.39776779628E+02  0.37688862276E+02 -0.31860803157E+03  0.32328581831E+03  0.00000000000E+00 0.  1.
         21    1    1    2  505  504  0.20665602246E+01  0.87395335488E+02  0.15461551898E+03  0.17761805665E+03  0.00000000000E+00 0. -1.
          2    1    1    2  501    0  0.40146629816E+02 -0.24990914051E+02  0.82971123394E+03  0.83105777741E+03  0.00000000000E+00 0. -1.
<scales pt_clust_3="14000.00000" pt_clust_4="54.18444" pt_clust_5="75.74566" pt_clust_6="47.28951"></scales>
<clustering>
<clus scale="   47.290">  1  6  2 -1</clus>
<clus scale="   54.184">  2  4  1 -1</clus>
<clus scale="   75.746">  1  5  2 -1</clus>
<clus scale="   54.184">  2  3  1 -1</clus>
</clustering>
</event>
<event>
 6    0  0.1230761E+002  0.1442864E+03  0.7546771E-02  0.1207675E+00
          2   -1    0    0  503    0 -0.00000000000E+00  0.00000000000E+00  0.31994292281E+04  0.31994292281E+04  0.00000000000E+00 0.  1.
         21   -1    0    0  505  502  0.00000000000E+00 -0.00000000000E+00 -0.21153535543E+03  0.21153535543E+03  0.00000000000E+00 0.  1.
         21    1    1    2  503  502 -0.33226107949E+02  0.18774294667E+02  0.20198484291E+02  0.43179012927E+02  0.00000000000E+00 0. -1.
         21    1    1    2  504  501  0.16097636373E+03 -0.25273473438E+02  0.59887977757E+03  0.62065217806E+03  0.00000000000E+00 0.  1.
         21    1    1    2  505  504 -0.57661849299E+01 -0.67611217480E+02 -0.18101259688E+03  0.19331343939E+03  0.00000000000E+00 0.  1.
          2    1    1    2  501    0 -0.12198407085E+03  0.74110396251E+02  0.25498282077E+04  0.25538199532E+04  0.00000000000E+00 0.  1.
<scales pt_clust_3="38.16344" pt_clust_4="14000.00000" pt_clust_5="62.15072" pt_clust_6="144.28641"></scales>
<clustering>
<clus scale="   38.163">  2  3  1 -1</clus>
<clus scale="   62.151">  2  5  1 -1</clus>
<clus scale="  144.286">  1  6  2 -1</clus>
<clus scale="   38.163">  2  3  1 -1</clus>
</clustering>
</event>
<event>
 6    0  0.1230761E+002  0.7585898E+02  0.7546771E-02  0.1341231E+00
         21   -1    0    0  505  502  0.00000000000E+00  0.00000000000E+00  0.29222444700E+03  0.29222444700E+03  0.00000000000E+00 0. -1.
          4   -1    0    0  503    0 -0.00000000000E+00 -0.00000000000E+00 -0.11888454792E+04  0.11888454792E+04  0.00000000000E+00 0.  1.
         21    1    1    2  503  504  0.11826630493E+02  0.73979713174E+02 -0.35254550453E+03  0.36041809044E+03  0.00000000000E+00 0.  1.
         21    1    1    2  504  502  0.64191088350E+02 -0.10354920335E+02 -0.72269717167E+01  0.65421321592E+02  0.00000000000E+00 0. -1.
         21    1    1    2  505  501 -0.10651735974E+03 -0.53132063793E+02  0.24517446539E+03  0.27254262531E+03  0.00000000000E+00 0. -1.
          4    1    1    2  501    0  0.30499640899E+02 -0.10492729046E+02 -0.78202302139E+03  0.78268788891E+03  0.00000000000E+00 0.  1.
<scales pt_clust_3="14000.00000" pt_clust_4="67.86270" pt_clust_5="75.85898" pt_clust_6="32.25408"></scales>
<clustering>
<clus scale="   32.254">  2  6  1 -1</clus>
<clus scale="   67.863">  1  4  2 -1</clus>
<clus scale="   75.859">  1  5  2 -1</clus>
<clus scale="   67.863">  1  3  2 -1</clus>
</clustering>
</event>
<event>
 6    0  0.1230761E+002  0.9847212E+02  0.7546771E-02  0.1283542E+00
          2   -1    0    0  503    0 -0.00000000000E+00  0.00000000000E+00  0.54128000545E+03  0.54128000545E+03  0.00000000000E+00 0. -1.
         21   -1    0    0  501  502  0.00000000000E+00 -0.00000000000E+00 -0.17470009444E+03  0.17470009444E+03  0.00000000000E+00 0. -1.
         21    1    1    2  503  504  0.24046220405E+02 -0.54479778115E+02  0.13939787358E+03  0.15158507214E+03  0.00000000000E+00 0. -1.
         21    1    1    2  504  505  0.18749648860E+02  0.76755584601E+02 -0.11800240758E+03  0.14201245472E+03  0.00000000000E+00 0. -1.
         21    1    1    2  505  502  0.31940171817E+02  0.12967037789E+02 -0.25322782981E+02  0.42773379369E+02  0.00000000000E+00 0.  1.
          2    1    1    2  501    0 -0.74736041082E+02 -0.35242844275E+02  0.37050722800E+03  0.37960919366E+03  0.00000000000E+00 0. -1.
<scales pt_clust_3="59.61405" pt_clust_4="98.47212" pt_clust_5="34.47200" pt_clust_6="14000.00000"></scales>
<clustering>
<clus scale="   34.472">  2  5  1 -1</clus>
<clus scale="   59.614">  1  3  2 -1</clus>
<clus scale="   98.472">  2  4  1 -1</clus>
<clus scale="   34.472">  2  3  1 -1</clus>
</clustering>
</event>
<event>
 6    0  0.1230761E+002  0.9721783E+02  0.7546771E-02  0.1286258E+00
          3   -1    0    0  503    0 -0.00000000000E+00  0.00000000000E+00  0.42095427560E+04  0.42095427560E+04  0.00000000000E+00 0.  1.
         21   -1    0    0  501  502  0.00000000000E+00 -0.00000000000E+00 -0.17647229634E+03  0.17647229634E+03  0.00000000000E+00 0.  1.
         21    1    1    2  503  505  0.33502744344E+02 -0.29981731277E+02  0.10925180949E+04  0.10934427858E+04  0.00000000000E+00 0. -1.
         21    1    1    2  504  502 -0.34994590652E+02 -0.42053529765E+01 -0.10328390236E+03  0.10913235476E+03  0.00000000000E+00 0.  1.
         21    1    1    2  505  504 -0.34975144897E+02 -0.64108251507E+02 -0.49566636395E+02  0.88260864007E+02  0.00000000000E+00 0.  1.
          3    1    1    2  501    0  0.36466991206E+02  0.98295335760E+02  0.30934029035E+04  0.30951790478E+04  0.00000000000E+00 0.  1.
<scales pt_clust_3="44.80649" pt_clust_4="35.24637" pt_clust_5="14000.00000" pt_clust_6="97.21783"></scales>
<clustering>
<clus scale="   35.246">  2  4  1 -1</clus>
<clus scale="   44.806">  1  3  2 -1</clus>
<clus scale="   97.218">  1  6  2 -1</clus>
<clus scale="   35.246">  2  3  1 -1</clus>
</clustering>
</event>
<event>
 6    0  0.1230761E+002  0.7815040E+02  0.7546771E-02  0.1334384E+00
         21   -1    0    0  503  502  0.00000000000E+00  0.00000000000E+00  0.11535187770E+03  0.11535187770E+03  0.00000000000E+00 0.  1.
          2   -1    0    0  505    0 -0.00000000000E+00 -0.00000000000E+00 -0.19701542186E+04  0.19701542186E+04  0.00000000000E+00 0.  1.
         21    1    1    2  503  501  0.43175409121E+02  0.55849793834E+01  0.66835333675E+02  0.79763837513E+02  0.00000000000E+00 0.  1.
         21    1    1    2  504  502  0.31742386843E+02  0.16018645714E+02  0.72354225195E+01  0.36283983684E+02  0.00000000000E+00 0.  1.
         21    1    1    2  505  504  0.60573758412E+02 -0.42324352137E+00 -0.17106501362E+04  0.17117223045E+04  0.00000000000E+00 0.  1.
          2    1    1    2  501    0 -0.13549155438E+03 -0.21180381576E+02 -0.21822296097E+03  0.25773597065E+03  0.00000000000E+00 0.  1.
<scales pt_clust_3="78.15040" pt_clust_4="35.55525" pt_clust_5="60.75648" pt_clust_6="14000.00000"></scales>
<clustering>
<clus scale="   35.555">  1  4  2 -1</clus>
<clus scale="   60.756">  2  5  1 -1</clus>
<clus scale="   78.150">  1  3  2 -1</clus>
<clus scale="   35.555">  1  3  2 -1</clus>
</clustering>
</event>
<event>
 6    0  0.1230761E+002  0.8328168E+02  0.7546771E-02  0.1319988E+00
         21   -1    0    0  503  502  0.00000000000E+00  0.00000000000E+00  0.18175176805E+03  0.18175176805E+03  0.00000000000E+00 0. -1.
          4   -1    0    0  504    0 -0.00000000000E+00 -0.00000000000E+00 -0.60967945349E+03  0.60967945349E+03  0.00000000000E+00 0. -1.
         21    1    1    2  503  501  0.69818217065E+02 -0.37964059187E+02  0.11767909699E+03  0.14200078554E+03  0.00000000000E+00 0. -1.
         21    1    1    2  504  505 -0.10977118540E+02  0.56659241696E+02 -0.21780540408E+03  0.22532190494E+03  0.00000000000E+00 0. -1.
         21    1    1    2  505  502 -0.79404143798E+02  0.92335623241E+02 -0.64928960328E+02  0.13800962017E+03  0.00000000000E+00 0. -1.
          4    1    1    2  501    0  0.20563045273E+02 -0.11103080575E+03 -0.26287241802E+03  0.28609891089E+03  0.00000000000E+00 0. -1.
<scales pt_clust_3="83.28168" pt_clust_4="57.71280" pt_clust_5="14000.00000" pt_clust_6="72.10507"></scales>
<clustering>
<clus scale="   57.713">  2  4  1 -1</clus>
<clus scale="   72.105">  2  6  1 -1</clus>
<clus scale="   83.282">  1  3  2 -1</clus>
<clus scale="   83.282">  1  3  2 -1</clus>
</clustering>
</event>
<event>
 6    0  0.1230761E+002  0.1473805E+03  0.7546771E-02  0.1203729E+00
         -1   -1    0    0    0  501 -0.00000000000E+00  0.00000000000E+00  0.26205872200E+03  0.26205872200E+03  0.00000000000E+00 0. -1.
         21   -1    0    0  505  502  0.00000000000E+00 -0.00000000000E+00 -0.39649334973E+03  0.39649334973E+03  0.00000000000E+00 0.  1.
         21    1    1    2  503  502  0.80230142713E+01 -0.38371750521E+02 -0.97637267418E+02  0.10521309797E+03  0.00000000000E+00 0.  1.
         21    1    1    2  504  503  0.37756148450E+02 -0.97507621860E+02 -0.37961989994E+02  0.11124017148E+03  0.00000000000E+00 0.  1.
         21    1    1    2  505  501 -0.26581687905E+02 -0.29673700967E+02 -0.18673435051E+03  0.19093672335E+03  0.00000000000E+00 0.  1.
         -1    1    1    2    0  504 -0.19197474817E+02  0.16555307335E+03  0.18789898019E+03  0.25116207893E+03  0.00000000000E+00 0. -1.
<scales pt_clust_3="39.20153" pt_clust_4="14000.00000" pt_clust_5="58.31755" pt_clust_6="147.38055"></scales>
<clustering>
<clus scale="   39.202">  2  3  1 -1</clus>
<clus scale="   58.318">  2  5  1 -1</clus>
<clus scale="  147.381">  1  6  2 -1</clus>
<clus scale="   39.202">  2  3  1 -1</clus>
</clustering>
</event>
<event>
 6    0  0.1230761E+002  0.1403297E+03  0.7546771E-02  0.1212886E+00
          3   -1    0    0  504    0 -0.00000000000E+00  0.00000000000E+00  0.26034365027E+03  0.26034365027E+03  0.00000000000E+00 0. -1.
         21   -1    0    0  505  502  0.00000000000E+00 -0.00000000000E+00 -0.39193413738E+03  0.39193413738E+03  0.00000000000E+00 0. -1.
         21    1    1    2  503  501  0.87885869286E+02  0.19439207391E+02 -0.17712745793E+03  0.19868554340E+03  0.00000000000E+00 0. -1.
         21    1    1    2  504  502 -0.19995028648E+02  0.28517187844E+02  0.64489194377E+02  0.73293160421E+02  0.00000000000E+00 0. -1.
         21    1    1    2  505  503  0.25064417720E+02  0.36435396038E+02 -0.17472199626E+03  0.18023190366E+03  0.00000000000E+00 0. -1.
          3    1    1    2  501    0 -0.92955258359E+02 -0.84391791273E+02  0.15576977271E+03  0.20006718017E+03  0.00000000000E+00 0. -1.
<scales pt_clust_3="44.04537" pt_clust_4="34.82860" pt_clust_5="44.04537" pt_clust_6="125.66532"></scales>
<clustering>
<clus scale="   34.829">  1  4  2 -1</clus>
<clus scale="   44.045">  3  5 -1 -1</clus>
<clus scale="  125.665">  1  6  2 -1</clus>
<clus scale="  140.330">  2  3  1 -1</clus>
</clustering>
</event>
<event>
 6    0  0.1230761E+002  0.1603873E+03  0.7546771E-02  0.1188260E+00
         21   -1    0    0  503  502  0.00000000000E+00  0.00000000000E+00  0.73645455138E+02  0.73645455138E+02  0.00000000000E+00 0.  1.
          2   -1    0    0  505    0 -0.00000000000E+00 -0.00000000000E+00 -0.21310684507E+04  0.21310684507E+04  0.00000000000E+00 0.  1.
         21    1    1    2  503  501  0.43931292149E+02 -0.33214457695E+02 -0.11670117102E+03  0.12904387605E+03  0.00000000000E+00 0.  1.
         21    1    1    2  504  502  0.78623531573E+02 -0.76516449820E+02  0.16700122324E+01  0.10972336010E+03  0.00000000000E+00 0.  1.
         21    1    1    2  505  504 -0.12320338357E+02 -0.72626160775E+02 -0.26407717446E+03  0.27415890290E+03  0.00000000000E+00 0.  1.
          2    1    1    2  501    0 -0.11023448537E+03  0.18235706829E+03 -0.16783146623E+04  0.16917877668E+04  0.00000000000E+00 0.  1.
<scales pt_clust_3="55.07412" pt_clust_4="160.38728" pt_clust_5="75.64942" pt_clust_6="14000.00000"></scales>
<clustering>
<clus scale="   55.074">  1  3  2 -1</clus>
<clus scale="   75.649">  2  5  1 -1</clus>
<clus scale="  160.387">  1  4  2 -1</clus>
<clus scale="   55.074">  1  3  2 -1</clus>
</clustering>
</event>
<event>
 6    0  0.1230761E+002  0.1296083E+03  0.7546771E-02  0.1228038E+00
          2   -1    0    0  504    0 -0.00000000000E+00  0.00000000000E+00  0.28006375038E+04  0.28006375038E+04  0.00000000000E+00 0.  1.
         21   -1    0    0  503  502  0.00000000000E+00 -0.00000000000E+00 -0.10703663638E+02  0.10703663638E+02  0.00000000000E+00 0.  1.
         21    1    1    2  503  501  0.30221595692E+02  0.28667690196E+01  0.45323299991E+02  0.54550570417E+02  0.00000000000E+00 0.  1.
         21    1    1    2  504  505 -0.68398539463E+02 -0.48456616015E+02  0.80733047638E+03  0.81167043924E+03  0.00000000000E+00 0.  1.
         21    1    1    2  505  502 -0.59537112320E+01 -0.54909176373E+02  0.38204059944E+03  0.38601228471E+03  0.00000000000E+00 0.  1.
          2    1    1    2  501    0  0.44130655004E+02  0.10049902337E+03  0.15552394643E+04  0.15591078730E+04  0.00000000000E+00 0.  1.
<scales pt_clust_3="30.35726" pt_clust_4="51.28379" pt_clust_5="51.28379" pt_clust_6="114.76369"></scales>
<clustering>
<clus scale="   30.357">  2  3  1 -1</clus>
<clus scale="   51.284">  4  5 -1 -1</clus>
<clus scale="  114.764">  1  6  2 -1</clus>
<clus scale="   30.357">  2  3  1 -1</clus>
</clustering>
</event>
<event>
 6    0  0.1230761E+002  0.9670710E+02  0.7546771E-02  0.1287377E+00
         21   -1    0    0  504  502  0.00000000000E+00  0.00000000000E+00  0.96791609550E+02  0.96791609550E+02  0.00000000000E+00 0. -1.
         -1   -1    0    0    0  501 -0.00000000000E+00 -0.00000000000E+00 -0.17772535396E+04  0.17772535396E+04  0.00000000000E+00 0.  1.
         21    1    1    2  503  505  0.52251028950E+02  0.37438590442E+02 -0.32292784251E+02  0.71934984502E+02  0.00000000000E+00 0. -1.
         21    1    1    2  504  501  0.34892812221E+02  0.28671519573E+02 -0.44424019546E+03  0.44652985974E+03  0.00000000000E+00 0. -1.
         21    1    1    2  505  502  0.40989904003E+02 -0.10230412001E+01  0.65916168517E+02  0.77628346082E+02  0.00000000000E+00 0. -1.
         -1    1    1    2    0  503 -0.12813374517E+03 -0.65087068815E+02 -0.12698451189E+04  0.12779519589E+04  0.00000000000E+00 0.  1.
<scales pt_clust_3="14000.00000" pt_clust_4="46.59711" pt_clust_5="41.00267" pt_clust_6="96.70710"></scales>
<clustering>
<clus scale="   41.003">  1  5  2 -1</clus>
<clus scale="   46.597">  2  4  1 -1</clus>
<clus scale="   96.707">  2  6  1 -1</clus>
<clus scale="   41.003">  1  3  2 -1</clus>
</clustering>
</event>
<event>
 6    0  0.1230761E+002  0.8328180E+02  0.7546771E-02  0.1319988E+00
         21   -1    0    0  505  502  0.00000000000E+00  0.00000000000E+00  0.25979047670E+03  0.25979047670E+03  0.00000000000E+00 0. -1.
          1   -1    0    0  503    0 -0.00000000000E+00 -0.00000000000E+00 -0.27293136995E+03  0.27293136995E+03  0.00000000000E+00 0. -1.
         21    1    1    2  503  504 -0.50535704131E+02 -0.34558564801E+02 -0.16501319166E+03  0.17600427613E+03  0.00000000000E+00 0. -1.
         21    1    1    2  504  502 -0.34286396753E+01 -0.48489036682E+02  0.42352578525E+02  0.64472344118E+02  0.00000000000E+00 0. -1.
         21    1    1    2  505  501  0.84902094565E+01 -0.47370519880E+02  0.14236127139E+03  0.15027568467E+03  0.00000000000E+00 0. -1.
          1    1    1    2  501    0  0.45474134350E+02  0.13041812136E+03 -0.32841551507E+02  0.14196954173E+03  0.00000000000E+00 0. -1.
<scales pt_clust_3="62.21409" pt_clust_4="14000.00000" pt_clust_5="48.12536" pt_clust_6="83.28180"></scales>
<clustering>
<clus scale="   48.125">  1  5  2 -1</clus>
<clus scale="   62.214">  2  3  1 -1</clus>
<clus scale="   83.282">  2  6  1 -1</clus>
<clus scale="   48.125">  1  3  2 -1</clus>
</clustering>
</event>
<event>
 6    0  0.1230761E+002  0.1778640E+03  0.7546771E-02  0.1169886E+00
          2   -1    0    0  504    0 -0.00000000000E+00  0.00000000000E+00  0.64895223126E+03  0.64895223126E+03  0.00000000000E+00 0.  1.
         21   -1    0    0  501  502  0.00000000000E+00 -0.00000000000E+00 -0.21437769678E+03  0.21437769678E+03  0.00000000000E+00 0.  1.
         21    1    1    2  503  505  0.85263771698E+01 -0.14822235804E+03 -0.63252255914E+02  0.16137972118E+03  0.00000000000E+00 0.  1.
         21    1    1    2  504  503 -0.38789158606E+01 -0.40125386935E+02  0.77897217079E+02  0.87710142479E+02  0.00000000000E+00 0. -1.
         21    1    1    2  505  502 -0.15334297617E+02 -0.30484095221E+02 -0.69822808517E+02  0.77715155112E+02  0.00000000000E+00 0.  1.
          2    1    1    2  501    0  0.10686836308E+02  0.21883184019E+03  0.48975238183E+03  0.53652490926E+03  0.00000000000E+00 0.  1.
<scales pt_clust_3="177.86398" pt_clust_4="41.42495" pt_clust_5="34.12361" pt_clust_6="14000.00000"></scales>
<clustering>
<clus scale="   34.124">  2  5  1 -1</clus>
<clus scale="   41.425">  1  4  2 -1</clus>
<clus scale="  177.864">  2  3  1 -1</clus>
<clus scale="   34.124">  2  3  1 -1</clus>
</clustering>
</event>
<event>
 6    0  0.1230761E+002  0.7174831E+02  0.7546771E-02  0.1354247E+00
         21   -1    0    0  503  502  0.00000000000E+00  0.00000000000E+00  0.12526571657E+03  0.12526571657E+03  0.00000000000E+00 0.  1.
         -3   -1    0    0    0  501 -0.00000000000E+00 -0.00000000000E+00 -0.22390228785E+03  0.22390228785E+03  0.00000000000E+00 0. -1.
         21    1    1    2  503  505 -0.55164032476E+02  0.12533655828E+02 -0.10962015906E+03  0.12335616028E+03  0.00000000000E+00 0.  1.
         21    1    1    2  504  502  0.34157154879E+02  0.53738413800E+02  0.26354712081E+02  0.68913708332E+02  0.00000000000E+00 0.  1.
         21    1    1    2  505  501 -0.54027848270E+00  0.41188088343E+02 -0.22739866032E+02  0.47051589021E+02  0.00000000000E+00 0.  1.
         -3    1    1    2    0  504  0.21547156079E+02 -0.10746015797E+03  0.73687417262E+01  0.10984654679E+03  0.00000000000E+00 0. -1.
<scales pt_clust_3="67.21414" pt_clust_4="71.74831" pt_clust_5="41.19163" pt_clust_6="14000.00000"></scales>
<clustering>
<clus scale="   41.192">  2  5  1 -1</clus>
<clus scale="   67.214">  2  3  1 -1</clus>
<clus scale="   71.748">  1  4  2 -1</clus>
<clus scale="   71.748">  1  3  2 -1</clus>
</clustering>
</event>
<event>
 6    0  0.1230761E+002  0.8576942E+02  0.7546771E-02  0.1313433E+00
          1   -1    0    0  504    0 -0.00000000000E+00  0.00000000000E+00  0.25768563332E+04  0.25768563332E+04  0.00000000000E+00 0. -1.
         21   -1    0    0  505  502  0.00000000000E+00 -0.00000000000E+00 -0.23052950322E+03  0.23052950322E+03  0.00000000000E+00 0. -1.
         21    1    1    2  503  502  0.44445514523E+02 -0.78829650342E+02 -0.18303161188E+03  0.20418150867E+03  0.00000000000E+00 0. -1.
         21    1    1    2  504  503 -0.25476052379E+02 -0.41834792269E+02  0.11371052018E+03  0.12381139482E+03  0.00000000000E+00 0. -1.
         21    1    1    2  505  501  0.78187625908E+01  0.76454809027E+02  0.15142656589E+02  0.78331161873E+02  0.00000000000E+00 0. -1.
          1    1    1    2  501    0 -0.26788224735E+02  0.44209633585E+02  0.24005052651E+04  0.24010617711E+04  0.00000000000E+00 0. -1.
<scales pt_clust_3="14000.00000" pt_clust_4="48.98142" pt_clust_5="85.76942" pt_clust_6="51.77879"></scales>
<clustering>
<clus scale="   48.981">  1  4  2 -1</clus>
<clus scale="   51.779">  1  6  2 -1</clus>
<clus scale="   85.769">  1  5  2 -1</clus>
<clus scale="   85.769">  2  3  1 -1</clus>
</clustering>
</event>
<event>
 6    0  0.1230761E+002  0.7429665E+02  0.7546771E-02  0.1346063E+00
          1   -1    0    0  504    0 -0.00000000000E+00  0.00000000000E+00  0.14891664840E+04  0.14891664840E+04  0.00000000000E+00 0. -1.
         21   -1    0    0  505  502  0.00000000000E+00 -0.00000000000E+00 -0.18907546652E+03  0.18907546652E+03  0.00000000000E+00 0.  1.
         21    1    1    2  503  501  0.92337350201E+02  0.53461037284E+02 -0.89318905482E+01  0.10707029195E+03  0.00000000000E+00 0.  1.
         21    1    1    2  504  502  0.32253224349E+02  0.12673401706E+02  0.66128785389E+03  0.66219522144E+03  0.00000000000E+00 0. -1.
         21    1    1    2  505  503 -0.41270645222E+02 -0.42080549482E+01 -0.12376018056E+03  0.13052799001E+03  0.00000000000E+00 0.  1.
          1    1    1    2  501    0 -0.83319929327E+02 -0.61926384041E+02  0.77149523470E+03  0.77844844713E+03  0.00000000000E+00 0. -1.
<scales pt_clust_3="74.29665" pt_clust_4="34.65380" pt_clust_5="41.34816" pt_clust_6="14000.00000"></scales>
<clustering>
<clus scale="   34.654">  1  4  2 -1</clus>
<clus scale="   41.348">  2  5  1 -1</clus>
<clus scale="   74.297">  2  3  1 -1</clus>
<clus scale="   41.348">  2  3  1 -1</clus>
</clustering>
</event>
<event>
 6    0  0.1230761E+002  0.3427095E+03  0.7546771E-02  0.1065648E+00
         21   -1    0    0  505  502  0.00000000000E+00  0.00000000000E+00  0.66325670489E+03  0.66325670489E+03  0.00000000000E+00 0.  1.
         -1   -1    0    0    0  501 -0.00000000000E+00 -0.00000000000E+00 -0.91538131313E+03  0.91538131313E+03  0.00000000000E+00 0. -1.
         21    1    1    2  503  502 -0.30569959242E+03  0.27444914427E+02  0.53014333493E+03  0.61258258195E+03  0.00000000000E+00 0.  1.
         21    1    1    2  504  503 -0.21678693797E+02 -0.28468039291E+02  0.48200883581E+02  0.60030993694E+02  0.00000000000E+00 0.  1.
         21    1    1    2  505  501  0.13064162052E+02  0.40485860767E+02 -0.66027130809E+02  0.78545268827E+02  0.00000000000E+00 0.  1.
         -1    1    1    2    0  504  0.31431412416E+03 -0.39462735902E+02 -0.76444169594E+03  0.82747917355E+03  0.00000000000E+00 0. -1.
<scales pt_clust_3="35.40047" pt_clust_4="35.40047" pt_clust_5="42.54148" pt_clust_6="326.65027"></scales>
<clustering>
<clus scale="   35.400">  3  4 -1 -1</clus>
<clus scale="   42.541">  2  5  1 -1</clus>
<clus scale="  326.650">  2  6  1 -1</clus>
<clus scale="  342.709">  1  3  2 -1</clus>
</clustering>
</event>
<event>
 6    0  0.1230761E+002  0.1030916E+03  0.7546771E-02  0.1273926E+00
          2   -1    0    0  505    0 -0.00000000000E+00  0.00000000000E+00  0.22320482546E+04  0.22320482546E+04  0.00000000000E+00 0. -1.
         21   -1    0    0  503  502  0.00000000000E+00 -0.00000000000E+00 -0.67717660084E+02  0.67717660084E+02  0.00000000000E+00 0. -1.
         21    1    1    2  503  501 -0.31442540585E+02 -0.15484683612E+02 -0.51098555647E+02  0.61963466448E+02  0.00000000000E+00 0. -1.
         21    1    1    2  504  502 -0.20841220327E+02  0.22534201372E+02  0.33438750321E+02  0.45390491506E+02  0.00000000000E+00 0. -1.
         21    1    1    2  505  504 -0.18454266872E+02  0.90721140894E+02  0.89424718152E+03  0.89902664422E+03  0.00000000000E+00 0. -1.
          2    1    1    2  501    0  0.70738027784E+02 -0.97770658653E+02  0.12877432183E+04  0.12933853125E+04  0.00000000000E+00 0. -1.
<scales pt_clust_3="50.78640" pt_clust_4="30.69441" pt_clust_5="14000.00000" pt_clust_6="103.09161"></scales>
<clustering>
<clus scale="   30.694">  2  4  1 -1</clus>
<clus scale="   50.786">  2  3  1 -1</clus>
<clus scale="  103.092">  2  6  1 -1</clus>
<clus scale="   30.694">  2  3  1 -1</clus>
</clustering>
</event>
<event>
 6    0  0.1230761E+002  0.9171175E+02  0.7546771E-02  0.1298759E+00
         21   -1    0    0  503  502  0.00000000000E+00  0.00000000000E+00  0.51879910213E+02  0.51879910213E+02  0.00000000000E+00 0.  1.
         -1   -1    0    0    0  501 -0.00000000000E+00 -0.00000000000E+00 -0.88960275201E+03  0.88960275201E+03  0.00000000000E+00 0. -1.
         21    1    1    2  503  504 -0.39168430434E+02  0.62174009911E+02 -0.38244069571E+02  0.82839497273E+02  0.00000000000E+00 0.  1.
         21    1    1    2  504  501  0.21341462011E+02  0.21345817951E+02 -0.73966050233E+02  0.79887912301E+02  0.00000000000E+00 0.  1.
         21    1    1    2  505  502  0.52309439983E+02  0.34019059950E+02 -0.24362947233E+02  0.66986022043E+02  0.00000000000E+00 0.  1.
         -1    1    1    2    0  505 -0.34482471560E+02 -0.11753888781E+03 -0.70114977476E+03  0.71176923061E+03  0.00000000000E+00 0. -1.
<scales pt_clust_3="14000.00000" pt_clust_4="30.18447" pt_clust_5="64.05904" pt_clust_6="91.71175"></scales>
<clustering>
<clus scale="   30.184">  2  4  1 -1</clus>
<clus scale="   64.059">  1  5  2 -1</clus>
<clus scale="   91.712">  2  6  1 -1</clus>
<clus scale="   64.059">  1  3  2 -1</clus>
</clustering>
</event>
<event>
 6    0  0.1230761E+002  0.1729922E+03  0.7546771E-02  0.1174763E+00
          2   -1    0    0  503    0 -0.00000000000E+00  0.00000000000E+00  0.21534898012E+03  0.21534898012E+03  0.00000000000E+00 0. -1.
         21   -1    0    0  501  502  0.00000000000E+00 -0.00000000000E+00 -0.12552197735E+04  0.12552197735E+04  0.00000000000E+00 0. -1.
         21    1    1    2  503  505  0.34671517458E+02  0.57137389004E+02 -0.42866735649E+02  0.79399951953E+02  0.00000000000E+00 0.  1.
         21    1    1    2  504  502  0.86961017544E+02  0.32906945076E+01 -0.79060475767E+03  0.79537973955E+03  0.00000000000E+00 0. -1.
         21    1    1    2  505  504  0.10372492525E+03  0.14837532221E+02 -0.31688740761E+03  0.33376135424E+03  0.00000000000E+00 0. -1.
          2    1    1    2  501    0 -0.22535746025E+03 -0.75265615732E+02  0.11048810752E+03  0.26202770790E+03  0.00000000000E+00 0. -1.
<scales pt_clust_3="66.83409" pt_clust_4="87.47176" pt_clust_5="172.99217" pt_clust_6="14000.00000"></scales>
<clustering>
<clus scale="   66.834">  1  3  2 -1</clus>
<clus scale="   87.472">  2  4  1 -1</clus>
<clus scale="  172.992">  2  5  1 -1</clus>
<clus scale="   87.472">  2  3  1 -1</clus>
</clustering>
</event>
<event>
 6    0  0.1230761E+002  0.3207882E+03  0.7546771E-02  0.1075287E+00
         21   -1    0    0  501  502  0.00000000000E+00  0.00000000000E+00  0.19760661268E+04  0.19760661268E+04  0.00000000000E+00 0. -1.
          1   -1    0    0  505    0 -0.00000000000E+00 -0.00000000000E+00 -0.60778178610E+03  0.60778178610E+03  0.00000000000E+00 0.  1.
         21    1    1    2  503  502  0.64741105765E+02  0.11713621606E+03  0.78519448181E+03  0.79651910093E+03  0.00000000000E+00 0. -1.
         21    1    1    2  504  503 -0.24488786910E+02  0.18356874281E+03  0.10607832416E+04  0.10768278737E+04  0.00000000000E+00 0. -1.
         21    1    1    2  505  504 -0.10308189078E+03  0.57748105841E+02 -0.26213480866E+03  0.28753326389E+03  0.00000000000E+00 0. -1.
          1    1    1    2  501    0  0.62829571921E+02 -0.35845306472E+03 -0.21555857403E+03  0.42296767435E+03  0.00000000000E+00 0.  1.
<scales pt_clust_3="83.94735" pt_clust_4="83.94735" pt_clust_5="118.15549" pt_clust_6="305.21089"></scales>
<clustering>
<clus scale="   83.947">  3  4 -1 -1</clus>
<clus scale="  118.155">  2  5  1 -1</clus>
<clus scale="  305.211">  2  6  1 -1</clus>
<clus scale="  320.788">  1  3  2 -1</clus>
</clustering>
</event>
<event>
 6    0  0.1230761E+002  0.8242165E+02  0.7546771E-02  0.1322316E+00
         21   -1    0    0  501  502  0.00000000000E+00  0.00000000000E+00  0.39441933751E+02  0.39441933751E+02  0.00000000000E+00 0.  1.
          1   -1    0    0  503    0 -0.00000000000E+00 -0.00000000000E+00 -0.88760680738E+03  0.88760680738E+03  0.00000000000E+00 0. -1.
         21    1    1    2  503  504 -0.48559171324E+01  0.40199309994E+02 -0.29039798496E+03  0.29320735687E+03  0.00000000000E+00 0.  1.
         21    1    1    2  504  505 -0.70259412813E+02 -0.12770246039E+02 -0.13848891957E+03  0.15581606180E+03  0.00000000000E+00 0.  1.
         21    1    1    2  505  502 -0.41195154251E+02  0.56840219974E+02 -0.64721410333E+02  0.95481476192E+02  0.00000000000E+00 0.  1.
          1    1    1    2  501    0  0.11631048420E+03 -0.84269283929E+02 -0.35455655877E+03  0.38254384627E+03  0.00000000000E+00 0. -1.
<scales pt_clust_3="40.49154" pt_clust_4="71.51522" pt_clust_5="14000.00000" pt_clust_6="82.42165"></scales>
<clustering>
<clus scale="   40.492">  2  3  1 -1</clus>
<clus scale="   71.515">  2  4  1 -1</clus>
<clus scale="   82.422">  2  6  1 -1</clus>
<clus scale="   82.422">  1  3  2 -1</clus>
</clustering>
</event>
<event>
 6    0  0.1230761E+002  0.3172623E+03  0.7546771E-02  0.1076916E+00
          2   -1    0    0  504    0 -0.00000000000E+00  0.00000000000E+00  0.23910829762E+04  0.23910829762E+04  0.00000000000E+00 0.  1.
         21   -1    0    0  501  502  0.00000000000E+00 -0.00000000000E+00 -0.93382877634E+02  0.93382877634E+02  0.00000000000E+00 0. -1.
         21    1    1    2  503  505  0.36816634568E+02 -0.10731909216E+03  0.13006816456E+03  0.17259947727E+03  0.00000000000E+00 0.  1.
         21    1    1    2  504  503  0.34962757640E+02 -0.61073984475E+01  0.18936540681E+03  0.19266279359E+03  0.00000000000E+00 0. -1.
         21    1    1    2  505  502  0.11443378586E+03 -0.15634309468E+03  0.11081306544E+03  0.22319899209E+03  0.00000000000E+00 0. -1.
          2    1    1    2  501    0 -0.18621317807E+03  0.26976958528E+03  0.18674534618E+04  0.18960045909E+04  0.00000000000E+00 0.  1.
<scales pt_clust_3="60.45548" pt_clust_4="35.49218" pt_clust_5="60.45548" pt_clust_6="307.27374"></scales>
<clustering>
<clus scale="   35.492">  1  4  2 -1</clus>
<clus scale="   60.455">  3  5 -1 -1</clus>
<clus scale="  307.274">  1  6  2 -1</clus>
<clus scale="  317.262">  2  3  1 -1</clus>
</clustering>
</event>
<event>
 6    0  0.1230761E+002  0.1173479E+03  0.7546771E-02  0.1247537E+00
          2   -1    0    0  505    0 -0.00000000000E+00  0.00000000000E+00  0.28952809734E+04  0.28952809734E+04  0.00000000000E+00 0.  1.
         21   -1    0    0  504  502  0.00000000000E+00 -0.00000000000E+00 -0.31026297824E+02  0.31026297824E+02  0.00000000000E+00 0. -1.
         21    1    1    2  503  502  0.70870516880E+02  0.65392471708E+02  0.68028832639E+02  0.11801155702E+03  0.00000000000E+00 0. -1.
         21    1    1    2  504  501  0.27941264320E+00  0.34168665060E+02  0.67472318041E+02  0.75631272932E+02  0.00000000000E+00 0.  1.
         21    1    1    2  505  503 -0.25335152180E+02 -0.27543119540E+02  0.28830444953E+03  0.29072314835E+03  0.00000000000E+00 0. -1.
          2    1    1    2  501    0 -0.45814777343E+02 -0.72018017229E+02  0.24404490754E+04  0.24419412930E+04  0.00000000000E+00 0.  1.
<scales pt_clust_3="117.34791" pt_clust_4="34.16981" pt_clust_5="36.30065" pt_clust_6="14000.00000"></scales>
<clustering>
<clus scale="   34.170">  2  4  1 -1</clus>
<clus scale="   36.301">  1  5  2 -1</clus>
<clus scale="  117.348">  2  3  1 -1</clus>
<clus scale="   34.170">  2  3  1 -1</clus>
</clustering>
</event>
<event>
 6    0  0.1230761E+002  0.1065110E+03  0.7546771E-02  0.1267171E+00
          2   -1    0    0  503    0 -0.00000000000E+00  0.00000000000E+00  0.16571249720E+04  0.16571249720E+04  0.00000000000E+00 0. -1.
         21   -1    0    0  501  502  0.00000000000E+00 -0.00000000000E+00 -0.86949927138E+02  0.86949927138E+02  0.00000000000E+00 0.  1.
         21    1    1    2  503  505  0.49505681753E+01  0.47281685563E+02  0.25445378846E+03  0.25885671012E+03  0.00000000000E+00 0.  1.
         21    1    1    2  504  502 -0.51081044741E+02  0.11170658666E+02 -0.46042087791E+02  0.69670155699E+02  0.00000000000E+00 0.  1.
         21    1    1    2  505  504 -0.45107407289E+02  0.13002699962E+02 -0.18871857302E+01  0.46982016438E+02  0.00000000000E+00 0.  1.
          2    1    1    2  501    0  0.91237883855E+02 -0.71455044192E+02  0.13636505300E+04  0.13685660169E+04  0.00000000000E+00 0. -1.
<scales pt_clust_3="47.54015" pt_clust_4="36.37719" pt_clust_5="36.37719" pt_clust_6="99.35114"></scales>
<clustering>
<clus scale="   36.377">  4  5 -1 -1</clus>
<clus scale="   47.540">  1  3  2 -1</clus>
<clus scale="   99.351">  1  6  2 -1</clus>
<clus scale="  106.511">  2  3  1 -1</clus>
</clustering>
</event>
<event>
 6    0  0.1230761E+002  0.7439922E+02  0.7546771E-02  0.1345742E+00
         21   -1    0    0  504  502  0.00000000000E+00  0.00000000000E+00  0.31213997499E+03  0.31213997499E+03  0.00000000000E+00 0.  1.
          2   -1    0    0  505    0 -0.00000000000E+00 -0.00000000000E+00 -0.44626225815E+03  0.44626225815E+03  0.00000000000E+00 0. -1.
         21    1    1    2  503  501  0.34965331111E+02  0.45296296674E+02 -0.69727136989E+02  0.90200900798E+02  0.00000000000E+00 0. -1.
         21    1    1    2  504  503  0.46596950657E+02  0.21944810690E+02  0.25626897606E+01  0.51569544360E+02  0.00000000000E+00 0. -1.
         21    1    1    2  505  502 -0.57352960615E+02  0.14015366214E+02  0.26629547617E+03  0.27276193505E+03  0.00000000000E+00 0.  1.
          2    1    1    2  501    0 -0.24209321153E+02 -0.81256473578E+02 -0.33325331210E+03  0.34386985293E+03  0.00000000000E+00 0. -1.
<scales pt_clust_3="14000.00000" pt_clust_4="51.50583" pt_clust_5="37.21977" pt_clust_6="74.39922"></scales>
<clustering>
<clus scale="   51.506">  1  4  2 -1</clus>
<clus scale="   37.220">  1  5  2 -1</clus>
<clus scale="   74.399">  2  6  1 -1</clus>
<clus scale="   51.506">  1  3  2 -1</clus>
</clustering>
</event>
<event>
 6    0  0.1230761E+002  0.1981424E+03  0.7546771E-02  0.1151316E+00
          2   -1    0    0  505    0 -0.00000000000E+00  0.00000000000E+00  0.19858768795E+04  0.19858768795E+04  0.00000000000E+00 0. -1.
         21   -1    0    0  504  502  0.00000000000E+00 -0.00000000000E+00 -0.24791677668E+03  0.24791677668E+03  0.00000000000E+00 0.  1.
         21    1    1    2  503  502  0.14832813963E+03  0.14267886016E+03 -0.16309670688E+03  0.26260051398E+03  0.00000000000E+00 0.  1.
         21    1    1    2  504  501  0.29869935698E+02 -0.48491334986E+02  0.18937169503E+00  0.56953125365E+02  0.00000000000E+00 0.  1.
         21    1    1    2  505  503 -0.50160680874E+02 -0.52602880560E+02  0.34580283191E+03  0.35335924426E+03  0.00000000000E+00 0. -1.
          2    1    1    2  501    0 -0.12803739445E+03 -0.41584644618E+02  0.15550646061E+04  0.15608807726E+04  0.00000000000E+00 0. -1.
<scales pt_clust_3="198.14244" pt_clust_4="56.95281" pt_clust_5="72.94069" pt_clust_6="14000.00000"></scales>
<clustering>
<clus scale="   56.953">  2  4  1 -1</clus>
<clus scale="   72.941">  1  5  2 -1</clus>
<clus scale="  198.142">  2  3  1 -1</clus>
<clus scale="   56.953">  2  3  1 -1</clus>
</clustering>
</event>
<event>
 6    0  0.1230761E+002  0.6075526E+02  0.7546771E-02  0.1394689E+00
         21   -1    0    0  505  502  0.00000000000E+00  0.00000000000E+00  0.15257567522E+03  0.15257567522E+03  0.00000000000E+00 0.  1.
          2   -1    0    0  503    0 -0.00000000000E+00 -0.00000000000E+00 -0.10372437273E+04  0.10372437273E+04  0.00000000000E+00 0.  1.
         21    1    1    2  503  502  0.71927812913E+02 -0.59496013514E+02  0.62352037035E+02  0.11225489930E+03  0.00000000000E+00 0.  1.
         21    1    1    2  504  501 -0.78275564274E+02  0.78401330067E+01 -0.33420988425E+02  0.85472183284E+02  0.00000000000E+00 0.  1.
         21    1    1    2  505  504 -0.36623945460E+02  0.44628651862E+02  0.17227417154E+02  0.60247936478E+02  0.00000000000E+00 0.  1.
          2    1    1    2  501    0  0.42971696821E+02  0.70272286453E+01 -0.93082651783E+03  0.93184438345E+03  0.00000000000E+00 0.  1.
<scales pt_clust_3="60.75526" pt_clust_4="14000.00000" pt_clust_5="53.84560" pt_clust_6="43.54249"></scales>
<clustering>
<clus scale="   43.542">  2  6  1 -1</clus>
<clus scale="   53.846">  1  5  2 -1</clus>
<clus scale="   60.755">  1  3  2 -1</clus>
<clus scale="   53.846">  1  3  2 -1</clus>
</clustering>
</event>
<event>
 6    0  0.1230761E+002  0.1775836E+03  0.7546771E-02  0.1170162E+00
         21   -1    0    0  505  502  0.00000000000E+00  0.00000000000E+00  0.13887896315E+03  0.13887896315E+03  0.00000000000E+00 0.  1.
         -3   -1    0    0    0  501 -0.00000000000E+00 -0.00000000000E+00 -0.20460018650E+04  0.20460018650E+04  0.00000000000E+00 0.  1.
         21    1    1    2  503  504  0.77833585862E+02 -0.14104443892E+03  0.18358942555E+02  0.16213775504E+03  0.00000000000E+00 0.  1.
         21    1    1    2  504  501  0.60286192091E+02  0.52970430078E+02 -0.33702626720E+03  0.34644912498E+03  0.00000000000E+00 0. -1.
         21    1    1    2  505  503 -0.19979302306E+02 -0.30727838858E+02  0.31116221666E+02  0.48079016757E+02  0.00000000000E+00 0.  1.
         -3    1    1    2    0  502 -0.11814047565E+03  0.11880184770E+03 -0.16195717989E+04  0.16282149314E+04  0.00000000000E+00 0.  1.
<scales pt_clust_3="177.58361" pt_clust_4="78.57809" pt_clust_5="36.65205" pt_clust_6="14000.00000"></scales>
<clustering>
<clus scale="   36.652">  1  5  2 -1</clus>
<clus scale="   78.578">  2  4  1 -1</clus>
<clus scale="  177.584">  1  3  2 -1</clus>
<clus scale="   36.652">  1  3  2 -1</clus>
</clustering>
</event>
<event>
 6    0  0.1230761E+002  0.9893020E+02  0.7546771E-02  0.1282562E+00
         21   -1    0    0  501  502  0.00000000000E+00  0.00000000000E+00  0.96677000958E+02  0.96677000958E+02  0.00000000000E+00 0.  1.
          1   -1    0    0  504    0 -0.00000000000E+00 -0.00000000000E+00 -0.17613999111E+04  0.17613999111E+04  0.00000000000E+00 0. -1.
         21    1    1    2  503  505  0.41222019995E+02  0.22746352696E+02  0.49884723353E+02  0.68594002052E+02  0.00000000000E+00 0.  1.
         21    1    1    2  504  503 -0.68739998303E+02  0.56616892829E+02 -0.41519437568E+03  0.42463752721E+03  0.00000000000E+00 0.  1.
         21    1    1    2  505  502  0.14838477567E+02  0.44043190065E+02  0.11660035575E+02  0.47915962239E+02  0.00000000000E+00 0.  1.
          1    1    1    2  501    0  0.12679500741E+02 -0.12340643559E+03 -0.13110732934E+04  0.13169294206E+04  0.00000000000E+00 0. -1.
<scales pt_clust_3="46.42311" pt_clust_4="89.05425" pt_clust_5="46.42311" pt_clust_6="87.20088"></scales>
<clustering>
<clus scale="   46.423">  3  5 -1 -1</clus>
<clus scale="   89.054">  2  4  1 -1</clus>
<clus scale="   87.201">  2  6  1 -1</clus>
<clus scale="   98.930">  1  3  2 -1</clus>
</clustering>
</event>
<event>
 6    0  0.1230761E+002  0.1214531E+03  0.7546771E-02  0.1240719E+00
         21   -1    0    0  503  502  0.00000000000E+00  0.00000000000E+00  0.35611496429E+03  0.35611496429E+03  0.00000000000E+00 0.  1.
          2   -1    0    0  504    0 -0.00000000000E+00 -0.00000000000E+00 -0.91671013098E+03  0.91671013098E+03  0.00000000000E+00 0.  1.
         21    1    1    2  503  501 -0.11097500478E+03 -0.39563142768E+02  0.30342572790E+03  0.32549633839E+03  0.00000000000E+00 0.  1.
         21    1    1    2  504  505  0.37545195341E+02 -0.32985471649E+02 -0.51072360478E+03  0.51316301846E+03  0.00000000000E+00 0.  1.
         21    1    1    2  505  502  0.10952321170E+02 -0.30886683318E+02  0.22279850775E+02  0.39627418487E+02  0.00000000000E+00 0.  1.
          2    1    1    2  501    0  0.62477488267E+02  0.10343529773E+03 -0.37557714059E+03  0.39453831993E+03  0.00000000000E+00 0.  1.
<scales pt_clust_3="121.45305" pt_clust_4="50.08419" pt_clust_5="32.77103" pt_clust_6="14000.00000"></scales>
<clustering>
<clus scale="   32.771">  1  5  2 -1</clus>
<clus scale="   50.084">  2  4  1 -1</clus>
<clus scale="  121.453">  1  3  2 -1</clus>
<clus scale="   32.771">  1  3  2 -1</clus>
</clustering>
</event>
<event>
 6    0  0.1230761E+002  0.8188672E+02  0.7546771E-02  0.1323781E+00
          4   -1    0    0  503    0 -0.00000000000E+00  0.00000000000E+00  0.64673749416E+03  0.64673749416E+03  0.00000000000E+00 0.  1.
         21   -1    0    0  505  502  0.00000000000E+00 -0.00000000000E+00 -0.47996994856E+02  0.47996994856E+02  0.00000000000E+00 0.  1.
         21    1    1    2  503  502 -0.18162603774E+02 -0.39588998686E+02  0.28185108727E+03  0.28519678187E+03  0.00000000000E+00 0.  1.
         21    1    1    2  504  501  0.47605188544E+02  0.61146879160E+02  0.82451717823E+02  0.11315246608E+03  0.00000000000E+00 0.  1.
         21    1    1    2  505  504 -0.16929777978E+02 -0.88068052919E+02  0.56456791247E+02  0.10597154621E+03  0.00000000000E+00 0.  1.
          4    1    1    2  501    0 -0.12512806792E+02  0.66510172445E+02  0.17798090297E+03  0.19041369487E+03  0.00000000000E+00 0.  1.
<scales pt_clust_3="43.55650" pt_clust_4="81.88672" pt_clust_5="14000.00000" pt_clust_6="51.26373"></scales>
<clustering>
<clus scale="   43.557">  1  3  2 -1</clus>
<clus scale="   51.264">  1  6  2 -1</clus>
<clus scale="   81.887">  1  4  2 -1</clus>
<clus scale="   81.887">  2  3  1 -1</clus>
</clustering>
</event>
<event>
 6    0  0.1230761E+002  0.1119015E+03  0.7546771E-02  0.1257089E+00
         21   -1    0    0  504  502  0.00000000000E+00  0.00000000000E+00  0.13721415053E+03  0.13721415053E+03  0.00000000000E+00 0. -1.
          2   -1    0    0  505    0 -0.00000000000E+00 -0.00000000000E+00 -0.35267837329E+04  0.35267837329E+04  0.00000000000E+00 0.  1.
         21    1    1    2  503  502 -0.58439420106E+02 -0.21442716340E+02  0.90176987257E+02  0.10957574977E+03  0.00000000000E+00 0. -1.
         21    1    1    2  504  501 -0.15926587830E+02  0.72975953864E+02 -0.13538414589E+04  0.13559003805E+04  0.00000000000E+00 0.  1.
         21    1    1    2  505  503  0.13133460667E+02 -0.88023497016E+02 -0.19752805350E+02  0.91163573510E+02  0.00000000000E+00 0. -1.
          2    1    1    2  501    0  0.61232547269E+02  0.36490259492E+02 -0.21061523054E+04  0.21073581796E+04  0.00000000000E+00 0.  1.
<scales pt_clust_3="62.24914" pt_clust_4="111.90153" pt_clust_5="14000.00000" pt_clust_6="70.29321"></scales>
<clustering>
<clus scale="   62.249">  1  3  2 -1</clus>
<clus scale="   70.293">  2  6  1 -1</clus>
<clus scale="  111.902">  2  4  1 -1</clus>
<clus scale="   62.249">  1  3  2 -1</clus>
</clustering>
</event>
<event>
 6    0  0.1230761E+002  0.2006571E+03  0.7546771E-02  0.1149186E+00
         21   -1    0    0  501  502  0.00000000000E+00  0.00000000000E+00  0.23872719294E+03  0.23872719294E+03  0.00000000000E+00 0. -1.
          2   -1    0    0  505    0 -0.00000000000E+00 -0.00000000000E+00 -0.14397863490E+04  0.14397863490E+04  0.00000000000E+00 0.  1.
         21    1    1    2  503  502 -0.84798622506E+02  0.22239534646E+02  0.61235181097E+02  0.10693526399E+03  0.00000000000E+00 0. -1.
         21    1    1    2  504  503  0.23824900802E+03  0.95079808525E+02  0.20948014020E+02  0.25737439481E+03  0.00000000000E+00 0. -1.
         21    1    1    2  505  504  0.68664847706E+01  0.38686272994E+02 -0.67917900838E+02  0.78464116547E+02  0.00000000000E+00 0. -1.
          2    1    1    2  501    0 -0.16031687029E+03 -0.15600561617E+03 -0.12153244503E+04  0.12357397666E+04  0.00000000000E+00 0.  1.
<scales pt_clust_3="87.72192" pt_clust_4="200.65705" pt_clust_5="39.29092" pt_clust_6="14000.00000"></scales>
<clustering>
<clus scale="   39.291">  2  5  1 -1</clus>
<clus scale="   87.722">  1  3  2 -1</clus>
<clus scale="  200.657">  1  4  2 -1</clus>
<clus scale="   87.722">  1  3  2 -1</clus>
</clustering>
</event>
<event>
 6    0  0.1230761E+002  0.1308741E+03  0.7546771E-02  0.1226164E+00
          2   -1    0    0  504    0 -0.00000000000E+00  0.00000000000E+00  0.15055661134E+04  0.15055661134E+04  0.00000000000E+00 0. -1.
         21   -1    0    0  503  502  0.00000000000E+00 -0.00000000000E+00 -0.70033056447E+03  0.70033056447E+03  0.00000000000E+00 0.  1.
         21    1    1    2  503  501  0.13496136992E+03  0.29306714434E+02 -0.63076043176E+03  0.64570285516E+03  0.00000000000E+00 0.  1.
         21    1    1    2  504  505  0.25059369335E+02 -0.24345533720E+02  0.48675505296E+03  0.48800733457E+03  0.00000000000E+00 0.  1.
         21    1    1    2  505  502 -0.44954737376E+01 -0.33343040805E+02 -0.50137940554E+02  0.60380300905E+02  0.00000000000E+00 0.  1.
          2    1    1    2  501    0 -0.15552526551E+03  0.28381860092E+02  0.99937886826E+03  0.10118061872E+04  0.00000000000E+00 0. -1.
<scales pt_clust_3="130.87413" pt_clust_4="34.95762" pt_clust_5="33.64473" pt_clust_6="14000.00000"></scales>
<clustering>
<clus scale="   33.645">  2  5  1 -1</clus>
<clus scale="   34.958">  1  4  2 -1</clus>
<clus scale="  130.874">  2  3  1 -1</clus>
<clus scale="   33.645">  2  3  1 -1</clus>
</clustering>
</event>
<event>
 6    0  0.1230761E+002  0.1315962E+03  0.7546771E-02  0.1225106E+00
          4   -1    0    0  503    0 -0.00000000000E+00  0.00000000000E+00  0.54296935346E+02  0.54296935346E+02  0.00000000000E+00 0.  1.
         21   -1    0    0  501  502  0.00000000000E+00 -0.00000000000E+00 -0.82799348339E+03  0.82799348339E+03  0.00000000000E+00 0.  1.
         21    1    1    2  503  504  0.53272554347E+01 -0.53464821105E+02 -0.60140420013E+02  0.80645749210E+02  0.00000000000E+00 0. -1.
         21    1    1    2  504  505 -0.22626014522E+02 -0.39635229569E+02 -0.14721275030E+03  0.15412489029E+03  0.00000000000E+00 0. -1.
         21    1    1    2  505  502  0.17210126123E+02 -0.38473890995E+02 -0.49701352321E+03  0.49879742479E+03  0.00000000000E+00 0.  1.
          4    1    1    2  501    0  0.88632964294E-01  0.13157394167E+03 -0.69329854521E+02  0.14872235444E+03  0.00000000000E+00 0.  1.
<scales pt_clust_3="54.68590" pt_clust_4="54.68590" pt_clust_5="42.14770" pt_clust_6="119.00635"></scales>
<clustering>
<clus scale="   42.148">  2  5  1 -1</clus>
<clus scale="   54.686">  3  4 -1 -1</clus>
<clus scale="  119.006">  1  6  2 -1</clus>
<clus scale="   42.148">  2  3  1 -1</clus>
</clustering>
</event>
<event>
 6    0  0.1230761E+002  0.7132657E+02  0.7546771E-02  0.1355639E+00
         21   -1    0    0  504  502  0.00000000000E+00  0.00000000000E+00  0.10090172179E+03  0.10090172179E+03  0.00000000000E+00 0.  1.
         -1   -1    0    0    0  501 -0.00000000000E+00 -0.00000000000E+00 -0.20013940246E+04  0.20013940246E+04  0.00000000000E+00 0. -1.
         21    1    1    2  503  505  0.50994693063E+02  0.47413899441E+02 -0.70682638272E+03  0.71024789468E+03  0.00000000000E+00 0.  1.
         21    1    1    2  504  501 -0.21232189399E+01  0.65766614252E+02  0.37616460344E+02  0.75794153453E+02  0.00000000000E+00 0. -1.
         21    1    1    2  505  502 -0.69065821965E+02 -0.76317695688E+02 -0.20760438562E+02  0.10500225830E+03  0.00000000000E+00 0.  1.
         -1    1    1    2    0  503  0.20194347842E+02 -0.36862818005E+02 -0.12105219419E+04  0.12112514400E+04  0.00000000000E+00 0. -1.
<scales pt_clust_3="14000.00000" pt_clust_4="64.89708" pt_clust_5="71.32657" pt_clust_6="42.03188"></scales>
<clustering>
<clus scale="   42.032">  2  6  1 -1</clus>
<clus scale="   64.897">  1  4  2 -1</clus>
<clus scale="   71.327">  1  5  2 -1</clus>
<clus scale="   64.897">  1  3  2 -1</clus>
</clustering>
</event>
<event>
 6    0  0.1230761E+002  0.1309579E+03  0.7546771E-02  0.1226041E+00
          1   -1    0    0  505    0 -0.00000000000E+00  0.00000000000E+00  0.28244789504E+03  0.28244789504E+03  0.00000000000E+00 0. -1.
         21   -1    0    0  504  502  0.00000000000E+00 -0.00000000000E+00 -0.38869578829E+03  0.38869578829E+03  0.00000000000E+00 0. -1.
         21    1    1    2  503  502  0.39978983363E+02  0.36771515812E+02 -0.11260033086E+03  0.12501719080E+03  0.00000000000E+00 0. -1.
         21    1    1    2  504  501 -0.70219353476E+02  0.93189790843E+02 -0.21748078645E+03  0.24680556557E+03  0.00000000000E+00 0. -1.
         21    1    1    2  505  503 -0.44527993360E+02 -0.38093052071E+01  0.21927404117E+02  0.49780157193E+02  0.00000000000E+00 0.  1.
          1    1    1    2  501    0  0.74768363472E+02 -0.12615200145E+03  0.20190581995E+03  0.24954076977E+03  0.00000000000E+00 0. -1.
<scales pt_clust_3="53.43255" pt_clust_4="14000.00000" pt_clust_5="44.69064" pt_clust_6="130.95792"></scales>
<clustering>
<clus scale="   44.691">  1  5  2 -1</clus>
<clus scale="   53.433">  2  3  1 -1</clus>
<clus scale="  130.958">  1  6  2 -1</clus>
<clus scale="   53.433">  2  3  1 -1</clus>
</clustering>
</event>
<event>
 6    0  0.1230761E+002  0.1121956E+03  0.7546771E-02  0.1256557E+00
         21   -1    0    0  504  502  0.00000000000E+00  0.00000000000E+00  0.44061885429E+02  0.44061885429E+02  0.00000000000E+00 0.  1.
          2   -1    0    0  503    0 -0.00000000000E+00 -0.00000000000E+00 -0.23072562022E+04  0.23072562022E+04  0.00000000000E+00 0.  1.
         21    1    1    2  503  502  0.97578885820E+02 -0.38927613657E+02 -0.16472570565E+04  0.16506037708E+04  0.00000000000E+00 0.  1.
         21    1    1    2  504  505  0.44948407617E+02  0.11996918928E+02 -0.16514616733E+02  0.49366162266E+02  0.00000000000E+00 0.  1.
         21    1    1    2  505  501  0.49125332025E+02 -0.26553380251E+02 -0.12734723722E+03  0.13905286432E+03  0.00000000000E+00 0.  1.
          2    1    1    2  501    0 -0.19165262546E+03  0.53484074979E+02 -0.47207540626E+03  0.51229529016E+03  0.00000000000E+00 0.  1.
<scales pt_clust_3="14000.00000" pt_clust_4="46.52188" pt_clust_5="63.37028" pt_clust_6="112.19561"></scales>
<clustering>
<clus scale="   46.522">  1  4  2 -1</clus>
<clus scale="   63.370">  1  5  2 -1</clus>
<clus scale="  112.196">  1  6  2 -1</clus>
<clus scale="   46.522">  1  3  2 -1</clus>
</clustering>
</event>
<event>
 6    0  0.1230761E+002  0.1532615E+03  0.7546771E-02  0.1196522E+00
          2   -1    0    0  505    0 -0.00000000000E+00  0.00000000000E+00  0.27024307422E+03  0.27024307422E+03  0.00000000000E+00 0.  1.
         21   -1    0    0  503  502  0.00000000000E+00 -0.00000000000E+00 -0.57799257047E+03  0.57799257047E+03  0.00000000000E+00 0. -1.
         21    1    1    2  503  504 -0.17968291420E+02  0.81258313517E+02 -0.22974934297E+03  0.24435738910E+03  0.00000000000E+00 0. -1.
         21    1    1    2  504  501  0.90246901215E+01  0.67100843700E+02 -0.29774577472E+03  0.30534654840E+03  0.00000000000E+00 0. -1.
         21    1    1    2  505  502 -0.16610202654E+02 -0.34909585066E+02 -0.10951699574E+02  0.40181061275E+02  0.00000000000E+00 0. -1.
          2    1    1    2  501    0  0.25553803952E+02 -0.11344957215E+03  0.23069732101E+03  0.25835064591E+03  0.00000000000E+00 0.  1.
<scales pt_clust_3="38.61551" pt_clust_4="38.61551" pt_clust_5="38.65977" pt_clust_6="147.16043"></scales>
<clustering>
<clus scale="   38.616">  3  4 -1 -1</clus>
<clus scale="   38.660">  1  5  2 -1</clus>
<clus scale="  147.160">  1  6  2 -1</clus>
<clus scale="  153.261">  2  3  1 -1</clus>
</clustering>
</event>
<event>
 6    0  0.1230761E+002  0.7702310E+02  0.7546771E-02  0.1337718E+00
         21   -1    0    0  505  502  0.00000000000E+00  0.00000000000E+00  0.19831327106E+03  0.19831327106E+03  0.00000000000E+00 0.  1.
          2   -1    0    0  503    0 -0.00000000000E+00 -0.00000000000E+00 -0.18567903285E+04  0.18567903285E+04  0.00000000000E+00 0. -1.
         21    1    1    2  503  504 -0.54392975174E+02 -0.53797247602E+01 -0.31473831565E+03  0.31944912666E+03  0.00000000000E+00 0.  1.
         21    1    1    2  504  502 -0.37807988625E+02  0.43987176835E+02  0.99695277486E+01  0.58853268502E+02  0.00000000000E+00 0.  1.
         21    1    1    2  505  501 -0.18126220172E+02 -0.95263093084E+02  0.14419652286E+03  0.17377069363E+03  0.00000000000E+00 0.  1.
          2    1    1    2  501    0  0.11032718397E+03  0.56655641009E+02 -0.14979047924E+04  0.15030305108E+04  0.00000000000E+00 0. -1.
<scales pt_clust_3="54.65837" pt_clust_4="58.50510" pt_clust_5="77.02310" pt_clust_6="14000.00000"></scales>
<clustering>
<clus scale="   54.658">  2  3  1 -1</clus>
<clus scale="   58.505">  1  4  2 -1</clus>
<clus scale="   77.023">  1  5  2 -1</clus>
<clus scale="   58.505">  1  3  2 -1</clus>
</clustering>
</event>
<event>
 6    0  0.1230761E+002  0.1247062E+03  0.7546771E-02  0.1235529E+00
         21   -1    0    0  503  502  0.00000000000E+00  0.00000000000E+00  0.17930178236E+03  0.17930178236E+03  0.00000000000E+00 0.  1.
          2   -1    0    0  504    0 -0.00000000000E+00 -0.00000000000E+00 -0.64227217278E+03  0.64227217278E+03  0.00000000000E+00 0. -1.
         21    1    1    2  503  501  0.11026367561E+03  0.52242452348E+02  0.11609399961E+03  0.16841962098E+03  0.00000000000E+00 0.  1.
         21    1    1    2  504  505  0.22632982951E+02 -0.26171287016E+02 -0.36960324613E+03  0.37121927177E+03  0.00000000000E+00 0. -1.
         21    1    1    2  505  502 -0.44923868646E+01  0.42145251502E+02 -0.36123173417E+02  0.55689203816E+02  0.00000000000E+00 0. -1.
          2    1    1    2  501    0 -0.12840427170E+03 -0.68216416834E+02 -0.17333797048E+03  0.22624585858E+03  0.00000000000E+00 0. -1.
<scales pt_clust_3="124.70625" pt_clust_4="34.60041" pt_clust_5="37.73195" pt_clust_6="14000.00000"></scales>
<clustering>
<clus scale="   34.600">  2  4  1 -1</clus>
<clus scale="   37.732">  2  5  1 -1</clus>
<clus scale="  124.706">  1  3  2 -1</clus>
<clus scale="  124.706">  1  3  2 -1</clus>
</clustering>
</event>
<event>
 6    0  0.1230761E+002  0.2048032E+03  0.7546771E-02  0.1145749E+00
          2   -1    0    0  504    0 -0.00000000000E+00  0.00000000000E+00  0.13742363650E+04  0.13742363650E+04  0.00000000000E+00 0.  1.
         21   -1    0    0  503  502  0.00000000000E+00 -0.00000000000E+00 -0.44647564842E+03  0.44647564842E+03  0.00000000000E+00 0.  1.
         21    1    1    2  503  505  0.12040779632E+03  0.99494131046E+02 -0.25729513020E+03  0.30099485636E+03  0.00000000000E+00 0.  1.
         21    1    1    2  504  502 -0.55471707357E+02  0.13337439302E+03  0.11892830276E+04  0.11980233548E+04  0.00000000000E+00 0.  1.
         21    1    1    2  505  501  0.41578308303E+02  0.14412483683E+01 -0.44792893832E+02  0.61132939206E+02  0.00000000000E+00 0.  1.
          2    1    1    2  501    0 -0.10651439727E+03 -0.23430977244E+03  0.40565713084E+02  0.26056086307E+03  0.00000000000E+00 0.  1.
<scales pt_clust_3="30.32210" pt_clust_4="144.45013" pt_clust_5="30.32210" pt_clust_6="196.19488"></scales>
<clustering>
<clus scale="   30.322">  3  5 -1 -1</clus>
<clus scale="  144.450">  1  4  2 -1</clus>
<clus scale="  196.195">  1  6  2 -1</clus>
<clus scale="  204.803">  2  3  1 -1</clus>
</clustering>
</event>
<event>
 6    0  0.1230761E+002  0.9826934E+02  0.7546771E-02  0.1283978E+00
         21   -1    0    0  501  502  0.00000000000E+00  0.00000000000E+00  0.18409795495E+04  0.18409795495E+04  0.00000000000E+00 0.  1.
          3   -1    0    0  503    0 -0.00000000000E+00 -0.00000000000E+00 -0.30003649246E+02  0.30003649246E+02  0.00000000000E+00 0. -1.
         21    1    1    2  503  505 -0.29574228432E+02  0.13272173001E+02  0.98299533003E+02  0.10350644305E+03  0.00000000000E+00 0.  1.
         21    1    1    2  504  502  0.98069795344E+02  0.20260682206E+01  0.14826055686E+04  0.14858469173E+04  0.00000000000E+00 0.  1.
         21    1    1    2  505  504  0.31535031322E+02  0.14475805806E+02  0.13851538592E+03  0.14279537560E+03  0.00000000000E+00 0. -1.
          3    1    1    2  501    0 -0.10003059823E+03 -0.29774047027E+02  0.91555412804E+02  0.13883446284E+03  0.00000000000E+00 0. -1.
<scales pt_clust_3="32.41582" pt_clust_4="14000.00000" pt_clust_5="33.08699" pt_clust_6="98.26934"></scales>
<clustering>
<clus scale="   32.416">  2  3  1 -1</clus>
<clus scale="   33.087">  2  5  1 -1</clus>
<clus scale="   98.269">  2  6  1 -1</clus>
<clus scale="   98.269">  1  3  2 -1</clus>
</clustering>
</event>
<event>
 6    0  0.1230761E+002  0.1006132E+03  0.7546771E-02  0.1279012E+00
          2   -1    0    0  505    0 -0.00000000000E+00  0.00000000000E+00  0.53251772330E+03  0.53251772330E+03  0.00000000000E+00 0.  1.
         21   -1    0    0  504  502  0.00000000000E+00 -0.00000000000E+00 -0.75545839587E+02  0.75545839587E+02  0.00000000000E+00 0. -1.
         21    1    1    2  503  502 -0.42622717645E+02  0.65893489039E+02  0.41488787384E+01  0.78586647415E+02  0.00000000000E+00 0. -1.
         21    1    1    2  504  501  0.43079569830E+02  0.43916809449E+02  0.26520180191E+02  0.66991458010E+02  0.00000000000E+00 0. -1.
         21    1    1    2  505  503 -0.55340350100E+02  0.45099066375E+00  0.15336204139E+03  0.16304193780E+03  0.00000000000E+00 0.  1.
          2    1    1    2  501    0  0.54883497915E+02 -0.11026128915E+03  0.27294078340E+03  0.29944351967E+03  0.00000000000E+00 0.  1.
<scales pt_clust_3="100.61320" pt_clust_4="56.93583" pt_clust_5="55.34219" pt_clust_6="14000.00000"></scales>
<clustering>
<clus scale="   55.342">  1  5  2 -1</clus>
<clus scale="   56.936">  2  4  1 -1</clus>
<clus scale="  100.613">  2  3  1 -1</clus>
<clus scale="   56.936">  2  3  1 -1</clus>
</clustering>
</event>
<event>
 6    0  0.1230761E+002  0.1381120E+03  0.7546771E-02  0.1215892E+00
         21   -1    0    0  504  502  0.00000000000E+00  0.00000000000E+00  0.12524209896E+04  0.12524209896E+04  0.00000000000E+00 0. -1.
         -1   -1    0    0    0  501 -0.00000000000E+00 -0.00000000000E+00 -0.14001928365E+03  0.14001928365E+03  0.00000000000E+00 0.  1.
         21    1    1    2  503  502 -0.28148025545E+02  0.42181714557E+02  0.17901239029E+03  0.18605656199E+03  0.00000000000E+00 0. -1.
         21    1    1    2  504  505  0.34866533911E+02  0.10345923648E+03  0.99200618366E+03  0.99799587034E+03  0.00000000000E+00 0. -1.
         21    1    1    2  505  501  0.10734764497E+02 -0.30702933356E+02 -0.83401771421E+02  0.89519611045E+02  0.00000000000E+00 0.  1.
         -1    1    1    2    0  503 -0.17453272863E+02 -0.11493801768E+03  0.24784903475E+02  0.11886822991E+03  0.00000000000E+00 0.  1.
<scales pt_clust_3="48.64264" pt_clust_4="138.11196" pt_clust_5="32.52546" pt_clust_6="14000.00000"></scales>
<clustering>
<clus scale="   32.525">  2  5  1 -1</clus>
<clus scale="   48.643">  1  3  2 -1</clus>
<clus scale="  138.112">  1  4  2 -1</clus>
<clus scale="   48.643">  1  3  2 -1</clus>
</clustering>
</event>
<event>
 6    0  0.1230761E+002  0.1196270E+03  0.7546771E-02  0.1243714E+00
         21   -1    0    0  504  502  0.00000000000E+00  0.00000000000E+00  0.21012865403E+03  0.21012865403E+03  0.00000000000E+00 0. -1.
          2   -1    0    0  503    0 -0.00000000000E+00 -0.00000000000E+00 -0.23082009457E+03  0.23082009457E+03  0.00000000000E+00 0. -1.
         21    1    1    2  503  505 -0.12585072237E+02  0.43502141177E+02 -0.35876094127E+02  0.57774687018E+02  0.00000000000E+00 0. -1.
         21    1    1    2  504  501  0.45797616501E+01  0.48574718857E+02  0.21970226937E+02  0.53508582494E+02  0.00000000000E+00 0. -1.
         21    1    1    2  505  502 -0.11861030902E+03 -0.27522117275E+02  0.95347441944E+02  0.15465124322E+03  0.00000000000E+00 0. -1.
          2    1    1    2  501    0  0.12661561961E+03 -0.64554742759E+02 -0.10213301530E+03  0.17501423586E+03  0.00000000000E+00 0. -1.
<scales pt_clust_3="45.28598" pt_clust_4="52.42010" pt_clust_5="119.62697" pt_clust_6="14000.00000"></scales>
<clustering>
<clus scale="   45.286">  2  3  1 -1</clus>
<clus scale="   52.420">  1  4  2 -1</clus>
<clus scale="  119.627">  1  5  2 -1</clus>
<clus scale="   52.420">  1  3  2 -1</clus>
</clustering>
</event>
<event>
 6    0  0.1230761E+002  0.1473414E+03  0.7546771E-02  0.1203778E+00
          1   -1    0    0  504    0 -0.00000000000E+00  0.00000000000E+00  0.40643855959E+03  0.40643855959E+03  0.00000000000E+00 0.  1.
         21   -1    0    0  501  502  0.00000000000E+00 -0.00000000000E+00 -0.12232693971E+03  0.12232693971E+03  0.00000000000E+00 0.  1.
         21    1    1    2  503  505 -0.44378694289E+02  0.34481178157E+02 -0.42366648922E+02  0.70380061770E+02  0.00000000000E+00 0.  1.
         21    1    1    2  504  503 -0.34615829476E+02  0.60063510507E+01  0.17751646438E+03  0.18095973870E+03  0.00000000000E+00 0.  1.
         21    1    1    2  505  502 -0.64267357432E+02  0.26404760763E+02  0.17116644165E+02  0.71557558159E+02  0.00000000000E+00 0.  1.
          1    1    1    2  501    0  0.14326188120E+03 -0.66892289971E+02  0.13184516025E+03  0.20586814067E+03  0.00000000000E+00 0.  1.
<scales pt_clust_3="55.22369" pt_clust_4="35.13306" pt_clust_5="55.22369" pt_clust_6="133.08577"></scales>
<clustering>
<clus scale="   35.133">  1  4  2 -1</clus>
<clus scale="   55.224">  3  5 -1 -1</clus>
<clus scale="  133.086">  1  6  2 -1</clus>
<clus scale="  147.341">  2  3  1 -1</clus>
</clustering>
</event>
<event>
 6    0  0.1230761E+002  0.7431443E+02  0.7546771E-02  0.1346007E+00
          2   -1    0    0  503    0 -0.00000000000E+00  0.00000000000E+00  0.26243291108E+04  0.26243291108E+04  0.00000000000E+00 0. -1.
         21   -1    0    0  505  502  0.00000000000E+00 -0.00000000000E+00 -0.34811598930E+02  0.34811598930E+02  0.00000000000E+00 0.  1.
         21    1    1    2  503  504 -0.96070544410E+01 -0.57531821212E+02  0.44746984736E+03  0.45125543791E+03  0.00000000000E+00 0.  1.
         21    1    1    2  504  502 -0.99628333468E+01 -0.46484460404E+02  0.78652432427E+02  0.91903581181E+02  0.00000000000E+00 0.  1.
         21    1    1    2  505  501  0.83270874622E+02  0.35831115710E+02  0.56287526113E+02  0.10670610577E+03  0.00000000000E+00 0.  1.
          2    1    1    2  501    0 -0.63700986834E+02  0.68185165906E+02  0.20071077060E+04  0.20092755849E+04  0.00000000000E+00 0. -1.
<scales pt_clust_3="61.51777" pt_clust_4="47.54012" pt_clust_5="14000.00000" pt_clust_6="74.31443"></scales>
<clustering>
<clus scale="   47.540">  2  4  1 -1</clus>
<clus scale="   61.518">  1  3  2 -1</clus>
<clus scale="   74.314">  1  6  2 -1</clus>
<clus scale="   47.540">  2  3  1 -1</clus>
</clustering>
</event>
<event>
 6    0  0.1230761E+002  0.1338868E+03  0.7546771E-02  0.1221800E+00
          3   -1    0    0  503    0 -0.00000000000E+00  0.00000000000E+00  0.67343304370E+03  0.67343304370E+03  0.00000000000E+00 0.  1.
         21   -1    0    0  504  502  0.00000000000E+00 -0.00000000000E+00 -0.27963277191E+03  0.27963277191E+03  0.00000000000E+00 0.  1.
         21    1    1    2  503  502 -0.38341703410E+02 -0.42955756578E+02  0.41081187140E+03  0.41482728566E+03  0.00000000000E+00 0.  1.
         21    1    1    2  504  505  0.87520310848E+02  0.25423487849E+02 -0.69403412628E+02  0.11455562941E+03  0.00000000000E+00 0.  1.
         21    1    1    2  505  501 -0.98406846904E+01  0.10315556935E+03 -0.16040042337E+03  0.19096126932E+03  0.00000000000E+00 0.  1.
          3    1    1    2  501    0 -0.39337922747E+02 -0.85623300620E+02  0.21279223639E+03  0.23272163123E+03  0.00000000000E+00 0.  1.
<scales pt_clust_3="57.57850" pt_clust_4="86.95083" pt_clust_5="14000.00000" pt_clust_6="133.88684"></scales>
<clustering>
<clus scale="   57.578">  1  3  2 -1</clus>
<clus scale="   86.951">  2  4  1 -1</clus>
<clus scale="  133.887">  1  6  2 -1</clus>
<clus scale="   86.951">  2  3  1 -1</clus>
</clustering>
</event>
<event>
 6    0  0.1230761E+002  0.2660619E+03  0.7546771E-02  0.1103555E+00
          1   -1    0    0  503    0 -0.00000000000E+00  0.00000000000E+00  0.21094915106E+04  0.21094915106E+04  0.00000000000E+00 0. -1.
         21   -1    0    0  501  502  0.00000000000E+00 -0.00000000000E+00 -0.22053903446E+03  0.22053903446E+03  0.00000000000E+00 0.  1.
         21    1    1    2  503  505 -0.33415498833E+02 -0.37014936841E+02  0.68385760317E+03  0.68567333514E+03  0.00000000000E+00 0.  1.
         21    1    1    2  504  502 -0.19006553057E+03 -0.10569870657E+03 -0.94077062052E+02  0.23695488196E+03  0.00000000000E+00 0.  1.
         21    1    1    2  505  504 -0.40017734978E+02  0.22614459215E+02 -0.24733274850E+02  0.52197392302E+02  0.00000000000E+00 0.  1.
          1    1    1    2  501    0  0.26349876438E+03  0.12009918420E+03  0.13239052099E+04  0.13552049357E+04  0.00000000000E+00 0. -1.
<scales pt_clust_3="49.86683" pt_clust_4="45.16611" pt_clust_5="45.16611" pt_clust_6="247.25919"></scales>
<clustering>
<clus scale="   45.166">  4  5 -1 -1</clus>
<clus scale="   49.867">  1  3  2 -1</clus>
<clus scale="  247.259">  1  6  2 -1</clus>
<clus scale="  266.062">  2  3  1 -1</clus>
</clustering>
</event>
<event>
 6    0  0.1230761E+002  0.1439364E+03  0.7546771E-02  0.1208128E+00
          2   -1    0    0  504    0 -0.00000000000E+00  0.00000000000E+00  0.27638232143E+04  0.27638232143E+04  0.00000000000E+00 0.  1.
         21   -1    0    0  503  502  0.00000000000E+00 -0.00000000000E+00 -0.18732307308E+03  0.18732307308E+03  0.00000000000E+00 0.  1.
         21    1    1    2  503  505  0.28876384797E+02 -0.53806920671E+02 -0.53508397030E+02  0.81192234011E+02  0.00000000000E+00 0.  1.
         21    1    1    2  504  502  0.30592302178E+02  0.91821475201E+01  0.12020030477E+03  0.12437167705E+03  0.00000000000E+00 0. -1.
         21    1    1    2  505  501 -0.22208576001E+02 -0.78746767513E+02 -0.10190787460E+03  0.13068851957E+03  0.00000000000E+00 0.  1.
          2    1    1    2  501    0 -0.37260110974E+02  0.12337154066E+03  0.26117161081E+04  0.26148938568E+04  0.00000000000E+00 0.  1.
<scales pt_clust_3="48.32995" pt_clust_4="31.94058" pt_clust_5="48.32995" pt_clust_6="132.64011"></scales>
<clustering>
<clus scale="   31.941">  1  4  2 -1</clus>
<clus scale="   48.330">  3  5 -1 -1</clus>
<clus scale="  132.640">  1  6  2 -1</clus>
<clus scale="  143.936">  2  3  1 -1</clus>
</clustering>
</event>
<event>
 6    0  0.1230761E+002  0.2591056E+03  0.7546771E-02  0.1107682E+00
         21   -1    0    0  501  502  0.00000000000E+00  0.00000000000E+00  0.38355237909E+03  0.38355237909E+03  0.00000000000E+00 0.  1.
          2   -1    0    0  503    0 -0.00000000000E+00 -0.00000000000E+00 -0.80242274830E+03  0.80242274830E+03  0.00000000000E+00 0.  1.
         21    1    1    2  503  504 -0.48533414252E+02 -0.95385701265E+01 -0.12450016078E+03  0.13396554278E+03  0.00000000000E+00 0.  1.
         21    1    1    2  504  505 -0.14932021097E+02  0.98325989721E+02  0.74978988138E+02  0.12455044830E+03  0.00000000000E+00 0.  1.
         21    1    1    2  505  502  0.98715842648E+02  0.11628360435E+03  0.23954838287E+03  0.28398965116E+03  0.00000000000E+00 0.  1.
          2    1    1    2  501    0 -0.35250407298E+02 -0.20507102394E+03 -0.60889757944E+03  0.64346948515E+03  0.00000000000E+00 0.  1.
<scales pt_clust_3="49.46187" pt_clust_4="98.94899" pt_clust_5="98.94899" pt_clust_6="228.55018"></scales>
<clustering>
<clus scale="   49.462">  2  3  1 -1</clus>
<clus scale="   98.949">  4  5 -1 -1</clus>
<clus scale="  228.550">  2  6  1 -1</clus>
<clus scale="  259.106">  1  3  2 -1</clus>
</clustering>
</event>
<event>
 6    0  0.1230761E+002  0.6024819E+02  0.7546771E-02  0.1396793E+00
         21   -1    0    0  505  502  0.00000000000E+00  0.00000000000E+00  0.12957279060E+04  0.12957279060E+04  0.00000000000E+00 0.  1.
          2   -1    0    0  503    0 -0.00000000000E+00 -0.00000000000E+00 -0.51978105749E+03  0.51978105749E+03  0.00000000000E+00 0. -1.
         21    1    1    2  503  504  0.18172026167E+02  0.44229545947E+02 -0.20770802941E+03  0.21314103488E+03  0.00000000000E+00 0. -1.
         21    1    1    2  504  502 -0.40938619347E+02  0.76372964062E+02  0.11441277608E+04  0.11474045204E+04  0.00000000000E+00 0.  1.
         21    1    1    2  505  501 -0.60255943827E+01 -0.39148918560E+02  0.13834693707E+03  0.14390559617E+03  0.00000000000E+00 0.  1.
          2    1    1    2  501    0  0.28792187562E+02 -0.81453591449E+02 -0.29881982000E+03  0.31105781207E+03  0.00000000000E+00 0. -1.
<scales pt_clust_3="47.72652" pt_clust_4="60.24819" pt_clust_5="39.60992" pt_clust_6="14000.00000"></scales>
<clustering>
<clus scale="   39.610">  1  5  2 -1</clus>
<clus scale="   47.727">  2  3  1 -1</clus>
<clus scale="   60.248">  1  4  2 -1</clus>
<clus scale="   39.610">  1  3  2 -1</clus>
</clustering>
</event>
<event>
 6    0  0.1230761E+002  0.9364916E+02  0.7546771E-02  0.1294248E+00
          1   -1    0    0  503    0 -0.00000000000E+00  0.00000000000E+00  0.24070977421E+04  0.24070977421E+04  0.00000000000E+00 0.  1.
         21   -1    0    0  504  502  0.00000000000E+00 -0.00000000000E+00 -0.12528383895E+03  0.12528383895E+03  0.00000000000E+00 0. -1.
         21    1    1    2  503  505  0.26272629804E+02  0.49413769514E+02  0.19913112840E+03  0.20684578311E+03  0.00000000000E+00 0. -1.
         21    1    1    2  504  501 -0.24803604177E+02  0.23234954886E+02  0.31224331905E+01  0.34129627858E+02  0.00000000000E+00 0. -1.
         21    1    1    2  505  502 -0.41940585140E+02  0.44433844690E+02 -0.95199542852E+02  0.11312087427E+03  0.00000000000E+00 0. -1.
          1    1    1    2  501    0  0.40471559514E+02 -0.11708256909E+03  0.21747598844E+04  0.21782852958E+04  0.00000000000E+00 0.  1.
<scales pt_clust_3="56.28753" pt_clust_4="33.98650" pt_clust_5="14000.00000" pt_clust_6="93.64916"></scales>
<clustering>
<clus scale="   33.986">  2  4  1 -1</clus>
<clus scale="   56.288">  1  3  2 -1</clus>
<clus scale="   93.649">  1  6  2 -1</clus>
<clus scale="   33.986">  2  3  1 -1</clus>
</clustering>
</event>
<event>
 6    0  0.1230761E+002  0.6507927E+02  0.7546771E-02  0.1377674E+00
         21   -1    0    0  505  502  0.00000000000E+00  0.00000000000E+00  0.21745723133E+03  0.21745723133E+03  0.00000000000E+00 0. -1.
          4   -1    0    0  503    0 -0.00000000000E+00 -0.00000000000E+00 -0.14837773523E+03  0.14837773523E+03  0.00000000000E+00 0. -1.
         21    1    1    2  503  504  0.44791620948E+02 -0.27112760389E+02 -0.38458371568E+01  0.52499348057E+02  0.00000000000E+00 0. -1.
         21    1    1    2  504  502 -0.34520483793E+02 -0.24002424039E+02  0.76531332900E+02  0.87320244368E+02  0.00000000000E+00 0. -1.
         21    1    1    2  505  501  0.42771392405E+02 -0.40202627937E+02  0.74368081610E+02  0.94743099293E+02  0.00000000000E+00 0.  1.
          4    1    1    2  501    0 -0.53042529560E+02  0.91317812365E+02 -0.77974081251E+02  0.13127227485E+03  0.00000000000E+00 0. -1.
<scales pt_clust_3="49.76837" pt_clust_4="42.04498" pt_clust_5="14000.00000" pt_clust_6="65.07927"></scales>
<clustering>
<clus scale="   42.045">  1  4  2 -1</clus>
<clus scale="   49.768">  2  3  1 -1</clus>
<clus scale="   65.079">  2  6  1 -1</clus>
<clus scale="   42.045">  1  3  2 -1</clus>
</clustering>
</event>
<event>
 6    0  0.1230761E+002  0.1099816E+03  0.7546771E-02  0.1260604E+00
         -1   -1    0    0    0  501 -0.00000000000E+00  0.00000000000E+00  0.35475803604E+03  0.35475803604E+03  0.00000000000E+00 0. -1.
         21   -1    0    0  504  502  0.00000000000E+00 -0.00000000000E+00 -0.26516473339E+03  0.26516473339E+03  0.00000000000E+00 0.  1.
         21    1    1    2  503  501  0.11864651430E+03 -0.70440753943E+02 -0.12482676440E+03  0.18606616103E+03  0.00000000000E+00 0.  1.
         21    1    1    2  504  503 -0.85271521561E+00  0.30117956473E+02 -0.11739106697E+01  0.30152885295E+02  0.00000000000E+00 0. -1.
         21    1    1    2  505  502 -0.76758081965E+02  0.42242290077E+02 -0.71869285763E+02  0.11331993847E+03  0.00000000000E+00 0.  1.
         -1    1    1    2    0  505 -0.41035717120E+02 -0.19194926073E+01  0.28746326348E+03  0.29038378464E+03  0.00000000000E+00 0. -1.
<scales pt_clust_3="109.98161" pt_clust_4="30.13003" pt_clust_5="14000.00000" pt_clust_6="41.07771"></scales>
<clustering>
<clus scale="   30.130">  2  4  1 -1</clus>
<clus scale="   41.078">  1  6  2 -1</clus>
<clus scale="  109.982">  2  3  1 -1</clus>
<clus scale="   30.130">  2  3  1 -1</clus>
</clustering>
</event>
<event>
 6    0  0.1230761E+002  0.2253020E+03  0.7546771E-02  0.1129991E+00
          2   -1    0    0  503    0 -0.00000000000E+00  0.00000000000E+00  0.23076678530E+04  0.23076678530E+04  0.00000000000E+00 0.  1.
         21   -1    0    0  504  502  0.00000000000E+00 -0.00000000000E+00 -0.86209683735E+02  0.86209683735E+02  0.00000000000E+00 0.  1.
         21    1    1    2  503  502 -0.17498540884E+02  0.63670681634E+02  0.60946490772E+03  0.61303150684E+03  0.00000000000E+00 0.  1.
         21    1    1    2  504  505  0.14186298046E+03 -0.41640999340E+02  0.45002128450E+02  0.15454536427E+03  0.00000000000E+00 0.  1.
         21    1    1    2  505  501  0.75917909494E+02  0.18732957624E+02  0.44136443720E+02  0.89791304409E+02  0.00000000000E+00 0.  1.
          2    1    1    2  501    0 -0.20028234907E+03 -0.40762639917E+02  0.15228546894E+04  0.15365093612E+04  0.00000000000E+00 0.  1.
<scales pt_clust_3="66.03147" pt_clust_4="44.83889" pt_clust_5="44.83889" pt_clust_6="216.70158"></scales>
<clustering>
<clus scale="   44.839">  4  5 -1 -1</clus>
<clus scale="   66.031">  1  3  2 -1</clus>
<clus scale="  216.702">  1  6  2 -1</clus>
<clus scale="  225.302">  2  3  1 -1</clus>
</clustering>
</event>
<event>
 6    0  0.1230761E+002  0.2410478E+03  0.7546771E-02  0.1119097E+00
         21   -1    0    0  503  502  0.00000000000E+00  0.00000000000E+00  0.34586158938E+03  0.34586158938E+03  0.00000000000E+00 0.  1.
          2   -1    0    0  505    0 -0.00000000000E+00 -0.00000000000E+00 -0.71178596070E+03  0.71178596070E+03  0.00000000000E+00 0. -1.
         21    1    1    2  503  501  0.23957314615E+02  0.22289029319E+02 -0.34511717958E+01  0.32903865097E+02  0.00000000000E+00 0. -1.
         21    1    1    2  504  502 -0.15348340994E+03  0.82230759554E+02  0.19397468630E+03  0.26066306580E+03  0.00000000000E+00 0.  1.
         21    1    1    2  505  504 -0.35820392583E+02  0.60137400274E+02  0.67919400338E+02  0.97532827185E+02  0.00000000000E+00 0.  1.
          2    1    1    2  501    0  0.16534648790E+03 -0.16465718915E+03 -0.62436728616E+03  0.66654779201E+03  0.00000000000E+00 0. -1.
<scales pt_clust_3="32.72237" pt_clust_4="39.36081" pt_clust_5="39.36081" pt_clust_6="233.43712"></scales>
<clustering>
<clus scale="   32.722">  1  3  2 -1</clus>
<clus scale="   39.361">  4  5 -1 -1</clus>
<clus scale="  233.437">  2  6  1 -1</clus>
<clus scale="   32.722">  1  3  2 -1</clus>
</clustering>
</event>
<event>
 6    0  0.1230761E+002  0.1030795E+03  0.7546771E-02  0.1273950E+00
         21   -1    0    0  504  502  0.00000000000E+00  0.00000000000E+00  0.84562506234E+03  0.84562506234E+03  0.00000000000E+00 0.  1.
          2   -1    0    0  505    0 -0.00000000000E+00 -0.00000000000E+00 -0.18048705179E+04  0.18048705179E+04  0.00000000000E+00 0.  1.
         21    1    1    2  503  501  0.15555826467E+02  0.11170790213E+03  0.57140363701E+03  0.58242832651E+03  0.00000000000E+00 0.  1.
         21    1    1    2  504  503  0.44961901200E+02 -0.28087905109E+02  0.26410680866E+03  0.26937503476E+03  0.00000000000E+00 0.  1.
         21    1    1    2  505  502 -0.32411800610E+02 -0.37717804743E+01 -0.37600755700E+03  0.37742076529E+03  0.00000000000E+00 0. -1.
          2    1    1    2  501    0 -0.28105927058E+02 -0.79848216544E+02 -0.14187483443E+04  0.14212714537E+04  0.00000000000E+00 0.  1.
<scales pt_clust_3="14000.00000" pt_clust_4="52.96718" pt_clust_5="32.63052" pt_clust_6="103.07953"></scales>
<clustering>
<clus scale="   32.631">  2  5  1 -1</clus>
<clus scale="   52.967">  1  4  2 -1</clus>
<clus scale="  103.080">  2  6  1 -1</clus>
<clus scale="   52.967">  1  3  2 -1</clus>
</clustering>
</event>
<event>
 6    0  0.1230761E+002  0.9334609E+02  0.7546771E-02  0.1294945E+00
         21   -1    0    0  504  502  0.00000000000E+00  0.00000000000E+00  0.37905200752E+03  0.37905200752E+03  0.00000000000E+00 0. -1.
          2   -1    0    0  505    0 -0.00000000000E+00 -0.00000000000E+00 -0.37379034007E+03  0.37379034007E+03  0.00000000000E+00 0. -1.
         21    1    1    2  503  501 -0.51649418810E+02 -0.37902767806E+02 -0.16358509780E+02  0.66120217128E+02  0.00000000000E+00 0. -1.
         21    1    1    2  504  503 -0.69902418183E+02  0.72934546559E+02  0.29458763254E+03  0.31142843383E+03  0.00000000000E+00 0. -1.
         21    1    1    2  505  502  0.70275496261E+02 -0.24250233495E+02  0.20554889597E+02  0.77131204358E+02  0.00000000000E+00 0. -1.
          2    1    1    2  501    0  0.51276340732E+02 -0.10781545259E+02 -0.29352234492E+03  0.29816249228E+03  0.00000000000E+00 0. -1.
<scales pt_clust_3="50.02839" pt_clust_4="93.34609" pt_clust_5="14000.00000" pt_clust_6="52.39757"></scales>
<clustering>
<clus scale="   52.398">  2  6  1 -1</clus>
<clus scale="   50.028">  2  3  1 -1</clus>
<clus scale="   93.346">  1  4  2 -1</clus>
<clus scale="   93.346">  1  3  2 -1</clus>
</clustering>
</event>
<event>
 6    0  0.1230761E+002  0.2850828E+03  0.7546771E-02  0.1092945E+00
         -4   -1    0    0    0  501 -0.00000000000E+00  0.00000000000E+00  0.24150486050E+03  0.24150486050E+03  0.00000000000E+00 0. -1.
         21   -1    0    0  503  502  0.00000000000E+00 -0.00000000000E+00 -0.81179219795E+03  0.81179219795E+03  0.00000000000E+00 0. -1.
         21    1    1    2  503  501 -0.23675885069E+02 -0.39346148835E+02 -0.34955478416E+01  0.46053076082E+02  0.00000000000E+00 0. -1.
         21    1    1    2  504  505 -0.62201196014E+01 -0.50006416561E+02 -0.79765227130E+02  0.94349472941E+02  0.00000000000E+00 0.  1.
         21    1    1    2  505  502  0.15781929553E+03 -0.16579492722E+03 -0.57117051098E+03  0.61532970069E+03  0.00000000000E+00 0. -1.
         -4    1    1    2    0  504 -0.12792329086E+03  0.25514749262E+03  0.84143948497E+02  0.29756480874E+03  0.00000000000E+00 0. -1.
<scales pt_clust_3="45.92022" pt_clust_4="48.31387" pt_clust_5="48.31387" pt_clust_6="266.26590"></scales>
<clustering>
<clus scale="   45.920">  1  3  2 -1</clus>
<clus scale="   48.314">  4  5 -1 -1</clus>
<clus scale="  266.266">  1  6  2 -1</clus>
<clus scale="  285.083">  2  3  1 -1</clus>
</clustering>
</event>
<event>
 6    0  0.6090819E+002  0.1390456E+03  0.7546771E-02  0.1214619E+00
         21   -1    0    0  505  502  0.00000000000E+00  0.00000000000E+00  0.25422977249E+04  0.25422977249E+04  0.00000000000E+00 0. -1.
         -4   -1    0    0    0  501 -0.00000000000E+00 -0.00000000000E+00 -0.14583844934E+04  0.14583844934E+04  0.00000000000E+00 0.  1.
         21    1    1    2  503  502 -0.81724184929E+01 -0.42621932663E+02  0.17011846743E+02  0.46613522690E+02  0.00000000000E+00 0. -1.
         21    1    1    2  504  501  0.10809804755E+02  0.35160487553E+02 -0.12270655967E+03  0.12810156732E+03  0.00000000000E+00 0.  1.
         21    1    1    2  505  504 -0.88878923054E+02  0.14177904053E+03  0.25001482829E+04  0.25057418454E+04  0.00000000000E+00 0. -1.
         -4    1    1    2    0  503  0.86241536792E+02 -0.13431759542E+03 -0.13105403384E+04  0.13202252829E+04  0.00000000000E+00 0.  1.
<scales pt_clust_3="42.99236" pt_clust_4="36.78467" pt_clust_5="139.04557" pt_clust_6="14000.00000"></scales>
<clustering>
<clus scale="   36.785">  2  4  1 -1</clus>
<clus scale="   42.992">  1  3  2 -1</clus>
<clus scale="  139.046">  1  5  2 -1</clus>
<clus scale="   42.992">  1  3  2 -1</clus>
</clustering>
</event>
<event>
 6    0  0.1230761E+002  0.1122543E+03  0.7546771E-02  0.1256451E+00
         21   -1    0    0  503  502  0.00000000000E+00  0.00000000000E+00  0.75619949577E+02  0.75619949577E+02  0.00000000000E+00 0.  1.
          2   -1    0    0  504    0 -0.00000000000E+00 -0.00000000000E+00 -0.51369445331E+03  0.51369445331E+03  0.00000000000E+00 0.  1.
         21    1    1    2  503  501 -0.45444833101E+02 -0.43335250767E+02 -0.40513351622E+02  0.74729568942E+02  0.00000000000E+00 0.  1.
         21    1    1    2  504  505  0.14424571781E+03 -0.46962965028E+01 -0.13265931149E+03  0.19602901631E+03  0.00000000000E+00 0.  1.
         21    1    1    2  505  502  0.25668259870E+01  0.30124904481E+02  0.41193067800E+01  0.30513393026E+02  0.00000000000E+00 0.  1.
          2    1    1    2  501    0 -0.10136771070E+03  0.17906642789E+02 -0.26902114740E+03  0.28804242461E+03  0.00000000000E+00 0.  1.
<scales pt_clust_3="56.45612" pt_clust_4="112.25428" pt_clust_5="30.23406" pt_clust_6="14000.00000"></scales>
<clustering>
<clus scale="   30.234">  1  5  2 -1</clus>
<clus scale="   56.456">  1  3  2 -1</clus>
<clus scale="  112.254">  1  4  2 -1</clus>
<clus scale="   30.234">  1  3  2 -1</clus>
</clustering>
</event>
<event>
 6    0  0.1230761E+002  0.1274883E+03  0.7546771E-02  0.1231231E+00
         21   -1    0    0  505  502  0.00000000000E+00  0.00000000000E+00  0.15547727226E+04  0.15547727226E+04  0.00000000000E+00 0.  1.
         -2   -1    0    0    0  501 -0.00000000000E+00 -0.00000000000E+00 -0.41615725193E+02  0.41615725193E+02  0.00000000000E+00 0.  1.
         21    1    1    2  503  502  0.16643991215E+02 -0.47806137876E+02  0.46563668629E+03  0.46838015851E+03  0.00000000000E+00 0.  1.
         21    1    1    2  504  503 -0.21202750915E+02 -0.74980752257E+02  0.84790256251E+03  0.85147544026E+03  0.00000000000E+00 0.  1.
         21    1    1    2  505  501  0.53575440085E+02  0.10207634844E+03  0.66298654545E+02  0.13298654175E+03  0.00000000000E+00 0.  1.
         -2    1    1    2    0  504 -0.49016680385E+02  0.20710541693E+02  0.13331909408E+03  0.14354630730E+03  0.00000000000E+00 0.  1.
<scales pt_clust_3="31.58917" pt_clust_4="31.58917" pt_clust_5="121.31458" pt_clust_6="53.21242"></scales>
<clustering>
<clus scale="   31.589">  3  4 -1 -1</clus>
<clus scale="   53.212">  2  6  1 -1</clus>
<clus scale="  121.315">  2  5  1 -1</clus>
<clus scale="  127.488">  1  3  2 -1</clus>
</clustering>
</event>
<event>
 6    0  0.1230761E+002  0.2756269E+03  0.7546771E-02  0.1098102E+00
         21   -1    0    0  503  502  0.00000000000E+00  0.00000000000E+00  0.28113401818E+03  0.28113401818E+03  0.00000000000E+00 0.  1.
         -3   -1    0    0    0  501 -0.00000000000E+00 -0.00000000000E+00 -0.49229641022E+03  0.49229641022E+03  0.00000000000E+00 0.  1.
         21    1    1    2  503  504 -0.14695653375E+02  0.73123568439E+02  0.21040482170E+02  0.77496583017E+02  0.00000000000E+00 0. -1.
         21    1    1    2  504  505 -0.15388911384E+03  0.13674069202E+03  0.12206203764E+03  0.23933035170E+03  0.00000000000E+00 0.  1.
         21    1    1    2  505  501  0.37905990032E+01 -0.39007962105E+02 -0.10647095329E+03  0.11345507324E+03  0.00000000000E+00 0.  1.
         -3    1    1    2    0  502  0.16479416821E+03 -0.17085629836E+03 -0.24779395855E+03  0.34314842045E+03  0.00000000000E+00 0.  1.
<scales pt_clust_3="51.44595" pt_clust_4="51.44595" pt_clust_5="39.19171" pt_clust_6="261.78813"></scales>
<clustering>
<clus scale="   39.192">  2  5  1 -1</clus>
<clus scale="   51.446">  3  4 -1 -1</clus>
<clus scale="  261.788">  2  6  1 -1</clus>
<clus scale="  275.627">  1  3  2 -1</clus>
</clustering>
</event>
<event>
 6    0  0.1230761E+002  0.1326533E+03  0.7546771E-02  0.1223571E+00
         21   -1    0    0  505  502  0.00000000000E+00  0.00000000000E+00  0.45387282432E+03  0.45387282432E+03  0.00000000000E+00 0.  1.
          2   -1    0    0  503    0 -0.00000000000E+00 -0.00000000000E+00 -0.75036632094E+03  0.75036632094E+03  0.00000000000E+00 0. -1.
         21    1    1    2  503  502  0.15579916341E+02 -0.10271045423E+03  0.15896145967E+03  0.18989712178E+03  0.00000000000E+00 0.  1.
         21    1    1    2  504  501  0.53971346957E+02 -0.31678244013E+02 -0.18037139761E+02  0.65128763591E+02  0.00000000000E+00 0. -1.
         21    1    1    2  505  504  0.34354128318E+02  0.48650033133E+02  0.24576355767E+03  0.25287696244E+03  0.00000000000E+00 0.  1.
          2    1    1    2  501    0 -0.10390539162E+03  0.85738665107E+02 -0.68318137419E+03  0.69633629745E+03  0.00000000000E+00 0. -1.
<scales pt_clust_3="132.65330" pt_clust_4="63.52536" pt_clust_5="59.55696" pt_clust_6="14000.00000"></scales>
<clustering>
<clus scale="   59.557">  1  5  2 -1</clus>
<clus scale="   63.525">  1  4  2 -1</clus>
<clus scale="  132.653">  1  3  2 -1</clus>
<clus scale="   59.557">  1  3  2 -1</clus>
</clustering>
</event>
<event>
 6    0  0.1230761E+002  0.9344153E+02  0.7546771E-02  0.1294725E+00
          1   -1    0    0  504    0 -0.00000000000E+00  0.00000000000E+00  0.70476479024E+03  0.70476479024E+03  0.00000000000E+00 0.  1.
         21   -1    0    0  501  502  0.00000000000E+00 -0.00000000000E+00 -0.16343473431E+03  0.16343473431E+03  0.00000000000E+00 0.  1.
         21    1    1    2  503  502 -0.43499208589E+02  0.93448766329E+01 -0.10514391101E+03  0.11416982916E+03  0.00000000000E+00 0.  1.
         21    1    1    2  504  505 -0.41225222529E+02 -0.12883489662E+01  0.54472676808E+02  0.68326066287E+02  0.00000000000E+00 0. -1.
         21    1    1    2  505  503 -0.39608377370E+02  0.41912778175E+01 -0.30891561275E+02  0.50405147809E+02  0.00000000000E+00 0.  1.
          1    1    1    2  501    0  0.12433280849E+03 -0.12247805484E+02  0.62289285141E+03  0.63529848130E+03  0.00000000000E+00 0.  1.
<scales pt_clust_3="36.51204" pt_clust_4="41.24535" pt_clust_5="36.51204" pt_clust_6="85.10079"></scales>
<clustering>
<clus scale="   36.512">  3  5 -1 -1</clus>
<clus scale="   41.245">  1  4  2 -1</clus>
<clus scale="   85.101">  1  6  2 -1</clus>
<clus scale="   93.442">  2  3  1 -1</clus>
</clustering>
</event>
<event>
 6    0  0.1230761E+002  0.2140874E+03  0.7546771E-02  0.1138370E+00
          1   -1    0    0  503    0 -0.00000000000E+00  0.00000000000E+00  0.72516914388E+03  0.72516914388E+03  0.00000000000E+00 0.  1.
         21   -1    0    0  504  502  0.00000000000E+00 -0.00000000000E+00 -0.12728901306E+03  0.12728901306E+03  0.00000000000E+00 0. -1.
         21    1    1    2  503  505  0.10272982198E+03  0.45524131155E+02  0.22160829486E+02  0.11452932028E+03  0.00000000000E+00 0. -1.
         21    1    1    2  504  501 -0.47860186599E+02 -0.32929740274E+02  0.28287493411E+02  0.64615381599E+02  0.00000000000E+00 0. -1.
         21    1    1    2  505  502  0.71229766882E+02  0.12511926934E+03  0.68839176909E+02  0.15958491008E+03  0.00000000000E+00 0.  1.
          1    1    1    2  501    0 -0.12609940226E+03 -0.13771366022E+03  0.47859263101E+03  0.51372854497E+03  0.00000000000E+00 0.  1.
<scales pt_clust_3="73.36340" pt_clust_4="58.09445" pt_clust_5="73.36340" pt_clust_6="195.84917"></scales>
<clustering>
<clus scale="   58.094">  2  4  1 -1</clus>
<clus scale="   73.363">  3  5 -1 -1</clus>
<clus scale="  195.849">  1  6  2 -1</clus>
<clus scale="   58.094">  2  3  1 -1</clus>
</clustering>
</event>
<event>
 6    0  0.1230761E+002  0.1536881E+03  0.7546771E-02  0.1196013E+00
          2   -1    0    0  505    0 -0.00000000000E+00  0.00000000000E+00  0.52940166848E+03  0.52940166848E+03  0.00000000000E+00 0.  1.
         21   -1    0    0  504  502  0.00000000000E+00 -0.00000000000E+00 -0.44473295313E+03  0.44473295313E+03  0.00000000000E+00 0. -1.
         21    1    1    2  503  501 -0.13457472674E+02 -0.73899773947E+02 -0.21504031291E+03  0.22778194910E+03  0.00000000000E+00 0. -1.
         21    1    1    2  504  503 -0.44701283412E+02 -0.65205257736E+02 -0.19943619367E+03  0.21453374029E+03  0.00000000000E+00 0. -1.
         21    1    1    2  505  502 -0.29993018452E+02  0.37755659690E+02  0.10870723735E+03  0.11892154744E+03  0.00000000000E+00 0.  1.
          2    1    1    2  501    0  0.88151774538E+02  0.10134937199E+03  0.39043798457E+03  0.41289738478E+03  0.00000000000E+00 0.  1.
<scales pt_clust_3="32.61777" pt_clust_4="32.61777" pt_clust_5="48.21899" pt_clust_6="150.00097"></scales>
<clustering>
<clus scale="   32.618">  3  4 -1 -1</clus>
<clus scale="   48.219">  1  5  2 -1</clus>
<clus scale="  150.001">  1  6  2 -1</clus>
<clus scale="  153.688">  2  3  1 -1</clus>
</clustering>
</event>
<event>
 6    0  0.1230761E+002  0.1129083E+03  0.7546771E-02  0.1255277E+00
         -1   -1    0    0    0  501 -0.00000000000E+00  0.00000000000E+00  0.10931793202E+04  0.10931793202E+04  0.00000000000E+00 0. -1.
         21   -1    0    0  505  502  0.00000000000E+00 -0.00000000000E+00 -0.14986311278E+03  0.14986311278E+03  0.00000000000E+00 0. -1.
         21    1    1    2  503  502  0.98553066057E+02 -0.95258515060E+02 -0.78851333503E+02  0.15812787331E+03  0.00000000000E+00 0. -1.
         21    1    1    2  504  501  0.21078586747E+02  0.40226265450E+02  0.22761308532E+03  0.23209949561E+03  0.00000000000E+00 0. -1.
         21    1    1    2  505  504 -0.80833451987E+02 -0.20787272737E+02  0.38389971547E+02  0.91869187344E+02  0.00000000000E+00 0. -1.
         -1    1    1    2    0  503 -0.38798200818E+02  0.75819522348E+02  0.75616448409E+03  0.76094587676E+03  0.00000000000E+00 0. -1.
<scales pt_clust_3="112.90833" pt_clust_4="45.41431" pt_clust_5="81.20745" pt_clust_6="14000.00000"></scales>
<clustering>
<clus scale="   45.414">  1  4  2 -1</clus>
<clus scale="   81.207">  2  5  1 -1</clus>
<clus scale="  112.908">  2  3  1 -1</clus>
<clus scale="   81.207">  2  3  1 -1</clus>
</clustering>
</event>
<event>
 6    0  0.1230761E+002  0.2325022E+03  0.7546771E-02  0.1124891E+00
         21   -1    0    0  504  502  0.00000000000E+00  0.00000000000E+00  0.75743496351E+03  0.75743496351E+03  0.00000000000E+00 0.  1.
          2   -1    0    0  503    0 -0.00000000000E+00 -0.00000000000E+00 -0.16805092469E+04  0.16805092469E+04  0.00000000000E+00 0. -1.
         21    1    1    2  503  502  0.46314414343E+02  0.36852822789E+02 -0.54388364400E+02  0.80381899116E+02  0.00000000000E+00 0.  1.
         21    1    1    2  504  505 -0.14177130667E+01  0.17693716610E+03  0.54846403707E+03  0.57629989642E+03  0.00000000000E+00 0.  1.
         21    1    1    2  505  501 -0.42056830715E+02  0.35853353556E+02  0.16785332377E+03  0.17671722687E+03  0.00000000000E+00 0.  1.
          2    1    1    2  501    0 -0.28398705612E+01 -0.24964334245E+03 -0.15850032798E+04  0.16045451880E+04  0.00000000000E+00 0. -1.
<scales pt_clust_3="59.18746" pt_clust_4="45.93061" pt_clust_5="45.93061" pt_clust_6="217.49229"></scales>
<clustering>
<clus scale="   45.931">  4  5 -1 -1</clus>
<clus scale="   59.187">  2  3  1 -1</clus>
<clus scale="  217.492">  2  6  1 -1</clus>
<clus scale="  232.502">  1  3  2 -1</clus>
</clustering>
</event>
<event>
 6    0  0.1230761E+002  0.7126853E+02  0.7546771E-02  0.1355832E+00
         21   -1    0    0  503  502  0.00000000000E+00  0.00000000000E+00  0.37409356749E+02  0.37409356749E+02  0.00000000000E+00 0.  1.
          1   -1    0    0  504    0 -0.00000000000E+00 -0.00000000000E+00 -0.13386374609E+04  0.13386374609E+04  0.00000000000E+00 0. -1.
         21    1    1    2  503  501 -0.38779050267E+02  0.29727519148E+01 -0.70953588833E+02  0.80913928108E+02  0.00000000000E+00 0. -1.
         21    1    1    2  504  505  0.36634339965E+02 -0.29644926088E+02 -0.23543252674E+03  0.24010283454E+03  0.00000000000E+00 0. -1.
         21    1    1    2  505  502  0.50335676526E+02 -0.67350515745E+02 -0.37824036523E+02  0.92197776770E+02  0.00000000000E+00 0.  1.
          1    1    1    2  501    0 -0.48190966224E+02  0.94022689918E+02 -0.95701795204E+03  0.96283227822E+03  0.00000000000E+00 0. -1.
<scales pt_clust_3="38.89283" pt_clust_4="44.84923" pt_clust_5="14000.00000" pt_clust_6="71.26853"></scales>
<clustering>
<clus scale="   38.893">  1  3  2 -1</clus>
<clus scale="   44.849">  2  4  1 -1</clus>
<clus scale="   71.269">  2  6  1 -1</clus>
<clus scale="   38.893">  1  3  2 -1</clus>
</clustering>
</event>
<event>
 6    0  0.1230761E+002  0.1985007E+03  0.7546771E-02  0.1151010E+00
         21   -1    0    0  503  502  0.00000000000E+00  0.00000000000E+00  0.21766994679E+04  0.21766994679E+04  0.00000000000E+00 0. -1.
          2   -1    0    0  505    0 -0.00000000000E+00 -0.00000000000E+00 -0.57358304457E+03  0.57358304457E+03  0.00000000000E+00 0. -1.
         21    1    1    2  503  501 -0.28825825608E+02  0.77988868708E+02  0.17959649412E+03  0.19790930389E+03  0.00000000000E+00 0. -1.
         21    1    1    2  504  502 -0.69824498491E+02 -0.62838063267E+02  0.18826718585E+04  0.18850139017E+04  0.00000000000E+00 0. -1.
         21    1    1    2  505  504 -0.57230941141E+01 -0.19249130722E+03 -0.34728362290E+02  0.19568269292E+03  0.00000000000E+00 0. -1.
          2    1    1    2  501    0  0.10437341821E+03  0.17734050178E+03 -0.42442356696E+03  0.47167661400E+03  0.00000000000E+00 0. -1.
<scales pt_clust_3="83.14561" pt_clust_4="97.76914" pt_clust_5="198.50067" pt_clust_6="14000.00000"></scales>
<clustering>
<clus scale="   83.146">  1  3  2 -1</clus>
<clus scale="   97.769">  1  4  2 -1</clus>
<clus scale="  198.501">  1  5  2 -1</clus>
<clus scale="   83.146">  1  3  2 -1</clus>
</clustering>
</event>
<event>
 6    0  0.1230761E+002  0.1503748E+03  0.7546771E-02  0.1200013E+00
         21   -1    0    0  505  502  0.00000000000E+00  0.00000000000E+00  0.35780566940E+03  0.35780566940E+03  0.00000000000E+00 0. -1.
          2   -1    0    0  503    0 -0.00000000000E+00 -0.00000000000E+00 -0.33461731320E+04  0.33461731320E+04  0.00000000000E+00 0.  1.
         21    1    1    2  503  504  0.31023360177E+02  0.97560320743E+01 -0.47630889830E+02  0.57674350490E+02  0.00000000000E+00 0.  1.
         21    1    1    2  504  502  0.38758674759E+01 -0.10702962616E+03  0.29784120387E+03  0.31651184172E+03  0.00000000000E+00 0. -1.
         21    1    1    2  505  501 -0.96145167580E+01 -0.44271419087E+02  0.32374110211E+02  0.55681958411E+02  0.00000000000E+00 0. -1.
          2    1    1    2  501    0 -0.25284710895E+02  0.14154501317E+03 -0.32709518869E+04  0.32741106508E+04  0.00000000000E+00 0.  1.
<scales pt_clust_3="32.52121" pt_clust_4="14000.00000" pt_clust_5="45.24647" pt_clust_6="150.37477"></scales>
<clustering>
<clus scale="   32.521">  2  3  1 -1</clus>
<clus scale="   45.246">  1  5  2 -1</clus>
<clus scale="  150.375">  2  6  1 -1</clus>
<clus scale="   45.246">  1  3  2 -1</clus>
</clustering>
</event>
<event>
 6    0  0.1230761E+002  0.9556900E+02  0.7546771E-02  0.1289900E+00
         21   -1    0    0  505  502  0.00000000000E+00  0.00000000000E+00  0.49870618170E+02  0.49870618170E+02  0.00000000000E+00 0. -1.
          1   -1    0    0  504    0 -0.00000000000E+00 -0.00000000000E+00 -0.14359826550E+04  0.14359826550E+04  0.00000000000E+00 0. -1.
         21    1    1    2  503  501  0.19254585690E+02 -0.64959569196E+02 -0.30103973346E+03  0.30856993668E+03  0.00000000000E+00 0.  1.
         21    1    1    2  504  502  0.11094145178E+02  0.28832014890E+02 -0.92611533372E+00  0.30906679366E+02  0.00000000000E+00 0. -1.
         21    1    1    2  505  503  0.61283209044E+01 -0.79497460098E+02 -0.29858802915E+02  0.85140769263E+02  0.00000000000E+00 0. -1.
          1    1    1    2  501    0 -0.36477051772E+02  0.11562501440E+03 -0.10542873851E+04  0.10612358878E+04  0.00000000000E+00 0. -1.
<scales pt_clust_3="14000.00000" pt_clust_4="30.89280" pt_clust_5="58.58128" pt_clust_6="95.56900"></scales>
<clustering>
<clus scale="   30.893">  1  4  2 -1</clus>
<clus scale="   58.581">  1  5  2 -1</clus>
<clus scale="   95.569">  2  6  1 -1</clus>
<clus scale="   30.893">  1  3  2 -1</clus>
</clustering>
</event>
<event>
 6    0  0.1230761E+002  0.7889511E+02  0.7546771E-02  0.1332217E+00
          2   -1    0    0  505    0 -0.00000000000E+00  0.00000000000E+00  0.36059526105E+04  0.36059526105E+04  0.00000000000E+00 0. -1.
         21   -1    0    0  503  502  0.00000000000E+00 -0.00000000000E+00 -0.32178343413E+03  0.32178343413E+03  0.00000000000E+00 0. -1.
         21    1    1    2  503  501 -0.12498626068E+03 -0.27896337682E+02 -0.27578911515E+03  0.30407138479E+03  0.00000000000E+00 0. -1.
         21    1    1    2  504  502  0.46452925732E+02  0.24584020709E+02 -0.79309184757E+01  0.53152119912E+02  0.00000000000E+00 0.  1.
         21    1    1    2  505  504 -0.67998112953E+01  0.38394199934E+02  0.15830325169E+04  0.15835126465E+04  0.00000000000E+00 0. -1.
          2    1    1    2  501    0  0.85333146238E+02 -0.35081882961E+02  0.19848566931E+04  0.19869998934E+04  0.00000000000E+00 0. -1.
<scales pt_clust_3="14000.00000" pt_clust_4="52.69230" pt_clust_5="38.99169" pt_clust_6="78.89511"></scales>
<clustering>
<clus scale="   38.992">  1  5  2 -1</clus>
<clus scale="   52.692">  2  4  1 -1</clus>
<clus scale="   78.895">  1  6  2 -1</clus>
<clus scale="   52.692">  2  3  1 -1</clus>
</clustering>
</event>
<event>
 6    0  0.1230761E+002  0.1374722E+03  0.7546771E-02  0.1216771E+00
          1   -1    0    0  504    0 -0.00000000000E+00  0.00000000000E+00  0.22676731766E+04  0.22676731766E+04  0.00000000000E+00 0. -1.
         21   -1    0    0  503  502  0.00000000000E+00 -0.00000000000E+00 -0.50078877999E+03  0.50078877999E+03  0.00000000000E+00 0. -1.
         21    1    1    2  503  501 -0.27102912725E+02 -0.97640872875E+02 -0.38442250511E+03  0.39755373268E+03  0.00000000000E+00 0. -1.
         21    1    1    2  504  505  0.90597102280E+02 -0.17020727848E+02  0.10584295731E+04  0.10624362105E+04  0.00000000000E+00 0. -1.
         21    1    1    2  505  502  0.95497869846E+02 -0.21347358166E+02 -0.74189025010E+02  0.12279887735E+03  0.00000000000E+00 0.  1.
          1    1    1    2  501    0 -0.15899205940E+03  0.13600895889E+03  0.11670663536E+04  0.11856731360E+04  0.00000000000E+00 0. -1.
<scales pt_clust_3="14000.00000" pt_clust_4="92.18210" pt_clust_5="99.70956" pt_clust_6="137.47217"></scales>
<clustering>
<clus scale="   92.182">  1  4  2 -1</clus>
<clus scale="   99.710">  2  5  1 -1</clus>
<clus scale="  137.472">  1  6  2 -1</clus>
<clus scale="   99.710">  2  3  1 -1</clus>
</clustering>
</event>
<event>
 6    0  0.1917446E+002  0.1106128E+03  0.7546771E-02  0.1259439E+00
         21   -1    0    0  503  502  0.00000000000E+00  0.00000000000E+00  0.93796762891E+03  0.93796762891E+03  0.00000000000E+00 0.  1.
          2   -1    0    0  505    0 -0.00000000000E+00 -0.00000000000E+00 -0.13572756909E+04  0.13572756909E+04  0.00000000000E+00 0. -1.
         21    1    1    2  503  501  0.33954218589E+02 -0.22144486136E+02  0.45980753236E+00  0.40539840271E+02  0.00000000000E+00 0. -1.
         21    1    1    2  504  502 -0.84028429311E+02  0.12096426463E+03  0.90553156445E+03  0.91743149307E+03  0.00000000000E+00 0.  1.
         21    1    1    2  505  504  0.42624930565E+02 -0.17650752703E+01 -0.10850754576E+03  0.11659282861E+03  0.00000000000E+00 0.  1.
          2    1    1    2  501    0  0.74492801571E+01 -0.97054703227E+02 -0.12167918882E+04  0.12206791578E+04  0.00000000000E+00 0. -1.
<scales pt_clust_3="40.53723" pt_clust_4="110.61281" pt_clust_5="42.81508" pt_clust_6="14000.00000"></scales>
<clustering>
<clus scale="   40.537">  1  3  2 -1</clus>
<clus scale="   42.815">  2  5  1 -1</clus>
<clus scale="  110.613">  1  4  2 -1</clus>
<clus scale="   40.537">  1  3  2 -1</clus>
</clustering>
</event>
<event>
 6    0  0.1230761E+002  0.7955333E+02  0.7546771E-02  0.1330324E+00
          4   -1    0    0  504    0 -0.00000000000E+00  0.00000000000E+00  0.58738212781E+03  0.58738212781E+03  0.00000000000E+00 0. -1.
         21   -1    0    0  503  502  0.00000000000E+00 -0.00000000000E+00 -0.10818373789E+03  0.10818373789E+03  0.00000000000E+00 0.  1.
         21    1    1    2  503  501  0.23984390117E+02  0.31641889430E+02  0.89258122157E+01  0.40695580346E+02  0.00000000000E+00 0.  1.
         21    1    1    2  504  505  0.28061000759E+02  0.40394397096E+02  0.42397477144E+03  0.42681815086E+03  0.00000000000E+00 0. -1.
         21    1    1    2  505  502 -0.10529842232E+03 -0.17517440154E+02 -0.39018669077E+02  0.11365331050E+03  0.00000000000E+00 0.  1.
          4    1    1    2  501    0  0.53253031441E+02 -0.54518846372E+02  0.85316475334E+02  0.11439882399E+03  0.00000000000E+00 0. -1.
<scales pt_clust_3="39.70466" pt_clust_4="49.79568" pt_clust_5="79.55333" pt_clust_6="14000.00000"></scales>
<clustering>
<clus scale="   39.705">  2  3  1 -1</clus>
<clus scale="   49.796">  1  4  2 -1</clus>
<clus scale="   79.553">  2  5  1 -1</clus>
<clus scale="   39.705">  2  3  1 -1</clus>
</clustering>
</event>
<event>
 6    0  0.1230761E+002  0.2139998E+03  0.7546771E-02  0.1138437E+00
          2   -1    0    0  503    0 -0.00000000000E+00  0.00000000000E+00  0.71662278079E+03  0.71662278079E+03  0.00000000000E+00 0.  1.
         21   -1    0    0  501  502  0.00000000000E+00 -0.00000000000E+00 -0.17482314627E+03  0.17482314627E+03  0.00000000000E+00 0. -1.
         21    1    1    2  503  505  0.94460254165E+02 -0.65317702668E+02  0.17470136816E+03  0.20906867278E+03  0.00000000000E+00 0.  1.
         21    1    1    2  504  502 -0.11756886301E+03 -0.16997177583E+03  0.13041607448E+02  0.20708192981E+03  0.00000000000E+00 0. -1.
         21    1    1    2  505  504  0.17339435857E+02 -0.37063126847E+02  0.24376311686E+02  0.47629150516E+02  0.00000000000E+00 0.  1.
          2    1    1    2  501    0  0.57691729890E+01  0.27235260535E+03  0.32968034722E+03  0.42766617395E+03  0.00000000000E+00 0.  1.
<scales pt_clust_3="162.05508" pt_clust_4="14000.00000" pt_clust_5="34.19000" pt_clust_6="213.99985"></scales>
<clustering>
<clus scale="   34.190">  3  5 -1 -1</clus>
<clus scale="  162.055">  1  3  2 -1</clus>
<clus scale="  214.000">  1  6  2 -1</clus>
<clus scale="  214.000">  2  3  1 -1</clus>
</clustering>
</event>
<event>
 6    0  0.1230761E+002  0.8538433E+02  0.7546771E-02  0.1314431E+00
          1   -1    0    0  504    0 -0.00000000000E+00  0.00000000000E+00  0.27861607308E+04  0.27861607308E+04  0.00000000000E+00 0. -1.
         21   -1    0    0  505  502  0.00000000000E+00 -0.00000000000E+00 -0.10039575742E+03  0.10039575742E+03  0.00000000000E+00 0.  1.
         21    1    1    2  503  502  0.16486329903E+02 -0.29594149388E+02  0.36061608140E+02  0.49477796367E+02  0.00000000000E+00 0. -1.
         21    1    1    2  504  503 -0.71948743107E+02  0.31066147210E+02  0.19199877338E+04  0.19215864865E+04  0.00000000000E+00 0. -1.
         21    1    1    2  505  501 -0.75504419629E+02  0.41699248276E+02 -0.65565075023E+02  0.10834446803E+03  0.00000000000E+00 0.  1.
          1    1    1    2  501    0  0.13096683283E+03 -0.43171246097E+02  0.79528070647E+03  0.80714773733E+03  0.00000000000E+00 0. -1.
<scales pt_clust_3="33.87643" pt_clust_4="85.38433" pt_clust_5="61.86222" pt_clust_6="14000.00000"></scales>
<clustering>
<clus scale="   33.876">  2  3  1 -1</clus>
<clus scale="   61.862">  2  5  1 -1</clus>
<clus scale="   85.384">  1  4  2 -1</clus>
<clus scale="   33.876">  2  3  1 -1</clus>
</clustering>
</event>
<event>
 6    0  0.1230761E+002  0.7947285E+02  0.7546771E-02  0.1330554E+00
         21   -1    0    0  505  502  0.00000000000E+00  0.00000000000E+00  0.14220136499E+04  0.14220136499E+04  0.00000000000E+00 0.  1.
         -1   -1    0    0    0  501 -0.00000000000E+00 -0.00000000000E+00 -0.77904810778E+03  0.77904810778E+03  0.00000000000E+00 0.  1.
         21    1    1    2  503  501  0.22154103144E+02 -0.66177463579E+02 -0.11303832367E+03  0.13284548765E+03  0.00000000000E+00 0. -1.
         21    1    1    2  504  502 -0.19535285975E+00 -0.34667997663E+02  0.19708467361E+03  0.20011066137E+03  0.00000000000E+00 0. -1.
         21    1    1    2  505  503 -0.59333760576E+02 -0.18243682070E+02  0.12067574641E+04  0.12083529717E+04  0.00000000000E+00 0.  1.
         -1    1    1    2    0  504  0.37375010292E+02  0.11908914331E+03 -0.64783827190E+03  0.65975263697E+03  0.00000000000E+00 0.  1.
<scales pt_clust_3="70.05293" pt_clust_4="34.66855" pt_clust_5="79.47285" pt_clust_6="14000.00000"></scales>
<clustering>
<clus scale="   34.669">  1  4  2 -1</clus>
<clus scale="   70.053">  2  3  1 -1</clus>
<clus scale="   79.473">  1  5  2 -1</clus>
<clus scale="   34.669">  1  3  2 -1</clus>
</clustering>
</event>
<event>
 6    0  0.1230761E+002  0.1683658E+03  0.7546771E-02  0.1179563E+00
          1   -1    0    0  504    0 -0.00000000000E+00  0.00000000000E+00  0.45693289659E+03  0.45693289659E+03  0.00000000000E+00 0.  1.
         21   -1    0    0  505  502  0.00000000000E+00 -0.00000000000E+00 -0.76630450478E+03  0.76630450478E+03  0.00000000000E+00 0.  1.
         21    1    1    2  503  501  0.10543498567E+03 -0.52954312106E+02 -0.45477719414E+03  0.46983294019E+03  0.00000000000E+00 0.  1.
         21    1    1    2  504  502  0.70032899885E+01 -0.65390962702E+02  0.38456177950E+03  0.39014457106E+03  0.00000000000E+00 0.  1.
         21    1    1    2  505  503  0.55085201081E+02 -0.17190858204E+02 -0.44481979030E+02  0.72859806768E+02  0.00000000000E+00 0.  1.
          1    1    1    2  501    0 -0.16752347674E+03  0.13553613301E+03 -0.19467421452E+03  0.29040008335E+03  0.00000000000E+00 0.  1.
<scales pt_clust_3="14000.00000" pt_clust_4="65.85581" pt_clust_5="57.70533" pt_clust_6="168.36584"></scales>
<clustering>
<clus scale="   57.705">  2  5  1 -1</clus>
<clus scale="   65.856">  1  4  2 -1</clus>
<clus scale="  168.366">  1  6  2 -1</clus>
<clus scale="   57.705">  2  3  1 -1</clus>
</clustering>
</event>
<event>
 6    0  0.1230761E+002  0.1500000E+03  0.7546771E-02  0.1200473E+00
         21   -1    0    0  504  502  0.00000000000E+00  0.00000000000E+00  0.35182334012E+03  0.35182334012E+03  0.00000000000E+00 0. -1.
         -2   -1    0    0    0  501 -0.00000000000E+00 -0.00000000000E+00 -0.95170018676E+03  0.95170018676E+03  0.00000000000E+00 0.  1.
         21    1    1    2  503  505 -0.39788132270E+02  0.90989485518E+01  0.74959717528E+02  0.85351306880E+02  0.00000000000E+00 0. -1.
         21    1    1    2  504  501  0.17802107706E+02  0.29060981338E+02 -0.20590131200E+03  0.20870267358E+03  0.00000000000E+00 0.  1.
         21    1    1    2  505  502 -0.47126526882E+02  0.97511818879E+02  0.25112690260E+03  0.27348525658E+03  0.00000000000E+00 0. -1.
         -2    1    1    2    0  503  0.69112551446E+02 -0.13567174877E+03 -0.72006215476E+03  0.73598428984E+03  0.00000000000E+00 0.  1.
<scales pt_clust_3="36.29626" pt_clust_4="34.08014" pt_clust_5="36.29626" pt_clust_6="137.79989"></scales>
<clustering>
<clus scale="   34.080">  2  4  1 -1</clus>
<clus scale="   36.296">  3  5 -1 -1</clus>
<clus scale="  137.800">  2  6  1 -1</clus>
<clus scale="  150.000">  1  3  2 -1</clus>
</clustering>
</event>
<event>
 6    0  0.1230761E+002  0.7759482E+02  0.7546771E-02  0.1336019E+00
         -2   -1    0    0    0  501 -0.00000000000E+00  0.00000000000E+00  0.43582049497E+03  0.43582049497E+03  0.00000000000E+00 0.  1.
         21   -1    0    0  504  502  0.00000000000E+00 -0.00000000000E+00 -0.83354244940E+02  0.83354244940E+02  0.00000000000E+00 0. -1.
         21    1    1    2  503  505  0.10934175733E+02 -0.58691841809E+02  0.60260251381E+02  0.84826802312E+02  0.00000000000E+00 0. -1.
         21    1    1    2  504  501 -0.17182228173E+02 -0.42587455027E+02 -0.39052372346E+02  0.60282734482E+02  0.00000000000E+00 0. -1.
         21    1    1    2  505  502 -0.45181561843E+02  0.20636891891E+02  0.30091999615E+02  0.58075668557E+02  0.00000000000E+00 0. -1.
         -2    1    1    2    0  503  0.51429614283E+02  0.80642404946E+02  0.30116637139E+03  0.31598953456E+03  0.00000000000E+00 0.  1.
<scales pt_clust_3="77.59482" pt_clust_4="45.92298" pt_clust_5="52.40123" pt_clust_6="14000.00000"></scales>
<clustering>
<clus scale="   45.923">  2  4  1 -1</clus>
<clus scale="   52.401">  2  5  1 -1</clus>
<clus scale="   77.595">  2  3  1 -1</clus>
<clus scale="   45.923">  2  3  1 -1</clus>
</clustering>
</event>
<event>
 6    0  0.1230761E+002  0.2349869E+03  0.7546771E-02  0.1123178E+00
         21   -1    0    0  501  502  0.00000000000E+00  0.00000000000E+00  0.11930615857E+03  0.11930615857E+03  0.00000000000E+00 0. -1.
          2   -1    0    0  504    0 -0.00000000000E+00 -0.00000000000E+00 -0.10743126229E+04  0.10743126229E+04  0.00000000000E+00 0.  1.
         21    1    1    2  503  505  0.90973987868E+02 -0.55029033689E+02 -0.24164652907E+03  0.26400285232E+03  0.00000000000E+00 0. -1.
         21    1    1    2  504  503  0.66312675928E+02  0.16782254153E+01 -0.57970847893E+02  0.88095440488E+02  0.00000000000E+00 0. -1.
         21    1    1    2  505  502  0.99532465548E+02 -0.52412101854E+02  0.17241310220E+02  0.11380247316E+03  0.00000000000E+00 0. -1.
          2    1    1    2  501    0 -0.25681912934E+03  0.10576291013E+03 -0.67263039762E+03  0.72771801555E+03  0.00000000000E+00 0.  1.
<scales pt_clust_3="64.25301" pt_clust_4="64.25301" pt_clust_5="112.48884" pt_clust_6="220.45772"></scales>
<clustering>
<clus scale="   64.253">  3  4 -1 -1</clus>
<clus scale="  112.489">  1  5  2 -1</clus>
<clus scale="  220.458">  1  6  2 -1</clus>
<clus scale="  112.489">  1  3  2 -1</clus>
</clustering>
</event>
<event>
 6    0  0.1230761E+002  0.1114589E+03  0.7546771E-02  0.1257892E+00
         21   -1    0    0  501  502  0.00000000000E+00  0.00000000000E+00  0.37395427528E+02  0.37395427528E+02  0.00000000000E+00 0.  1.
          2   -1    0    0  504    0 -0.00000000000E+00 -0.00000000000E+00 -0.12947140127E+04  0.12947140127E+04  0.00000000000E+00 0. -1.
         21    1    1    2  503  502 -0.17610805013E+02 -0.35811530491E+02 -0.80005734285E+02  0.89406508084E+02  0.00000000000E+00 0. -1.
         21    1    1    2  504  505  0.22430327442E+02 -0.41505531273E+02 -0.56159535993E+03  0.56357357728E+03  0.00000000000E+00 0.  1.
         21    1    1    2  505  503  0.10536179924E+03 -0.14879499779E+02 -0.10854702703E+03  0.15200317539E+03  0.00000000000E+00 0.  1.
          2    1    1    2  501    0 -0.11018132166E+03  0.92196561543E+02 -0.50717046393E+03  0.52712617947E+03  0.00000000000E+00 0. -1.
<scales pt_clust_3="39.90747" pt_clust_4="47.88861" pt_clust_5="111.45891" pt_clust_6="14000.00000"></scales>
<clustering>
<clus scale="   39.907">  1  3  2 -1</clus>
<clus scale="   47.889">  2  4  1 -1</clus>
<clus scale="  111.459">  1  5  2 -1</clus>
<clus scale="   39.907">  1  3  2 -1</clus>
</clustering>
</event>
<event>
 6    0  0.1230761E+002  0.2462630E+03  0.7546771E-02  0.1115690E+00
         21   -1    0    0  501  502  0.00000000000E+00  0.00000000000E+00  0.20043200314E+04  0.20043200314E+04  0.00000000000E+00 0. -1.
          3   -1    0    0  503    0 -0.00000000000E+00 -0.00000000000E+00 -0.10118820806E+03  0.10118820806E+03  0.00000000000E+00 0. -1.
         21    1    1    2  503  504  0.26494435389E+02  0.18383591717E+02 -0.29474704981E+02  0.43688325497E+02  0.00000000000E+00 0.  1.
         21    1    1    2  504  505  0.15273187918E+03 -0.71842077461E+02  0.10606818177E+04  0.10740271083E+04  0.00000000000E+00 0. -1.
         21    1    1    2  505  502  0.34017929444E+02 -0.64150555235E+02  0.66289243173E+03  0.66685747301E+03  0.00000000000E+00 0. -1.
          3    1    1    2  501    0 -0.21324424402E+03  0.11760904098E+03  0.20903227896E+03  0.32093533270E+03  0.00000000000E+00 0. -1.
<scales pt_clust_3="32.24766" pt_clust_4="52.98576" pt_clust_5="52.98576" pt_clust_6="232.47365"></scales>
<clustering>
<clus scale="   32.248">  2  3  1 -1</clus>
<clus scale="   52.986">  4  5 -1 -1</clus>
<clus scale="  232.474">  2  6  1 -1</clus>
<clus scale="  246.263">  1  3  2 -1</clus>
</clustering>
</event>
<event>
 6    0  0.1230761E+002  0.2921185E+03  0.7546771E-02  0.1089248E+00
          1   -1    0    0  503    0 -0.00000000000E+00  0.00000000000E+00  0.17467098533E+04  0.17467098533E+04  0.00000000000E+00 0.  1.
         21   -1    0    0  505  502  0.00000000000E+00 -0.00000000000E+00 -0.13793001615E+03  0.13793001615E+03  0.00000000000E+00 0.  1.
         21    1    1    2  503  502 -0.27909414856E+02 -0.15075661277E+03  0.10147399158E+03  0.18385718017E+03  0.00000000000E+00 0.  1.
         21    1    1    2  504  501 -0.48333328854E+02  0.35037192348E+02  0.66027233850E+02  0.89012982962E+02  0.00000000000E+00 0.  1.
         21    1    1    2  505  504 -0.18773603165E+03  0.58719473653E+00  0.54621139706E+02  0.19552143432E+03  0.00000000000E+00 0.  1.
          1    1    1    2  501    0  0.26397877536E+03  0.11513222569E+03  0.13866574720E+04  0.14162482720E+04  0.00000000000E+00 0.  1.
<scales pt_clust_3="153.31827" pt_clust_4="54.68932" pt_clust_5="54.68932" pt_clust_6="275.54899"></scales>
<clustering>
<clus scale="   54.689">  4  5 -1 -1</clus>
<clus scale="  153.318">  2  3  1 -1</clus>
<clus scale="  275.549">  1  6  2 -1</clus>
<clus scale="  153.318">  2  3  1 -1</clus>
</clustering>
</event>
<event>
 6    0  0.1230761E+002  0.8398670E+02  0.7546771E-02  0.1318104E+00
         21   -1    0    0  504  502  0.00000000000E+00  0.00000000000E+00  0.14999650221E+04  0.14999650221E+04  0.00000000000E+00 0.  1.
          1   -1    0    0  503    0 -0.00000000000E+00 -0.00000000000E+00 -0.11013795697E+03  0.11013795697E+03  0.00000000000E+00 0.  1.
         21    1    1    2  503  502  0.91788923387E+02  0.27072509342E+01  0.17021230028E+03  0.19340310967E+03  0.00000000000E+00 0.  1.
         21    1    1    2  504  505 -0.18667839840E+02  0.81420146499E+02  0.12724586675E+04  0.12751975490E+04  0.00000000000E+00 0.  1.
         21    1    1    2  505  501 -0.42287508184E+02 -0.51302950621E+02  0.67267768478E+01  0.66824214306E+02  0.00000000000E+00 0.  1.
          1    1    1    2  501    0 -0.30833575363E+02 -0.32824446811E+02 -0.59570679477E+02  0.74678106106E+02  0.00000000000E+00 0.  1.
<scales pt_clust_3="14000.00000" pt_clust_4="82.74213" pt_clust_5="83.98670" pt_clust_6="45.03503"></scales>
<clustering>
<clus scale="   45.035">  2  6  1 -1</clus>
<clus scale="   82.742">  1  4  2 -1</clus>
<clus scale="   83.987">  2  5  1 -1</clus>
<clus scale="   82.742">  1  3  2 -1</clus>
</clustering>
</event>
<event>
 6    0  0.1230761E+002  0.1258326E+03  0.7546771E-02  0.1233774E+00
         21   -1    0    0  503  502  0.00000000000E+00  0.00000000000E+00  0.68807145007E+01  0.68807145007E+01  0.00000000000E+00 0. -1.
          1   -1    0    0  504    0 -0.00000000000E+00 -0.00000000000E+00 -0.30640816300E+04  0.30640816300E+04  0.00000000000E+00 0.  1.
         21    1    1    2  503  505 -0.52641407441E+02 -0.28983691200E+02 -0.38869092935E+03  0.39330879814E+03  0.00000000000E+00 0. -1.
         21    1    1    2  504  502  0.11856971136E+02 -0.39999888397E+02 -0.49119704188E+03  0.49296563043E+03  0.00000000000E+00 0. -1.
         21    1    1    2  505  501 -0.59186367565E+02  0.23934210675E+01 -0.72744852813E+03  0.72985622943E+03  0.00000000000E+00 0. -1.
          1    1    1    2  501    0  0.99970803870E+02  0.66590158529E+02 -0.14498644161E+04  0.14548316865E+04  0.00000000000E+00 0.  1.
<scales pt_clust_3="48.03020" pt_clust_4="41.72024" pt_clust_5="48.03020" pt_clust_6="115.38608"></scales>
<clustering>
<clus scale="   41.720">  2  4  1 -1</clus>
<clus scale="   48.030">  3  5 -1 -1</clus>
<clus scale="  115.386">  2  6  1 -1</clus>
<clus scale="  125.833">  1  3  2 -1</clus>
</clustering>
</event>
<event>
 6    0  0.1230761E+002  0.1436618E+03  0.7546771E-02  0.1208485E+00
          2   -1    0    0  504    0 -0.00000000000E+00  0.00000000000E+00  0.70934996210E+03  0.70934996210E+03  0.00000000000E+00 0. -1.
         21   -1    0    0  503  502  0.00000000000E+00 -0.00000000000E+00 -0.45310987450E+03  0.45310987450E+03  0.00000000000E+00 0. -1.
         21    1    1    2  503  501 -0.39428766563E+01 -0.64675284658E+02 -0.91672589136E+01  0.65440639957E+02  0.00000000000E+00 0. -1.
         21    1    1    2  504  505  0.20131994115E+03  0.52528019337E+02  0.37461409525E+03  0.42851444769E+03  0.00000000000E+00 0. -1.
         21    1    1    2  505  502 -0.11184897785E+03 -0.16636026564E+02 -0.37296796839E+03  0.38973331481E+03  0.00000000000E+00 0. -1.
          2    1    1    2  501    0 -0.85528086642E+02  0.28783291886E+02  0.26376121966E+03  0.27877143414E+03  0.00000000000E+00 0. -1.
<scales pt_clust_3="64.79536" pt_clust_4="14000.00000" pt_clust_5="143.66178" pt_clust_6="89.94372"></scales>
<clustering>
<clus scale="   64.795">  2  3  1 -1</clus>
<clus scale="   89.944">  1  6  2 -1</clus>
<clus scale="  143.662">  2  5  1 -1</clus>
<clus scale="   64.795">  2  3  1 -1</clus>
</clustering>
</event>
<event>
 6    0  0.1230761E+002  0.8117845E+02  0.7546771E-02  0.1325740E+00
         21   -1    0    0  503  502  0.00000000000E+00  0.00000000000E+00  0.10412762498E+03  0.10412762498E+03  0.00000000000E+00 0.  1.
          2   -1    0    0  504    0 -0.00000000000E+00 -0.00000000000E+00 -0.73300445342E+03  0.73300445342E+03  0.00000000000E+00 0. -1.
         21    1    1    2  503  501  0.19826250601E+02  0.62417912929E+02  0.41372737794E+02  0.77464698411E+02  0.00000000000E+00 0.  1.
         21    1    1    2  504  505 -0.87296514582E+02 -0.78382164838E+01 -0.14911236794E+03  0.17296420835E+03  0.00000000000E+00 0.  1.
         21    1    1    2  505  502  0.52165267702E+02 -0.19470066970E+01  0.96561656556E+01  0.53087169115E+02  0.00000000000E+00 0.  1.
          2    1    1    2  501    0  0.15304996279E+02 -0.52632689748E+02 -0.53079336395E+03  0.53361600253E+03  0.00000000000E+00 0. -1.
<scales pt_clust_3="14000.00000" pt_clust_4="81.17845" pt_clust_5="52.20159" pt_clust_6="55.13999"></scales>
<clustering>
<clus scale="   52.202">  1  5  2 -1</clus>
<clus scale="   55.140">  2  6  1 -1</clus>
<clus scale="   81.178">  2  4  1 -1</clus>
<clus scale="   52.202">  1  3  2 -1</clus>
</clustering>
</event>
<event>
 6    0  0.1230761E+002  0.1310792E+03  0.7546771E-02  0.1225863E+00
         -2   -1    0    0    0  501 -0.00000000000E+00  0.00000000000E+00  0.18258661044E+04  0.18258661044E+04  0.00000000000E+00 0. -1.
         21   -1    0    0  505  502  0.00000000000E+00 -0.00000000000E+00 -0.10099079871E+03  0.10099079871E+03  0.00000000000E+00 0.  1.
         21    1    1    2  503  504  0.18808614292E+01 -0.48156932707E+02  0.46149910334E+03  0.46400867469E+03  0.00000000000E+00 0. -1.
         21    1    1    2  504  502 -0.27379387393E+02 -0.69425596413E+02  0.12092602450E+03  0.14210083635E+03  0.00000000000E+00 0. -1.
         21    1    1    2  505  501  0.58057815477E+02  0.15273770030E+03 -0.13359328072E+02  0.16394507213E+03  0.00000000000E+00 0.  1.
         -2    1    1    2    0  503 -0.32559289513E+02 -0.35155171176E+02  0.11558095059E+04  0.11568023199E+04  0.00000000000E+00 0. -1.
<scales pt_clust_3="75.33133" pt_clust_4="14000.00000" pt_clust_5="131.07915" pt_clust_6="47.91653"></scales>
<clustering>
<clus scale="   47.917">  1  6  2 -1</clus>
<clus scale="   75.331">  1  3  2 -1</clus>
<clus scale="  131.079">  2  5  1 -1</clus>
<clus scale="  131.079">  2  3  1 -1</clus>
</clustering>
</event>
<event>
 6    0  0.1230761E+002  0.1177903E+03  0.7546771E-02  0.1246787E+00
         21   -1    0    0  504  502  0.00000000000E+00  0.00000000000E+00  0.65966409672E+02  0.65966409672E+02  0.00000000000E+00 0. -1.
          2   -1    0    0  503    0 -0.00000000000E+00 -0.00000000000E+00 -0.10149834578E+04  0.10149834578E+04  0.00000000000E+00 0.  1.
         21    1    1    2  503  505  0.44051975351E+02  0.24056336601E+02 -0.10226576238E+02  0.51223693000E+02  0.00000000000E+00 0. -1.
         21    1    1    2  504  501  0.79088526076E+02  0.99934504603E+01 -0.14931523222E+03  0.16926282103E+03  0.00000000000E+00 0.  1.
         21    1    1    2  505  502  0.15828336298E+01  0.43424757688E+02  0.12454300800E+02  0.45203147578E+02  0.00000000000E+00 0. -1.
          2    1    1    2  501    0 -0.12472333506E+03 -0.77474544750E+02 -0.80192954049E+03  0.81526020588E+03  0.00000000000E+00 0.  1.
<scales pt_clust_3="65.76264" pt_clust_4="14000.00000" pt_clust_5="43.45360" pt_clust_6="117.79033"></scales>
<clustering>
<clus scale="   43.454">  1  5  2 -1</clus>
<clus scale="   65.763">  1  3  2 -1</clus>
<clus scale="  117.790">  2  6  1 -1</clus>
<clus scale="   43.454">  1  3  2 -1</clus>
</clustering>
</event>
<event>
 6    0  0.1230761E+002  0.1534127E+03  0.7546771E-02  0.1196341E+00
         21   -1    0    0  504  502  0.00000000000E+00  0.00000000000E+00  0.33061983345E+03  0.33061983345E+03  0.00000000000E+00 0. -1.
          1   -1    0    0  505    0 -0.00000000000E+00 -0.00000000000E+00 -0.75910673575E+03  0.75910673575E+03  0.00000000000E+00 0.  1.
         21    1    1    2  503  502  0.50430519335E+02 -0.86201912619E+02  0.19213975818E+03  0.21654489994E+03  0.00000000000E+00 0. -1.
         21    1    1    2  504  501 -0.37658348282E+02 -0.70046155256E+02  0.48168187006E+02  0.92977359077E+02  0.00000000000E+00 0. -1.
         21    1    1    2  505  503  0.52114428119E+02 -0.41803433593E+02 -0.51964607743E+03  0.52392316848E+03  0.00000000000E+00 0. -1.
          1    1    1    2  501    0 -0.64886599172E+02  0.19805150147E+03 -0.14914877005E+03  0.25628114170E+03  0.00000000000E+00 0.  1.
<scales pt_clust_3="153.41275" pt_clust_4="80.91178" pt_clust_5="66.80899" pt_clust_6="14000.00000"></scales>
<clustering>
<clus scale="   66.809">  2  5  1 -1</clus>
<clus scale="   80.912">  1  4  2 -1</clus>
<clus scale="  153.413">  1  3  2 -1</clus>
<clus scale="   80.912">  1  3  2 -1</clus>
</clustering>
</event>
<event>
 6    0  0.1230761E+002  0.3178887E+03  0.7546771E-02  0.1076625E+00
          2   -1    0    0  504    0 -0.00000000000E+00  0.00000000000E+00  0.22158741954E+04  0.22158741954E+04  0.00000000000E+00 0. -1.
         21   -1    0    0  501  502  0.00000000000E+00 -0.00000000000E+00 -0.48647642904E+03  0.48647642904E+03  0.00000000000E+00 0. -1.
         21    1    1    2  503  502 -0.10795443416E+03  0.30299979512E+03 -0.39845561800E+03  0.51208389471E+03  0.00000000000E+00 0. -1.
         21    1    1    2  504  505  0.45846692694E+02  0.20152309084E+02  0.89174629571E+03  0.89315143773E+03  0.00000000000E+00 0.  1.
         21    1    1    2  505  503 -0.90245376890E+01 -0.91774467195E+02  0.10218533680E+03  0.13764388169E+03  0.00000000000E+00 0. -1.
          2    1    1    2  501    0  0.71132279157E+02 -0.23137763701E+03  0.11339217518E+04  0.11594714103E+04  0.00000000000E+00 0. -1.
<scales pt_clust_3="317.88875" pt_clust_4="50.08028" pt_clust_5="90.08024" pt_clust_6="14000.00000"></scales>
<clustering>
<clus scale="   50.080">  1  4  2 -1</clus>
<clus scale="   90.080">  1  5  2 -1</clus>
<clus scale="  317.889">  2  3  1 -1</clus>
<clus scale="  317.889">  2  3  1 -1</clus>
</clustering>
</event>
<event>
 6    0  0.1230761E+002  0.1127605E+03  0.7546771E-02  0.1255542E+00
         21   -1    0    0  504  502  0.00000000000E+00  0.00000000000E+00  0.62794323339E+02  0.62794323339E+02  0.00000000000E+00 0.  1.
          1   -1    0    0  505    0 -0.00000000000E+00 -0.00000000000E+00 -0.89630386693E+03  0.89630386693E+03  0.00000000000E+00 0. -1.
         21    1    1    2  503  502 -0.26840213686E+02 -0.88173644799E+02 -0.11759015861E+03  0.14940694131E+03  0.00000000000E+00 0.  1.
         21    1    1    2  504  501  0.19002562409E+02  0.12650431004E+03 -0.52350379179E+02  0.13822083792E+03  0.00000000000E+00 0.  1.
         21    1    1    2  505  503  0.30480526722E+02  0.20653925762E+02 -0.32286672970E+03  0.32495933946E+03  0.00000000000E+00 0.  1.
          1    1    1    2  501    0 -0.22642875445E+02 -0.58984591000E+02 -0.34070227610E+03  0.34651107158E+03  0.00000000000E+00 0. -1.
<scales pt_clust_3="112.76047" pt_clust_4="14000.00000" pt_clust_5="36.81911" pt_clust_6="46.78825"></scales>
<clustering>
<clus scale="   36.819">  2  5  1 -1</clus>
<clus scale="   46.788">  2  6  1 -1</clus>
<clus scale="  112.760">  2  3  1 -1</clus>
<clus scale="  112.760">  1  3  2 -1</clus>
</clustering>
</event>
<event>
 6    0  0.1230761E+002  0.1145187E+03  0.7546771E-02  0.1252424E+00
         21   -1    0    0  503  502  0.00000000000E+00  0.00000000000E+00  0.23106737298E+03  0.23106737298E+03  0.00000000000E+00 0. -1.
          2   -1    0    0  505    0 -0.00000000000E+00 -0.00000000000E+00 -0.45225863345E+03  0.45225863345E+03  0.00000000000E+00 0.  1.
         21    1    1    2  503  501  0.34375164544E+02 -0.11705524326E+02  0.50246108159E+01  0.36659486508E+02  0.00000000000E+00 0.  1.
         21    1    1    2  504  502  0.24339765534E+02  0.53614969207E+02  0.27724588199E+02  0.65081809288E+02  0.00000000000E+00 0. -1.
         21    1    1    2  505  504  0.31478215722E+02  0.34517241964E+02  0.15187664636E+03  0.15889881613E+03  0.00000000000E+00 0. -1.
          2    1    1    2  501    0 -0.90193145801E+02 -0.76426686845E+02 -0.40581710584E+03  0.42268589450E+03  0.00000000000E+00 0.  1.
<scales pt_clust_3="36.31351" pt_clust_4="60.19588" pt_clust_5="14000.00000" pt_clust_6="114.51867"></scales>
<clustering>
<clus scale="   36.314">  1  3  2 -1</clus>
<clus scale="   60.196">  1  4  2 -1</clus>
<clus scale="  114.519">  2  6  1 -1</clus>
<clus scale="   36.314">  1  3  2 -1</clus>
</clustering>
</event>
<event>
 6    0  0.1230761E+002  0.2221389E+03  0.7546771E-02  0.1132298E+00
          1   -1    0    0  503    0 -0.00000000000E+00  0.00000000000E+00  0.67408929109E+03  0.67408929109E+03  0.00000000000E+00 0.  1.
         21   -1    0    0  501  502  0.00000000000E+00 -0.00000000000E+00 -0.27274251058E+03  0.27274251058E+03  0.00000000000E+00 0. -1.
         21    1    1    2  503  504  0.21792142217E+02  0.40104383521E+02  0.24395614622E+03  0.24818916237E+03  0.00000000000E+00 0. -1.
         21    1    1    2  504  505 -0.39200040110E+02  0.16256924424E+03 -0.29271731849E+02  0.16977113006E+03  0.00000000000E+00 0. -1.
         21    1    1    2  505  502 -0.20004195646E+02  0.66221305225E+02 -0.10797093720E+03  0.12823085583E+03  0.00000000000E+00 0. -1.
          1    1    1    2  501    0  0.37412093539E+02 -0.26889493298E+03  0.29463330334E+03  0.40064065341E+03  0.00000000000E+00 0.  1.
<scales pt_clust_3="45.64273" pt_clust_4="222.13891" pt_clust_5="69.94048" pt_clust_6="14000.00000"></scales>
<clustering>
<clus scale="   45.643">  1  3  2 -1</clus>
<clus scale="   69.940">  2  5  1 -1</clus>
<clus scale="  222.139">  2  4  1 -1</clus>
<clus scale="   69.940">  2  3  1 -1</clus>
</clustering>
</event>
<event>
 6    0  0.1230761E+002  0.1320528E+03  0.7546771E-02  0.1224441E+00
         21   -1    0    0  505  502  0.00000000000E+00  0.00000000000E+00  0.11812838541E+04  0.11812838541E+04  0.00000000000E+00 0. -1.
         -2   -1    0    0    0  501 -0.00000000000E+00 -0.00000000000E+00 -0.90401226452E+02  0.90401226452E+02  0.00000000000E+00 0.  1.
         21    1    1    2  503  502 -0.55024686072E+02  0.38365723906E+02  0.78384386589E+03  0.78670887306E+03  0.00000000000E+00 0. -1.
         21    1    1    2  504  503 -0.48876775560E+02  0.25465499617E+02  0.29742921649E+03  0.30249226384E+03  0.00000000000E+00 0. -1.
         21    1    1    2  505  501 -0.31311678647E+02 -0.21835444325E+02 -0.10218851737E+02  0.39517499660E+02  0.00000000000E+00 0. -1.
         -2    1    1    2    0  504  0.13521314028E+03 -0.41995779198E+02  0.19828396974E+02  0.14296644397E+03  0.00000000000E+00 0.  1.
<scales pt_clust_3="44.00619" pt_clust_4="44.00619" pt_clust_5="38.17339" pt_clust_6="122.88301"></scales>
<clustering>
<clus scale="   38.173">  2  5  1 -1</clus>
<clus scale="   44.006">  3  4 -1 -1</clus>
<clus scale="  122.883">  2  6  1 -1</clus>
<clus scale="  132.053">  1  3  2 -1</clus>
</clustering>
</event>
<event>
 6    0  0.1230761E+002  0.1236702E+03  0.7546771E-02  0.1237162E+00
         21   -1    0    0  503  502  0.00000000000E+00  0.00000000000E+00  0.54291217807E+03  0.54291217807E+03  0.00000000000E+00 0. -1.
          2   -1    0    0  505    0 -0.00000000000E+00 -0.00000000000E+00 -0.67468678615E+03  0.67468678615E+03  0.00000000000E+00 0. -1.
         21    1    1    2  503  501  0.83310167067E+02 -0.19767240343E+02  0.24428942045E+03  0.25886028794E+03  0.00000000000E+00 0. -1.
         21    1    1    2  504  502  0.11679922025E+02 -0.61569035508E+02  0.26702109752E+03  0.27427619880E+03  0.00000000000E+00 0. -1.
         21    1    1    2  505  504  0.45154255636E+02 -0.62806453930E+01 -0.30223375015E+03  0.30565273275E+03  0.00000000000E+00 0. -1.
          2    1    1    2  501    0 -0.14014434473E+03  0.87616921244E+02 -0.34085137590E+03  0.37880974473E+03  0.00000000000E+00 0. -1.
<scales pt_clust_3="14000.00000" pt_clust_4="62.81125" pt_clust_5="45.58896" pt_clust_6="123.67017"></scales>
<clustering>
<clus scale="   45.589">  2  5  1 -1</clus>
<clus scale="   62.811">  1  4  2 -1</clus>
<clus scale="  123.670">  2  6  1 -1</clus>
<clus scale="   62.811">  1  3  2 -1</clus>
</clustering>
</event>
<event>
 6    0  0.1230761E+002  0.1266200E+03  0.7546771E-02  0.1232559E+00
          1   -1    0    0  505    0 -0.00000000000E+00  0.00000000000E+00  0.31290505467E+03  0.31290505467E+03  0.00000000000E+00 0.  1.
         21   -1    0    0  501  502  0.00000000000E+00 -0.00000000000E+00 -0.34922454091E+03  0.34922454091E+03  0.00000000000E+00 0. -1.
         21    1    1    2  503  502  0.45263605353E+02 -0.37494972861E+02 -0.17608116157E+03  0.18563200807E+03  0.00000000000E+00 0. -1.
         21    1    1    2  504  503  0.99376121335E+01 -0.67527810591E+02 -0.14534948512E+03  0.16057781342E+03  0.00000000000E+00 0.  1.
         21    1    1    2  505  504  0.74830173363E+01  0.39440045369E+02  0.13179423068E+03  0.13777239189E+03  0.00000000000E+00 0.  1.
          1    1    1    2  501    0 -0.62684234823E+02  0.65582738083E+02  0.15331692977E+03  0.17814738220E+03  0.00000000000E+00 0.  1.
<scales pt_clust_3="46.44047" pt_clust_4="46.44047" pt_clust_5="40.14365" pt_clust_6="116.47316"></scales>
<clustering>
<clus scale="   40.144">  1  5  2 -1</clus>
<clus scale="   46.440">  3  4 -1 -1</clus>
<clus scale="  116.473">  1  6  2 -1</clus>
<clus scale="  126.620">  2  3  1 -1</clus>
</clustering>
</event>
<event>
 6    0  0.1230761E+002  0.1102504E+03  0.7546771E-02  0.1260107E+00
         21   -1    0    0  501  502  0.00000000000E+00  0.00000000000E+00  0.12821595111E+04  0.12821595111E+04  0.00000000000E+00 0.  1.
          2   -1    0    0  504    0 -0.00000000000E+00 -0.00000000000E+00 -0.20632635330E+03  0.20632635330E+03  0.00000000000E+00 0.  1.
         21    1    1    2  503  502 -0.49493354492E+02  0.41093380317E+01  0.10394956483E+04  0.10406813545E+04  0.00000000000E+00 0.  1.
         21    1    1    2  504  505 -0.28381714270E+02  0.10002406858E+02 -0.93364360320E+02  0.98094207911E+02  0.00000000000E+00 0.  1.
         21    1    1    2  505  503 -0.66323638469E+02  0.75100815054E+01  0.18274341822E+03  0.19455174954E+03  0.00000000000E+00 0. -1.
          2    1    1    2  501    0  0.14419870723E+03 -0.21621826395E+02 -0.53041548392E+02  0.15515855245E+03  0.00000000000E+00 0.  1.
<scales pt_clust_3="49.81973" pt_clust_4="30.09269" pt_clust_5="110.25036" pt_clust_6="14000.00000"></scales>
<clustering>
<clus scale="   30.093">  2  4  1 -1</clus>
<clus scale="   49.820">  1  3  2 -1</clus>
<clus scale="  110.250">  1  5  2 -1</clus>
<clus scale="   49.820">  1  3  2 -1</clus>
</clustering>
</event>
<event>
 6    0  0.1230761E+002  0.9282813E+02  0.7546771E-02  0.1296144E+00
         21   -1    0    0  504  502  0.00000000000E+00  0.00000000000E+00  0.22781389214E+03  0.22781389214E+03  0.00000000000E+00 0.  1.
          2   -1    0    0  503    0 -0.00000000000E+00 -0.00000000000E+00 -0.70760372023E+03  0.70760372023E+03  0.00000000000E+00 0. -1.
         21    1    1    2  503  505 -0.54275184345E+02  0.13505757347E+02 -0.64625063821E+02  0.85466952625E+02  0.00000000000E+00 0.  1.
         21    1    1    2  504  501 -0.19823364642E+02  0.61395313344E+02  0.58082845413E+02  0.86809948840E+02  0.00000000000E+00 0.  1.
         21    1    1    2  505  502  0.43517587966E+02  0.14239925105E+02  0.13762470594E+03  0.14504177197E+03  0.00000000000E+00 0.  1.
          2    1    1    2  501    0  0.30580961021E+02 -0.89140995795E+02 -0.61087231563E+03  0.61809893894E+03  0.00000000000E+00 0. -1.
<scales pt_clust_3="51.33973" pt_clust_4="92.82813" pt_clust_5="45.78816" pt_clust_6="14000.00000"></scales>
<clustering>
<clus scale="   45.788">  1  5  2 -1</clus>
<clus scale="   51.340">  1  3  2 -1</clus>
<clus scale="   92.828">  1  4  2 -1</clus>
<clus scale="   45.788">  1  3  2 -1</clus>
</clustering>
</event>
<event>
 6    0  0.1230761E+002  0.9159743E+02  0.7546771E-02  0.1299029E+00
          2   -1    0    0  505    0 -0.00000000000E+00  0.00000000000E+00  0.55807781054E+03  0.55807781054E+03  0.00000000000E+00 0. -1.
         21   -1    0    0  503  502  0.00000000000E+00 -0.00000000000E+00 -0.28085712589E+03  0.28085712589E+03  0.00000000000E+00 0. -1.
         21    1    1    2  503  501 -0.12325860834E+02 -0.90275549994E+02 -0.25236620530E+03  0.26831008805E+03  0.00000000000E+00 0. -1.
         21    1    1    2  504  502  0.39058846106E+02  0.17856002703E+01  0.15241659549E+03  0.15735183636E+03  0.00000000000E+00 0.  1.
         21    1    1    2  505  504 -0.11018868864E+02 -0.28547159985E+02  0.18718895786E+02  0.35871337774E+02  0.00000000000E+00 0. -1.
          2    1    1    2  501    0 -0.15714116407E+02  0.11703710971E+03  0.35845139868E+03  0.37740167424E+03  0.00000000000E+00 0. -1.
<scales pt_clust_3="14000.00000" pt_clust_4="36.43608" pt_clust_5="30.59993" pt_clust_6="91.59743"></scales>
<clustering>
<clus scale="   30.600">  1  5  2 -1</clus>
<clus scale="   36.436">  1  4  2 -1</clus>
<clus scale="   91.597">  1  6  2 -1</clus>
<clus scale="   91.597">  2  3  1 -1</clus>
</clustering>
</event>
<event>
 6    0  0.1230761E+002  0.1165854E+03  0.7546771E-02  0.1248839E+00
         21   -1    0    0  501  502  0.00000000000E+00  0.00000000000E+00  0.62527874987E+03  0.62527874987E+03  0.00000000000E+00 0. -1.
          2   -1    0    0  505    0 -0.00000000000E+00 -0.00000000000E+00 -0.10939040814E+03  0.10939040814E+03  0.00000000000E+00 0. -1.
         21    1    1    2  503  502 -0.12030399771E+02  0.32784448504E+02  0.20731638279E+03  0.21023708796E+03  0.00000000000E+00 0. -1.
         21    1    1    2  504  503 -0.73594566030E+02  0.29579700755E+02  0.34380308244E+03  0.35283378288E+03  0.00000000000E+00 0. -1.
         21    1    1    2  505  504 -0.69004645455E-01  0.34613654122E+02  0.72978849650E+01  0.35374693472E+02  0.00000000000E+00 0. -1.
          2    1    1    2  501    0  0.85693970446E+02 -0.96977803381E+02 -0.42529008458E+02  0.13622359370E+03  0.00000000000E+00 0. -1.
<scales pt_clust_3="30.37265" pt_clust_4="30.37265" pt_clust_5="34.61372" pt_clust_6="107.22375"></scales>
<clustering>
<clus scale="   30.373">  3  4 -1 -1</clus>
<clus scale="   34.614">  2  5  1 -1</clus>
<clus scale="  107.224">  2  6  1 -1</clus>
<clus scale="  116.585">  1  3  2 -1</clus>
</clustering>
</event>
<event>
 6    0  0.1230761E+002  0.1617902E+03  0.7546771E-02  0.1186690E+00
          2   -1    0    0  503    0 -0.00000000000E+00  0.00000000000E+00  0.15000724122E+04  0.15000724122E+04  0.00000000000E+00 0. -1.
         21   -1    0    0  504  502  0.00000000000E+00 -0.00000000000E+00 -0.38039609434E+03  0.38039609434E+03  0.00000000000E+00 0. -1.
         21    1    1    2  503  502  0.51609876888E+02  0.87583000554E+02  0.22639644420E+03  0.24817274493E+03  0.00000000000E+00 0.  1.
         21    1    1    2  504  505 -0.47400174155E+01 -0.76539592486E+02 -0.21653756842E+03  0.22971568409E+03  0.00000000000E+00 0. -1.
         21    1    1    2  505  501  0.58354884057E+02 -0.85947795974E+02 -0.12414428549E+03  0.16187686600E+03  0.00000000000E+00 0. -1.
          2    1    1    2  501    0 -0.10522474353E+03  0.74904387906E+02  0.12339617276E+04  0.12407032116E+04  0.00000000000E+00 0. -1.
<scales pt_clust_3="96.95601" pt_clust_4="76.68622" pt_clust_5="161.79024" pt_clust_6="14000.00000"></scales>
<clustering>
<clus scale="   76.686">  2  4  1 -1</clus>
<clus scale="   96.956">  1  3  2 -1</clus>
<clus scale="  161.790">  2  5  1 -1</clus>
<clus scale="   76.686">  2  3  1 -1</clus>
</clustering>
</event>
<event>
 6    0  0.1230761E+002  0.1351293E+03  0.7546771E-02  0.1220037E+00
          2   -1    0    0  504    0 -0.00000000000E+00  0.00000000000E+00  0.19945880032E+04  0.19945880032E+04  0.00000000000E+00 0. -1.
         21   -1    0    0  505  502  0.00000000000E+00 -0.00000000000E+00 -0.17780259248E+03  0.17780259248E+03  0.00000000000E+00 0.  1.
         21    1    1    2  503  502 -0.53770456800E+02  0.98541327612E+02 -0.14640415686E+03  0.18448802784E+03  0.00000000000E+00 0.  1.
         21    1    1    2  504  503  0.45137386945E+02 -0.41747537941E+02  0.25679809828E+03  0.26405587270E+03  0.00000000000E+00 0.  1.
         21    1    1    2  505  501 -0.32403414352E+02  0.93897630832E+01  0.28540271547E+02  0.44189320117E+02  0.00000000000E+00 0.  1.
          2    1    1    2  501    0  0.41036484208E+02 -0.66183552754E+02  0.16778511978E+04  0.16796573750E+04  0.00000000000E+00 0. -1.
<scales pt_clust_3="14000.00000" pt_clust_4="60.84054" pt_clust_5="33.73646" pt_clust_6="135.12935"></scales>
<clustering>
<clus scale="   33.736">  2  5  1 -1</clus>
<clus scale="   60.841">  1  4  2 -1</clus>
<clus scale="  135.129">  1  6  2 -1</clus>
<clus scale="   33.736">  2  3  1 -1</clus>
</clustering>
</event>
<event>
 6    0  0.1230761E+002  0.1303425E+03  0.7546771E-02  0.1226948E+00
          1   -1    0    0  505    0 -0.00000000000E+00  0.00000000000E+00  0.79731031730E+02  0.79731031730E+02  0.00000000000E+00 0.  1.
         21   -1    0    0  501  502  0.00000000000E+00 -0.00000000000E+00 -0.61999489311E+03  0.61999489311E+03  0.00000000000E+00 0.  1.
         21    1    1    2  503  502 -0.78297373911E+02 -0.12980675144E+02 -0.26103604052E+03  0.27283473228E+03  0.00000000000E+00 0.  1.
         21    1    1    2  504  503 -0.47600829794E+02  0.21478708360E+02 -0.15741983704E+03  0.16585589830E+03  0.00000000000E+00 0.  1.
         21    1    1    2  505  504  0.47462491818E+01 -0.56587075503E+02  0.27282037653E+02  0.62999472805E+02  0.00000000000E+00 0.  1.
          1    1    1    2  501    0  0.12115195452E+03  0.48089042287E+02 -0.14909002147E+03  0.19803582145E+03  0.00000000000E+00 0.  1.
<scales pt_clust_3="30.58408" pt_clust_4="30.58408" pt_clust_5="56.78577" pt_clust_6="124.77013"></scales>
<clustering>
<clus scale="   30.584">  3  4 -1 -1</clus>
<clus scale="   56.786">  1  5  2 -1</clus>
<clus scale="  124.770">  1  6  2 -1</clus>
<clus scale="  130.342">  2  3  1 -1</clus>
</clustering>
</event>
<event>
 6    0  0.1230761E+002  0.7978725E+02  0.7546771E-02  0.1329656E+00
         21   -1    0    0  503  502  0.00000000000E+00  0.00000000000E+00  0.84851244365E+02  0.84851244365E+02  0.00000000000E+00 0. -1.
          1   -1    0    0  505    0 -0.00000000000E+00 -0.00000000000E+00 -0.36129026082E+04  0.36129026082E+04  0.00000000000E+00 0.  1.
         21    1    1    2  503  501 -0.39092667137E+02 -0.14426706641E+02  0.57608817320E+02  0.71099524059E+02  0.00000000000E+00 0. -1.
         21    1    1    2  504  502 -0.39416443870E+02 -0.32060135542E+01 -0.38383687074E+01  0.39732450775E+02  0.00000000000E+00 0. -1.
         21    1    1    2  505  504 -0.45255873526E+02  0.44305425534E+02 -0.13969502752E+04  0.13983851888E+04  0.00000000000E+00 0.  1.
          1    1    1    2  501    0  0.12376498453E+03 -0.26672705339E+02 -0.21848715372E+04  0.21885366889E+04  0.00000000000E+00 0.  1.
<scales pt_clust_3="14000.00000" pt_clust_4="39.54661" pt_clust_5="63.61176" pt_clust_6="79.78725"></scales>
<clustering>
<clus scale="   39.547">  1  4  2 -1</clus>
<clus scale="   63.612">  2  5  1 -1</clus>
<clus scale="   79.787">  2  6  1 -1</clus>
<clus scale="   39.547">  1  3  2 -1</clus>
</clustering>
</event>
<event>
 6    0  0.1230761E+002  0.8846558E+02  0.7546771E-02  0.1306611E+00
         21   -1    0    0  501  502  0.00000000000E+00  0.00000000000E+00  0.19370616128E+03  0.19370616128E+03  0.00000000000E+00 0. -1.
          2   -1    0    0  505    0 -0.00000000000E+00 -0.00000000000E+00 -0.20195131152E+04  0.20195131152E+04  0.00000000000E+00 0.  1.
         21    1    1    2  503  504  0.80497339014E+02 -0.23671402561E+02  0.13921970524E+03  0.16254932548E+03  0.00000000000E+00 0. -1.
         21    1    1    2  504  502 -0.29961724619E+02 -0.49730211424E+02  0.20229992684E+02  0.61482123210E+02  0.00000000000E+00 0. -1.
         21    1    1    2  505  503 -0.30515842032E+02 -0.91891486339E+01 -0.91801788666E+03  0.91857089944E+03  0.00000000000E+00 0. -1.
          2    1    1    2  501    0 -0.20019772364E+02  0.82590762619E+02 -0.10672387652E+04  0.10706169284E+04  0.00000000000E+00 0.  1.
<scales pt_clust_3="88.46558" pt_clust_4="58.50234" pt_clust_5="31.86938" pt_clust_6="14000.00000"></scales>
<clustering>
<clus scale="   31.869">  2  5  1 -1</clus>
<clus scale="   58.502">  1  4  2 -1</clus>
<clus scale="   88.466">  1  3  2 -1</clus>
<clus scale="   58.502">  1  3  2 -1</clus>
</clustering>
</event>
<event>
 6    0  0.1230761E+002  0.1607251E+03  0.7546771E-02  0.1187881E+00
          2   -1    0    0  503    0 -0.00000000000E+00  0.00000000000E+00  0.99048054273E+03  0.99048054273E+03  0.00000000000E+00 0. -1.
         21   -1    0    0  504  502  0.00000000000E+00 -0.00000000000E+00 -0.13338319223E+03  0.13338319223E+03  0.00000000000E+00 0. -1.
         21    1    1    2  503  502  0.17251851776E+03 -0.18413669743E+02  0.22236632954E+03  0.28204341282E+03  0.00000000000E+00 0. -1.
         21    1    1    2  504  505 -0.15535952032E+03  0.25829901845E+02 -0.30380993283E+02  0.16039566433E+03  0.00000000000E+00 0. -1.
         21    1    1    2  505  501 -0.70769425666E+02 -0.15367770403E+02  0.19174081521E+03  0.20496102115E+03  0.00000000000E+00 0.  1.
          2    1    1    2  501    0  0.53610428221E+02  0.79515383011E+01  0.47337119905E+03  0.47646363666E+03  0.00000000000E+00 0. -1.
<scales pt_clust_3="160.72509" pt_clust_4="14000.00000" pt_clust_5="51.63263" pt_clust_6="54.19691"></scales>
<clustering>
<clus scale="   54.197">  1  6  2 -1</clus>
<clus scale="   51.633">  1  5  2 -1</clus>
<clus scale="  160.725">  1  3  2 -1</clus>
<clus scale="  160.725">  2  3  1 -1</clus>
</clustering>
</event>
<event>
 6    0  0.1230761E+002  0.7552325E+02  0.7546771E-02  0.1342258E+00
         21   -1    0    0  503  502  0.00000000000E+00  0.00000000000E+00  0.16177961158E+04  0.16177961158E+04  0.00000000000E+00 0. -1.
          1   -1    0    0  504    0 -0.00000000000E+00 -0.00000000000E+00 -0.25618655906E+02  0.25618655906E+02  0.00000000000E+00 0. -1.
         21    1    1    2  503  505 -0.40749508718E+02  0.28273476576E+01  0.60692914070E+03  0.60830214383E+03  0.00000000000E+00 0. -1.
         21    1    1    2  504  502  0.36690186678E+02 -0.42836869521E+02  0.42505546390E+02  0.70624986108E+02  0.00000000000E+00 0. -1.
         21    1    1    2  505  501 -0.19541080579E+01 -0.65168565018E+02  0.65190949894E+03  0.65516162526E+03  0.00000000000E+00 0. -1.
          1    1    1    2  501    0  0.60134300983E+01  0.10517808688E+03  0.29083327383E+03  0.30932601647E+03  0.00000000000E+00 0. -1.
<scales pt_clust_3="40.84748" pt_clust_4="54.82150" pt_clust_5="75.52325" pt_clust_6="14000.00000"></scales>
<clustering>
<clus scale="   40.847">  1  3  2 -1</clus>
<clus scale="   54.822">  2  4  1 -1</clus>
<clus scale="   75.523">  1  5  2 -1</clus>
<clus scale="   40.847">  1  3  2 -1</clus>
</clustering>
</event>
<event>
 6    0  0.1230761E+002  0.2662277E+03  0.7546771E-02  0.1103458E+00
          1   -1    0    0  503    0 -0.00000000000E+00  0.00000000000E+00  0.13197455592E+04  0.13197455592E+04  0.00000000000E+00 0.  1.
         21   -1    0    0  504  502  0.00000000000E+00 -0.00000000000E+00 -0.15024417237E+03  0.15024417237E+03  0.00000000000E+00 0. -1.
         21    1    1    2  503  502  0.12822622586E+03 -0.74550541779E+01  0.17639904839E+03  0.21820670728E+03  0.00000000000E+00 0.  1.
         21    1    1    2  504  505  0.30999250270E+02  0.58183960689E+02  0.46994363062E+02  0.80961700565E+02  0.00000000000E+00 0.  1.
         21    1    1    2  505  501  0.76558660054E+02  0.16782998046E+03  0.14197874159E+02  0.18501273038E+03  0.00000000000E+00 0. -1.
          1    1    1    2  501    0 -0.23578413618E+03 -0.21855888697E+03  0.93191010120E+03  0.98580859332E+03  0.00000000000E+00 0.  1.
<scales pt_clust_3="128.44276" pt_clust_4="39.41495" pt_clust_5="39.41495" pt_clust_6="257.93462"></scales>
<clustering>
<clus scale="   39.415">  4  5 -1 -1</clus>
<clus scale="  128.443">  1  3  2 -1</clus>
<clus scale="  257.935">  1  6  2 -1</clus>
<clus scale="  266.228">  2  3  1 -1</clus>
</clustering>
</event>
<event>
 6    0  0.1230761E+002  0.2974492E+03  0.7546771E-02  0.1086523E+00
          2   -1    0    0  503    0 -0.00000000000E+00  0.00000000000E+00  0.12089155655E+04  0.12089155655E+04  0.00000000000E+00 0. -1.
         21   -1    0    0  501  502  0.00000000000E+00 -0.00000000000E+00 -0.12746164247E+03  0.12746164247E+03  0.00000000000E+00 0. -1.
         21    1    1    2  503  505 -0.33576876636E+02 -0.32036648639E+02  0.17486222846E+03  0.18091587117E+03  0.00000000000E+00 0. -1.
         21    1    1    2  504  502 -0.55669683121E+01 -0.12615593293E+03  0.66298556985E+01  0.12645262171E+03  0.00000000000E+00 0. -1.
         21    1    1    2  505  504 -0.47598722886E+02 -0.13911556273E+03  0.11992451880E+03  0.18973842105E+03  0.00000000000E+00 0. -1.
          2    1    1    2  501    0  0.86742567834E+02  0.29730814431E+03  0.78003732010E+03  0.83927029407E+03  0.00000000000E+00 0. -1.
<scales pt_clust_3="46.40855" pt_clust_4="94.99208" pt_clust_5="94.99208" pt_clust_6="278.76662"></scales>
<clustering>
<clus scale="   46.409">  1  3  2 -1</clus>
<clus scale="   94.992">  4  5 -1 -1</clus>
<clus scale="  278.767">  1  6  2 -1</clus>
<clus scale="  297.449">  2  3  1 -1</clus>
</clustering>
</event>
<event>
 6    0  0.1230761E+002  0.1022927E+03  0.7546771E-02  0.1275547E+00
         21   -1    0    0  501  502  0.00000000000E+00  0.00000000000E+00  0.18173382612E+03  0.18173382612E+03  0.00000000000E+00 0.  1.
          2   -1    0    0  504    0 -0.00000000000E+00 -0.00000000000E+00 -0.19245958842E+03  0.19245958842E+03  0.00000000000E+00 0.  1.
         21    1    1    2  503  505 -0.32831477234E+02  0.37179158330E+02 -0.25449898786E+00  0.49601012905E+02  0.00000000000E+00 0.  1.
         21    1    1    2  504  503  0.25246959509E+02 -0.17645983058E+02 -0.43301112325E+02  0.53139213498E+02  0.00000000000E+00 0.  1.
         21    1    1    2  505  502  0.11376577435E+02  0.98361786545E+02  0.95770700432E+02  0.13775519819E+03  0.00000000000E+00 0.  1.
          2    1    1    2  501    0 -0.37920597103E+01 -0.11789496182E+03 -0.62940851414E+02  0.13369798995E+03  0.00000000000E+00 0.  1.
<scales pt_clust_3="44.44397" pt_clust_4="30.80243" pt_clust_5="14000.00000" pt_clust_6="102.29266"></scales>
<clustering>
<clus scale="   30.802">  2  4  1 -1</clus>
<clus scale="   44.444">  2  3  1 -1</clus>
<clus scale="  102.293">  2  6  1 -1</clus>
<clus scale="  102.293">  1  3  2 -1</clus>
</clustering>
</event>
<event>
 6    0  0.1230761E+002  0.1155565E+03  0.7546771E-02  0.1250613E+00
          2   -1    0    0  504    0 -0.00000000000E+00  0.00000000000E+00  0.15725333522E+04  0.15725333522E+04  0.00000000000E+00 0. -1.
         21   -1    0    0  501  502  0.00000000000E+00 -0.00000000000E+00 -0.64262253545E+02  0.64262253545E+02  0.00000000000E+00 0.  1.
         21    1    1    2  503  502 -0.41966820400E+02  0.27743361384E+02 -0.73280335716E+01  0.50839041999E+02  0.00000000000E+00 0.  1.
         21    1    1    2  504  505  0.11102417948E+03  0.32173848126E+02  0.69118413135E+03  0.70078315360E+03  0.00000000000E+00 0. -1.
         21    1    1    2  505  503 -0.13954430943E+02  0.75714744992E+02  0.39138470421E+02  0.86367057487E+02  0.00000000000E+00 0.  1.
          2    1    1    2  501    0 -0.55102928137E+02 -0.13563195450E+03  0.78527653041E+03  0.79880635262E+03  0.00000000000E+00 0. -1.
<scales pt_clust_3="50.30813" pt_clust_4="115.55645" pt_clust_5="103.31598" pt_clust_6="14000.00000"></scales>
<clustering>
<clus scale="   50.308">  2  3  1 -1</clus>
<clus scale="  103.316">  2  5  1 -1</clus>
<clus scale="  115.556">  1  4  2 -1</clus>
<clus scale="   50.308">  2  3  1 -1</clus>
</clustering>
</event>
<event>
 6    0  0.1230761E+002  0.2671844E+03  0.7546771E-02  0.1102902E+00
         21   -1    0    0  505  502  0.00000000000E+00  0.00000000000E+00  0.29732864052E+03  0.29732864052E+03  0.00000000000E+00 0. -1.
          2   -1    0    0  504    0 -0.00000000000E+00 -0.00000000000E+00 -0.12393060625E+04  0.12393060625E+04  0.00000000000E+00 0.  1.
         21    1    1    2  503  502 -0.18991254034E+03  0.16888843694E+03 -0.18413931367E+01  0.25415245000E+03  0.00000000000E+00 0. -1.
         21    1    1    2  504  503 -0.69657501095E+01  0.96122345046E+02 -0.29983998849E+03  0.31494768707E+03  0.00000000000E+00 0. -1.
         21    1    1    2  505  501  0.16971206988E+03 -0.22549271699E+03  0.40446192363E+02  0.28510532537E+03  0.00000000000E+00 0. -1.
          2    1    1    2  501    0  0.27166220570E+02 -0.39518065002E+02 -0.68074223269E+03  0.68242924056E+03  0.00000000000E+00 0.  1.
<scales pt_clust_3="14000.00000" pt_clust_4="74.77150" pt_clust_5="267.18443" pt_clust_6="47.95499"></scales>
<clustering>
<clus scale="   47.955">  2  6  1 -1</clus>
<clus scale="   74.771">  2  4  1 -1</clus>
<clus scale="  267.184">  1  5  2 -1</clus>
<clus scale="  267.184">  1  3  2 -1</clus>
</clustering>
</event>
<event>
 6    0  0.1230761E+002  0.1562559E+03  0.7546771E-02  0.1192990E+00
         21   -1    0    0  501  502  0.00000000000E+00  0.00000000000E+00  0.55046699704E+03  0.55046699704E+03  0.00000000000E+00 0.  1.
          2   -1    0    0  504    0 -0.00000000000E+00 -0.00000000000E+00 -0.16111170245E+03  0.16111170245E+03  0.00000000000E+00 0. -1.
         21    1    1    2  503  505 -0.83792404474E+02  0.55056158948E+02  0.34948565023E+03  0.36358295808E+03  0.00000000000E+00 0.  1.
         21    1    1    2  504  503 -0.24471594280E+02 -0.46556698466E+02 -0.19568102724E+02  0.56118586429E+02  0.00000000000E+00 0. -1.
         21    1    1    2  505  502 -0.16677000042E+02  0.52259498111E+02  0.12629664658E+03  0.13769538994E+03  0.00000000000E+00 0.  1.
          2    1    1    2  501    0  0.12494099880E+03 -0.60758958593E+02 -0.66858899498E+02  0.15418176504E+03  0.00000000000E+00 0. -1.
<scales pt_clust_3="42.49431" pt_clust_4="52.59644" pt_clust_5="42.49431" pt_clust_6="145.31164"></scales>
<clustering>
<clus scale="   42.494">  3  5 -1 -1</clus>
<clus scale="   52.596">  2  4  1 -1</clus>
<clus scale="  145.312">  2  6  1 -1</clus>
<clus scale="  156.256">  1  3  2 -1</clus>
</clustering>
</event>
<event>
 6    0  0.1230761E+002  0.1402036E+03  0.7546771E-02  0.1213055E+00
          2   -1    0    0  504    0 -0.00000000000E+00  0.00000000000E+00  0.13261761793E+04  0.13261761793E+04  0.00000000000E+00 0. -1.
         21   -1    0    0  505  502  0.00000000000E+00 -0.00000000000E+00 -0.83115519424E+03  0.83115519424E+03  0.00000000000E+00 0.  1.
         21    1    1    2  503  501 -0.14706254021E+03 -0.44400663200E+02 -0.32803642009E+03  0.36222465754E+03  0.00000000000E+00 0.  1.
         21    1    1    2  504  502  0.79310337651E+02  0.15698846811E+01  0.25065594667E+03  0.26290872522E+03  0.00000000000E+00 0. -1.
         21    1    1    2  505  503  0.69628676028E+01  0.87988463276E+02 -0.47446060293E+03  0.48260057493E+03  0.00000000000E+00 0.  1.
          2    1    1    2  501    0  0.60789334951E+02 -0.45157684757E+02  0.10468620614E+04  0.10495974158E+04  0.00000000000E+00 0. -1.
<scales pt_clust_3="14000.00000" pt_clust_4="140.20365" pt_clust_5="87.67960" pt_clust_6="75.72688"></scales>
<clustering>
<clus scale="   75.727">  1  6  2 -1</clus>
<clus scale="   87.680">  2  5  1 -1</clus>
<clus scale="  140.204">  1  4  2 -1</clus>
<clus scale="   87.680">  2  3  1 -1</clus>
</clustering>
</event>
<event>
 6    0  0.1230761E+002  0.1111692E+03  0.7546771E-02  0.1258420E+00
          3   -1    0    0  505    0 -0.00000000000E+00  0.00000000000E+00  0.20017631108E+04  0.20017631108E+04  0.00000000000E+00 0.  1.
         21   -1    0    0  503  502  0.00000000000E+00 -0.00000000000E+00 -0.93962086371E+02  0.93962086371E+02  0.00000000000E+00 0. -1.
         21    1    1    2  503  501 -0.97012604906E+02  0.35818789180E+02  0.61299203884E+02  0.12021656943E+03  0.00000000000E+00 0.  1.
         21    1    1    2  504  502  0.90946775714E+02 -0.76322170794E+02 -0.11186346927E+01  0.11873348774E+03  0.00000000000E+00 0. -1.
         21    1    1    2  505  504 -0.75221617297E+02 -0.80789075237E+01  0.11861626205E+04  0.11885728092E+04  0.00000000000E+00 0.  1.
          3    1    1    2  501    0  0.81287446489E+02  0.48582289138E+02  0.66145783477E+03  0.66820233085E+03  0.00000000000E+00 0.  1.
<scales pt_clust_3="111.16917" pt_clust_4="14000.00000" pt_clust_5="75.65422" pt_clust_6="46.45586"></scales>
<clustering>
<clus scale="   75.654">  1  5  2 -1</clus>
<clus scale="   46.456">  1  6  2 -1</clus>
<clus scale="  111.169">  1  3  2 -1</clus>
<clus scale="  111.169">  2  3  1 -1</clus>
</clustering>
</event>
<event>
 6    0  0.1230761E+002  0.9344885E+02  0.7546771E-02  0.1294708E+00
         21   -1    0    0  504  502  0.00000000000E+00  0.00000000000E+00  0.71168386240E+03  0.71168386240E+03  0.00000000000E+00 0.  1.
         -4   -1    0    0    0  501 -0.00000000000E+00 -0.00000000000E+00 -0.16509223396E+03  0.16509223396E+03  0.00000000000E+00 0.  1.
         21    1    1    2  503  501 -0.29670287077E+02 -0.54305123101E+02  0.46881074037E+02  0.77635091506E+02  0.00000000000E+00 0.  1.
         21    1    1    2  504  503 -0.48589745415E+01  0.39874883592E+02  0.76124792483E+02  0.86073224673E+02  0.00000000000E+00 0. -1.
         21    1    1    2  505  502  0.17565881244E+02 -0.88271678321E+02  0.54543432198E+03  0.55281013827E+03  0.00000000000E+00 0.  1.
         -4    1    1    2    0  505  0.16963380375E+02  0.10270191783E+03 -0.12184856006E+03  0.16025764191E+03  0.00000000000E+00 0.  1.
<scales pt_clust_3="93.44885" pt_clust_4="40.16984" pt_clust_5="55.18340" pt_clust_6="14000.00000"></scales>
<clustering>
<clus scale="   40.170">  1  4  2 -1</clus>
<clus scale="   55.183">  1  5  2 -1</clus>
<clus scale="   93.449">  1  3  2 -1</clus>
<clus scale="   40.170">  1  3  2 -1</clus>
</clustering>
</event>
<event>
 6    0  0.1230761E+002  0.2533616E+03  0.7546771E-02  0.1111199E+00
         21   -1    0    0  501  502  0.00000000000E+00  0.00000000000E+00  0.20285202610E+04  0.20285202610E+04  0.00000000000E+00 0. -1.
          2   -1    0    0  505    0 -0.00000000000E+00 -0.00000000000E+00 -0.88331320303E+02  0.88331320303E+02  0.00000000000E+00 0. -1.
         21    1    1    2  503  502 -0.45263194508E+02  0.44199365943E+02  0.60985925081E+03  0.61313183454E+03  0.00000000000E+00 0.  1.
         21    1    1    2  504  503 -0.15323129908E+03  0.10361517254E+03  0.11143871268E+04  0.11296347212E+04  0.00000000000E+00 0. -1.
         21    1    1    2  505  504 -0.24804756398E+02 -0.34525356704E+02  0.76405519203E+02  0.87436145616E+02  0.00000000000E+00 0.  1.
          2    1    1    2  501    0  0.22329924999E+03 -0.11328918178E+03  0.13953704389E+03  0.28664887994E+03  0.00000000000E+00 0. -1.
<scales pt_clust_3="31.82025" pt_clust_4="31.82025" pt_clust_5="42.51207" pt_clust_6="247.45020"></scales>
<clustering>
<clus scale="   31.820">  3  4 -1 -1</clus>
<clus scale="   42.512">  2  5  1 -1</clus>
<clus scale="  247.450">  2  6  1 -1</clus>
<clus scale="  253.362">  1  3  2 -1</clus>
</clustering>
</event>
<event>
 6    0  0.1230761E+002  0.1034183E+03  0.7546771E-02  0.1273268E+00
          2   -1    0    0  503    0 -0.00000000000E+00  0.00000000000E+00  0.10219948966E+04  0.10219948966E+04  0.00000000000E+00 0.  1.
         21   -1    0    0  504  502  0.00000000000E+00 -0.00000000000E+00 -0.14493149416E+03  0.14493149416E+03  0.00000000000E+00 0. -1.
         21    1    1    2  503  505 -0.28578096567E+02  0.11288296787E+02  0.65147405104E+03  0.65219826160E+03  0.00000000000E+00 0. -1.
         21    1    1    2  504  501 -0.96789806527E+01 -0.32999780249E+02  0.51048944381E+00  0.34393731441E+02  0.00000000000E+00 0.  1.
         21    1    1    2  505  502 -0.66798906390E+02  0.95618967032E+02 -0.85249356511E+02  0.14447329697E+03  0.00000000000E+00 0. -1.
          2    1    1    2  501    0  0.10505598361E+03 -0.73907483570E+02  0.31032821847E+03  0.33586110076E+03  0.00000000000E+00 0.  1.
<scales pt_clust_3="30.72675" pt_clust_4="34.28883" pt_clust_5="103.41830" pt_clust_6="14000.00000"></scales>
<clustering>
<clus scale="   30.727">  1  3  2 -1</clus>
<clus scale="   34.289">  2  4  1 -1</clus>
<clus scale="  103.418">  2  5  1 -1</clus>
<clus scale="   34.289">  2  3  1 -1</clus>
</clustering>
</event>
<event>
 6    0  0.1230761E+002  0.1196764E+03  0.7546771E-02  0.1243632E+00
         21   -1    0    0  504  502  0.00000000000E+00  0.00000000000E+00  0.51927459988E+02  0.51927459988E+02  0.00000000000E+00 0. -1.
         -1   -1    0    0    0  501 -0.00000000000E+00 -0.00000000000E+00 -0.72542329280E+03  0.72542329280E+03  0.00000000000E+00 0. -1.
         21    1    1    2  503  501  0.30737003165E+02 -0.38037337647E+02 -0.42907759731E+03  0.43185551626E+03  0.00000000000E+00 0. -1.
         21    1    1    2  504  505 -0.42462872921E+02  0.28211326996E+02 -0.45899766332E+02  0.68598564831E+02  0.00000000000E+00 0.  1.
         21    1    1    2  505  503 -0.86627926455E+02 -0.75618560058E+01 -0.12755115047E+03  0.15437252118E+03  0.00000000000E+00 0. -1.
         -1    1    1    2    0  502  0.98353796210E+02  0.17387866657E+02 -0.70967318708E+02  0.12252415052E+03  0.00000000000E+00 0. -1.
<scales pt_clust_3="48.90401" pt_clust_4="38.58944" pt_clust_5="38.58944" pt_clust_6="108.54671"></scales>
<clustering>
<clus scale="   38.589">  4  5 -1 -1</clus>
<clus scale="   48.904">  2  3  1 -1</clus>
<clus scale="  108.547">  1  6  2 -1</clus>
<clus scale="  108.547">  1  3  2 -1</clus>
</clustering>
</event>
<event>
 6    0  0.1230761E+002  0.3168284E+03  0.7546771E-02  0.1077118E+00
          2   -1    0    0  504    0 -0.00000000000E+00  0.00000000000E+00  0.23887217327E+04  0.23887217327E+04  0.00000000000E+00 0. -1.
         21   -1    0    0  503  502  0.00000000000E+00 -0.00000000000E+00 -0.89365339472E+02  0.89365339472E+02  0.00000000000E+00 0. -1.
         21    1    1    2  503  505 -0.20856000305E+03  0.76503959797E+02  0.16135871128E+03  0.27456650277E+03  0.00000000000E+00 0. -1.
         21    1    1    2  504  502  0.42791699840E+02  0.27373534241E+02  0.50453652991E+03  0.50708731986E+03  0.00000000000E+00 0.  1.
         21    1    1    2  505  501 -0.96569271726E+02  0.12031591580E+02  0.11286624146E+03  0.14902741996E+03  0.00000000000E+00 0. -1.
          2    1    1    2  501    0  0.26233757494E+03 -0.11590908562E+03  0.15205949106E+04  0.15474058296E+04  0.00000000000E+00 0. -1.
<scales pt_clust_3="37.96403" pt_clust_4="50.79803" pt_clust_5="37.96403" pt_clust_6="311.59299"></scales>
<clustering>
<clus scale="   37.964">  3  5 -1 -1</clus>
<clus scale="   50.798">  1  4  2 -1</clus>
<clus scale="  311.593">  1  6  2 -1</clus>
<clus scale="  316.828">  2  3  1 -1</clus>
</clustering>
</event>
<event>
 6    0  0.1230761E+002  0.1980486E+03  0.7546771E-02  0.1151396E+00
         21   -1    0    0  504  502  0.00000000000E+00  0.00000000000E+00  0.55446738451E+03  0.55446738451E+03  0.00000000000E+00 0. -1.
          1   -1    0    0  505    0 -0.00000000000E+00 -0.00000000000E+00 -0.15873875464E+03  0.15873875464E+03  0.00000000000E+00 0. -1.
         21    1    1    2  503  502 -0.50257105232E+02  0.47287437906E+01  0.12446881744E+03  0.13431539062E+03  0.00000000000E+00 0. -1.
         21    1    1    2  504  501  0.24545244824E+02  0.26152796318E+02  0.40177630046E+02  0.53857959067E+02  0.00000000000E+00 0.  1.
         21    1    1    2  505  503 -0.20410401496E+02 -0.21767124136E+03  0.24952276750E+03  0.33175136067E+03  0.00000000000E+00 0. -1.
          1    1    1    2  501    0  0.46122261904E+02  0.18678970125E+03 -0.18440585119E+02  0.19328142879E+03  0.00000000000E+00 0. -1.
<scales pt_clust_3="45.45064" pt_clust_4="35.86695" pt_clust_5="198.04862" pt_clust_6="14000.00000"></scales>
<clustering>
<clus scale="   35.867">  1  4  2 -1</clus>
<clus scale="   45.451">  1  3  2 -1</clus>
<clus scale="  198.049">  1  5  2 -1</clus>
<clus scale="   35.867">  1  3  2 -1</clus>
</clustering>
</event>
<event>
 6    0  0.1230761E+002  0.1289931E+03  0.7546771E-02  0.1228957E+00
         -4   -1    0    0    0  501 -0.00000000000E+00  0.00000000000E+00  0.38655894832E+03  0.38655894832E+03  0.00000000000E+00 0. -1.
         21   -1    0    0  505  502  0.00000000000E+00 -0.00000000000E+00 -0.17820936160E+03  0.17820936160E+03  0.00000000000E+00 0. -1.
         21    1    1    2  503  504  0.38219123923E+02 -0.58160160296E+02 -0.97571913091E+02  0.11984817021E+03  0.00000000000E+00 0. -1.
         21    1    1    2  504  501  0.25290153407E+02 -0.21694495038E+02  0.38951411091E+02  0.51258710482E+02  0.00000000000E+00 0. -1.
         21    1    1    2  505  503  0.27204188834E+02 -0.44051012830E+02 -0.29639059385E+02  0.59657635410E+02  0.00000000000E+00 0.  1.
         -4    1    1    2    0  502 -0.90713466163E+02  0.12390566816E+03  0.29660914810E+03  0.33400379382E+03  0.00000000000E+00 0. -1.
<scales pt_clust_3="31.24632" pt_clust_4="33.32031" pt_clust_5="31.24632" pt_clust_6="123.80166"></scales>
<clustering>
<clus scale="   31.246">  3  5 -1 -1</clus>
<clus scale="   33.320">  1  4  2 -1</clus>
<clus scale="  123.802">  1  6  2 -1</clus>
<clus scale="  128.993">  2  3  1 -1</clus>
</clustering>
</event>
<event>
 6    0  0.1230761E+002  0.1548744E+03  0.7546771E-02  0.1194608E+00
          2   -1    0    0  505    0 -0.00000000000E+00  0.00000000000E+00  0.10731781026E+04  0.10731781026E+04  0.00000000000E+00 0. -1.
         21   -1    0    0  501  502  0.00000000000E+00 -0.00000000000E+00 -0.79722696869E+03  0.79722696869E+03  0.00000000000E+00 0.  1.
         21    1    1    2  503  502  0.61725486062E+02  0.58941058179E+02 -0.32988384450E+03  0.34074541058E+03  0.00000000000E+00 0.  1.
         21    1    1    2  504  503  0.39419620395E+02  0.49035275711E+02 -0.45312020281E+03  0.45746724793E+03  0.00000000000E+00 0.  1.
         21    1    1    2  505  504 -0.34913865624E+02 -0.33489511996E+01  0.11733538942E+03  0.12246545266E+03  0.00000000000E+00 0. -1.
          2    1    1    2  501    0 -0.66231240833E+02 -0.10462738269E+03  0.94161979177E+03  0.94972696009E+03  0.00000000000E+00 0. -1.
<scales pt_clust_3="39.91235" pt_clust_4="39.91235" pt_clust_5="35.07411" pt_clust_6="147.74028"></scales>
<clustering>
<clus scale="   35.074">  1  5  2 -1</clus>
<clus scale="   39.912">  3  4 -1 -1</clus>
<clus scale="  147.740">  1  6  2 -1</clus>
<clus scale="  154.874">  2  3  1 -1</clus>
</clustering>
</event>
<event>
 6    0  0.1230761E+002  0.1115518E+03  0.7546771E-02  0.1257723E+00
          2   -1    0    0  504    0 -0.00000000000E+00  0.00000000000E+00  0.66596477923E+03  0.66596477923E+03  0.00000000000E+00 0.  1.
         21   -1    0    0  503  502  0.00000000000E+00 -0.00000000000E+00 -0.32431641187E+03  0.32431641187E+03  0.00000000000E+00 0.  1.
         21    1    1    2  503  501 -0.18782356120E+02  0.85905354425E+02 -0.26788653701E+03  0.28194982449E+03  0.00000000000E+00 0.  1.
         21    1    1    2  504  505  0.34393024075E+02 -0.11586401021E+02  0.28701274257E+03  0.28929818387E+03  0.00000000000E+00 0. -1.
         21    1    1    2  505  502 -0.31153471015E+02  0.16061919226E+02 -0.35240635602E+02  0.49703384222E+02  0.00000000000E+00 0.  1.
          2    1    1    2  501    0  0.15542803060E+02 -0.90380872630E+02  0.35776279741E+03  0.36932979852E+03  0.00000000000E+00 0.  1.
<scales pt_clust_3="111.55183" pt_clust_4="36.15173" pt_clust_5="35.05031" pt_clust_6="14000.00000"></scales>
<clustering>
<clus scale="   35.050">  2  5  1 -1</clus>
<clus scale="   36.152">  1  4  2 -1</clus>
<clus scale="  111.552">  2  3  1 -1</clus>
<clus scale="   35.050">  2  3  1 -1</clus>
</clustering>
</event>
<event>
 6    0  0.1230761E+002  0.1307562E+03  0.7546771E-02  0.1226338E+00
          2   -1    0    0  503    0 -0.00000000000E+00  0.00000000000E+00  0.30311494670E+04  0.30311494670E+04  0.00000000000E+00 0. -1.
         21   -1    0    0  504  502  0.00000000000E+00 -0.00000000000E+00 -0.31804537853E+02  0.31804537853E+02  0.00000000000E+00 0. -1.
         21    1    1    2  503  505 -0.10041914520E+03  0.31725416614E+02  0.96701023947E+03  0.97272776769E+03  0.00000000000E+00 0. -1.
         21    1    1    2  504  501  0.54122947469E+02  0.83440799253E+02  0.15033500999E+03  0.18025613902E+03  0.00000000000E+00 0. -1.
         21    1    1    2  505  502 -0.93281043810E+02  0.29903119119E+02  0.30937406104E+03  0.32451172446E+03  0.00000000000E+00 0. -1.
          2    1    1    2  501    0  0.13957724154E+03 -0.14506933499E+03  0.15726256186E+04  0.15854583737E+04  0.00000000000E+00 0. -1.
<scales pt_clust_3="130.75624" pt_clust_4="101.95851" pt_clust_5="97.95688" pt_clust_6="14000.00000"></scales>
<clustering>
<clus scale="   97.957">  2  5  1 -1</clus>
<clus scale="  101.959">  2  4  1 -1</clus>
<clus scale="  130.756">  1  3  2 -1</clus>
<clus scale="   97.957">  2  3  1 -1</clus>
</clustering>
</event>
<event>
 6    0  0.1230761E+002  0.9582528E+02  0.7546771E-02  0.1289328E+00
          1   -1    0    0  504    0 -0.00000000000E+00  0.00000000000E+00  0.10339634460E+04  0.10339634460E+04  0.00000000000E+00 0. -1.
         21   -1    0    0  503  502  0.00000000000E+00 -0.00000000000E+00 -0.14744612044E+03  0.14744612044E+03  0.00000000000E+00 0. -1.
         21    1    1    2  503  501  0.37089483992E+02  0.28620068475E+01  0.32986911745E+02  0.49718781687E+02  0.00000000000E+00 0. -1.
         21    1    1    2  504  505  0.74844107428E+02 -0.52546319643E+02  0.48295893874E+03  0.49154053000E+03  0.00000000000E+00 0. -1.
         21    1    1    2  505  502 -0.47156322080E+02 -0.30971094363E+02 -0.12328230049E+03  0.13557821732E+03  0.00000000000E+00 0. -1.
          1    1    1    2  501    0 -0.64777269340E+02  0.80655407159E+02  0.49385377557E+03  0.50457203744E+03  0.00000000000E+00 0. -1.
<scales pt_clust_3="37.19974" pt_clust_4="14000.00000" pt_clust_5="31.00161" pt_clust_6="95.82528"></scales>
<clustering>
<clus scale="   37.200">  2  3  1 -1</clus>
<clus scale="   31.002">  2  5  1 -1</clus>
<clus scale="   95.825">  2  6  1 -1</clus>
<clus scale="   37.200">  2  3  1 -1</clus>
</clustering>
</event>
<event>
 6    0  0.1230761E+002  0.1417619E+03  0.7546771E-02  0.1210978E+00
          1   -1    0    0  505    0 -0.00000000000E+00  0.00000000000E+00  0.16729408245E+04  0.16729408245E+04  0.00000000000E+00 0.  1.
         21   -1    0    0  503  502  0.00000000000E+00 -0.00000000000E+00 -0.29705817771E+03  0.29705817771E+03  0.00000000000E+00 0. -1.
         21    1    1    2  503  501 -0.10359016029E+02  0.72402728948E+02 -0.11555370096E+02  0.74047221084E+02  0.00000000000E+00 0.  1.
         21    1    1    2  504  502  0.33072325505E+02  0.70219785338E+02 -0.24259023177E+03  0.25470496170E+03  0.00000000000E+00 0. -1.
         21    1    1    2  505  504 -0.55661291814E+02 -0.13850265530E+02  0.58310193375E+03  0.58591626911E+03  0.00000000000E+00 0. -1.
          1    1    1    2  501    0  0.32947982337E+02 -0.12877224876E+03  0.10469263149E+04  0.10553305503E+04  0.00000000000E+00 0.  1.
<scales pt_clust_3="72.99113" pt_clust_4="141.76192" pt_clust_5="57.35860" pt_clust_6="14000.00000"></scales>
<clustering>
<clus scale="   57.359">  1  5  2 -1</clus>
<clus scale="   72.991">  2  3  1 -1</clus>
<clus scale="  141.762">  2  4  1 -1</clus>
<clus scale="   72.991">  2  3  1 -1</clus>
</clustering>
</event>
<event>
 6    0  0.1230761E+002  0.1540585E+03  0.7546771E-02  0.1195573E+00
          2   -1    0    0  503    0 -0.00000000000E+00  0.00000000000E+00  0.26129542708E+04  0.26129542708E+04  0.00000000000E+00 0. -1.
         21   -1    0    0  505  502  0.00000000000E+00 -0.00000000000E+00 -0.66465136266E+02  0.66465136266E+02  0.00000000000E+00 0.  1.
         21    1    1    2  503  502  0.71118954588E+02  0.99098063786E+02  0.68212023759E+03  0.69294036575E+03  0.00000000000E+00 0. -1.
         21    1    1    2  504  501 -0.13648944919E+03 -0.71485042263E+01  0.66544798133E+02  0.15201539729E+03  0.00000000000E+00 0.  1.
         21    1    1    2  505  504 -0.31050164103E+02 -0.71001171342E+02  0.71868442725E+02  0.10568988638E+03  0.00000000000E+00 0. -1.
          2    1    1    2  501    0  0.96420658706E+02 -0.20948388218E+02  0.17259556560E+04  0.17287737576E+04  0.00000000000E+00 0. -1.
<scales pt_clust_3="14000.00000" pt_clust_4="154.05853" pt_clust_5="77.49374" pt_clust_6="98.25966"></scales>
<clustering>
<clus scale="   77.494">  2  5  1 -1</clus>
<clus scale="   98.260">  1  6  2 -1</clus>
<clus scale="  154.059">  2  4  1 -1</clus>
<clus scale="   77.494">  2  3  1 -1</clus>
</clustering>
</event>
<event>
 6    0  0.1230761E+002  0.2053991E+03  0.7546771E-02  0.1145262E+00
          2   -1    0    0  503    0 -0.00000000000E+00  0.00000000000E+00  0.47525391688E+04  0.47525391688E+04  0.00000000000E+00 0.  1.
         21   -1    0    0  505  502  0.00000000000E+00 -0.00000000000E+00 -0.48744718838E+03  0.48744718838E+03  0.00000000000E+00 0.  1.
         21    1    1    2  503  502  0.46135224784E+02  0.42959821727E+01  0.91952335147E+01  0.47238403319E+02  0.00000000000E+00 0. -1.
         21    1    1    2  504  501 -0.16091530185E+03  0.64355044913E+02  0.56635343657E+03  0.59227655812E+03  0.00000000000E+00 0. -1.
         21    1    1    2  505  504  0.15738327525E+03  0.59030035223E+02 -0.43882138090E+03  0.46991301825E+03  0.00000000000E+00 0.  1.
          2    1    1    2  501    0 -0.42603198178E+02 -0.12768106231E+03  0.41283646912E+04  0.41305583775E+04  0.00000000000E+00 0.  1.
<scales pt_clust_3="46.33481" pt_clust_4="14000.00000" pt_clust_5="205.39907" pt_clust_6="134.55751"></scales>
<clustering>
<clus scale="   46.335">  2  3  1 -1</clus>
<clus scale="  134.558">  1  6  2 -1</clus>
<clus scale="  205.399">  2  5  1 -1</clus>
<clus scale="   46.335">  2  3  1 -1</clus>
</clustering>
</event>
<event>
 6    0  0.1230761E+002  0.1047452E+03  0.7546771E-02  0.1270622E+00
          1   -1    0    0  504    0 -0.00000000000E+00  0.00000000000E+00  0.96939966437E+02  0.96939966437E+02  0.00000000000E+00 0.  1.
         21   -1    0    0  505  502  0.00000000000E+00 -0.00000000000E+00 -0.44503609799E+03  0.44503609799E+03  0.00000000000E+00 0.  1.
         21    1    1    2  503  502 -0.17514803488E+02 -0.14524483952E+03 -0.16518195009E+03  0.22065336704E+03  0.00000000000E+00 0.  1.
         21    1    1    2  504  503 -0.21195596912E+02  0.41894999925E+02  0.59899529393E+01  0.47332059784E+02  0.00000000000E+00 0.  1.
         21    1    1    2  505  501 -0.50166893586E+02  0.60928394309E+02 -0.14723800413E+03  0.16705692535E+03  0.00000000000E+00 0.  1.
          1    1    1    2  501    0  0.88877293986E+02  0.42421445285E+02 -0.41666130269E+02  0.10693371226E+03  0.00000000000E+00 0.  1.
<scales pt_clust_3="14000.00000" pt_clust_4="46.95151" pt_clust_5="85.39622" pt_clust_6="104.74519"></scales>
<clustering>
<clus scale="   46.952">  1  4  2 -1</clus>
<clus scale="   85.396">  2  5  1 -1</clus>
<clus scale="  104.745">  1  6  2 -1</clus>
<clus scale="   85.396">  2  3  1 -1</clus>
</clustering>
</event>
<event>
 6    0  0.1230761E+002  0.8700793E+02  0.7546771E-02  0.1310264E+00
         -2   -1    0    0    0  501 -0.00000000000E+00  0.00000000000E+00  0.38284046511E+03  0.38284046511E+03  0.00000000000E+00 0. -1.
         21   -1    0    0  504  502  0.00000000000E+00 -0.00000000000E+00 -0.26192122217E+03  0.26192122217E+03  0.00000000000E+00 0.  1.
         21    1    1    2  503  505  0.17125122806E+02  0.27681666867E+02  0.93558737895E+02  0.99059486916E+02  0.00000000000E+00 0.  1.
         21    1    1    2  504  501 -0.19259875106E+01 -0.80400208191E+02 -0.18898476957E+03  0.20538535984E+03  0.00000000000E+00 0.  1.
         21    1    1    2  505  502 -0.70161573677E+02  0.47448623800E+02 -0.28466924005E+02  0.89355380832E+02  0.00000000000E+00 0.  1.
         -2    1    1    2    0  503  0.54962438381E+02  0.52699175245E+01  0.24481219862E+03  0.25096145970E+03  0.00000000000E+00 0. -1.
<scales pt_clust_3="32.00345" pt_clust_4="80.42327" pt_clust_5="76.37428" pt_clust_6="32.00345"></scales>
<clustering>
<clus scale="   32.003">  3  6 -1 -1</clus>
<clus scale="   80.423">  2  4  1 -1</clus>
<clus scale="   76.374">  2  5  1 -1</clus>
<clus scale="   80.423">  2  3  1 -1</clus>
</clustering>
</event>
<event>
 6    0  0.1230761E+002  0.1117185E+03  0.7546771E-02  0.1257420E+00
          4   -1    0    0  504    0 -0.00000000000E+00  0.00000000000E+00  0.44113268473E+03  0.44113268473E+03  0.00000000000E+00 0. -1.
         21   -1    0    0  501  502  0.00000000000E+00 -0.00000000000E+00 -0.25823803351E+03  0.25823803351E+03  0.00000000000E+00 0.  1.
         21    1    1    2  503  505  0.64616936530E+02 -0.68704929972E+02 -0.35542878433E+02  0.10079192476E+03  0.00000000000E+00 0.  1.
         21    1    1    2  504  503 -0.64484290561E+02  0.23656107223E+02  0.12251967522E+03  0.14045962393E+03  0.00000000000E+00 0. -1.
         21    1    1    2  505  502  0.28405901497E+02 -0.19134858608E+02 -0.17496065415E+03  0.17828143076E+03  0.00000000000E+00 0.  1.
          4    1    1    2  501    0 -0.28538547466E+02  0.64183681357E+02  0.27087850857E+03  0.27983773879E+03  0.00000000000E+00 0. -1.
<scales pt_clust_3="111.71848" pt_clust_4="65.03753" pt_clust_5="34.24964" pt_clust_6="14000.00000"></scales>
<clustering>
<clus scale="   34.250">  2  5  1 -1</clus>
<clus scale="   65.038">  1  4  2 -1</clus>
<clus scale="  111.718">  2  3  1 -1</clus>
<clus scale="   34.250">  2  3  1 -1</clus>
</clustering>
</event>
<event>
 6    0  0.1230761E+002  0.1003962E+03  0.7546771E-02  0.1279465E+00
         21   -1    0    0  503  502  0.00000000000E+00  0.00000000000E+00  0.19624251080E+03  0.19624251080E+03  0.00000000000E+00 0. -1.
         -2   -1    0    0    0  501 -0.00000000000E+00 -0.00000000000E+00 -0.51688822438E+03  0.51688822438E+03  0.00000000000E+00 0. -1.
         21    1    1    2  503  505  0.10677172792E+01  0.38461209947E+02  0.16289567329E+02  0.41782229411E+02  0.00000000000E+00 0. -1.
         21    1    1    2  504  502 -0.30061481211E+02  0.27099010834E+02  0.14014938469E+03  0.14587631428E+03  0.00000000000E+00 0. -1.
         21    1    1    2  505  501  0.42119257416E+02  0.71256025120E+02 -0.18386381353E+03  0.20163669033E+03  0.00000000000E+00 0.  1.
         -2    1    1    2    0  504 -0.13125493485E+02 -0.13681624590E+03 -0.29322085207E+03  0.32383550116E+03  0.00000000000E+00 0. -1.
<scales pt_clust_3="38.47603" pt_clust_4="66.70109" pt_clust_5="14000.00000" pt_clust_6="100.39617"></scales>
<clustering>
<clus scale="   38.476">  1  3  2 -1</clus>
<clus scale="   66.701">  1  4  2 -1</clus>
<clus scale="  100.396">  1  6  2 -1</clus>
<clus scale="   38.476">  1  3  2 -1</clus>
</clustering>
</event>
<event>
 6    0  0.1230761E+002  0.2729579E+03  0.7546771E-02  0.1099599E+00
         -2   -1    0    0    0  501 -0.00000000000E+00  0.00000000000E+00  0.18608377013E+04  0.18608377013E+04  0.00000000000E+00 0.  1.
         21   -1    0    0  504  502  0.00000000000E+00 -0.00000000000E+00 -0.26117187959E+03  0.26117187959E+03  0.00000000000E+00 0.  1.
         21    1    1    2  503  501  0.47918871224E+02 -0.29442681948E+02  0.69404921966E+02  0.89331589781E+02  0.00000000000E+00 0.  1.
         21    1    1    2  504  505 -0.23313315878E+01  0.10071033419E+03 -0.14610095609E+02  0.10179126393E+03  0.00000000000E+00 0.  1.
         21    1    1    2  505  503 -0.24912605650E+03 -0.20496279672E+03 -0.42100515522E+02  0.32533981231E+03  0.00000000000E+00 0.  1.
         -2    1    1    2    0  502  0.20353851687E+03  0.13369514448E+03  0.15869715109E+04  0.16055469149E+04  0.00000000000E+00 0.  1.
<scales pt_clust_3="56.24135" pt_clust_4="99.99662" pt_clust_5="14000.00000" pt_clust_6="272.95794"></scales>
<clustering>
<clus scale="   56.241">  1  3  2 -1</clus>
<clus scale="   99.997">  2  4  1 -1</clus>
<clus scale="  272.958">  1  6  2 -1</clus>
<clus scale="   99.997">  2  3  1 -1</clus>
</clustering>
</event>
<event>
 6    0  0.1230761E+002  0.6890397E+02  0.7546771E-02  0.1363860E+00
         21   -1    0    0  501  502  0.00000000000E+00  0.00000000000E+00  0.38884588428E+03  0.38884588428E+03  0.00000000000E+00 0.  1.
          4   -1    0    0  504    0 -0.00000000000E+00 -0.00000000000E+00 -0.70612275019E+02  0.70612275019E+02  0.00000000000E+00 0. -1.
         21    1    1    2  503  505 -0.92031397939E+02  0.73979991302E+02  0.23587682041E+03  0.26378152272E+03  0.00000000000E+00 0.  1.
         21    1    1    2  504  503  0.40046488411E+02 -0.72108968165E+00 -0.43054731988E+01  0.40283722567E+02  0.00000000000E+00 0. -1.
         21    1    1    2  505  502  0.48245122146E+02 -0.19003924785E+02  0.86684002681E+02  0.10100919408E+03  0.00000000000E+00 0.  1.
          4    1    1    2  501    0  0.37397873825E+01 -0.54254976835E+02 -0.21740633069E-01  0.54383719933E+02  0.00000000000E+00 0. -1.
<scales pt_clust_3="68.90397" pt_clust_4="40.05298" pt_clust_5="57.45319" pt_clust_6="14000.00000"></scales>
<clustering>
<clus scale="   40.053">  2  4  1 -1</clus>
<clus scale="   57.453">  1  5  2 -1</clus>
<clus scale="   68.904">  1  3  2 -1</clus>
<clus scale="   57.453">  1  3  2 -1</clus>
</clustering>
</event>
<event>
 6    0  0.1230761E+002  0.7580969E+02  0.7546771E-02  0.1341382E+00
          1   -1    0    0  505    0 -0.00000000000E+00  0.00000000000E+00  0.25391422534E+04  0.25391422534E+04  0.00000000000E+00 0.  1.
         21   -1    0    0  504  502  0.00000000000E+00 -0.00000000000E+00 -0.35167049541E+03  0.35167049541E+03  0.00000000000E+00 0.  1.
         21    1    1    2  503  502  0.49058513085E+02 -0.79559800762E+02  0.57149062743E+02  0.10955599014E+03  0.00000000000E+00 0. -1.
         21    1    1    2  504  501 -0.59229153473E+02  0.46263945695E+02 -0.31131133454E+03  0.32025488647E+03  0.00000000000E+00 0.  1.
         21    1    1    2  505  503 -0.42556558860E+02 -0.41281059842E+02  0.91100014150E+02  0.10869406231E+03  0.00000000000E+00 0. -1.
          1    1    1    2  501    0  0.52727199248E+02  0.74576914909E+02  0.23505340156E+04  0.23523078099E+04  0.00000000000E+00 0.  1.
<scales pt_clust_3="75.80969" pt_clust_4="14000.00000" pt_clust_5="59.28901" pt_clust_6="36.69818"></scales>
<clustering>
<clus scale="   59.289">  1  5  2 -1</clus>
<clus scale="   36.698">  1  6  2 -1</clus>
<clus scale="   75.810">  1  3  2 -1</clus>
<clus scale="   75.810">  2  3  1 -1</clus>
</clustering>
</event>
<event>
 6    0  0.1230761E+002  0.9134138E+02  0.7546771E-02  0.1299635E+00
         21   -1    0    0  501  502  0.00000000000E+00  0.00000000000E+00  0.51708231244E+03  0.51708231244E+03  0.00000000000E+00 0.  1.
          2   -1    0    0  505    0 -0.00000000000E+00 -0.00000000000E+00 -0.63405217465E+03  0.63405217465E+03  0.00000000000E+00 0. -1.
         21    1    1    2  503  504 -0.20335066151E+02  0.32642807958E+02  0.78337298469E+02  0.87268551942E+02  0.00000000000E+00 0.  1.
         21    1    1    2  504  502 -0.94554992883E+00  0.32779066026E+02  0.41776353278E+03  0.41904860167E+03  0.00000000000E+00 0.  1.
         21    1    1    2  505  503  0.63214784497E+02  0.36178041261E+02 -0.12634624394E+03  0.14583666551E+03  0.00000000000E+00 0.  1.
          2    1    1    2  501    0 -0.41934168418E+02 -0.10159991525E+03 -0.48672444952E+03  0.49898066798E+03  0.00000000000E+00 0. -1.
<scales pt_clust_3="63.75194" pt_clust_4="32.79270" pt_clust_5="14000.00000" pt_clust_6="91.34138"></scales>
<clustering>
<clus scale="   32.793">  1  4  2 -1</clus>
<clus scale="   63.752">  1  3  2 -1</clus>
<clus scale="   91.341">  2  6  1 -1</clus>
<clus scale="   32.793">  1  3  2 -1</clus>
</clustering>
</event>
<event>
 6    0  0.1230761E+002  0.1802944E+03  0.7546771E-02  0.1167518E+00
         21   -1    0    0  501  502  0.00000000000E+00  0.00000000000E+00  0.10597020549E+03  0.10597020549E+03  0.00000000000E+00 0.  1.
          2   -1    0    0  504    0 -0.00000000000E+00 -0.00000000000E+00 -0.38249116347E+04  0.38249116347E+04  0.00000000000E+00 0.  1.
         21    1    1    2  503  505 -0.19073034328E+02  0.58974616095E+02  0.30924468666E+01  0.62059239519E+02  0.00000000000E+00 0. -1.
         21    1    1    2  504  503 -0.92216546395E+00 -0.50206454091E+02 -0.19942036689E+03  0.20564537717E+03  0.00000000000E+00 0.  1.
         21    1    1    2  505  502  0.56157102909E+02  0.10505055862E+03  0.18068978717E+02  0.12048123533E+03  0.00000000000E+00 0.  1.
          2    1    1    2  501    0 -0.36161903118E+02 -0.11381872063E+03 -0.35406824879E+04  0.35426959882E+04  0.00000000000E+00 0.  1.
<scales pt_clust_3="48.89071" pt_clust_4="50.21492" pt_clust_5="48.89071" pt_clust_6="167.06985"></scales>
<clustering>
<clus scale="   48.891">  3  5 -1 -1</clus>
<clus scale="   50.215">  2  4  1 -1</clus>
<clus scale="  167.070">  2  6  1 -1</clus>
<clus scale="  180.294">  1  3  2 -1</clus>
</clustering>
</event>
<event>
 6    0  0.1230761E+002  0.1460601E+03  0.7546771E-02  0.1205400E+00
         21   -1    0    0  505  502  0.00000000000E+00  0.00000000000E+00  0.10879131926E+03  0.10879131926E+03  0.00000000000E+00 0.  1.
          2   -1    0    0  504    0 -0.00000000000E+00 -0.00000000000E+00 -0.91899642163E+03  0.91899642163E+03  0.00000000000E+00 0. -1.
         21    1    1    2  503  502 -0.93213613049E+02 -0.69704391348E+00  0.14592407112E+02  0.94351480504E+02  0.00000000000E+00 0.  1.
         21    1    1    2  504  503 -0.45937425266E+02  0.14578164471E+02  0.36244368998E+02  0.60302771109E+02  0.00000000000E+00 0.  1.
         21    1    1    2  505  501  0.73598149571E+02 -0.24118021930E+02 -0.51462207070E+03  0.52041737313E+03  0.00000000000E+00 0. -1.
          2    1    1    2  501    0  0.65552888744E+02  0.10236901372E+02 -0.34641980778E+03  0.35271611616E+03  0.00000000000E+00 0. -1.
<scales pt_clust_3="30.31831" pt_clust_4="30.31831" pt_clust_5="34.79503" pt_clust_6="144.80668"></scales>
<clustering>
<clus scale="   30.318">  3  4 -1 -1</clus>
<clus scale="   34.795">  5  6 -1 -1</clus>
<clus scale="  144.807">  2  5  1 -1</clus>
<clus scale="  146.060">  1  3  2 -1</clus>
</clustering>
</event>
<event>
 6    0  0.1230761E+002  0.1099751E+03  0.7546771E-02  0.1260616E+00
         21   -1    0    0  505  502  0.00000000000E+00  0.00000000000E+00  0.11981012873E+03  0.11981012873E+03  0.00000000000E+00 0. -1.
          2   -1    0    0  503    0 -0.00000000000E+00 -0.00000000000E+00 -0.23443098740E+04  0.23443098740E+04  0.00000000000E+00 0.  1.
         21    1    1    2  503  502 -0.80422629656E+02  0.67326409188E+02  0.80844884516E+02  0.13242560208E+03  0.00000000000E+00 0. -1.
         21    1    1    2  504  501  0.19189479244E+02 -0.26209081012E+02 -0.95427048568E+02  0.10080413503E+03  0.00000000000E+00 0.  1.
         21    1    1    2  505  504 -0.76095471702E+01 -0.62109737100E+02 -0.89242675738E+02  0.10899440272E+03  0.00000000000E+00 0.  1.
          2    1    1    2  501    0  0.68842697583E+02  0.20992408925E+02 -0.21206749055E+04  0.21218958629E+04  0.00000000000E+00 0.  1.
<scales pt_clust_3="100.57989" pt_clust_4="32.04554" pt_clust_5="32.04554" pt_clust_6="71.97220"></scales>
<clustering>
<clus scale="   32.046">  4  5 -1 -1</clus>
<clus scale="   71.972">  2  6  1 -1</clus>
<clus scale="  100.580">  1  3  2 -1</clus>
<clus scale="  100.580">  1  3  2 -1</clus>
</clustering>
</event>
<event>
 6    0  0.1230761E+002  0.9571449E+02  0.7546771E-02  0.1289575E+00
         21   -1    0    0  505  502  0.00000000000E+00  0.00000000000E+00  0.10060751717E+04  0.10060751717E+04  0.00000000000E+00 0.  1.
         -1   -1    0    0    0  501 -0.00000000000E+00 -0.00000000000E+00 -0.31315263631E+03  0.31315263631E+03  0.00000000000E+00 0.  1.
         21    1    1    2  503  501 -0.75883000289E+01  0.35713092768E+02 -0.69016103371E+02  0.78078356905E+02  0.00000000000E+00 0. -1.
         21    1    1    2  504  502  0.68675690394E+02 -0.10130824322E+03  0.89029346293E+03  0.89866687973E+03  0.00000000000E+00 0.  1.
         21    1    1    2  505  503  0.99614276573E+01  0.45447383205E+02  0.95786634623E+02  0.10648837520E+03  0.00000000000E+00 0. -1.
         -1    1    1    2    0  504 -0.71048818022E+02  0.20147767247E+02 -0.22414145880E+03  0.23599419616E+03  0.00000000000E+00 0.  1.
<scales pt_clust_3="36.51037" pt_clust_4="95.71449" pt_clust_5="47.27024" pt_clust_6="14000.00000"></scales>
<clustering>
<clus scale="   36.510">  2  3  1 -1</clus>
<clus scale="   47.270">  1  5  2 -1</clus>
<clus scale="   95.714">  1  4  2 -1</clus>
<clus scale="   47.270">  1  3  2 -1</clus>
</clustering>
</event>
<event>
 6    0  0.1230761E+002  0.1103592E+03  0.7546771E-02  0.1259906E+00
          1   -1    0    0  504    0 -0.00000000000E+00  0.00000000000E+00  0.44837280663E+03  0.44837280663E+03  0.00000000000E+00 0.  1.
         21   -1    0    0  503  502  0.00000000000E+00 -0.00000000000E+00 -0.25164083827E+03  0.25164083827E+03  0.00000000000E+00 0. -1.
         21    1    1    2  503  501 -0.71461513533E+02  0.54785131602E+01 -0.18872038084E+03  0.20187160317E+03  0.00000000000E+00 0. -1.
         21    1    1    2  504  505 -0.79507660422E+01  0.30236677770E+02  0.13917084958E+02  0.34222165579E+02  0.00000000000E+00 0. -1.
         21    1    1    2  505  502 -0.41227026105E+02 -0.21543788574E+02 -0.22438426001E+02  0.51645769130E+02  0.00000000000E+00 0. -1.
          1    1    1    2  501    0  0.12063930568E+03 -0.14171402356E+02  0.39397369024E+03  0.41227410703E+03  0.00000000000E+00 0.  1.
<scales pt_clust_3="110.35918" pt_clust_4="31.26454" pt_clust_5="46.28913" pt_clust_6="14000.00000"></scales>
<clustering>
<clus scale="   31.265">  1  4  2 -1</clus>
<clus scale="   46.289">  2  5  1 -1</clus>
<clus scale="  110.359">  2  3  1 -1</clus>
<clus scale="   46.289">  2  3  1 -1</clus>
</clustering>
</event>
<event>
 6    0  0.1230761E+002  0.1166800E+03  0.7546771E-02  0.1248677E+00
          2   -1    0    0  503    0 -0.00000000000E+00  0.00000000000E+00  0.11041413150E+04  0.11041413150E+04  0.00000000000E+00 0.  1.
         21   -1    0    0  505  502  0.00000000000E+00 -0.00000000000E+00 -0.73511148256E+03  0.73511148256E+03  0.00000000000E+00 0.  1.
         21    1    1    2  503  504  0.73706256934E+01 -0.33300590042E+02  0.62532837601E+02  0.71229286102E+02  0.00000000000E+00 0.  1.
         21    1    1    2  504  502  0.22765680708E+02 -0.43829131233E+02 -0.38103336571E+03  0.38422089317E+03  0.00000000000E+00 0.  1.
         21    1    1    2  505  501 -0.59663520373E+02  0.15410493744E+03 -0.32675870334E+03  0.36616842793E+03  0.00000000000E+00 0.  1.
          2    1    1    2  501    0  0.29527213972E+02 -0.76975216168E+02  0.10142890638E+04  0.10176341903E+04  0.00000000000E+00 0.  1.
<scales pt_clust_3="34.10653" pt_clust_4="49.43958" pt_clust_5="116.67997" pt_clust_6="14000.00000"></scales>
<clustering>
<clus scale="   34.107">  1  3  2 -1</clus>
<clus scale="   49.440">  2  4  1 -1</clus>
<clus scale="  116.680">  2  5  1 -1</clus>
<clus scale="   49.440">  2  3  1 -1</clus>
</clustering>
</event>
<event>
 6    0  0.1230761E+002  0.1607519E+03  0.7546771E-02  0.1187851E+00
         21   -1    0    0  501  502  0.00000000000E+00  0.00000000000E+00  0.10306819030E+04  0.10306819030E+04  0.00000000000E+00 0. -1.
          2   -1    0    0  504    0 -0.00000000000E+00 -0.00000000000E+00 -0.16191515812E+03  0.16191515812E+03  0.00000000000E+00 0.  1.
         21    1    1    2  503  502 -0.28079875773E+02  0.32623340298E+02  0.25800578205E+03  0.26157168296E+03  0.00000000000E+00 0. -1.
         21    1    1    2  504  505 -0.87125910272E+02  0.52738192003E+02  0.18428589269E+03  0.21055529293E+03  0.00000000000E+00 0. -1.
         21    1    1    2  505  503 -0.16998092477E+02  0.32558996422E+02  0.51921368852E+03  0.52051116967E+03  0.00000000000E+00 0. -1.
          2    1    1    2  501    0  0.13220387852E+03 -0.11792052872E+03 -0.92738618356E+02  0.19995891559E+03  0.00000000000E+00 0.  1.
<scales pt_clust_3="87.08320" pt_clust_4="160.75187" pt_clust_5="33.34080" pt_clust_6="14000.00000"></scales>
<clustering>
<clus scale="   33.341">  3  5 -1 -1</clus>
<clus scale="   87.083">  1  3  2 -1</clus>
<clus scale="  160.752">  1  4  2 -1</clus>
<clus scale="   87.083">  1  3  2 -1</clus>
</clustering>
</event>
<event>
 6    0  0.1230761E+002  0.9060487E+02  0.7546771E-02  0.1301393E+00
         21   -1    0    0  505  502  0.00000000000E+00  0.00000000000E+00  0.32277746302E+04  0.32277746302E+04  0.00000000000E+00 0. -1.
          3   -1    0    0  504    0 -0.00000000000E+00 -0.00000000000E+00 -0.12044399708E+03  0.12044399708E+03  0.00000000000E+00 0. -1.
         21    1    1    2  503  502  0.44567057347E+02  0.70277530169E+02  0.29976963797E+04  0.29988512365E+04  0.00000000000E+00 0. -1.
         21    1    1    2  504  503  0.75742047189E+02  0.15802136022E+02  0.21052158440E+02  0.80185775485E+02  0.00000000000E+00 0. -1.
         21    1    1    2  505  501 -0.30309043587E+02 -0.45292333596E+02  0.14534552063E+03  0.15522678240E+03  0.00000000000E+00 0.  1.
          3    1    1    2  501    0 -0.90000060949E+02 -0.40787332595E+02 -0.56763425574E+02  0.11395483296E+03  0.00000000000E+00 0. -1.
<scales pt_clust_3="30.16658" pt_clust_4="90.60487" pt_clust_5="54.49801" pt_clust_6="14000.00000"></scales>
<clustering>
<clus scale="   54.498">  1  5  2 -1</clus>
<clus scale="   30.167">  1  3  2 -1</clus>
<clus scale="   90.605">  1  4  2 -1</clus>
<clus scale="   54.498">  1  3  2 -1</clus>
</clustering>
</event>
<event>
 6    0  0.1230761E+002  0.1169525E+03  0.7546771E-02  0.1248211E+00
          2   -1    0    0  504    0 -0.00000000000E+00  0.00000000000E+00  0.40889537189E+03  0.40889537189E+03  0.00000000000E+00 0.  1.
         21   -1    0    0  505  502  0.00000000000E+00 -0.00000000000E+00 -0.15338058158E+04  0.15338058158E+04  0.00000000000E+00 0. -1.
         21    1    1    2  503  502  0.96935886081E+01 -0.48664597499E+02 -0.12842274702E+03  0.13767574464E+03  0.00000000000E+00 0. -1.
         21    1    1    2  504  503  0.27738129310E+02 -0.32100485026E+02  0.49261031570E+02  0.65011492737E+02  0.00000000000E+00 0.  1.
         21    1    1    2  505  501  0.10203154527E+03  0.15281559035E+02 -0.13737554089E+04  0.13776240001E+04  0.00000000000E+00 0. -1.
          2    1    1    2  501    0 -0.13946326319E+03  0.65483523490E+02  0.32800668040E+03  0.36238995022E+03  0.00000000000E+00 0.  1.
<scales pt_clust_3="50.10674" pt_clust_4="42.42458" pt_clust_5="14000.00000" pt_clust_6="116.95254"></scales>
<clustering>
<clus scale="   42.425">  1  4  2 -1</clus>
<clus scale="   50.107">  2  3  1 -1</clus>
<clus scale="  116.953">  1  6  2 -1</clus>
<clus scale="   50.107">  2  3  1 -1</clus>
</clustering>
</event>
<event>
 6    0  0.1230761E+002  0.3406725E+03  0.7546771E-02  0.1066510E+00
         21   -1    0    0  503  502  0.00000000000E+00  0.00000000000E+00  0.77765037315E+03  0.77765037315E+03  0.00000000000E+00 0.  1.
          2   -1    0    0  504    0 -0.00000000000E+00 -0.00000000000E+00 -0.15168202777E+04  0.15168202777E+04  0.00000000000E+00 0. -1.
         21    1    1    2  503  505 -0.87250768379E+02  0.12098618332E+03  0.23428486422E+03  0.27774043771E+03  0.00000000000E+00 0.  1.
         21    1    1    2  504  502 -0.61856883349E+02  0.91078704942E+01 -0.38107946706E+02  0.73221874633E+02  0.00000000000E+00 0. -1.
         21    1    1    2  505  501 -0.73705203634E+02  0.16764249713E+03  0.46229149668E+03  0.49724228681E+03  0.00000000000E+00 0. -1.
          2    1    1    2  501    0  0.22281285536E+03 -0.29773655094E+03 -0.13976383188E+04  0.14462660517E+04  0.00000000000E+00 0. -1.
<scales pt_clust_3="70.94746" pt_clust_4="62.52381" pt_clust_5="70.94746" pt_clust_6="331.49883"></scales>
<clustering>
<clus scale="   62.524">  2  4  1 -1</clus>
<clus scale="   70.947">  3  5 -1 -1</clus>
<clus scale="  331.499">  2  6  1 -1</clus>
<clus scale="  340.672">  1  3  2 -1</clus>
</clustering>
</event>
<event>
 6    0  0.1230761E+002  0.1130525E+03  0.7546771E-02  0.1255019E+00
         -3   -1    0    0    0  501 -0.00000000000E+00  0.00000000000E+00  0.18264249244E+03  0.18264249244E+03  0.00000000000E+00 0.  1.
         21   -1    0    0  505  502  0.00000000000E+00 -0.00000000000E+00 -0.16712848881E+04  0.16712848881E+04  0.00000000000E+00 0.  1.
         21    1    1    2  503  502  0.50560156581E+02 -0.83240367466E+01 -0.89479499767E+02  0.10311255937E+03  0.00000000000E+00 0. -1.
         21    1    1    2  504  501 -0.15794689344E+03 -0.55357356303E+02 -0.14673958797E+04  0.14769097216E+04  0.00000000000E+00 0.  1.
         21    1    1    2  505  504 -0.19985592198E+01  0.37971934275E+02 -0.79599709578E+02  0.88215507687E+02  0.00000000000E+00 0.  1.
         -3    1    1    2    0  503  0.10938529608E+03  0.25709458774E+02  0.14783269343E+03  0.18568959183E+03  0.00000000000E+00 0.  1.
<scales pt_clust_3="50.79696" pt_clust_4="113.05245" pt_clust_5="38.02449" pt_clust_6="14000.00000"></scales>
<clustering>
<clus scale="   38.024">  2  5  1 -1</clus>
<clus scale="   50.797">  2  3  1 -1</clus>
<clus scale="  113.052">  2  4  1 -1</clus>
<clus scale="   38.024">  2  3  1 -1</clus>
</clustering>
</event>
<event>
 6    0  0.1230761E+002  0.7923045E+02  0.7546771E-02  0.1331250E+00
         -3   -1    0    0    0  501 -0.00000000000E+00  0.00000000000E+00  0.12156879038E+03  0.12156879038E+03  0.00000000000E+00 0. -1.
         21   -1    0    0  503  502  0.00000000000E+00 -0.00000000000E+00 -0.10016843958E+04  0.10016843958E+04  0.00000000000E+00 0. -1.
         21    1    1    2  503  504 -0.16425230670E+02  0.79469886010E+02 -0.80901973432E+03  0.81307944354E+03  0.00000000000E+00 0. -1.
         21    1    1    2  504  505 -0.55751913227E+02 -0.75670317756E+02 -0.15818395361E+03  0.18400118477E+03  0.00000000000E+00 0. -1.
         21    1    1    2  505  501  0.34263555861E+02  0.11662098361E+02  0.79308624797E+01  0.37052589358E+02  0.00000000000E+00 0. -1.
         -3    1    1    2    0  502  0.37913588036E+02 -0.15461666615E+02  0.79157220068E+02  0.89119968476E+02  0.00000000000E+00 0. -1.
<scales pt_clust_3="79.23045" pt_clust_4="14000.00000" pt_clust_5="36.19386" pt_clust_6="67.24111"></scales>
<clustering>
<clus scale="   36.194">  1  5  2 -1</clus>
<clus scale="   67.241">  1  6  2 -1</clus>
<clus scale="   79.230">  2  3  1 -1</clus>
<clus scale="   79.230">  2  3  1 -1</clus>
</clustering>
</event>
<event>
 6    0  0.1230761E+002  0.1410944E+03  0.7546771E-02  0.1211864E+00
         21   -1    0    0  503  502  0.00000000000E+00  0.00000000000E+00  0.98218321414E+02  0.98218321414E+02  0.00000000000E+00 0.  1.
          2   -1    0    0  504    0 -0.00000000000E+00 -0.00000000000E+00 -0.26880315060E+04  0.26880315060E+04  0.00000000000E+00 0.  1.
         21    1    1    2  503  505 -0.24774335725E+02 -0.20747612297E+02 -0.58828035565E+02  0.67119065064E+02  0.00000000000E+00 0.  1.
         21    1    1    2  504  502  0.14867051501E+02  0.11291284186E+03  0.47071966841E+02  0.12323193231E+03  0.00000000000E+00 0.  1.
         21    1    1    2  505  501 -0.73411920777E+02  0.60324709955E+02 -0.40898768344E+03  0.41988010902E+03  0.00000000000E+00 0.  1.
          2    1    1    2  501    0  0.83319205000E+02 -0.15248993952E+03 -0.21690694324E+04  0.21760187210E+04  0.00000000000E+00 0.  1.
<scales pt_clust_3="32.31457" pt_clust_4="94.43564" pt_clust_5="14000.00000" pt_clust_6="141.09435"></scales>
<clustering>
<clus scale="   32.315">  1  3  2 -1</clus>
<clus scale="   94.436">  1  4  2 -1</clus>
<clus scale="  141.094">  2  6  1 -1</clus>
<clus scale="   32.315">  1  3  2 -1</clus>
</clustering>
</event>
<event>
 6    0  0.1230761E+002  0.2922863E+03  0.7546771E-02  0.1089161E+00
         21   -1    0    0  501  502  0.00000000000E+00  0.00000000000E+00  0.15229080392E+03  0.15229080392E+03  0.00000000000E+00 0. -1.
          1   -1    0    0  503    0 -0.00000000000E+00 -0.00000000000E+00 -0.15371378130E+04  0.15371378130E+04  0.00000000000E+00 0. -1.
         21    1    1    2  503  504 -0.28441500945E+02 -0.17529176475E+02 -0.77257936057E+02  0.84172321387E+02  0.00000000000E+00 0. -1.
         21    1    1    2  504  505  0.14015496017E+02  0.59671954521E+02 -0.83155075924E+03  0.83380683703E+03  0.00000000000E+00 0. -1.
         21    1    1    2  505  502 -0.21595628793E+03 -0.20653632012E+03 -0.13397616287E+03  0.32748126976E+03  0.00000000000E+00 0. -1.
          1    1    1    2  501    0  0.23038229285E+03  0.16439354208E+03 -0.34206215091E+03  0.44396818875E+03  0.00000000000E+00 0. -1.
<scales pt_clust_3="33.40944" pt_clust_4="49.70076" pt_clust_5="14000.00000" pt_clust_6="292.28632"></scales>
<clustering>
<clus scale="   33.409">  2  3  1 -1</clus>
<clus scale="   49.701">  2  4  1 -1</clus>
<clus scale="  292.286">  2  6  1 -1</clus>
<clus scale="  292.286">  1  3  2 -1</clus>
</clustering>
</event>
<event>
 6    0  0.1230761E+002  0.1384203E+03  0.7546771E-02  0.1215471E+00
          1   -1    0    0  505    0 -0.00000000000E+00  0.00000000000E+00  0.28110651964E+03  0.28110651964E+03  0.00000000000E+00 0.  1.
         21   -1    0    0  501  502  0.00000000000E+00 -0.00000000000E+00 -0.33161490117E+03  0.33161490117E+03  0.00000000000E+00 0.  1.
         21    1    1    2  503  504 -0.12839483524E+03  0.22009482376E+02 -0.22743884624E+03  0.26210318542E+03  0.00000000000E+00 0.  1.
         21    1    1    2  504  502 -0.10363083761E+02 -0.44901871664E+02 -0.21123381755E+02  0.50692887477E+02  0.00000000000E+00 0.  1.
         21    1    1    2  505  503  0.72009253659E+01 -0.66035436080E+02  0.59859322018E+02  0.89418513614E+02  0.00000000000E+00 0.  1.
          1    1    1    2  501    0  0.13155699363E+03  0.88927825369E+02  0.13819452445E+03  0.21050683430E+03  0.00000000000E+00 0.  1.
<scales pt_clust_3="14000.00000" pt_clust_4="46.08223" pt_clust_5="68.60593" pt_clust_6="138.42028"></scales>
<clustering>
<clus scale="   46.082">  2  4  1 -1</clus>
<clus scale="   68.606">  1  5  2 -1</clus>
<clus scale="  138.420">  1  6  2 -1</clus>
<clus scale="   46.082">  2  3  1 -1</clus>
</clustering>
</event>
<event>
 6    0  0.1230761E+002  0.1184652E+03  0.7546771E-02  0.1245651E+00
         21   -1    0    0  505  502  0.00000000000E+00  0.00000000000E+00  0.16849422797E+04  0.16849422797E+04  0.00000000000E+00 0. -1.
         -3   -1    0    0    0  501 -0.00000000000E+00 -0.00000000000E+00 -0.70410441819E+02  0.70410441819E+02  0.00000000000E+00 0. -1.
         21    1    1    2  503  502  0.10959791854E+03 -0.65620641270E+02  0.12929063097E+04  0.12992014847E+04  0.00000000000E+00 0. -1.
         21    1    1    2  504  503  0.22907677455E+02  0.34014824988E+02  0.39931205440E+01  0.41203337450E+02  0.00000000000E+00 0. -1.
         21    1    1    2  505  501 -0.10445067393E+03 -0.42009337260E+02  0.31675051853E+03  0.33616308348E+03  0.00000000000E+00 0. -1.
         -3    1    1    2    0  504 -0.28054922066E+02  0.73615153542E+02  0.88188913063E+00  0.78784815869E+02  0.00000000000E+00 0. -1.
<scales pt_clust_3="106.16642" pt_clust_4="37.92274" pt_clust_5="112.58209" pt_clust_6="37.92274"></scales>
<clustering>
<clus scale="   37.923">  4  6 -1 -1</clus>
<clus scale="  112.582">  1  5  2 -1</clus>
<clus scale="  106.166">  1  3  2 -1</clus>
<clus scale="  112.582">  1  3  2 -1</clus>
</clustering>
</event>
<event>
 6    0  0.1230761E+002  0.7865648E+02  0.7546771E-02  0.1332908E+00
         -1   -1    0    0    0  501 -0.00000000000E+00  0.00000000000E+00  0.24154175837E+03  0.24154175837E+03  0.00000000000E+00 0. -1.
         21   -1    0    0  504  502  0.00000000000E+00 -0.00000000000E+00 -0.48178898988E+03  0.48178898988E+03  0.00000000000E+00 0.  1.
         21    1    1    2  503  502 -0.57943818321E+02  0.11227001486E+02 -0.37427765466E+03  0.37890275062E+03  0.00000000000E+00 0.  1.
         21    1    1    2  504  505 -0.13244545326E+02 -0.28827372339E+02 -0.63724246539E+02  0.71184373101E+02  0.00000000000E+00 0.  1.
         21    1    1    2  505  501  0.60354809481E+02 -0.65527635286E+02  0.46943175865E+02  0.10069873770E+03  0.00000000000E+00 0.  1.
         -1    1    1    2    0  503  0.10833554166E+02  0.83128006140E+02  0.15081149383E+03  0.17254488683E+03  0.00000000000E+00 0. -1.
<scales pt_clust_3="71.56596" pt_clust_4="31.72437" pt_clust_5="78.65648" pt_clust_6="14000.00000"></scales>
<clustering>
<clus scale="   31.724">  2  4  1 -1</clus>
<clus scale="   71.566">  2  3  1 -1</clus>
<clus scale="   78.656">  2  5  1 -1</clus>
<clus scale="   31.724">  2  3  1 -1</clus>
</clustering>
</event>
<event>
 6    0  0.1230761E+002  0.9789688E+02  0.7546771E-02  0.1284782E+00
         21   -1    0    0  503  502  0.00000000000E+00  0.00000000000E+00  0.15942561894E+03  0.15942561894E+03  0.00000000000E+00 0. -1.
         -1   -1    0    0    0  501 -0.00000000000E+00 -0.00000000000E+00 -0.15003721693E+04  0.15003721693E+04  0.00000000000E+00 0. -1.
         21    1    1    2  503  505 -0.11519234754E+02 -0.28774850968E+02 -0.65048205725E+01  0.31670135905E+02  0.00000000000E+00 0. -1.
         21    1    1    2  504  501  0.11426168989E+03  0.71914706897E+02 -0.30632090350E+03  0.33475357320E+03  0.00000000000E+00 0. -1.
         21    1    1    2  505  504 -0.89346297095E+01 -0.32537838152E+02  0.12852578618E+03  0.13288121099E+03  0.00000000000E+00 0. -1.
         -1    1    1    2    0  502 -0.93807825429E+02 -0.10602017776E+02 -0.11566466124E+04  0.11604928681E+04  0.00000000000E+00 0. -1.
<scales pt_clust_3="30.99492" pt_clust_4="97.89688" pt_clust_5="61.23398" pt_clust_6="14000.00000"></scales>
<clustering>
<clus scale="   30.995">  1  3  2 -1</clus>
<clus scale="   61.234">  1  5  2 -1</clus>
<clus scale="   97.897">  1  4  2 -1</clus>
<clus scale="   30.995">  1  3  2 -1</clus>
</clustering>
</event>
<event>
 6    0  0.1230761E+002  0.1334480E+03  0.7546771E-02  0.1222427E+00
          2   -1    0    0  504    0 -0.00000000000E+00  0.00000000000E+00  0.44235176417E+03  0.44235176417E+03  0.00000000000E+00 0. -1.
         21   -1    0    0  503  502  0.00000000000E+00 -0.00000000000E+00 -0.76831285939E+03  0.76831285939E+03  0.00000000000E+00 0. -1.
         21    1    1    2  503  501 -0.12487528088E+03  0.35112283762E+02 -0.64291233621E+03  0.65586811197E+03  0.00000000000E+00 0. -1.
         21    1    1    2  504  505  0.22795922811E+02  0.29570946090E+02  0.21268790036E+02  0.42970412833E+02  0.00000000000E+00 0. -1.
         21    1    1    2  505  502 -0.26472626566E+01 -0.83100302501E+02 -0.83608859447E+02  0.11791144836E+03  0.00000000000E+00 0. -1.
          2    1    1    2  501    0  0.10472662073E+03  0.18417072650E+02  0.37929131040E+03  0.39391465040E+03  0.00000000000E+00 0. -1.
<scales pt_clust_3="133.44804" pt_clust_4="37.33758" pt_clust_5="81.88151" pt_clust_6="14000.00000"></scales>
<clustering>
<clus scale="   37.338">  1  4  2 -1</clus>
<clus scale="   81.882">  2  5  1 -1</clus>
<clus scale="  133.448">  2  3  1 -1</clus>
<clus scale="   81.882">  2  3  1 -1</clus>
</clustering>
</event>
<event>
 6    0  0.1230761E+002  0.4504498E+03  0.7546771E-02  0.1027588E+00
          2   -1    0    0  503    0 -0.00000000000E+00  0.00000000000E+00  0.83803850278E+03  0.83803850278E+03  0.00000000000E+00 0.  1.
         21   -1    0    0  501  502  0.00000000000E+00 -0.00000000000E+00 -0.29163051317E+03  0.29163051317E+03  0.00000000000E+00 0.  1.
         21    1    1    2  503  505  0.26091285383E+02 -0.35375975868E+02  0.14039525784E+03  0.14711574785E+03  0.00000000000E+00 0. -1.
         21    1    1    2  504  502 -0.10790318965E+03 -0.36030083150E+03  0.23947292511E+03  0.44587786374E+03  0.00000000000E+00 0.  1.
         21    1    1    2  505  504  0.12369536882E+02 -0.53687396246E+02  0.11582630038E+02  0.56298306164E+02  0.00000000000E+00 0.  1.
          2    1    1    2  501    0  0.69442367383E+02  0.44936420361E+03  0.15495717663E+03  0.48037709819E+03  0.00000000000E+00 0.  1.
<scales pt_clust_3="43.95697" pt_clust_4="35.57357" pt_clust_5="35.57357" pt_clust_6="440.75613"></scales>
<clustering>
<clus scale="   35.574">  4  5 -1 -1</clus>
<clus scale="   43.957">  1  3  2 -1</clus>
<clus scale="  440.756">  2  6  1 -1</clus>
<clus scale="  440.756">  2  3  1 -1</clus>
</clustering>
</event>
<event>
 6    0  0.1230761E+002  0.6423333E+02  0.7546771E-02  0.1380879E+00
          2   -1    0    0  504    0 -0.00000000000E+00  0.00000000000E+00  0.37070826094E+03  0.37070826094E+03  0.00000000000E+00 0.  1.
         21   -1    0    0  505  502  0.00000000000E+00 -0.00000000000E+00 -0.14508199925E+04  0.14508199925E+04  0.00000000000E+00 0. -1.
         21    1    1    2  503  502  0.24168953210E+01  0.84901152048E+02 -0.75279990275E+03  0.75757622757E+03  0.00000000000E+00 0. -1.
         21    1    1    2  504  503  0.84346898861E+02 -0.46950335775E+02  0.65062946845E+02  0.11641271592E+03  0.00000000000E+00 0. -1.
         21    1    1    2  505  501 -0.45782881253E+02 -0.38971374311E+02 -0.66708416423E+03  0.66978811754E+03  0.00000000000E+00 0. -1.
          2    1    1    2  501    0 -0.40980912929E+02  0.10205580380E+01  0.27470938853E+03  0.27775119246E+03  0.00000000000E+00 0.  1.
<scales pt_clust_3="64.23333" pt_clust_4="14000.00000" pt_clust_5="60.56190" pt_clust_6="40.99362"></scales>
<clustering>
<clus scale="   40.994">  1  6  2 -1</clus>
<clus scale="   60.562">  2  5  1 -1</clus>
<clus scale="   64.233">  2  3  1 -1</clus>
<clus scale="   60.562">  2  3  1 -1</clus>
</clustering>
</event>
<event>
 6    0  0.1230761E+002  0.6665691E+02  0.7546771E-02  0.1371845E+00
          2   -1    0    0  503    0 -0.00000000000E+00  0.00000000000E+00  0.12925691730E+04  0.12925691730E+04  0.00000000000E+00 0.  1.
         21   -1    0    0  504  502  0.00000000000E+00 -0.00000000000E+00 -0.55230215165E+02  0.55230215165E+02  0.00000000000E+00 0.  1.
         21    1    1    2  503  505 -0.25845824797E+02 -0.41395964607E+02  0.21270817902E+03  0.21823474051E+03  0.00000000000E+00 0.  1.
         21    1    1    2  504  501  0.17164214583E+02  0.58706413956E+02  0.71331440944E+01  0.61578689874E+02  0.00000000000E+00 0.  1.
         21    1    1    2  505  502  0.43311995068E+02 -0.83247155901E+02  0.68774855730E+02  0.11634431083E+03  0.00000000000E+00 0.  1.
          2    1    1    2  501    0 -0.34630384855E+02  0.65936706552E+02  0.94872277904E+03  0.95164164700E+03  0.00000000000E+00 0.  1.
<scales pt_clust_3="48.80197" pt_clust_4="59.66695" pt_clust_5="66.65691" pt_clust_6="14000.00000"></scales>
<clustering>
<clus scale="   48.802">  1  3  2 -1</clus>
<clus scale="   59.667">  2  4  1 -1</clus>
<clus scale="   66.657">  2  5  1 -1</clus>
<clus scale="   59.667">  2  3  1 -1</clus>
</clustering>
</event>
<event>
 6    0  0.1230761E+002  0.1103522E+03  0.7546771E-02  0.1259919E+00
          1   -1    0    0  504    0 -0.00000000000E+00  0.00000000000E+00  0.12968251929E+04  0.12968251929E+04  0.00000000000E+00 0. -1.
         21   -1    0    0  503  502  0.00000000000E+00 -0.00000000000E+00 -0.15918421437E+03  0.15918421437E+03  0.00000000000E+00 0.  1.
         21    1    1    2  503  505 -0.12605963277E+03 -0.75246293027E+02 -0.10915883704E+03  0.18294449249E+03  0.00000000000E+00 0.  1.
         21    1    1    2  504  502  0.31476364259E+02  0.12464112079E+02  0.24252033403E+02  0.41644648169E+02  0.00000000000E+00 0.  1.
         21    1    1    2  505  501  0.53881532637E+02  0.59500446509E+02  0.40640554044E+03  0.41425714960E+03  0.00000000000E+00 0.  1.
          1    1    1    2  501    0  0.40701735876E+02  0.32817344382E+01  0.81614224173E+03  0.81716311702E+03  0.00000000000E+00 0. -1.
<scales pt_clust_3="14000.00000" pt_clust_4="33.85433" pt_clust_5="110.35216" pt_clust_6="40.94365"></scales>
<clustering>
<clus scale="   33.854">  2  4  1 -1</clus>
<clus scale="   40.944">  1  6  2 -1</clus>
<clus scale="  110.352">  1  5  2 -1</clus>
<clus scale="   33.854">  2  3  1 -1</clus>
</clustering>
</event>
<event>
 6    0  0.1230761E+002  0.1159222E+03  0.7546771E-02  0.1249980E+00
         21   -1    0    0  504  502  0.00000000000E+00  0.00000000000E+00  0.46985686718E+03  0.46985686718E+03  0.00000000000E+00 0. -1.
         -1   -1    0    0    0  501 -0.00000000000E+00 -0.00000000000E+00 -0.59911844299E+02  0.59911844299E+02  0.00000000000E+00 0. -1.
         21    1    1    2  503  501 -0.26404456038E+02  0.14574691376E+02 -0.25973193178E+02  0.39802307612E+02  0.00000000000E+00 0. -1.
         21    1    1    2  504  505  0.17581018379E+02  0.31536685612E+02  0.66054938218E+02  0.75278878908E+02  0.00000000000E+00 0. -1.
         21    1    1    2  505  503 -0.32569322587E+02  0.61345800748E+02  0.10522464853E+03  0.12608050881E+03  0.00000000000E+00 0. -1.
         -1    1    1    2    0  502  0.41392760246E+02 -0.10745717774E+03  0.26463862932E+03  0.28860701616E+03  0.00000000000E+00 0. -1.
<scales pt_clust_3="30.15986" pt_clust_4="32.88317" pt_clust_5="32.88317" pt_clust_6="105.26565"></scales>
<clustering>
<clus scale="   30.160">  2  3  1 -1</clus>
<clus scale="   32.883">  4  5 -1 -1</clus>
<clus scale="  105.266">  1  6  2 -1</clus>
<clus scale="  105.266">  1  3  2 -1</clus>
</clustering>
</event>
<event>
 6    0  0.1230761E+002  0.2101657E+03  0.7546771E-02  0.1141435E+00
         -4   -1    0    0    0  501 -0.00000000000E+00  0.00000000000E+00  0.22457361874E+03  0.22457361874E+03  0.00000000000E+00 0.  1.
         21   -1    0    0  504  502  0.00000000000E+00 -0.00000000000E+00 -0.68500667422E+03  0.68500667422E+03  0.00000000000E+00 0. -1.
         21    1    1    2  503  505  0.62245795868E+02 -0.83626314890E+02 -0.35039763210E+03  0.36557680482E+03  0.00000000000E+00 0. -1.
         21    1    1    2  504  503  0.15809424421E+02 -0.96941115141E+02 -0.21838373123E+03  0.23945557369E+03  0.00000000000E+00 0. -1.
         21    1    1    2  505  501  0.19827429485E+02 -0.39170179670E+02  0.12991084597E+02  0.45784257277E+02  0.00000000000E+00 0.  1.
         -4    1    1    2    0  502 -0.97882649773E+02  0.21973760970E+03  0.95357223253E+02  0.25876365717E+03  0.00000000000E+00 0.  1.
<scales pt_clust_3="60.46873" pt_clust_4="60.46873" pt_clust_5="43.90250" pt_clust_6="200.78566"></scales>
<clustering>
<clus scale="   43.903">  1  5  2 -1</clus>
<clus scale="   60.469">  3  4 -1 -1</clus>
<clus scale="  200.786">  1  6  2 -1</clus>
<clus scale="  210.166">  2  3  1 -1</clus>
</clustering>
</event>
<event>
 6    0  0.1230761E+002  0.7207911E+02  0.7546771E-02  0.1353162E+00
          2   -1    0    0  504    0 -0.00000000000E+00  0.00000000000E+00  0.16113386074E+04  0.16113386074E+04  0.00000000000E+00 0. -1.
         21   -1    0    0  503  502  0.00000000000E+00 -0.00000000000E+00 -0.23747369557E+03  0.23747369557E+03  0.00000000000E+00 0. -1.
         21    1    1    2  503  501  0.21967064285E+02  0.25382352525E+02 -0.11064748059E+02  0.35344651401E+02  0.00000000000E+00 0.  1.
         21    1    1    2  504  505  0.71940721393E+02 -0.80536115795E+02  0.81181941833E+03  0.81897026889E+03  0.00000000000E+00 0.  1.
         21    1    1    2  505  502 -0.31143950183E+02  0.46197626095E+02 -0.20569949861E+03  0.21311135591E+03  0.00000000000E+00 0. -1.
          2    1    1    2  501    0 -0.62763835494E+02  0.89561371748E+01  0.77880974019E+03  0.78138602678E+03  0.00000000000E+00 0. -1.
<scales pt_clust_3="33.56808" pt_clust_4="72.07911" pt_clust_5="14000.00000" pt_clust_6="63.29066"></scales>
<clustering>
<clus scale="   33.568">  2  3  1 -1</clus>
<clus scale="   63.291">  1  6  2 -1</clus>
<clus scale="   72.079">  1  4  2 -1</clus>
<clus scale="   33.568">  2  3  1 -1</clus>
</clustering>
</event>
<event>
 6    0  0.1230761E+002  0.1035472E+03  0.7546771E-02  0.1273009E+00
         -4   -1    0    0    0  501 -0.00000000000E+00  0.00000000000E+00  0.30468169187E+03  0.30468169187E+03  0.00000000000E+00 0.  1.
         21   -1    0    0  503  502  0.00000000000E+00 -0.00000000000E+00 -0.20112075230E+04  0.20112075230E+04  0.00000000000E+00 0. -1.
         21    1    1    2  503  501  0.13551361156E+03 -0.64672831592E+02 -0.18278646738E+04  0.18340217501E+04  0.00000000000E+00 0. -1.
         21    1    1    2  504  505 -0.96190992062E+02  0.59786308353E+01  0.23544973728E+02  0.99210971008E+02  0.00000000000E+00 0.  1.
         21    1    1    2  505  502 -0.39376773675E+02  0.26185227428E+02 -0.13735695376E+03  0.14526916117E+03  0.00000000000E+00 0.  1.
         -4    1    1    2    0  504  0.54154178692E-01  0.32508973329E+02  0.23515082268E+03  0.23738733262E+03  0.00000000000E+00 0.  1.
<scales pt_clust_3="14000.00000" pt_clust_4="103.54715" pt_clust_5="48.35220" pt_clust_6="32.50902"></scales>
<clustering>
<clus scale="   32.509">  1  6  2 -1</clus>
<clus scale="   48.352">  2  5  1 -1</clus>
<clus scale="  103.547">  1  4  2 -1</clus>
<clus scale="   48.352">  2  3  1 -1</clus>
</clustering>
</event>
<event>
 6    0  0.1230761E+002  0.1528215E+03  0.7546771E-02  0.1197048E+00
         21   -1    0    0  503  502  0.00000000000E+00  0.00000000000E+00  0.29499489635E+04  0.29499489635E+04  0.00000000000E+00 0. -1.
          2   -1    0    0  504    0 -0.00000000000E+00 -0.00000000000E+00 -0.12539354191E+04  0.12539354191E+04  0.00000000000E+00 0. -1.
         21    1    1    2  503  501  0.37098936591E+02  0.42543210868E+02  0.19270988142E+04  0.19279253345E+04  0.00000000000E+00 0. -1.
         21    1    1    2  504  505 -0.12223997090E+02 -0.39272938651E+02 -0.62531584064E+03  0.62666712884E+03  0.00000000000E+00 0. -1.
         21    1    1    2  505  502  0.11237077034E+03 -0.79648452206E+01  0.10110824534E+04  0.10173388602E+04  0.00000000000E+00 0. -1.
          2    1    1    2  501    0 -0.13724570984E+03  0.46945730044E+01 -0.61685188256E+03  0.63195305910E+03  0.00000000000E+00 0. -1.
<scales pt_clust_3="56.42216" pt_clust_4="41.13137" pt_clust_5="152.82153" pt_clust_6="14000.00000"></scales>
<clustering>
<clus scale="   41.131">  2  4  1 -1</clus>
<clus scale="   56.422">  1  3  2 -1</clus>
<clus scale="  152.822">  1  5  2 -1</clus>
<clus scale="   56.422">  1  3  2 -1</clus>
</clustering>
</event>
<event>
 6    0  0.1230761E+002  0.2564413E+03  0.7546771E-02  0.1109300E+00
          2   -1    0    0  503    0 -0.00000000000E+00  0.00000000000E+00  0.13281672734E+04  0.13281672734E+04  0.00000000000E+00 0.  1.
         21   -1    0    0  505  502  0.00000000000E+00 -0.00000000000E+00 -0.19751730340E+03  0.19751730340E+03  0.00000000000E+00 0.  1.
         21    1    1    2  503  504  0.39564018159E+02 -0.25641416924E+02  0.24700709671E+02  0.53225171235E+02  0.00000000000E+00 0. -1.
         21    1    1    2  504  502  0.43068347561E+02 -0.12653923471E+03  0.17491252908E+03  0.22013962231E+03  0.00000000000E+00 0. -1.
         21    1    1    2  505  501  0.12908061749E+03 -0.45915688563E+02 -0.10745271571E+03  0.17411531346E+03  0.00000000000E+00 0.  1.
          2    1    1    2  501    0 -0.21171298321E+03  0.19809634020E+03  0.10384894469E+04  0.10782044698E+04  0.00000000000E+00 0.  1.
<scales pt_clust_3="41.55503" pt_clust_4="41.55503" pt_clust_5="137.00385" pt_clust_6="246.71103"></scales>
<clustering>
<clus scale="   41.555">  3  4 -1 -1</clus>
<clus scale="  137.004">  2  5  1 -1</clus>
<clus scale="  246.711">  1  6  2 -1</clus>
<clus scale="  137.004">  2  3  1 -1</clus>
</clustering>
</event>
<event>
 6    0  0.1230761E+002  0.9932568E+02  0.7546771E-02  0.1281720E+00
         21   -1    0    0  501  502  0.00000000000E+00  0.00000000000E+00  0.39743282809E+03  0.39743282809E+03  0.00000000000E+00 0. -1.
          2   -1    0    0  505    0 -0.00000000000E+00 -0.00000000000E+00 -0.12688606928E+04  0.12688606928E+04  0.00000000000E+00 0. -1.
         21    1    1    2  503  504 -0.40232567447E+02  0.52972619164E+02  0.32775786315E+03  0.33443979237E+03  0.00000000000E+00 0. -1.
         21    1    1    2  504  502 -0.26779844345E+02  0.20920095479E+02  0.54970158269E+02  0.64626068719E+02  0.00000000000E+00 0. -1.
         21    1    1    2  505  503 -0.35104958399E+02 -0.55153350939E+01 -0.92532124092E+02  0.99120991795E+02  0.00000000000E+00 0.  1.
          2    1    1    2  501    0  0.10211737019E+03 -0.68377379549E+02 -0.11616237620E+04  0.11681066680E+04  0.00000000000E+00 0. -1.
<scales pt_clust_3="99.32568" pt_clust_4="33.98250" pt_clust_5="35.76285" pt_clust_6="14000.00000"></scales>
<clustering>
<clus scale="   33.983">  1  4  2 -1</clus>
<clus scale="   35.763">  2  5  1 -1</clus>
<clus scale="   99.326">  1  3  2 -1</clus>
<clus scale="   33.983">  1  3  2 -1</clus>
</clustering>
</event>
<event>
 6    0  0.1230761E+002  0.1270145E+03  0.7546771E-02  0.1231954E+00
         21   -1    0    0  505  502  0.00000000000E+00  0.00000000000E+00  0.11363236599E+03  0.11363236599E+03  0.00000000000E+00 0. -1.
          2   -1    0    0  503    0 -0.00000000000E+00 -0.00000000000E+00 -0.13736606423E+04  0.13736606423E+04  0.00000000000E+00 0. -1.
         21    1    1    2  503  502 -0.34755485525E+02 -0.31490574234E+02 -0.76075153725E+03  0.76219584193E+03  0.00000000000E+00 0. -1.
         21    1    1    2  504  501  0.15513354996E+02  0.63780128641E+02  0.53424907190E+02  0.84633265924E+02  0.00000000000E+00 0. -1.
         21    1    1    2  505  504  0.35806262969E+02  0.49103985432E+02  0.18287912524E+02  0.63464459327E+02  0.00000000000E+00 0. -1.
          2    1    1    2  501    0 -0.16564132440E+02 -0.81393539839E+02 -0.57098955879E+03  0.57699944112E+03  0.00000000000E+00 0. -1.
<scales pt_clust_3="46.89989" pt_clust_4="36.17811" pt_clust_5="36.17811" pt_clust_6="121.32185"></scales>
<clustering>
<clus scale="   36.178">  4  5 -1 -1</clus>
<clus scale="   46.900">  2  3  1 -1</clus>
<clus scale="  121.322">  2  6  1 -1</clus>
<clus scale="  127.014">  1  3  2 -1</clus>
</clustering>
</event>
<event>
 6    0  0.1230761E+002  0.1352639E+03  0.7546771E-02  0.1219848E+00
         21   -1    0    0  504  502  0.00000000000E+00  0.00000000000E+00  0.99065062971E+03  0.99065062971E+03  0.00000000000E+00 0. -1.
          1   -1    0    0  505    0 -0.00000000000E+00 -0.00000000000E+00 -0.29342589342E+03  0.29342589342E+03  0.00000000000E+00 0.  1.
         21    1    1    2  503  501 -0.45673017064E+02  0.25023000866E+02 -0.77616562211E+02  0.93469277249E+02  0.00000000000E+00 0. -1.
         21    1    1    2  504  503  0.24704460755E+02 -0.77645579004E+02  0.87638067411E+03  0.88016034464E+03  0.00000000000E+00 0. -1.
         21    1    1    2  505  502  0.68307619492E+02 -0.14546803622E+02  0.82978892375E+02  0.10845753527E+03  0.00000000000E+00 0. -1.
          1    1    1    2  501    0 -0.47339063183E+02  0.67169381759E+02 -0.18451826799E+03  0.20198936598E+03  0.00000000000E+00 0.  1.
<scales pt_clust_3="30.10908" pt_clust_4="129.86862" pt_clust_5="69.83939" pt_clust_6="30.10908"></scales>
<clustering>
<clus scale="   30.109">  3  6 -1 -1</clus>
<clus scale="   69.839">  1  5  2 -1</clus>
<clus scale="  129.869">  1  4  2 -1</clus>
<clus scale="   69.839">  1  3  2 -1</clus>
</clustering>
</event>
<event>
 6    0  0.1230761E+002  0.8490816E+02  0.7546771E-02  0.1315673E+00
          1   -1    0    0  503    0 -0.00000000000E+00  0.00000000000E+00  0.78460723988E+03  0.78460723988E+03  0.00000000000E+00 0.  1.
         21   -1    0    0  501  502  0.00000000000E+00 -0.00000000000E+00 -0.79530339923E+02  0.79530339923E+02  0.00000000000E+00 0.  1.
         21    1    1    2  503  504 -0.34841562102E+02  0.48838025469E+02  0.45127455442E+03  0.45524478102E+03  0.00000000000E+00 0. -1.
         21    1    1    2  504  505  0.20459129400E+02 -0.60075645185E+02  0.15512267964E+02  0.65332148117E+02  0.00000000000E+00 0.  1.
         21    1    1    2  505  502 -0.21860693648E+02 -0.51862936769E+02 -0.31246543746E+02  0.64373912675E+02  0.00000000000E+00 0.  1.
          1    1    1    2  501    0  0.36243126349E+02  0.63100556484E+02  0.26953662132E+03  0.27918673799E+03  0.00000000000E+00 0.  1.
<scales pt_clust_3="58.22198" pt_clust_4="84.90816" pt_clust_5="56.28192" pt_clust_6="14000.00000"></scales>
<clustering>
<clus scale="   56.282">  2  5  1 -1</clus>
<clus scale="   58.222">  1  3  2 -1</clus>
<clus scale="   84.908">  2  4  1 -1</clus>
<clus scale="   56.282">  2  3  1 -1</clus>
</clustering>
</event>
<event>
 6    0  0.1230761E+002  0.1570157E+03  0.7546771E-02  0.1192108E+00
          2   -1    0    0  503    0 -0.00000000000E+00  0.00000000000E+00  0.42589943690E+04  0.42589943690E+04  0.00000000000E+00 0.  1.
         21   -1    0    0  505  502  0.00000000000E+00 -0.00000000000E+00 -0.46666081625E+02  0.46666081625E+02  0.00000000000E+00 0.  1.
         21    1    1    2  503  502  0.69427947616E+02 -0.68928264809E+02  0.12909633324E+04  0.12946650808E+04  0.00000000000E+00 0.  1.
         21    1    1    2  504  501 -0.19783698575E+02  0.46185272529E+02  0.46161127687E+02  0.68229933586E+02  0.00000000000E+00 0.  1.
         21    1    1    2  505  504  0.55802371990E+02  0.91439008898E+02  0.56227901625E+02  0.12098170932E+03  0.00000000000E+00 0.  1.
          2    1    1    2  501    0 -0.10544662103E+03 -0.68696016617E+02  0.28189759256E+04  0.28217837269E+04  0.00000000000E+00 0.  1.
<scales pt_clust_3="97.83325" pt_clust_4="48.81188" pt_clust_5="48.81188" pt_clust_6="139.90775"></scales>
<clustering>
<clus scale="   48.812">  4  5 -1 -1</clus>
<clus scale="   97.833">  1  3  2 -1</clus>
<clus scale="  139.908">  1  6  2 -1</clus>
<clus scale="  157.016">  2  3  1 -1</clus>
</clustering>
</event>
<event>
 6    0  0.1230761E+002  0.9064106E+02  0.7546771E-02  0.1301307E+00
         21   -1    0    0  505  502  0.00000000000E+00  0.00000000000E+00  0.71769217678E+02  0.71769217678E+02  0.00000000000E+00 0.  1.
          1   -1    0    0  504    0 -0.00000000000E+00 -0.00000000000E+00 -0.10730778139E+04  0.10730778139E+04  0.00000000000E+00 0. -1.
         21    1    1    2  503  502  0.40445238024E+01  0.53487115659E+02  0.39534109096E+02  0.66634641864E+02  0.00000000000E+00 0.  1.
         21    1    1    2  504  503 -0.41784630809E+02  0.14779190018E+01 -0.31373013984E+03  0.31650393403E+03  0.00000000000E+00 0. -1.
         21    1    1    2  505  501 -0.65142641077E+02  0.20923431873E+02 -0.96664307111E+02  0.11842863656E+03  0.00000000000E+00 0.  1.
          1    1    1    2  501    0  0.10288274808E+03 -0.75888466534E+02 -0.63044825834E+03  0.64327981909E+03  0.00000000000E+00 0. -1.
<scales pt_clust_3="53.61504" pt_clust_4="41.81076" pt_clust_5="14000.00000" pt_clust_6="90.64106"></scales>
<clustering>
<clus scale="   41.811">  2  4  1 -1</clus>
<clus scale="   53.615">  1  3  2 -1</clus>
<clus scale="   90.641">  2  6  1 -1</clus>
<clus scale="   53.615">  1  3  2 -1</clus>
</clustering>
</event>
<event>
 6    0  0.1230761E+002  0.9759822E+02  0.7546771E-02  0.1285429E+00
         21   -1    0    0  505  502  0.00000000000E+00  0.00000000000E+00  0.46234243622E+03  0.46234243622E+03  0.00000000000E+00 0. -1.
         -3   -1    0    0    0  501 -0.00000000000E+00 -0.00000000000E+00 -0.15443284741E+03  0.15443284741E+03  0.00000000000E+00 0. -1.
         21    1    1    2  503  502  0.33912073492E+02  0.29268051070E+00  0.74085954011E+02  0.81479095307E+02  0.00000000000E+00 0.  1.
         21    1    1    2  504  503  0.60260022559E+02  0.91624831324E+01  0.32624981809E+02  0.69134729724E+02  0.00000000000E+00 0. -1.
         21    1    1    2  505  501  0.12341961387E+02  0.40500800806E+02  0.30581233048E+03  0.30872936425E+03  0.00000000000E+00 0. -1.
         -3    1    1    2    0  504 -0.10651405744E+03 -0.49955964449E+02 -0.10461367748E+03  0.15743209435E+03  0.00000000000E+00 0. -1.
<scales pt_clust_3="33.91334" pt_clust_4="14000.00000" pt_clust_5="56.69830" pt_clust_6="97.59822"></scales>
<clustering>
<clus scale="   33.913">  1  3  2 -1</clus>
<clus scale="   56.698">  1  5  2 -1</clus>
<clus scale="   97.598">  2  6  1 -1</clus>
<clus scale="   33.913">  1  3  2 -1</clus>
</clustering>
</event>
<event>
 6    0  0.1230761E+002  0.1849851E+03  0.7546771E-02  0.1163064E+00
          2   -1    0    0  504    0 -0.00000000000E+00  0.00000000000E+00  0.18030106015E+03  0.18030106015E+03  0.00000000000E+00 0. -1.
         21   -1    0    0  503  502  0.00000000000E+00 -0.00000000000E+00 -0.61840500815E+03  0.61840500815E+03  0.00000000000E+00 0.  1.
         21    1    1    2  503  505  0.20073853390E+02  0.76205242252E+02 -0.26205768707E+03  0.27365019622E+03  0.00000000000E+00 0.  1.
         21    1    1    2  504  502  0.95926848470E+01  0.28940491879E+02 -0.11549440438E+02  0.32603086468E+02  0.00000000000E+00 0.  1.
         21    1    1    2  505  501 -0.18232229353E+02  0.10010753028E+03 -0.24991902068E+03  0.26983967222E+03  0.00000000000E+00 0.  1.
          2    1    1    2  501    0 -0.11434308884E+02 -0.20525326441E+03  0.85422200185E+02  0.22261311340E+03  0.00000000000E+00 0. -1.
<scales pt_clust_3="40.96310" pt_clust_4="30.48888" pt_clust_5="40.96310" pt_clust_6="179.01956"></scales>
<clustering>
<clus scale="   30.489">  1  4  2 -1</clus>
<clus scale="   40.963">  3  5 -1 -1</clus>
<clus scale="  179.020">  1  6  2 -1</clus>
<clus scale="  184.985">  2  3  1 -1</clus>
</clustering>
</event>
<event>
 6    0  0.1230761E+002  0.2255811E+03  0.7546771E-02  0.1129789E+00
          3   -1    0    0  503    0 -0.00000000000E+00  0.00000000000E+00  0.20874116886E+03  0.20874116886E+03  0.00000000000E+00 0.  1.
         21   -1    0    0  504  502  0.00000000000E+00 -0.00000000000E+00 -0.22779923340E+04  0.22779923340E+04  0.00000000000E+00 0.  1.
         21    1    1    2  503  505 -0.38774498615E+02  0.31475429604E+02  0.24954541639E+02  0.55829146152E+02  0.00000000000E+00 0.  1.
         21    1    1    2  504  501 -0.76528505653E+02 -0.53585940376E+02 -0.27245251624E+03  0.28802506625E+03  0.00000000000E+00 0. -1.
         21    1    1    2  505  502 -0.14968260894E+03  0.66860780441E+02 -0.18636924165E+04  0.18708887382E+04  0.00000000000E+00 0.  1.
          3    1    1    2  501    0  0.26498561320E+03 -0.44750269668E+02  0.41939225978E+02  0.27199055226E+03  0.00000000000E+00 0.  1.
<scales pt_clust_3="49.94161" pt_clust_4="94.08437" pt_clust_5="225.58115" pt_clust_6="14000.00000"></scales>
<clustering>
<clus scale="   49.942">  1  3  2 -1</clus>
<clus scale="   94.084">  2  4  1 -1</clus>
<clus scale="  225.581">  2  5  1 -1</clus>
<clus scale="   94.084">  2  3  1 -1</clus>
</clustering>
</event>
<event>
 6    0  0.1230761E+002  0.1498511E+03  0.7546771E-02  0.1200656E+00
          2   -1    0    0  503    0 -0.00000000000E+00  0.00000000000E+00  0.30973426894E+04  0.30973426894E+04  0.00000000000E+00 0.  1.
         21   -1    0    0  504  502  0.00000000000E+00 -0.00000000000E+00 -0.85541005784E+02  0.85541005784E+02  0.00000000000E+00 0.  1.
         21    1    1    2  503  502 -0.10321677573E+03  0.82772405634E+02 -0.17847993103E+02  0.13350477439E+03  0.00000000000E+00 0.  1.
         21    1    1    2  504  505 -0.33549629867E+02 -0.53235641075E+01  0.38290069076E+02  0.51186398475E+02  0.00000000000E+00 0.  1.
         21    1    1    2  505  501  0.10276294535E+03 -0.29938483923E+02  0.95234246236E+03  0.95833851085E+03  0.00000000000E+00 0.  1.
          2    1    1    2  501    0  0.34003460248E+02 -0.47510357604E+02  0.20390171453E+04  0.20398540115E+04  0.00000000000E+00 0.  1.
<scales pt_clust_3="149.85115" pt_clust_4="33.96937" pt_clust_5="14000.00000" pt_clust_6="58.34473"></scales>
<clustering>
<clus scale="   33.969">  2  4  1 -1</clus>
<clus scale="   58.345">  1  6  2 -1</clus>
<clus scale="  149.851">  2  3  1 -1</clus>
<clus scale="   33.969">  2  3  1 -1</clus>
</clustering>
</event>
<event>
 6    0  0.1230761E+002  0.7216806E+02  0.7546771E-02  0.1352872E+00
          2   -1    0    0  503    0 -0.00000000000E+00  0.00000000000E+00  0.17936042025E+03  0.17936042025E+03  0.00000000000E+00 0.  1.
         21   -1    0    0  505  502  0.00000000000E+00 -0.00000000000E+00 -0.62660015829E+03  0.62660015829E+03  0.00000000000E+00 0.  1.
         21    1    1    2  503  504 -0.62916431405E+02  0.39184993792E+02  0.63485438654E+02  0.97592735387E+02  0.00000000000E+00 0.  1.
         21    1    1    2  504  502 -0.18557800243E+02  0.39222067084E+02 -0.21566046377E+03  0.21998226776E+03  0.00000000000E+00 0.  1.
         21    1    1    2  505  501  0.67055466170E+02  0.50051504590E+01 -0.36955816479E+03  0.37562577685E+03  0.00000000000E+00 0.  1.
          2    1    1    2  501    0  0.14418765478E+02 -0.83412211335E+02  0.74493451856E+02  0.11275979854E+03  0.00000000000E+00 0.  1.
<scales pt_clust_3="72.16806" pt_clust_4="43.39081" pt_clust_5="64.61461" pt_clust_6="14000.00000"></scales>
<clustering>
<clus scale="   43.391">  2  4  1 -1</clus>
<clus scale="   64.615">  2  5  1 -1</clus>
<clus scale="   72.168">  1  3  2 -1</clus>
<clus scale="   43.391">  2  3  1 -1</clus>
</clustering>
</event>
<event>
 6    0  0.1230761E+002  0.8688767E+02  0.7546771E-02  0.1310569E+00
         21   -1    0    0  503  502  0.00000000000E+00  0.00000000000E+00  0.65357860321E+02  0.65357860321E+02  0.00000000000E+00 0. -1.
          2   -1    0    0  504    0 -0.00000000000E+00 -0.00000000000E+00 -0.13493751397E+04  0.13493751397E+04  0.00000000000E+00 0. -1.
         21    1    1    2  503  505  0.30949998100E+02 -0.23213428938E+02 -0.48757675386E+02  0.62242080416E+02  0.00000000000E+00 0. -1.
         21    1    1    2  504  502 -0.82100973437E+02  0.12990315623E+03 -0.53972007374E+02  0.16287534319E+03  0.00000000000E+00 0. -1.
         21    1    1    2  505  501  0.24662021814E+02 -0.25997638470E+02 -0.12835121021E+03  0.13325961762E+03  0.00000000000E+00 0. -1.
          2    1    1    2  501    0  0.26488953523E+02 -0.80692088825E+02 -0.10529363864E+04  0.10563559588E+04  0.00000000000E+00 0. -1.
<scales pt_clust_3="82.78500" pt_clust_4="86.88767" pt_clust_5="35.21597" pt_clust_6="14000.00000"></scales>
<clustering>
<clus scale="   35.216">  3  5 -1 -1</clus>
<clus scale="   82.785">  1  3  2 -1</clus>
<clus scale="   86.888">  1  4  2 -1</clus>
<clus scale="   82.785">  1  3  2 -1</clus>
</clustering>
</event>
<event>
 6    0  0.1230761E+002  0.5641117E+02  0.7546771E-02  0.1413541E+00
         21   -1    0    0  504  502  0.00000000000E+00  0.00000000000E+00  0.82804238335E+03  0.82804238335E+03  0.00000000000E+00 0.  1.
          3   -1    0    0  505    0 -0.00000000000E+00 -0.00000000000E+00 -0.47665748207E+03  0.47665748207E+03  0.00000000000E+00 0. -1.
         21    1    1    2  503  502 -0.49182914084E+02 -0.94268257612E+01  0.17515736696E+02  0.53053040570E+02  0.00000000000E+00 0.  1.
         21    1    1    2  504  501  0.36590176017E+02  0.62747601543E+02  0.77495662836E+03  0.77835331201E+03  0.00000000000E+00 0.  1.
         21    1    1    2  505  503 -0.28160160950E+02  0.31967010613E+02 -0.31610623862E+02  0.53048241942E+02  0.00000000000E+00 0.  1.
          3    1    1    2  501    0  0.40752899016E+02 -0.85287786395E+02 -0.40947683991E+03  0.42024527089E+03  0.00000000000E+00 0. -1.
<scales pt_clust_3="50.98556" pt_clust_4="56.41117" pt_clust_5="42.60146" pt_clust_6="14000.00000"></scales>
<clustering>
<clus scale="   42.601">  2  5  1 -1</clus>
<clus scale="   50.986">  1  3  2 -1</clus>
<clus scale="   56.411">  1  4  2 -1</clus>
<clus scale="   50.986">  1  3  2 -1</clus>
</clustering>
</event>
<event>
 6    0  0.1230761E+002  0.1014120E+03  0.7546771E-02  0.1277354E+00
         21   -1    0    0  503  502  0.00000000000E+00  0.00000000000E+00  0.22679061857E+04  0.22679061857E+04  0.00000000000E+00 0. -1.
          1   -1    0    0  505    0 -0.00000000000E+00 -0.00000000000E+00 -0.32304025147E+03  0.32304025147E+03  0.00000000000E+00 0.  1.
         21    1    1    2  503  501 -0.46038577629E+02  0.66684361820E+02  0.18382282908E+04  0.18400134793E+04  0.00000000000E+00 0. -1.
         21    1    1    2  504  502 -0.36786157772E+02 -0.72707771628E+01  0.36042723997E+03  0.36237257197E+03  0.00000000000E+00 0. -1.
         21    1    1    2  505  504 -0.66787829421E+02 -0.15618954075E+02  0.21769585796E+02  0.71961661674E+02  0.00000000000E+00 0. -1.
          1    1    1    2  501    0  0.14961256482E+03 -0.43794630583E+02 -0.27555918235E+03  0.31659872425E+03  0.00000000000E+00 0.  1.
<scales pt_clust_3="14000.00000" pt_clust_4="37.49781" pt_clust_5="69.51106" pt_clust_6="101.41203"></scales>
<clustering>
<clus scale="   37.498">  1  4  2 -1</clus>
<clus scale="   69.511">  2  5  1 -1</clus>
<clus scale="  101.412">  2  6  1 -1</clus>
<clus scale="   37.498">  1  3  2 -1</clus>
</clustering>
</event>
<event>
 6    0  0.1230761E+002  0.9186422E+02  0.7546771E-02  0.1298399E+00
         21   -1    0    0  505  502  0.00000000000E+00  0.00000000000E+00  0.77160256839E+02  0.77160256839E+02  0.00000000000E+00 0. -1.
         -3   -1    0    0    0  501 -0.00000000000E+00 -0.00000000000E+00 -0.96851793106E+03  0.96851793106E+03  0.00000000000E+00 0. -1.
         21    1    1    2  503  502 -0.57153426963E+02 -0.81237929482E+02 -0.13858285351E+01  0.99337988307E+02  0.00000000000E+00 0. -1.
         21    1    1    2  504  501  0.85824659545E+02 -0.80693074369E+01 -0.31287588780E+03  0.32453398447E+03  0.00000000000E+00 0. -1.
         21    1    1    2  505  504  0.37615456966E+02 -0.54706709047E+01 -0.52389640197E+01  0.38370530188E+02  0.00000000000E+00 0. -1.
         -3    1    1    2    0  503 -0.66286689548E+02  0.94777907823E+02 -0.57185699386E+03  0.58343568493E+03  0.00000000000E+00 0. -1.
<scales pt_clust_3="89.73939" pt_clust_4="14000.00000" pt_clust_5="38.01119" pt_clust_6="91.86422"></scales>
<clustering>
<clus scale="   38.011">  1  5  2 -1</clus>
<clus scale="   89.739">  1  3  2 -1</clus>
<clus scale="   91.864">  2  6  1 -1</clus>
<clus scale="   38.011">  1  3  2 -1</clus>
</clustering>
</event>
<event>
 6    0  0.1230761E+002  0.1391300E+03  0.7546771E-02  0.1214504E+00
         21   -1    0    0  503  502  0.00000000000E+00  0.00000000000E+00  0.39873759576E+03  0.39873759576E+03  0.00000000000E+00 0. -1.
         -2   -1    0    0    0  501 -0.00000000000E+00 -0.00000000000E+00 -0.26596318615E+03  0.26596318615E+03  0.00000000000E+00 0.  1.
         21    1    1    2  503  505  0.91162032983E+02  0.72941098388E+02  0.12644387381E+03  0.17210163659E+03  0.00000000000E+00 0. -1.
         21    1    1    2  504  502  0.29097354643E+02  0.74656828787E+01  0.21243848252E+03  0.21455186162E+03  0.00000000000E+00 0. -1.
         21    1    1    2  505  501 -0.23277277196E+02  0.30242107507E+02 -0.56756633734E+02  0.68393948365E+02  0.00000000000E+00 0.  1.
         -2    1    1    2    0  504 -0.96982110430E+02 -0.11064888877E+03 -0.14935131298E+03  0.20965333534E+03  0.00000000000E+00 0.  1.
<scales pt_clust_3="139.12998" pt_clust_4="30.03985" pt_clust_5="37.80134" pt_clust_6="14000.00000"></scales>
<clustering>
<clus scale="   30.040">  1  4  2 -1</clus>
<clus scale="   37.801">  2  5  1 -1</clus>
<clus scale="  139.130">  1  3  2 -1</clus>
<clus scale="   30.040">  1  3  2 -1</clus>
</clustering>
</event>
<event>
 6    0  0.1230761E+002  0.1016011E+03  0.7546771E-02  0.1276965E+00
         21   -1    0    0  504  502  0.00000000000E+00  0.00000000000E+00  0.20559870743E+03  0.20559870743E+03  0.00000000000E+00 0.  1.
          3   -1    0    0  505    0 -0.00000000000E+00 -0.00000000000E+00 -0.42301194264E+03  0.42301194264E+03  0.00000000000E+00 0.  1.
         21    1    1    2  503  502  0.25899422491E+02  0.23200677904E+02  0.61337347196E+02  0.70507600311E+02  0.00000000000E+00 0.  1.
         21    1    1    2  504  501 -0.73682388516E+02  0.23201151141E+02  0.83932080269E+02  0.11407007447E+03  0.00000000000E+00 0.  1.
         21    1    1    2  505  503  0.98005719558E+02  0.45200308628E+02 -0.59250286755E+02  0.12312101952E+03  0.00000000000E+00 0.  1.
          3    1    1    2  501    0 -0.50222753533E+02 -0.91602137673E+02 -0.30343237592E+03  0.32091195577E+03  0.00000000000E+00 0.  1.
<scales pt_clust_3="34.77142" pt_clust_4="68.06351" pt_clust_5="101.60106" pt_clust_6="14000.00000"></scales>
<clustering>
<clus scale="   34.771">  1  3  2 -1</clus>
<clus scale="   68.064">  1  4  2 -1</clus>
<clus scale="  101.601">  1  5  2 -1</clus>
<clus scale="   34.771">  1  3  2 -1</clus>
</clustering>
</event>
<event>
 6    0  0.1230761E+002  0.8898988E+02  0.7546771E-02  0.1305316E+00
          1   -1    0    0  503    0 -0.00000000000E+00  0.00000000000E+00  0.76089035795E+03  0.76089035795E+03  0.00000000000E+00 0.  1.
         21   -1    0    0  504  502  0.00000000000E+00 -0.00000000000E+00 -0.31309004313E+03  0.31309004313E+03  0.00000000000E+00 0. -1.
         21    1    1    2  503  505 -0.47538245558E+02  0.21808550975E+01  0.21770802087E+03  0.22284843117E+03  0.00000000000E+00 0. -1.
         21    1    1    2  504  501  0.95592458069E+02 -0.43628441708E+02 -0.21981816025E+02  0.10735249974E+03  0.00000000000E+00 0.  1.
         21    1    1    2  505  502 -0.46612199396E+02 -0.33829029887E+02 -0.23957407389E+03  0.24639975096E+03  0.00000000000E+00 0. -1.
          1    1    1    2  501    0 -0.14420131156E+01  0.75276616497E+02  0.49164818385E+03  0.49737971921E+03  0.00000000000E+00 0.  1.
<scales pt_clust_3="47.58824" pt_clust_4="14000.00000" pt_clust_5="57.82937" pt_clust_6="88.98988"></scales>
<clustering>
<clus scale="   47.588">  1  3  2 -1</clus>
<clus scale="   57.829">  2  5  1 -1</clus>
<clus scale="   88.990">  1  6  2 -1</clus>
<clus scale="   57.829">  2  3  1 -1</clus>
</clustering>
</event>
<event>
 6    0  0.1230761E+002  0.9024809E+02  0.7546771E-02  0.1302252E+00
          1   -1    0    0  505    0 -0.00000000000E+00  0.00000000000E+00  0.17387860146E+04  0.17387860146E+04  0.00000000000E+00 0.  1.
         21   -1    0    0  503  502  0.00000000000E+00 -0.00000000000E+00 -0.15337143071E+02  0.15337143071E+02  0.00000000000E+00 0. -1.
         21    1    1    2  503  501  0.20823562753E+02 -0.54530057888E+02  0.12483033711E+03  0.13780334191E+03  0.00000000000E+00 0.  1.
         21    1    1    2  504  502  0.88774417253E+02  0.22549005131E+02  0.44348501524E+03  0.45284469030E+03  0.00000000000E+00 0. -1.
         21    1    1    2  505  504 -0.23918014810E+02  0.43812116301E+02  0.53787844137E+03  0.54018958770E+03  0.00000000000E+00 0.  1.
          1    1    1    2  501    0 -0.85679965196E+02 -0.11831063544E+02  0.61725507777E+03  0.62328553772E+03  0.00000000000E+00 0.  1.
<scales pt_clust_3="52.96210" pt_clust_4="14000.00000" pt_clust_5="49.91566" pt_clust_6="90.24809"></scales>
<clustering>
<clus scale="   49.916">  1  5  2 -1</clus>
<clus scale="   52.962">  2  3  1 -1</clus>
<clus scale="   90.248">  1  6  2 -1</clus>
<clus scale="   52.962">  2  3  1 -1</clus>
</clustering>
</event>
<event>
 6    0  0.1230761E+002  0.1704787E+03  0.7546771E-02  0.1177350E+00
         21   -1    0    0  504  502  0.00000000000E+00  0.00000000000E+00  0.37950770010E+04  0.37950770010E+04  0.00000000000E+00 0. -1.
         -1   -1    0    0    0  501 -0.00000000000E+00 -0.00000000000E+00 -0.21529676689E+02  0.21529676689E+02  0.00000000000E+00 0. -1.
         21    1    1    2  503  505  0.12219333255E+03  0.22282196188E+02  0.12094098974E+04  0.12157713629E+04  0.00000000000E+00 0. -1.
         21    1    1    2  504  501 -0.13753746115E+03  0.94529235513E+02  0.20603667556E+04  0.20671147760E+04  0.00000000000E+00 0. -1.
         21    1    1    2  505  502  0.49473306455E+02 -0.13882025341E+02  0.28447270955E+03  0.28907618574E+03  0.00000000000E+00 0. -1.
         -1    1    1    2    0  503 -0.34129177856E+02 -0.10292940636E+03  0.21929796175E+03  0.24464435310E+03  0.00000000000E+00 0. -1.
<scales pt_clust_3="37.17669" pt_clust_4="160.38104" pt_clust_5="37.17669" pt_clust_6="108.44014"></scales>
<clustering>
<clus scale="   37.177">  3  5 -1 -1</clus>
<clus scale="  108.440">  2  6  1 -1</clus>
<clus scale="  160.381">  1  4  2 -1</clus>
<clus scale="  160.381">  1  3  2 -1</clus>
</clustering>
</event>
<event>
 6    0  0.1230761E+002  0.1325092E+03  0.7546771E-02  0.1223779E+00
         21   -1    0    0  503  502  0.00000000000E+00  0.00000000000E+00  0.12672188109E+04  0.12672188109E+04  0.00000000000E+00 0. -1.
          2   -1    0    0  505    0 -0.00000000000E+00 -0.00000000000E+00 -0.12905262663E+04  0.12905262663E+04  0.00000000000E+00 0. -1.
         21    1    1    2  503  501 -0.24503233461E+02 -0.12708916506E+03  0.11571418483E+04  0.11643579009E+04  0.00000000000E+00 0. -1.
         21    1    1    2  504  502  0.38398873712E+02 -0.44763179753E+01  0.91802681494E+02  0.99610457556E+02  0.00000000000E+00 0.  1.
         21    1    1    2  505  504 -0.51310572713E+01 -0.43492098181E+02 -0.11024677086E+03  0.11862647613E+03  0.00000000000E+00 0.  1.
          2    1    1    2  501    0 -0.87645829801E+01  0.17505758122E+03 -0.11620052143E+04  0.11751502426E+04  0.00000000000E+00 0. -1.
<scales pt_clust_3="132.50917" pt_clust_4="38.65890" pt_clust_5="43.79375" pt_clust_6="14000.00000"></scales>
<clustering>
<clus scale="   38.659">  1  4  2 -1</clus>
<clus scale="   43.794">  2  5  1 -1</clus>
<clus scale="  132.509">  1  3  2 -1</clus>
<clus scale="   38.659">  1  3  2 -1</clus>
</clustering>
</event>
<event>
 6    0  0.1230761E+002  0.2074526E+03  0.7546771E-02  0.1143599E+00
         21   -1    0    0  501  502  0.00000000000E+00  0.00000000000E+00  0.58856249283E+03  0.58856249283E+03  0.00000000000E+00 0.  1.
          2   -1    0    0  504    0 -0.00000000000E+00 -0.00000000000E+00 -0.63052605014E+03  0.63052605014E+03  0.00000000000E+00 0. -1.
         21    1    1    2  503  505  0.14314571150E+03 -0.29252084935E+02  0.30879599676E+03  0.34161578829E+03  0.00000000000E+00 0.  1.
         21    1    1    2  504  503  0.92628584159E+01 -0.37545698899E+02 -0.30436573124E+02  0.49212447972E+02  0.00000000000E+00 0. -1.
         21    1    1    2  505  502  0.47302183211E+02 -0.18110721462E+02  0.23062092349E+03  0.23611756631E+03  0.00000000000E+00 0.  1.
          2    1    1    2  501    0 -0.19971075313E+03  0.84908505296E+02 -0.55094390442E+03  0.59214274040E+03  0.00000000000E+00 0. -1.
<scales pt_clust_3="38.57183" pt_clust_4="38.67144" pt_clust_5="38.57183" pt_clust_6="196.83747"></scales>
<clustering>
<clus scale="   38.572">  3  5 -1 -1</clus>
<clus scale="   38.671">  2  4  1 -1</clus>
<clus scale="  196.837">  2  6  1 -1</clus>
<clus scale="  207.453">  1  3  2 -1</clus>
</clustering>
</event>
<event>
 6    0  0.1230761E+002  0.1109224E+03  0.7546771E-02  0.1258871E+00
         21   -1    0    0  505  502  0.00000000000E+00  0.00000000000E+00  0.39392210553E+03  0.39392210553E+03  0.00000000000E+00 0.  1.
          3   -1    0    0  504    0 -0.00000000000E+00 -0.00000000000E+00 -0.19045266127E+03  0.19045266127E+03  0.00000000000E+00 0.  1.
         21    1    1    2  503  502 -0.29776861543E+02 -0.42269038375E+02  0.43321872016E+02  0.67454560138E+02  0.00000000000E+00 0.  1.
         21    1    1    2  504  503  0.25037168719E+02 -0.10285774507E+03 -0.12226873722E+03  0.16172884603E+03  0.00000000000E+00 0.  1.
         21    1    1    2  505  501  0.35521713017E+02 -0.11157152160E+02  0.12814384300E+03  0.13344331620E+03  0.00000000000E+00 0.  1.
          3    1    1    2  501    0 -0.30782020192E+02  0.15628393561E+03  0.15427246646E+03  0.22174804442E+03  0.00000000000E+00 0.  1.
<scales pt_clust_3="49.87988" pt_clust_4="110.92235" pt_clust_5="37.23270" pt_clust_6="14000.00000"></scales>
<clustering>
<clus scale="   37.233">  1  5  2 -1</clus>
<clus scale="   49.880">  1  3  2 -1</clus>
<clus scale="  110.922">  2  4  1 -1</clus>
<clus scale="   37.233">  1  3  2 -1</clus>
</clustering>
</event>
<event>
 6    0  0.1230761E+002  0.1694559E+03  0.7546771E-02  0.1178416E+00
         21   -1    0    0  503  502  0.00000000000E+00  0.00000000000E+00  0.97290612637E+03  0.97290612637E+03  0.00000000000E+00 0. -1.
          2   -1    0    0  505    0 -0.00000000000E+00 -0.00000000000E+00 -0.63959904493E+03  0.63959904493E+03  0.00000000000E+00 0. -1.
         21    1    1    2  503  501 -0.41970610725E+02  0.50339251139E+02  0.10899802491E+03  0.12718546224E+03  0.00000000000E+00 0. -1.
         21    1    1    2  504  502  0.77972644247E+01 -0.21504717194E+03  0.81966799446E+03  0.84744421919E+03  0.00000000000E+00 0. -1.
         21    1    1    2  505  504  0.42949315639E+02 -0.15338025883E+02 -0.82594209691E+02  0.94348832671E+02  0.00000000000E+00 0.  1.
          2    1    1    2  501    0 -0.87759693386E+01  0.18004594669E+03 -0.51276472824E+03  0.54352665720E+03  0.00000000000E+00 0. -1.
<scales pt_clust_3="64.89354" pt_clust_4="14000.00000" pt_clust_5="45.60591" pt_clust_6="169.45586"></scales>
<clustering>
<clus scale="   45.606">  2  5  1 -1</clus>
<clus scale="   64.894">  1  3  2 -1</clus>
<clus scale="  169.456">  2  6  1 -1</clus>
<clus scale="   64.894">  1  3  2 -1</clus>
</clustering>
</event>
<event>
 6    0  0.1230761E+002  0.1767555E+03  0.7546771E-02  0.1170981E+00
          4   -1    0    0  503    0 -0.00000000000E+00  0.00000000000E+00  0.20362296523E+03  0.20362296523E+03  0.00000000000E+00 0.  1.
         21   -1    0    0  505  502  0.00000000000E+00 -0.00000000000E+00 -0.91259381456E+03  0.91259381456E+03  0.00000000000E+00 0.  1.
         21    1    1    2  503  504 -0.62165180589E+01  0.63581741270E+02  0.22206032050E+02  0.67634242652E+02  0.00000000000E+00 0.  1.
         21    1    1    2  504  502 -0.31774542603E+02 -0.56157817878E+02 -0.11076619761E+03  0.12818920625E+03  0.00000000000E+00 0.  1.
         21    1    1    2  505  501 -0.14161934172E+03 -0.15016528752E+01 -0.70690549602E+03  0.72095330863E+03  0.00000000000E+00 0.  1.
          4    1    1    2  501    0  0.17961040238E+03 -0.59222705168E+01  0.86494812252E+02  0.19944002226E+03  0.00000000000E+00 0.  1.
<scales pt_clust_3="63.88492" pt_clust_4="61.68719" pt_clust_5="176.75549" pt_clust_6="14000.00000"></scales>
<clustering>
<clus scale="   63.885">  1  3  2 -1</clus>
<clus scale="   61.687">  2  4  1 -1</clus>
<clus scale="  176.755">  2  5  1 -1</clus>
<clus scale="   61.687">  2  3  1 -1</clus>
</clustering>
</event>
<event>
 6    0  0.1230761E+002  0.1229815E+03  0.7546771E-02  0.1238258E+00
         21   -1    0    0  503  502  0.00000000000E+00  0.00000000000E+00  0.33703720840E+02  0.33703720840E+02  0.00000000000E+00 0.  1.
          1   -1    0    0  504    0 -0.00000000000E+00 -0.00000000000E+00 -0.12524194312E+04  0.12524194312E+04  0.00000000000E+00 0.  1.
         21    1    1    2  503  501 -0.43203961132E+02  0.82525480025E+02 -0.95877837670E+02  0.13367721147E+03  0.00000000000E+00 0.  1.
         21    1    1    2  504  505 -0.42173071152E+02  0.11157513534E+02 -0.45073193542E+03  0.45283808988E+03  0.00000000000E+00 0.  1.
         21    1    1    2  505  502  0.47335824020E+01  0.38418840898E+02 -0.11142990592E+03  0.11796201961E+03  0.00000000000E+00 0. -1.
          1    1    1    2  501    0  0.80643449882E+02 -0.13210183446E+03 -0.56067603140E+03  0.58164583112E+03  0.00000000000E+00 0.  1.
<scales pt_clust_3="14000.00000" pt_clust_4="43.82579" pt_clust_5="38.70935" pt_clust_6="122.98150"></scales>
<clustering>
<clus scale="   38.709">  1  5  2 -1</clus>
<clus scale="   43.826">  2  4  1 -1</clus>
<clus scale="  122.982">  2  6  1 -1</clus>
<clus scale="   38.709">  1  3  2 -1</clus>
</clustering>
</event>
<event>
 6    0  0.1230761E+002  0.7557671E+02  0.7546771E-02  0.1342094E+00
         21   -1    0    0  505  502  0.00000000000E+00  0.00000000000E+00  0.38873220454E+03  0.38873220454E+03  0.00000000000E+00 0. -1.
          2   -1    0    0  504    0 -0.00000000000E+00 -0.00000000000E+00 -0.11004311139E+04  0.11004311139E+04  0.00000000000E+00 0.  1.
         21    1    1    2  503  502 -0.32391414406E+02 -0.23341940966E+01  0.62512292729E+02  0.70444580569E+02  0.00000000000E+00 0.  1.
         21    1    1    2  504  503  0.76855236884E+02 -0.53665531084E+02  0.29760980133E+03  0.31202293267E+03  0.00000000000E+00 0. -1.
         21    1    1    2  505  501  0.33316562712E+02  0.67116722201E+02 -0.72409945334E+02  0.10420099776E+03  0.00000000000E+00 0. -1.
          2    1    1    2  501    0 -0.77780385191E+02 -0.11116997020E+02 -0.99941105812E+03  0.10024948075E+04  0.00000000000E+00 0.  1.
<scales pt_clust_3="32.47541" pt_clust_4="72.51075" pt_clust_5="14000.00000" pt_clust_6="75.57671"></scales>
<clustering>
<clus scale="   32.475">  1  3  2 -1</clus>
<clus scale="   72.511">  1  4  2 -1</clus>
<clus scale="   75.577">  2  6  1 -1</clus>
<clus scale="   32.475">  1  3  2 -1</clus>
</clustering>
</event>
<event>
 6    0  0.1230761E+002  0.1305157E+03  0.7546771E-02  0.1226692E+00
          2   -1    0    0  505    0 -0.00000000000E+00  0.00000000000E+00  0.18134624116E+03  0.18134624116E+03  0.00000000000E+00 0. -1.
         21   -1    0    0  503  502  0.00000000000E+00 -0.00000000000E+00 -0.54206555892E+03  0.54206555892E+03  0.00000000000E+00 0. -1.
         21    1    1    2  503  501 -0.53946410355E+02  0.54198620681E+02 -0.34072890589E+03  0.34920465773E+03  0.00000000000E+00 0. -1.
         21    1    1    2  504  502 -0.91799633393E+01  0.67976730544E+02 -0.10241353244E+03  0.12326248111E+03  0.00000000000E+00 0. -1.
         21    1    1    2  505  504 -0.44325005047E+02  0.15264948798E+02 -0.17330770472E+02  0.49980799708E+02  0.00000000000E+00 0.  1.
          2    1    1    2  501    0  0.10745137874E+03 -0.13744030002E+03  0.99753891044E+02  0.20096386153E+03  0.00000000000E+00 0. -1.
<scales pt_clust_3="130.51573" pt_clust_4="69.97418" pt_clust_5="46.87990" pt_clust_6="14000.00000"></scales>
<clustering>
<clus scale="   46.880">  1  5  2 -1</clus>
<clus scale="   69.974">  2  4  1 -1</clus>
<clus scale="  130.516">  2  3  1 -1</clus>
<clus scale="   69.974">  2  3  1 -1</clus>
</clustering>
</event>
<event>
 6    0  0.1230761E+002  0.1368998E+03  0.7546771E-02  0.1217562E+00
         21   -1    0    0  504  502  0.00000000000E+00  0.00000000000E+00  0.22535684399E+03  0.22535684399E+03  0.00000000000E+00 0.  1.
         -3   -1    0    0    0  501 -0.00000000000E+00 -0.00000000000E+00 -0.41874949191E+03  0.41874949191E+03  0.00000000000E+00 0.  1.
         21    1    1    2  503  505  0.11488200538E+02 -0.57887330825E+02  0.10814911923E+03  0.12320370860E+03  0.00000000000E+00 0.  1.
         21    1    1    2  504  503 -0.98401113892E+01 -0.74203708219E+02  0.77282973636E+02  0.10759031611E+03  0.00000000000E+00 0.  1.
         21    1    1    2  505  501 -0.34092557296E+02  0.81655964311E+01 -0.56853129287E+02  0.66792647333E+02  0.00000000000E+00 0.  1.
         -3    1    1    2    0  502  0.32444468147E+02  0.12392544261E+03 -0.32197161150E+03  0.34651966387E+03  0.00000000000E+00 0.  1.
<scales pt_clust_3="33.57823" pt_clust_4="33.57823" pt_clust_5="35.05680" pt_clust_6="131.57318"></scales>
<clustering>
<clus scale="   33.578">  3  4 -1 -1</clus>
<clus scale="   35.057">  2  5  1 -1</clus>
<clus scale="  131.573">  2  6  1 -1</clus>
<clus scale="  136.900">  1  3  2 -1</clus>
</clustering>
</event>
<event>
 6    0  0.1230761E+002  0.1248325E+03  0.7546771E-02  0.1235331E+00
         21   -1    0    0  504  502  0.00000000000E+00  0.00000000000E+00  0.45409336241E+02  0.45409336241E+02  0.00000000000E+00 0. -1.
          2   -1    0    0  503    0 -0.00000000000E+00 -0.00000000000E+00 -0.33983667246E+04  0.33983667246E+04  0.00000000000E+00 0. -1.
         21    1    1    2  503  502 -0.46064035744E+02 -0.11570046492E+02 -0.10330227164E+02  0.48605297635E+02  0.00000000000E+00 0. -1.
         21    1    1    2  504  505  0.22772353599E+02 -0.21856692030E+02  0.72213556745E+01  0.32379670361E+02  0.00000000000E+00 0. -1.
         21    1    1    2  505  501 -0.10136720190E+03 -0.12184084875E+02 -0.52556487362E+03  0.53538976263E+03  0.00000000000E+00 0. -1.
          2    1    1    2  501    0  0.12465888404E+03  0.45610823397E+02 -0.28242836432E+04  0.28274013302E+04  0.00000000000E+00 0. -1.
<scales pt_clust_3="40.27770" pt_clust_4="31.56414" pt_clust_5="14000.00000" pt_clust_6="124.83247"></scales>
<clustering>
<clus scale="   31.564">  1  4  2 -1</clus>
<clus scale="   40.278">  1  3  2 -1</clus>
<clus scale="  124.832">  2  6  1 -1</clus>
<clus scale="   31.564">  1  3  2 -1</clus>
</clustering>
</event>
<event>
 6    0  0.1230761E+002  0.1026753E+03  0.7546771E-02  0.1274769E+00
         21   -1    0    0  505  502  0.00000000000E+00  0.00000000000E+00  0.55711368711E+03  0.55711368711E+03  0.00000000000E+00 0.  1.
         -1   -1    0    0    0  501 -0.00000000000E+00 -0.00000000000E+00 -0.14203496682E+03  0.14203496682E+03  0.00000000000E+00 0.  1.
         21    1    1    2  503  501  0.18474142533E+02  0.36090673259E+02  0.90136015262E+01  0.41534030037E+02  0.00000000000E+00 0.  1.
         21    1    1    2  504  502  0.49741626587E+02 -0.13308403836E+02  0.11903291274E+03  0.12969262640E+03  0.00000000000E+00 0.  1.
         21    1    1    2  505  503 -0.13101149645E+03  0.65429261035E+02  0.36579956514E+03  0.39402325091E+03  0.00000000000E+00 0.  1.
         -1    1    1    2    0  504  0.62795727328E+02 -0.88211530458E+02 -0.78767359105E+02  0.13389874658E+03  0.00000000000E+00 0.  1.
<scales pt_clust_3="40.54418" pt_clust_4="51.87937" pt_clust_5="102.67531" pt_clust_6="14000.00000"></scales>
<clustering>
<clus scale="   40.544">  2  3  1 -1</clus>
<clus scale="   51.879">  1  4  2 -1</clus>
<clus scale="  102.675">  1  5  2 -1</clus>
<clus scale="   51.879">  1  3  2 -1</clus>
</clustering>
</event>
<event>
 6    0  0.1230761E+002  0.1253978E+03  0.7546771E-02  0.1234449E+00
         -2   -1    0    0    0  501 -0.00000000000E+00  0.00000000000E+00  0.24665026083E+03  0.24665026083E+03  0.00000000000E+00 0. -1.
         21   -1    0    0  505  502  0.00000000000E+00 -0.00000000000E+00 -0.35643953546E+03  0.35643953546E+03  0.00000000000E+00 0. -1.
         21    1    1    2  503  504  0.13866054996E+02  0.11487006815E+03 -0.99773741348E+02  0.15278154176E+03  0.00000000000E+00 0. -1.
         21    1    1    2  504  502  0.41317974258E+01 -0.13341414436E+03 -0.19764533587E+03  0.23849546004E+03  0.00000000000E+00 0. -1.
         21    1    1    2  505  501 -0.18258854230E+02  0.49418605152E+02  0.57144720982E+02  0.77724535567E+02  0.00000000000E+00 0. -1.
         -2    1    1    2    0  503  0.26100180784E+00 -0.30874528940E+02  0.13048508161E+03  0.13408825892E+03  0.00000000000E+00 0. -1.
<scales pt_clust_3="14000.00000" pt_clust_4="125.39778" pt_clust_5="36.08415" pt_clust_6="30.87563"></scales>
<clustering>
<clus scale="   30.876">  1  6  2 -1</clus>
<clus scale="   36.084">  1  5  2 -1</clus>
<clus scale="  125.398">  2  4  1 -1</clus>
<clus scale="  125.398">  2  3  1 -1</clus>
</clustering>
</event>
<event>
 6    0  0.1230761E+002  0.2115303E+03  0.7546771E-02  0.1140360E+00
         21   -1    0    0  501  502  0.00000000000E+00  0.00000000000E+00  0.41711469647E+02  0.41711469647E+02  0.00000000000E+00 0. -1.
          4   -1    0    0  503    0 -0.00000000000E+00 -0.00000000000E+00 -0.14832847321E+04  0.14832847321E+04  0.00000000000E+00 0.  1.
         21    1    1    2  503  504  0.13687820464E+00 -0.32144700208E+02 -0.30784633755E+03  0.30952006079E+03  0.00000000000E+00 0. -1.
         21    1    1    2  504  505  0.65219313748E+02  0.50941219702E+02 -0.22747500147E+03  0.24206082510E+03  0.00000000000E+00 0. -1.
         21    1    1    2  505  502  0.73157152018E+02  0.95573183946E+02 -0.13214859079E+03  0.17874409761E+03  0.00000000000E+00 0. -1.
          4    1    1    2  501    0 -0.13851334397E+03 -0.11436970344E+03 -0.77410333262E+03  0.79467121824E+03  0.00000000000E+00 0.  1.
<scales pt_clust_3="32.14499" pt_clust_4="69.38814" pt_clust_5="69.38814" pt_clust_6="193.93800"></scales>
<clustering>
<clus scale="   32.145">  2  3  1 -1</clus>
<clus scale="   69.388">  4  5 -1 -1</clus>
<clus scale="  193.938">  2  6  1 -1</clus>
<clus scale="  211.530">  1  3  2 -1</clus>
</clustering>
</event>
<event>
 6    0  0.1230761E+002  0.1143338E+03  0.7546771E-02  0.1252748E+00
         21   -1    0    0  505  502  0.00000000000E+00  0.00000000000E+00  0.75303002229E+03  0.75303002229E+03  0.00000000000E+00 0.  1.
          2   -1    0    0  503    0 -0.00000000000E+00 -0.00000000000E+00 -0.14031777599E+04  0.14031777599E+04  0.00000000000E+00 0. -1.
         21    1    1    2  503  504  0.20571973754E+02 -0.63302060005E+02 -0.67179318024E+02  0.94569644575E+02  0.00000000000E+00 0. -1.
         21    1    1    2  504  502  0.77578848893E+02 -0.17470477428E+00  0.43732262059E+03  0.44415040560E+03  0.00000000000E+00 0.  1.
         21    1    1    2  505  501 -0.24107415497E+02 -0.37723742455E+02  0.29391899068E+03  0.29730896608E+03  0.00000000000E+00 0.  1.
          2    1    1    2  501    0 -0.74043407151E+02  0.10120050723E+03 -0.13142100309E+04  0.13201787659E+04  0.00000000000E+00 0. -1.
<scales pt_clust_3="114.33381" pt_clust_4="65.48203" pt_clust_5="44.76883" pt_clust_6="14000.00000"></scales>
<clustering>
<clus scale="   44.769">  1  5  2 -1</clus>
<clus scale="   65.482">  1  4  2 -1</clus>
<clus scale="  114.334">  1  3  2 -1</clus>
<clus scale="   44.769">  1  3  2 -1</clus>
</clustering>
</event>
<event>
 6    0  0.1230761E+002  0.1649152E+03  0.7546771E-02  0.1183257E+00
          2   -1    0    0  503    0 -0.00000000000E+00  0.00000000000E+00  0.36257028653E+03  0.36257028653E+03  0.00000000000E+00 0.  1.
         21   -1    0    0  504  502  0.00000000000E+00 -0.00000000000E+00 -0.31344592197E+03  0.31344592197E+03  0.00000000000E+00 0.  1.
         21    1    1    2  503  502 -0.93973747196E+02  0.91593746629E+02  0.12646066881E+03  0.18224373882E+03  0.00000000000E+00 0.  1.
         21    1    1    2  504  505  0.68948791208E+02 -0.77610345078E+02 -0.17953869580E+03  0.20739200747E+03  0.00000000000E+00 0.  1.
         21    1    1    2  505  501  0.62764020556E+02  0.17123106891E+01 -0.78836979310E+02  0.10078454044E+03  0.00000000000E+00 0.  1.
          2    1    1    2  501    0 -0.37739064568E+02 -0.15695712240E+02  0.18103937086E+03  0.18559592177E+03  0.00000000000E+00 0.  1.
<scales pt_clust_3="148.63038" pt_clust_4="54.79317" pt_clust_5="54.79317" pt_clust_6="40.87288"></scales>
<clustering>
<clus scale="   40.873">  1  6  2 -1</clus>
<clus scale="   54.793">  4  5 -1 -1</clus>
<clus scale="  148.630">  1  3  2 -1</clus>
<clus scale="  164.915">  2  3  1 -1</clus>
</clustering>
</event>
<event>
 6    0  0.1230761E+002  0.1431645E+03  0.7546771E-02  0.1209133E+00
         21   -1    0    0  504  502  0.00000000000E+00  0.00000000000E+00  0.15837748821E+03  0.15837748821E+03  0.00000000000E+00 0.  1.
          2   -1    0    0  503    0 -0.00000000000E+00 -0.00000000000E+00 -0.24019487158E+04  0.24019487158E+04  0.00000000000E+00 0. -1.
         21    1    1    2  503  502  0.49378023038E+02  0.16080240285E+02  0.74637972139E+02  0.90926289772E+02  0.00000000000E+00 0.  1.
         21    1    1    2  504  505 -0.10334395037E+03  0.66093279976E+02 -0.56698995095E+01  0.12280244907E+03  0.00000000000E+00 0. -1.
         21    1    1    2  505  501  0.80649142535E+02  0.70032153338E+02 -0.18627783632E+03  0.21472824453E+03  0.00000000000E+00 0. -1.
          2    1    1    2  501    0 -0.26683215199E+02 -0.15220567360E+03 -0.21262614639E+04  0.21318692207E+04  0.00000000000E+00 0. -1.
<scales pt_clust_3="51.93037" pt_clust_4="102.01413" pt_clust_5="14000.00000" pt_clust_6="143.16447"></scales>
<clustering>
<clus scale="   51.930">  1  3  2 -1</clus>
<clus scale="  102.014">  1  4  2 -1</clus>
<clus scale="  143.164">  2  6  1 -1</clus>
<clus scale="   51.930">  1  3  2 -1</clus>
</clustering>
</event>
<event>
 6    0  0.1230761E+002  0.9256761E+02  0.7546771E-02  0.1296750E+00
          2   -1    0    0  504    0 -0.00000000000E+00  0.00000000000E+00  0.20883102898E+04  0.20883102898E+04  0.00000000000E+00 0.  1.
         21   -1    0    0  503  502  0.00000000000E+00 -0.00000000000E+00 -0.41626161986E+03  0.41626161986E+03  0.00000000000E+00 0. -1.
         21    1    1    2  503  501 -0.65532651534E+02  0.90711612996E+02 -0.18398651568E+03  0.21534661154E+03  0.00000000000E+00 0. -1.
         21    1    1    2  504  505 -0.57615140214E+02  0.21230829196E+02  0.30675628261E+03  0.31284128470E+03  0.00000000000E+00 0.  1.
         21    1    1    2  505  502  0.92629225850E+02 -0.11948770682E+02 -0.20170656207E+03  0.22228019206E+03  0.00000000000E+00 0. -1.
          2    1    1    2  501    0  0.30518565898E+02 -0.99993671511E+02  0.17509854650E+04  0.17541038213E+04  0.00000000000E+00 0.  1.
<scales pt_clust_3="14000.00000" pt_clust_4="61.40238" pt_clust_5="92.56761" pt_clust_6="83.31780"></scales>
<clustering>
<clus scale="   61.402">  1  4  2 -1</clus>
<clus scale="   83.318">  1  6  2 -1</clus>
<clus scale="   92.568">  2  5  1 -1</clus>
<clus scale="   92.568">  2  3  1 -1</clus>
</clustering>
</event>
<event>
 6    0  0.1230761E+002  0.1000402E+03  0.7546771E-02  0.1280211E+00
          2   -1    0    0  505    0 -0.00000000000E+00  0.00000000000E+00  0.17707276178E+04  0.17707276178E+04  0.00000000000E+00 0.  1.
         21   -1    0    0  504  502  0.00000000000E+00 -0.00000000000E+00 -0.34958844265E+02  0.34958844265E+02  0.00000000000E+00 0.  1.
         21    1    1    2  503  502 -0.31481301081E+02  0.41212097372E+02  0.30555350709E+02  0.60192514024E+02  0.00000000000E+00 0.  1.
         21    1    1    2  504  501  0.12060746589E+03 -0.13632974325E+02  0.20923011949E+03  0.24188687794E+03  0.00000000000E+00 0.  1.
         21    1    1    2  505  503  0.11516457543E+02  0.28633945946E+02  0.50483367883E+03  0.50577621033E+03  0.00000000000E+00 0. -1.
          2    1    1    2  501    0 -0.10064262235E+03 -0.56213068993E+02  0.99114962452E+03  0.99783085979E+03  0.00000000000E+00 0.  1.
<scales pt_clust_3="52.43435" pt_clust_4="14000.00000" pt_clust_5="30.86311" pt_clust_6="100.04024"></scales>
<clustering>
<clus scale="   30.863">  1  5  2 -1</clus>
<clus scale="   52.434">  2  3  1 -1</clus>
<clus scale="  100.040">  1  6  2 -1</clus>
<clus scale="   52.434">  2  3  1 -1</clus>
</clustering>
</event>
<event>
 6    0  0.1230761E+002  0.9111525E+02  0.7546771E-02  0.1300173E+00
         21   -1    0    0  501  502  0.00000000000E+00  0.00000000000E+00  0.62172994795E+02  0.62172994795E+02  0.00000000000E+00 0. -1.
          2   -1    0    0  505    0 -0.00000000000E+00 -0.00000000000E+00 -0.20427924132E+04  0.20427924132E+04  0.00000000000E+00 0. -1.
         21    1    1    2  503  504  0.19405060204E-01  0.43868241705E+02 -0.22568353356E+02  0.49333088085E+02  0.00000000000E+00 0.  1.
         21    1    1    2  504  502 -0.38806627759E+02  0.44069037083E+01  0.35249534848E+02  0.52610881624E+02  0.00000000000E+00 0. -1.
         21    1    1    2  505  503 -0.76121643079E+02 -0.17917723155E+02 -0.81202226492E+03  0.81577920302E+03  0.00000000000E+00 0. -1.
          2    1    1    2  501    0  0.11490886578E+03 -0.30357422258E+02 -0.11812783349E+04  0.11872422352E+04  0.00000000000E+00 0. -1.
<scales pt_clust_3="55.02539" pt_clust_4="39.05605" pt_clust_5="91.11525" pt_clust_6="14000.00000"></scales>
<clustering>
<clus scale="   39.056">  1  4  2 -1</clus>
<clus scale="   55.025">  1  3  2 -1</clus>
<clus scale="   91.115">  2  5  1 -1</clus>
<clus scale="   39.056">  1  3  2 -1</clus>
</clustering>
</event>
<event>
 6    0  0.1230761E+002  0.1824055E+03  0.7546771E-02  0.1165495E+00
         21   -1    0    0  503  502  0.00000000000E+00  0.00000000000E+00  0.54790132744E+03  0.54790132744E+03  0.00000000000E+00 0. -1.
          1   -1    0    0  505    0 -0.00000000000E+00 -0.00000000000E+00 -0.40706567262E+03  0.40706567262E+03  0.00000000000E+00 0. -1.
         21    1    1    2  503  504  0.74185981783E+02  0.72512748648E+01  0.28821111989E+03  0.29769412239E+03  0.00000000000E+00 0. -1.
         21    1    1    2  504  501  0.86754286390E+02  0.48084430709E+01  0.13613779795E+03  0.16150209708E+03  0.00000000000E+00 0.  1.
         21    1    1    2  505  502 -0.26391290828E+03  0.52485042456E+02 -0.12681108002E+03  0.29746554902E+03  0.00000000000E+00 0. -1.
          1    1    1    2  501    0  0.10297264011E+03 -0.64544760392E+02 -0.15670218301E+03  0.19830523156E+03  0.00000000000E+00 0. -1.
<scales pt_clust_3="63.78134" pt_clust_4="63.78134" pt_clust_5="168.90770" pt_clust_6="121.52938"></scales>
<clustering>
<clus scale="   63.781">  3  4 -1 -1</clus>
<clus scale="  121.529">  2  6  1 -1</clus>
<clus scale="  168.908">  2  5  1 -1</clus>
<clus scale="  182.406">  1  3  2 -1</clus>
</clustering>
</event>
<event>
 6    0  0.1230761E+002  0.1174573E+03  0.7546771E-02  0.1247352E+00
         21   -1    0    0  505  502  0.00000000000E+00  0.00000000000E+00  0.88175210036E+03  0.88175210036E+03  0.00000000000E+00 0.  1.
          3   -1    0    0  504    0 -0.00000000000E+00 -0.00000000000E+00 -0.20235585067E+03  0.20235585067E+03  0.00000000000E+00 0.  1.
         21    1    1    2  503  502  0.17265335548E+02 -0.14875929906E+03  0.68639725637E+03  0.70254438608E+03  0.00000000000E+00 0.  1.
         21    1    1    2  504  503  0.14753045204E+02  0.29599490689E+02  0.21296006679E+02  0.39335760985E+02  0.00000000000E+00 0. -1.
         21    1    1    2  505  501 -0.24084462469E+02  0.31871924048E+02  0.14371974771E+03  0.14916851799E+03  0.00000000000E+00 0. -1.
          3    1    1    2  501    0 -0.79339182826E+01  0.87287884320E+02 -0.17201676108E+03  0.19305928597E+03  0.00000000000E+00 0.  1.
<scales pt_clust_3="14000.00000" pt_clust_4="33.07238" pt_clust_5="40.15808" pt_clust_6="117.45733"></scales>
<clustering>
<clus scale="   33.072">  2  4  1 -1</clus>
<clus scale="   40.158">  1  5  2 -1</clus>
<clus scale="  117.457">  2  6  1 -1</clus>
<clus scale="   40.158">  1  3  2 -1</clus>
</clustering>
</event>
<event>
 6    0  0.1230761E+002  0.1374872E+03  0.7546771E-02  0.1216751E+00
          1   -1    0    0  504    0 -0.00000000000E+00  0.00000000000E+00  0.58679313374E+03  0.58679313374E+03  0.00000000000E+00 0. -1.
         21   -1    0    0  505  502  0.00000000000E+00 -0.00000000000E+00 -0.44680295230E+02  0.44680295230E+02  0.00000000000E+00 0. -1.
         21    1    1    2  503  501  0.75966986724E+02  0.15499170501E+02  0.87759052562E+02  0.11710191572E+03  0.00000000000E+00 0. -1.
         21    1    1    2  504  502 -0.14173059811E+02 -0.29543019456E+02  0.12643003400E+03  0.13060711742E+03  0.00000000000E+00 0. -1.
         21    1    1    2  505  503  0.61983132990E+02 -0.18155837584E+02  0.66339523431E+02  0.92587664312E+02  0.00000000000E+00 0. -1.
          1    1    1    2  501    0 -0.12377705990E+03  0.32199686539E+02  0.26158422852E+03  0.29117673152E+03  0.00000000000E+00 0. -1.
<scales pt_clust_3="31.43303" pt_clust_4="32.76684" pt_clust_5="31.43303" pt_clust_6="133.10402"></scales>
<clustering>
<clus scale="   31.433">  3  5 -1 -1</clus>
<clus scale="   32.767">  1  4  2 -1</clus>
<clus scale="  133.104">  1  6  2 -1</clus>
<clus scale="  137.487">  2  3  1 -1</clus>
</clustering>
</event>
<event>
 6    0  0.1230761E+002  0.8964837E+02  0.7546771E-02  0.1303705E+00
          4   -1    0    0  505    0 -0.00000000000E+00  0.00000000000E+00  0.16956005021E+04  0.16956005021E+04  0.00000000000E+00 0. -1.
         21   -1    0    0  503  502  0.00000000000E+00 -0.00000000000E+00 -0.27722669228E+02  0.27722669228E+02  0.00000000000E+00 0.  1.
         21    1    1    2  503  501  0.45184045324E+02  0.72834726278E+02  0.77341433711E+02  0.11544779198E+03  0.00000000000E+00 0.  1.
         21    1    1    2  504  502 -0.66444414133E+02 -0.86964764993E+02  0.46834361717E+03  0.48096099038E+03  0.00000000000E+00 0.  1.
         21    1    1    2  505  504  0.31869039877E+02 -0.35980389253E+02  0.39370307034E+03  0.39662618636E+03  0.00000000000E+00 0.  1.
          4    1    1    2  501    0 -0.10608671068E+02  0.50110427969E+02  0.72848971160E+03  0.73028820256E+03  0.00000000000E+00 0. -1.
<scales pt_clust_3="14000.00000" pt_clust_4="89.64837" pt_clust_5="48.06479" pt_clust_6="30.79910"></scales>
<clustering>
<clus scale="   48.065">  1  5  2 -1</clus>
<clus scale="   30.799">  1  6  2 -1</clus>
<clus scale="   89.648">  1  4  2 -1</clus>
<clus scale="   89.648">  2  3  1 -1</clus>
</clustering>
</event>
<event>
 6    0  0.1230761E+002  0.1480372E+03  0.7546771E-02  0.1202906E+00
         -2   -1    0    0    0  501 -0.00000000000E+00  0.00000000000E+00  0.17380601853E+03  0.17380601853E+03  0.00000000000E+00 0. -1.
         21   -1    0    0  503  502  0.00000000000E+00 -0.00000000000E+00 -0.51608683518E+03  0.51608683518E+03  0.00000000000E+00 0. -1.
         21    1    1    2  503  501 -0.70286176197E+01  0.29969749478E+02 -0.33238704928E+01  0.30961838842E+02  0.00000000000E+00 0.  1.
         21    1    1    2  504  502 -0.53605967409E+02 -0.70912186484E+02 -0.33838652859E+03  0.34986794746E+03  0.00000000000E+00 0. -1.
         21    1    1    2  505  504 -0.50517050172E+02 -0.22841424079E+02 -0.12106748690E+03  0.13315794906E+03  0.00000000000E+00 0. -1.
         -2    1    1    2    0  505  0.11115163520E+03  0.63783861085E+02  0.12049706933E+03  0.17590511835E+03  0.00000000000E+00 0. -1.
<scales pt_clust_3="30.78291" pt_clust_4="40.23173" pt_clust_5="40.23173" pt_clust_6="139.03356"></scales>
<clustering>
<clus scale="   30.783">  1  3  2 -1</clus>
<clus scale="   40.232">  4  5 -1 -1</clus>
<clus scale="  139.034">  1  6  2 -1</clus>
<clus scale="  148.037">  2  3  1 -1</clus>
</clustering>
</event>
<event>
 6    0  0.1230761E+002  0.2391418E+03  0.7546771E-02  0.1120366E+00
          2   -1    0    0  503    0 -0.00000000000E+00  0.00000000000E+00  0.12112109489E+03  0.12112109489E+03  0.00000000000E+00 0.  1.
         21   -1    0    0  504  502  0.00000000000E+00 -0.00000000000E+00 -0.10757889775E+04  0.10757889775E+04  0.00000000000E+00 0. -1.
         21    1    1    2  503  502  0.90826939864E+02 -0.95367064377E+02 -0.13251837569E+03  0.18683021669E+03  0.00000000000E+00 0.  1.
         21    1    1    2  504  505 -0.10490086625E+03  0.11914987010E+03 -0.57113858677E+03  0.59279015560E+03  0.00000000000E+00 0. -1.
         21    1    1    2  505  501 -0.70036730072E+02  0.78937140145E+02 -0.26359273777E+03  0.28393194089E+03  0.00000000000E+00 0.  1.
          2    1    1    2  501    0  0.84110656460E+02 -0.10271994587E+03  0.12581817598E+02  0.13335775922E+03  0.00000000000E+00 0.  1.
<scales pt_clust_3="131.69818" pt_clust_4="36.67713" pt_clust_5="36.67713" pt_clust_6="234.87270"></scales>
<clustering>
<clus scale="   36.677">  4  5 -1 -1</clus>
<clus scale="  131.698">  1  3  2 -1</clus>
<clus scale="  234.873">  1  6  2 -1</clus>
<clus scale="  239.142">  2  3  1 -1</clus>
</clustering>
</event>
<event>
 6    0  0.1230761E+002  0.6782962E+02  0.7546771E-02  0.1367633E+00
         21   -1    0    0  503  502  0.00000000000E+00  0.00000000000E+00  0.30405928950E+03  0.30405928950E+03  0.00000000000E+00 0. -1.
         -1   -1    0    0    0  501 -0.00000000000E+00 -0.00000000000E+00 -0.26649989112E+03  0.26649989112E+03  0.00000000000E+00 0. -1.
         21    1    1    2  503  505  0.29097822869E+02 -0.12163369179E+02  0.54301336582E+02  0.62795429771E+02  0.00000000000E+00 0.  1.
         21    1    1    2  504  502 -0.10215535969E+03 -0.54142622330E+02  0.19565802143E+03  0.22726460881E+03  0.00000000000E+00 0. -1.
         21    1    1    2  505  501  0.66714976048E+01  0.58471095172E+02 -0.10821133997E+01  0.58860418112E+02  0.00000000000E+00 0. -1.
         -1    1    1    2    0  504  0.66386039219E+02  0.78348963369E+01 -0.21131784624E+03  0.22163872393E+03  0.00000000000E+00 0. -1.
<scales pt_clust_3="31.53777" pt_clust_4="14000.00000" pt_clust_5="57.92634" pt_clust_6="67.82962"></scales>
<clustering>
<clus scale="   31.538">  1  3  2 -1</clus>
<clus scale="   57.926">  1  5  2 -1</clus>
<clus scale="   67.830">  2  6  1 -1</clus>
<clus scale="   31.538">  1  3  2 -1</clus>
</clustering>
</event>
<event>
 6    0  0.1230761E+002  0.1168898E+03  0.7546771E-02  0.1248318E+00
         21   -1    0    0  504  502  0.00000000000E+00  0.00000000000E+00  0.72575700354E+02  0.72575700354E+02  0.00000000000E+00 0. -1.
         -4   -1    0    0    0  501 -0.00000000000E+00 -0.00000000000E+00 -0.27353983737E+04  0.27353983737E+04  0.00000000000E+00 0.  1.
         21    1    1    2  503  505 -0.44881103377E+02 -0.20336945445E+02 -0.22222376911E+01  0.49323859650E+02  0.00000000000E+00 0.  1.
         21    1    1    2  504  503 -0.29763049596E+02 -0.58147368484E+02  0.19456674362E+02  0.68158035184E+02  0.00000000000E+00 0. -1.
         21    1    1    2  505  501 -0.46682428775E+02 -0.66417901237E+01 -0.18090579022E+03  0.18694990630E+03  0.00000000000E+00 0.  1.
         -4    1    1    2    0  502  0.12132658175E+03  0.85126104053E+02 -0.24991513198E+04  0.25035422729E+04  0.00000000000E+00 0.  1.
<scales pt_clust_3="36.57512" pt_clust_4="36.57512" pt_clust_5="47.15255" pt_clust_6="109.04029"></scales>
<clustering>
<clus scale="   36.575">  3  4 -1 -1</clus>
<clus scale="   47.153">  2  5  1 -1</clus>
<clus scale="  109.040">  2  6  1 -1</clus>
<clus scale="  116.890">  1  3  2 -1</clus>
</clustering>
</event>
<event>
 6    0  0.1230761E+002  0.1250592E+03  0.7546771E-02  0.1234977E+00
         -2   -1    0    0    0  501 -0.00000000000E+00  0.00000000000E+00  0.55877982559E+02  0.55877982559E+02  0.00000000000E+00 0. -1.
         21   -1    0    0  505  502  0.00000000000E+00 -0.00000000000E+00 -0.67835540143E+03  0.67835540143E+03  0.00000000000E+00 0. -1.
         21    1    1    2  503  502 -0.75268410153E+02  0.26396702933E+02 -0.40045682646E+03  0.40832314330E+03  0.00000000000E+00 0. -1.
         21    1    1    2  504  503 -0.36052228533E+02  0.66868926625E+01 -0.78708118833E+02  0.86829981492E+02  0.00000000000E+00 0. -1.
         21    1    1    2  505  501 -0.58198504441E+01 -0.34536222058E+02 -0.11267228348E+03  0.11799010449E+03  0.00000000000E+00 0.  1.
         -2    1    1    2    0  504  0.11714048913E+03  0.14526264624E+01 -0.30640190092E+02  0.12109015470E+03  0.00000000000E+00 0. -1.
<scales pt_clust_3="31.00205" pt_clust_4="31.00205" pt_clust_5="35.02315" pt_clust_6="116.40031"></scales>
<clustering>
<clus scale="   31.002">  3  4 -1 -1</clus>
<clus scale="   35.023">  2  5  1 -1</clus>
<clus scale="  116.400">  1  6  2 -1</clus>
<clus scale="   35.023">  2  3  1 -1</clus>
</clustering>
</event>
<event>
 6    0  0.1230761E+002  0.9994480E+02  0.7546771E-02  0.1280412E+00
         21   -1    0    0  503  502  0.00000000000E+00  0.00000000000E+00  0.26061161151E+03  0.26061161151E+03  0.00000000000E+00 0.  1.
          2   -1    0    0  504    0 -0.00000000000E+00 -0.00000000000E+00 -0.14796627972E+04  0.14796627972E+04  0.00000000000E+00 0. -1.
         21    1    1    2  503  501 -0.10062977946E+03 -0.53745201318E+01  0.22651278003E+03  0.24791788458E+03  0.00000000000E+00 0.  1.
         21    1    1    2  504  505  0.28387307054E+02  0.10628845403E+02 -0.65783345927E+02  0.72431071770E+02  0.00000000000E+00 0. -1.
         21    1    1    2  505  502  0.23282583717E+02 -0.60687910896E+02 -0.36376963439E+02  0.74487480173E+02  0.00000000000E+00 0.  1.
          2    1    1    2  501    0  0.48959888688E+02  0.55433585625E+02 -0.13434036563E+04  0.13454379722E+04  0.00000000000E+00 0. -1.
<scales pt_clust_3="14000.00000" pt_clust_4="30.31190" pt_clust_5="65.02130" pt_clust_6="99.94480"></scales>
<clustering>
<clus scale="   30.312">  2  4  1 -1</clus>
<clus scale="   65.021">  1  5  2 -1</clus>
<clus scale="   99.945">  2  6  1 -1</clus>
<clus scale="   65.021">  1  3  2 -1</clus>
</clustering>
</event>
<event>
 6    0  0.1230761E+002  0.1730334E+03  0.7546771E-02  0.1174721E+00
          2   -1    0    0  503    0 -0.00000000000E+00  0.00000000000E+00  0.89258345330E+03  0.89258345330E+03  0.00000000000E+00 0. -1.
         21   -1    0    0  504  502  0.00000000000E+00 -0.00000000000E+00 -0.20104459774E+03  0.20104459774E+03  0.00000000000E+00 0. -1.
         21    1    1    2  503  502  0.41346601592E+02  0.27555285374E+02 -0.20073837277E+02  0.53589123507E+02  0.00000000000E+00 0. -1.
         21    1    1    2  504  505 -0.10275680366E+02  0.13044031874E+03 -0.12763267697E+03  0.18278502835E+03  0.00000000000E+00 0. -1.
         21    1    1    2  505  501 -0.27794110363E+02 -0.53055558928E+02  0.18007797187E+03  0.18977745087E+03  0.00000000000E+00 0. -1.
          2    1    1    2  501    0 -0.32768108634E+01 -0.10494004518E+03  0.65916739793E+03  0.66747644832E+03  0.00000000000E+00 0. -1.
<scales pt_clust_3="49.68737" pt_clust_4="159.11351" pt_clust_5="50.98024" pt_clust_6="50.98024"></scales>
<clustering>
<clus scale="   49.687">  2  3  1 -1</clus>
<clus scale="   50.980">  5  6 -1 -1</clus>
<clus scale="  159.114">  2  4  1 -1</clus>
<clus scale="   49.687">  2  3  1 -1</clus>
</clustering>
</event>
<event>
 6    0  0.1230761E+002  0.1183264E+03  0.7546771E-02  0.1245884E+00
          2   -1    0    0  505    0 -0.00000000000E+00  0.00000000000E+00  0.14567583030E+04  0.14567583030E+04  0.00000000000E+00 0. -1.
         21   -1    0    0  504  502  0.00000000000E+00 -0.00000000000E+00 -0.70139494469E+02  0.70139494469E+02  0.00000000000E+00 0.  1.
         21    1    1    2  503  502 -0.38261855410E+02 -0.11053275533E+01 -0.11857224032E+02  0.40072248379E+02  0.00000000000E+00 0. -1.
         21    1    1    2  504  501 -0.34858801723E+02  0.95746422318E+02  0.38660896981E+02  0.10898246831E+03  0.00000000000E+00 0.  1.
         21    1    1    2  505  503  0.12979389812E+03 -0.80797328246E+02  0.76188574276E+03  0.77707435247E+03  0.00000000000E+00 0. -1.
          2    1    1    2  501    0 -0.56673240987E+02 -0.13843766518E+02  0.59792939282E+03  0.60076872831E+03  0.00000000000E+00 0. -1.
<scales pt_clust_3="38.27782" pt_clust_4="118.32640" pt_clust_5="14000.00000" pt_clust_6="59.54308"></scales>
<clustering>
<clus scale="   38.278">  2  3  1 -1</clus>
<clus scale="   59.543">  1  6  2 -1</clus>
<clus scale="  118.326">  2  4  1 -1</clus>
<clus scale="   38.278">  2  3  1 -1</clus>
</clustering>
</event>
<event>
 6    0  0.1230761E+002  0.8023215E+02  0.7546771E-02  0.1328394E+00
         21   -1    0    0  505  502  0.00000000000E+00  0.00000000000E+00  0.12007676018E+02  0.12007676018E+02  0.00000000000E+00 0.  1.
          2   -1    0    0  503    0 -0.00000000000E+00 -0.00000000000E+00 -0.22146465717E+04  0.22146465717E+04  0.00000000000E+00 0.  1.
         21    1    1    2  503  504  0.28293822269E+02 -0.18248235805E+02 -0.86370388896E+03  0.86435984769E+03  0.00000000000E+00 0. -1.
         21    1    1    2  504  502  0.43244986711E+02  0.12858223319E+02 -0.20563400152E+03  0.21052507063E+03  0.00000000000E+00 0. -1.
         21    1    1    2  505  501  0.54901946295E+01 -0.70875111793E+02 -0.20124725205E+03  0.21343354977E+03  0.00000000000E+00 0.  1.
          2    1    1    2  501    0 -0.77029003609E+02  0.76265124280E+02 -0.93205375315E+03  0.93833577963E+03  0.00000000000E+00 0.  1.
<scales pt_clust_3="33.66806" pt_clust_4="48.65266" pt_clust_5="14000.00000" pt_clust_6="80.23215"></scales>
<clustering>
<clus scale="   33.668">  2  3  1 -1</clus>
<clus scale="   48.653">  1  4  2 -1</clus>
<clus scale="   80.232">  2  6  1 -1</clus>
<clus scale="   48.653">  1  3  2 -1</clus>
</clustering>
</event>
<event>
 6    0  0.1230761E+002  0.2027266E+03  0.7546771E-02  0.1147459E+00
         21   -1    0    0  503  502  0.00000000000E+00  0.00000000000E+00  0.38468818422E+03  0.38468818422E+03  0.00000000000E+00 0.  1.
          1   -1    0    0  504    0 -0.00000000000E+00 -0.00000000000E+00 -0.10820123574E+04  0.10820123574E+04  0.00000000000E+00 0.  1.
         21    1    1    2  503  501 -0.17285537738E+02 -0.31695361791E+02  0.11058668101E+02  0.37758176785E+02  0.00000000000E+00 0.  1.
         21    1    1    2  504  505  0.18800305976E+02  0.77336453303E+02 -0.67743278959E+02  0.10451569432E+03  0.00000000000E+00 0. -1.
         21    1    1    2  505  502 -0.51028446531E+02 -0.16521658106E+03  0.31538708631E+03  0.35967962859E+03  0.00000000000E+00 0.  1.
          1    1    1    2  501    0  0.49513678293E+02  0.11957548954E+03 -0.95602664861E+03  0.96474704191E+03  0.00000000000E+00 0.  1.
<scales pt_clust_3="36.10243" pt_clust_4="77.81014" pt_clust_5="14000.00000" pt_clust_6="202.72656"></scales>
<clustering>
<clus scale="   36.102">  1  3  2 -1</clus>
<clus scale="   77.810">  2  4  1 -1</clus>
<clus scale="  202.727">  2  6  1 -1</clus>
<clus scale="   36.102">  1  3  2 -1</clus>
</clustering>
</event>
<event>
 6    0  0.1230761E+002  0.6191397E+03  0.7546771E-02  0.9866474E-01
         21   -1    0    0  503  502  0.00000000000E+00  0.00000000000E+00  0.19789731911E+03  0.19789731911E+03  0.00000000000E+00 0.  1.
          1   -1    0    0  504    0 -0.00000000000E+00 -0.00000000000E+00 -0.23214119557E+04  0.23214119557E+04  0.00000000000E+00 0.  1.
         21    1    1    2  503  501  0.49271451644E+02  0.23147472055E+02  0.85515599855E+01  0.55105449710E+02  0.00000000000E+00 0.  1.
         21    1    1    2  504  505  0.11252729313E+03  0.48875604074E+03 -0.61052044169E+03  0.79011395936E+03  0.00000000000E+00 0.  1.
         21    1    1    2  505  502  0.84738279730E+02  0.36921009999E+02 -0.14715078176E+03  0.17377309804E+03  0.00000000000E+00 0.  1.
          1    1    1    2  501    0 -0.24653702450E+03 -0.54882452279E+03 -0.13743949732E+04  0.15003167677E+04  0.00000000000E+00 0.  1.
<scales pt_clust_3="54.43787" pt_clust_4="86.01269" pt_clust_5="86.01269" pt_clust_6="586.14966"></scales>
<clustering>
<clus scale="   54.438">  1  3  2 -1</clus>
<clus scale="   86.013">  4  5 -1 -1</clus>
<clus scale="  586.150">  2  6  1 -1</clus>
<clus scale="   54.438">  1  3  2 -1</clus>
</clustering>
</event>
<event>
 6    0  0.1230761E+002  0.1150188E+03  0.7546771E-02  0.1251548E+00
          2   -1    0    0  505    0 -0.00000000000E+00  0.00000000000E+00  0.16303017122E+04  0.16303017122E+04  0.00000000000E+00 0.  1.
         21   -1    0    0  504  502  0.00000000000E+00 -0.00000000000E+00 -0.12996740262E+03  0.12996740262E+03  0.00000000000E+00 0.  1.
         21    1    1    2  503  502  0.43248369005E+01 -0.68273924332E+02 -0.10452174523E+03  0.12491928668E+03  0.00000000000E+00 0.  1.
         21    1    1    2  504  501 -0.21175496358E+02 -0.49667952450E+02  0.63783806880E+02  0.83568422066E+02  0.00000000000E+00 0.  1.
         21    1    1    2  505  503  0.46278312520E+02  0.20707859031E+02  0.18236354058E+03  0.18928010611E+03  0.00000000000E+00 0.  1.
          2    1    1    2  501    0 -0.29427653063E+02  0.97234017751E+02  0.13587087073E+04  0.13625012999E+04  0.00000000000E+00 0.  1.
<scales pt_clust_3="14000.00000" pt_clust_4="52.12588" pt_clust_5="50.70008" pt_clust_6="115.01880"></scales>
<clustering>
<clus scale="   50.700">  1  5  2 -1</clus>
<clus scale="   52.126">  2  4  1 -1</clus>
<clus scale="  115.019">  1  6  2 -1</clus>
<clus scale="   52.126">  2  3  1 -1</clus>
</clustering>
</event>
<event>
 6    0  0.1230761E+002  0.1312792E+03  0.7546771E-02  0.1225570E+00
         21   -1    0    0  503  502  0.00000000000E+00  0.00000000000E+00  0.50173576250E+03  0.50173576250E+03  0.00000000000E+00 0. -1.
          1   -1    0    0  504    0 -0.00000000000E+00 -0.00000000000E+00 -0.33538341690E+03  0.33538341690E+03  0.00000000000E+00 0. -1.
         21    1    1    2  503  501  0.28348597436E+02 -0.41621339275E+02  0.21244050249E+03  0.21832761153E+03  0.00000000000E+00 0. -1.
         21    1    1    2  504  505  0.91251655845E+02 -0.22267963545E+02  0.45831186651E+02  0.10451423140E+03  0.00000000000E+00 0.  1.
         21    1    1    2  505  502 -0.11770294858E+02 -0.27628721993E+02  0.19345850593E+03  0.19577558488E+03  0.00000000000E+00 0. -1.
          1    1    1    2  501    0 -0.10782995842E+03  0.91518024813E+02 -0.28537784947E+03  0.31850175159E+03  0.00000000000E+00 0. -1.
<scales pt_clust_3="64.22201" pt_clust_4="131.27916" pt_clust_5="30.03142" pt_clust_6="14000.00000"></scales>
<clustering>
<clus scale="   30.031">  1  5  2 -1</clus>
<clus scale="   64.222">  1  3  2 -1</clus>
<clus scale="  131.279">  1  4  2 -1</clus>
<clus scale="   30.031">  1  3  2 -1</clus>
</clustering>
</event>
<event>
 6    0  0.1230761E+002  0.1159453E+03  0.7546771E-02  0.1249940E+00
         21   -1    0    0  503  502  0.00000000000E+00  0.00000000000E+00  0.45820096596E+02  0.45820096596E+02  0.00000000000E+00 0.  1.
          2   -1    0    0  505    0 -0.00000000000E+00 -0.00000000000E+00 -0.14308164292E+04  0.14308164292E+04  0.00000000000E+00 0.  1.
         21    1    1    2  503  504 -0.78324354410E+02  0.10367082240E+02 -0.50195484322E+02  0.93604313652E+02  0.00000000000E+00 0.  1.
         21    1    1    2  504  501 -0.56256836021E+02  0.95560742464E+02 -0.18901426943E+03  0.21914169195E+03  0.00000000000E+00 0.  1.
         21    1    1    2  505  502  0.11153467087E+03 -0.27739628333E+02 -0.50344402729E+03  0.51639651277E+03  0.00000000000E+00 0.  1.
          2    1    1    2  501    0  0.23046519561E+02 -0.78188196371E+02 -0.64234255153E+03  0.64749400740E+03  0.00000000000E+00 0.  1.
<scales pt_clust_3="79.00747" pt_clust_4="14000.00000" pt_clust_5="115.94533" pt_clust_6="78.46654"></scales>
<clustering>
<clus scale="   79.007">  1  3  2 -1</clus>
<clus scale="   78.467">  2  6  1 -1</clus>
<clus scale="  115.945">  2  5  1 -1</clus>
<clus scale="   79.007">  1  3  2 -1</clus>
</clustering>
</event>
<event>
 6    0  0.1230761E+002  0.7154579E+02  0.7546771E-02  0.1354914E+00
         21   -1    0    0  501  502  0.00000000000E+00  0.00000000000E+00  0.47505839082E+02  0.47505839082E+02  0.00000000000E+00 0. -1.
          2   -1    0    0  503    0 -0.00000000000E+00 -0.00000000000E+00 -0.55863435402E+03  0.55863435402E+03  0.00000000000E+00 0.  1.
         21    1    1    2  503  504 -0.25213518146E+02  0.20273265751E+02 -0.15704509175E+03  0.16034303117E+03  0.00000000000E+00 0. -1.
         21    1    1    2  504  505  0.47382065802E+02  0.25592092573E+02 -0.10625881138E+03  0.11912577537E+03  0.00000000000E+00 0.  1.
         21    1    1    2  505  502 -0.34728526263E+02  0.57781247146E+02 -0.11602950720E+02  0.68405931932E+02  0.00000000000E+00 0. -1.
          2    1    1    2  501    0  0.12559978607E+02 -0.10364660547E+03 -0.23622166109E+03  0.25826545463E+03  0.00000000000E+00 0.  1.
<scales pt_clust_3="32.35316" pt_clust_4="51.01234" pt_clust_5="71.54579" pt_clust_6="14000.00000"></scales>
<clustering>
<clus scale="   32.353">  2  3  1 -1</clus>
<clus scale="   51.012">  2  4  1 -1</clus>
<clus scale="   71.546">  1  5  2 -1</clus>
<clus scale="   71.546">  1  3  2 -1</clus>
</clustering>
</event>
<event>
 6    0  0.2066300E+002  0.8064503E+02  0.7546771E-02  0.1327231E+00
          2   -1    0    0  504    0 -0.00000000000E+00  0.00000000000E+00  0.49756060150E+03  0.49756060150E+03  0.00000000000E+00 0.  1.
         21   -1    0    0  503  502  0.00000000000E+00 -0.00000000000E+00 -0.26328830794E+04  0.26328830794E+04  0.00000000000E+00 0. -1.
         21    1    1    2  503  501  0.74782446997E+02 -0.30096685698E+02 -0.25735607263E+04  0.25748229137E+04  0.00000000000E+00 0. -1.
         21    1    1    2  504  505  0.17655372958E+02 -0.32144541692E+02 -0.16963689219E+02  0.40407307591E+02  0.00000000000E+00 0. -1.
         21    1    1    2  505  502 -0.15422411245E+02 -0.29476535290E+02 -0.10083155798E+02  0.34761860309E+02  0.00000000000E+00 0. -1.
          2    1    1    2  501    0 -0.77015408710E+02  0.91717762680E+02  0.46528509340E+03  0.48045159934E+03  0.00000000000E+00 0.  1.
<scales pt_clust_3="14000.00000" pt_clust_4="70.13467" pt_clust_5="31.82759" pt_clust_6="80.64503"></scales>
<clustering>
<clus scale="   31.828">  4  5 -1 -1</clus>
<clus scale="   70.135">  1  4  2 -1</clus>
<clus scale="   80.645">  1  6  2 -1</clus>
<clus scale="   80.645">  2  3  1 -1</clus>
</clustering>
</event>
<event>
 6    0  0.1230761E+002  0.1094283E+03  0.7546771E-02  0.1261632E+00
         21   -1    0    0  505  502  0.00000000000E+00  0.00000000000E+00  0.34559281605E+02  0.34559281605E+02  0.00000000000E+00 0.  1.
          2   -1    0    0  504    0 -0.00000000000E+00 -0.00000000000E+00 -0.12930852710E+04  0.12930852710E+04  0.00000000000E+00 0.  1.
         21    1    1    2  503  502  0.44625230551E+02  0.13080975570E+03 -0.24792560317E+03  0.28384803697E+03  0.00000000000E+00 0.  1.
         21    1    1    2  504  503  0.32428209632E+02  0.92136850494E+01 -0.25661781272E+03  0.25882268559E+03  0.00000000000E+00 0.  1.
         21    1    1    2  505  501 -0.74168637844E+02 -0.62228013885E+02 -0.16846222987E+03  0.19430088895E+03  0.00000000000E+00 0.  1.
          2    1    1    2  501    0 -0.28848023389E+01 -0.77795426866E+02 -0.58552034363E+03  0.59067294108E+03  0.00000000000E+00 0.  1.
<scales pt_clust_3="109.42827" pt_clust_4="33.71173" pt_clust_5="14000.00000" pt_clust_6="74.20625"></scales>
<clustering>
<clus scale="   33.712">  2  4  1 -1</clus>
<clus scale="   74.206">  2  6  1 -1</clus>
<clus scale="  109.428">  2  3  1 -1</clus>
<clus scale="  109.428">  1  3  2 -1</clus>
</clustering>
</event>
<event>
 6    0  0.1230761E+002  0.2004486E+03  0.7546771E-02  0.1149361E+00
         21   -1    0    0  505  502  0.00000000000E+00  0.00000000000E+00  0.13348192450E+04  0.13348192450E+04  0.00000000000E+00 0.  1.
          2   -1    0    0  504    0 -0.00000000000E+00 -0.00000000000E+00 -0.24510142787E+04  0.24510142787E+04  0.00000000000E+00 0. -1.
         21    1    1    2  503  501  0.26081583813E+01  0.80834784803E+02  0.14877657052E+03  0.16933851558E+03  0.00000000000E+00 0.  1.
         21    1    1    2  504  502  0.10467832823E+03 -0.22829637690E+03 -0.37015770971E+03  0.44731813977E+03  0.00000000000E+00 0. -1.
         21    1    1    2  505  503  0.32326728687E+02  0.99290284790E+01  0.11322031506E+04  0.11327080724E+04  0.00000000000E+00 0.  1.
          2    1    1    2  501    0 -0.13961321530E+03  0.13753256362E+03 -0.20270170451E+04  0.20364687960E+04  0.00000000000E+00 0. -1.
<scales pt_clust_3="92.96138" pt_clust_4="200.44863" pt_clust_5="33.81720" pt_clust_6="14000.00000"></scales>
<clustering>
<clus scale="   33.817">  1  5  2 -1</clus>
<clus scale="   92.961">  1  3  2 -1</clus>
<clus scale="  200.449">  1  4  2 -1</clus>
<clus scale="   33.817">  1  3  2 -1</clus>
</clustering>
</event>
<event>
 6    0  0.1379715E+002  0.9597620E+02  0.7546771E-02  0.1288992E+00
         -1   -1    0    0    0  501 -0.00000000000E+00  0.00000000000E+00  0.14222487685E+03  0.14222487685E+03  0.00000000000E+00 0.  1.
         21   -1    0    0  505  502  0.00000000000E+00 -0.00000000000E+00 -0.19344021391E+04  0.19344021391E+04  0.00000000000E+00 0.  1.
         21    1    1    2  503  504 -0.11256635868E+02 -0.37855455762E+02 -0.59596994618E+02  0.71495098780E+02  0.00000000000E+00 0.  1.
         21    1    1    2  504  501  0.20612488049E+02  0.26551634426E+02 -0.37195112056E+02  0.50133225661E+02  0.00000000000E+00 0.  1.
         21    1    1    2  505  503  0.80908048995E+02  0.51593472327E+02 -0.18049127943E+04  0.18074618098E+04  0.00000000000E+00 0.  1.
         -1    1    1    2    0  502 -0.90263901176E+02 -0.40289650992E+02  0.10952763872E+03  0.14753688175E+03  0.00000000000E+00 0.  1.
<scales pt_clust_3="38.12465" pt_clust_4="33.61345" pt_clust_5="14000.00000" pt_clust_6="95.97620"></scales>
<clustering>
<clus scale="   33.613">  1  4  2 -1</clus>
<clus scale="   38.125">  1  3  2 -1</clus>
<clus scale="   95.976">  1  6  2 -1</clus>
<clus scale="   95.976">  2  3  1 -1</clus>
</clustering>
</event>
<event>
 6    0  0.1230761E+002  0.6700680E+02  0.7546771E-02  0.1370578E+00
         21   -1    0    0  501  502  0.00000000000E+00  0.00000000000E+00  0.93761877730E+03  0.93761877730E+03  0.00000000000E+00 0. -1.
          1   -1    0    0  504    0 -0.00000000000E+00 -0.00000000000E+00 -0.45626846287E+03  0.45626846287E+03  0.00000000000E+00 0. -1.
         21    1    1    2  503  502  0.46884986227E+01  0.51008971239E+02  0.34656662103E+03  0.35033172848E+03  0.00000000000E+00 0. -1.
         21    1    1    2  504  505 -0.53109372546E+02 -0.57669555719E+02 -0.24612491613E+02  0.82171514848E+02  0.00000000000E+00 0. -1.
         21    1    1    2  505  503  0.63585070135E+02 -0.46664399962E+02  0.55567578913E+03  0.56124523160E+03  0.00000000000E+00 0. -1.
          1    1    1    2  501    0 -0.15164196211E+02  0.53324984443E+02 -0.39627960412E+03  0.40013876524E+03  0.00000000000E+00 0. -1.
<scales pt_clust_3="51.22399" pt_clust_4="67.00680" pt_clust_5="14000.00000" pt_clust_6="55.59574"></scales>
<clustering>
<clus scale="   51.224">  1  3  2 -1</clus>
<clus scale="   55.596">  2  6  1 -1</clus>
<clus scale="   67.007">  2  4  1 -1</clus>
<clus scale="   51.224">  1  3  2 -1</clus>
</clustering>
</event>
<event>
 6    0  0.1230761E+002  0.1476037E+03  0.7546771E-02  0.1203449E+00
         21   -1    0    0  501  502  0.00000000000E+00  0.00000000000E+00  0.43950949177E+03  0.43950949177E+03  0.00000000000E+00 0. -1.
          2   -1    0    0  504    0 -0.00000000000E+00 -0.00000000000E+00 -0.98250966574E+02  0.98250966574E+02  0.00000000000E+00 0. -1.
         21    1    1    2  503  505  0.73453107774E+01  0.59846477824E+02  0.87307227769E+02  0.10610422479E+03  0.00000000000E+00 0. -1.
         21    1    1    2  504  503  0.45034660840E+02  0.91896957835E-01 -0.10228800027E+02  0.46181787233E+02  0.00000000000E+00 0. -1.
         21    1    1    2  505  502  0.24077765482E+02  0.76810377416E+02  0.20104343317E+03  0.21655954122E+03  0.00000000000E+00 0. -1.
          2    1    1    2  501    0 -0.76457737099E+02 -0.13674875220E+03  0.63136664286E+02  0.16891490511E+03  0.00000000000E+00 0. -1.
<scales pt_clust_3="31.24479" pt_clust_4="45.03475" pt_clust_5="31.24479" pt_clust_6="143.12077"></scales>
<clustering>
<clus scale="   31.245">  3  5 -1 -1</clus>
<clus scale="   45.035">  2  4  1 -1</clus>
<clus scale="  143.121">  2  6  1 -1</clus>
<clus scale="  147.604">  1  3  2 -1</clus>
</clustering>
</event>
<event>
 6    0  0.1230761E+002  0.3083497E+03  0.7546771E-02  0.1081140E+00
          2   -1    0    0  503    0 -0.00000000000E+00  0.00000000000E+00  0.13970560938E+04  0.13970560938E+04  0.00000000000E+00 0. -1.
         21   -1    0    0  505  502  0.00000000000E+00 -0.00000000000E+00 -0.51126192624E+03  0.51126192624E+03  0.00000000000E+00 0. -1.
         21    1    1    2  503  502  0.19992381215E+02 -0.84053881874E+02  0.10253800668E+04  0.10290136208E+04  0.00000000000E+00 0. -1.
         21    1    1    2  504  501 -0.48616653524E+02 -0.57519111461E+02 -0.12866645959E+03  0.14908750789E+03  0.00000000000E+00 0. -1.
         21    1    1    2  505  504 -0.19481036195E+03 -0.11060572347E+03 -0.23571444756E+03  0.32518610668E+03  0.00000000000E+00 0. -1.
          2    1    1    2  501    0  0.22343463426E+03  0.25217871680E+03  0.22479500798E+03  0.40503078477E+03  0.00000000000E+00 0. -1.
<scales pt_clust_3="86.39879" pt_clust_4="39.49299" pt_clust_5="39.49299" pt_clust_6="300.73277"></scales>
<clustering>
<clus scale="   39.493">  4  5 -1 -1</clus>
<clus scale="   86.399">  1  3  2 -1</clus>
<clus scale="  300.733">  1  6  2 -1</clus>
<clus scale="  308.350">  2  3  1 -1</clus>
</clustering>
</event>
<event>
 6    0  0.1230761E+002  0.2776062E+03  0.7546771E-02  0.1097004E+00
         21   -1    0    0  501  502  0.00000000000E+00  0.00000000000E+00  0.74275713321E+02  0.74275713321E+02  0.00000000000E+00 0. -1.
          2   -1    0    0  504    0 -0.00000000000E+00 -0.00000000000E+00 -0.40951487620E+04  0.40951487620E+04  0.00000000000E+00 0. -1.
         21    1    1    2  503  502 -0.32384012697E+02 -0.95687033739E+02 -0.93038188359E+02  0.13733476325E+03  0.00000000000E+00 0.  1.
         21    1    1    2  504  505 -0.46209565742E+02 -0.56884105616E+02 -0.27206684749E+04  0.27216553925E+04  0.00000000000E+00 0. -1.
         21    1    1    2  505  503 -0.31871887419E+02 -0.15354828158E+03 -0.21401451567E+03  0.26532075852E+03  0.00000000000E+00 0. -1.
          2    1    1    2  501    0  0.11046546586E+03  0.30611942093E+03 -0.99315186977E+03  0.10451135610E+04  0.00000000000E+00 0. -1.
<scales pt_clust_3="32.13443" pt_clust_4="73.28796" pt_clust_5="32.13443" pt_clust_6="274.70380"></scales>
<clustering>
<clus scale="   32.134">  3  5 -1 -1</clus>
<clus scale="   73.288">  2  4  1 -1</clus>
<clus scale="  274.704">  2  6  1 -1</clus>
<clus scale="  277.606">  1  3  2 -1</clus>
</clustering>
</event>
<event>
 6    0  0.1230761E+002  0.8113620E+02  0.7546771E-02  0.1325858E+00
          1   -1    0    0  505    0 -0.00000000000E+00  0.00000000000E+00  0.18290376738E+04  0.18290376738E+04  0.00000000000E+00 0.  1.
         21   -1    0    0  501  502  0.00000000000E+00 -0.00000000000E+00 -0.94240844132E+03  0.94240844132E+03  0.00000000000E+00 0.  1.
         21    1    1    2  503  502 -0.62081210137E+02  0.19678281484E+02 -0.65543448247E+03  0.65866203187E+03  0.00000000000E+00 0.  1.
         21    1    1    2  504  503  0.19249252959E+02 -0.88624762892E+02 -0.27470831921E+03  0.28929144989E+03  0.00000000000E+00 0.  1.
         21    1    1    2  505  504  0.11105293501E+02 -0.33273742159E+02  0.19051960345E+03  0.19372193671E+03  0.00000000000E+00 0.  1.
          1    1    1    2  501    0  0.31726663677E+02  0.10222022357E+03  0.16262524307E+04  0.16297706966E+04  0.00000000000E+00 0.  1.
<scales pt_clust_3="65.10501" pt_clust_4="14000.00000" pt_clust_5="35.07805" pt_clust_6="81.13620"></scales>
<clustering>
<clus scale="   35.078">  1  5  2 -1</clus>
<clus scale="   65.105">  2  3  1 -1</clus>
<clus scale="   81.136">  1  6  2 -1</clus>
<clus scale="   65.105">  2  3  1 -1</clus>
</clustering>
</event>
<event>
 6    0  0.1230761E+002  0.2425513E+03  0.7546771E-02  0.1118105E+00
         -3   -1    0    0    0  501 -0.00000000000E+00  0.00000000000E+00  0.89675546460E+03  0.89675546460E+03  0.00000000000E+00 0. -1.
         21   -1    0    0  504  502  0.00000000000E+00 -0.00000000000E+00 -0.17952081017E+04  0.17952081017E+04  0.00000000000E+00 0. -1.
         21    1    1    2  503  502 -0.19399239675E+03  0.29572943571E+03 -0.15224900929E+04  0.15630307202E+04  0.00000000000E+00 0. -1.
         21    1    1    2  504  505  0.16748839343E+03 -0.57805951558E+02 -0.18976020846E+03  0.25962054365E+03  0.00000000000E+00 0.  1.
         21    1    1    2  505  501 -0.14624996261E+02  0.29398747308E+02  0.59037651364E+02  0.67554578953E+02  0.00000000000E+00 0. -1.
         -3    1    1    2    0  503  0.41128999574E+02 -0.26732223146E+03  0.75476001295E+03  0.80175772350E+03  0.00000000000E+00 0. -1.
<scales pt_clust_3="14000.00000" pt_clust_4="176.20449" pt_clust_5="32.83560" pt_clust_6="242.55127"></scales>
<clustering>
<clus scale="   32.836">  1  5  2 -1</clus>
<clus scale="  176.204">  2  4  1 -1</clus>
<clus scale="  242.551">  1  6  2 -1</clus>
<clus scale="  176.204">  2  3  1 -1</clus>
</clustering>
</event>
<event>
 6    0  0.1230761E+002  0.1528027E+03  0.7546771E-02  0.1197071E+00
          4   -1    0    0  503    0 -0.00000000000E+00  0.00000000000E+00  0.12997883320E+04  0.12997883320E+04  0.00000000000E+00 0. -1.
         21   -1    0    0  501  502  0.00000000000E+00 -0.00000000000E+00 -0.83304820329E+02  0.83304820329E+02  0.00000000000E+00 0.  1.
         21    1    1    2  503  505 -0.13345155314E+02  0.50516013487E+02  0.26668925972E+03  0.27175930902E+03  0.00000000000E+00 0. -1.
         21    1    1    2  504  502 -0.38318742026E+02 -0.16621450766E+02 -0.12961400886E+02  0.43733242837E+02  0.00000000000E+00 0.  1.
         21    1    1    2  505  504 -0.31812077250E+02 -0.10615674385E+03  0.13150356505E+02  0.11159836199E+03  0.00000000000E+00 0.  1.
          4    1    1    2  501    0  0.83475974590E+02  0.72262181126E+02  0.94960529629E+03  0.95600223844E+03  0.00000000000E+00 0. -1.
<scales pt_clust_3="52.24903" pt_clust_4="39.47787" pt_clust_5="39.47787" pt_clust_6="138.61321"></scales>
<clustering>
<clus scale="   39.478">  4  5 -1 -1</clus>
<clus scale="   52.249">  1  3  2 -1</clus>
<clus scale="  138.613">  1  6  2 -1</clus>
<clus scale="  152.803">  2  3  1 -1</clus>
</clustering>
</event>
<event>
 6    0  0.1230761E+002  0.9918113E+02  0.7546771E-02  0.1282027E+00
          2   -1    0    0  505    0 -0.00000000000E+00  0.00000000000E+00  0.22630187793E+04  0.22630187793E+04  0.00000000000E+00 0. -1.
         21   -1    0    0  504  502  0.00000000000E+00 -0.00000000000E+00 -0.29028519380E+03  0.29028519380E+03  0.00000000000E+00 0.  1.
         21    1    1    2  503  502  0.24620607110E+02  0.54388744718E+02 -0.22081305731E+03  0.22874159247E+03  0.00000000000E+00 0.  1.
         21    1    1    2  504  501 -0.43947450430E+02  0.48355936471E+02 -0.38464327398E+02  0.75823343856E+02  0.00000000000E+00 0.  1.
         21    1    1    2  505  503 -0.77555811277E+02  0.46507925833E+01  0.25821544646E+03  0.26965116452E+03  0.00000000000E+00 0. -1.
          2    1    1    2  501    0  0.96882654597E+02 -0.10739547377E+03  0.19737955237E+04  0.19790878722E+04  0.00000000000E+00 0. -1.
<scales pt_clust_3="59.70184" pt_clust_4="14000.00000" pt_clust_5="75.99020" pt_clust_6="99.18113"></scales>
<clustering>
<clus scale="   59.702">  2  3  1 -1</clus>
<clus scale="   75.990">  1  5  2 -1</clus>
<clus scale="   99.181">  1  6  2 -1</clus>
<clus scale="   59.702">  2  3  1 -1</clus>
</clustering>
</event>
<event>
 6    0  0.1230761E+002  0.1622553E+03  0.7546771E-02  0.1186174E+00
          1   -1    0    0  504    0 -0.00000000000E+00  0.00000000000E+00  0.50398601107E+03  0.50398601107E+03  0.00000000000E+00 0.  1.
         21   -1    0    0  503  502  0.00000000000E+00 -0.00000000000E+00 -0.51595861594E+03  0.51595861594E+03  0.00000000000E+00 0. -1.
         21    1    1    2  503  501 -0.17334187122E+02  0.34940721938E+02 -0.13627744901E+02  0.41316383237E+02  0.00000000000E+00 0. -1.
         21    1    1    2  504  505  0.24184499562E+02 -0.16650449512E+03  0.12032319422E+03  0.20684851457E+03  0.00000000000E+00 0.  1.
         21    1    1    2  505  502 -0.12534360227E+02 -0.28694185402E+02 -0.42492657247E+03  0.42607869984E+03  0.00000000000E+00 0. -1.
          1    1    1    2  501    0  0.56840477875E+01  0.16025795858E+03  0.30625851828E+03  0.34570102937E+03  0.00000000000E+00 0.  1.
<scales pt_clust_3="33.68603" pt_clust_4="14000.00000" pt_clust_5="31.31240" pt_clust_6="162.25532"></scales>
<clustering>
<clus scale="   31.312">  2  5  1 -1</clus>
<clus scale="   33.686">  2  3  1 -1</clus>
<clus scale="  162.255">  1  6  2 -1</clus>
<clus scale="   31.312">  2  3  1 -1</clus>
</clustering>
</event>
<event>
 6    0  0.1230761E+002  0.1207896E+03  0.7546771E-02  0.1241800E+00
          2   -1    0    0  505    0 -0.00000000000E+00  0.00000000000E+00  0.78166340978E+03  0.78166340978E+03  0.00000000000E+00 0.  1.
         21   -1    0    0  503  502  0.00000000000E+00 -0.00000000000E+00 -0.15787233543E+03  0.15787233543E+03  0.00000000000E+00 0. -1.
         21    1    1    2  503  504  0.39615556804E+02  0.23730007239E+02 -0.88434326991E+02  0.99765403697E+02  0.00000000000E+00 0. -1.
         21    1    1    2  504  501  0.55733710413E+02  0.22215663578E+02 -0.14490516282E+02  0.61723231014E+02  0.00000000000E+00 0. -1.
         21    1    1    2  505  502  0.35567138515E+02 -0.65163536867E+02  0.52392486733E+02  0.90864077309E+02  0.00000000000E+00 0. -1.
          2    1    1    2  501    0 -0.13091640573E+03  0.19217866049E+02  0.67432343088E+03  0.68718303319E+03  0.00000000000E+00 0.  1.
<scales pt_clust_3="46.17906" pt_clust_4="120.78960" pt_clust_5="74.98325" pt_clust_6="14000.00000"></scales>
<clustering>
<clus scale="   46.179">  2  3  1 -1</clus>
<clus scale="   74.983">  2  5  1 -1</clus>
<clus scale="  120.790">  2  4  1 -1</clus>
<clus scale="   46.179">  2  3  1 -1</clus>
</clustering>
</event>
<event>
 6    0  0.1230761E+002  0.1254293E+03  0.7546771E-02  0.1234400E+00
         21   -1    0    0  501  502  0.00000000000E+00  0.00000000000E+00  0.20924091689E+03  0.20924091689E+03  0.00000000000E+00 0.  1.
          2   -1    0    0  503    0 -0.00000000000E+00 -0.00000000000E+00 -0.59240207776E+03  0.59240207776E+03  0.00000000000E+00 0.  1.
         21    1    1    2  503  505  0.39007375683E+02 -0.41496760341E+00 -0.49589204062E+03  0.49742402788E+03  0.00000000000E+00 0.  1.
         21    1    1    2  504  502 -0.21714305597E+02  0.73125067139E+02 -0.32427102233E+02  0.82887293784E+02  0.00000000000E+00 0.  1.
         21    1    1    2  505  504  0.19409792373E+02  0.36511612963E+02  0.78592852516E+01  0.42090453618E+02  0.00000000000E+00 0.  1.
          2    1    1    2  501    0 -0.36702862459E+02 -0.10922171250E+03  0.13729869674E+03  0.17924121937E+03  0.00000000000E+00 0.  1.
<scales pt_clust_3="39.00958" pt_clust_4="42.95814" pt_clust_5="42.95814" pt_clust_6="112.88122"></scales>
<clustering>
<clus scale="   39.010">  2  3  1 -1</clus>
<clus scale="   42.958">  4  5 -1 -1</clus>
<clus scale="  112.881">  1  6  2 -1</clus>
<clus scale="  112.881">  1  3  2 -1</clus>
</clustering>
</event>
<event>
 6    0  0.1230761E+002  0.1326336E+03  0.7546771E-02  0.1223599E+00
          4   -1    0    0  505    0 -0.00000000000E+00  0.00000000000E+00  0.14301290026E+04  0.14301290026E+04  0.00000000000E+00 0.  1.
         21   -1    0    0  504  502  0.00000000000E+00 -0.00000000000E+00 -0.11468153039E+03  0.11468153039E+03  0.00000000000E+00 0.  1.
         21    1    1    2  503  501  0.97212900586E+02 -0.17634167023E+02  0.68101054902E+02  0.11999610646E+03  0.00000000000E+00 0.  1.
         21    1    1    2  504  503  0.42129057995E+02 -0.23048948142E+02 -0.66750997508E+02  0.82230208600E+02  0.00000000000E+00 0.  1.
         21    1    1    2  505  502  0.35010996819E+02  0.87446227738E+02  0.41720773041E+03  0.42770889979E+03  0.00000000000E+00 0. -1.
          4    1    1    2  501    0 -0.17435295540E+03 -0.46763112573E+02  0.89688968442E+03  0.91487531816E+03  0.00000000000E+00 0.  1.
<scales pt_clust_3="14000.00000" pt_clust_4="48.02199" pt_clust_5="93.65218" pt_clust_6="132.63364"></scales>
<clustering>
<clus scale="   48.022">  2  4  1 -1</clus>
<clus scale="   93.652">  1  5  2 -1</clus>
<clus scale="  132.634">  1  6  2 -1</clus>
<clus scale="   48.022">  2  3  1 -1</clus>
</clustering>
</event>
<event>
 6    0  0.1230761E+002  0.1283067E+03  0.7546771E-02  0.1229990E+00
          1   -1    0    0  505    0 -0.00000000000E+00  0.00000000000E+00  0.26349935385E+04  0.26349935385E+04  0.00000000000E+00 0. -1.
         21   -1    0    0  501  502  0.00000000000E+00 -0.00000000000E+00 -0.67515161052E+03  0.67515161052E+03  0.00000000000E+00 0. -1.
         21    1    1    2  503  504  0.32836047583E+02  0.43142361130E+02 -0.29878758132E+03  0.30366673854E+03  0.00000000000E+00 0. -1.
         21    1    1    2  504  502  0.73665934319E+02 -0.35573104290E+01 -0.36047277273E+03  0.36794013673E+03  0.00000000000E+00 0. -1.
         21    1    1    2  505  503  0.48598483739E+02  0.29006957235E+02  0.10995378033E+03  0.12366507186E+03  0.00000000000E+00 0.  1.
          1    1    1    2  501    0 -0.15510046564E+03 -0.68592007936E+02  0.25091485017E+04  0.25148732019E+04  0.00000000000E+00 0. -1.
<scales pt_clust_3="50.88286" pt_clust_4="50.88286" pt_clust_5="56.59696" pt_clust_6="113.75708"></scales>
<clustering>
<clus scale="   50.883">  3  4 -1 -1</clus>
<clus scale="   56.597">  1  5  2 -1</clus>
<clus scale="  113.757">  1  6  2 -1</clus>
<clus scale="  128.307">  2  3  1 -1</clus>
</clustering>
</event>
<event>
 6    0  0.1230761E+002  0.9705901E+02  0.7546771E-02  0.1286605E+00
          2   -1    0    0  504    0 -0.00000000000E+00  0.00000000000E+00  0.60724638203E+03  0.60724638203E+03  0.00000000000E+00 0. -1.
         21   -1    0    0  503  502  0.00000000000E+00 -0.00000000000E+00 -0.25464951297E+03  0.25464951297E+03  0.00000000000E+00 0.  1.
         21    1    1    2  503  501  0.51769916102E+01 -0.92881632238E+02 -0.18265067613E+03  0.20497577500E+03  0.00000000000E+00 0.  1.
         21    1    1    2  504  505 -0.40970569291E+02 -0.17571555445E+02  0.41842833715E+03  0.42079641211E+03  0.00000000000E+00 0. -1.
         21    1    1    2  505  502  0.24249240202E+02 -0.41203423834E+02  0.65385383562E+01  0.48254536262E+02  0.00000000000E+00 0.  1.
          2    1    1    2  501    0  0.11544337479E+02  0.15165661152E+03  0.11028066968E+03  0.18786917163E+03  0.00000000000E+00 0. -1.
<scales pt_clust_3="97.05901" pt_clust_4="44.57967" pt_clust_5="47.42802" pt_clust_6="14000.00000"></scales>
<clustering>
<clus scale="   44.580">  1  4  2 -1</clus>
<clus scale="   47.428">  1  5  2 -1</clus>
<clus scale="   97.059">  2  3  1 -1</clus>
<clus scale="   97.059">  2  3  1 -1</clus>
</clustering>
</event>
<event>
 6    0  0.1230761E+002  0.8559053E+02  0.7546771E-02  0.1313895E+00
          2   -1    0    0  505    0 -0.00000000000E+00  0.00000000000E+00  0.13191146722E+04  0.13191146722E+04  0.00000000000E+00 0.  1.
         21   -1    0    0  503  502  0.00000000000E+00 -0.00000000000E+00 -0.41401573110E+02  0.41401573110E+02  0.00000000000E+00 0.  1.
         21    1    1    2  503  504 -0.37480307289E+02  0.33413921650E+02 -0.21525750891E+01  0.50258304528E+02  0.00000000000E+00 0.  1.
         21    1    1    2  504  501 -0.55363648800E+02  0.88873270905E+01  0.86009757438E+02  0.10267325146E+03  0.00000000000E+00 0. -1.
         21    1    1    2  505  502  0.10010909494E+02  0.52376303382E+02  0.27123398690E+03  0.27642606808E+03  0.00000000000E+00 0.  1.
          2    1    1    2  501    0  0.82833046596E+02 -0.94677552122E+02  0.92262192980E+03  0.93115862120E+03  0.00000000000E+00 0.  1.
<scales pt_clust_3="50.21219" pt_clust_4="14000.00000" pt_clust_5="58.19654" pt_clust_6="85.59053"></scales>
<clustering>
<clus scale="   50.212">  2  3  1 -1</clus>
<clus scale="   58.197">  1  5  2 -1</clus>
<clus scale="   85.591">  1  6  2 -1</clus>
<clus scale="   50.212">  2  3  1 -1</clus>
</clustering>
</event>
<event>
 6    0  0.1230761E+002  0.1552913E+03  0.7546771E-02  0.1194118E+00
         21   -1    0    0  504  502  0.00000000000E+00  0.00000000000E+00  0.42295254801E+02  0.42295254801E+02  0.00000000000E+00 0.  1.
          2   -1    0    0  505    0 -0.00000000000E+00 -0.00000000000E+00 -0.41712425115E+04  0.41712425115E+04  0.00000000000E+00 0.  1.
         21    1    1    2  503  501 -0.44139858971E+02  0.10094275199E+03 -0.28735611761E+03  0.30775201812E+03  0.00000000000E+00 0.  1.
         21    1    1    2  504  503 -0.89685070709E+02  0.37259310244E+01 -0.40688271553E+02  0.98553690504E+02  0.00000000000E+00 0.  1.
         21    1    1    2  505  502  0.18765960515E+02  0.29127606956E+02 -0.32253364563E+03  0.32438947475E+03  0.00000000000E+00 0. -1.
          2    1    1    2  501    0  0.11505896916E+03 -0.13379628997E+03 -0.34783692219E+04  0.34828425830E+04  0.00000000000E+00 0.  1.
<scales pt_clust_3="155.29132" pt_clust_4="89.44669" pt_clust_5="34.64937" pt_clust_6="14000.00000"></scales>
<clustering>
<clus scale="   34.649">  2  5  1 -1</clus>
<clus scale="   89.447">  1  4  2 -1</clus>
<clus scale="  155.291">  1  3  2 -1</clus>
<clus scale="   89.447">  1  3  2 -1</clus>
</clustering>
</event>
<event>
 6    0  0.1230761E+002  0.1084106E+03  0.7546771E-02  0.1263542E+00
         21   -1    0    0  505  502  0.00000000000E+00  0.00000000000E+00  0.23339331508E+03  0.23339331508E+03  0.00000000000E+00 0. -1.
          1   -1    0    0  503    0 -0.00000000000E+00 -0.00000000000E+00 -0.69421471107E+03  0.69421471107E+03  0.00000000000E+00 0. -1.
         21    1    1    2  503  504 -0.36099764983E+02  0.89949747585E+01 -0.40782477431E+03  0.40951819146E+03  0.00000000000E+00 0.  1.
         21    1    1    2  504  502 -0.30697841632E+02  0.41267978990E+02  0.15677861635E+03  0.16499981247E+03  0.00000000000E+00 0. -1.
         21    1    1    2  505  501 -0.78254491924E+02 -0.14085826835E+02  0.17156634051E+02  0.81342031668E+02  0.00000000000E+00 0. -1.
          1    1    1    2  501    0  0.14505209854E+03 -0.36177126914E+02 -0.22693187209E+03  0.27174799056E+03  0.00000000000E+00 0. -1.
<scales pt_clust_3="37.20353" pt_clust_4="51.84867" pt_clust_5="108.41059" pt_clust_6="14000.00000"></scales>
<clustering>
<clus scale="   37.204">  2  3  1 -1</clus>
<clus scale="   51.849">  1  4  2 -1</clus>
<clus scale="  108.411">  1  5  2 -1</clus>
<clus scale="   51.849">  1  3  2 -1</clus>
</clustering>
</event>
<event>
 6    0  0.1230761E+002  0.1241234E+03  0.7546771E-02  0.1236446E+00
         -2   -1    0    0    0  501 -0.00000000000E+00  0.00000000000E+00  0.20067980784E+03  0.20067980784E+03  0.00000000000E+00 0. -1.
         21   -1    0    0  505  502  0.00000000000E+00 -0.00000000000E+00 -0.24383943688E+03  0.24383943688E+03  0.00000000000E+00 0. -1.
         21    1    1    2  503  501 -0.77533363423E+02  0.21853545630E+02  0.28411217464E+02  0.85417780222E+02  0.00000000000E+00 0. -1.
         21    1    1    2  504  503 -0.94140469048E+02  0.18686215772E+02 -0.74586659312E+02  0.12155152126E+03  0.00000000000E+00 0. -1.
         21    1    1    2  505  504 -0.20776864500E+02 -0.29216829150E+02 -0.23623648507E+02  0.42934577823E+02  0.00000000000E+00 0. -1.
         -2    1    1    2    0  502  0.19245069697E+03 -0.11322932252E+02  0.26639461313E+02  0.19461536542E+03  0.00000000000E+00 0. -1.
<scales pt_clust_3="82.31537" pt_clust_4="14000.00000" pt_clust_5="35.85110" pt_clust_6="124.12339"></scales>
<clustering>
<clus scale="   35.851">  2  5  1 -1</clus>
<clus scale="   82.315">  1  3  2 -1</clus>
<clus scale="  124.123">  1  6  2 -1</clus>
<clus scale="   35.851">  2  3  1 -1</clus>
</clustering>
</event>
<event>
 6    0  0.1230761E+002  0.2290079E+03  0.7546771E-02  0.1127340E+00
         21   -1    0    0  505  502  0.00000000000E+00  0.00000000000E+00  0.38984635016E+03  0.38984635016E+03  0.00000000000E+00 0. -1.
          2   -1    0    0  504    0 -0.00000000000E+00 -0.00000000000E+00 -0.96070133046E+03  0.96070133046E+03  0.00000000000E+00 0. -1.
         21    1    1    2  503  502 -0.17786331919E+03 -0.62619473856E+02  0.23203688401E+03  0.29899443868E+03  0.00000000000E+00 0. -1.
         21    1    1    2  504  503 -0.14881960247E+03  0.97349031539E+02 -0.18036677860E+03  0.25329090557E+03  0.00000000000E+00 0. -1.
         21    1    1    2  505  501 -0.21279928642E+02 -0.55628285546E+02  0.23629157876E+02  0.64075569585E+02  0.00000000000E+00 0. -1.
          2    1    1    2  501    0  0.34796285030E+03  0.20898727862E+02 -0.64615424360E+03  0.73418676679E+03  0.00000000000E+00 0. -1.
<scales pt_clust_3="229.00787" pt_clust_4="176.60577" pt_clust_5="59.55956" pt_clust_6="14000.00000"></scales>
<clustering>
<clus scale="   59.560">  1  5  2 -1</clus>
<clus scale="  176.606">  2  4  1 -1</clus>
<clus scale="  229.008">  1  3  2 -1</clus>
<clus scale="   59.560">  1  3  2 -1</clus>
</clustering>
</event>
<event>
 6    0  0.1230761E+002  0.1297408E+03  0.7546771E-02  0.1227841E+00
          2   -1    0    0  503    0 -0.00000000000E+00  0.00000000000E+00  0.25734668286E+04  0.25734668286E+04  0.00000000000E+00 0.  1.
         21   -1    0    0  504  502  0.00000000000E+00 -0.00000000000E+00 -0.23592898466E+03  0.23592898466E+03  0.00000000000E+00 0.  1.
         21    1    1    2  503  502  0.61092750903E+02 -0.29686843170E+02 -0.20356617836E+03  0.21459921212E+03  0.00000000000E+00 0.  1.
         21    1    1    2  504  505  0.63905764601E+02  0.27751488404E+02  0.23313469623E+02  0.73468426714E+02  0.00000000000E+00 0.  1.
         21    1    1    2  505  501 -0.34953956092E+02  0.14575342239E+02  0.47151737823E+03  0.47303578894E+03  0.00000000000E+00 0.  1.
          2    1    1    2  501    0 -0.90044559412E+02 -0.12639987473E+02  0.20462731745E+04  0.20482923855E+04  0.00000000000E+00 0.  1.
<scales pt_clust_3="67.92373" pt_clust_4="120.97332" pt_clust_5="30.25745" pt_clust_6="30.25745"></scales>
<clustering>
<clus scale="   30.257">  5  6 -1 -1</clus>
<clus scale="   67.924">  2  3  1 -1</clus>
<clus scale="  120.973">  2  4  1 -1</clus>
<clus scale="   67.924">  2  3  1 -1</clus>
</clustering>
</event>
<event>
 6    0  0.1230761E+002  0.1360789E+03  0.7546771E-02  0.1218705E+00
         21   -1    0    0  501  502  0.00000000000E+00  0.00000000000E+00  0.71606493080E+02  0.71606493080E+02  0.00000000000E+00 0.  1.
          2   -1    0    0  505    0 -0.00000000000E+00 -0.00000000000E+00 -0.28280185388E+04  0.28280185388E+04  0.00000000000E+00 0. -1.
         21    1    1    2  503  502  0.79508450432E+02  0.54105650955E+02  0.41085262989E+01  0.96259519757E+02  0.00000000000E+00 0.  1.
         21    1    1    2  504  503  0.34417869787E+02 -0.31066729277E+02 -0.74389865283E+02  0.87656052190E+02  0.00000000000E+00 0. -1.
         21    1    1    2  505  504  0.21741996347E+02 -0.43748834910E+02 -0.32825590935E+02  0.58857407192E+02  0.00000000000E+00 0.  1.
          2    1    1    2  501    0 -0.13566831657E+03  0.20709913232E+02 -0.26533051158E+04  0.26568520527E+04  0.00000000000E+00 0. -1.
<scales pt_clust_3="96.17180" pt_clust_4="34.02369" pt_clust_5="34.02369" pt_clust_6="131.52083"></scales>
<clustering>
<clus scale="   34.024">  4  5 -1 -1</clus>
<clus scale="   96.172">  1  3  2 -1</clus>
<clus scale="  131.521">  2  6  1 -1</clus>
<clus scale="   96.172">  1  3  2 -1</clus>
</clustering>
</event>
<event>
 6    0  0.1230761E+002  0.1052801E+03  0.7546771E-02  0.1269569E+00
         21   -1    0    0  504  502  0.00000000000E+00  0.00000000000E+00  0.15809660928E+02  0.15809660928E+02  0.00000000000E+00 0.  1.
          2   -1    0    0  505    0 -0.00000000000E+00 -0.00000000000E+00 -0.32762574840E+04  0.32762574840E+04  0.00000000000E+00 0. -1.
         21    1    1    2  503  502 -0.11669722013E+02  0.38660234700E+02 -0.15883434464E+03  0.16388759927E+03  0.00000000000E+00 0.  1.
         21    1    1    2  504  501 -0.43119902309E+02 -0.74780435084E+02 -0.17565189764E+03  0.19571670493E+03  0.00000000000E+00 0.  1.
         21    1    1    2  505  503 -0.46438771706E+02 -0.50186117192E+01 -0.25343355933E+03  0.25770198869E+03  0.00000000000E+00 0.  1.
          2    1    1    2  501    0  0.10122839603E+03  0.41138812103E+02 -0.26725280215E+04  0.26747608521E+04  0.00000000000E+00 0. -1.
<scales pt_clust_3="40.38312" pt_clust_4="105.28015" pt_clust_5="48.32850" pt_clust_6="14000.00000"></scales>
<clustering>
<clus scale="   40.383">  1  3  2 -1</clus>
<clus scale="   48.328">  1  5  2 -1</clus>
<clus scale="  105.280">  1  4  2 -1</clus>
<clus scale="   40.383">  1  3  2 -1</clus>
</clustering>
</event>
<event>
 6    0  0.1230761E+002  0.1997962E+03  0.7546771E-02  0.1149911E+00
          1   -1    0    0  505    0 -0.00000000000E+00  0.00000000000E+00  0.84879170460E+02  0.84879170460E+02  0.00000000000E+00 0.  1.
         21   -1    0    0  503  502  0.00000000000E+00 -0.00000000000E+00 -0.14289900312E+04  0.14289900312E+04  0.00000000000E+00 0.  1.
         21    1    1    2  503  504  0.14523388210E+02 -0.46716523777E+02 -0.35382118868E+03  0.35718734014E+03  0.00000000000E+00 0.  1.
         21    1    1    2  504  501  0.31644312282E+02 -0.12654169898E+03 -0.40375410173E+03  0.42430123585E+03  0.00000000000E+00 0.  1.
         21    1    1    2  505  502 -0.19889120341E+02 -0.24433760964E+02  0.53448623948E+02  0.62043059118E+02  0.00000000000E+00 0.  1.
          1    1    1    2  501    0 -0.26278580151E+02  0.19769198372E+03 -0.63998419426E+03  0.67033756654E+03  0.00000000000E+00 0.  1.
<scales pt_clust_3="41.08907" pt_clust_4="41.08907" pt_clust_5="31.50533" pt_clust_6="187.78793"></scales>
<clustering>
<clus scale="   31.505">  1  5  2 -1</clus>
<clus scale="   41.089">  3  4 -1 -1</clus>
<clus scale="  187.788">  1  6  2 -1</clus>
<clus scale="  199.796">  2  3  1 -1</clus>
</clustering>
</event>
<event>
 6    0  0.1230761E+002  0.1381603E+03  0.7546771E-02  0.1215826E+00
         21   -1    0    0  501  502  0.00000000000E+00  0.00000000000E+00  0.26823733815E+03  0.26823733815E+03  0.00000000000E+00 0. -1.
          2   -1    0    0  505    0 -0.00000000000E+00 -0.00000000000E+00 -0.13061628286E+04  0.13061628286E+04  0.00000000000E+00 0. -1.
         21    1    1    2  503  502 -0.45030432063E+02 -0.22329255713E+02  0.15353530803E+03  0.16155316860E+03  0.00000000000E+00 0. -1.
         21    1    1    2  504  503 -0.71356981304E+02 -0.56459022826E+02  0.81360592293E+02  0.12206140265E+03  0.00000000000E+00 0. -1.
         21    1    1    2  505  504 -0.33869670653E+02 -0.10554459655E+02 -0.13360221187E+03  0.13823205933E+03  0.00000000000E+00 0.  1.
          2    1    1    2  501    0  0.15025708402E+03  0.89342738194E+02 -0.11392191789E+04  0.11525535362E+04  0.00000000000E+00 0. -1.
<scales pt_clust_3="50.38268" pt_clust_4="138.16029" pt_clust_5="35.47607" pt_clust_6="14000.00000"></scales>
<clustering>
<clus scale="   35.476">  2  5  1 -1</clus>
<clus scale="   50.383">  1  3  2 -1</clus>
<clus scale="  138.160">  1  4  2 -1</clus>
<clus scale="   50.383">  1  3  2 -1</clus>
</clustering>
</event>
<event>
 6    0  0.1230761E+002  0.9283605E+02  0.7546771E-02  0.1296126E+00
         -2   -1    0    0    0  501 -0.00000000000E+00  0.00000000000E+00  0.48549713789E+02  0.48549713789E+02  0.00000000000E+00 0.  1.
         21   -1    0    0  504  502  0.00000000000E+00 -0.00000000000E+00 -0.15469040476E+04  0.15469040476E+04  0.00000000000E+00 0. -1.
         21    1    1    2  503  501 -0.18635442571E+02  0.64402368914E+02 -0.38654745330E+02  0.77389496562E+02  0.00000000000E+00 0.  1.
         21    1    1    2  504  505 -0.33390197556E+02  0.55164165279E+01 -0.67906954786E+03  0.67991233772E+03  0.00000000000E+00 0. -1.
         21    1    1    2  505  503 -0.41640815148E+02  0.52166160196E+02 -0.58719915800E+03  0.59098064005E+03  0.00000000000E+00 0. -1.
         -2    1    1    2    0  502  0.93666455275E+02 -0.12208494564E+03 -0.19343088259E+03  0.24717128704E+03  0.00000000000E+00 0.  1.
<scales pt_clust_3="68.05030" pt_clust_4="33.84282" pt_clust_5="92.83605" pt_clust_6="14000.00000"></scales>
<clustering>
<clus scale="   33.843">  2  4  1 -1</clus>
<clus scale="   68.050">  1  3  2 -1</clus>
<clus scale="   92.836">  2  5  1 -1</clus>
<clus scale="   33.843">  2  3  1 -1</clus>
</clustering>
</event>
<event>
 6    0  0.1230761E+002  0.1175813E+03  0.7546771E-02  0.1247141E+00
          1   -1    0    0  504    0 -0.00000000000E+00  0.00000000000E+00  0.17778678774E+04  0.17778678774E+04  0.00000000000E+00 0. -1.
         21   -1    0    0  503  502  0.00000000000E+00 -0.00000000000E+00 -0.24217871446E+03  0.24217871446E+03  0.00000000000E+00 0. -1.
         21    1    1    2  503  505 -0.20965959733E+02 -0.68900178898E+02 -0.19301822756E+03  0.20601660683E+03  0.00000000000E+00 0. -1.
         21    1    1    2  504  502 -0.32803329660E+02  0.11857401686E+02 -0.23338825894E+02  0.41968526369E+02  0.00000000000E+00 0. -1.
         21    1    1    2  505  501 -0.76605418672E+02  0.69609192028E+02  0.38221169842E+03  0.39597930779E+03  0.00000000000E+00 0.  1.
          1    1    1    2  501    0  0.13037470806E+03 -0.12566414816E+02  0.13698345179E+04  0.13760821508E+04  0.00000000000E+00 0. -1.
<scales pt_clust_3="77.74260" pt_clust_4="34.88060" pt_clust_5="117.58130" pt_clust_6="14000.00000"></scales>
<clustering>
<clus scale="   34.881">  2  4  1 -1</clus>
<clus scale="   77.743">  2  3  1 -1</clus>
<clus scale="  117.581">  2  5  1 -1</clus>
<clus scale="   34.881">  2  3  1 -1</clus>
</clustering>
</event>
<event>
 6    0  0.1230761E+002  0.7486751E+02  0.7546771E-02  0.1344282E+00
          2   -1    0    0  502    0 -0.00000000000E+00  0.00000000000E+00  0.17119916371E+04  0.17119916371E+04  0.00000000000E+00 0. -1.
         21   -1    0    0  505  502  0.00000000000E+00 -0.00000000000E+00 -0.63734389414E+02  0.63734389414E+02  0.00000000000E+00 0. -1.
         21    1    1    2  503  501  0.59224483997E+02 -0.95634841341E+02  0.52799126364E+03  0.53984102926E+03  0.00000000000E+00 0. -1.
         21    1    1    2  504  503 -0.13719479900E+02  0.57417330641E+02  0.43712574866E+02  0.73455858773E+02  0.00000000000E+00 0. -1.
         21    1    1    2  505  504 -0.24683722844E+02 -0.27160651762E+02 -0.33837965636E+02  0.49919886778E+02  0.00000000000E+00 0. -1.
          2    1    1    2  501    0 -0.20821281253E+02  0.65378162462E+02  0.11103913748E+04  0.11125092517E+04  0.00000000000E+00 0. -1.
<scales pt_clust_3="74.86751" pt_clust_4="49.46914" pt_clust_5="36.70132" pt_clust_6="14000.00000"></scales>
<clustering>
<clus scale="   36.701">  2  5  1 -1</clus>
<clus scale="   49.469">  2  4  1 -1</clus>
<clus scale="   74.868">  2  3  1 -1</clus>
<clus scale="   36.701">  2  3  1 -1</clus>
</clustering>
</event>
<event>
 6    0  0.1230761E+002  0.1215185E+03  0.7546771E-02  0.1240613E+00
         21   -1    0    0  501  502  0.00000000000E+00  0.00000000000E+00  0.23723954487E+02  0.23723954487E+02  0.00000000000E+00 0.  1.
          2   -1    0    0  503    0 -0.00000000000E+00 -0.00000000000E+00 -0.15472926662E+04  0.15472926662E+04  0.00000000000E+00 0. -1.
         21    1    1    2  503  505  0.88720683429E+01 -0.29650437557E+02 -0.24193644246E+03  0.24390798313E+03  0.00000000000E+00 0.  1.
         21    1    1    2  504  502 -0.69840493919E+02 -0.24418710759E+02 -0.66146776733E+02  0.99243962528E+02  0.00000000000E+00 0.  1.
         21    1    1    2  505  504 -0.30287687275E+02 -0.19309469908E+02 -0.10010451780E+03  0.10635372167E+03  0.00000000000E+00 0.  1.
          2    1    1    2  501    0  0.91256112852E+02  0.73378618224E+02 -0.11153809747E+04  0.11215109534E+04  0.00000000000E+00 0. -1.
<scales pt_clust_3="30.94935" pt_clust_4="36.50363" pt_clust_5="36.50363" pt_clust_6="109.88012"></scales>
<clustering>
<clus scale="   30.949">  2  3  1 -1</clus>
<clus scale="   36.504">  4  5 -1 -1</clus>
<clus scale="  109.880">  2  6  1 -1</clus>
<clus scale="  121.519">  1  3  2 -1</clus>
</clustering>
</event>
<event>
 6    0  0.1230761E+002  0.3407631E+03  0.7546771E-02  0.1066471E+00
          1   -1    0    0  504    0 -0.00000000000E+00  0.00000000000E+00  0.25009150193E+04  0.25009150193E+04  0.00000000000E+00 0.  1.
         21   -1    0    0  503  502  0.00000000000E+00 -0.00000000000E+00 -0.10918121211E+04  0.10918121211E+04  0.00000000000E+00 0. -1.
         21    1    1    2  503  501  0.55822692267E+01 -0.39539207069E+02 -0.85052233557E+03  0.85145919099E+03  0.00000000000E+00 0. -1.
         21    1    1    2  504  505  0.32864408177E+03  0.21672962143E+03  0.16928240296E+03  0.42852677074E+03  0.00000000000E+00 0. -1.
         21    1    1    2  505  502 -0.31928696579E+02 -0.30912583178E+02 -0.93343096435E+02  0.10338260548E+03  0.00000000000E+00 0. -1.
          1    1    1    2  501    0 -0.30229765442E+03 -0.14627783118E+03  0.21836859273E+04  0.22093585731E+04  0.00000000000E+00 0.  1.
<scales pt_clust_3="39.93132" pt_clust_4="340.76307" pt_clust_5="55.62282" pt_clust_6="14000.00000"></scales>
<clustering>
<clus scale="   39.931">  2  3  1 -1</clus>
<clus scale="   55.623">  2  5  1 -1</clus>
<clus scale="  340.763">  2  4  1 -1</clus>
<clus scale="   39.931">  2  3  1 -1</clus>
</clustering>
</event>
<event>
 6    0  0.1230761E+002  0.1095058E+03  0.7546771E-02  0.1261488E+00
          2   -1    0    0  503    0 -0.00000000000E+00  0.00000000000E+00  0.12785744998E+04  0.12785744998E+04  0.00000000000E+00 0. -1.
         21   -1    0    0  505  502  0.00000000000E+00 -0.00000000000E+00 -0.73862353906E+02  0.73862353906E+02  0.00000000000E+00 0.  1.
         21    1    1    2  503  502 -0.39477054840E+02 -0.10137235128E+03  0.50782963930E+03  0.51935126265E+03  0.00000000000E+00 0. -1.
         21    1    1    2  504  501  0.35295131104E+02  0.23147848076E+02  0.60072415407E+02  0.73418418963E+02  0.00000000000E+00 0.  1.
         21    1    1    2  505  504  0.11190755213E+02 -0.36356499155E+02 -0.50282787431E+02  0.63050668076E+02  0.00000000000E+00 0.  1.
          2    1    1    2  501    0 -0.70088314764E+01  0.11458100236E+03  0.68709287858E+03  0.69661650398E+03  0.00000000000E+00 0. -1.
<scales pt_clust_3="14000.00000" pt_clust_4="40.65547" pt_clust_5="38.03982" pt_clust_6="109.50584"></scales>
<clustering>
<clus scale="   38.040">  2  5  1 -1</clus>
<clus scale="   40.655">  2  4  1 -1</clus>
<clus scale="  109.506">  1  6  2 -1</clus>
<clus scale="   38.040">  2  3  1 -1</clus>
</clustering>
</event>
<event>
 6    0  0.1230761E+002  0.8607239E+02  0.7546771E-02  0.1312652E+00
          3   -1    0    0  504    0 -0.00000000000E+00  0.00000000000E+00  0.10971850109E+03  0.10971850109E+03  0.00000000000E+00 0.  1.
         21   -1    0    0  503  502  0.00000000000E+00 -0.00000000000E+00 -0.50470517036E+03  0.50470517036E+03  0.00000000000E+00 0.  1.
         21    1    1    2  503  505 -0.81956039069E+02 -0.23827062304E+02 -0.24188467009E+03  0.25650090616E+03  0.00000000000E+00 0.  1.
         21    1    1    2  504  502 -0.47190182904E+00 -0.31360705628E+02 -0.67547739645E+01  0.32083383863E+02  0.00000000000E+00 0. -1.
         21    1    1    2  505  501  0.21363716518E+02  0.90902906080E+02 -0.21053677172E+03  0.23031604149E+03  0.00000000000E+00 0.  1.
          3    1    1    2  501    0  0.61064224380E+02 -0.35715138148E+02  0.64189546504E+02  0.95523339935E+02  0.00000000000E+00 0.  1.
<scales pt_clust_3="86.07239" pt_clust_4="31.36426" pt_clust_5="14000.00000" pt_clust_6="81.05851"></scales>
<clustering>
<clus scale="   31.364">  1  4  2 -1</clus>
<clus scale="   86.072">  2  3  1 -1</clus>
<clus scale="   81.059">  1  6  2 -1</clus>
<clus scale="   86.072">  2  3  1 -1</clus>
</clustering>
</event>
<event>
 6    0  0.1230761E+002  0.1368212E+03  0.7546771E-02  0.1217671E+00
          2   -1    0    0  503    0 -0.00000000000E+00  0.00000000000E+00  0.27220677178E+04  0.27220677178E+04  0.00000000000E+00 0.  1.
         21   -1    0    0  505  502  0.00000000000E+00 -0.00000000000E+00 -0.15241733449E+03  0.15241733449E+03  0.00000000000E+00 0. -1.
         21    1    1    2  503  502 -0.38880258626E+02 -0.39692346699E+02 -0.55386157019E+02  0.78452426901E+02  0.00000000000E+00 0. -1.
         21    1    1    2  504  501  0.45338718469E+02  0.81041888251E+02  0.21144570535E+03  0.23093867878E+03  0.00000000000E+00 0. -1.
         21    1    1    2  505  504  0.11317685543E+03  0.47021391306E+02 -0.22383248401E+02  0.12458339237E+03  0.00000000000E+00 0. -1.
          2    1    1    2  501    0 -0.11963531527E+03 -0.88370932858E+02  0.24359740834E+04  0.24405105542E+04  0.00000000000E+00 0.  1.
<scales pt_clust_3="55.56219" pt_clust_4="14000.00000" pt_clust_5="80.79785" pt_clust_6="136.82124"></scales>
<clustering>
<clus scale="   55.562">  2  3  1 -1</clus>
<clus scale="   80.798">  2  5  1 -1</clus>
<clus scale="  136.821">  1  6  2 -1</clus>
<clus scale="   55.562">  2  3  1 -1</clus>
</clustering>
</event>
<event>
 6    0  0.1230761E+002  0.2882449E+03  0.7546771E-02  0.1091269E+00
         21   -1    0    0  503  502  0.00000000000E+00  0.00000000000E+00  0.21818663865E+04  0.21818663865E+04  0.00000000000E+00 0. -1.
         -4   -1    0    0    0  501 -0.00000000000E+00 -0.00000000000E+00 -0.44698084920E+03  0.44698084920E+03  0.00000000000E+00 0.  1.
         21    1    1    2  503  505  0.73523540146E+02 -0.30707400158E+02  0.12978366414E+04  0.13002802017E+04  0.00000000000E+00 0. -1.
         21    1    1    2  504  502 -0.10053436068E+02 -0.33008288739E+02  0.52490406130E+03  0.52603696854E+03  0.00000000000E+00 0.  1.
         21    1    1    2  505  501  0.17854578346E+03 -0.11725500337E+03  0.26342843255E+03  0.33914874567E+03  0.00000000000E+00 0. -1.
         -4    1    1    2    0  504 -0.24201588754E+03  0.18097069227E+03 -0.35128359795E+03  0.46338131972E+03  0.00000000000E+00 0.  1.
<scales pt_clust_3="86.66855" pt_clust_4="34.50534" pt_clust_5="288.24495" pt_clust_6="14000.00000"></scales>
<clustering>
<clus scale="   34.505">  1  4  2 -1</clus>
<clus scale="   86.669">  1  3  2 -1</clus>
<clus scale="  288.245">  1  5  2 -1</clus>
<clus scale="   34.505">  1  3  2 -1</clus>
</clustering>
</event>
<event>
 6    0  0.1230761E+002  0.1586304E+03  0.7546771E-02  0.1190252E+00
         21   -1    0    0  504  502  0.00000000000E+00  0.00000000000E+00  0.15763748273E+03  0.15763748273E+03  0.00000000000E+00 0.  1.
          1   -1    0    0  503    0 -0.00000000000E+00 -0.00000000000E+00 -0.19509200070E+04  0.19509200070E+04  0.00000000000E+00 0. -1.
         21    1    1    2  503  505 -0.81727282152E+01 -0.44309240454E+02 -0.61876208617E+03  0.62040037198E+03  0.00000000000E+00 0. -1.
         21    1    1    2  504  501  0.11082790144E+03  0.13695024835E+03 -0.40630887472E+03  0.44286013135E+03  0.00000000000E+00 0. -1.
         21    1    1    2  505  502 -0.74595368496E+02 -0.13822048729E+03  0.92927396261E+02  0.18249622759E+03  0.00000000000E+00 0.  1.
          1    1    1    2  501    0 -0.28059804729E+02  0.45579479397E+02 -0.86113895960E+03  0.86280075876E+03  0.00000000000E+00 0. -1.
<scales pt_clust_3="45.05666" pt_clust_4="14000.00000" pt_clust_5="158.63039" pt_clust_6="37.38490"></scales>
<clustering>
<clus scale="   45.057">  2  3  1 -1</clus>
<clus scale="   37.385">  2  6  1 -1</clus>
<clus scale="  158.630">  1  5  2 -1</clus>
<clus scale="  158.630">  1  3  2 -1</clus>
</clustering>
</event>
<event>
 6    0  0.1230761E+002  0.1054914E+03  0.7546771E-02  0.1269154E+00
          2   -1    0    0  504    0 -0.00000000000E+00  0.00000000000E+00  0.17322540993E+04  0.17322540993E+04  0.00000000000E+00 0.  1.
         21   -1    0    0  505  502  0.00000000000E+00 -0.00000000000E+00 -0.67501222859E+02  0.67501222859E+02  0.00000000000E+00 0. -1.
         21    1    1    2  503  501  0.10224651092E+03 -0.38275814995E+02  0.48060655031E+03  0.49285093407E+03  0.00000000000E+00 0.  1.
         21    1    1    2  504  502 -0.24448356777E+02  0.30036963957E+02  0.44330986594E+02  0.58865760211E+02  0.00000000000E+00 0. -1.
         21    1    1    2  505  503 -0.55256921486E+02  0.47787277564E+02 -0.28807798324E+02  0.78529233496E+02  0.00000000000E+00 0. -1.
          2    1    1    2  501    0 -0.22541232658E+02 -0.39548426526E+02  0.11686231378E+04  0.11695093944E+04  0.00000000000E+00 0.  1.
<scales pt_clust_3="14000.00000" pt_clust_4="38.72908" pt_clust_5="105.49139" pt_clust_6="45.41912"></scales>
<clustering>
<clus scale="   38.729">  2  4  1 -1</clus>
<clus scale="   45.419">  1  6  2 -1</clus>
<clus scale="  105.491">  2  5  1 -1</clus>
<clus scale="   38.729">  2  3  1 -1</clus>
</clustering>
</event>
<event>
 6    0  0.1230761E+002  0.1326489E+03  0.7546771E-02  0.1223577E+00
         21   -1    0    0  503  502  0.00000000000E+00  0.00000000000E+00  0.43376829461E+03  0.43376829461E+03  0.00000000000E+00 0. -1.
          2   -1    0    0  504    0 -0.00000000000E+00 -0.00000000000E+00 -0.28160768114E+04  0.28160768114E+04  0.00000000000E+00 0.  1.
         21    1    1    2  503  505  0.64058488139E+02 -0.26122536735E+02  0.10868258497E+03  0.12883237600E+03  0.00000000000E+00 0. -1.
         21    1    1    2  504  502  0.47833751768E+02  0.76791527075E+02  0.30690576987E+03  0.31996274473E+03  0.00000000000E+00 0. -1.
         21    1    1    2  505  501 -0.35083044666E+02 -0.95202567872E+01 -0.42435472527E+03  0.42590889656E+03  0.00000000000E+00 0. -1.
          2    1    1    2  501    0 -0.76809195242E+02 -0.41148733553E+02 -0.23735421464E+04  0.23751410888E+04  0.00000000000E+00 0.  1.
<scales pt_clust_3="69.18003" pt_clust_4="122.59218" pt_clust_5="32.72395" pt_clust_6="32.72395"></scales>
<clustering>
<clus scale="   32.724">  5  6 -1 -1</clus>
<clus scale="   69.180">  1  3  2 -1</clus>
<clus scale="  122.592">  1  4  2 -1</clus>
<clus scale="   69.180">  1  3  2 -1</clus>
</clustering>
</event>
<event>
 6    0  0.1230761E+002  0.1475491E+03  0.7546771E-02  0.1203517E+00
         21   -1    0    0  501  502  0.00000000000E+00  0.00000000000E+00  0.27613990723E+03  0.27613990723E+03  0.00000000000E+00 0.  1.
          2   -1    0    0  505    0 -0.00000000000E+00 -0.00000000000E+00 -0.12012794730E+04  0.12012794730E+04  0.00000000000E+00 0.  1.
         21    1    1    2  503  504  0.80904365382E+02  0.21717411314E+02  0.86372287318E+02  0.12032179482E+03  0.00000000000E+00 0. -1.
         21    1    1    2  504  502  0.57240727527E+02 -0.20386794930E+01  0.15950983112E+03  0.16948169024E+03  0.00000000000E+00 0.  1.
         21    1    1    2  505  503 -0.74758021510E+02 -0.10350723127E+02 -0.18907279254E+03  0.20357902674E+03  0.00000000000E+00 0. -1.
          2    1    1    2  501    0 -0.63387071400E+02 -0.93280086938E+01 -0.98194889164E+03  0.98403686839E+03  0.00000000000E+00 0.  1.
<scales pt_clust_3="52.66688" pt_clust_4="52.66688" pt_clust_5="133.09402" pt_clust_6="64.06975"></scales>
<clustering>
<clus scale="   52.667">  3  4 -1 -1</clus>
<clus scale="   64.070">  2  6  1 -1</clus>
<clus scale="  133.094">  2  5  1 -1</clus>
<clus scale="  147.549">  1  3  2 -1</clus>
</clustering>
</event>
<event>
 6    0  0.1230761E+002  0.1443129E+03  0.7546771E-02  0.1207641E+00
         21   -1    0    0  501  502  0.00000000000E+00  0.00000000000E+00  0.18525470232E+02  0.18525470232E+02  0.00000000000E+00 0.  1.
          1   -1    0    0  505    0 -0.00000000000E+00 -0.00000000000E+00 -0.21235679008E+04  0.21235679008E+04  0.00000000000E+00 0.  1.
         21    1    1    2  503  502 -0.79129805008E+02 -0.53003622382E+02 -0.22790311081E+03  0.24700351808E+03  0.00000000000E+00 0.  1.
         21    1    1    2  504  503 -0.42158091187E+02  0.60416259403E+01 -0.13122698572E+03  0.13796495090E+03  0.00000000000E+00 0.  1.
         21    1    1    2  505  504 -0.22246788016E+02 -0.26815370764E+02 -0.22624346085E+03  0.22891065345E+03  0.00000000000E+00 0.  1.
          1    1    1    2  501    0  0.14353468421E+03  0.73777367205E+02 -0.15196688732E+04  0.15282142486E+04  0.00000000000E+00 0.  1.
<scales pt_clust_3="32.14042" pt_clust_4="32.14042" pt_clust_5="34.84227" pt_clust_6="136.07392"></scales>
<clustering>
<clus scale="   32.140">  3  4 -1 -1</clus>
<clus scale="   34.842">  2  5  1 -1</clus>
<clus scale="  136.074">  2  6  1 -1</clus>
<clus scale="  144.313">  1  3  2 -1</clus>
</clustering>
</event>
<event>
 6    0  0.1230761E+002  0.1336799E+03  0.7546771E-02  0.1222095E+00
          1   -1    0    0  504    0 -0.00000000000E+00  0.00000000000E+00  0.35053131469E+02  0.35053131469E+02  0.00000000000E+00 0.  1.
         21   -1    0    0  501  502  0.00000000000E+00 -0.00000000000E+00 -0.14195832695E+04  0.14195832695E+04  0.00000000000E+00 0.  1.
         21    1    1    2  503  505  0.53498427375E+02 -0.61255085399E+02 -0.29665689534E+03  0.30760295962E+03  0.00000000000E+00 0.  1.
         21    1    1    2  504  503 -0.32336706831E+02 -0.12282085259E+02 -0.17113441111E+02  0.38592513440E+02  0.00000000000E+00 0.  1.
         21    1    1    2  505  502  0.11979646270E+03  0.32764630427E+02 -0.31561960234E+03  0.33917612956E+03  0.00000000000E+00 0.  1.
          1    1    1    2  501    0 -0.14095818324E+03  0.40772540230E+02 -0.75514019922E+03  0.76926479833E+03  0.00000000000E+00 0.  1.
<scales pt_clust_3="78.96054" pt_clust_4="34.59064" pt_clust_5="14000.00000" pt_clust_6="133.67985"></scales>
<clustering>
<clus scale="   34.591">  1  4  2 -1</clus>
<clus scale="   78.961">  1  3  2 -1</clus>
<clus scale="  133.680">  2  6  1 -1</clus>
<clus scale="  133.680">  2  3  1 -1</clus>
</clustering>
</event>
<event>
 6    0  0.1230761E+002  0.1454423E+03  0.7546771E-02  0.1206188E+00
          1   -1    0    0  505    0 -0.00000000000E+00  0.00000000000E+00  0.28847414842E+03  0.28847414842E+03  0.00000000000E+00 0.  1.
         21   -1    0    0  504  502  0.00000000000E+00 -0.00000000000E+00 -0.30540077123E+03  0.30540077123E+03  0.00000000000E+00 0. -1.
         21    1    1    2  503  501  0.45337433281E+02 -0.36960240244E+02 -0.14047603765E+03  0.15216786576E+03  0.00000000000E+00 0.  1.
         21    1    1    2  504  503  0.55984015979E+02 -0.66913664198E+02 -0.11776663269E+03  0.14656271107E+03  0.00000000000E+00 0. -1.
         21    1    1    2  505  502 -0.54000628104E+01  0.48468189630E+02  0.12663126939E+03  0.13569747408E+03  0.00000000000E+00 0. -1.
          1    1    1    2  501    0 -0.95921386450E+02  0.55405714812E+02  0.11468477814E+03  0.15944686873E+03  0.00000000000E+00 0.  1.
<scales pt_clust_3="31.65815" pt_clust_4="31.65815" pt_clust_5="48.76808" pt_clust_6="140.20915"></scales>
<clustering>
<clus scale="   31.658">  3  4 -1 -1</clus>
<clus scale="   48.768">  1  5  2 -1</clus>
<clus scale="  140.209">  1  6  2 -1</clus>
<clus scale="  145.442">  2  3  1 -1</clus>
</clustering>
</event>
<event>
 6    0  0.1230761E+002  0.1249240E+03  0.7546771E-02  0.1235188E+00
         21   -1    0    0  503  502  0.00000000000E+00  0.00000000000E+00  0.96621921601E+03  0.96621921601E+03  0.00000000000E+00 0. -1.
          2   -1    0    0  505    0 -0.00000000000E+00 -0.00000000000E+00 -0.26513632677E+03  0.26513632677E+03  0.00000000000E+00 0. -1.
         21    1    1    2  503  504 -0.41661046097E+01  0.95202042431E+02  0.87239668145E+03  0.87758575371E+03  0.00000000000E+00 0. -1.
         21    1    1    2  504  501 -0.35605094264E+01 -0.54696368757E+02 -0.12689633142E+03  0.13822824932E+03  0.00000000000E+00 0. -1.
         21    1    1    2  505  502 -0.23582459255E+02  0.21353613654E+02  0.72747811174E+02  0.79399957375E+02  0.00000000000E+00 0.  1.
          2    1    1    2  501    0  0.31309073291E+02 -0.61859287328E+02 -0.11716527196E+03  0.13614158238E+03  0.00000000000E+00 0. -1.
<scales pt_clust_3="119.36697" pt_clust_4="32.79777" pt_clust_5="31.81366" pt_clust_6="32.79777"></scales>
<clustering>
<clus scale="   31.814">  1  5  2 -1</clus>
<clus scale="   32.798">  4  6 -1 -1</clus>
<clus scale="  119.367">  1  3  2 -1</clus>
<clus scale="   31.814">  1  3  2 -1</clus>
</clustering>
</event>
<event>
 6    0  0.1230761E+002  0.1217310E+03  0.7546771E-02  0.1240269E+00
         21   -1    0    0  504  502  0.00000000000E+00  0.00000000000E+00  0.85903369222E+03  0.85903369222E+03  0.00000000000E+00 0. -1.
         -1   -1    0    0    0  501 -0.00000000000E+00 -0.00000000000E+00 -0.80046580849E+02  0.80046580849E+02  0.00000000000E+00 0. -1.
         21    1    1    2  503  501 -0.54283878229E+02 -0.14603678684E+02  0.26164689941E+02  0.62004821315E+02  0.00000000000E+00 0. -1.
         21    1    1    2  504  503 -0.27972647796E+02  0.15804538948E+02  0.73056534518E+02  0.79809208189E+02  0.00000000000E+00 0.  1.
         21    1    1    2  505  502 -0.82237067311E+02  0.37632740156E+02  0.60624328164E+03  0.61295193523E+03  0.00000000000E+00 0. -1.
         -1    1    1    2    0  505  0.16449359334E+03 -0.38833600420E+02  0.73522605274E+02  0.18431430833E+03  0.00000000000E+00 0. -1.
<scales pt_clust_3="57.51828" pt_clust_4="32.12869" pt_clust_5="14000.00000" pt_clust_6="121.73097"></scales>
<clustering>
<clus scale="   32.129">  1  4  2 -1</clus>
<clus scale="   57.518">  2  3  1 -1</clus>
<clus scale="  121.731">  2  6  1 -1</clus>
<clus scale="   32.129">  1  3  2 -1</clus>
</clustering>
</event>
<event>
 6    0  0.1230761E+002  0.7523122E+02  0.7546771E-02  0.1343156E+00
          2   -1    0    0  505    0 -0.00000000000E+00  0.00000000000E+00  0.22549790881E+04  0.22549790881E+04  0.00000000000E+00 0.  1.
         21   -1    0    0  504  502  0.00000000000E+00 -0.00000000000E+00 -0.52815255347E+03  0.52815255347E+03  0.00000000000E+00 0. -1.
         21    1    1    2  503  502 -0.15872435893E+02  0.37308444800E+02 -0.44963882567E+03  0.45146309685E+03  0.00000000000E+00 0. -1.
         21    1    1    2  504  501 -0.19189547347E+02 -0.50419805448E+02 -0.44549361416E+02  0.69964570401E+02  0.00000000000E+00 0.  1.
         21    1    1    2  505  503  0.37750046001E+02  0.87821805420E+02  0.96349226184E+02  0.13572364888E+03  0.00000000000E+00 0.  1.
          2    1    1    2  501    0 -0.26880627614E+01 -0.74710444772E+02  0.21246654955E+04  0.21259803254E+04  0.00000000000E+00 0.  1.
<scales pt_clust_3="40.54447" pt_clust_4="38.45672" pt_clust_5="75.23122" pt_clust_6="14000.00000"></scales>
<clustering>
<clus scale="   40.544">  2  3  1 -1</clus>
<clus scale="   38.457">  2  4  1 -1</clus>
<clus scale="   75.231">  2  5  1 -1</clus>
<clus scale="   40.544">  2  3  1 -1</clus>
</clustering>
</event>
<event>
 6    0  0.1230761E+002  0.8393278E+02  0.7546771E-02  0.1318247E+00
         -2   -1    0    0    0  501 -0.00000000000E+00  0.00000000000E+00  0.38018489862E+03  0.38018489862E+03  0.00000000000E+00 0.  1.
         21   -1    0    0  504  502  0.00000000000E+00 -0.00000000000E+00 -0.11525726882E+03  0.11525726882E+03  0.00000000000E+00 0.  1.
         21    1    1    2  503  505 -0.55017470500E+02  0.52644620748E+02  0.23368265507E+02  0.79652080868E+02  0.00000000000E+00 0.  1.
         21    1    1    2  504  503 -0.42408079310E+02 -0.48552328109E+02 -0.54696454702E+02  0.84542746067E+02  0.00000000000E+00 0.  1.
         21    1    1    2  505  501 -0.32270498978E+01 -0.40540053519E+02  0.93676331449E+02  0.10212328267E+03  0.00000000000E+00 0.  1.
         -2    1    1    2    0  502  0.10065259971E+03  0.36447760881E+02  0.20257948755E+03  0.22912405783E+03  0.00000000000E+00 0.  1.
<scales pt_clust_3="83.93278" pt_clust_4="66.20406" pt_clust_5="40.66829" pt_clust_6="14000.00000"></scales>
<clustering>
<clus scale="   40.668">  1  5  2 -1</clus>
<clus scale="   66.204">  2  4  1 -1</clus>
<clus scale="   83.933">  2  3  1 -1</clus>
<clus scale="   66.204">  2  3  1 -1</clus>
</clustering>
</event>
<event>
 6    0  0.1230761E+002  0.1370086E+03  0.7546771E-02  0.1217412E+00
         21   -1    0    0  503  502  0.00000000000E+00  0.00000000000E+00  0.38402116747E+02  0.38402116747E+02  0.00000000000E+00 0. -1.
          2   -1    0    0  504    0 -0.00000000000E+00 -0.00000000000E+00 -0.11873750052E+04  0.11873750052E+04  0.00000000000E+00 0. -1.
         21    1    1    2  503  505  0.22143798923E+02  0.32342409431E+02 -0.96586033661E+02  0.10423646760E+03  0.00000000000E+00 0. -1.
         21    1    1    2  504  502 -0.13097709487E+03 -0.71699300293E+02 -0.23791946408E+03  0.28089403773E+03  0.00000000000E+00 0. -1.
         21    1    1    2  505  501 -0.28585599295E+02  0.38526150321E+02 -0.78799846456E+02  0.92254086885E+02  0.00000000000E+00 0.  1.
          2    1    1    2  501    0  0.13741889524E+03  0.83074054108E+00 -0.73566754425E+03  0.74839252973E+03  0.00000000000E+00 0. -1.
<scales pt_clust_3="39.19667" pt_clust_4="14000.00000" pt_clust_5="50.97150" pt_clust_6="137.00864"></scales>
<clustering>
<clus scale="   39.197">  1  3  2 -1</clus>
<clus scale="   50.971">  1  5  2 -1</clus>
<clus scale="  137.009">  2  6  1 -1</clus>
<clus scale="   39.197">  1  3  2 -1</clus>
</clustering>
</event>
<event>
 6    0  0.1230761E+002  0.1277257E+03  0.7546771E-02  0.1230870E+00
          2   -1    0    0  505    0 -0.00000000000E+00  0.00000000000E+00  0.24380206530E+04  0.24380206530E+04  0.00000000000E+00 0.  1.
         21   -1    0    0  501  502  0.00000000000E+00 -0.00000000000E+00 -0.67251331318E+02  0.67251331318E+02  0.00000000000E+00 0.  1.
         21    1    1    2  503  504 -0.77585416942E+01  0.72697929959E+02  0.22550884925E+02  0.76509649068E+02  0.00000000000E+00 0.  1.
         21    1    1    2  504  502 -0.36037585978E+02  0.27650638421E+01 -0.21819868891E+02  0.42219188286E+02  0.00000000000E+00 0.  1.
         21    1    1    2  505  503 -0.74008568688E+02  0.28394025513E+02  0.29166884286E+03  0.30224857786E+03  0.00000000000E+00 0.  1.
          2    1    1    2  501    0  0.11780469636E+03 -0.10385701931E+03  0.20783694628E+04  0.20842945691E+04  0.00000000000E+00 0.  1.
<scales pt_clust_3="82.74846" pt_clust_4="36.14351" pt_clust_5="14000.00000" pt_clust_6="127.72574"></scales>
<clustering>
<clus scale="   36.144">  2  4  1 -1</clus>
<clus scale="   82.748">  2  3  1 -1</clus>
<clus scale="  127.726">  1  6  2 -1</clus>
<clus scale="   36.144">  2  3  1 -1</clus>
</clustering>
</event>
<event>
 6    0  0.1230761E+002  0.1650241E+03  0.7546771E-02  0.1183139E+00
          1   -1    0    0  504    0 -0.00000000000E+00  0.00000000000E+00  0.17248422853E+04  0.17248422853E+04  0.00000000000E+00 0. -1.
         21   -1    0    0  503  502  0.00000000000E+00 -0.00000000000E+00 -0.22775077357E+03  0.22775077357E+03  0.00000000000E+00 0. -1.
         21    1    1    2  503  501  0.56195363890E+02 -0.10542315221E+03 -0.18017726814E+03  0.21618466157E+03  0.00000000000E+00 0. -1.
         21    1    1    2  504  505  0.25921916320E+02 -0.16431856016E+02  0.72795213656E+02  0.79000599802E+02  0.00000000000E+00 0.  1.
         21    1    1    2  505  502  0.42029246841E+02 -0.28285295736E+02  0.10709104742E+02  0.51780309668E+02  0.00000000000E+00 0.  1.
          1    1    1    2  501    0 -0.12414652705E+03  0.15014030397E+03  0.15937644614E+04  0.16056274878E+04  0.00000000000E+00 0. -1.
<scales pt_clust_3="14000.00000" pt_clust_4="30.69123" pt_clust_5="51.24212" pt_clust_6="165.02406"></scales>
<clustering>
<clus scale="   30.691">  1  4  2 -1</clus>
<clus scale="   51.242">  2  5  1 -1</clus>
<clus scale="  165.024">  1  6  2 -1</clus>
<clus scale="   51.242">  2  3  1 -1</clus>
</clustering>
</event>
<event>
 6    0  0.1230761E+002  0.9666329E+02  0.7546771E-02  0.1287473E+00
         21   -1    0    0  505  502  0.00000000000E+00  0.00000000000E+00  0.68577869013E+03  0.68577869013E+03  0.00000000000E+00 0.  1.
          4   -1    0    0  504    0 -0.00000000000E+00 -0.00000000000E+00 -0.41046456780E+03  0.41046456780E+03  0.00000000000E+00 0.  1.
         21    1    1    2  503  502  0.23575876442E+02  0.40593805381E+02  0.17705132844E+03  0.18316891627E+03  0.00000000000E+00 0. -1.
         21    1    1    2  504  503  0.64071894873E+02 -0.16772180063E+02 -0.99347343158E+02  0.11940020238E+03  0.00000000000E+00 0. -1.
         21    1    1    2  505  501  0.53663397787E+02  0.19533334821E+02  0.47550062388E+03  0.47891769098E+03  0.00000000000E+00 0.  1.
          4    1    1    2  501    0 -0.14131116910E+03 -0.43354960139E+02 -0.27789048682E+03  0.31475644830E+03  0.00000000000E+00 0.  1.
<scales pt_clust_3="46.94336" pt_clust_4="66.48521" pt_clust_5="14000.00000" pt_clust_6="96.66329"></scales>
<clustering>
<clus scale="   46.943">  1  3  2 -1</clus>
<clus scale="   66.485">  2  4  1 -1</clus>
<clus scale="   96.663">  2  6  1 -1</clus>
<clus scale="   46.943">  1  3  2 -1</clus>
</clustering>
</event>
<event>
 6    0  0.1230761E+002  0.1147482E+03  0.7546771E-02  0.1252021E+00
         21   -1    0    0  501  502  0.00000000000E+00  0.00000000000E+00  0.15485016656E+02  0.15485016656E+02  0.00000000000E+00 0. -1.
          2   -1    0    0  504    0 -0.00000000000E+00 -0.00000000000E+00 -0.21917323043E+04  0.21917323043E+04  0.00000000000E+00 0.  1.
         21    1    1    2  503  502 -0.80949236626E+01  0.45165705716E+02 -0.68354109776E+02  0.82327110269E+02  0.00000000000E+00 0. -1.
         21    1    1    2  504  505  0.27740356501E+02  0.20277921014E+02 -0.26891499760E+03  0.27110145222E+03  0.00000000000E+00 0. -1.
         21    1    1    2  505  503 -0.42777452691E+02  0.47147337568E+02 -0.18170562636E+03  0.19253497488E+03  0.00000000000E+00 0. -1.
          2    1    1    2  501    0  0.23132019853E+02 -0.11259096430E+03 -0.16572725539E+04  0.16612537836E+04  0.00000000000E+00 0.  1.
<scales pt_clust_3="37.42208" pt_clust_4="34.36163" pt_clust_5="37.42208" pt_clust_6="106.10165"></scales>
<clustering>
<clus scale="   34.362">  2  4  1 -1</clus>
<clus scale="   37.422">  3  5 -1 -1</clus>
<clus scale="  106.102">  2  6  1 -1</clus>
<clus scale="  114.748">  1  3  2 -1</clus>
</clustering>
</event>
<event>
 6    0  0.1230761E+002  0.6600894E+02  0.7546771E-02  0.1374216E+00
         21   -1    0    0  505  502  0.00000000000E+00  0.00000000000E+00  0.70359242886E+02  0.70359242886E+02  0.00000000000E+00 0.  1.
          1   -1    0    0  504    0 -0.00000000000E+00 -0.00000000000E+00 -0.92619391733E+03  0.92619391733E+03  0.00000000000E+00 0.  1.
         21    1    1    2  503  502 -0.53052010969E+02  0.17167449204E+02  0.16523502561E+02  0.58157229275E+02  0.00000000000E+00 0.  1.
         21    1    1    2  504  503  0.40858393788E+02 -0.25375006861E+01 -0.22737646080E+03  0.23103225355E+03  0.00000000000E+00 0.  1.
         21    1    1    2  505  501  0.92618773147E+02  0.26469935782E+02 -0.55845702810E+02  0.11134467730E+03  0.00000000000E+00 0.  1.
          1    1    1    2  501    0 -0.80425155967E+02 -0.41099884299E+02 -0.58913601339E+03  0.59601900010E+03  0.00000000000E+00 0.  1.
<scales pt_clust_3="54.57701" pt_clust_4="40.93711" pt_clust_5="14000.00000" pt_clust_6="66.00894"></scales>
<clustering>
<clus scale="   40.937">  2  4  1 -1</clus>
<clus scale="   54.577">  1  3  2 -1</clus>
<clus scale="   66.009">  2  6  1 -1</clus>
<clus scale="   54.577">  1  3  2 -1</clus>
</clustering>
</event>
<event>
 6    0  0.1230761E+002  0.9574836E+02  0.7546771E-02  0.1289499E+00
         -2   -1    0    0    0  501 -0.00000000000E+00  0.00000000000E+00  0.13562697832E+03  0.13562697832E+03  0.00000000000E+00 0. -1.
         21   -1    0    0  503  502  0.00000000000E+00 -0.00000000000E+00 -0.12642172751E+04  0.12642172751E+04  0.00000000000E+00 0.  1.
         21    1    1    2  503  505  0.78192184680E+02 -0.23833378020E+02 -0.80273332482E+03  0.80688465002E+03  0.00000000000E+00 0.  1.
         21    1    1    2  504  502  0.73586796935E+01  0.67613607481E+02 -0.40760840476E+03  0.41324370741E+03  0.00000000000E+00 0.  1.
         21    1    1    2  505  501  0.25344876757E+02  0.16465737555E+02  0.17146169957E+01  0.30272482596E+02  0.00000000000E+00 0. -1.
         -2    1    1    2    0  504 -0.11089574113E+03 -0.60245967017E+02  0.80036815770E+02  0.14944341344E+03  0.00000000000E+00 0. -1.
<scales pt_clust_3="14000.00000" pt_clust_4="68.46520" pt_clust_5="30.22389" pt_clust_6="95.74836"></scales>
<clustering>
<clus scale="   30.224">  1  5  2 -1</clus>
<clus scale="   68.465">  2  4  1 -1</clus>
<clus scale="   95.748">  1  6  2 -1</clus>
<clus scale="   68.465">  2  3  1 -1</clus>
</clustering>
</event>
<event>
 6    0  0.1230761E+002  0.9226283E+02  0.7546771E-02  0.1297463E+00
         21   -1    0    0  503  502  0.00000000000E+00  0.00000000000E+00  0.22861976520E+04  0.22861976520E+04  0.00000000000E+00 0. -1.
          2   -1    0    0  505    0 -0.00000000000E+00 -0.00000000000E+00 -0.33591552712E+03  0.33591552712E+03  0.00000000000E+00 0. -1.
         21    1    1    2  503  501  0.18951979073E+02 -0.39797105581E+02  0.50245870885E+03  0.50438848245E+03  0.00000000000E+00 0.  1.
         21    1    1    2  504  502 -0.10880883885E+03  0.54462235199E+02  0.17434629229E+04  0.17477037684E+04  0.00000000000E+00 0. -1.
         21    1    1    2  505  504 -0.33976184125E+02 -0.12051155409E+02 -0.22410742450E+03  0.22698843396E+03  0.00000000000E+00 0. -1.
          2    1    1    2  501    0  0.12383304390E+03 -0.26139742089E+01 -0.71532082388E+02  0.14303249432E+03  0.00000000000E+00 0. -1.
<scales pt_clust_3="44.04785" pt_clust_4="92.26283" pt_clust_5="36.05012" pt_clust_6="14000.00000"></scales>
<clustering>
<clus scale="   36.050">  2  5  1 -1</clus>
<clus scale="   44.048">  1  3  2 -1</clus>
<clus scale="   92.263">  1  4  2 -1</clus>
<clus scale="   44.048">  1  3  2 -1</clus>
</clustering>
</event>
<event>
 6    0  0.1230761E+002  0.2347186E+03  0.7546771E-02  0.1123362E+00
         21   -1    0    0  501  502  0.00000000000E+00  0.00000000000E+00  0.21587056560E+03  0.21587056560E+03  0.00000000000E+00 0.  1.
          2   -1    0    0  504    0 -0.00000000000E+00 -0.00000000000E+00 -0.15343307898E+04  0.15343307898E+04  0.00000000000E+00 0.  1.
         21    1    1    2  503  502 -0.45470047330E+02 -0.34298833473E+02  0.74318543439E+02  0.93633226372E+02  0.00000000000E+00 0.  1.
         21    1    1    2  504  505 -0.35233171059E+02 -0.51365346760E+01 -0.58428818026E+02  0.68422855153E+02  0.00000000000E+00 0. -1.
         21    1    1    2  505  503  0.35357504863E+02  0.26551261389E+03 -0.36924436933E+02  0.27038956217E+03  0.00000000000E+00 0.  1.
          2    1    1    2  501    0  0.45345713526E+02 -0.22607724574E+03 -0.12974255127E+04  0.13177557117E+04  0.00000000000E+00 0.  1.
<scales pt_clust_3="57.16065" pt_clust_4="35.60562" pt_clust_5="14000.00000" pt_clust_6="234.71855"></scales>
<clustering>
<clus scale="   35.606">  2  4  1 -1</clus>
<clus scale="   57.161">  1  3  2 -1</clus>
<clus scale="  234.719">  2  6  1 -1</clus>
<clus scale="   57.161">  1  3  2 -1</clus>
</clustering>
</event>
<event>
 6    0  0.1230761E+002  0.1320721E+03  0.7546771E-02  0.1224413E+00
         21   -1    0    0  503  502  0.00000000000E+00  0.00000000000E+00  0.19834257942E+03  0.19834257942E+03  0.00000000000E+00 0.  1.
          1   -1    0    0  505    0 -0.00000000000E+00 -0.00000000000E+00 -0.52498464807E+03  0.52498464807E+03  0.00000000000E+00 0.  1.
         21    1    1    2  503  501  0.94649857488E+02 -0.38080410777E+02  0.15472561805E+03  0.18533410395E+03  0.00000000000E+00 0.  1.
         21    1    1    2  504  502  0.30500332715E+02 -0.13959711281E+02 -0.15945531866E+02  0.37140326079E+02  0.00000000000E+00 0. -1.
         21    1    1    2  505  504 -0.16185706331E+02 -0.26817083399E+02 -0.24194993318E+02  0.39579423356E+02  0.00000000000E+00 0. -1.
          1    1    1    2  501    0 -0.10896448387E+03  0.78857205458E+02 -0.44122716152E+03  0.46127337410E+03  0.00000000000E+00 0.  1.
<scales pt_clust_3="14000.00000" pt_clust_4="33.39374" pt_clust_5="31.32304" pt_clust_6="132.07213"></scales>
<clustering>
<clus scale="   31.323">  2  5  1 -1</clus>
<clus scale="   33.394">  1  4  2 -1</clus>
<clus scale="  132.072">  2  6  1 -1</clus>
<clus scale="   33.394">  1  3  2 -1</clus>
</clustering>
</event>
<event>
 6    0  0.1230761E+002  0.1563620E+03  0.7546771E-02  0.1192866E+00
          1   -1    0    0  505    0 -0.00000000000E+00  0.00000000000E+00  0.17351953931E+04  0.17351953931E+04  0.00000000000E+00 0. -1.
         21   -1    0    0  504  502  0.00000000000E+00 -0.00000000000E+00 -0.77273831716E+03  0.77273831716E+03  0.00000000000E+00 0.  1.
         21    1    1    2  503  501 -0.49903029424E+02  0.23943677057E+01 -0.17572270965E+03  0.18268693448E+03  0.00000000000E+00 0.  1.
         21    1    1    2  504  503 -0.63145473245E+02  0.81459956701E+02 -0.57857602791E+03  0.58768469047E+03  0.00000000000E+00 0.  1.
         21    1    1    2  505  502  0.29472859110E+02 -0.31238331958E+02  0.42585664900E+02  0.60481581185E+02  0.00000000000E+00 0. -1.
          1    1    1    2  501    0  0.83575643559E+02 -0.52615992449E+02  0.16741701486E+04  0.16770805041E+04  0.00000000000E+00 0. -1.
<scales pt_clust_3="47.69838" pt_clust_4="47.69838" pt_clust_5="42.94744" pt_clust_6="140.55156"></scales>
<clustering>
<clus scale="   42.947">  1  5  2 -1</clus>
<clus scale="   47.698">  3  4 -1 -1</clus>
<clus scale="  140.552">  1  6  2 -1</clus>
<clus scale="  156.362">  2  3  1 -1</clus>
</clustering>
</event>
<event>
 6    0  0.1230761E+002  0.8058854E+02  0.7546771E-02  0.1327390E+00
         21   -1    0    0  505  502  0.00000000000E+00  0.00000000000E+00  0.30348683432E+02  0.30348683432E+02  0.00000000000E+00 0. -1.
          2   -1    0    0  503    0 -0.00000000000E+00 -0.00000000000E+00 -0.94682691366E+03  0.94682691366E+03  0.00000000000E+00 0.  1.
         21    1    1    2  503  504 -0.41962053844E+02  0.24590170171E+02 -0.19118301964E+03  0.19727249537E+03  0.00000000000E+00 0. -1.
         21    1    1    2  504  502  0.18434092210E+02 -0.69434922828E+02 -0.28186330979E+03  0.29087445688E+03  0.00000000000E+00 0. -1.
         21    1    1    2  505  501 -0.75772641064E+02  0.10389926590E+02 -0.79892738836E+02  0.11059969904E+03  0.00000000000E+00 0. -1.
          2    1    1    2  501    0  0.99300602698E+02  0.34454826067E+02 -0.36353916197E+03  0.37842894580E+03  0.00000000000E+00 0.  1.
<scales pt_clust_3="48.63631" pt_clust_4="60.12884" pt_clust_5="14000.00000" pt_clust_6="80.58854"></scales>
<clustering>
<clus scale="   48.636">  2  3  1 -1</clus>
<clus scale="   60.129">  2  4  1 -1</clus>
<clus scale="   80.589">  2  6  1 -1</clus>
<clus scale="   80.589">  1  3  2 -1</clus>
</clustering>
</event>
<event>
 6    0  0.1230761E+002  0.1149572E+03  0.7546771E-02  0.1251656E+00
          1   -1    0    0  504    0 -0.00000000000E+00  0.00000000000E+00  0.12013495870E+03  0.12013495870E+03  0.00000000000E+00 0.  1.
         21   -1    0    0  505  502  0.00000000000E+00 -0.00000000000E+00 -0.48388580731E+03  0.48388580731E+03  0.00000000000E+00 0.  1.
         21    1    1    2  503  501  0.61264905136E+02 -0.15278245135E+02 -0.27677391029E+02  0.68940926523E+02  0.00000000000E+00 0.  1.
         21    1    1    2  504  502 -0.81466498459E+02 -0.77799314495E+02 -0.21406578668E+03  0.24189602050E+03  0.00000000000E+00 0.  1.
         21    1    1    2  505  503  0.66779942421E+02  0.99023309441E+02 -0.18157430058E+03  0.21733477207E+03  0.00000000000E+00 0.  1.
          1    1    1    2  501    0 -0.46578349097E+02 -0.59457498099E+01  0.59566629678E+02  0.75849046906E+02  0.00000000000E+00 0.  1.
<scales pt_clust_3="46.40900" pt_clust_4="114.95718" pt_clust_5="14000.00000" pt_clust_6="46.95630"></scales>
<clustering>
<clus scale="   46.956">  1  6  2 -1</clus>
<clus scale="   46.409">  1  3  2 -1</clus>
<clus scale="  114.957">  2  4  1 -1</clus>
<clus scale="  114.957">  2  3  1 -1</clus>
</clustering>
</event>
<event>
 6    0  0.1987987E+002  0.1147933E+03  0.7546771E-02  0.1251942E+00
         21   -1    0    0  505  502  0.00000000000E+00  0.00000000000E+00  0.98642334060E+03  0.98642334060E+03  0.00000000000E+00 0. -1.
          2   -1    0    0  504    0 -0.00000000000E+00 -0.00000000000E+00 -0.52749257864E+03  0.52749257864E+03  0.00000000000E+00 0.  1.
         21    1    1    2  503  502  0.57130853319E+02 -0.52437633351E+02  0.85511373326E+03  0.85862281393E+03  0.00000000000E+00 0. -1.
         21    1    1    2  504  503 -0.41129567166E+02 -0.86943504888E+02  0.73079379474E+02  0.12079490901E+03  0.00000000000E+00 0.  1.
         21    1    1    2  505  501 -0.24722955577E+02  0.23153243441E+02  0.14535150751E+02  0.36858755020E+02  0.00000000000E+00 0. -1.
          2    1    1    2  501    0  0.87216694239E+01  0.11622789480E+03 -0.48379750152E+03  0.49763944129E+03  0.00000000000E+00 0.  1.
<scales pt_clust_3="47.34004" pt_clust_4="114.79331" pt_clust_5="33.87178" pt_clust_6="14000.00000"></scales>
<clustering>
<clus scale="   33.872">  1  5  2 -1</clus>
<clus scale="   47.340">  1  3  2 -1</clus>
<clus scale="  114.793">  1  4  2 -1</clus>
<clus scale="   33.872">  1  3  2 -1</clus>
</clustering>
</event>
<event>
 6    0  0.1230761E+002  0.1225114E+03  0.7546771E-02  0.1239011E+00
          4   -1    0    0  505    0 -0.00000000000E+00  0.00000000000E+00  0.10452093703E+04  0.10452093703E+04  0.00000000000E+00 0.  1.
         21   -1    0    0  504  502  0.00000000000E+00 -0.00000000000E+00 -0.54660194547E+02  0.54660194547E+02  0.00000000000E+00 0. -1.
         21    1    1    2  503  502 -0.35990630655E+02 -0.53494611104E+01 -0.52362211378E+01  0.36760852015E+02  0.00000000000E+00 0. -1.
         21    1    1    2  504  501 -0.83333943561E+02 -0.61965568905E+02  0.82136893893E+02  0.13240372811E+03  0.00000000000E+00 0. -1.
         21    1    1    2  505  503  0.31296584930E+02 -0.12412570690E+02  0.47718440442E+03  0.47837067632E+03  0.00000000000E+00 0. -1.
          4    1    1    2  501    0  0.88027989286E+02  0.79727600705E+02  0.43646409860E+03  0.45233430842E+03  0.00000000000E+00 0.  1.
<scales pt_clust_3="35.57988" pt_clust_4="122.51142" pt_clust_5="33.66821" pt_clust_6="14000.00000"></scales>
<clustering>
<clus scale="   33.668">  1  5  2 -1</clus>
<clus scale="   35.580">  2  3  1 -1</clus>
<clus scale="  122.511">  2  4  1 -1</clus>
<clus scale="   35.580">  2  3  1 -1</clus>
</clustering>
</event>
<event>
 6    0  0.1230761E+002  0.1760326E+03  0.7546771E-02  0.1171699E+00
         21   -1    0    0  505  502  0.00000000000E+00  0.00000000000E+00  0.48982764552E+03  0.48982764552E+03  0.00000000000E+00 0. -1.
          2   -1    0    0  504    0 -0.00000000000E+00 -0.00000000000E+00 -0.27120919168E+04  0.27120919168E+04  0.00000000000E+00 0. -1.
         21    1    1    2  503  501 -0.39059727869E+02 -0.41323256882E+02 -0.10121056175E+03  0.11608984327E+03  0.00000000000E+00 0. -1.
         21    1    1    2  504  502  0.14877368428E+03  0.10977819370E+03 -0.18726096408E+03  0.26315685363E+03  0.00000000000E+00 0. -1.
         21    1    1    2  505  503 -0.15713082734E+03 -0.78275663910E+02  0.42684724024E+03  0.46153628564E+03  0.00000000000E+00 0. -1.
          2    1    1    2  501    0  0.47416870924E+02  0.98207270946E+01 -0.23606399857E+04  0.23611365798E+04  0.00000000000E+00 0. -1.
<scales pt_clust_3="45.39435" pt_clust_4="176.03257" pt_clust_5="14000.00000" pt_clust_6="48.42320"></scales>
<clustering>
<clus scale="   48.423">  2  6  1 -1</clus>
<clus scale="   45.394">  2  3  1 -1</clus>
<clus scale="  176.033">  2  4  1 -1</clus>
<clus scale="  176.033">  1  3  2 -1</clus>
</clustering>
</event>
<event>
 6    0  0.1230761E+002  0.9579412E+02  0.7546771E-02  0.1289397E+00
         21   -1    0    0  503  502  0.00000000000E+00  0.00000000000E+00  0.26922941468E+02  0.26922941468E+02  0.00000000000E+00 0.  1.
          2   -1    0    0  504    0 -0.00000000000E+00 -0.00000000000E+00 -0.20049201111E+04  0.20049201111E+04  0.00000000000E+00 0.  1.
         21    1    1    2  503  501  0.45799525362E+02 -0.13665241304E+03 -0.31024256544E+03  0.34208467947E+03  0.00000000000E+00 0.  1.
         21    1    1    2  504  505 -0.33438966155E+02  0.16879694317E+02 -0.29124867567E+03  0.29364754319E+03  0.00000000000E+00 0. -1.
         21    1    1    2  505  502  0.25011532904E+02  0.66471034664E+02 -0.13191300898E+03  0.14981661178E+03  0.00000000000E+00 0. -1.
          2    1    1    2  501    0 -0.37372092111E+02  0.53301684061E+02 -0.12445929195E+04  0.12462942181E+04  0.00000000000E+00 0.  1.
<scales pt_clust_3="95.79412" pt_clust_4="37.45782" pt_clust_5="71.41753" pt_clust_6="14000.00000"></scales>
<clustering>
<clus scale="   37.458">  2  4  1 -1</clus>
<clus scale="   71.418">  1  5  2 -1</clus>
<clus scale="   95.794">  1  3  2 -1</clus>
<clus scale="   71.418">  1  3  2 -1</clus>
</clustering>
</event>
<event>
 6    0  0.1230761E+002  0.2561090E+03  0.7546771E-02  0.1109504E+00
          4   -1    0    0  503    0 -0.00000000000E+00  0.00000000000E+00  0.44996373668E+03  0.44996373668E+03  0.00000000000E+00 0. -1.
         21   -1    0    0  505  502  0.00000000000E+00 -0.00000000000E+00 -0.20531320124E+03  0.20531320124E+03  0.00000000000E+00 0. -1.
         21    1    1    2  503  502  0.12925309930E+02  0.39499110532E+02  0.61940572578E+02  0.74591406347E+02  0.00000000000E+00 0. -1.
         21    1    1    2  504  501 -0.14959173673E+03 -0.22427409561E+02  0.62428573870E+01  0.15139236991E+03  0.00000000000E+00 0. -1.
         21    1    1    2  505  504 -0.96187570560E+02 -0.47855415765E+02 -0.35257311611E+02  0.11307195749E+03  0.00000000000E+00 0. -1.
          4    1    1    2  501    0  0.23285399736E+03  0.30783714794E+02  0.21172441709E+03  0.31622120418E+03  0.00000000000E+00 0. -1.
<scales pt_clust_3="41.56012" pt_clust_4="51.54175" pt_clust_5="51.54175" pt_clust_6="248.67533"></scales>
<clustering>
<clus scale="   41.560">  1  3  2 -1</clus>
<clus scale="   51.542">  4  5 -1 -1</clus>
<clus scale="  248.675">  1  6  2 -1</clus>
<clus scale="  256.109">  2  3  1 -1</clus>
</clustering>
</event>
<event>
 6    0  0.1230761E+002  0.8119594E+02  0.7546771E-02  0.1325691E+00
         21   -1    0    0  504  502  0.00000000000E+00  0.00000000000E+00  0.37014036829E+03  0.37014036829E+03  0.00000000000E+00 0.  1.
          1   -1    0    0  503    0 -0.00000000000E+00 -0.00000000000E+00 -0.12102678140E+04  0.12102678140E+04  0.00000000000E+00 0.  1.
         21    1    1    2  503  505 -0.44749569958E+02 -0.55965217247E+02 -0.41086200016E+03  0.41706379936E+03  0.00000000000E+00 0. -1.
         21    1    1    2  504  501  0.12590794724E+01 -0.72633235718E+02  0.22472454932E+03  0.23617429004E+03  0.00000000000E+00 0.  1.
         21    1    1    2  505  502  0.46000703938E+02  0.26697328644E+02  0.12797618572E+03  0.13858829760E+03  0.00000000000E+00 0.  1.
          1    1    1    2  501    0 -0.25102134523E+01  0.10190112432E+03 -0.78196618057E+03  0.78858179529E+03  0.00000000000E+00 0.  1.
<scales pt_clust_3="14000.00000" pt_clust_4="65.53156" pt_clust_5="53.18658" pt_clust_6="81.19594"></scales>
<clustering>
<clus scale="   53.187">  1  5  2 -1</clus>
<clus scale="   65.532">  1  4  2 -1</clus>
<clus scale="   81.196">  1  6  2 -1</clus>
<clus scale="   53.187">  1  3  2 -1</clus>
</clustering>
</event>
<event>
 6    0  0.1230761E+002  0.2447663E+03  0.7546771E-02  0.1116658E+00
          2   -1    0    0  505    0 -0.00000000000E+00  0.00000000000E+00  0.53652422980E+03  0.53652422980E+03  0.00000000000E+00 0.  1.
         21   -1    0    0  501  502  0.00000000000E+00 -0.00000000000E+00 -0.24440378806E+04  0.24440378806E+04  0.00000000000E+00 0. -1.
         21    1    1    2  503  502  0.15543452494E+03  0.18898926869E+03 -0.22931187165E+04  0.23061375247E+04  0.00000000000E+00 0. -1.
         21    1    1    2  504  503  0.83290594260E+02  0.46034387197E+02  0.43149660558E+01  0.95263355121E+02  0.00000000000E+00 0. -1.
         21    1    1    2  505  504 -0.59897153769E+02 -0.59007023324E+02 -0.36619696023E+02  0.91708778031E+02  0.00000000000E+00 0. -1.
          2    1    1    2  501    0 -0.17882796543E+03 -0.17601663256E+03  0.41790979563E+03  0.48745245250E+03  0.00000000000E+00 0.  1.
<scales pt_clust_3="244.76634" pt_clust_4="87.27350" pt_clust_5="84.08031" pt_clust_6="14000.00000"></scales>
<clustering>
<clus scale="   84.080">  1  5  2 -1</clus>
<clus scale="   87.273">  1  4  2 -1</clus>
<clus scale="  244.766">  2  3  1 -1</clus>
<clus scale="  244.766">  2  3  1 -1</clus>
</clustering>
</event>
<event>
 6    0  0.1230761E+002  0.2218647E+03  0.7546771E-02  0.1132500E+00
         21   -1    0    0  501  502  0.00000000000E+00  0.00000000000E+00  0.32214170919E+02  0.32214170919E+02  0.00000000000E+00 0. -1.
          2   -1    0    0  505    0 -0.00000000000E+00 -0.00000000000E+00 -0.63427997000E+04  0.63427997000E+04  0.00000000000E+00 0. -1.
         21    1    1    2  503  502 -0.16287870330E+01 -0.55291906580E+02 -0.41237922493E+02  0.68995754449E+02  0.00000000000E+00 0. -1.
         21    1    1    2  504  503  0.60342841992E+02 -0.62822293553E+02 -0.60431040819E+03  0.61055627799E+03  0.00000000000E+00 0. -1.
         21    1    1    2  505  504  0.14646804505E+03 -0.10516276602E+02 -0.42171339487E+03  0.44654861741E+03  0.00000000000E+00 0. -1.
          2    1    1    2  501    0 -0.20518210001E+03  0.12863047674E+03 -0.52433238035E+04  0.52489132210E+04  0.00000000000E+00 0. -1.
<scales pt_clust_3="55.31589" pt_clust_4="93.94918" pt_clust_5="221.86466" pt_clust_6="14000.00000"></scales>
<clustering>
<clus scale="   55.316">  1  3  2 -1</clus>
<clus scale="   93.949">  1  4  2 -1</clus>
<clus scale="  221.865">  1  5  2 -1</clus>
<clus scale="   55.316">  1  3  2 -1</clus>
</clustering>
</event>
<event>
 6    0  0.1230761E+002  0.1566413E+03  0.7546771E-02  0.1192542E+00
          1   -1    0    0  504    0 -0.00000000000E+00  0.00000000000E+00  0.13799533841E+04  0.13799533841E+04  0.00000000000E+00 0. -1.
         21   -1    0    0  505  502  0.00000000000E+00 -0.00000000000E+00 -0.16374829544E+03  0.16374829544E+03  0.00000000000E+00 0.  1.
         21    1    1    2  503  502 -0.12378623544E+03 -0.10502777808E+02 -0.91578953850E+02  0.15433743944E+03  0.00000000000E+00 0.  1.
         21    1    1    2  504  503  0.12895797880E+03  0.11001864516E+03  0.77445830348E+03  0.79279248635E+03  0.00000000000E+00 0. -1.
         21    1    1    2  505  501 -0.26291417038E+02 -0.44617714338E+02 -0.77006913853E+01  0.52357231501E+02  0.00000000000E+00 0.  1.
          1    1    1    2  501    0  0.21119673676E+02 -0.54898153011E+02  0.54102643041E+03  0.54421452225E+03  0.00000000000E+00 0. -1.
<scales pt_clust_3="156.64134" pt_clust_4="14000.00000" pt_clust_5="51.78783" pt_clust_6="59.20633"></scales>
<clustering>
<clus scale="   51.788">  2  5  1 -1</clus>
<clus scale="   59.206">  1  6  2 -1</clus>
<clus scale="  156.641">  2  3  1 -1</clus>
<clus scale="   51.788">  2  3  1 -1</clus>
</clustering>
</event>
<event>
 6    0  0.1230761E+002  0.1809261E+03  0.7546771E-02  0.1166910E+00
         21   -1    0    0  505  502  0.00000000000E+00  0.00000000000E+00  0.69456535769E+02  0.69456535769E+02  0.00000000000E+00 0.  1.
          2   -1    0    0  503    0 -0.00000000000E+00 -0.00000000000E+00 -0.79216036281E+03  0.79216036281E+03  0.00000000000E+00 0.  1.
         21    1    1    2  503  502  0.40543120504E+02  0.59150915985E+02 -0.19143611798E+03  0.20442691297E+03  0.00000000000E+00 0.  1.
         21    1    1    2  504  501 -0.16074747930E+02  0.93461349744E+02 -0.66514519149E+02  0.11583437605E+03  0.00000000000E+00 0.  1.
         21    1    1    2  505  504 -0.58796632280E+02  0.43773030341E+02 -0.83397395463E+02  0.11103264260E+03  0.00000000000E+00 0.  1.
          2    1    1    2  501    0  0.34328259705E+02 -0.19638529607E+03 -0.38135579445E+03  0.43032296696E+03  0.00000000000E+00 0.  1.
<scales pt_clust_3="71.71175" pt_clust_4="59.34311" pt_clust_5="59.34311" pt_clust_6="167.86363"></scales>
<clustering>
<clus scale="   59.343">  4  5 -1 -1</clus>
<clus scale="   71.712">  2  3  1 -1</clus>
<clus scale="  167.864">  2  6  1 -1</clus>
<clus scale="  180.926">  1  3  2 -1</clus>
</clustering>
</event>
<event>
 6    0  0.1230761E+002  0.1286300E+03  0.7546771E-02  0.1229503E+00
         21   -1    0    0  505  502  0.00000000000E+00  0.00000000000E+00  0.11704757133E+04  0.11704757133E+04  0.00000000000E+00 0. -1.
          1   -1    0    0  504    0 -0.00000000000E+00 -0.00000000000E+00 -0.59951138850E+02  0.59951138850E+02  0.00000000000E+00 0. -1.
         21    1    1    2  503  502  0.49480954904E+02 -0.20420596762E+02  0.58420477689E+03  0.58665201527E+03  0.00000000000E+00 0.  1.
         21    1    1    2  504  503  0.37434888726E+02 -0.78987278082E+02  0.22903949757E+03  0.24515189667E+03  0.00000000000E+00 0. -1.
         21    1    1    2  505  501 -0.21040811690E+02 -0.33199967894E+02  0.23453920251E+03  0.23780998957E+03  0.00000000000E+00 0. -1.
          1    1    1    2  501    0 -0.65875031940E+02  0.13260784274E+03  0.62741097504E+02  0.16081295067E+03  0.00000000000E+00 0. -1.
<scales pt_clust_3="54.92580" pt_clust_4="128.63000" pt_clust_5="39.30590" pt_clust_6="14000.00000"></scales>
<clustering>
<clus scale="   39.306">  1  5  2 -1</clus>
<clus scale="   54.926">  1  3  2 -1</clus>
<clus scale="  128.630">  1  4  2 -1</clus>
<clus scale="   39.306">  1  3  2 -1</clus>
</clustering>
</event>
<event>
 6    0  0.1230761E+002  0.9425906E+02  0.7546771E-02  0.1292854E+00
         21   -1    0    0  505  502  0.00000000000E+00  0.00000000000E+00  0.25463899531E+03  0.25463899531E+03  0.00000000000E+00 0. -1.
          2   -1    0    0  503    0 -0.00000000000E+00 -0.00000000000E+00 -0.18245235864E+04  0.18245235864E+04  0.00000000000E+00 0. -1.
         21    1    1    2  503  502  0.24804174539E+01 -0.51041627610E+02 -0.23300757091E+02  0.56163382206E+02  0.00000000000E+00 0.  1.
         21    1    1    2  504  501  0.85786016483E+02  0.63842659031E+02 -0.85448460890E+03  0.86114985489E+03  0.00000000000E+00 0. -1.
         21    1    1    2  505  504 -0.88735686685E+02  0.91559534223E+02  0.21435362659E+03  0.24940859574E+03  0.00000000000E+00 0. -1.
          2    1    1    2  501    0  0.46925274763E+00 -0.10436056564E+03 -0.90645285174E+03  0.91244074892E+03  0.00000000000E+00 0. -1.
<scales pt_clust_3="51.10186" pt_clust_4="94.25906" pt_clust_5="95.94130" pt_clust_6="14000.00000"></scales>
<clustering>
<clus scale="   51.102">  1  3  2 -1</clus>
<clus scale="   95.941">  1  5  2 -1</clus>
<clus scale="   94.259">  1  4  2 -1</clus>
<clus scale="   51.102">  1  3  2 -1</clus>
</clustering>
</event>
<event>
 6    0  0.2835201E+002  0.1202093E+03  0.7546771E-02  0.1242752E+00
         21   -1    0    0  504  502  0.00000000000E+00  0.00000000000E+00  0.99974956025E+03  0.99974956025E+03  0.00000000000E+00 0.  1.
          2   -1    0    0  505    0 -0.00000000000E+00 -0.00000000000E+00 -0.23268440084E+04  0.23268440084E+04  0.00000000000E+00 0. -1.
         21    1    1    2  503  501  0.35885280367E+02 -0.87302686476E+02 -0.25702581999E+03  0.27380975979E+03  0.00000000000E+00 0. -1.
         21    1    1    2  504  503 -0.14136973922E+02 -0.28131058735E+02  0.12568513746E+02  0.33899528537E+02  0.00000000000E+00 0. -1.
         21    1    1    2  505  502  0.90276906180E+02  0.48286868396E+02  0.96332880168E+03  0.96875379823E+03  0.00000000000E+00 0.  1.
          2    1    1    2  501    0 -0.11202521263E+03  0.67146876815E+02 -0.20459659436E+04  0.20501304821E+04  0.00000000000E+00 0. -1.
<scales pt_clust_3="120.20932" pt_clust_4="31.48350" pt_clust_5="78.98680" pt_clust_6="14000.00000"></scales>
<clustering>
<clus scale="   31.483">  1  4  2 -1</clus>
<clus scale="   78.987">  1  5  2 -1</clus>
<clus scale="  120.209">  1  3  2 -1</clus>
<clus scale="   31.483">  1  3  2 -1</clus>
</clustering>
</event>
<event>
 6    0  0.1230761E+002  0.1158746E+03  0.7546771E-02  0.1250062E+00
          3   -1    0    0  504    0 -0.00000000000E+00  0.00000000000E+00  0.64527642654E+03  0.64527642654E+03  0.00000000000E+00 0.  1.
         21   -1    0    0  501  502  0.00000000000E+00 -0.00000000000E+00 -0.17631420260E+03  0.17631420260E+03  0.00000000000E+00 0. -1.
         21    1    1    2  503  502 -0.46961244916E+02 -0.42149035575E+02 -0.10338132455E+03  0.12111811586E+03  0.00000000000E+00 0. -1.
         21    1    1    2  504  505 -0.25462901010E+02 -0.20435920292E+02  0.36893759616E+02  0.49265968626E+02  0.00000000000E+00 0.  1.
         21    1    1    2  505  503 -0.18139812873E+02 -0.44178974399E+02 -0.37926460115E+02  0.60985661978E+02  0.00000000000E+00 0.  1.
          3    1    1    2  501    0  0.90563958799E+02  0.10676393027E+03  0.57337624899E+03  0.59022088268E+03  0.00000000000E+00 0.  1.
<scales pt_clust_3="33.79438" pt_clust_4="32.64944" pt_clust_5="33.79438" pt_clust_6="109.19574"></scales>
<clustering>
<clus scale="   32.649">  1  4  2 -1</clus>
<clus scale="   33.794">  3  5 -1 -1</clus>
<clus scale="  109.196">  1  6  2 -1</clus>
<clus scale="  115.875">  2  3  1 -1</clus>
</clustering>
</event>
<event>
 6    0  0.1230761E+002  0.1210152E+03  0.7546771E-02  0.1241432E+00
         21   -1    0    0  504  502  0.00000000000E+00  0.00000000000E+00  0.88280677413E+02  0.88280677413E+02  0.00000000000E+00 0.  1.
          2   -1    0    0  505    0 -0.00000000000E+00 -0.00000000000E+00 -0.31984139393E+03  0.31984139393E+03  0.00000000000E+00 0.  1.
         21    1    1    2  503  501 -0.36273473483E+02  0.21490348848E+02 -0.68059876904E+02  0.80060894426E+02  0.00000000000E+00 0.  1.
         21    1    1    2  504  503  0.36101434854E+02  0.22789865905E+02 -0.22534426063E+02  0.48275169026E+02  0.00000000000E+00 0. -1.
         21    1    1    2  505  502  0.80985993051E+02 -0.16409640068E+02  0.30589140820E+02  0.88111877144E+02  0.00000000000E+00 0.  1.
          2    1    1    2  501    0 -0.80813954422E+02 -0.27870574684E+02 -0.17155555437E+03  0.19167413075E+03  0.00000000000E+00 0.  1.
<scales pt_clust_3="36.31704" pt_clust_4="42.69299" pt_clust_5="109.40972" pt_clust_6="36.31704"></scales>
<clustering>
<clus scale="   36.317">  3  6 -1 -1</clus>
<clus scale="   42.693">  1  4  2 -1</clus>
<clus scale="  109.410">  1  5  2 -1</clus>
<clus scale="   42.693">  1  3  2 -1</clus>
</clustering>
</event>
<event>
 6    0  0.1230761E+002  0.2483323E+03  0.7546771E-02  0.1114363E+00
         21   -1    0    0  504  502  0.00000000000E+00  0.00000000000E+00  0.74174353736E+03  0.74174353736E+03  0.00000000000E+00 0.  1.
          1   -1    0    0  502    0 -0.00000000000E+00 -0.00000000000E+00 -0.33319589024E+03  0.33319589024E+03  0.00000000000E+00 0. -1.
         21    1    1    2  503  505 -0.58632617492E+01 -0.22465457836E+03  0.44714018807E+03  0.50043821317E+03  0.00000000000E+00 0.  1.
         21    1    1    2  504  503  0.23715052286E+02 -0.18532754692E+02  0.21566353291E+03  0.21775359039E+03  0.00000000000E+00 0.  1.
         21    1    1    2  505  501 -0.36628187846E+02  0.12228141089E+03 -0.12199480770E+03  0.17657038455E+03  0.00000000000E+00 0.  1.
          1    1    1    2  501    0  0.18776397309E+02  0.12090592215E+03 -0.13226126615E+03  0.18017723949E+03  0.00000000000E+00 0. -1.
<scales pt_clust_3="241.87798" pt_clust_4="30.09762" pt_clust_5="55.19659" pt_clust_6="55.19659"></scales>
<clustering>
<clus scale="   30.098">  1  4  2 -1</clus>
<clus scale="   55.197">  5  6 -1 -1</clus>
<clus scale="  241.878">  1  3  2 -1</clus>
<clus scale="   30.098">  1  3  2 -1</clus>
</clustering>
</event>
<event>
 6    0  0.1230761E+002  0.8779334E+02  0.7546771E-02  0.1308285E+00
          2   -1    0    0  505    0 -0.00000000000E+00  0.00000000000E+00  0.37842825200E+03  0.37842825200E+03  0.00000000000E+00 0.  1.
         21   -1    0    0  504  502  0.00000000000E+00 -0.00000000000E+00 -0.53110567926E+03  0.53110567926E+03  0.00000000000E+00 0.  1.
         21    1    1    2  503  502  0.75060468555E+01 -0.52381487923E+02  0.35762516280E+02  0.63867977791E+02  0.00000000000E+00 0. -1.
         21    1    1    2  504  501 -0.50229230007E+02 -0.71800475639E+02 -0.48879569548E+03  0.49658787316E+03  0.00000000000E+00 0.  1.
         21    1    1    2  505  503 -0.56962158766E-01  0.30738302549E+02 -0.92398884986E+00  0.30752239653E+02  0.00000000000E+00 0.  1.
          2    1    1    2  501    0  0.42780145310E+02  0.93443661012E+02  0.30127974079E+03  0.31832584065E+03  0.00000000000E+00 0.  1.
<scales pt_clust_3="48.74929" pt_clust_4="14000.00000" pt_clust_5="30.73836" pt_clust_6="87.79334"></scales>
<clustering>
<clus scale="   30.738">  1  5  2 -1</clus>
<clus scale="   48.749">  1  3  2 -1</clus>
<clus scale="   87.793">  1  6  2 -1</clus>
<clus scale="   87.793">  2  3  1 -1</clus>
</clustering>
</event>
<event>
 6    0  0.1230761E+002  0.1188211E+03  0.7546771E-02  0.1245055E+00
          4   -1    0    0  505    0 -0.00000000000E+00  0.00000000000E+00  0.14853957461E+03  0.14853957461E+03  0.00000000000E+00 0. -1.
         21   -1    0    0  503  502  0.00000000000E+00 -0.00000000000E+00 -0.19217802343E+03  0.19217802343E+03  0.00000000000E+00 0. -1.
         21    1    1    2  503  501 -0.22635787311E+02  0.36486122984E+02 -0.40138211764E+02  0.58776628699E+02  0.00000000000E+00 0. -1.
         21    1    1    2  504  502  0.35341455214E+02 -0.10263523660E+01  0.31150110325E+02  0.47121133571E+02  0.00000000000E+00 0.  1.
         21    1    1    2  505  504  0.54430901832E+02  0.61091580802E+02  0.44427682457E+02  0.93105978796E+02  0.00000000000E+00 0. -1.
          4    1    1    2  501    0 -0.67136569735E+02 -0.96551351419E+02 -0.79078029836E+02  0.14171385698E+03  0.00000000000E+00 0. -1.
<scales pt_clust_3="42.93735" pt_clust_4="31.42066" pt_clust_5="31.42066" pt_clust_6="108.78291"></scales>
<clustering>
<clus scale="   31.421">  4  5 -1 -1</clus>
<clus scale="   42.937">  2  3  1 -1</clus>
<clus scale="  108.783">  2  6  1 -1</clus>
<clus scale="   42.937">  2  3  1 -1</clus>
</clustering>
</event>
<event>
 6    0  0.1230761E+002  0.2441445E+03  0.7546771E-02  0.1117062E+00
         21   -1    0    0  504  502  0.00000000000E+00  0.00000000000E+00  0.17080741194E+03  0.17080741194E+03  0.00000000000E+00 0.  1.
         -1   -1    0    0    0  501 -0.00000000000E+00 -0.00000000000E+00 -0.52627289747E+03  0.52627289747E+03  0.00000000000E+00 0.  1.
         21    1    1    2  503  505 -0.81317247059E+02 -0.93890131554E+02 -0.12690226842E+02  0.12485548979E+03  0.00000000000E+00 0.  1.
         21    1    1    2  504  503 -0.94057839581E+02 -0.64173585808E+02 -0.87827402082E+02  0.14380117822E+03  0.00000000000E+00 0.  1.
         21    1    1    2  505  501  0.66184222658E+02 -0.47448563497E+02 -0.15512108878E+03  0.17519780161E+03  0.00000000000E+00 0. -1.
         -1    1    1    2    0  502  0.10919086398E+03  0.20551228086E+03 -0.99826767829E+02  0.25322583979E+03  0.00000000000E+00 0.  1.
<scales pt_clust_3="76.18861" pt_clust_4="76.18861" pt_clust_5="81.43536" pt_clust_6="230.81266"></scales>
<clustering>
<clus scale="   76.189">  3  4 -1 -1</clus>
<clus scale="   81.435">  2  5  1 -1</clus>
<clus scale="  230.813">  2  6  1 -1</clus>
<clus scale="  244.144">  1  3  2 -1</clus>
</clustering>
</event>
<event>
 6    0  0.1230761E+002  0.8931064E+02  0.7546771E-02  0.1304530E+00
         21   -1    0    0  503  502  0.00000000000E+00  0.00000000000E+00  0.10686612201E+04  0.10686612201E+04  0.00000000000E+00 0.  1.
          1   -1    0    0  505    0 -0.00000000000E+00 -0.00000000000E+00 -0.97209563788E+03  0.97209563788E+03  0.00000000000E+00 0. -1.
         21    1    1    2  503  501 -0.79208464088E+02  0.40825874428E+02  0.10300412904E+04  0.10338886752E+04  0.00000000000E+00 0.  1.
         21    1    1    2  504  502 -0.52642821192E+02  0.64285369017E+01 -0.32145363097E+01  0.53131214492E+02  0.00000000000E+00 0.  1.
         21    1    1    2  505  504 -0.26504359128E+02  0.24081392961E+02 -0.12974441719E+03  0.13459572182E+03  0.00000000000E+00 0.  1.
          1    1    1    2  501    0  0.15835564441E+03 -0.71335804290E+02 -0.80051675469E+03  0.81914124644E+03  0.00000000000E+00 0. -1.
<scales pt_clust_3="14000.00000" pt_clust_4="54.01871" pt_clust_5="35.81054" pt_clust_6="89.31064"></scales>
<clustering>
<clus scale="   35.811">  2  5  1 -1</clus>
<clus scale="   54.019">  2  4  1 -1</clus>
<clus scale="   89.311">  2  6  1 -1</clus>
<clus scale="   89.311">  1  3  2 -1</clus>
</clustering>
</event>
<event>
 6    0  0.1230761E+002  0.1397662E+03  0.7546771E-02  0.1213644E+00
         21   -1    0    0  504  502  0.00000000000E+00  0.00000000000E+00  0.29122431470E+03  0.29122431470E+03  0.00000000000E+00 0.  1.
          2   -1    0    0  503    0 -0.00000000000E+00 -0.00000000000E+00 -0.17261201532E+04  0.17261201532E+04  0.00000000000E+00 0. -1.
         21    1    1    2  503  505 -0.21648740006E+02  0.26816210067E+02 -0.12902929775E+04  0.12907531696E+04  0.00000000000E+00 0. -1.
         21    1    1    2  504  501  0.65260518943E+02 -0.41986556841E+02  0.14854165993E+03  0.16759006839E+03  0.00000000000E+00 0.  1.
         21    1    1    2  505  502 -0.40281815900E+02 -0.10310273479E+03  0.99547775937E+02  0.14887094514E+03  0.00000000000E+00 0. -1.
          2    1    1    2  501    0 -0.33299630363E+01  0.11827308156E+03 -0.39269229686E+03  0.41013028477E+03  0.00000000000E+00 0. -1.
<scales pt_clust_3="34.46414" pt_clust_4="76.88535" pt_clust_5="139.76615" pt_clust_6="14000.00000"></scales>
<clustering>
<clus scale="   34.464">  2  3  1 -1</clus>
<clus scale="   76.885">  1  4  2 -1</clus>
<clus scale="  139.766">  1  5  2 -1</clus>
<clus scale="   76.885">  1  3  2 -1</clus>
</clustering>
</event>
<event>
 6    0  0.1230761E+002  0.2388230E+03  0.7546771E-02  0.1120579E+00
          1   -1    0    0  503    0 -0.00000000000E+00  0.00000000000E+00  0.93992095463E+03  0.93992095463E+03  0.00000000000E+00 0. -1.
         21   -1    0    0  501  502  0.00000000000E+00 -0.00000000000E+00 -0.32839479171E+03  0.32839479171E+03  0.00000000000E+00 0. -1.
         21    1    1    2  503  505 -0.42329410407E+02  0.27697280504E+01  0.74348215309E+03  0.74469132017E+03  0.00000000000E+00 0. -1.
         21    1    1    2  504  502 -0.13412719800E+03  0.19284921406E+02 -0.88776671911E+02  0.16199787317E+03  0.00000000000E+00 0. -1.
         21    1    1    2  505  504 -0.86632592167E+02 -0.20142233768E+02 -0.42392126620E+02  0.98529224122E+02  0.00000000000E+00 0. -1.
          1    1    1    2  501    0  0.26308920057E+03 -0.19124156892E+01 -0.78719163633E+00  0.26309732888E+03  0.00000000000E+00 0. -1.
<scales pt_clust_3="42.41993" pt_clust_4="35.62445" pt_clust_5="35.62445" pt_clust_6="234.74014"></scales>
<clustering>
<clus scale="   35.624">  4  5 -1 -1</clus>
<clus scale="   42.420">  1  3  2 -1</clus>
<clus scale="  234.740">  1  6  2 -1</clus>
<clus scale="  238.823">  2  3  1 -1</clus>
</clustering>
</event>
<event>
 6    0  0.1230761E+002  0.2539612E+03  0.7546771E-02  0.1110827E+00
         21   -1    0    0  505  502  0.00000000000E+00  0.00000000000E+00  0.94602607264E+02  0.94602607264E+02  0.00000000000E+00 0.  1.
         -1   -1    0    0    0  501 -0.00000000000E+00 -0.00000000000E+00 -0.12624514313E+04  0.12624514313E+04  0.00000000000E+00 0.  1.
         21    1    1    2  503  504  0.21915912508E+03 -0.98911404368E+02 -0.40892078556E+03  0.47437368907E+03  0.00000000000E+00 0.  1.
         21    1    1    2  504  501 -0.13743190344E+02 -0.43492944867E+02 -0.26659652235E+03  0.27047036300E+03  0.00000000000E+00 0.  1.
         21    1    1    2  505  503 -0.64024748103E+01 -0.49027617456E+02 -0.20185965914E+01  0.49485085524E+02  0.00000000000E+00 0.  1.
         -1    1    1    2    0  502 -0.19901345993E+03  0.19143196669E+03 -0.49031291954E+03  0.56272490097E+03  0.00000000000E+00 0.  1.
<scales pt_clust_3="253.96120" pt_clust_4="45.61262" pt_clust_5="50.60782" pt_clust_6="14000.00000"></scales>
<clustering>
<clus scale="   45.613">  2  4  1 -1</clus>
<clus scale="   50.608">  1  5  2 -1</clus>
<clus scale="  253.961">  1  3  2 -1</clus>
<clus scale="   50.608">  1  3  2 -1</clus>
</clustering>
</event>
<event>
 6    0  0.1230761E+002  0.2389411E+03  0.7546771E-02  0.1120500E+00
          2   -1    0    0  503    0 -0.00000000000E+00  0.00000000000E+00  0.71594469726E+03  0.71594469726E+03  0.00000000000E+00 0. -1.
         21   -1    0    0  505  502  0.00000000000E+00 -0.00000000000E+00 -0.42759452280E+03  0.42759452280E+03  0.00000000000E+00 0. -1.
         21    1    1    2  503  502  0.61444471647E+02 -0.51005753087E+02  0.82765644274E+02  0.11500939882E+03  0.00000000000E+00 0.  1.
         21    1    1    2  504  501  0.69225215852E+02 -0.13435336248E+03 -0.16570085694E+03  0.22427601412E+03  0.00000000000E+00 0. -1.
         21    1    1    2  505  504  0.59423127473E+02 -0.43226412782E+02 -0.17083309359E+03  0.18596660105E+03  0.00000000000E+00 0. -1.
          2    1    1    2  501    0 -0.19009281497E+03  0.22858552835E+03  0.54211848071E+03  0.61828720608E+03  0.00000000000E+00 0. -1.
<scales pt_clust_3="79.85618" pt_clust_4="58.16667" pt_clust_5="58.16667" pt_clust_6="223.90601"></scales>
<clustering>
<clus scale="   58.167">  4  5 -1 -1</clus>
<clus scale="   79.856">  1  3  2 -1</clus>
<clus scale="  223.906">  1  6  2 -1</clus>
<clus scale="  238.941">  2  3  1 -1</clus>
</clustering>
</event>
<event>
 6    0  0.1230761E+002  0.2269342E+03  0.7546771E-02  0.1128816E+00
         21   -1    0    0  503  502  0.00000000000E+00  0.00000000000E+00  0.12516789718E+03  0.12516789718E+03  0.00000000000E+00 0. -1.
         -2   -1    0    0    0  501 -0.00000000000E+00 -0.00000000000E+00 -0.64359770353E+03  0.64359770353E+03  0.00000000000E+00 0. -1.
         21    1    1    2  503  505 -0.32836919581E+02 -0.61786833918E+02 -0.11039728941E+02  0.70836090718E+02  0.00000000000E+00 0. -1.
         21    1    1    2  504  501 -0.91587965951E+02  0.10610230702E+02 -0.93291753149E+02  0.13116510095E+03  0.00000000000E+00 0. -1.
         21    1    1    2  505  504 -0.91604819757E+02  0.15996785471E+02  0.58766490517E+01  0.93176580492E+02  0.00000000000E+00 0. -1.
         -2    1    1    2    0  502  0.21602970529E+03  0.35179817745E+02 -0.41997497331E+03  0.47358782855E+03  0.00000000000E+00 0. -1.
<scales pt_clust_3="69.97054" pt_clust_4="86.72261" pt_clust_5="86.72261" pt_clust_6="207.55446"></scales>
<clustering>
<clus scale="   69.971">  1  3  2 -1</clus>
<clus scale="   86.723">  4  5 -1 -1</clus>
<clus scale="  207.554">  2  6  1 -1</clus>
<clus scale="   69.971">  1  3  2 -1</clus>
</clustering>
</event>
<event>
 6    0  0.1230761E+002  0.8898658E+02  0.7546771E-02  0.1305325E+00
          3   -1    0    0  504    0 -0.00000000000E+00  0.00000000000E+00  0.10906539471E+04  0.10906539471E+04  0.00000000000E+00 0. -1.
         21   -1    0    0  505  502  0.00000000000E+00 -0.00000000000E+00 -0.46834504749E+02  0.46834504749E+02  0.00000000000E+00 0. -1.
         21    1    1    2  503  502  0.31937979702E+02  0.75150337675E+02  0.29513262792E+02  0.86825344691E+02  0.00000000000E+00 0. -1.
         21    1    1    2  504  503 -0.40686950592E+02 -0.40548590140E+02  0.41186012126E+03  0.41584657699E+03  0.00000000000E+00 0. -1.
         21    1    1    2  505  501 -0.51592935248E+02  0.23618220958E+02  0.48750818645E+02  0.74808379526E+02  0.00000000000E+00 0. -1.
          3    1    1    2  501    0  0.60341906138E+02 -0.58219968493E+02  0.55369523960E+03  0.56000815059E+03  0.00000000000E+00 0. -1.
<scales pt_clust_3="14000.00000" pt_clust_4="58.69765" pt_clust_5="56.74197" pt_clust_6="88.98658"></scales>
<clustering>
<clus scale="   56.742">  2  5  1 -1</clus>
<clus scale="   58.698">  1  4  2 -1</clus>
<clus scale="   88.987">  1  6  2 -1</clus>
<clus scale="   56.742">  2  3  1 -1</clus>
</clustering>
</event>
<event>
 6    0  0.1230761E+002  0.9186658E+02  0.7546771E-02  0.1298393E+00
          1   -1    0    0  503    0 -0.00000000000E+00  0.00000000000E+00  0.30823659079E+04  0.30823659079E+04  0.00000000000E+00 0. -1.
         21   -1    0    0  504  502  0.00000000000E+00 -0.00000000000E+00 -0.63295109820E+01  0.63295109820E+01  0.00000000000E+00 0. -1.
         21    1    1    2  503  502 -0.75562936830E+02 -0.13209250652E+02  0.10498710107E+04  0.10526696447E+04  0.00000000000E+00 0. -1.
         21    1    1    2  504  505 -0.78121795453E+01  0.31592329263E+02  0.22883511664E+03  0.23113765601E+03  0.00000000000E+00 0. -1.
         21    1    1    2  505  501 -0.32374235069E+02 -0.65361409145E+01  0.15699893035E+03  0.16043527158E+03  0.00000000000E+00 0. -1.
          1    1    1    2  501    0  0.11574935144E+03 -0.11846937697E+02  0.16403313391E+04  0.16444528465E+04  0.00000000000E+00 0. -1.
<scales pt_clust_3="91.86658" pt_clust_4="32.54390" pt_clust_5="35.18836" pt_clust_6="14000.00000"></scales>
<clustering>
<clus scale="   32.544">  2  4  1 -1</clus>
<clus scale="   35.188">  2  5  1 -1</clus>
<clus scale="   91.867">  1  3  2 -1</clus>
<clus scale="   32.544">  2  3  1 -1</clus>
</clustering>
</event>
<event>
 6    0  0.1230761E+002  0.2249841E+03  0.7546771E-02  0.1130221E+00
         21   -1    0    0  504  502  0.00000000000E+00  0.00000000000E+00  0.13132011816E+04  0.13132011816E+04  0.00000000000E+00 0.  1.
         -2   -1    0    0    0  501 -0.00000000000E+00 -0.00000000000E+00 -0.95793717022E+02  0.95793717022E+02  0.00000000000E+00 0.  1.
         21    1    1    2  503  502  0.24432479384E+02 -0.28105236070E+02  0.11707633845E+03  0.12285649909E+03  0.00000000000E+00 0. -1.
         21    1    1    2  504  505  0.14039782687E+03  0.18540784055E+03  0.92146953065E+03  0.95036504200E+03  0.00000000000E+00 0.  1.
         21    1    1    2  505  501  0.13255131879E+02 -0.32363074128E+02 -0.20635572362E+02  0.40606575020E+02  0.00000000000E+00 0.  1.
         -2    1    1    2    0  503 -0.17808543814E+03 -0.12493953036E+03  0.19949716782E+03  0.29516678250E+03  0.00000000000E+00 0.  1.
<scales pt_clust_3="38.71238" pt_clust_4="224.98415" pt_clust_5="34.97238" pt_clust_6="14000.00000"></scales>
<clustering>
<clus scale="   34.972">  2  5  1 -1</clus>
<clus scale="   38.712">  1  3  2 -1</clus>
<clus scale="  224.984">  1  4  2 -1</clus>
<clus scale="   38.712">  1  3  2 -1</clus>
</clustering>
</event>
<event>
 6    0  0.1230761E+002  0.9314493E+02  0.7546771E-02  0.1295410E+00
         21   -1    0    0  504  502  0.00000000000E+00  0.00000000000E+00  0.21154000369E+02  0.21154000369E+02  0.00000000000E+00 0. -1.
          1   -1    0    0  505    0 -0.00000000000E+00 -0.00000000000E+00 -0.22254992450E+04  0.22254992450E+04  0.00000000000E+00 0.  1.
         21    1    1    2  503  502 -0.19212761920E+02  0.34505262610E+02 -0.12192643191E+03  0.12816317009E+03  0.00000000000E+00 0. -1.
         21    1    1    2  504  501  0.34651144462E+02  0.34220188823E+02 -0.22341361197E+03  0.22865993341E+03  0.00000000000E+00 0.  1.
         21    1    1    2  505  503 -0.76460837538E+02  0.63731036890E+01 -0.90362055417E+02  0.11854187946E+03  0.00000000000E+00 0. -1.
          1    1    1    2  501    0  0.61022454996E+02 -0.75098555122E+02 -0.17686431453E+04  0.17712882624E+04  0.00000000000E+00 0.  1.
<scales pt_clust_3="39.49359" pt_clust_4="50.54239" pt_clust_5="14000.00000" pt_clust_6="93.14493"></scales>
<clustering>
<clus scale="   39.494">  1  3  2 -1</clus>
<clus scale="   50.542">  1  4  2 -1</clus>
<clus scale="   93.145">  2  6  1 -1</clus>
<clus scale="   39.494">  1  3  2 -1</clus>
</clustering>
</event>
<event>
 6    0  0.1230761E+002  0.1286631E+03  0.7546771E-02  0.1229453E+00
         21   -1    0    0  503  502  0.00000000000E+00  0.00000000000E+00  0.10131440570E+02  0.10131440570E+02  0.00000000000E+00 0. -1.
          2   -1    0    0  504    0 -0.00000000000E+00 -0.00000000000E+00 -0.36509222131E+04  0.36509222131E+04  0.00000000000E+00 0.  1.
         21    1    1    2  503  505  0.96372872143E+02 -0.20974013797E+01 -0.45422077169E+03  0.46433677327E+03  0.00000000000E+00 0. -1.
         21    1    1    2  504  502  0.21630835013E+02  0.27436297113E+02 -0.80423272663E+02  0.87684355551E+02  0.00000000000E+00 0. -1.
         21    1    1    2  505  501 -0.33851463864E+02  0.17879074679E+02 -0.72959738027E+03  0.73060106776E+03  0.00000000000E+00 0.  1.
          2    1    1    2  501    0 -0.84152243291E+02 -0.43217970412E+02 -0.23765493479E+04  0.23784314571E+04  0.00000000000E+00 0.  1.
<scales pt_clust_3="114.82761" pt_clust_4="34.93771" pt_clust_5="37.65374" pt_clust_6="37.65374"></scales>
<clustering>
<clus scale="   34.938">  1  4  2 -1</clus>
<clus scale="   37.654">  5  6 -1 -1</clus>
<clus scale="  114.828">  1  3  2 -1</clus>
<clus scale="   34.938">  1  3  2 -1</clus>
</clustering>
</event>
<event>
 6    0  0.1230761E+002  0.9887362E+02  0.7546771E-02  0.1282683E+00
         21   -1    0    0  504  502  0.00000000000E+00  0.00000000000E+00  0.97363067417E+02  0.97363067417E+02  0.00000000000E+00 0. -1.
          1   -1    0    0  503    0 -0.00000000000E+00 -0.00000000000E+00 -0.12117548627E+04  0.12117548627E+04  0.00000000000E+00 0.  1.
         21    1    1    2  503  502 -0.46003383384E+02  0.32247429510E+02 -0.58684637496E+03  0.58952936805E+03  0.00000000000E+00 0. -1.
         21    1    1    2  504  505 -0.65972691919E+00 -0.63849254727E+02  0.49434621442E+02  0.80752364460E+02  0.00000000000E+00 0. -1.
         21    1    1    2  505  501 -0.52788817364E+02 -0.33595718953E+02 -0.14910503958E+02  0.64324604149E+02  0.00000000000E+00 0.  1.
          1    1    1    2  501    0  0.99451927668E+02  0.65197544170E+02 -0.56206953779E+03  0.57451159344E+03  0.00000000000E+00 0.  1.
<scales pt_clust_3="56.18014" pt_clust_4="63.06559" pt_clust_5="98.87362" pt_clust_6="14000.00000"></scales>
<clustering>
<clus scale="   56.180">  2  3  1 -1</clus>
<clus scale="   63.066">  1  4  2 -1</clus>
<clus scale="   98.874">  1  5  2 -1</clus>
<clus scale="   63.066">  1  3  2 -1</clus>
</clustering>
</event>
<event>
 6    0  0.1230761E+002  0.8988634E+02  0.7546771E-02  0.1303127E+00
         21   -1    0    0  503  502  0.00000000000E+00  0.00000000000E+00  0.27669066744E+04  0.27669066744E+04  0.00000000000E+00 0.  1.
         -1   -1    0    0    0  501 -0.00000000000E+00 -0.00000000000E+00 -0.83025584096E+03  0.83025584096E+03  0.00000000000E+00 0. -1.
         21    1    1    2  503  505 -0.68129441245E+02  0.13177851320E+02  0.59137963125E+03  0.59543693603E+03  0.00000000000E+00 0.  1.
         21    1    1    2  504  502  0.36059905927E+02 -0.97167730630E+02  0.21469759570E+04  0.21494761326E+04  0.00000000000E+00 0.  1.
         21    1    1    2  505  501 -0.64863545118E+02 -0.36759808144E+01 -0.33670543263E+02  0.73174434087E+02  0.00000000000E+00 0.  1.
         -1    1    1    2    0  504  0.96933080436E+02  0.87665860125E+02 -0.76803421158E+03  0.77907501261E+03  0.00000000000E+00 0. -1.
<scales pt_clust_3="69.55669" pt_clust_4="14000.00000" pt_clust_5="64.96763" pt_clust_6="89.88634"></scales>
<clustering>
<clus scale="   64.968">  2  5  1 -1</clus>
<clus scale="   69.557">  1  3  2 -1</clus>
<clus scale="   89.886">  2  6  1 -1</clus>
<clus scale="   69.557">  1  3  2 -1</clus>
</clustering>
</event>
<event>
 6    0  0.1230761E+002  0.1634200E+03  0.7546771E-02  0.1184889E+00
          1   -1    0    0  504    0 -0.00000000000E+00  0.00000000000E+00  0.46060106819E+03  0.46060106819E+03  0.00000000000E+00 0.  1.
         21   -1    0    0  501  502  0.00000000000E+00 -0.00000000000E+00 -0.20879104136E+03  0.20879104136E+03  0.00000000000E+00 0. -1.
         21    1    1    2  503  502  0.37843836218E+02  0.15287742705E+03 -0.11151579517E+03  0.19297522176E+03  0.00000000000E+00 0. -1.
         21    1    1    2  504  505 -0.30133876870E+02  0.24655882671E+01  0.74696911853E+02  0.80583858813E+02  0.00000000000E+00 0.  1.
         21    1    1    2  505  503  0.52064573922E+01  0.53994477578E+02  0.27236608389E+02  0.60698794420E+02  0.00000000000E+00 0.  1.
          1    1    1    2  501    0 -0.12916416740E+02 -0.20933749290E+03  0.26139230176E+03  0.33513423455E+03  0.00000000000E+00 0.  1.
<scales pt_clust_3="14000.00000" pt_clust_4="30.23458" pt_clust_5="54.30565" pt_clust_6="163.41999"></scales>
<clustering>
<clus scale="   30.235">  1  4  2 -1</clus>
<clus scale="   54.306">  1  5  2 -1</clus>
<clus scale="  163.420">  1  6  2 -1</clus>
<clus scale="  163.420">  2  3  1 -1</clus>
</clustering>
</event>
<event>
 6    0  0.1230761E+002  0.1465438E+03  0.7546771E-02  0.1204785E+00
          2   -1    0    0  505    0 -0.00000000000E+00  0.00000000000E+00  0.11626594787E+04  0.11626594787E+04  0.00000000000E+00 0.  1.
         21   -1    0    0  503  502  0.00000000000E+00 -0.00000000000E+00 -0.61777950762E+03  0.61777950762E+03  0.00000000000E+00 0. -1.
         21    1    1    2  503  501 -0.15382942495E+03 -0.44609002699E+02 -0.55687433432E+03  0.57945015258E+03  0.00000000000E+00 0. -1.
         21    1    1    2  504  502  0.75202400202E+01  0.32179452545E+02 -0.34851900803E+02  0.48028389163E+02  0.00000000000E+00 0.  1.
         21    1    1    2  505  504  0.27238008982E+02  0.22965760903E+02  0.60315949252E+02  0.70052473485E+02  0.00000000000E+00 0. -1.
          2    1    1    2  501    0  0.11907117594E+03 -0.10536210749E+02  0.10762902570E+04  0.10829079711E+04  0.00000000000E+00 0.  1.
<scales pt_clust_3="146.54381" pt_clust_4="33.04650" pt_clust_5="35.85190" pt_clust_6="14000.00000"></scales>
<clustering>
<clus scale="   33.047">  2  4  1 -1</clus>
<clus scale="   35.852">  1  5  2 -1</clus>
<clus scale="  146.544">  2  3  1 -1</clus>
<clus scale="   33.047">  2  3  1 -1</clus>
</clustering>
</event>
<event>
 6    0  0.1230761E+002  0.1472473E+03  0.7546771E-02  0.1203897E+00
         21   -1    0    0  503  502  0.00000000000E+00  0.00000000000E+00  0.32859746158E+03  0.32859746158E+03  0.00000000000E+00 0.  1.
          2   -1    0    0  504    0 -0.00000000000E+00 -0.00000000000E+00 -0.18377097925E+04  0.18377097925E+04  0.00000000000E+00 0. -1.
         21    1    1    2  503  501 -0.11874811748E+03  0.59314155581E+02  0.10124658777E+02  0.13312322552E+03  0.00000000000E+00 0. -1.
         21    1    1    2  504  505 -0.23750862160E+01 -0.76186303567E+02 -0.22863889574E+03  0.24100983078E+03  0.00000000000E+00 0.  1.
         21    1    1    2  505  502  0.61350523461E+02  0.87229910745E+02  0.23799487837E+03  0.26079590907E+03  0.00000000000E+00 0.  1.
          2    1    1    2  501    0  0.59772680237E+02 -0.70357762759E+02 -0.15285929723E+04  0.15313782887E+04  0.00000000000E+00 0. -1.
<scales pt_clust_3="147.24733" pt_clust_4="76.22332" pt_clust_5="106.19148" pt_clust_6="14000.00000"></scales>
<clustering>
<clus scale="   76.223">  2  4  1 -1</clus>
<clus scale="  106.191">  1  5  2 -1</clus>
<clus scale="  147.247">  1  3  2 -1</clus>
<clus scale="  106.191">  1  3  2 -1</clus>
</clustering>
</event>
<event>
 6    0  0.1230761E+002  0.1382883E+03  0.7546771E-02  0.1215651E+00
         21   -1    0    0  504  502  0.00000000000E+00  0.00000000000E+00  0.16035958375E+04  0.16035958375E+04  0.00000000000E+00 0.  1.
          1   -1    0    0  503    0 -0.00000000000E+00 -0.00000000000E+00 -0.83705652426E+03  0.83705652426E+03  0.00000000000E+00 0. -1.
         21    1    1    2  503  505 -0.38446219190E+02 -0.56671391760E+02 -0.57068646174E+03  0.57478065035E+03  0.00000000000E+00 0. -1.
         21    1    1    2  504  501 -0.31193906665E+02 -0.16866518765E+01  0.58678812723E+02  0.66476369261E+02  0.00000000000E+00 0.  1.
         21    1    1    2  505  502  0.93117565950E+02 -0.12064681267E+03  0.15033594929E+04  0.15110646245E+04  0.00000000000E+00 0.  1.
          1    1    1    2  501    0 -0.23477440095E+02  0.17900485630E+03 -0.22481253068E+03  0.28833071762E+03  0.00000000000E+00 0. -1.
<scales pt_clust_3="68.50694" pt_clust_4="31.23947" pt_clust_5="138.28830" pt_clust_6="14000.00000"></scales>
<clustering>
<clus scale="   31.239">  1  4  2 -1</clus>
<clus scale="   68.507">  2  3  1 -1</clus>
<clus scale="  138.288">  1  5  2 -1</clus>
<clus scale="   31.239">  1  3  2 -1</clus>
</clustering>
</event>
<event>
 6    0  0.1230761E+002  0.2033025E+03  0.7546771E-02  0.1146982E+00
          3   -1    0    0  504    0 -0.00000000000E+00  0.00000000000E+00  0.46789921465E+03  0.46789921465E+03  0.00000000000E+00 0. -1.
         21   -1    0    0  501  502  0.00000000000E+00 -0.00000000000E+00 -0.25748459577E+04  0.25748459577E+04  0.00000000000E+00 0. -1.
         21    1    1    2  503  502 -0.12128440859E+03 -0.14703950322E+02 -0.10260033011E+04  0.10332516092E+04  0.00000000000E+00 0. -1.
         21    1    1    2  504  505  0.21860007653E+00 -0.42018366663E+02 -0.28019837337E+02  0.50504477103E+02  0.00000000000E+00 0. -1.
         21    1    1    2  505  503  0.21609273281E+03  0.19291572725E+03 -0.14761723884E+04  0.15043262503E+04  0.00000000000E+00 0. -1.
          3    1    1    2  501    0 -0.95026924297E+02 -0.13619341027E+03  0.42324878377E+03  0.45466283585E+03  0.00000000000E+00 0. -1.
<scales pt_clust_3="122.21134" pt_clust_4="42.01894" pt_clust_5="14000.00000" pt_clust_6="203.30251"></scales>
<clustering>
<clus scale="   42.019">  1  4  2 -1</clus>
<clus scale="  122.211">  2  3  1 -1</clus>
<clus scale="  203.303">  1  6  2 -1</clus>
<clus scale="  122.211">  2  3  1 -1</clus>
</clustering>
</event>
<event>
 6    0  0.1230761E+002  0.1666376E+03  0.7546771E-02  0.1181400E+00
          1   -1    0    0  503    0 -0.00000000000E+00  0.00000000000E+00  0.15518086898E+04  0.15518086898E+04  0.00000000000E+00 0. -1.
         21   -1    0    0  504  502  0.00000000000E+00 -0.00000000000E+00 -0.11774726472E+03  0.11774726472E+03  0.00000000000E+00 0.  1.
         21    1    1    2  503  502 -0.69336691171E+02  0.17327019724E+02  0.72654894990E+03  0.73005559991E+03  0.00000000000E+00 0. -1.
         21    1    1    2  504  505 -0.20156193857E+02 -0.37522015616E+02  0.21070360197E+02  0.47519826237E+02  0.00000000000E+00 0. -1.
         21    1    1    2  505  501 -0.12128016265E+03 -0.49659430626E+02 -0.36226555191E+02  0.13596801169E+03  0.00000000000E+00 0.  1.
          1    1    1    2  501    0  0.21077304768E+03  0.69854426519E+02  0.72266867021E+03  0.75601251672E+03  0.00000000000E+00 0. -1.
<scales pt_clust_3="71.64767" pt_clust_4="42.59312" pt_clust_5="14000.00000" pt_clust_6="166.63761"></scales>
<clustering>
<clus scale="   42.593">  2  4  1 -1</clus>
<clus scale="   71.648">  1  3  2 -1</clus>
<clus scale="  166.638">  1  6  2 -1</clus>
<clus scale="   42.593">  2  3  1 -1</clus>
</clustering>
</event>
<event>
 6    0  0.1230761E+002  0.8170550E+02  0.7546771E-02  0.1324280E+00
          2   -1    0    0  503    0 -0.00000000000E+00  0.00000000000E+00  0.20380173736E+04  0.20380173736E+04  0.00000000000E+00 0. -1.
         21   -1    0    0  504  502  0.00000000000E+00 -0.00000000000E+00 -0.16105172635E+04  0.16105172635E+04  0.00000000000E+00 0.  1.
         21    1    1    2  503  505  0.40088537103E+02  0.11945416659E+02  0.78184467348E+03  0.78296288369E+03  0.00000000000E+00 0. -1.
         21    1    1    2  504  501 -0.93305428299E+01 -0.12431290441E+03 -0.12866451428E+03  0.17915165214E+03  0.00000000000E+00 0. -1.
         21    1    1    2  505  502  0.56617932346E+01  0.79641343213E+02 -0.14544676081E+04  0.14566574142E+04  0.00000000000E+00 0.  1.
          2    1    1    2  501    0 -0.36419787508E+02  0.32726144537E+02  0.12287875589E+04  0.12297626870E+04  0.00000000000E+00 0. -1.
<scales pt_clust_3="41.83042" pt_clust_4="14000.00000" pt_clust_5="81.70550" pt_clust_6="44.51091"></scales>
<clustering>
<clus scale="   41.830">  1  3  2 -1</clus>
<clus scale="   44.511">  1  6  2 -1</clus>
<clus scale="   81.706">  2  5  1 -1</clus>
<clus scale="   81.706">  2  3  1 -1</clus>
</clustering>
</event>
<event>
 6    0  0.1230761E+002  0.1319340E+03  0.7546771E-02  0.1224614E+00
         21   -1    0    0  505  502  0.00000000000E+00  0.00000000000E+00  0.36372289308E+03  0.36372289308E+03  0.00000000000E+00 0.  1.
          2   -1    0    0  503    0 -0.00000000000E+00 -0.00000000000E+00 -0.22826857118E+04  0.22826857118E+04  0.00000000000E+00 0.  1.
         21    1    1    2  503  504 -0.12835322908E+02 -0.50025758687E+02 -0.51069823420E+03  0.51330303765E+03  0.00000000000E+00 0. -1.
         21    1    1    2  504  502 -0.77732281887E+02  0.50479145415E+02  0.29536727350E+03  0.30956788920E+03  0.00000000000E+00 0.  1.
         21    1    1    2  505  501 -0.12017909305E+02  0.47389884166E+02  0.47845570490E+02  0.68406358482E+02  0.00000000000E+00 0.  1.
          2    1    1    2  501    0  0.10258551410E+03 -0.47843270894E+02 -0.17514774285E+04  0.17551313196E+04  0.00000000000E+00 0.  1.
<scales pt_clust_3="51.46332" pt_clust_4="131.93398" pt_clust_5="48.88999" pt_clust_6="14000.00000"></scales>
<clustering>
<clus scale="   48.890">  1  5  2 -1</clus>
<clus scale="   51.463">  2  3  1 -1</clus>
<clus scale="  131.934">  1  4  2 -1</clus>
<clus scale="   48.890">  1  3  2 -1</clus>
</clustering>
</event>
<event>
 6    0  0.1230761E+002  0.1191528E+03  0.7546771E-02  0.1244501E+00
         21   -1    0    0  501  502  0.00000000000E+00  0.00000000000E+00  0.12386265532E+04  0.12386265532E+04  0.00000000000E+00 0.  1.
          2   -1    0    0  505    0 -0.00000000000E+00 -0.00000000000E+00 -0.29826152992E+03  0.29826152992E+03  0.00000000000E+00 0. -1.
         21    1    1    2  503  502 -0.23387945558E+02  0.37641481014E+02  0.70404834095E+03  0.70544166554E+03  0.00000000000E+00 0.  1.
         21    1    1    2  504  503 -0.47657754638E+02  0.47811105219E+02  0.50659385080E+03  0.51107190593E+03  0.00000000000E+00 0.  1.
         21    1    1    2  505  504 -0.26910015095E+02 -0.37535957465E+02 -0.15481566980E+03  0.16155800392E+03  0.00000000000E+00 0. -1.
          2    1    1    2  501    0  0.97955715291E+02 -0.47916628768E+02 -0.11546149863E+03  0.15881650776E+03  0.00000000000E+00 0. -1.
<scales pt_clust_3="35.32721" pt_clust_4="35.32721" pt_clust_5="46.18546" pt_clust_6="110.88851"></scales>
<clustering>
<clus scale="   35.327">  3  4 -1 -1</clus>
<clus scale="   46.185">  2  5  1 -1</clus>
<clus scale="  110.889">  2  6  1 -1</clus>
<clus scale="  119.153">  1  3  2 -1</clus>
</clustering>
</event>
<event>
 6    0  0.1230761E+002  0.1563654E+03  0.7546771E-02  0.1192862E+00
         21   -1    0    0  504  502  0.00000000000E+00  0.00000000000E+00  0.53724487478E+03  0.53724487478E+03  0.00000000000E+00 0. -1.
          2   -1    0    0  503    0 -0.00000000000E+00 -0.00000000000E+00 -0.18067969540E+04  0.18067969540E+04  0.00000000000E+00 0.  1.
         21    1    1    2  503  505 -0.11733210065E+03 -0.33566811727E+02  0.40307127235E+03  0.42114131035E+03  0.00000000000E+00 0. -1.
         21    1    1    2  504  501  0.12553205555E+02  0.35494316060E+02 -0.30447760191E+03  0.30679641378E+03  0.00000000000E+00 0. -1.
         21    1    1    2  505  502 -0.12830487327E+01 -0.48750437611E+02  0.11683501485E+03  0.12660439201E+03  0.00000000000E+00 0. -1.
          2    1    1    2  501    0  0.10606194383E+03  0.46822933279E+02 -0.14849807645E+04  0.14894997127E+04  0.00000000000E+00 0.  1.
<scales pt_clust_3="144.14334" pt_clust_4="34.53541" pt_clust_5="48.76732" pt_clust_6="34.53541"></scales>
<clustering>
<clus scale="   34.535">  4  6 -1 -1</clus>
<clus scale="   48.767">  1  5  2 -1</clus>
<clus scale="  144.143">  1  3  2 -1</clus>
<clus scale="   48.767">  1  3  2 -1</clus>
</clustering>
</event>
<event>
 6    0  0.1230761E+002  0.1172884E+03  0.7546771E-02  0.1247639E+00
         21   -1    0    0  504  502  0.00000000000E+00  0.00000000000E+00  0.12507183566E+03  0.12507183566E+03  0.00000000000E+00 0. -1.
          1   -1    0    0  503    0 -0.00000000000E+00 -0.00000000000E+00 -0.11948260051E+04  0.11948260051E+04  0.00000000000E+00 0. -1.
         21    1    1    2  503  505 -0.88398806707E+02  0.54800424167E+02 -0.36249028543E+03  0.37711621889E+03  0.00000000000E+00 0. -1.
         21    1    1    2  504  501  0.24625763227E+02  0.50097118427E+02  0.91559571888E+02  0.10723481102E+03  0.00000000000E+00 0. -1.
         21    1    1    2  505  502  0.22726965935E+02  0.33455676972E+02 -0.23230032233E+02  0.46641523343E+02  0.00000000000E+00 0.  1.
          1    1    1    2  501    0  0.41046077545E+02 -0.13835321957E+03 -0.77559342362E+03  0.78890528748E+03  0.00000000000E+00 0. -1.
<scales pt_clust_3="14000.00000" pt_clust_4="91.07195" pt_clust_5="40.44499" pt_clust_6="117.28839"></scales>
<clustering>
<clus scale="   40.445">  1  5  2 -1</clus>
<clus scale="   91.072">  1  4  2 -1</clus>
<clus scale="  117.288">  2  6  1 -1</clus>
<clus scale="   40.445">  1  3  2 -1</clus>
</clustering>
</event>
<event>
 6    0  0.1230761E+002  0.1205571E+03  0.7546771E-02  0.1242181E+00
          3   -1    0    0  503    0 -0.00000000000E+00  0.00000000000E+00  0.19812633439E+03  0.19812633439E+03  0.00000000000E+00 0. -1.
         21   -1    0    0  505  502  0.00000000000E+00 -0.00000000000E+00 -0.98051524837E+03  0.98051524837E+03  0.00000000000E+00 0.  1.
         21    1    1    2  503  504  0.74676609780E+02 -0.24990033394E+01 -0.42454568596E+03  0.43107062129E+03  0.00000000000E+00 0.  1.
         21    1    1    2  504  502  0.12328449454E+02 -0.67236341033E+02 -0.53101762017E+03  0.53539931747E+03  0.00000000000E+00 0.  1.
         21    1    1    2  505  501 -0.20301752740E+02  0.44597125218E+02  0.51019053823E+02  0.70739017487E+02  0.00000000000E+00 0.  1.
          3    1    1    2  501    0 -0.66703306494E+02  0.25138219154E+02  0.12215533833E+03  0.14143262651E+03  0.00000000000E+00 0. -1.
<scales pt_clust_3="109.26796" pt_clust_4="68.35727" pt_clust_5="42.23165" pt_clust_6="42.23165"></scales>
<clustering>
<clus scale="   42.232">  5  6 -1 -1</clus>
<clus scale="   68.357">  2  4  1 -1</clus>
<clus scale="  109.268">  2  3  1 -1</clus>
<clus scale="   68.357">  2  3  1 -1</clus>
</clustering>
</event>
<event>
 6    0  0.1230761E+002  0.1580419E+03  0.7546771E-02  0.1190925E+00
          2   -1    0    0  504    0 -0.00000000000E+00  0.00000000000E+00  0.59510545528E+03  0.59510545528E+03  0.00000000000E+00 0.  1.
         21   -1    0    0  503  502  0.00000000000E+00 -0.00000000000E+00 -0.11400695327E+03  0.11400695327E+03  0.00000000000E+00 0.  1.
         21    1    1    2  503  505  0.93985567028E+02 -0.68094272454E+02 -0.24455583631E+02  0.11860941076E+03  0.00000000000E+00 0.  1.
         21    1    1    2  504  502  0.29885886559E+02 -0.27506791363E+02  0.74979824336E+02  0.85274637753E+02  0.00000000000E+00 0.  1.
         21    1    1    2  505  501  0.35957289273E+02  0.84156261702E+01 -0.87456057589E+00  0.36939332315E+02  0.00000000000E+00 0.  1.
          2    1    1    2  501    0 -0.15982874286E+03  0.87185437646E+02  0.43144882188E+03  0.46828902772E+03  0.00000000000E+00 0.  1.
<scales pt_clust_3="31.44264" pt_clust_4="40.61760" pt_clust_5="31.44264" pt_clust_6="147.88553"></scales>
<clustering>
<clus scale="   31.443">  3  5 -1 -1</clus>
<clus scale="   40.618">  1  4  2 -1</clus>
<clus scale="  147.886">  1  6  2 -1</clus>
<clus scale="  158.042">  2  3  1 -1</clus>
</clustering>
</event>
<event>
 6    0  0.1230761E+002  0.9560072E+02  0.7546771E-02  0.1289829E+00
         21   -1    0    0  504  502  0.00000000000E+00  0.00000000000E+00  0.15575484494E+04  0.15575484494E+04  0.00000000000E+00 0.  1.
          2   -1    0    0  503    0 -0.00000000000E+00 -0.00000000000E+00 -0.13175328469E+04  0.13175328469E+04  0.00000000000E+00 0.  1.
         21    1    1    2  503  505  0.74445724353E+01 -0.42286804605E+02 -0.33271105027E+03  0.33547017524E+03  0.00000000000E+00 0.  1.
         21    1    1    2  504  501 -0.10274292822E+03  0.66384105396E+02  0.14389907133E+04  0.14441804707E+04  0.00000000000E+00 0.  1.
         21    1    1    2  505  502  0.52490795616E+02  0.15330489387E+02  0.10714000084E+03  0.12028835068E+03  0.00000000000E+00 0. -1.
          2    1    1    2  501    0  0.42807560164E+02 -0.39427790177E+02 -0.97340406138E+03  0.97514229965E+03  0.00000000000E+00 0.  1.
<scales pt_clust_3="42.93711" pt_clust_4="14000.00000" pt_clust_5="54.65297" pt_clust_6="95.60072"></scales>
<clustering>
<clus scale="   42.937">  2  3  1 -1</clus>
<clus scale="   54.653">  1  5  2 -1</clus>
<clus scale="   95.601">  2  6  1 -1</clus>
<clus scale="   54.653">  1  3  2 -1</clus>
</clustering>
</event>
<event>
 6    0  0.1230761E+002  0.7513941E+02  0.7546771E-02  0.1343440E+00
         21   -1    0    0  504  502  0.00000000000E+00  0.00000000000E+00  0.15955940649E+03  0.15955940649E+03  0.00000000000E+00 0.  1.
          2   -1    0    0  505    0 -0.00000000000E+00 -0.00000000000E+00 -0.13670954329E+04  0.13670954329E+04  0.00000000000E+00 0.  1.
         21    1    1    2  503  502 -0.75073609545E+02 -0.14347400994E+02 -0.48097669587E+02  0.90306592146E+02  0.00000000000E+00 0.  1.
         21    1    1    2  504  501  0.37697275471E+02 -0.56836095507E+02  0.12404389893E+03  0.14155675608E+03  0.00000000000E+00 0.  1.
         21    1    1    2  505  503 -0.10463058050E+02  0.10565092870E+03 -0.65489082839E+03  0.66344072187E+03  0.00000000000E+00 0.  1.
          2    1    1    2  501    0  0.47839392125E+02 -0.34467432200E+02 -0.62859142741E+03  0.63135076933E+03  0.00000000000E+00 0.  1.
<scales pt_clust_3="14000.00000" pt_clust_4="68.85714" pt_clust_5="75.13941" pt_clust_6="58.96280"></scales>
<clustering>
<clus scale="   58.963">  2  6  1 -1</clus>
<clus scale="   68.857">  1  4  2 -1</clus>
<clus scale="   75.139">  2  5  1 -1</clus>
<clus scale="   68.857">  1  3  2 -1</clus>
</clustering>
</event>
<event>
 6    0  0.1230761E+002  0.1287812E+03  0.7546771E-02  0.1229275E+00
         21   -1    0    0  504  502  0.00000000000E+00  0.00000000000E+00  0.68126774842E+03  0.68126774842E+03  0.00000000000E+00 0. -1.
          1   -1    0    0  505    0 -0.00000000000E+00 -0.00000000000E+00 -0.17749433307E+03  0.17749433307E+03  0.00000000000E+00 0. -1.
         21    1    1    2  503  501 -0.43645668874E+02  0.99676526079E+02  0.56413335038E+03  0.57453180179E+03  0.00000000000E+00 0. -1.
         21    1    1    2  504  503 -0.28580883800E+02  0.23340144488E+02  0.43995612141E+02  0.57421626162E+02  0.00000000000E+00 0.  1.
         21    1    1    2  505  502  0.93654519951E+02 -0.47214615837E+02 -0.12224130352E+02  0.10559270059E+03  0.00000000000E+00 0.  1.
          1    1    1    2  501    0 -0.21427967278E+02 -0.75802054730E+02 -0.92131416816E+02  0.12121595294E+03  0.00000000000E+00 0. -1.
<scales pt_clust_3="128.78123" pt_clust_4="36.90026" pt_clust_5="14000.00000" pt_clust_6="78.43772"></scales>
<clustering>
<clus scale="   36.900">  1  4  2 -1</clus>
<clus scale="   78.438">  2  6  1 -1</clus>
<clus scale="  128.781">  1  3  2 -1</clus>
<clus scale="   36.900">  1  3  2 -1</clus>
</clustering>
</event>
<event>
 6    0  0.1230761E+002  0.1350439E+03  0.7546771E-02  0.1220158E+00
         21   -1    0    0  501  502  0.00000000000E+00  0.00000000000E+00  0.69048331604E+02  0.69048331604E+02  0.00000000000E+00 0. -1.
          2   -1    0    0  503    0 -0.00000000000E+00 -0.00000000000E+00 -0.98837802147E+03  0.98837802147E+03  0.00000000000E+00 0.  1.
         21    1    1    2  503  505 -0.11931766033E+03 -0.27648118412E+02 -0.19436945883E+03  0.22974030784E+03  0.00000000000E+00 0. -1.
         21    1    1    2  504  502 -0.30089897920E+02  0.19523513884E+02  0.17723566279E+02  0.40008678470E+02  0.00000000000E+00 0. -1.
         21    1    1    2  505  504  0.89662926240E+01  0.35237518026E+02 -0.55343818065E+01  0.36779157984E+02  0.00000000000E+00 0. -1.
          2    1    1    2  501    0  0.14044126563E+03 -0.27112913498E+02 -0.73714941551E+03  0.75089820878E+03  0.00000000000E+00 0.  1.
<scales pt_clust_3="14000.00000" pt_clust_4="35.86878" pt_clust_5="42.91511" pt_clust_6="135.04390"></scales>
<clustering>
<clus scale="   35.869">  1  4  2 -1</clus>
<clus scale="   42.915">  1  5  2 -1</clus>
<clus scale="  135.044">  2  6  1 -1</clus>
<clus scale="   35.869">  1  3  2 -1</clus>
</clustering>
</event>
<event>
 6    0  0.1230761E+002  0.1172551E+03  0.7546771E-02  0.1247695E+00
         21   -1    0    0  501  502  0.00000000000E+00  0.00000000000E+00  0.26194020265E+04  0.26194020265E+04  0.00000000000E+00 0.  1.
          2   -1    0    0  504    0 -0.00000000000E+00 -0.00000000000E+00 -0.15942073743E+04  0.15942073743E+04  0.00000000000E+00 0.  1.
         21    1    1    2  503  505  0.85341984022E+02  0.14134761635E+03  0.19971711414E+04  0.20039847731E+04  0.00000000000E+00 0.  1.
         21    1    1    2  504  503 -0.32433962478E+02 -0.77460514874E+01 -0.88148727701E+02  0.94245219672E+02  0.00000000000E+00 0.  1.
         21    1    1    2  505  502 -0.92318396972E+01 -0.52209323902E+02  0.61320840652E+03  0.61549621461E+03  0.00000000000E+00 0.  1.
          2    1    1    2  501    0 -0.43676181847E+02 -0.81392240958E+02 -0.14970361680E+04  0.14998831935E+04  0.00000000000E+00 0.  1.
<scales pt_clust_3="14000.00000" pt_clust_4="33.34611" pt_clust_5="53.02935" pt_clust_6="117.25512"></scales>
<clustering>
<clus scale="   33.346">  2  4  1 -1</clus>
<clus scale="   53.029">  1  5  2 -1</clus>
<clus scale="  117.255">  2  6  1 -1</clus>
<clus scale="   53.029">  1  3  2 -1</clus>
</clustering>
</event>
<event>
 6    0  0.1426442E+002  0.1398768E+03  0.7546771E-02  0.1213495E+00
          1   -1    0    0  505    0 -0.00000000000E+00  0.00000000000E+00  0.13274802048E+04  0.13274802048E+04  0.00000000000E+00 0.  1.
         21   -1    0    0  503  502  0.00000000000E+00 -0.00000000000E+00 -0.15051302638E+04  0.15051302638E+04  0.00000000000E+00 0. -1.
         21    1    1    2  503  501 -0.18608282924E+02 -0.24555907674E+02 -0.91169487658E+03  0.91221533027E+03  0.00000000000E+00 0. -1.
         21    1    1    2  504  502 -0.10955884436E+03 -0.32700521626E+02 -0.58146734954E+03  0.59260167320E+03  0.00000000000E+00 0.  1.
         21    1    1    2  505  504  0.29008556326E+02  0.10712514307E+02  0.59889364615E+02  0.67401708413E+02  0.00000000000E+00 0. -1.
          1    1    1    2  501    0  0.99158570956E+02  0.46543914993E+02  0.12556228025E+04  0.12603917567E+04  0.00000000000E+00 0.  1.
<scales pt_clust_3="30.81008" pt_clust_4="14000.00000" pt_clust_5="30.75914" pt_clust_6="139.87676"></scales>
<clustering>
<clus scale="   30.810">  2  3  1 -1</clus>
<clus scale="   30.759">  1  5  2 -1</clus>
<clus scale="  139.877">  1  6  2 -1</clus>
<clus scale="   30.810">  2  3  1 -1</clus>
</clustering>
</event>
<event>
 6    0  0.1230761E+002  0.8234799E+02  0.7546771E-02  0.1322517E+00
         21   -1    0    0  504  502  0.00000000000E+00  0.00000000000E+00  0.16232164980E+03  0.16232164980E+03  0.00000000000E+00 0.  1.
          2   -1    0    0  505    0 -0.00000000000E+00 -0.00000000000E+00 -0.68194550284E+03  0.68194550284E+03  0.00000000000E+00 0. -1.
         21    1    1    2  503  502  0.90998185021E+02  0.59091517211E+01  0.10265079915E+03  0.13730540527E+03  0.00000000000E+00 0.  1.
         21    1    1    2  504  501 -0.12710623754E+02 -0.30572477183E+02  0.25198974150E+02  0.41607987401E+02  0.00000000000E+00 0.  1.
         21    1    1    2  505  503  0.11895415320E+02  0.39603808306E+02 -0.75149146130E+02  0.85775035424E+02  0.00000000000E+00 0. -1.
          2    1    1    2  501    0 -0.90182976587E+02 -0.14940482844E+02 -0.57232448021E+03  0.57957872454E+03  0.00000000000E+00 0. -1.
<scales pt_clust_3="14000.00000" pt_clust_4="33.10946" pt_clust_5="39.99456" pt_clust_6="82.34799"></scales>
<clustering>
<clus scale="   33.109">  1  4  2 -1</clus>
<clus scale="   39.995">  2  5  1 -1</clus>
<clus scale="   82.348">  2  6  1 -1</clus>
<clus scale="   33.109">  1  3  2 -1</clus>
</clustering>
</event>
<event>
 6    0  0.1230761E+002  0.1547682E+03  0.7546771E-02  0.1194733E+00
          2   -1    0    0  504    0 -0.00000000000E+00  0.00000000000E+00  0.14988615746E+04  0.14988615746E+04  0.00000000000E+00 0. -1.
         21   -1    0    0  503  502  0.00000000000E+00 -0.00000000000E+00 -0.11511033277E+03  0.11511033277E+03  0.00000000000E+00 0. -1.
         21    1    1    2  503  501  0.15280776057E+03  0.31488965423E+02  0.16980546971E+02  0.15693981525E+03  0.00000000000E+00 0. -1.
         21    1    1    2  504  505 -0.22335305158E+02 -0.32222824227E+02  0.25315938263E+03  0.25617737853E+03  0.00000000000E+00 0. -1.
         21    1    1    2  505  502 -0.12455800259E+03 -0.11172093000E+03  0.13284500155E+03  0.21364469721E+03  0.00000000000E+00 0. -1.
          2    1    1    2  501    0 -0.59144528193E+01  0.11245478881E+03  0.98076631064E+03  0.98721001634E+03  0.00000000000E+00 0. -1.
<scales pt_clust_3="14000.00000" pt_clust_4="39.20684" pt_clust_5="154.76817" pt_clust_6="90.11044"></scales>
<clustering>
<clus scale="   39.207">  1  4  2 -1</clus>
<clus scale="   90.110">  1  6  2 -1</clus>
<clus scale="  154.768">  1  5  2 -1</clus>
<clus scale="  154.768">  2  3  1 -1</clus>
</clustering>
</event>
<event>
 6    0  0.1230761E+002  0.1388525E+03  0.7546771E-02  0.1214881E+00
          2   -1    0    0  504    0 -0.00000000000E+00  0.00000000000E+00  0.11273081331E+04  0.11273081331E+04  0.00000000000E+00 0. -1.
         21   -1    0    0  505  502  0.00000000000E+00 -0.00000000000E+00 -0.38826947863E+02  0.38826947863E+02  0.00000000000E+00 0.  1.
         21    1    1    2  503  501  0.40367113634E+02  0.50328213248E+02  0.92802975625E+02  0.11302577227E+03  0.00000000000E+00 0. -1.
         21    1    1    2  504  502 -0.38208741961E+02  0.39121075875E+02  0.24160506991E+03  0.24771632232E+03  0.00000000000E+00 0. -1.
         21    1    1    2  505  503  0.21294177305E+02  0.63431469001E+02  0.47417134654E+02  0.82008401432E+02  0.00000000000E+00 0.  1.
          2    1    1    2  501    0 -0.23452548978E+02 -0.15288075812E+03  0.70665600507E+03  0.72338458496E+03  0.00000000000E+00 0. -1.
<scales pt_clust_3="39.68434" pt_clust_4="54.68424" pt_clust_5="39.68434" pt_clust_6="132.84106"></scales>
<clustering>
<clus scale="   39.684">  3  5 -1 -1</clus>
<clus scale="   54.684">  1  4  2 -1</clus>
<clus scale="  132.841">  1  6  2 -1</clus>
<clus scale="  138.852">  2  3  1 -1</clus>
</clustering>
</event>
<event>
 6    0  0.1230761E+002  0.1473877E+03  0.7546771E-02  0.1203720E+00
         21   -1    0    0  504  502  0.00000000000E+00  0.00000000000E+00  0.33667379832E+03  0.33667379832E+03  0.00000000000E+00 0. -1.
          1   -1    0    0  503    0 -0.00000000000E+00 -0.00000000000E+00 -0.37959869391E+03  0.37959869391E+03  0.00000000000E+00 0. -1.
         21    1    1    2  503  505  0.23392557322E+02  0.81856065235E+02 -0.30190156077E+02  0.90327585364E+02  0.00000000000E+00 0. -1.
         21    1    1    2  504  501  0.79685048484E+01 -0.29501238918E+02  0.12483975662E+02  0.33010147160E+02  0.00000000000E+00 0. -1.
         21    1    1    2  505  502  0.18460314228E+02 -0.12622499241E+03  0.26243512717E+03  0.29179740897E+03  0.00000000000E+00 0. -1.
          1    1    1    2  501    0 -0.49821376398E+02  0.73870166095E+02 -0.28765384235E+03  0.30113735073E+03  0.00000000000E+00 0. -1.
<scales pt_clust_3="82.63958" pt_clust_4="30.55847" pt_clust_5="14000.00000" pt_clust_6="147.38766"></scales>
<clustering>
<clus scale="   30.558">  1  4  2 -1</clus>
<clus scale="   82.640">  2  3  1 -1</clus>
<clus scale="  147.388">  2  6  1 -1</clus>
<clus scale="   30.558">  1  3  2 -1</clus>
</clustering>
</event>
<event>
 6    0  0.1230761E+002  0.1830200E+03  0.7546771E-02  0.1164912E+00
         21   -1    0    0  501  502  0.00000000000E+00  0.00000000000E+00  0.15106375239E+03  0.15106375239E+03  0.00000000000E+00 0.  1.
          2   -1    0    0  503    0 -0.00000000000E+00 -0.00000000000E+00 -0.21978247294E+04  0.21978247294E+04  0.00000000000E+00 0. -1.
         21    1    1    2  503  505 -0.51117511186E+02 -0.18635026458E+01 -0.14203337777E+03  0.15096341607E+03  0.00000000000E+00 0.  1.
         21    1    1    2  504  502 -0.31986348529E+02  0.49812080917E+02  0.48071671722E+02  0.76257822678E+02  0.00000000000E+00 0.  1.
         21    1    1    2  505  504 -0.93119986381E+02  0.73531509991E+02  0.33956763023E+02  0.12341505816E+03  0.00000000000E+00 0.  1.
          2    1    1    2  501    0  0.17622384610E+03 -0.12148008826E+03 -0.19867560340E+04  0.19982521849E+04  0.00000000000E+00 0. -1.
<scales pt_clust_3="51.15147" pt_clust_4="33.69307" pt_clust_5="33.69307" pt_clust_6="176.69456"></scales>
<clustering>
<clus scale="   33.693">  4  5 -1 -1</clus>
<clus scale="   51.151">  2  3  1 -1</clus>
<clus scale="  176.695">  2  6  1 -1</clus>
<clus scale="  183.020">  1  3  2 -1</clus>
</clustering>
</event>
<event>
 6    0  0.1230761E+002  0.2198663E+03  0.7546771E-02  0.1133983E+00
         21   -1    0    0  501  502  0.00000000000E+00  0.00000000000E+00  0.84085151510E+02  0.84085151510E+02  0.00000000000E+00 0. -1.
          2   -1    0    0  503    0 -0.00000000000E+00 -0.00000000000E+00 -0.35955748962E+04  0.35955748962E+04  0.00000000000E+00 0. -1.
         21    1    1    2  503  505 -0.44452142242E+02 -0.28114861668E+02 -0.22272690346E+04  0.22278899862E+04  0.00000000000E+00 0. -1.
         21    1    1    2  504  502  0.44931430664E+02  0.33239977594E+02 -0.41071498578E+02  0.69358471490E+02  0.00000000000E+00 0. -1.
         21    1    1    2  505  504  0.16537710574E+03 -0.67143593942E+01 -0.43206687765E+02  0.17105989475E+03  0.00000000000E+00 0. -1.
          2    1    1    2  501    0 -0.16585639416E+03  0.15892434685E+01 -0.11999425238E+04  0.12113516952E+04  0.00000000000E+00 0. -1.
<scales pt_clust_3="52.59694" pt_clust_4="44.12120" pt_clust_5="44.12120" pt_clust_6="206.34030"></scales>
<clustering>
<clus scale="   44.121">  4  5 -1 -1</clus>
<clus scale="   52.597">  2  3  1 -1</clus>
<clus scale="  206.340">  2  6  1 -1</clus>
<clus scale="  219.866">  1  3  2 -1</clus>
</clustering>
</event>
<event>
 6    0  0.1230761E+002  0.1302757E+03  0.7546771E-02  0.1227047E+00
         21   -1    0    0  505  502  0.00000000000E+00  0.00000000000E+00  0.58165248585E+02  0.58165248585E+02  0.00000000000E+00 0.  1.
          1   -1    0    0  503    0 -0.00000000000E+00 -0.00000000000E+00 -0.24818450076E+04  0.24818450076E+04  0.00000000000E+00 0. -1.
         21    1    1    2  503  504 -0.84397861439E+01  0.53876758859E+02 -0.96490209987E+03  0.96644192659E+03  0.00000000000E+00 0. -1.
         21    1    1    2  504  502 -0.86243070019E+02 -0.91320901230E+02 -0.35180411446E+03  0.37355522896E+03  0.00000000000E+00 0.  1.
         21    1    1    2  505  501 -0.11965985377E+03  0.25923109337E+02 -0.69953246921E+02  0.14101044272E+03  0.00000000000E+00 0.  1.
          1    1    1    2  501    0  0.21434270994E+03  0.11521033034E+02 -0.10370202978E+04  0.10590026579E+04  0.00000000000E+00 0. -1.
<scales pt_clust_3="54.53380" pt_clust_4="118.07596" pt_clust_5="14000.00000" pt_clust_6="130.27571"></scales>
<clustering>
<clus scale="   54.534">  2  3  1 -1</clus>
<clus scale="  118.076">  2  4  1 -1</clus>
<clus scale="  130.276">  2  6  1 -1</clus>
<clus scale="  130.276">  1  3  2 -1</clus>
</clustering>
</event>
<event>
 6    0  0.1230761E+002  0.7181373E+02  0.7546771E-02  0.1354032E+00
          3   -1    0    0  505    0 -0.00000000000E+00  0.00000000000E+00  0.98147892582E+03  0.98147892582E+03  0.00000000000E+00 0.  1.
         21   -1    0    0  503  502  0.00000000000E+00 -0.00000000000E+00 -0.27033497918E+03  0.27033497918E+03  0.00000000000E+00 0. -1.
         21    1    1    2  503  501 -0.37519013391E+02  0.78157366576E+01 -0.10838122428E+03  0.11495760907E+03  0.00000000000E+00 0.  1.
         21    1    1    2  504  502 -0.22501258480E+02 -0.48469933957E+02 -0.14726668116E+03  0.15666242852E+03  0.00000000000E+00 0. -1.
         21    1    1    2  505  504 -0.45091238038E+02  0.32441419246E+02  0.37321522621E+03  0.37732647735E+03  0.00000000000E+00 0. -1.
          3    1    1    2  501    0  0.10511150991E+03  0.82127780535E+01  0.59357662586E+03  0.60286739007E+03  0.00000000000E+00 0.  1.
<scales pt_clust_3="38.32443" pt_clust_4="71.81373" pt_clust_5="56.00284" pt_clust_6="14000.00000"></scales>
<clustering>
<clus scale="   38.324">  2  3  1 -1</clus>
<clus scale="   56.003">  1  5  2 -1</clus>
<clus scale="   71.814">  2  4  1 -1</clus>
<clus scale="   38.324">  2  3  1 -1</clus>
</clustering>
</event>
<event>
 6    0  0.1230761E+002  0.2039786E+03  0.7546771E-02  0.1146425E+00
         21   -1    0    0  505  502  0.00000000000E+00  0.00000000000E+00  0.42347320924E+03  0.42347320924E+03  0.00000000000E+00 0.  1.
          1   -1    0    0  504    0 -0.00000000000E+00 -0.00000000000E+00 -0.25359485986E+03  0.25359485986E+03  0.00000000000E+00 0.  1.
         21    1    1    2  503  501 -0.10776154529E+02 -0.50034651755E+02 -0.51390938968E+02  0.72530135052E+02  0.00000000000E+00 0.  1.
         21    1    1    2  504  502  0.43191827049E+02  0.19469277805E+03  0.24739716540E+03  0.31776747662E+03  0.00000000000E+00 0.  1.
         21    1    1    2  505  503 -0.93098980074E+02 -0.42137509032E+01  0.60349375607E+02  0.11102802765E+03  0.00000000000E+00 0. -1.
          1    1    1    2  501    0  0.60683307554E+02 -0.14044437540E+03 -0.86477252656E+02  0.17574242977E+03  0.00000000000E+00 0.  1.
<scales pt_clust_3="35.92849" pt_clust_4="194.29010" pt_clust_5="93.19429" pt_clust_6="35.92849"></scales>
<clustering>
<clus scale="   35.928">  3  6 -1 -1</clus>
<clus scale="   93.194">  1  5  2 -1</clus>
<clus scale="  194.290">  1  4  2 -1</clus>
<clus scale="   93.194">  1  3  2 -1</clus>
</clustering>
</event>
<event>
 6    0  0.1230761E+002  0.2085503E+03  0.7546771E-02  0.1142719E+00
         21   -1    0    0  501  502  0.00000000000E+00  0.00000000000E+00  0.47470583832E+03  0.47470583832E+03  0.00000000000E+00 0. -1.
          2   -1    0    0  505    0 -0.00000000000E+00 -0.00000000000E+00 -0.38350990165E+04  0.38350990165E+04  0.00000000000E+00 0.  1.
         21    1    1    2  503  504  0.49415319910E+02  0.85038989687E+02  0.14344441377E+03  0.17392470627E+03  0.00000000000E+00 0. -1.
         21    1    1    2  504  502  0.77536647517E+02  0.61634535774E+02  0.30482224957E+03  0.32051107865E+03  0.00000000000E+00 0. -1.
         21    1    1    2  505  503  0.19176490376E+02 -0.31958043082E+02 -0.43299908658E+03  0.43460011882E+03  0.00000000000E+00 0. -1.
          2    1    1    2  501    0 -0.14612845780E+03 -0.11471548238E+03 -0.33756607549E+04  0.33807689511E+04  0.00000000000E+00 0.  1.
<scales pt_clust_3="76.47430" pt_clust_4="76.47430" pt_clust_5="37.27002" pt_clust_6="193.90567"></scales>
<clustering>
<clus scale="   37.270">  2  5  1 -1</clus>
<clus scale="   76.474">  3  4 -1 -1</clus>
<clus scale="  193.906">  2  6  1 -1</clus>
<clus scale="  208.550">  1  3  2 -1</clus>
</clustering>
</event>
<event>
 6    0  0.1230761E+002  0.9143621E+02  0.7546771E-02  0.1299411E+00
         21   -1    0    0  501  502  0.00000000000E+00  0.00000000000E+00  0.26131083072E+03  0.26131083072E+03  0.00000000000E+00 0.  1.
          2   -1    0    0  503    0 -0.00000000000E+00 -0.00000000000E+00 -0.97169304504E+03  0.97169304504E+03  0.00000000000E+00 0.  1.
         21    1    1    2  503  505 -0.29053506066E+02 -0.22424761012E+02 -0.11110277316E+03  0.11700770199E+03  0.00000000000E+00 0. -1.
         21    1    1    2  504  502  0.87897652567E+02  0.30003567380E+02  0.19067677597E+03  0.21209395153E+03  0.00000000000E+00 0.  1.
         21    1    1    2  505  504 -0.96379204989E+02  0.29500483006E+02  0.10835960238E+02  0.10137380177E+03  0.00000000000E+00 0.  1.
          2    1    1    2  501    0  0.37535058487E+02 -0.37079289374E+02 -0.80079217737E+03  0.80252842047E+03  0.00000000000E+00 0.  1.
<scales pt_clust_3="36.70117" pt_clust_4="14000.00000" pt_clust_5="91.43621" pt_clust_6="58.96090"></scales>
<clustering>
<clus scale="   36.701">  2  3  1 -1</clus>
<clus scale="   58.961">  2  6  1 -1</clus>
<clus scale="   91.436">  2  5  1 -1</clus>
<clus scale="   91.436">  1  3  2 -1</clus>
</clustering>
</event>
<event>
 6    0  0.1230761E+002  0.8392417E+02  0.7546771E-02  0.1318270E+00
          2   -1    0    0  505    0 -0.00000000000E+00  0.00000000000E+00  0.31972392679E+04  0.31972392679E+04  0.00000000000E+00 0.  1.
         21   -1    0    0  504  502  0.00000000000E+00 -0.00000000000E+00 -0.24384985023E+03  0.24384985023E+03  0.00000000000E+00 0.  1.
         21    1    1    2  503  502 -0.38841973498E+02  0.67125560040E+01 -0.16148745934E+02  0.42597409646E+02  0.00000000000E+00 0. -1.
         21    1    1    2  504  501 -0.92947186877E+01 -0.74404010779E+02 -0.20052230292E+03  0.21408302731E+03  0.00000000000E+00 0.  1.
         21    1    1    2  505  503  0.18550323863E+02 -0.75356332623E+02  0.23604753738E+04  0.23617507662E+04  0.00000000000E+00 0.  1.
          2    1    1    2  501    0  0.29586368322E+02  0.14304778740E+03  0.80958509269E+03  0.82265791492E+03  0.00000000000E+00 0.  1.
<scales pt_clust_3="39.41773" pt_clust_4="14000.00000" pt_clust_5="77.55909" pt_clust_6="83.92417"></scales>
<clustering>
<clus scale="   39.418">  2  3  1 -1</clus>
<clus scale="   77.559">  1  5  2 -1</clus>
<clus scale="   83.924">  1  6  2 -1</clus>
<clus scale="   39.418">  2  3  1 -1</clus>
</clustering>
</event>
<event>
 6    0  0.1230761E+002  0.1549344E+03  0.7546771E-02  0.1194537E+00
          2   -1    0    0  504    0 -0.00000000000E+00  0.00000000000E+00  0.22173227892E+03  0.22173227892E+03  0.00000000000E+00 0. -1.
         21   -1    0    0  505  502  0.00000000000E+00 -0.00000000000E+00 -0.15695733882E+04  0.15695733882E+04  0.00000000000E+00 0.  1.
         21    1    1    2  503  502 -0.65172228739E+01  0.39638558986E+02 -0.10625639628E+03  0.11359626447E+03  0.00000000000E+00 0. -1.
         21    1    1    2  504  503  0.15162769655E+02 -0.31290297808E+02  0.52592542870E+02  0.63047346384E+02  0.00000000000E+00 0. -1.
         21    1    1    2  505  501 -0.98980744893E+02 -0.15107928506E+03 -0.14024444769E+04  0.14140271034E+04  0.00000000000E+00 0.  1.
          2    1    1    2  501    0  0.90335198112E+02  0.14273102388E+03  0.10826722101E+03  0.20063495294E+03  0.00000000000E+00 0. -1.
<scales pt_clust_3="39.42500" pt_clust_4="34.77057" pt_clust_5="154.93443" pt_clust_6="14000.00000"></scales>
<clustering>
<clus scale="   34.771">  1  4  2 -1</clus>
<clus scale="   39.425">  2  3  1 -1</clus>
<clus scale="  154.934">  2  5  1 -1</clus>
<clus scale="   39.425">  2  3  1 -1</clus>
</clustering>
</event>
<event>
 6    0  0.1230761E+002  0.1625141E+03  0.7546771E-02  0.1185887E+00
         21   -1    0    0  505  502  0.00000000000E+00  0.00000000000E+00  0.58658069023E+03  0.58658069023E+03  0.00000000000E+00 0.  1.
         -2   -1    0    0    0  501 -0.00000000000E+00 -0.00000000000E+00 -0.27796803554E+03  0.27796803554E+03  0.00000000000E+00 0. -1.
         21    1    1    2  503  501 -0.69763558822E+01  0.40843469649E+02 -0.13416102705E+02  0.43552845672E+02  0.00000000000E+00 0. -1.
         21    1    1    2  504  502  0.33619272973E+02 -0.45288984653E+02  0.78314624874E+02  0.96511802984E+02  0.00000000000E+00 0.  1.
         21    1    1    2  505  503  0.67524519695E+02 -0.91134236487E+02  0.45790177875E+03  0.47174044644E+03  0.00000000000E+00 0.  1.
         -2    1    1    2    0  504 -0.94167436785E+02  0.95579751491E+02 -0.21418764623E+03  0.25274363067E+03  0.00000000000E+00 0. -1.
<scales pt_clust_3="41.43499" pt_clust_4="55.06000" pt_clust_5="14000.00000" pt_clust_6="162.51413"></scales>
<clustering>
<clus scale="   41.435">  2  3  1 -1</clus>
<clus scale="   55.060">  1  4  2 -1</clus>
<clus scale="  162.514">  2  6  1 -1</clus>
<clus scale="   55.060">  1  3  2 -1</clus>
</clustering>
</event>
<event>
 6    0  0.1230761E+002  0.7331602E+03  0.7546771E-02  0.9662146E-01
         21   -1    0    0  501  502  0.00000000000E+00  0.00000000000E+00  0.53301643761E+03  0.53301643761E+03  0.00000000000E+00 0. -1.
          1   -1    0    0  504    0 -0.00000000000E+00 -0.00000000000E+00 -0.11631565926E+04  0.11631565926E+04  0.00000000000E+00 0. -1.
         21    1    1    2  503  502 -0.18366290656E+03 -0.78485152506E+02 -0.71576341376E+02  0.21216775216E+03  0.00000000000E+00 0. -1.
         21    1    1    2  504  505 -0.12066575419E+02  0.45200195425E+02 -0.13761344860E+03  0.14534827534E+03  0.00000000000E+00 0.  1.
         21    1    1    2  505  503 -0.46668914100E+03 -0.26325790566E+03 -0.99909022536E+02  0.54505531096E+03  0.00000000000E+00 0. -1.
          1    1    1    2  501    0  0.66241862299E+03  0.29654286274E+03 -0.32104134244E+03  0.79360169171E+03  0.00000000000E+00 0. -1.
<scales pt_clust_3="39.72448" pt_clust_4="46.78312" pt_clust_5="39.72448" pt_clust_6="730.26734"></scales>
<clustering>
<clus scale="   39.724">  3  5 -1 -1</clus>
<clus scale="   46.783">  2  4  1 -1</clus>
<clus scale="  730.267">  2  6  1 -1</clus>
<clus scale="  733.160">  1  3  2 -1</clus>
</clustering>
</event>
<event>
 6    0  0.1230761E+002  0.1140991E+03  0.7546771E-02  0.1253162E+00
         21   -1    0    0  505  502  0.00000000000E+00  0.00000000000E+00  0.74574256159E+02  0.74574256159E+02  0.00000000000E+00 0. -1.
          1   -1    0    0  504    0 -0.00000000000E+00 -0.00000000000E+00 -0.10369685242E+04  0.10369685242E+04  0.00000000000E+00 0. -1.
         21    1    1    2  503  502  0.38221887576E+02  0.72116764350E+01 -0.91051892108E+00  0.38906940404E+02  0.00000000000E+00 0. -1.
         21    1    1    2  504  503  0.10096831601E+02  0.32140262414E+02 -0.41754835127E+03  0.41890520184E+03  0.00000000000E+00 0. -1.
         21    1    1    2  505  501  0.44396340267E+02 -0.92481857869E+02 -0.33036376305E+01  0.10263938370E+03  0.00000000000E+00 0. -1.
          1    1    1    2  501    0 -0.92715059445E+02  0.53129919021E+02 -0.54063176021E+03  0.55109125441E+03  0.00000000000E+00 0. -1.
<scales pt_clust_3="39.41886" pt_clust_4="33.68891" pt_clust_5="14000.00000" pt_clust_6="114.09909"></scales>
<clustering>
<clus scale="   33.689">  2  4  1 -1</clus>
<clus scale="   39.419">  1  3  2 -1</clus>
<clus scale="  114.099">  2  6  1 -1</clus>
<clus scale="   39.419">  1  3  2 -1</clus>
</clustering>
</event>
<event>
 6    0  0.1230761E+002  0.1253830E+03  0.7546771E-02  0.1234472E+00
         21   -1    0    0  503  502  0.00000000000E+00  0.00000000000E+00  0.72158726726E+02  0.72158726726E+02  0.00000000000E+00 0. -1.
         -2   -1    0    0    0  501 -0.00000000000E+00 -0.00000000000E+00 -0.71455258112E+03  0.71455258112E+03  0.00000000000E+00 0. -1.
         21    1    1    2  503  505 -0.16142275858E+02 -0.37123121110E+02 -0.58439367759E+02  0.71090497923E+02  0.00000000000E+00 0. -1.
         21    1    1    2  504  502  0.64827382114E+02  0.10921207334E+03 -0.17504867530E+02  0.12820408270E+03  0.00000000000E+00 0. -1.
         21    1    1    2  505  501  0.25590908122E+02  0.15925618267E+02 -0.50855702259E+02  0.59117022489E+02  0.00000000000E+00 0. -1.
         -2    1    1    2    0  504 -0.74276014378E+02 -0.88014570493E+02 -0.51559391685E+03  0.52829970473E+03  0.00000000000E+00 0. -1.
<scales pt_clust_3="38.08185" pt_clust_4="125.38296" pt_clust_5="30.14166" pt_clust_6="14000.00000"></scales>
<clustering>
<clus scale="   30.142">  2  5  1 -1</clus>
<clus scale="   38.082">  2  3  1 -1</clus>
<clus scale="  125.383">  1  4  2 -1</clus>
<clus scale="  125.383">  1  3  2 -1</clus>
</clustering>
</event>
<event>
 6    0  0.1230761E+002  0.1986143E+03  0.7546771E-02  0.1150913E+00
          2   -1    0    0  505    0 -0.00000000000E+00  0.00000000000E+00  0.28611975755E+04  0.28611975755E+04  0.00000000000E+00 0. -1.
         21   -1    0    0  504  502  0.00000000000E+00 -0.00000000000E+00 -0.26329420482E+02  0.26329420482E+02  0.00000000000E+00 0. -1.
         21    1    1    2  503  502 -0.69069708369E+02  0.15667873767E+03  0.10302913726E+04  0.10444228855E+04  0.00000000000E+00 0. -1.
         21    1    1    2  504  501 -0.23822320043E+02  0.31199271315E+02  0.87978643592E+02  0.96338669241E+02  0.00000000000E+00 0. -1.
         21    1    1    2  505  503  0.67474496874E+02  0.46438793210E+02  0.59985381966E+03  0.60542049371E+03  0.00000000000E+00 0. -1.
          2    1    1    2  501    0  0.25417531537E+02 -0.23431680220E+03  0.11167443192E+04  0.11413449475E+04  0.00000000000E+00 0. -1.
<scales pt_clust_3="14000.00000" pt_clust_4="39.25427" pt_clust_5="81.81599" pt_clust_6="198.61425"></scales>
<clustering>
<clus scale="   39.254">  2  4  1 -1</clus>
<clus scale="   81.816">  1  5  2 -1</clus>
<clus scale="  198.614">  2  6  1 -1</clus>
<clus scale="   39.254">  2  3  1 -1</clus>
</clustering>
</event>
<event>
 6    0  0.1230761E+002  0.1595790E+03  0.7546771E-02  0.1189173E+00
         21   -1    0    0  503  502  0.00000000000E+00  0.00000000000E+00  0.25164033742E+03  0.25164033742E+03  0.00000000000E+00 0. -1.
         -2   -1    0    0    0  501 -0.00000000000E+00 -0.00000000000E+00 -0.56878745020E+03  0.56878745020E+03  0.00000000000E+00 0. -1.
         21    1    1    2  503  501  0.21909998490E+02 -0.28021027967E+02 -0.24182670001E+03  0.24442867851E+03  0.00000000000E+00 0. -1.
         21    1    1    2  504  502  0.19189346375E+02  0.77753284816E+02  0.86258720252E+02  0.11770459266E+03  0.00000000000E+00 0. -1.
         21    1    1    2  505  504  0.41527628042E+02  0.67928772525E+02  0.11891022541E+03  0.14310312272E+03  0.00000000000E+00 0. -1.
         -2    1    1    2    0  505 -0.82626972908E+02 -0.11766102937E+03 -0.28048935843E+03  0.31519139373E+03  0.00000000000E+00 0. -1.
<scales pt_clust_3="35.57002" pt_clust_4="31.78992" pt_clust_5="31.78992" pt_clust_6="156.36142"></scales>
<clustering>
<clus scale="   31.790">  4  5 -1 -1</clus>
<clus scale="   35.570">  2  3  1 -1</clus>
<clus scale="  156.361">  2  6  1 -1</clus>
<clus scale="  159.579">  1  3  2 -1</clus>
</clustering>
</event>
<event>
 6    0  0.1230761E+002  0.2719035E+03  0.7546771E-02  0.1100195E+00
         21   -1    0    0  501  502  0.00000000000E+00  0.00000000000E+00  0.12633281768E+04  0.12633281768E+04  0.00000000000E+00 0.  1.
          2   -1    0    0  504    0 -0.00000000000E+00 -0.00000000000E+00 -0.12442774225E+04  0.12442774225E+04  0.00000000000E+00 0. -1.
         21    1    1    2  503  502 -0.20074742547E+03 -0.18385171918E+03  0.11790433368E+04  0.12100595744E+04  0.00000000000E+00 0.  1.
         21    1    1    2  504  505 -0.65875803320E+02  0.33685361202E+02 -0.11108873075E+03  0.13347296027E+03  0.00000000000E+00 0.  1.
         21    1    1    2  505  503  0.81347049320E+02 -0.18425494235E+02  0.22949732272E+01  0.83439248396E+02  0.00000000000E+00 0.  1.
          2    1    1    2  501    0  0.18527617947E+03  0.16859185222E+03 -0.10511988250E+04  0.10806338163E+04  0.00000000000E+00 0. -1.
<scales pt_clust_3="271.90354" pt_clust_4="73.98868" pt_clust_5="80.81804" pt_clust_6="14000.00000"></scales>
<clustering>
<clus scale="   73.989">  2  4  1 -1</clus>
<clus scale="   80.818">  2  5  1 -1</clus>
<clus scale="  271.904">  1  3  2 -1</clus>
<clus scale="  271.904">  1  3  2 -1</clus>
</clustering>
</event>
<event>
 6    0  0.1230761E+002  0.1522453E+03  0.7546771E-02  0.1197741E+00
         21   -1    0    0  503  502  0.00000000000E+00  0.00000000000E+00  0.12259064499E+03  0.12259064499E+03  0.00000000000E+00 0.  1.
          2   -1    0    0  504    0 -0.00000000000E+00 -0.00000000000E+00 -0.14823552390E+04  0.14823552390E+04  0.00000000000E+00 0. -1.
         21    1    1    2  503  501  0.11112470822E+02  0.10349839846E+03 -0.65659402697E+03  0.66479404461E+03  0.00000000000E+00 0. -1.
         21    1    1    2  504  505  0.11039982353E+02 -0.42913455794E+02  0.59772990038E+01  0.44712123658E+02  0.00000000000E+00 0.  1.
         21    1    1    2  505  502 -0.59264208570E+02 -0.90306381039E+02  0.60849082239E+02  0.12397620612E+03  0.00000000000E+00 0.  1.
          2    1    1    2  501    0  0.37111755395E+02  0.29721438372E+02 -0.76999694830E+03  0.77146350962E+03  0.00000000000E+00 0. -1.
<scales pt_clust_3="138.78669" pt_clust_4="40.08491" pt_clust_5="40.08491" pt_clust_6="47.54625"></scales>
<clustering>
<clus scale="   40.085">  4  5 -1 -1</clus>
<clus scale="   47.546">  2  6  1 -1</clus>
<clus scale="  138.787">  2  3  1 -1</clus>
<clus scale="  152.245">  1  3  2 -1</clus>
</clustering>
</event>
<event>
 6    0  0.1230761E+002  0.4291174E+03  0.7546771E-02  0.1034139E+00
         21   -1    0    0  501  502  0.00000000000E+00  0.00000000000E+00  0.37982598820E+03  0.37982598820E+03  0.00000000000E+00 0. -1.
          1   -1    0    0  503    0 -0.00000000000E+00 -0.00000000000E+00 -0.11973858609E+04  0.11973858609E+04  0.00000000000E+00 0. -1.
         21    1    1    2  503  505 -0.37079550448E+02 -0.16194927652E+02 -0.52723270399E+02  0.66459852427E+02  0.00000000000E+00 0. -1.
         21    1    1    2  504  502 -0.11531867149E+02  0.38093764313E+02 -0.84885272319E+01  0.40696116941E+02  0.00000000000E+00 0. -1.
         21    1    1    2  505  504  0.74488695024E+02  0.37493548708E+03  0.20208624578E+03  0.43239338095E+03  0.00000000000E+00 0. -1.
          1    1    1    2  501    0 -0.25877277427E+02 -0.39683432374E+03 -0.95843432084E+03  0.10376624988E+04  0.00000000000E+00 0. -1.
<scales pt_clust_3="40.46194" pt_clust_4="35.01714" pt_clust_5="35.01714" pt_clust_6="415.16850"></scales>
<clustering>
<clus scale="   35.017">  4  5 -1 -1</clus>
<clus scale="   40.462">  2  3  1 -1</clus>
<clus scale="  415.169">  2  6  1 -1</clus>
<clus scale="  429.117">  1  3  2 -1</clus>
</clustering>
</event>
<event>
 6    0  0.1230761E+002  0.7211972E+02  0.7546771E-02  0.1353030E+00
          2   -1    0    0  505    0 -0.00000000000E+00  0.00000000000E+00  0.87779024897E+03  0.87779024897E+03  0.00000000000E+00 0.  1.
         21   -1    0    0  503  502  0.00000000000E+00 -0.00000000000E+00 -0.51498999948E+03  0.51498999948E+03  0.00000000000E+00 0. -1.
         21    1    1    2  503  501  0.40677806999E+02  0.12991796328E+03 -0.40698503646E+03  0.42915053427E+03  0.00000000000E+00 0. -1.
         21    1    1    2  504  502 -0.13827228565E+02 -0.61691599296E+02 -0.83052068044E+02  0.10437763975E+03  0.00000000000E+00 0.  1.
         21    1    1    2  505  504 -0.37322246374E+02 -0.17757571024E+02  0.58766644443E+03  0.58911809624E+03  0.00000000000E+00 0.  1.
          2    1    1    2  501    0  0.10471667940E+02 -0.50468792963E+02  0.26517090957E+03  0.27013397819E+03  0.00000000000E+00 0.  1.
<scales pt_clust_3="72.11972" pt_clust_4="64.17257" pt_clust_5="41.33136" pt_clust_6="14000.00000"></scales>
<clustering>
<clus scale="   41.331">  1  5  2 -1</clus>
<clus scale="   64.173">  2  4  1 -1</clus>
<clus scale="   72.120">  2  3  1 -1</clus>
<clus scale="   64.173">  2  3  1 -1</clus>
</clustering>
</event>
<event>
 6    0  0.1230761E+002  0.2561286E+03  0.7546771E-02  0.1109492E+00
          1   -1    0    0  503    0 -0.00000000000E+00  0.00000000000E+00  0.82061341219E+03  0.82061341219E+03  0.00000000000E+00 0. -1.
         21   -1    0    0  505  502  0.00000000000E+00 -0.00000000000E+00 -0.39434769476E+03  0.39434769476E+03  0.00000000000E+00 0. -1.
         21    1    1    2  503  502  0.47235566021E+02  0.14513697251E+03 -0.22454300380E+03  0.27150598528E+03  0.00000000000E+00 0. -1.
         21    1    1    2  504  501 -0.27950344094E+02 -0.24266716935E+03  0.35769116020E+03  0.43314148139E+03  0.00000000000E+00 0. -1.
         21    1    1    2  505  504  0.11043978179E+03  0.10926211065E+03 -0.33285418339E+02  0.15888068888E+03  0.00000000000E+00 0. -1.
          1    1    1    2  501    0 -0.12972500372E+03 -0.11731913816E+02  0.32640297936E+03  0.35143295140E+03  0.00000000000E+00 0. -1.
<scales pt_clust_3="256.12855" pt_clust_4="14000.00000" pt_clust_5="142.66665" pt_clust_6="130.25442"></scales>
<clustering>
<clus scale="  130.254">  1  6  2 -1</clus>
<clus scale="  142.667">  2  5  1 -1</clus>
<clus scale="  256.129">  2  3  1 -1</clus>
<clus scale="  142.667">  2  3  1 -1</clus>
</clustering>
</event>
<event>
 6    0  0.1230761E+002  0.1562531E+03  0.7546771E-02  0.1192993E+00
         -1   -1    0    0    0  501 -0.00000000000E+00  0.00000000000E+00  0.10907162314E+04  0.10907162314E+04  0.00000000000E+00 0.  1.
         21   -1    0    0  503  502  0.00000000000E+00 -0.00000000000E+00 -0.61210396609E+03  0.61210396609E+03  0.00000000000E+00 0. -1.
         21    1    1    2  503  501 -0.12528714079E+03  0.85191855298E+02  0.82394217893E+03  0.83775607075E+03  0.00000000000E+00 0.  1.
         21    1    1    2  504  502 -0.35955920731E+02  0.32857127417E+02 -0.93912674404E+02  0.10579229401E+03  0.00000000000E+00 0. -1.
         21    1    1    2  505  504  0.79667626860E+02  0.91969221841E+02 -0.44555061021E+03  0.46186644692E+03  0.00000000000E+00 0. -1.
         -1    1    1    2    0  505  0.81575434661E+02 -0.21001820456E+03  0.19413337103E+03  0.29740538585E+03  0.00000000000E+00 0.  1.
<scales pt_clust_3="14000.00000" pt_clust_4="48.70748" pt_clust_5="130.17331" pt_clust_6="156.25305"></scales>
<clustering>
<clus scale="   48.707">  2  4  1 -1</clus>
<clus scale="  130.173">  2  5  1 -1</clus>
<clus scale="  156.253">  2  6  1 -1</clus>
<clus scale="   48.707">  2  3  1 -1</clus>
</clustering>
</event>
<event>
 6    0  0.1230761E+002  0.1836676E+03  0.7546771E-02  0.1164300E+00
         21   -1    0    0  501  502  0.00000000000E+00  0.00000000000E+00  0.13911644659E+03  0.13911644659E+03  0.00000000000E+00 0. -1.
          2   -1    0    0  503    0 -0.00000000000E+00 -0.00000000000E+00 -0.13871066010E+04  0.13871066010E+04  0.00000000000E+00 0. -1.
         21    1    1    2  503  505 -0.13417755048E+02 -0.46995412331E+02 -0.36183039592E+03  0.36511620115E+03  0.00000000000E+00 0. -1.
         21    1    1    2  504  502  0.16470974410E+02  0.16318498339E+03  0.69909988621E+02  0.17829200293E+03  0.00000000000E+00 0. -1.
         21    1    1    2  505  504 -0.40833118552E+02 -0.14468657773E+03 -0.44812894036E+03  0.47267440859E+03  0.00000000000E+00 0. -1.
          2    1    1    2  501    0  0.37779899190E+02  0.28497006675E+02 -0.50794080675E+03  0.51014043491E+03  0.00000000000E+00 0. -1.
<scales pt_clust_3="44.80011" pt_clust_4="166.01195" pt_clust_5="44.80011" pt_clust_6="47.32230"></scales>
<clustering>
<clus scale="   44.800">  3  5 -1 -1</clus>
<clus scale="   47.322">  2  6  1 -1</clus>
<clus scale="  166.012">  1  4  2 -1</clus>
<clus scale="  166.012">  1  3  2 -1</clus>
</clustering>
</event>
<event>
 6    0  0.1230761E+002  0.4098380E+03  0.7546771E-02  0.1040425E+00
          2   -1    0    0  505    0 -0.00000000000E+00  0.00000000000E+00  0.24773858247E+04  0.24773858247E+04  0.00000000000E+00 0. -1.
         21   -1    0    0  504  502  0.00000000000E+00 -0.00000000000E+00 -0.13800451994E+03  0.13800451994E+03  0.00000000000E+00 0. -1.
         21    1    1    2  503  501  0.42754052810E+02  0.17461505284E+02  0.16093111085E+03  0.16742650817E+03  0.00000000000E+00 0. -1.
         21    1    1    2  504  503 -0.32731002795E+03 -0.11305091556E+03  0.52693495328E+03  0.63053374921E+03  0.00000000000E+00 0. -1.
         21    1    1    2  505  502 -0.18843191825E+03  0.19424861163E+03  0.69442420667E+03  0.74529463284E+03  0.00000000000E+00 0. -1.
          2    1    1    2  501    0  0.47298789339E+03 -0.98659201352E+02  0.95709103394E+03  0.10721354544E+04  0.00000000000E+00 0. -1.
<scales pt_clust_3="36.52526" pt_clust_4="392.44064" pt_clust_5="270.62725" pt_clust_6="36.52526"></scales>
<clustering>
<clus scale="   36.525">  3  6 -1 -1</clus>
<clus scale="  270.627">  1  5  2 -1</clus>
<clus scale="  392.441">  2  4  1 -1</clus>
<clus scale="  392.441">  2  3  1 -1</clus>
</clustering>
</event>
<event>
 6    0  0.1230761E+002  0.1845101E+03  0.7546771E-02  0.1163508E+00
          2   -1    0    0  505    0 -0.00000000000E+00  0.00000000000E+00  0.21851024855E+04  0.21851024855E+04  0.00000000000E+00 0. -1.
         21   -1    0    0  504  502  0.00000000000E+00 -0.00000000000E+00 -0.31646350633E+03  0.31646350633E+03  0.00000000000E+00 0. -1.
         21    1    1    2  503  501 -0.51176897741E+02  0.38636882094E+02 -0.54511596883E+02  0.84162923637E+02  0.00000000000E+00 0. -1.
         21    1    1    2  504  503 -0.10607051979E+03  0.29803617434E+02 -0.22727824350E+03  0.25257595045E+03  0.00000000000E+00 0. -1.
         21    1    1    2  505  502 -0.31662398415E+02 -0.49213431039E+02  0.58680626221E+03  0.58971693094E+03  0.00000000000E+00 0. -1.
          2    1    1    2  501    0  0.18890981594E+03 -0.19227068488E+02  0.15636225574E+04  0.15751101868E+04  0.00000000000E+00 0. -1.
<scales pt_clust_3="51.61060" pt_clust_4="51.61060" pt_clust_5="58.51897" pt_clust_6="171.66039"></scales>
<clustering>
<clus scale="   51.611">  3  4 -1 -1</clus>
<clus scale="   58.519">  1  5  2 -1</clus>
<clus scale="  171.660">  1  6  2 -1</clus>
<clus scale="  184.510">  2  3  1 -1</clus>
</clustering>
</event>
<event>
 6    0  0.1230761E+002  0.8943859E+02  0.7546771E-02  0.1304217E+00
         -1   -1    0    0    0  501 -0.00000000000E+00  0.00000000000E+00  0.72888221000E+03  0.72888221000E+03  0.00000000000E+00 0. -1.
         21   -1    0    0  504  502  0.00000000000E+00 -0.00000000000E+00 -0.19540121735E+03  0.19540121735E+03  0.00000000000E+00 0.  1.
         21    1    1    2  503  501 -0.29923081709E+02  0.46616857062E+02  0.70554117153E+02  0.89701759339E+02  0.00000000000E+00 0. -1.
         21    1    1    2  504  503 -0.94600189931E+02  0.97236066869E+01 -0.13763018067E+03  0.16728960247E+03  0.00000000000E+00 0.  1.
         21    1    1    2  505  502  0.58462848838E+02 -0.60850720680E+02  0.25100129439E+02  0.88038238280E+02  0.00000000000E+00 0. -1.
         -1    1    1    2    0  505  0.66060422802E+02  0.45102569314E+01  0.57545692673E+03  0.57925382726E+03  0.00000000000E+00 0. -1.
<scales pt_clust_3="55.39424" pt_clust_4="89.43859" pt_clust_5="14000.00000" pt_clust_6="60.58434"></scales>
<clustering>
<clus scale="   55.394">  1  3  2 -1</clus>
<clus scale="   60.584">  1  6  2 -1</clus>
<clus scale="   89.439">  2  4  1 -1</clus>
<clus scale="   89.439">  2  3  1 -1</clus>
</clustering>
</event>
<event>
 6    0  0.1360476E+002  0.1128649E+03  0.7546771E-02  0.1255355E+00
          1   -1    0    0  503    0 -0.00000000000E+00  0.00000000000E+00  0.31857608878E+04  0.31857608878E+04  0.00000000000E+00 0.  1.
         21   -1    0    0  505  502  0.00000000000E+00 -0.00000000000E+00 -0.47840881636E+03  0.47840881636E+03  0.00000000000E+00 0. -1.
         21    1    1    2  503  504 -0.19193120420E+02  0.32216383907E+02  0.36131716797E+03  0.36325798977E+03  0.00000000000E+00 0.  1.
         21    1    1    2  504  502 -0.84159650895E+02  0.77016175747E+02 -0.46073728459E+03  0.47465059105E+03  0.00000000000E+00 0. -1.
         21    1    1    2  505  501  0.63564864071E+02 -0.51224655789E+02  0.17035274434E+03  0.18890345367E+03  0.00000000000E+00 0.  1.
          1    1    1    2  501    0  0.39787907244E+02 -0.58007903866E+02  0.26364194437E+04  0.26373576697E+04  0.00000000000E+00 0.  1.
<scales pt_clust_3="37.50028" pt_clust_4="112.86491" pt_clust_5="14000.00000" pt_clust_6="35.46196"></scales>
<clustering>
<clus scale="   37.500">  1  3  2 -1</clus>
<clus scale="   35.462">  1  6  2 -1</clus>
<clus scale="  112.865">  2  4  1 -1</clus>
<clus scale="  112.865">  2  3  1 -1</clus>
</clustering>
</event>
<event>
 6    0  0.1230761E+002  0.2554377E+03  0.7546771E-02  0.1109916E+00
          2   -1    0    0  505    0 -0.00000000000E+00  0.00000000000E+00  0.13856331549E+04  0.13856331549E+04  0.00000000000E+00 0.  1.
         21   -1    0    0  501  502  0.00000000000E+00 -0.00000000000E+00 -0.92383015293E+02  0.92383015293E+02  0.00000000000E+00 0.  1.
         21    1    1    2  503  502 -0.28636456772E+02 -0.11438889145E+03  0.75069129547E+01  0.11815760190E+03  0.00000000000E+00 0.  1.
         21    1    1    2  504  503 -0.60663244773E+01 -0.11312318157E+03  0.12853173875E+03  0.17133027277E+03  0.00000000000E+00 0.  1.
         21    1    1    2  505  504 -0.36006270803E+02  0.66191114238E+01  0.10971138214E+03  0.11565833971E+03  0.00000000000E+00 0. -1.
          2    1    1    2  501    0  0.70709052052E+02  0.22089296160E+03  0.10475001058E+04  0.10728699559E+04  0.00000000000E+00 0.  1.
<scales pt_clust_3="108.55499" pt_clust_4="108.55499" pt_clust_5="36.60962" pt_clust_6="230.03859"></scales>
<clustering>
<clus scale="   36.610">  1  5  2 -1</clus>
<clus scale="  108.555">  3  4 -1 -1</clus>
<clus scale="  230.039">  1  6  2 -1</clus>
<clus scale="  255.438">  2  3  1 -1</clus>
</clustering>
</event>
<event>
 6    0  0.1230761E+002  0.7310726E+02  0.7546771E-02  0.1349834E+00
          1   -1    0    0  505    0 -0.00000000000E+00  0.00000000000E+00  0.11483436476E+04  0.11483436476E+04  0.00000000000E+00 0. -1.
         21   -1    0    0  503  502  0.00000000000E+00 -0.00000000000E+00 -0.43364885588E+03  0.43364885588E+03  0.00000000000E+00 0. -1.
         21    1    1    2  503  501 -0.29868112419E+02  0.21405882739E+02 -0.35258495337E+02  0.50926196096E+02  0.00000000000E+00 0.  1.
         21    1    1    2  504  502  0.60296440121E+01 -0.90048464263E+02 -0.38065370842E+03  0.39120624772E+03  0.00000000000E+00 0. -1.
         21    1    1    2  505  504 -0.69589870822E+01  0.96803826252E+02  0.61997498973E+03  0.62752561395E+03  0.00000000000E+00 0.  1.
          1    1    1    2  501    0  0.30797455489E+02 -0.28161244729E+02  0.51063200573E+03  0.51233444570E+03  0.00000000000E+00 0. -1.
<scales pt_clust_3="36.74665" pt_clust_4="73.10726" pt_clust_5="14000.00000" pt_clust_6="41.65223"></scales>
<clustering>
<clus scale="   36.747">  2  3  1 -1</clus>
<clus scale="   41.652">  1  6  2 -1</clus>
<clus scale="   73.107">  2  4  1 -1</clus>
<clus scale="   36.747">  2  3  1 -1</clus>
</clustering>
</event>
<event>
 6    0  0.1230761E+002  0.1634847E+03  0.7546771E-02  0.1184818E+00
          1   -1    0    0  503    0 -0.00000000000E+00  0.00000000000E+00  0.12378647151E+04  0.12378647151E+04  0.00000000000E+00 0. -1.
         21   -1    0    0  501  502  0.00000000000E+00 -0.00000000000E+00 -0.16136256749E+03  0.16136256749E+03  0.00000000000E+00 0. -1.
         21    1    1    2  503  504  0.10117172532E+03 -0.78860952913E+02  0.22711430986E+03  0.26083649599E+03  0.00000000000E+00 0.  1.
         21    1    1    2  504  505 -0.79586842471E+01 -0.42936867624E+02 -0.41946765813E+02  0.60551188415E+02  0.00000000000E+00 0.  1.
         21    1    1    2  505  502  0.33942821273E+02 -0.10521936017E+03 -0.34752650700E+02  0.11589208601E+03  0.00000000000E+00 0. -1.
          1    1    1    2  501    0 -0.12715586234E+03  0.22701718070E+03  0.92608725429E+03  0.96194751219E+03  0.00000000000E+00 0. -1.
<scales pt_clust_3="128.27614" pt_clust_4="32.19342" pt_clust_5="32.19342" pt_clust_6="155.25220"></scales>
<clustering>
<clus scale="   32.193">  4  5 -1 -1</clus>
<clus scale="  128.276">  1  3  2 -1</clus>
<clus scale="  155.252">  1  6  2 -1</clus>
<clus scale="  163.485">  2  3  1 -1</clus>
</clustering>
</event>
<event>
 6    0  0.1230761E+002  0.8430068E+02  0.7546771E-02  0.1317272E+00
         21   -1    0    0  504  502  0.00000000000E+00  0.00000000000E+00  0.68124953842E+02  0.68124953842E+02  0.00000000000E+00 0. -1.
          1   -1    0    0  503    0 -0.00000000000E+00 -0.00000000000E+00 -0.64386320766E+03  0.64386320766E+03  0.00000000000E+00 0.  1.
         21    1    1    2  503  502  0.35893472650E+02 -0.85390505796E+01  0.17781948491E+02  0.40956738833E+02  0.00000000000E+00 0. -1.
         21    1    1    2  504  505 -0.26253319710E+02  0.57511906284E+02 -0.13676236738E+02  0.64683039597E+02  0.00000000000E+00 0. -1.
         21    1    1    2  505  501  0.26516815287E+02  0.50224186325E+02 -0.99781796677E+02  0.11481296675E+03  0.00000000000E+00 0.  1.
          1    1    1    2  501    0 -0.36156968227E+02 -0.99197042030E+02 -0.48006216890E+03  0.49153541633E+03  0.00000000000E+00 0.  1.
<scales pt_clust_3="36.89521" pt_clust_4="51.95950" pt_clust_5="84.30068" pt_clust_6="14000.00000"></scales>
<clustering>
<clus scale="   36.895">  1  3  2 -1</clus>
<clus scale="   51.959">  1  4  2 -1</clus>
<clus scale="   84.301">  1  5  2 -1</clus>
<clus scale="   36.895">  1  3  2 -1</clus>
</clustering>
</event>
<event>
 6    0  0.1230761E+002  0.1305144E+03  0.7546771E-02  0.1226694E+00
         21   -1    0    0  505  502  0.00000000000E+00  0.00000000000E+00  0.41003606780E+02  0.41003606780E+02  0.00000000000E+00 0.  1.
          1   -1    0    0  503    0 -0.00000000000E+00 -0.00000000000E+00 -0.21906885400E+04  0.21906885400E+04  0.00000000000E+00 0. -1.
         21    1    1    2  503  504  0.40260972527E+02 -0.39364018272E+02 -0.63883556576E+03  0.64131221095E+03  0.00000000000E+00 0. -1.
         21    1    1    2  504  502  0.19680847275E+02 -0.13532068125E+03 -0.11367165556E+03  0.17782088685E+03  0.00000000000E+00 0.  1.
         21    1    1    2  505  501 -0.38700442758E+02  0.10423912939E+03 -0.49257686619E+03  0.50497078081E+03  0.00000000000E+00 0. -1.
          1    1    1    2  501    0 -0.21241377043E+02  0.70445570129E+02 -0.90460084572E+03  0.90758826818E+03  0.00000000000E+00 0. -1.
<scales pt_clust_3="56.30694" pt_clust_4="130.51439" pt_clust_5="14000.00000" pt_clust_6="47.49838"></scales>
<clustering>
<clus scale="   56.307">  2  3  1 -1</clus>
<clus scale="   47.498">  2  6  1 -1</clus>
<clus scale="  130.514">  1  4  2 -1</clus>
<clus scale="  130.514">  1  3  2 -1</clus>
</clustering>
</event>
<event>
 6    0  0.1230761E+002  0.8502769E+02  0.7546771E-02  0.1315360E+00
         -1   -1    0    0    0  501 -0.00000000000E+00  0.00000000000E+00  0.19152872811E+03  0.19152872811E+03  0.00000000000E+00 0. -1.
         21   -1    0    0  504  502  0.00000000000E+00 -0.00000000000E+00 -0.57168014196E+03  0.57168014196E+03  0.00000000000E+00 0. -1.
         21    1    1    2  503  501 -0.39236472736E+02  0.15856707483E+01  0.13709269413E+02  0.41592778367E+02  0.00000000000E+00 0.  1.
         21    1    1    2  504  503 -0.65513203095E+02 -0.62493448800E+02 -0.40774801176E+03  0.41767912567E+03  0.00000000000E+00 0. -1.
         21    1    1    2  505  502  0.29957272032E+02 -0.13953488610E+02 -0.12501964890E+03  0.12931376803E+03  0.00000000000E+00 0. -1.
         -1    1    1    2    0  505  0.74792403799E+02  0.74861266662E+02  0.13890697740E+03  0.17462319801E+03  0.00000000000E+00 0. -1.
<scales pt_clust_3="38.31409" pt_clust_4="14000.00000" pt_clust_5="33.04751" pt_clust_6="85.02769"></scales>
<clustering>
<clus scale="   33.048">  2  5  1 -1</clus>
<clus scale="   38.314">  1  3  2 -1</clus>
<clus scale="   85.028">  1  6  2 -1</clus>
<clus scale="   33.048">  2  3  1 -1</clus>
</clustering>
</event>
<event>
 6    0  0.1230761E+002  0.1122155E+03  0.7546771E-02  0.1256521E+00
         21   -1    0    0  503  502  0.00000000000E+00  0.00000000000E+00  0.15441114633E+04  0.15441114633E+04  0.00000000000E+00 0. -1.
          2   -1    0    0  504    0 -0.00000000000E+00 -0.00000000000E+00 -0.39180204790E+03  0.39180204790E+03  0.00000000000E+00 0.  1.
         21    1    1    2  503  501 -0.55152725716E+02 -0.66171090368E+02  0.12170771646E+04  0.12201218222E+04  0.00000000000E+00 0. -1.
         21    1    1    2  504  505  0.43005636725E+02 -0.24889815454E+01 -0.37114109298E+02  0.56860679984E+02  0.00000000000E+00 0. -1.
         21    1    1    2  505  502  0.14161131820E+02 -0.38960835406E+02  0.30576786258E+03  0.30856517972E+03  0.00000000000E+00 0. -1.
          2    1    1    2  501    0 -0.20140428282E+01  0.10762090732E+03 -0.33342150247E+03  0.35036582934E+03  0.00000000000E+00 0.  1.
<scales pt_clust_3="112.21548" pt_clust_4="43.20948" pt_clust_5="41.45461" pt_clust_6="14000.00000"></scales>
<clustering>
<clus scale="   41.455">  1  5  2 -1</clus>
<clus scale="   43.209">  2  4  1 -1</clus>
<clus scale="  112.215">  1  3  2 -1</clus>
<clus scale="   41.455">  1  3  2 -1</clus>
</clustering>
</event>
<event>
 6    0  0.1230761E+002  0.1252423E+03  0.7546771E-02  0.1234691E+00
          4   -1    0    0  504    0 -0.00000000000E+00  0.00000000000E+00  0.18924555383E+03  0.18924555383E+03  0.00000000000E+00 0.  1.
         21   -1    0    0  503  502  0.00000000000E+00 -0.00000000000E+00 -0.42626575790E+03  0.42626575790E+03  0.00000000000E+00 0. -1.
         21    1    1    2  503  501 -0.10062403889E+02  0.92393231295E+02 -0.28442468942E+03  0.29922427227E+03  0.00000000000E+00 0. -1.
         21    1    1    2  504  505 -0.34164813547E+02  0.20405151054E+02  0.45329824372E+02  0.60319131723E+02  0.00000000000E+00 0. -1.
         21    1    1    2  505  502 -0.42530494234E+02  0.22844575410E+02 -0.65481780585E+02  0.81354662768E+02  0.00000000000E+00 0. -1.
          4    1    1    2  501    0  0.86757711670E+02 -0.13564295776E+03  0.67556441561E+02  0.17461324497E+03  0.00000000000E+00 0.  1.
<scales pt_clust_3="125.24232" pt_clust_4="39.79453" pt_clust_5="50.59031" pt_clust_6="14000.00000"></scales>
<clustering>
<clus scale="   39.795">  1  4  2 -1</clus>
<clus scale="   50.590">  2  5  1 -1</clus>
<clus scale="  125.242">  2  3  1 -1</clus>
<clus scale="   50.590">  2  3  1 -1</clus>
</clustering>
</event>
<event>
 6    0  0.1230761E+002  0.8257248E+02  0.7546771E-02  0.1321906E+00
         21   -1    0    0  501  502  0.00000000000E+00  0.00000000000E+00  0.51822072612E+02  0.51822072612E+02  0.00000000000E+00 0. -1.
          2   -1    0    0  503    0 -0.00000000000E+00 -0.00000000000E+00 -0.10707142553E+04  0.10707142553E+04  0.00000000000E+00 0. -1.
         21    1    1    2  503  504  0.31100746017E+02  0.12626593290E+02 -0.24429914298E+03  0.24659431973E+03  0.00000000000E+00 0. -1.
         21    1    1    2  504  505  0.42833331861E+02  0.80198380039E+02 -0.23278241876E+02  0.93852815750E+02  0.00000000000E+00 0. -1.
         21    1    1    2  505  502  0.15582446887E+02 -0.27057786082E+02 -0.10424261876E+02  0.32918105569E+02  0.00000000000E+00 0. -1.
          2    1    1    2  501    0 -0.89516524766E+02 -0.65767187248E+02 -0.74089053596E+03  0.74917108687E+03  0.00000000000E+00 0. -1.
<scales pt_clust_3="33.69799" pt_clust_4="82.57248" pt_clust_5="31.22397" pt_clust_6="14000.00000"></scales>
<clustering>
<clus scale="   31.224">  1  5  2 -1</clus>
<clus scale="   33.698">  2  3  1 -1</clus>
<clus scale="   82.572">  1  4  2 -1</clus>
<clus scale="   31.224">  1  3  2 -1</clus>
</clustering>
</event>
<event>
 6    0  0.1230761E+002  0.1406493E+03  0.7546771E-02  0.1212458E+00
         21   -1    0    0  504  502  0.00000000000E+00  0.00000000000E+00  0.21810413447E+03  0.21810413447E+03  0.00000000000E+00 0. -1.
          2   -1    0    0  503    0 -0.00000000000E+00 -0.00000000000E+00 -0.14710722055E+04  0.14710722055E+04  0.00000000000E+00 0.  1.
         21    1    1    2  503  505  0.29636481674E+02 -0.41353614095E+02 -0.20798651634E+03  0.21411873674E+03  0.00000000000E+00 0.  1.
         21    1    1    2  504  501 -0.47807150219E+01 -0.37910583313E+02 -0.34406199158E+02  0.51418421832E+02  0.00000000000E+00 0.  1.
         21    1    1    2  505  502 -0.11487332408E+03  0.11590504268E+03  0.17198967599E+03  0.23708713199E+03  0.00000000000E+00 0. -1.
          2    1    1    2  501    0  0.90017557431E+02 -0.36640845274E+02 -0.11825650316E+04  0.11865520494E+04  0.00000000000E+00 0.  1.
<scales pt_clust_3="51.28818" pt_clust_4="38.21083" pt_clust_5="14000.00000" pt_clust_6="140.64926"></scales>
<clustering>
<clus scale="   38.211">  1  4  2 -1</clus>
<clus scale="   51.288">  2  3  1 -1</clus>
<clus scale="  140.649">  2  6  1 -1</clus>
<clus scale="   38.211">  1  3  2 -1</clus>
</clustering>
</event>
<event>
 6    0  0.1230761E+002  0.6879227E+02  0.7546771E-02  0.1364249E+00
         21   -1    0    0  504  502  0.00000000000E+00  0.00000000000E+00  0.37861248563E+02  0.37861248563E+02  0.00000000000E+00 0.  1.
          2   -1    0    0  505    0 -0.00000000000E+00 -0.00000000000E+00 -0.89199772152E+03  0.89199772152E+03  0.00000000000E+00 0.  1.
         21    1    1    2  503  502 -0.10386811053E+02 -0.42932520381E+02 -0.61242891561E+02  0.75510124598E+02  0.00000000000E+00 0.  1.
         21    1    1    2  504  501 -0.90356651265E+02 -0.95766098375E+01 -0.76091415835E+02  0.11851556627E+03  0.00000000000E+00 0.  1.
         21    1    1    2  505  503  0.33874080819E+02  0.54145508979E+02 -0.12606106532E+03  0.14131730851E+03  0.00000000000E+00 0. -1.
          2    1    1    2  501    0  0.66869381499E+02 -0.16363787610E+01 -0.59074110024E+03  0.59451597071E+03  0.00000000000E+00 0.  1.
<scales pt_clust_3="44.17111" pt_clust_4="14000.00000" pt_clust_5="53.57777" pt_clust_6="68.79227"></scales>
<clustering>
<clus scale="   44.171">  1  3  2 -1</clus>
<clus scale="   53.578">  1  5  2 -1</clus>
<clus scale="   68.792">  2  6  1 -1</clus>
<clus scale="   44.171">  1  3  2 -1</clus>
</clustering>
</event>
<event>
 6    0  0.1230761E+002  0.1121769E+03  0.7546771E-02  0.1256591E+00
         21   -1    0    0  504  502  0.00000000000E+00  0.00000000000E+00  0.20795900140E+03  0.20795900140E+03  0.00000000000E+00 0. -1.
          2   -1    0    0  505    0 -0.00000000000E+00 -0.00000000000E+00 -0.57006379474E+03  0.57006379474E+03  0.00000000000E+00 0. -1.
         21    1    1    2  503  501  0.18766835214E+02  0.72259800126E+02 -0.35353153306E+02  0.82604589865E+02  0.00000000000E+00 0. -1.
         21    1    1    2  504  503  0.47785768766E+02 -0.44358435545E+02  0.14501689761E+03  0.15900016067E+03  0.00000000000E+00 0. -1.
         21    1    1    2  505  502  0.52256337451E+02 -0.94217270782E+02 -0.28998790105E+03  0.30935513843E+03  0.00000000000E+00 0. -1.
          2    1    1    2  501    0 -0.11880894143E+03  0.66315906201E+02 -0.18178063659E+03  0.22706290718E+03  0.00000000000E+00 0. -1.
<scales pt_clust_3="66.19709" pt_clust_4="65.20085" pt_clust_5="112.17691" pt_clust_6="14000.00000"></scales>
<clustering>
<clus scale="   65.201">  1  4  2 -1</clus>
<clus scale="   66.197">  1  3  2 -1</clus>
<clus scale="  112.177">  2  5  1 -1</clus>
<clus scale="   65.201">  1  3  2 -1</clus>
</clustering>
</event>
<event>
 6    0  0.1230761E+002  0.9663534E+02  0.7546771E-02  0.1287535E+00
          2   -1    0    0  505    0 -0.00000000000E+00  0.00000000000E+00  0.80387870508E+03  0.80387870508E+03  0.00000000000E+00 0. -1.
         21   -1    0    0  503  502  0.00000000000E+00 -0.00000000000E+00 -0.17196797107E+03  0.17196797107E+03  0.00000000000E+00 0.  1.
         21    1    1    2  503  501  0.15060220347E+02  0.72687890794E+02 -0.71315398520E+02  0.10293797050E+03  0.00000000000E+00 0.  1.
         21    1    1    2  504  502 -0.58076908682E+02  0.23905212456E+02 -0.62050031951E+02  0.88286992075E+02  0.00000000000E+00 0.  1.
         21    1    1    2  505  504 -0.39604212347E+02 -0.72318787091E+02  0.28503888639E+03  0.29672490182E+03  0.00000000000E+00 0. -1.
          2    1    1    2  501    0  0.82620900682E+02 -0.24274316159E+02  0.48023727809E+03  0.48789681176E+03  0.00000000000E+00 0. -1.
<scales pt_clust_3="14000.00000" pt_clust_4="62.80435" pt_clust_5="82.95686" pt_clust_6="96.63534"></scales>
<clustering>
<clus scale="   62.804">  2  4  1 -1</clus>
<clus scale="   82.957">  1  5  2 -1</clus>
<clus scale="   96.635">  1  6  2 -1</clus>
<clus scale="   62.804">  2  3  1 -1</clus>
</clustering>
</event>
<event>
 6    0  0.1230761E+002  0.7991406E+02  0.7546771E-02  0.1329296E+00
          2   -1    0    0  504    0 -0.00000000000E+00  0.00000000000E+00  0.62168786248E+03  0.62168786248E+03  0.00000000000E+00 0. -1.
         21   -1    0    0  503  502  0.00000000000E+00 -0.00000000000E+00 -0.21450158584E+03  0.21450158584E+03  0.00000000000E+00 0.  1.
         21    1    1    2  503  501  0.54230239781E+02 -0.93727482364E+02 -0.17040110653E+03  0.20189674827E+03  0.00000000000E+00 0.  1.
         21    1    1    2  504  505  0.42455513732E+02  0.12416364555E+02  0.92774916844E+02  0.10278045510E+03  0.00000000000E+00 0.  1.
         21    1    1    2  505  502  0.87400032312E+01  0.51049600654E+02  0.22677493059E+02  0.56539526660E+02  0.00000000000E+00 0.  1.
          2    1    1    2  501    0 -0.10542575674E+03  0.30261517154E+02  0.46213497326E+03  0.47497271829E+03  0.00000000000E+00 0. -1.
<scales pt_clust_3="79.91406" pt_clust_4="44.23389" pt_clust_5="53.34397" pt_clust_6="14000.00000"></scales>
<clustering>
<clus scale="   44.234">  1  4  2 -1</clus>
<clus scale="   53.344">  2  5  1 -1</clus>
<clus scale="   79.914">  2  3  1 -1</clus>
<clus scale="   53.344">  2  3  1 -1</clus>
</clustering>
</event>
<event>
 6    0  0.1230761E+002  0.1274710E+03  0.7546771E-02  0.1231257E+00
          2   -1    0    0  503    0 -0.00000000000E+00  0.00000000000E+00  0.19699704356E+04  0.19699704356E+04  0.00000000000E+00 0. -1.
         21   -1    0    0  501  502  0.00000000000E+00 -0.00000000000E+00 -0.10091717838E+03  0.10091717838E+03  0.00000000000E+00 0.  1.
         21    1    1    2  503  504 -0.49936283956E+01 -0.85696991382E+02  0.28191564801E+03  0.29469533971E+03  0.00000000000E+00 0.  1.
         21    1    1    2  504  505 -0.19624172560E+02 -0.31423271363E+02  0.56662440299E+00  0.37052006626E+02  0.00000000000E+00 0.  1.
         21    1    1    2  505  502  0.11423067426E+01 -0.30634445689E+02 -0.69690787002E+02  0.76135273825E+02  0.00000000000E+00 0.  1.
          2    1    1    2  501    0  0.23475494213E+02  0.14775470843E+03  0.16562617718E+04  0.16630049938E+04  0.00000000000E+00 0. -1.
<scales pt_clust_3="127.47102" pt_clust_4="54.73847" pt_clust_5="30.65574" pt_clust_6="14000.00000"></scales>
<clustering>
<clus scale="   30.656">  2  5  1 -1</clus>
<clus scale="   54.738">  2  4  1 -1</clus>
<clus scale="  127.471">  2  3  1 -1</clus>
<clus scale="   30.656">  2  3  1 -1</clus>
</clustering>
</event>
<event>
 6    0  0.1230761E+002  0.1736417E+03  0.7546771E-02  0.1174103E+00
          2   -1    0    0  503    0 -0.00000000000E+00  0.00000000000E+00  0.13391563090E+04  0.13391563090E+04  0.00000000000E+00 0. -1.
         21   -1    0    0  505  502  0.00000000000E+00 -0.00000000000E+00 -0.11689935548E+03  0.11689935548E+03  0.00000000000E+00 0.  1.
         21    1    1    2  503  502 -0.33907897915E+02  0.31619257716E+02  0.14014440870E+03  0.14761428890E+03  0.00000000000E+00 0. -1.
         21    1    1    2  504  501  0.74564895429E+02 -0.10311325459E+02 -0.34840677289E+02  0.82946487913E+02  0.00000000000E+00 0.  1.
         21    1    1    2  505  504  0.86300106690E+02 -0.44791820720E+02 -0.38226641731E+01  0.97306877349E+02  0.00000000000E+00 0.  1.
          2    1    1    2  501    0 -0.12695710420E+03  0.23483888462E+02  0.11207758863E+04  0.11281880103E+04  0.00000000000E+00 0. -1.
<scales pt_clust_3="46.36295" pt_clust_4="40.15263" pt_clust_5="40.15263" pt_clust_6="167.53780"></scales>
<clustering>
<clus scale="   40.153">  4  5 -1 -1</clus>
<clus scale="   46.363">  1  3  2 -1</clus>
<clus scale="  167.538">  1  6  2 -1</clus>
<clus scale="  173.642">  2  3  1 -1</clus>
</clustering>
</event>
<event>
 6    0  0.1230761E+002  0.1276894E+03  0.7546771E-02  0.1230925E+00
         21   -1    0    0  504  502  0.00000000000E+00  0.00000000000E+00  0.34627684419E+02  0.34627684419E+02  0.00000000000E+00 0.  1.
          2   -1    0    0  503    0 -0.00000000000E+00 -0.00000000000E+00 -0.39048411470E+04  0.39048411470E+04  0.00000000000E+00 0.  1.
         21    1    1    2  503  505  0.11645207784E+03 -0.46166333336E+02 -0.24196638837E+04  0.24229043991E+04  0.00000000000E+00 0.  1.
         21    1    1    2  504  501 -0.88782593122E+01 -0.12946439080E+03 -0.18037666886E+03  0.22220619848E+03  0.00000000000E+00 0.  1.
         21    1    1    2  505  502  0.64144642208E+01  0.98455404381E+02 -0.33902389468E+03  0.35308895928E+03  0.00000000000E+00 0.  1.
          2    1    1    2  501    0 -0.11398828275E+03  0.77175319752E+02 -0.93114901529E+03  0.94126927457E+03  0.00000000000E+00 0.  1.
<scales pt_clust_3="127.68942" pt_clust_4="54.99051" pt_clust_5="98.66414" pt_clust_6="14000.00000"></scales>
<clustering>
<clus scale="   98.664">  1  5  2 -1</clus>
<clus scale="   54.991">  1  4  2 -1</clus>
<clus scale="  127.689">  2  3  1 -1</clus>
<clus scale="   98.664">  1  3  2 -1</clus>
</clustering>
</event>
<event>
 6    0  0.1230761E+002  0.2070095E+03  0.7546771E-02  0.1143956E+00
          2   -1    0    0  504    0 -0.00000000000E+00  0.00000000000E+00  0.83684808934E+03  0.83684808934E+03  0.00000000000E+00 0. -1.
         21   -1    0    0  501  502  0.00000000000E+00 -0.00000000000E+00 -0.33641382079E+03  0.33641382079E+03  0.00000000000E+00 0.  1.
         21    1    1    2  503  505  0.15145407999E+03  0.18193264332E+02 -0.19538336747E+03  0.24787898962E+03  0.00000000000E+00 0.  1.
         21    1    1    2  504  503  0.75691369300E+01 -0.29073194636E+02  0.20597856667E+02  0.36425460594E+02  0.00000000000E+00 0.  1.
         21    1    1    2  505  502  0.55178266010E+02 -0.67937071896E+02 -0.68412026756E+02  0.11108686773E+03  0.00000000000E+00 0.  1.
          2    1    1    2  501    0 -0.21420148293E+03  0.78817002199E+02  0.74363180611E+03  0.77787059218E+03  0.00000000000E+00 0. -1.
<scales pt_clust_3="207.00952" pt_clust_4="30.04234" pt_clust_5="88.24421" pt_clust_6="14000.00000"></scales>
<clustering>
<clus scale="   30.042">  1  4  2 -1</clus>
<clus scale="   88.244">  2  5  1 -1</clus>
<clus scale="  207.010">  2  3  1 -1</clus>
<clus scale="   88.244">  2  3  1 -1</clus>
</clustering>
</event>
<event>
 6    0  0.1230761E+002  0.2864462E+03  0.7546771E-02  0.1092219E+00
         21   -1    0    0  505  502  0.00000000000E+00  0.00000000000E+00  0.56462209051E+03  0.56462209051E+03  0.00000000000E+00 0.  1.
         -4   -1    0    0    0  501 -0.00000000000E+00 -0.00000000000E+00 -0.21923103072E+03  0.21923103072E+03  0.00000000000E+00 0.  1.
         21    1    1    2  503  501 -0.38642162512E+02  0.14544471673E+02 -0.34899859618E+02  0.54062543237E+02  0.00000000000E+00 0. -1.
         21    1    1    2  504  503  0.17953832468E+03  0.17931793495E+03  0.46741451378E+02  0.25801878827E+03  0.00000000000E+00 0.  1.
         21    1    1    2  505  504 -0.58922394132E+01  0.37417415168E+02 -0.70200985841E+01  0.38523541209E+02  0.00000000000E+00 0. -1.
         -4    1    1    2    0  502 -0.13500392275E+03 -0.23127982179E+03  0.34056956661E+03  0.43324824850E+03  0.00000000000E+00 0.  1.
<scales pt_clust_3="41.28872" pt_clust_4="37.12366" pt_clust_5="37.12366" pt_clust_6="269.85001"></scales>
<clustering>
<clus scale="   37.124">  4  5 -1 -1</clus>
<clus scale="   41.289">  2  3  1 -1</clus>
<clus scale="  269.850">  1  6  2 -1</clus>
<clus scale="  269.850">  1  3  2 -1</clus>
</clustering>
</event>
<event>
 6    0  0.1230761E+002  0.1615562E+03  0.7546771E-02  0.1186951E+00
          2   -1    0    0  504    0 -0.00000000000E+00  0.00000000000E+00  0.34051624680E+03  0.34051624680E+03  0.00000000000E+00 0. -1.
         21   -1    0    0  503  502  0.00000000000E+00 -0.00000000000E+00 -0.25245391634E+03  0.25245391634E+03  0.00000000000E+00 0.  1.
         21    1    1    2  503  505 -0.30575424132E+02  0.83875818513E+02 -0.12734724153E+03  0.15552276173E+03  0.00000000000E+00 0.  1.
         21    1    1    2  504  502  0.38176556550E+02 -0.34549121627E+01  0.16876821166E+03  0.17306673613E+03  0.00000000000E+00 0. -1.
         21    1    1    2  505  501 -0.37097993391E+02  0.60965284786E+02 -0.53017814342E+02  0.88903968979E+02  0.00000000000E+00 0.  1.
          2    1    1    2  501    0  0.29496860973E+02 -0.14138619114E+03  0.99659174672E+02  0.17547669631E+03  0.00000000000E+00 0. -1.
<scales pt_clust_3="36.36454" pt_clust_4="38.33257" pt_clust_5="36.36454" pt_clust_6="156.35269"></scales>
<clustering>
<clus scale="   36.365">  3  5 -1 -1</clus>
<clus scale="   38.333">  1  4  2 -1</clus>
<clus scale="  156.353">  1  6  2 -1</clus>
<clus scale="  161.556">  2  3  1 -1</clus>
</clustering>
</event>
<event>
 6    0  0.1230761E+002  0.1253075E+03  0.7546771E-02  0.1234589E+00
          1   -1    0    0  503    0 -0.00000000000E+00  0.00000000000E+00  0.14136095651E+04  0.14136095651E+04  0.00000000000E+00 0.  1.
         21   -1    0    0  504  502  0.00000000000E+00 -0.00000000000E+00 -0.17692126577E+03  0.17692126577E+03  0.00000000000E+00 0.  1.
         21    1    1    2  503  502 -0.10064393816E+03  0.45234978859E+02  0.18765286457E+03  0.21769015408E+03  0.00000000000E+00 0.  1.
         21    1    1    2  504  505 -0.36455238776E+02 -0.52778609048E+02 -0.60617749763E+02  0.88255751052E+02  0.00000000000E+00 0.  1.
         21    1    1    2  505  501 -0.27132563356E+01 -0.60920098460E+02 -0.71068463159E+02  0.93644789562E+02  0.00000000000E+00 0.  1.
          1    1    1    2  501    0  0.13981243327E+03  0.68463728650E+02  0.11807216477E+04  0.11909401362E+04  0.00000000000E+00 0.  1.
<scales pt_clust_3="110.34222" pt_clust_4="34.95126" pt_clust_5="34.95126" pt_clust_6="120.07079"></scales>
<clustering>
<clus scale="   34.951">  4  5 -1 -1</clus>
<clus scale="  110.342">  1  3  2 -1</clus>
<clus scale="  120.071">  1  6  2 -1</clus>
<clus scale="  125.308">  2  3  1 -1</clus>
</clustering>
</event>
<event>
 6    0  0.1230761E+002  0.1136526E+03  0.7546771E-02  0.1253952E+00
         21   -1    0    0  503  502  0.00000000000E+00  0.00000000000E+00  0.10347073604E+03  0.10347073604E+03  0.00000000000E+00 0.  1.
          1   -1    0    0  504    0 -0.00000000000E+00 -0.00000000000E+00 -0.19330985126E+04  0.19330985126E+04  0.00000000000E+00 0.  1.
         21    1    1    2  503  501  0.39433322145E+02  0.26449852053E+02 -0.86657523771E+02  0.98813501077E+02  0.00000000000E+00 0.  1.
         21    1    1    2  504  505  0.37028342813E+02 -0.35016026522E+02  0.20010863725E+02  0.54750844303E+02  0.00000000000E+00 0.  1.
         21    1    1    2  505  502  0.43298128710E+01 -0.59144511020E+02  0.43439870876E+02  0.73510834882E+02  0.00000000000E+00 0.  1.
          1    1    1    2  501    0 -0.80791477829E+02  0.67710685489E+02 -0.18064209874E+04  0.18094940684E+04  0.00000000000E+00 0.  1.
<scales pt_clust_3="47.48243" pt_clust_4="39.85500" pt_clust_5="39.85500" pt_clust_6="105.20716"></scales>
<clustering>
<clus scale="   39.855">  4  5 -1 -1</clus>
<clus scale="   47.482">  1  3  2 -1</clus>
<clus scale="  105.207">  2  6  1 -1</clus>
<clus scale="   47.482">  1  3  2 -1</clus>
</clustering>
</event>
<event>
 6    0  0.1230761E+002  0.2479900E+03  0.7546771E-02  0.1114582E+00
          1   -1    0    0  502    0 -0.00000000000E+00  0.00000000000E+00  0.18368011258E+04  0.18368011258E+04  0.00000000000E+00 0.  1.
         21   -1    0    0  503  502  0.00000000000E+00 -0.00000000000E+00 -0.14129600860E+03  0.14129600860E+03  0.00000000000E+00 0.  1.
         21    1    1    2  503  504  0.83286974722E+02  0.56526647281E+02 -0.16015387645E+02  0.10192386694E+03  0.00000000000E+00 0.  1.
         21    1    1    2  504  505  0.10491586865E+03  0.13139528362E+03  0.51155220750E+02  0.17575243004E+03  0.00000000000E+00 0.  1.
         21    1    1    2  505  501 -0.17017424950E+03 -0.22660928821E+02  0.51033377966E+03  0.53843603106E+03  0.00000000000E+00 0.  1.
          1    1    1    2  501    0 -0.18028593875E+02 -0.16526100208E+03  0.11500315045E+04  0.11619848064E+04  0.00000000000E+00 0.  1.
<scales pt_clust_3="55.44051" pt_clust_4="55.44051" pt_clust_5="237.41246" pt_clust_6="166.24148"></scales>
<clustering>
<clus scale="   55.441">  3  4 -1 -1</clus>
<clus scale="  166.241">  1  6  2 -1</clus>
<clus scale="  237.412">  1  5  2 -1</clus>
<clus scale="  247.990">  2  3  1 -1</clus>
</clustering>
</event>
<event>
 6    0  0.1230761E+002  0.3219214E+03  0.7546771E-02  0.1074768E+00
          1   -1    0    0  505    0 -0.00000000000E+00  0.00000000000E+00  0.14475037027E+04  0.14475037027E+04  0.00000000000E+00 0. -1.
         21   -1    0    0  504  502  0.00000000000E+00 -0.00000000000E+00 -0.76640796255E+03  0.76640796255E+03  0.00000000000E+00 0.  1.
         21    1    1    2  503  502  0.13151197874E+03  0.20500231061E+03 -0.63257755976E+03  0.67784638158E+03  0.00000000000E+00 0.  1.
         21    1    1    2  504  501  0.10501456236E+02  0.96061804587E+02 -0.31624481138E+02  0.10167722799E+03  0.00000000000E+00 0.  1.
         21    1    1    2  505  503  0.11023922168E+03 -0.11472159626E+03  0.68728253792E+03  0.70545801971E+03  0.00000000000E+00 0. -1.
          1    1    1    2  501    0 -0.25225265665E+03 -0.18634251894E+03  0.65801524308E+03  0.72893003593E+03  0.00000000000E+00 0. -1.
<scales pt_clust_3="321.92139" pt_clust_4="96.63411" pt_clust_5="158.30077" pt_clust_6="14000.00000"></scales>
<clustering>
<clus scale="   96.634">  2  4  1 -1</clus>
<clus scale="  158.301">  1  5  2 -1</clus>
<clus scale="  321.921">  2  3  1 -1</clus>
<clus scale="   96.634">  2  3  1 -1</clus>
</clustering>
</event>
<event>
 6    0  0.1230761E+002  0.8767742E+02  0.7546771E-02  0.1308576E+00
         21   -1    0    0  505  502  0.00000000000E+00  0.00000000000E+00  0.17422959678E+03  0.17422959678E+03  0.00000000000E+00 0.  1.
          3   -1    0    0  503    0 -0.00000000000E+00 -0.00000000000E+00 -0.35289288384E+03  0.35289288384E+03  0.00000000000E+00 0. -1.
         21    1    1    2  503  502 -0.12712091071E+01  0.52316141184E+02  0.10951121362E+03  0.12137256902E+03  0.00000000000E+00 0.  1.
         21    1    1    2  504  501 -0.81199316238E+02  0.38067815268E+02 -0.86310067282E+02  0.12446652253E+03  0.00000000000E+00 0.  1.
         21    1    1    2  505  504  0.32823897811E+02 -0.13925273646E+02  0.20379455692E+02  0.41068768278E+02  0.00000000000E+00 0. -1.
          3    1    1    2  501    0  0.49646627534E+02 -0.76458682806E+02 -0.22224388909E+03  0.24021462079E+03  0.00000000000E+00 0. -1.
<scales pt_clust_3="48.18786" pt_clust_4="87.67742" pt_clust_5="35.65560" pt_clust_6="14000.00000"></scales>
<clustering>
<clus scale="   35.656">  1  5  2 -1</clus>
<clus scale="   48.188">  1  3  2 -1</clus>
<clus scale="   87.677">  1  4  2 -1</clus>
<clus scale="   35.656">  1  3  2 -1</clus>
</clustering>
</event>
<event>
 6    0  0.1230761E+002  0.1181576E+03  0.7546771E-02  0.1246168E+00
         21   -1    0    0  503  502  0.00000000000E+00  0.00000000000E+00  0.59041878123E+03  0.59041878123E+03  0.00000000000E+00 0.  1.
          2   -1    0    0  505    0 -0.00000000000E+00 -0.00000000000E+00 -0.22166440349E+04  0.22166440349E+04  0.00000000000E+00 0.  1.
         21    1    1    2  503  501 -0.67038968398E+02  0.10010738888E+03  0.55797761080E+03  0.57083686526E+03  0.00000000000E+00 0.  1.
         21    1    1    2  504  502  0.96285546471E+02 -0.16051090350E+02 -0.12207215390E+03  0.15630148662E+03  0.00000000000E+00 0. -1.
         21    1    1    2  505  504  0.88326247561E+01 -0.47631004118E+02 -0.60066045246E+02  0.77166427965E+02  0.00000000000E+00 0.  1.
          2    1    1    2  501    0 -0.38079202829E+02 -0.36425294414E+02 -0.20020646653E+04  0.20027580363E+04  0.00000000000E+00 0.  1.
<scales pt_clust_3="118.15756" pt_clust_4="14000.00000" pt_clust_5="48.44304" pt_clust_6="86.16151"></scales>
<clustering>
<clus scale="   48.443">  2  5  1 -1</clus>
<clus scale="   86.162">  2  6  1 -1</clus>
<clus scale="  118.158">  1  3  2 -1</clus>
<clus scale="  118.158">  1  3  2 -1</clus>
</clustering>
</event>
<event>
 6    0  0.1230761E+002  0.1045199E+03  0.7546771E-02  0.1271068E+00
         21   -1    0    0  504  502  0.00000000000E+00  0.00000000000E+00  0.14434573813E+03  0.14434573813E+03  0.00000000000E+00 0. -1.
          2   -1    0    0  503    0 -0.00000000000E+00 -0.00000000000E+00 -0.36543912348E+03  0.36543912348E+03  0.00000000000E+00 0. -1.
         21    1    1    2  503  505 -0.81954800595E+02  0.47678108137E+02 -0.20878082205E+03  0.22930159832E+03  0.00000000000E+00 0. -1.
         21    1    1    2  504  501 -0.22735345835E+02  0.26925704511E+02 -0.21173481070E+01  0.35304003691E+02  0.00000000000E+00 0. -1.
         21    1    1    2  505  502 -0.84622146771E+01  0.50499952248E+02  0.44510697739E+02  0.67845828666E+02  0.00000000000E+00 0. -1.
          2    1    1    2  501    0  0.11315236111E+03 -0.12510376489E+03 -0.54705912924E+02  0.17733343093E+03  0.00000000000E+00 0. -1.
<scales pt_clust_3="104.51992" pt_clust_4="35.24045" pt_clust_5="65.01606" pt_clust_6="14000.00000"></scales>
<clustering>
<clus scale="   35.240">  1  4  2 -1</clus>
<clus scale="   65.016">  1  5  2 -1</clus>
<clus scale="  104.520">  2  3  1 -1</clus>
<clus scale="   35.240">  1  3  2 -1</clus>
</clustering>
</event>
<event>
 6    0  0.1230761E+002  0.1086607E+03  0.7546771E-02  0.1263070E+00
         21   -1    0    0  503  502  0.00000000000E+00  0.00000000000E+00  0.78332124458E+02  0.78332124458E+02  0.00000000000E+00 0.  1.
          1   -1    0    0  504    0 -0.00000000000E+00 -0.00000000000E+00 -0.95433257694E+03  0.95433257694E+03  0.00000000000E+00 0.  1.
         21    1    1    2  503  501  0.43116971782E+01  0.11105678554E+03  0.89838375234E+01  0.11150295818E+03  0.00000000000E+00 0.  1.
         21    1    1    2  504  505 -0.17455807609E+02  0.30030622780E+02 -0.26215541864E+03  0.26444660528E+03  0.00000000000E+00 0.  1.
         21    1    1    2  505  502  0.57676186075E+02 -0.59228515410E+02 -0.12252846739E+03  0.14780996177E+03  0.00000000000E+00 0.  1.
          1    1    1    2  501    0 -0.44532075644E+02 -0.81858892905E+02 -0.50030040397E+03  0.50890517616E+03  0.00000000000E+00 0.  1.
<scales pt_clust_3="108.66069" pt_clust_4="34.73534" pt_clust_5="76.09879" pt_clust_6="14000.00000"></scales>
<clustering>
<clus scale="   34.735">  2  4  1 -1</clus>
<clus scale="   76.099">  2  5  1 -1</clus>
<clus scale="  108.661">  1  3  2 -1</clus>
<clus scale="  108.661">  1  3  2 -1</clus>
</clustering>
</event>
<event>
 6    0  0.1230761E+002  0.1886050E+03  0.7546771E-02  0.1159726E+00
         21   -1    0    0  503  502  0.00000000000E+00  0.00000000000E+00  0.11072386140E+04  0.11072386140E+04  0.00000000000E+00 0. -1.
          2   -1    0    0  505    0 -0.00000000000E+00 -0.00000000000E+00 -0.82221445019E+02  0.82221445019E+02  0.00000000000E+00 0. -1.
         21    1    1    2  503  504 -0.47682368377E+02 -0.98062897350E+01  0.25428513916E+03  0.25890288444E+03  0.00000000000E+00 0. -1.
         21    1    1    2  504  501 -0.10532775305E+03  0.89849497101E+02  0.64711842348E+03  0.66176213377E+03  0.00000000000E+00 0. -1.
         21    1    1    2  505  502 -0.24318858038E+02 -0.30733452518E+02 -0.11068504924E+02  0.40724240462E+02  0.00000000000E+00 0.  1.
          2    1    1    2  501    0  0.17732897947E+03 -0.49309754848E+02  0.13468211130E+03  0.22807080038E+03  0.00000000000E+00 0. -1.
<scales pt_clust_3="43.63477" pt_clust_4="43.63477" pt_clust_5="39.19122" pt_clust_6="174.05502"></scales>
<clustering>
<clus scale="   39.191">  2  5  1 -1</clus>
<clus scale="   43.635">  3  4 -1 -1</clus>
<clus scale="  174.055">  2  6  1 -1</clus>
<clus scale="  188.605">  1  3  2 -1</clus>
</clustering>
</event>
<event>
 6    0  0.1230761E+002  0.1082883E+03  0.7546771E-02  0.1263773E+00
         21   -1    0    0  505  502  0.00000000000E+00  0.00000000000E+00  0.22509304653E+03  0.22509304653E+03  0.00000000000E+00 0. -1.
         -1   -1    0    0    0  501 -0.00000000000E+00 -0.00000000000E+00 -0.47744048781E+03  0.47744048781E+03  0.00000000000E+00 0. -1.
         21    1    1    2  503  502  0.22667312282E+02  0.47966081183E+02  0.84685457683E+02  0.99930869770E+02  0.00000000000E+00 0. -1.
         21    1    1    2  504  501 -0.50762221368E+02  0.30420942775E+02 -0.32029390575E+02  0.67291297640E+02  0.00000000000E+00 0.  1.
         21    1    1    2  505  504 -0.15619374687E+02  0.27333354280E+02  0.10501488237E+03  0.10963212413E+03  0.00000000000E+00 0. -1.
         -1    1    1    2    0  503  0.43714283773E+02 -0.10572037824E+03 -0.41001839077E+03  0.42567924280E+03  0.00000000000E+00 0. -1.
<scales pt_clust_3="14000.00000" pt_clust_4="63.33097" pt_clust_5="31.48138" pt_clust_6="108.28831"></scales>
<clustering>
<clus scale="   31.481">  1  5  2 -1</clus>
<clus scale="   63.331">  1  4  2 -1</clus>
<clus scale="  108.288">  2  6  1 -1</clus>
<clus scale="   31.481">  1  3  2 -1</clus>
</clustering>
</event>
<event>
 6    0  0.1230761E+002  0.3210815E+03  0.7546771E-02  0.1075153E+00
         21   -1    0    0  501  502  0.00000000000E+00  0.00000000000E+00  0.16719693285E+03  0.16719693285E+03  0.00000000000E+00 0.  1.
          2   -1    0    0  504    0 -0.00000000000E+00 -0.00000000000E+00 -0.28160879025E+04  0.28160879025E+04  0.00000000000E+00 0.  1.
         21    1    1    2  503  505  0.30736422595E+02  0.74929024468E+02  0.13491765265E+02  0.82104288022E+02  0.00000000000E+00 0.  1.
         21    1    1    2  504  503  0.11474773894E+02  0.34949016276E+02 -0.19492822593E+03  0.19836864026E+03  0.00000000000E+00 0.  1.
         21    1    1    2  505  502 -0.56456937879E+02  0.22894293018E+03 -0.25221007928E+02  0.23714626364E+03  0.00000000000E+00 0.  1.
          2    1    1    2  501    0  0.14245741390E+02 -0.33882097093E+03 -0.24422335011E+04  0.24656656434E+04  0.00000000000E+00 0.  1.
<scales pt_clust_3="54.90653" pt_clust_4="36.78456" pt_clust_5="54.90653" pt_clust_6="307.09887"></scales>
<clustering>
<clus scale="   36.785">  2  4  1 -1</clus>
<clus scale="   54.907">  3  5 -1 -1</clus>
<clus scale="  307.099">  2  6  1 -1</clus>
<clus scale="  321.082">  1  3  2 -1</clus>
</clustering>
</event>
<event>
 6    0  0.1230761E+002  0.1037332E+03  0.7546771E-02  0.1272636E+00
         21   -1    0    0  501  502  0.00000000000E+00  0.00000000000E+00  0.12608136683E+03  0.12608136683E+03  0.00000000000E+00 0.  1.
          2   -1    0    0  503    0 -0.00000000000E+00 -0.00000000000E+00 -0.25051243303E+04  0.25051243303E+04  0.00000000000E+00 0. -1.
         21    1    1    2  503  505  0.73646624291E+02 -0.25237104245E+02 -0.23336547238E+03  0.24600849660E+03  0.00000000000E+00 0. -1.
         21    1    1    2  504  502 -0.10030622458E+03  0.28669682523E+02  0.90108931357E+02  0.13785103879E+03  0.00000000000E+00 0.  1.
         21    1    1    2  505  504 -0.82787185428E+01  0.84972607954E+02 -0.39566873504E+03  0.40477478821E+03  0.00000000000E+00 0.  1.
          2    1    1    2  501    0  0.34938318831E+02 -0.88405186233E+02 -0.18401176874E+04  0.18425713735E+04  0.00000000000E+00 0. -1.
<scales pt_clust_3="77.85073" pt_clust_4="103.73322" pt_clust_5="80.65305" pt_clust_6="14000.00000"></scales>
<clustering>
<clus scale="   77.851">  2  3  1 -1</clus>
<clus scale="   80.653">  2  5  1 -1</clus>
<clus scale="  103.733">  1  4  2 -1</clus>
<clus scale="  103.733">  1  3  2 -1</clus>
</clustering>
</event>
<event>
 6    0  0.1230761E+002  0.1327350E+03  0.7546771E-02  0.1223453E+00
          2   -1    0    0  504    0 -0.00000000000E+00  0.00000000000E+00  0.25689188839E+04  0.25689188839E+04  0.00000000000E+00 0.  1.
         21   -1    0    0  501  502  0.00000000000E+00 -0.00000000000E+00 -0.14702799703E+03  0.14702799703E+03  0.00000000000E+00 0. -1.
         21    1    1    2  503  505  0.71527058090E+02 -0.60014764367E+02 -0.19743975879E+02  0.95434357359E+02  0.00000000000E+00 0. -1.
         21    1    1    2  504  503  0.34648650837E+02  0.63746760427E+02  0.12305353955E+04  0.12326725186E+04  0.00000000000E+00 0.  1.
         21    1    1    2  505  502  0.73438200458E+01 -0.53212376412E+02 -0.76953816641E+02  0.93847634983E+02  0.00000000000E+00 0. -1.
          2    1    1    2  501    0 -0.11351952897E+03  0.49480380352E+02  0.12880532839E+04  0.12939923700E+04  0.00000000000E+00 0.  1.
<scales pt_clust_3="132.73499" pt_clust_4="71.80695" pt_clust_5="53.71675" pt_clust_6="14000.00000"></scales>
<clustering>
<clus scale="   53.717">  2  5  1 -1</clus>
<clus scale="   71.807">  1  4  2 -1</clus>
<clus scale="  132.735">  2  3  1 -1</clus>
<clus scale="   53.717">  2  3  1 -1</clus>
</clustering>
</event>
<event>
 6    0  0.1230761E+002  0.1137187E+03  0.7546771E-02  0.1253834E+00
          2   -1    0    0  504    0 -0.00000000000E+00  0.00000000000E+00  0.46957863877E+02  0.46957863877E+02  0.00000000000E+00 0. -1.
         21   -1    0    0  503  502  0.00000000000E+00 -0.00000000000E+00 -0.62808834450E+03  0.62808834450E+03  0.00000000000E+00 0.  1.
         21    1    1    2  503  505 -0.27884867063E+02  0.39755390193E+02 -0.12134736840E+03  0.13070287173E+03  0.00000000000E+00 0.  1.
         21    1    1    2  504  502  0.28195652253E+02  0.19902916102E+02 -0.14345086521E+02  0.37375157292E+02  0.00000000000E+00 0.  1.
         21    1    1    2  505  501  0.52724694875E+02  0.74174316949E+02 -0.23496195975E+03  0.25196992930E+03  0.00000000000E+00 0.  1.
          2    1    1    2  501    0 -0.53035480064E+02 -0.13383262324E+03 -0.21047606595E+03  0.25499825005E+03  0.00000000000E+00 0. -1.
<scales pt_clust_3="48.78656" pt_clust_4="34.51262" pt_clust_5="14000.00000" pt_clust_6="113.71870"></scales>
<clustering>
<clus scale="   34.513">  1  4  2 -1</clus>
<clus scale="   48.787">  2  3  1 -1</clus>
<clus scale="  113.719">  1  6  2 -1</clus>
<clus scale="   48.787">  2  3  1 -1</clus>
</clustering>
</event>
<event>
 6    0  0.1230761E+002  0.6994999E+02  0.7546771E-02  0.1360263E+00
         21   -1    0    0  501  502  0.00000000000E+00  0.00000000000E+00  0.34698958641E+03  0.34698958641E+03  0.00000000000E+00 0.  1.
          1   -1    0    0  504    0 -0.00000000000E+00 -0.00000000000E+00 -0.60646085610E+03  0.60646085610E+03  0.00000000000E+00 0. -1.
         21    1    1    2  503  502 -0.60579360423E+02  0.18874450788E+01  0.17038481410E+03  0.18084359606E+03  0.00000000000E+00 0.  1.
         21    1    1    2  504  505  0.37928990781E+02 -0.13725494005E+02 -0.43406148140E+02  0.59254461635E+02  0.00000000000E+00 0.  1.
         21    1    1    2  505  503  0.94857372175E+02 -0.85900758522E+01  0.14672182355E+03  0.17492570985E+03  0.00000000000E+00 0.  1.
          1    1    1    2  501    0 -0.72207002533E+02  0.20428124778E+02 -0.53317175921E+03  0.53842667496E+03  0.00000000000E+00 0. -1.
<scales pt_clust_3="14000.00000" pt_clust_4="40.33606" pt_clust_5="69.94999" pt_clust_6="36.31579"></scales>
<clustering>
<clus scale="   40.336">  2  4  1 -1</clus>
<clus scale="   36.316">  2  6  1 -1</clus>
<clus scale="   69.950">  2  5  1 -1</clus>
<clus scale="   69.950">  1  3  2 -1</clus>
</clustering>
</event>
<event>
 6    0  0.1230761E+002  0.2869183E+03  0.7546771E-02  0.1091969E+00
         21   -1    0    0  503  502  0.00000000000E+00  0.00000000000E+00  0.22144607989E+03  0.22144607989E+03  0.00000000000E+00 0. -1.
          2   -1    0    0  505    0 -0.00000000000E+00 -0.00000000000E+00 -0.42733969149E+03  0.42733969149E+03  0.00000000000E+00 0. -1.
         21    1    1    2  503  501  0.60569395623E+01 -0.12705509622E+03 -0.43606392260E+02  0.13446635802E+03  0.00000000000E+00 0. -1.
         21    1    1    2  504  502 -0.64774925215E+01  0.12814795344E+03 -0.48892933752E+01  0.12840467698E+03  0.00000000000E+00 0. -1.
         21    1    1    2  505  504 -0.46279010057E+02  0.12544466713E+03  0.46394963243E+02  0.14152951599E+03  0.00000000000E+00 0. -1.
          2    1    1    2  501    0  0.46699563016E+02 -0.12653752434E+03 -0.20379288921E+03  0.24438522039E+03  0.00000000000E+00 0. -1.
<scales pt_clust_3="119.84331" pt_clust_4="62.33637" pt_clust_5="266.72410" pt_clust_6="119.84331"></scales>
<clustering>
<clus scale="   62.336">  4  5 -1 -1</clus>
<clus scale="  119.843">  3  6 -1 -1</clus>
<clus scale="  266.724">  1  4  2 -1</clus>
<clus scale="  266.724">  1  3  2 -1</clus>
</clustering>
</event>
<event>
 6    0  0.1230761E+002  0.5950035E+02  0.7546771E-02  0.1399941E+00
         21   -1    0    0  503  502  0.00000000000E+00  0.00000000000E+00  0.30317756057E+03  0.30317756057E+03  0.00000000000E+00 0. -1.
          2   -1    0    0  505    0 -0.00000000000E+00 -0.00000000000E+00 -0.16504044974E+04  0.16504044974E+04  0.00000000000E+00 0.  1.
         21    1    1    2  503  501  0.59532035593E+02  0.83027765518E+02  0.24847175670E+03  0.26865570343E+03  0.00000000000E+00 0. -1.
         21    1    1    2  504  502 -0.48351715219E+02 -0.25321031933E+02  0.23981004926E+02  0.59616538142E+02  0.00000000000E+00 0. -1.
         21    1    1    2  505  504 -0.18512615536E+02  0.26270265731E+02 -0.15986837729E+03  0.16306667916E+03  0.00000000000E+00 0.  1.
          2    1    1    2  501    0  0.73322951622E+01 -0.83976999317E+02 -0.14598113212E+04  0.14622431372E+04  0.00000000000E+00 0.  1.
<scales pt_clust_3="59.50035" pt_clust_4="54.63235" pt_clust_5="32.13789" pt_clust_6="14000.00000"></scales>
<clustering>
<clus scale="   32.138">  2  5  1 -1</clus>
<clus scale="   54.632">  1  4  2 -1</clus>
<clus scale="   59.500">  1  3  2 -1</clus>
<clus scale="   54.632">  1  3  2 -1</clus>
</clustering>
</event>
<event>
 6    0  0.1230761E+002  0.1161047E+03  0.7546771E-02  0.1249665E+00
          2   -1    0    0  503    0 -0.00000000000E+00  0.00000000000E+00  0.24369105362E+04  0.24369105362E+04  0.00000000000E+00 0.  1.
         21   -1    0    0  504  502  0.00000000000E+00 -0.00000000000E+00 -0.89460340670E+02  0.89460340670E+02  0.00000000000E+00 0. -1.
         21    1    1    2  503  502 -0.67575932015E+02  0.64211908470E+02 -0.38473079399E+02  0.10084569210E+03  0.00000000000E+00 0. -1.
         21    1    1    2  504  505 -0.22589495007E+02 -0.23514826157E+02  0.19998801111E+02  0.38251593166E+02  0.00000000000E+00 0.  1.
         21    1    1    2  505  501  0.54279218031E+02  0.70535450158E+02  0.20870759803E+03  0.22689280445E+03  0.00000000000E+00 0. -1.
          2    1    1    2  501    0  0.35886208991E+02 -0.11123253247E+03  0.21572168757E+04  0.21603807871E+04  0.00000000000E+00 0.  1.
<scales pt_clust_3="14000.00000" pt_clust_4="32.60724" pt_clust_5="85.33510" pt_clust_6="116.10472"></scales>
<clustering>
<clus scale="   32.607">  2  4  1 -1</clus>
<clus scale="   85.335">  2  5  1 -1</clus>
<clus scale="  116.105">  1  6  2 -1</clus>
<clus scale="   32.607">  2  3  1 -1</clus>
</clustering>
</event>
<event>
 6    0  0.1230761E+002  0.1400708E+03  0.7546771E-02  0.1213234E+00
          2   -1    0    0  503    0 -0.00000000000E+00  0.00000000000E+00  0.60823720988E+03  0.60823720988E+03  0.00000000000E+00 0.  1.
         21   -1    0    0  501  502  0.00000000000E+00 -0.00000000000E+00 -0.20142572652E+03  0.20142572652E+03  0.00000000000E+00 0.  1.
         21    1    1    2  503  505  0.71358262058E+00  0.47099105617E+02  0.35266289669E+03  0.35579481960E+03  0.00000000000E+00 0.  1.
         21    1    1    2  504  502 -0.42247323566E+02 -0.60725497884E+02 -0.52225442671E+02  0.90553405811E+02  0.00000000000E+00 0.  1.
         21    1    1    2  505  504  0.45665341811E+02 -0.10019393688E+03 -0.86025965303E+02  0.13973050897E+03  0.00000000000E+00 0.  1.
          2    1    1    2  501    0 -0.41316008650E+01  0.11382032915E+03  0.19239999465E+03  0.22358420203E+03  0.00000000000E+00 0.  1.
<scales pt_clust_3="47.10451" pt_clust_4="71.05585" pt_clust_5="140.07080" pt_clust_6="14000.00000"></scales>
<clustering>
<clus scale="   47.105">  1  3  2 -1</clus>
<clus scale="   71.056">  2  4  1 -1</clus>
<clus scale="  140.071">  2  5  1 -1</clus>
<clus scale="   71.056">  2  3  1 -1</clus>
</clustering>
</event>
<event>
 6    0  0.1230761E+002  0.2161944E+03  0.7546771E-02  0.1136753E+00
          2   -1    0    0  505    0 -0.00000000000E+00  0.00000000000E+00  0.31149151609E+04  0.31149151609E+04  0.00000000000E+00 0.  1.
         21   -1    0    0  503  502  0.00000000000E+00 -0.00000000000E+00 -0.61864831710E+03  0.61864831710E+03  0.00000000000E+00 0.  1.
         21    1    1    2  503  504  0.57069572560E+02  0.14783345160E+03 -0.35561115661E+03  0.38932115307E+03  0.00000000000E+00 0.  1.
         21    1    1    2  504  501  0.26529072626E+02  0.39126903398E+02 -0.23795022499E+03  0.24260052728E+03  0.00000000000E+00 0.  1.
         21    1    1    2  505  502 -0.28769884150E+02 -0.32561420245E+02  0.19096739015E+04  0.19101681503E+04  0.00000000000E+00 0.  1.
          2    1    1    2  501    0 -0.54828761035E+02 -0.15439893475E+03  0.11801543239E+04  0.11914736473E+04  0.00000000000E+00 0.  1.
<scales pt_clust_3="38.87865" pt_clust_4="38.87865" pt_clust_5="43.45057" pt_clust_6="204.13971"></scales>
<clustering>
<clus scale="   38.879">  3  4 -1 -1</clus>
<clus scale="   43.451">  1  5  2 -1</clus>
<clus scale="  204.140">  1  6  2 -1</clus>
<clus scale="  216.194">  2  3  1 -1</clus>
</clustering>
</event>
<event>
 6    0  0.1230761E+002  0.1139938E+03  0.7546771E-02  0.1253348E+00
         21   -1    0    0  503  502  0.00000000000E+00  0.00000000000E+00  0.45597490676E+03  0.45597490676E+03  0.00000000000E+00 0.  1.
          2   -1    0    0  504    0 -0.00000000000E+00 -0.00000000000E+00 -0.15624236382E+04  0.15624236382E+04  0.00000000000E+00 0. -1.
         21    1    1    2  503  501 -0.72200263725E+02 -0.15704608982E+02 -0.12701625037E+02  0.74972288906E+02  0.00000000000E+00 0.  1.
         21    1    1    2  504  505  0.40339436740E+02 -0.39125057953E+02 -0.13989037795E+03  0.15075595563E+03  0.00000000000E+00 0. -1.
         21    1    1    2  505  502 -0.33814260427E+02  0.64856696191E+02  0.41540635442E+03  0.42179643732E+03  0.00000000000E+00 0.  1.
          2    1    1    2  501    0  0.65675087412E+02 -0.10027029256E+02 -0.13692630829E+04  0.13708738631E+04  0.00000000000E+00 0. -1.
<scales pt_clust_3="72.94077" pt_clust_4="56.19644" pt_clust_5="14000.00000" pt_clust_6="113.99381"></scales>
<clustering>
<clus scale="   56.196">  2  4  1 -1</clus>
<clus scale="   72.941">  1  3  2 -1</clus>
<clus scale="  113.994">  2  6  1 -1</clus>
<clus scale="   72.941">  1  3  2 -1</clus>
</clustering>
</event>
<event>
 6    0  0.1230761E+002  0.1682278E+03  0.7546771E-02  0.1179709E+00
         21   -1    0    0  504  502  0.00000000000E+00  0.00000000000E+00  0.71446240350E+02  0.71446240350E+02  0.00000000000E+00 0. -1.
          2   -1    0    0  505    0 -0.00000000000E+00 -0.00000000000E+00 -0.92953801471E+03  0.92953801471E+03  0.00000000000E+00 0. -1.
         21    1    1    2  503  502  0.43980967744E+02 -0.65789088954E+01 -0.13174316289E+02  0.46380709090E+02  0.00000000000E+00 0. -1.
         21    1    1    2  504  501  0.88759778680E+02  0.10953831081E+03 -0.12062515062E+03  0.18554613121E+03  0.00000000000E+00 0. -1.
         21    1    1    2  505  503  0.44160409660E+02  0.10705751386E+02 -0.17762694789E+03  0.18334690483E+03  0.00000000000E+00 0. -1.
          2    1    1    2  501    0 -0.17690115608E+03 -0.11366515330E+03 -0.54666535956E+03  0.58571050993E+03  0.00000000000E+00 0. -1.
<scales pt_clust_3="44.47030" pt_clust_4="168.22776" pt_clust_5="47.59574" pt_clust_6="14000.00000"></scales>
<clustering>
<clus scale="   44.470">  1  3  2 -1</clus>
<clus scale="   47.596">  2  5  1 -1</clus>
<clus scale="  168.228">  1  4  2 -1</clus>
<clus scale="   44.470">  1  3  2 -1</clus>
</clustering>
</event>
<event>
 6    0  0.1230761E+002  0.9785170E+02  0.7546771E-02  0.1284879E+00
         21   -1    0    0  501  502  0.00000000000E+00  0.00000000000E+00  0.62728728274E+03  0.62728728274E+03  0.00000000000E+00 0. -1.
          2   -1    0    0  503    0 -0.00000000000E+00 -0.00000000000E+00 -0.16890343328E+04  0.16890343328E+04  0.00000000000E+00 0. -1.
         21    1    1    2  503  504  0.26565486800E+02  0.44238565190E+02 -0.22345098878E+03  0.22933189950E+03  0.00000000000E+00 0. -1.
         21    1    1    2  504  505  0.55758614411E+02  0.29972227902E+01  0.44503314564E+02  0.71404141566E+02  0.00000000000E+00 0.  1.
         21    1    1    2  505  502  0.42591690183E+02  0.20723094552E+02  0.56190574348E+03  0.56389853987E+03  0.00000000000E+00 0. -1.
          2    1    1    2  501    0 -0.12491579139E+03 -0.67958882532E+02 -0.14447051193E+04  0.14516870346E+04  0.00000000000E+00 0. -1.
<scales pt_clust_3="53.42789" pt_clust_4="14000.00000" pt_clust_5="47.36559" pt_clust_6="97.85170"></scales>
<clustering>
<clus scale="   47.366">  1  5  2 -1</clus>
<clus scale="   53.428">  2  3  1 -1</clus>
<clus scale="   97.852">  2  6  1 -1</clus>
<clus scale="   47.366">  1  3  2 -1</clus>
</clustering>
</event>
<event>
 6    0  0.1230761E+002  0.7634346E+02  0.7546771E-02  0.1339761E+00
         21   -1    0    0  504  502  0.00000000000E+00  0.00000000000E+00  0.34687521032E+03  0.34687521032E+03  0.00000000000E+00 0. -1.
          2   -1    0    0  503    0 -0.00000000000E+00 -0.00000000000E+00 -0.75086930198E+03  0.75086930198E+03  0.00000000000E+00 0.  1.
         21    1    1    2  503  505 -0.36152372734E+02 -0.47941957107E+02 -0.12826260725E+03  0.14162175583E+03  0.00000000000E+00 0.  1.
         21    1    1    2  504  501  0.40615234723E+02 -0.18273398250E+02  0.87976112262E+02  0.98606849173E+02  0.00000000000E+00 0. -1.
         21    1    1    2  505  502  0.56318182772E+01 -0.44202590937E+02  0.23980122545E+03  0.24390615850E+03  0.00000000000E+00 0. -1.
          2    1    1    2  501    0 -0.10094680266E+02  0.11041794629E+03 -0.60350882213E+03  0.61360974880E+03  0.00000000000E+00 0.  1.
<scales pt_clust_3="59.79632" pt_clust_4="44.53666" pt_clust_5="76.34346" pt_clust_6="14000.00000"></scales>
<clustering>
<clus scale="   44.537">  1  4  2 -1</clus>
<clus scale="   59.796">  2  3  1 -1</clus>
<clus scale="   76.343">  1  5  2 -1</clus>
<clus scale="   44.537">  1  3  2 -1</clus>
</clustering>
</event>
<event>
 6    0  0.1230761E+002  0.7652597E+02  0.7546771E-02  0.1339210E+00
          2   -1    0    0  505    0 -0.00000000000E+00  0.00000000000E+00  0.23157698112E+04  0.23157698112E+04  0.00000000000E+00 0.  1.
         21   -1    0    0  503  502  0.00000000000E+00 -0.00000000000E+00 -0.34580631992E+02  0.34580631992E+02  0.00000000000E+00 0. -1.
         21    1    1    2  503  501 -0.48089739718E+02  0.14084366109E+02  0.54741330708E+01  0.50407921677E+02  0.00000000000E+00 0. -1.
         21    1    1    2  504  502  0.11644515209E+03 -0.38322246887E+02  0.34006340695E+03  0.36148470064E+03  0.00000000000E+00 0. -1.
         21    1    1    2  505  504 -0.22213507066E+02 -0.20833167751E+02  0.30161070824E+03  0.30314432223E+03  0.00000000000E+00 0. -1.
          2    1    1    2  501    0 -0.46141905305E+02  0.45071048529E+02  0.16340409309E+04  0.16353134986E+04  0.00000000000E+00 0.  1.
<scales pt_clust_3="50.32570" pt_clust_4="76.52597" pt_clust_5="30.45424" pt_clust_6="14000.00000"></scales>
<clustering>
<clus scale="   30.454">  1  5  2 -1</clus>
<clus scale="   50.326">  2  3  1 -1</clus>
<clus scale="   76.526">  2  4  1 -1</clus>
<clus scale="   50.326">  2  3  1 -1</clus>
</clustering>
</event>
<event>
 6    0  0.1230761E+002  0.1055950E+03  0.7546771E-02  0.1268952E+00
          2   -1    0    0  503    0 -0.00000000000E+00  0.00000000000E+00  0.85897448559E+03  0.85897448559E+03  0.00000000000E+00 0.  1.
         21   -1    0    0  504  502  0.00000000000E+00 -0.00000000000E+00 -0.69238503607E+02  0.69238503607E+02  0.00000000000E+00 0.  1.
         21    1    1    2  503  502 -0.43598584755E+02 -0.22805096175E+02  0.17797666559E+03  0.18465265365E+03  0.00000000000E+00 0. -1.
         21    1    1    2  504  505 -0.32238774508E+02  0.33039058179E+02 -0.31167883726E+02  0.55698787447E+02  0.00000000000E+00 0.  1.
         21    1    1    2  505  501 -0.38925568963E+02  0.65810101340E+02  0.90196454147E+02  0.11824368777E+03  0.00000000000E+00 0. -1.
          2    1    1    2  501    0  0.11476292823E+03 -0.76044063345E+02  0.55273074597E+03  0.56961786033E+03  0.00000000000E+00 0.  1.
<scales pt_clust_3="51.23738" pt_clust_4="46.16187" pt_clust_5="14000.00000" pt_clust_6="105.59499"></scales>
<clustering>
<clus scale="   46.162">  2  4  1 -1</clus>
<clus scale="   51.237">  1  3  2 -1</clus>
<clus scale="  105.595">  1  6  2 -1</clus>
<clus scale="   46.162">  2  3  1 -1</clus>
</clustering>
</event>
<event>
 6    0  0.1230761E+002  0.1344629E+03  0.7546771E-02  0.1220980E+00
         21   -1    0    0  503  502  0.00000000000E+00  0.00000000000E+00  0.46512435736E+03  0.46512435736E+03  0.00000000000E+00 0. -1.
         -2   -1    0    0    0  501 -0.00000000000E+00 -0.00000000000E+00 -0.59302082591E+03  0.59302082591E+03  0.00000000000E+00 0. -1.
         21    1    1    2  503  501  0.39314010559E+02  0.50917982521E+01 -0.57901917716E+02  0.70172287343E+02  0.00000000000E+00 0. -1.
         21    1    1    2  504  502 -0.39141210325E+02  0.76807395550E+02  0.22871364736E+03  0.24442042232E+03  0.00000000000E+00 0. -1.
         21    1    1    2  505  504  0.77917938088E+02  0.55773114661E+02  0.19922368551E+03  0.22106994880E+03  0.00000000000E+00 0. -1.
         -2    1    1    2    0  505 -0.78090738323E+02 -0.13767230846E+03 -0.49793188370E+03  0.52248252481E+03  0.00000000000E+00 0. -1.
<scales pt_clust_3="39.64237" pt_clust_4="86.00976" pt_clust_5="134.46292" pt_clust_6="14000.00000"></scales>
<clustering>
<clus scale="   39.642">  2  3  1 -1</clus>
<clus scale="   86.010">  1  4  2 -1</clus>
<clus scale="  134.463">  1  5  2 -1</clus>
<clus scale="   86.010">  1  3  2 -1</clus>
</clustering>
</event>
<event>
 6    0  0.1230761E+002  0.1177665E+03  0.7546771E-02  0.1246828E+00
          2   -1    0    0  505    0 -0.00000000000E+00  0.00000000000E+00  0.20273158406E+04  0.20273158406E+04  0.00000000000E+00 0.  1.
         21   -1    0    0  501  502  0.00000000000E+00 -0.00000000000E+00 -0.13772659972E+03  0.13772659972E+03  0.00000000000E+00 0.  1.
         21    1    1    2  503  502 -0.58183572200E+02 -0.20647425417E+02 -0.46408309812E+02  0.77235843168E+02  0.00000000000E+00 0.  1.
         21    1    1    2  504  503 -0.35959096696E+02 -0.41208601581E+02 -0.58308443724E+02  0.79944231117E+02  0.00000000000E+00 0.  1.
         21    1    1    2  505  504 -0.43076055288E+02 -0.93877720290E+01  0.13238454966E+03  0.13953259760E+03  0.00000000000E+00 0. -1.
          2    1    1    2  501    0  0.13721872418E+03  0.71243799027E+02  0.18619214447E+04  0.18683297684E+04  0.00000000000E+00 0.  1.
<scales pt_clust_3="30.51252" pt_clust_4="30.51252" pt_clust_5="44.08715" pt_clust_6="113.21651"></scales>
<clustering>
<clus scale="   30.513">  3  4 -1 -1</clus>
<clus scale="   44.087">  1  5  2 -1</clus>
<clus scale="  113.217">  1  6  2 -1</clus>
<clus scale="  117.766">  2  3  1 -1</clus>
</clustering>
</event>
<event>
 6    0  0.1230761E+002  0.1029749E+03  0.7546771E-02  0.1274162E+00
         21   -1    0    0  504  502  0.00000000000E+00  0.00000000000E+00  0.30210881286E+03  0.30210881286E+03  0.00000000000E+00 0. -1.
          1   -1    0    0  503    0 -0.00000000000E+00 -0.00000000000E+00 -0.29007091484E+04  0.29007091484E+04  0.00000000000E+00 0. -1.
         21    1    1    2  503  502 -0.57983261145E+01 -0.71324238212E+02 -0.16347930534E+04  0.16363584861E+04  0.00000000000E+00 0. -1.
         21    1    1    2  504  505 -0.10264991000E+02 -0.94154784652E+02  0.16461307152E+03  0.18991565715E+03  0.00000000000E+00 0. -1.
         21    1    1    2  505  501 -0.37714738609E+02  0.12812957995E+03  0.86974361065E+02  0.15938673173E+03  0.00000000000E+00 0. -1.
          1    1    1    2  501    0  0.53778055724E+02  0.37349442911E+02 -0.12153947148E+04  0.12171570864E+04  0.00000000000E+00 0. -1.
<scales pt_clust_3="58.17111" pt_clust_4="102.97495" pt_clust_5="14000.00000" pt_clust_6="65.47565"></scales>
<clustering>
<clus scale="   65.476">  2  6  1 -1</clus>
<clus scale="   58.171">  2  3  1 -1</clus>
<clus scale="  102.975">  1  4  2 -1</clus>
<clus scale="  102.975">  1  3  2 -1</clus>
</clustering>
</event>
<event>
 6    0  0.1230761E+002  0.1007593E+03  0.7546771E-02  0.1278707E+00
          2   -1    0    0  504    0 -0.00000000000E+00  0.00000000000E+00  0.10328015865E+04  0.10328015865E+04  0.00000000000E+00 0. -1.
         21   -1    0    0  501  502  0.00000000000E+00 -0.00000000000E+00 -0.41898207712E+03  0.41898207712E+03  0.00000000000E+00 0. -1.
         21    1    1    2  503  505 -0.45131400152E+02 -0.27246987007E+02 -0.53233088327E+02  0.74919979134E+02  0.00000000000E+00 0. -1.
         21    1    1    2  504  503  0.10643941485E+03  0.10814157890E+03  0.23422375784E+03  0.27907833821E+03  0.00000000000E+00 0. -1.
         21    1    1    2  505  502 -0.30410748834E+02  0.96020637053E+01 -0.32871644709E+03  0.33025977027E+03  0.00000000000E+00 0. -1.
          2    1    1    2  501    0 -0.30897265865E+02 -0.90496655603E+02  0.76154528699E+03  0.76752557603E+03  0.00000000000E+00 0. -1.
<scales pt_clust_3="69.93792" pt_clust_4="100.75929" pt_clust_5="31.89065" pt_clust_6="14000.00000"></scales>
<clustering>
<clus scale="   31.891">  2  5  1 -1</clus>
<clus scale="   69.938">  2  3  1 -1</clus>
<clus scale="  100.759">  2  4  1 -1</clus>
<clus scale="   31.891">  2  3  1 -1</clus>
</clustering>
</event>
<event>
 6    0  0.1230761E+002  0.1590597E+03  0.7546771E-02  0.1189762E+00
         -2   -1    0    0    0  501 -0.00000000000E+00  0.00000000000E+00  0.20546912656E+04  0.20546912656E+04  0.00000000000E+00 0.  1.
         21   -1    0    0  505  502  0.00000000000E+00 -0.00000000000E+00 -0.87828631774E+02  0.87828631774E+02  0.00000000000E+00 0.  1.
         21    1    1    2  503  501  0.41512299923E+02  0.45247920609E+01  0.38198923894E+03  0.38426491311E+03  0.00000000000E+00 0.  1.
         21    1    1    2  504  503  0.12075877422E+03 -0.44577169498E+02 -0.12033566987E+02  0.12928500426E+03  0.00000000000E+00 0.  1.
         21    1    1    2  505  504  0.35651255715E+02  0.15806311506E+02  0.29419562281E+02  0.48850405958E+02  0.00000000000E+00 0.  1.
         -2    1    1    2    0  502 -0.19792232986E+03  0.24246065931E+02  0.15674873996E+04  0.15801195741E+04  0.00000000000E+00 0.  1.
<scales pt_clust_3="42.29973" pt_clust_4="14000.00000" pt_clust_5="38.99810" pt_clust_6="159.05970"></scales>
<clustering>
<clus scale="   38.998">  2  5  1 -1</clus>
<clus scale="   42.300">  1  3  2 -1</clus>
<clus scale="  159.060">  1  6  2 -1</clus>
<clus scale="   38.998">  2  3  1 -1</clus>
</clustering>
</event>
<event>
 6    0  0.1230761E+002  0.9116978E+02  0.7546771E-02  0.1300043E+00
         21   -1    0    0  505  502  0.00000000000E+00  0.00000000000E+00  0.27914176622E+02  0.27914176622E+02  0.00000000000E+00 0. -1.
          1   -1    0    0  504    0 -0.00000000000E+00 -0.00000000000E+00 -0.11725413143E+04  0.11725413143E+04  0.00000000000E+00 0. -1.
         21    1    1    2  503  502 -0.73272014053E+02 -0.60209012421E+02 -0.11277773761E+03  0.14735240521E+03  0.00000000000E+00 0. -1.
         21    1    1    2  504  503 -0.24441641059E+01  0.37002442490E+02 -0.63546087244E+03  0.63654196648E+03  0.00000000000E+00 0. -1.
         21    1    1    2  505  501  0.57218613995E+02  0.62239975495E+02 -0.24808899578E+03  0.26209909226E+03  0.00000000000E+00 0. -1.
          1    1    1    2  501    0  0.18497564164E+02 -0.39033405564E+02 -0.14829953180E+03  0.15446202692E+03  0.00000000000E+00 0. -1.
<scales pt_clust_3="91.16978" pt_clust_4="37.08308" pt_clust_5="14000.00000" pt_clust_6="33.68543"></scales>
<clustering>
<clus scale="   37.083">  2  4  1 -1</clus>
<clus scale="   33.685">  2  6  1 -1</clus>
<clus scale="   91.170">  1  3  2 -1</clus>
<clus scale="   91.170">  1  3  2 -1</clus>
</clustering>
</event>
<event>
 6    0  0.1230761E+002  0.1735832E+03  0.7546771E-02  0.1174162E+00
         21   -1    0    0  503  502  0.00000000000E+00  0.00000000000E+00  0.55434618564E+02  0.55434618564E+02  0.00000000000E+00 0.  1.
          2   -1    0    0  505    0 -0.00000000000E+00 -0.00000000000E+00 -0.75037113920E+03  0.75037113920E+03  0.00000000000E+00 0.  1.
         21    1    1    2  503  501 -0.19131769883E+02 -0.34556310160E+02 -0.47742170618E+02  0.61963521898E+02  0.00000000000E+00 0.  1.
         21    1    1    2  504  502  0.67657604440E+02  0.36831987167E+01 -0.10044771386E+03  0.12116460131E+03  0.00000000000E+00 0.  1.
         21    1    1    2  505  504  0.98980359238E+02 -0.44416610060E+02 -0.10529990908E+03  0.15118868217E+03  0.00000000000E+00 0.  1.
          2    1    1    2  501    0 -0.14750619380E+03  0.75289721503E+02 -0.44144672708E+03  0.47148895239E+03  0.00000000000E+00 0.  1.
<scales pt_clust_3="39.49890" pt_clust_4="38.85141" pt_clust_5="38.85141" pt_clust_6="166.47623"></scales>
<clustering>
<clus scale="   38.851">  4  5 -1 -1</clus>
<clus scale="   39.499">  1  3  2 -1</clus>
<clus scale="  166.476">  2  6  1 -1</clus>
<clus scale="   39.499">  1  3  2 -1</clus>
</clustering>
</event>
<event>
 6    0  0.1230761E+002  0.1153604E+03  0.7546771E-02  0.1250953E+00
         -1   -1    0    0    0  501 -0.00000000000E+00  0.00000000000E+00  0.36095240433E+02  0.36095240433E+02  0.00000000000E+00 0.  1.
         21   -1    0    0  504  502  0.00000000000E+00 -0.00000000000E+00 -0.16573517100E+04  0.16573517100E+04  0.00000000000E+00 0.  1.
         21    1    1    2  503  505 -0.38607974806E+02 -0.42311583204E+02 -0.47868711590E+03  0.48210185721E+03  0.00000000000E+00 0.  1.
         21    1    1    2  504  501 -0.31224230041E+02  0.52894416686E+02 -0.26140632236E+02  0.66754059891E+02  0.00000000000E+00 0.  1.
         21    1    1    2  505  502 -0.19961386036E+02 -0.50330386997E+02 -0.94860805083E+03  0.95015200831E+03  0.00000000000E+00 0. -1.
         -1    1    1    2    0  503  0.89793590883E+02  0.39747553515E+02 -0.16782067061E+03  0.19443902504E+03  0.00000000000E+00 0.  1.
<scales pt_clust_3="45.25672" pt_clust_4="61.42289" pt_clust_5="45.25672" pt_clust_6="105.55230"></scales>
<clustering>
<clus scale="   45.257">  3  5 -1 -1</clus>
<clus scale="   61.423">  1  4  2 -1</clus>
<clus scale="  105.552">  1  6  2 -1</clus>
<clus scale="  115.360">  2  3  1 -1</clus>
</clustering>
</event>
<event>
 6    0  0.1230761E+002  0.9118398E+02  0.7546771E-02  0.1300010E+00
         21   -1    0    0  503  502  0.00000000000E+00  0.00000000000E+00  0.24104202885E+03  0.24104202885E+03  0.00000000000E+00 0.  1.
         -3   -1    0    0    0  501 -0.00000000000E+00 -0.00000000000E+00 -0.93071286389E+03  0.93071286389E+03  0.00000000000E+00 0. -1.
         21    1    1    2  503  505 -0.60904987013E+02  0.17491727514E+02  0.12536933667E+03  0.14047365786E+03  0.00000000000E+00 0.  1.
         21    1    1    2  504  501  0.24973743524E+02 -0.61596041458E+02 -0.17239576381E+03  0.18476487645E+03  0.00000000000E+00 0. -1.
         21    1    1    2  505  504  0.81254090900E+02 -0.98674080944E+02  0.50449611371E+02  0.13741893911E+03  0.00000000000E+00 0. -1.
         -3    1    1    2    0  502 -0.45322847410E+02  0.14277839489E+03 -0.69309401927E+03  0.70909741932E+03  0.00000000000E+00 0. -1.
<scales pt_clust_3="63.36701" pt_clust_4="64.29333" pt_clust_5="91.18398" pt_clust_6="14000.00000"></scales>
<clustering>
<clus scale="   63.367">  1  3  2 -1</clus>
<clus scale="   64.293">  2  4  1 -1</clus>
<clus scale="   91.184">  1  5  2 -1</clus>
<clus scale="   63.367">  1  3  2 -1</clus>
</clustering>
</event>
<event>
 6    0  0.1230761E+002  0.1447494E+03  0.7546771E-02  0.1207077E+00
         21   -1    0    0  504  502  0.00000000000E+00  0.00000000000E+00  0.84798512528E+03  0.84798512528E+03  0.00000000000E+00 0.  1.
         -4   -1    0    0    0  501 -0.00000000000E+00 -0.00000000000E+00 -0.89392943116E+03  0.89392943116E+03  0.00000000000E+00 0.  1.
         21    1    1    2  503  502  0.21865000592E+02 -0.88173627624E+02  0.59834337239E+03  0.60520034546E+03  0.00000000000E+00 0.  1.
         21    1    1    2  504  505  0.61345462998E+02 -0.33147503122E+02  0.22954151001E+03  0.23989857776E+03  0.00000000000E+00 0.  1.
         21    1    1    2  505  501 -0.77931427553E+02 -0.22207554016E+01 -0.35350475302E+03  0.36199979221E+03  0.00000000000E+00 0. -1.
         -4    1    1    2    0  503 -0.52790360372E+01  0.12354188615E+03 -0.52032443527E+03  0.53481584101E+03  0.00000000000E+00 0.  1.
<scales pt_clust_3="144.74944" pt_clust_4="69.72821" pt_clust_5="77.54527" pt_clust_6="14000.00000"></scales>
<clustering>
<clus scale="   69.728">  1  4  2 -1</clus>
<clus scale="   77.545">  2  5  1 -1</clus>
<clus scale="  144.749">  1  3  2 -1</clus>
<clus scale="   69.728">  1  3  2 -1</clus>
</clustering>
</event>
<event>
 6    0  0.1230761E+002  0.8500927E+02  0.7546771E-02  0.1315408E+00
          2   -1    0    0  505    0 -0.00000000000E+00  0.00000000000E+00  0.86451890710E+03  0.86451890710E+03  0.00000000000E+00 0. -1.
         21   -1    0    0  503  502  0.00000000000E+00 -0.00000000000E+00 -0.14051233392E+03  0.14051233392E+03  0.00000000000E+00 0. -1.
         21    1    1    2  503  504 -0.29910777478E+02 -0.21789851247E+02 -0.84384224724E+02  0.92142007841E+02  0.00000000000E+00 0. -1.
         21    1    1    2  504  501  0.87094894481E+02 -0.45210550349E+02  0.14411404286E+02  0.99182675307E+02  0.00000000000E+00 0.  1.
         21    1    1    2  505  502  0.21143272740E+02  0.92237894215E+02  0.37797667660E+03  0.38964244528E+03  0.00000000000E+00 0.  1.
          2    1    1    2  501    0 -0.78327389744E+02 -0.25237492620E+02  0.41600271702E+03  0.42406411259E+03  0.00000000000E+00 0. -1.
<scales pt_clust_3="37.00611" pt_clust_4="14000.00000" pt_clust_5="84.50988" pt_clust_6="85.00927"></scales>
<clustering>
<clus scale="   37.006">  2  3  1 -1</clus>
<clus scale="   85.009">  1  6  2 -1</clus>
<clus scale="   84.510">  1  5  2 -1</clus>
<clus scale="   37.006">  2  3  1 -1</clus>
</clustering>
</event>
<event>
 6    0  0.1230761E+002  0.8996313E+02  0.7546771E-02  0.1302941E+00
         -1   -1    0    0    0  501 -0.00000000000E+00  0.00000000000E+00  0.75458220063E+03  0.75458220063E+03  0.00000000000E+00 0.  1.
         21   -1    0    0  505  502  0.00000000000E+00 -0.00000000000E+00 -0.43559969744E+03  0.43559969744E+03  0.00000000000E+00 0. -1.
         21    1    1    2  503  501 -0.47712459627E+02 -0.39446271493E+01  0.49134465976E+03  0.49367156447E+03  0.00000000000E+00 0.  1.
         21    1    1    2  504  502 -0.32044809736E+02  0.52049973395E+01 -0.52600223070E+02  0.61812177565E+02  0.00000000000E+00 0.  1.
         21    1    1    2  505  503 -0.24525897973E+02 -0.74360581094E+02 -0.35697467536E+03  0.36546126271E+03  0.00000000000E+00 0. -1.
         -1    1    1    2    0  504  0.10428316734E+03  0.73100210904E+02  0.23721274187E+03  0.26923689333E+03  0.00000000000E+00 0.  1.
<scales pt_clust_3="47.97212" pt_clust_4="32.46478" pt_clust_5="14000.00000" pt_clust_6="89.96313"></scales>
<clustering>
<clus scale="   32.465">  2  4  1 -1</clus>
<clus scale="   47.972">  1  3  2 -1</clus>
<clus scale="   89.963">  1  6  2 -1</clus>
<clus scale="   32.465">  2  3  1 -1</clus>
</clustering>
</event>
<event>
 6    0  0.1230761E+002  0.9729251E+02  0.7546771E-02  0.1286095E+00
         -4   -1    0    0    0  501 -0.00000000000E+00  0.00000000000E+00  0.60719344278E+02  0.60719344278E+02  0.00000000000E+00 0.  1.
         21   -1    0    0  505  502  0.00000000000E+00 -0.00000000000E+00 -0.15583682490E+04  0.15583682490E+04  0.00000000000E+00 0.  1.
         21    1    1    2  503  502 -0.31274941066E+02  0.27277818803E+02 -0.29817393040E+03  0.30104799304E+03  0.00000000000E+00 0.  1.
         21    1    1    2  504  503 -0.63645501468E+02 -0.10484092164E+02 -0.13269992495E+03  0.14754638636E+03  0.00000000000E+00 0.  1.
         21    1    1    2  505  501  0.13904774429E+03 -0.17631787608E+02 -0.11039352403E+04  0.11127974523E+04  0.00000000000E+00 0.  1.
         -4    1    1    2    0  504 -0.44127301755E+02  0.83806096860E+00  0.37160190960E+02  0.57695761531E+02  0.00000000000E+00 0.  1.
<scales pt_clust_3="41.49941" pt_clust_4="97.29251" pt_clust_5="14000.00000" pt_clust_6="44.39508"></scales>
<clustering>
<clus scale="   41.499">  2  3  1 -1</clus>
<clus scale="   44.395">  1  6  2 -1</clus>
<clus scale="   97.293">  1  4  2 -1</clus>
<clus scale="   41.499">  2  3  1 -1</clus>
</clustering>
</event>
<event>
 6    0  0.1230761E+002  0.1117471E+03  0.7546771E-02  0.1257368E+00
          2   -1    0    0  503    0 -0.00000000000E+00  0.00000000000E+00  0.28379737792E+03  0.28379737792E+03  0.00000000000E+00 0. -1.
         21   -1    0    0  505  502  0.00000000000E+00 -0.00000000000E+00 -0.14743629058E+04  0.14743629058E+04  0.00000000000E+00 0. -1.
         21    1    1    2  503  502 -0.62229877863E+00 -0.48895682290E+02 -0.12021026985E+04  0.12030968675E+04  0.00000000000E+00 0. -1.
         21    1    1    2  504  501 -0.41893866001E+01 -0.80243819168E+02 -0.43338316897E+01  0.80469892331E+02  0.00000000000E+00 0.  1.
         21    1    1    2  505  504 -0.32484677528E+02  0.10639578042E+02 -0.21217174548E+03  0.21490766500E+03  0.00000000000E+00 0. -1.
          2    1    1    2  501    0  0.37296362907E+02  0.11849992342E+03  0.22804274771E+03  0.25968585891E+03  0.00000000000E+00 0. -1.
<scales pt_clust_3="50.00357" pt_clust_4="111.74711" pt_clust_5="34.18267" pt_clust_6="14000.00000"></scales>
<clustering>
<clus scale="   34.183">  2  5  1 -1</clus>
<clus scale="   50.004">  2  3  1 -1</clus>
<clus scale="  111.747">  2  4  1 -1</clus>
<clus scale="   34.183">  2  3  1 -1</clus>
</clustering>
</event>
<event>
 6    0  0.1230761E+002  0.1147722E+03  0.7546771E-02  0.1251979E+00
          1   -1    0    0  505    0 -0.00000000000E+00  0.00000000000E+00  0.10155396391E+04  0.10155396391E+04  0.00000000000E+00 0.  1.
         21   -1    0    0  503  502  0.00000000000E+00 -0.00000000000E+00 -0.15350988000E+03  0.15350988000E+03  0.00000000000E+00 0.  1.
         21    1    1    2  503  501  0.11181513490E+03  0.58364290842E+01 -0.64983148911E+02  0.12945847959E+03  0.00000000000E+00 0.  1.
         21    1    1    2  504  502 -0.11435297329E+03 -0.62018173716E+02  0.22163571511E+02  0.13196241993E+03  0.00000000000E+00 0.  1.
         21    1    1    2  505  504  0.22558645363E+02  0.26159212415E+02  0.48738673056E+03  0.48860927335E+03  0.00000000000E+00 0.  1.
          1    1    1    2  501    0 -0.20020806970E+02  0.30022532217E+02  0.41746260593E+03  0.41901934622E+03  0.00000000000E+00 0.  1.
<scales pt_clust_3="14000.00000" pt_clust_4="114.77216" pt_clust_5="34.54268" pt_clust_6="50.80677"></scales>
<clustering>
<clus scale="   34.543">  1  5  2 -1</clus>
<clus scale="   50.807">  1  6  2 -1</clus>
<clus scale="  114.772">  1  4  2 -1</clus>
<clus scale="  114.772">  2  3  1 -1</clus>
</clustering>
</event>
<event>
 6    0  0.2797389E+002  0.1316723E+03  0.7546771E-02  0.1224995E+00
          2   -1    0    0  503    0 -0.00000000000E+00  0.00000000000E+00  0.31111017786E+04  0.31111017786E+04  0.00000000000E+00 0. -1.
         21   -1    0    0  504  502  0.00000000000E+00 -0.00000000000E+00 -0.21757790529E+04  0.21757790529E+04  0.00000000000E+00 0. -1.
         21    1    1    2  503  505 -0.11696133441E+02 -0.37002668230E+02  0.71105169546E+03  0.71210990066E+03  0.00000000000E+00 0. -1.
         21    1    1    2  504  501 -0.15082419277E+02  0.70413954141E+02 -0.42733005677E+01  0.72137822304E+02  0.00000000000E+00 0.  1.
         21    1    1    2  505  502  0.13361550289E+03 -0.12114332739E+02 -0.21336821367E+04  0.21378960031E+04  0.00000000000E+00 0. -1.
          2    1    1    2  501    0 -0.10683695018E+03 -0.21296953172E+02  0.23622264675E+04  0.23647371055E+04  0.00000000000E+00 0. -1.
<scales pt_clust_3="38.80718" pt_clust_4="71.53464" pt_clust_5="14000.00000" pt_clust_6="131.67232"></scales>
<clustering>
<clus scale="   38.807">  1  3  2 -1</clus>
<clus scale="   71.535">  2  4  1 -1</clus>
<clus scale="  131.672">  1  6  2 -1</clus>
<clus scale="   71.535">  2  3  1 -1</clus>
</clustering>
</event>
<event>
 6    0  0.1230761E+002  0.8778782E+02  0.7546771E-02  0.1308299E+00
         21   -1    0    0  505  502  0.00000000000E+00  0.00000000000E+00  0.24628755979E+02  0.24628755979E+02  0.00000000000E+00 0. -1.
          1   -1    0    0  504    0 -0.00000000000E+00 -0.00000000000E+00 -0.32593076643E+04  0.32593076643E+04  0.00000000000E+00 0. -1.
         21    1    1    2  503  502  0.78346997781E+02 -0.71353047806E+02 -0.17419089711E+03  0.20389207471E+03  0.00000000000E+00 0. -1.
         21    1    1    2  504  503  0.68286659758E+02  0.55522462067E+01 -0.13077498547E+04  0.13095432707E+04  0.00000000000E+00 0.  1.
         21    1    1    2  505  501 -0.80076574991E+02  0.32607546241E-01 -0.20723442996E+03  0.22216743210E+03  0.00000000000E+00 0. -1.
          1    1    1    2  501    0 -0.66557082548E+02  0.65768194053E+02 -0.15455037266E+04  0.15483336428E+04  0.00000000000E+00 0. -1.
<scales pt_clust_3="87.78782" pt_clust_4="68.51201" pt_clust_5="14000.00000" pt_clust_6="71.25917"></scales>
<clustering>
<clus scale="   68.512">  2  4  1 -1</clus>
<clus scale="   71.259">  2  6  1 -1</clus>
<clus scale="   87.788">  1  3  2 -1</clus>
<clus scale="   87.788">  1  3  2 -1</clus>
</clustering>
</event>
<event>
 6    0  0.1230761E+002  0.4498034E+03  0.7546771E-02  0.1027781E+00
          2   -1    0    0  504    0 -0.00000000000E+00  0.00000000000E+00  0.93127231616E+03  0.93127231616E+03  0.00000000000E+00 0.  1.
         21   -1    0    0  503  502  0.00000000000E+00 -0.00000000000E+00 -0.74177488209E+03  0.74177488209E+03  0.00000000000E+00 0.  1.
         21    1    1    2  503  501  0.25869524749E+02 -0.25810647688E+02 -0.95863683407E+02  0.10259272704E+03  0.00000000000E+00 0.  1.
         21    1    1    2  504  505  0.83450590707E+02 -0.15539432469E+03  0.19786259223E+03  0.26506792080E+03  0.00000000000E+00 0.  1.
         21    1    1    2  505  502  0.33616017224E+03  0.30032807021E+03 -0.42250018276E+03  0.61782442133E+03  0.00000000000E+00 0.  1.
          2    1    1    2  501    0 -0.44548028770E+03 -0.11912309784E+03  0.50999870801E+03  0.68756212908E+03  0.00000000000E+00 0.  1.
<scales pt_clust_3="36.54342" pt_clust_4="178.21433" pt_clust_5="449.80341" pt_clust_6="14000.00000"></scales>
<clustering>
<clus scale="   36.543">  2  3  1 -1</clus>
<clus scale="  178.214">  1  4  2 -1</clus>
<clus scale="  449.803">  2  5  1 -1</clus>
<clus scale="   36.543">  2  3  1 -1</clus>
</clustering>
</event>
<event>
 6    0  0.1230761E+002  0.1827375E+03  0.7546771E-02  0.1165180E+00
          2   -1    0    0  503    0 -0.00000000000E+00  0.00000000000E+00  0.77830575210E+03  0.77830575210E+03  0.00000000000E+00 0. -1.
         21   -1    0    0  504  502  0.00000000000E+00 -0.00000000000E+00 -0.43122844357E+03  0.43122844357E+03  0.00000000000E+00 0.  1.
         21    1    1    2  503  502 -0.63811246520E+02  0.60414631948E+02  0.22507428557E+03  0.24162002599E+03  0.00000000000E+00 0.  1.
         21    1    1    2  504  505  0.57594364362E+02 -0.22790026589E+02 -0.19623368056E+03  0.20577695085E+03  0.00000000000E+00 0.  1.
         21    1    1    2  505  501  0.11344393053E+03 -0.29315411122E+02 -0.20057726795E+03  0.23229326103E+03  0.00000000000E+00 0.  1.
          2    1    1    2  501    0 -0.10722704837E+03 -0.83091942378E+01  0.51881397147E+03  0.52984395779E+03  0.00000000000E+00 0. -1.
<scales pt_clust_3="87.87379" pt_clust_4="36.18945" pt_clust_5="36.18945" pt_clust_6="175.82801"></scales>
<clustering>
<clus scale="   36.189">  4  5 -1 -1</clus>
<clus scale="   87.874">  1  3  2 -1</clus>
<clus scale="  175.828">  1  6  2 -1</clus>
<clus scale="  182.738">  2  3  1 -1</clus>
</clustering>
</event>
<event>
 6    0  0.1230761E+002  0.1084027E+03  0.7546771E-02  0.1263557E+00
          1   -1    0    0  503    0 -0.00000000000E+00  0.00000000000E+00  0.23009298149E+04  0.23009298149E+04  0.00000000000E+00 0.  1.
         21   -1    0    0  504  502  0.00000000000E+00 -0.00000000000E+00 -0.32058030350E+03  0.32058030350E+03  0.00000000000E+00 0.  1.
         21    1    1    2  503  505 -0.26429619507E+02  0.92315715954E+02  0.11838582250E+03  0.15243332696E+03  0.00000000000E+00 0. -1.
         21    1    1    2  504  501 -0.12378789656E+02  0.40905332724E+02 -0.39964463032E+02  0.58511870454E+02  0.00000000000E+00 0.  1.
         21    1    1    2  505  502 -0.46950249225E+02 -0.13638208536E+03 -0.23293562452E+03  0.27397701415E+03  0.00000000000E+00 0.  1.
          1    1    1    2  501    0  0.85758658388E+02  0.31610366861E+01  0.21348637764E+04  0.21365879068E+04  0.00000000000E+00 0.  1.
<scales pt_clust_3="14000.00000" pt_clust_4="42.73735" pt_clust_5="108.40266" pt_clust_6="85.78248"></scales>
<clustering>
<clus scale="   42.737">  2  4  1 -1</clus>
<clus scale="   85.782">  1  6  2 -1</clus>
<clus scale="  108.403">  2  5  1 -1</clus>
<clus scale="   42.737">  2  3  1 -1</clus>
</clustering>
</event>
<event>
 6    0  0.1230761E+002  0.1051791E+03  0.7546771E-02  0.1269767E+00
          3   -1    0    0  503    0 -0.00000000000E+00  0.00000000000E+00  0.35439932016E+02  0.35439932016E+02  0.00000000000E+00 0.  1.
         21   -1    0    0  501  502  0.00000000000E+00 -0.00000000000E+00 -0.80822361096E+03  0.80822361096E+03  0.00000000000E+00 0. -1.
         21    1    1    2  503  504 -0.30497520142E+02  0.79264580030E+00 -0.44406153683E+01  0.30829305653E+02  0.00000000000E+00 0. -1.
         21    1    1    2  504  505  0.36573044597E+02  0.32934863960E+02 -0.11010679994E+03  0.12060597103E+03  0.00000000000E+00 0.  1.
         21    1    1    2  505  502  0.10119893040E+03 -0.30084326792E+02 -0.28775123872E+03  0.30650785572E+03  0.00000000000E+00 0. -1.
          3    1    1    2  501    0 -0.10727445485E+03 -0.36431829687E+01 -0.37048502492E+03  0.38572041058E+03  0.00000000000E+00 0.  1.
<scales pt_clust_3="30.50782" pt_clust_4="44.27210" pt_clust_5="14000.00000" pt_clust_6="105.17906"></scales>
<clustering>
<clus scale="   30.508">  1  3  2 -1</clus>
<clus scale="   44.272">  1  4  2 -1</clus>
<clus scale="  105.179">  2  6  1 -1</clus>
<clus scale="  105.179">  2  3  1 -1</clus>
</clustering>
</event>
<event>
 6    0  0.1230761E+002  0.1098779E+03  0.7546771E-02  0.1260796E+00
         21   -1    0    0  504  502  0.00000000000E+00  0.00000000000E+00  0.90628159836E+02  0.90628159836E+02  0.00000000000E+00 0. -1.
          1   -1    0    0  503    0 -0.00000000000E+00 -0.00000000000E+00 -0.73987309394E+03  0.73987309394E+03  0.00000000000E+00 0.  1.
         21    1    1    2  503  502 -0.19312544994E+02  0.28958187297E+02  0.14335123082E+02  0.37643681534E+02  0.00000000000E+00 0. -1.
         21    1    1    2  504  505 -0.11248061744E+03  0.58748972830E+01 -0.11496851683E+02  0.11321917381E+03  0.00000000000E+00 0. -1.
         21    1    1    2  505  501  0.84183134324E+02  0.23034677191E+01 -0.13549709683E+03  0.15953547981E+03  0.00000000000E+00 0. -1.
          1    1    1    2  501    0  0.47610028113E+02 -0.37136552299E+02 -0.51658610867E+03  0.52010291862E+03  0.00000000000E+00 0.  1.
<scales pt_clust_3="34.80734" pt_clust_4="14000.00000" pt_clust_5="109.87785" pt_clust_6="59.48276"></scales>
<clustering>
<clus scale="   34.807">  1  3  2 -1</clus>
<clus scale="   59.483">  2  6  1 -1</clus>
<clus scale="  109.878">  2  5  1 -1</clus>
<clus scale="   34.807">  1  3  2 -1</clus>
</clustering>
</event>
<event>
 6    0  0.1230761E+002  0.2113330E+03  0.7546771E-02  0.1140515E+00
         21   -1    0    0  503  502  0.00000000000E+00  0.00000000000E+00  0.21182392698E+03  0.21182392698E+03  0.00000000000E+00 0. -1.
          1   -1    0    0  504    0 -0.00000000000E+00 -0.00000000000E+00 -0.19802616461E+04  0.19802616461E+04  0.00000000000E+00 0. -1.
         21    1    1    2  503  505  0.65451963992E+01  0.45852396209E+02  0.63402601364E+02  0.78518607309E+02  0.00000000000E+00 0. -1.
         21    1    1    2  504  502  0.78952225509E+02 -0.93668915490E+02 -0.36657476156E+03  0.38650274961E+03  0.00000000000E+00 0. -1.
         21    1    1    2  505  501  0.10615600839E+03  0.11694799162E+03  0.73967926521E+02  0.17440523219E+03  0.00000000000E+00 0. -1.
          1    1    1    2  501    0 -0.19165343030E+03 -0.69131472336E+02 -0.15392334854E+04  0.15526589840E+04  0.00000000000E+00 0. -1.
<scales pt_clust_3="41.57541" pt_clust_4="122.50437" pt_clust_5="41.57541" pt_clust_6="196.89432"></scales>
<clustering>
<clus scale="   41.575">  3  5 -1 -1</clus>
<clus scale="  122.504">  2  4  1 -1</clus>
<clus scale="  196.894">  2  6  1 -1</clus>
<clus scale="  211.333">  1  3  2 -1</clus>
</clustering>
</event>
<event>
 6    0  0.1896697E+002  0.1006037E+03  0.7546771E-02  0.1279032E+00
         -2   -1    0    0    0  501 -0.00000000000E+00  0.00000000000E+00  0.15259428767E+04  0.15259428767E+04  0.00000000000E+00 0.  1.
         21   -1    0    0  504  502  0.00000000000E+00 -0.00000000000E+00 -0.39266780571E+03  0.39266780571E+03  0.00000000000E+00 0. -1.
         21    1    1    2  503  502 -0.31112646134E+02 -0.27961771195E+02  0.20897862732E+02  0.46760860392E+02  0.00000000000E+00 0.  1.
         21    1    1    2  504  505  0.39518226116E+02 -0.74211228401E+02 -0.36524517553E+03  0.37479732505E+03  0.00000000000E+00 0. -1.
         21    1    1    2  505  501  0.52163986145E+02  0.48706171638E+02  0.14139946632E+03  0.15838933576E+03  0.00000000000E+00 0.  1.
         -2    1    1    2    0  503 -0.60569566126E+02  0.53466827958E+02  0.13362229175E+04  0.13386631612E+04  0.00000000000E+00 0.  1.
<scales pt_clust_3="41.83130" pt_clust_4="14000.00000" pt_clust_5="70.43225" pt_clust_6="100.60366"></scales>
<clustering>
<clus scale="   41.831">  2  3  1 -1</clus>
<clus scale="   70.432">  1  5  2 -1</clus>
<clus scale="  100.604">  1  6  2 -1</clus>
<clus scale="   41.831">  2  3  1 -1</clus>
</clustering>
</event>
<event>
 6    0  0.1230761E+002  0.1017179E+03  0.7546771E-02  0.1276724E+00
         -2   -1    0    0    0  501 -0.00000000000E+00  0.00000000000E+00  0.38186645933E+03  0.38186645933E+03  0.00000000000E+00 0. -1.
         21   -1    0    0  503  502  0.00000000000E+00 -0.00000000000E+00 -0.72354801573E+03  0.72354801573E+03  0.00000000000E+00 0. -1.
         21    1    1    2  503  504  0.85290355918E+02 -0.30072167080E+02 -0.10877799625E+03  0.14146177050E+03  0.00000000000E+00 0. -1.
         21    1    1    2  504  501  0.40916920774E+02 -0.15764238909E+02  0.33697175917E+02  0.55301042475E+02  0.00000000000E+00 0. -1.
         21    1    1    2  505  502  0.15330641884E+02  0.51849801485E+02 -0.57065693521E+03  0.57321267275E+03  0.00000000000E+00 0. -1.
         -2    1    1    2    0  505 -0.14153791858E+03 -0.60133954966E+01  0.30405619915E+03  0.33543898933E+03  0.00000000000E+00 0. -1.
<scales pt_clust_3="14000.00000" pt_clust_4="43.84867" pt_clust_5="54.05569" pt_clust_6="101.71787"></scales>
<clustering>
<clus scale="   43.849">  1  4  2 -1</clus>
<clus scale="   54.056">  2  5  1 -1</clus>
<clus scale="  101.718">  1  6  2 -1</clus>
<clus scale="   54.056">  2  3  1 -1</clus>
</clustering>
</event>
<event>
 6    0  0.1230761E+002  0.1426680E+03  0.7546771E-02  0.1209783E+00
         21   -1    0    0  504  502  0.00000000000E+00  0.00000000000E+00  0.11822354771E+03  0.11822354771E+03  0.00000000000E+00 0. -1.
          2   -1    0    0  505    0 -0.00000000000E+00 -0.00000000000E+00 -0.15578667618E+04  0.15578667618E+04  0.00000000000E+00 0. -1.
         21    1    1    2  503  502  0.52901512992E+02  0.21357128798E+02 -0.55317698664E+02  0.79465368638E+02  0.00000000000E+00 0.  1.
         21    1    1    2  504  501  0.74522013938E+02  0.46909935668E+02  0.75531604079E+02  0.11601334337E+03  0.00000000000E+00 0. -1.
         21    1    1    2  505  503  0.24681021774E+02  0.39663157795E+02 -0.13871962720E+03  0.14637436214E+03  0.00000000000E+00 0. -1.
          2    1    1    2  501    0 -0.15210454870E+03 -0.10793022226E+03 -0.13211374923E+04  0.13342372353E+04  0.00000000000E+00 0. -1.
<scales pt_clust_3="58.86132" pt_clust_4="142.66803" pt_clust_5="46.71530" pt_clust_6="14000.00000"></scales>
<clustering>
<clus scale="   46.715">  2  5  1 -1</clus>
<clus scale="   58.861">  1  3  2 -1</clus>
<clus scale="  142.668">  1  4  2 -1</clus>
<clus scale="   58.861">  1  3  2 -1</clus>
</clustering>
</event>
<event>
 6    0  0.1230761E+002  0.8705731E+02  0.7546771E-02  0.1310138E+00
          1   -1    0    0  504    0 -0.00000000000E+00  0.00000000000E+00  0.37796113945E+03  0.37796113945E+03  0.00000000000E+00 0. -1.
         21   -1    0    0  503  502  0.00000000000E+00 -0.00000000000E+00 -0.20057253559E+03  0.20057253559E+03  0.00000000000E+00 0.  1.
         21    1    1    2  503  501  0.71285928051E+02 -0.83170229298E+02  0.56523780765E+01  0.10968555036E+03  0.00000000000E+00 0.  1.
         21    1    1    2  504  505  0.36537452947E+02  0.10204105304E+03  0.81787126059E+02  0.13578105893E+03  0.00000000000E+00 0.  1.
         21    1    1    2  505  502 -0.80506132909E+02  0.25476151446E+02 -0.10301303035E+03  0.13319893449E+03  0.00000000000E+00 0.  1.
          1    1    1    2  501    0 -0.27317248088E+02 -0.44346975192E+02  0.19296213007E+03  0.19986813126E+03  0.00000000000E+00 0. -1.
<scales pt_clust_3="87.05731" pt_clust_4="78.11648" pt_clust_5="14000.00000" pt_clust_6="52.08537"></scales>
<clustering>
<clus scale="   52.085">  1  6  2 -1</clus>
<clus scale="   78.116">  1  4  2 -1</clus>
<clus scale="   87.057">  1  3  2 -1</clus>
<clus scale="   87.057">  2  3  1 -1</clus>
</clustering>
</event>
<event>
 6    0  0.1230761E+002  0.4456551E+03  0.7546771E-02  0.1029026E+00
         21   -1    0    0  503  502  0.00000000000E+00  0.00000000000E+00  0.21575004814E+04  0.21575004814E+04  0.00000000000E+00 0.  1.
          3   -1    0    0  505    0 -0.00000000000E+00 -0.00000000000E+00 -0.32383172403E+03  0.32383172403E+03  0.00000000000E+00 0. -1.
         21    1    1    2  503  504  0.17913706598E+03  0.61376592935E+02  0.61249326297E+03  0.64109685052E+03  0.00000000000E+00 0.  1.
         21    1    1    2  504  501  0.22449610346E+03 -0.95543504962E+02  0.13201557382E+04  0.13425119123E+04  0.00000000000E+00 0.  1.
         21    1    1    2  505  502 -0.62565304480E+01  0.86704512962E+02 -0.16020415053E+02  0.88393837114E+02  0.00000000000E+00 0. -1.
          3    1    1    2  501    0 -0.39737663899E+03 -0.52537600935E+02 -0.82959828687E+02  0.40932960546E+03  0.00000000000E+00 0. -1.
<scales pt_clust_3="167.03943" pt_clust_4="167.03943" pt_clust_5="86.92995" pt_clust_6="403.88618"></scales>
<clustering>
<clus scale="   86.930">  2  5  1 -1</clus>
<clus scale="  167.039">  3  4 -1 -1</clus>
<clus scale="  403.886">  2  6  1 -1</clus>
<clus scale="  445.655">  1  3  2 -1</clus>
</clustering>
</event>
<event>
 6    0  0.1230761E+002  0.1282744E+03  0.7546771E-02  0.1230039E+00
          1   -1    0    0  505    0 -0.00000000000E+00  0.00000000000E+00  0.30437302813E+04  0.30437302813E+04  0.00000000000E+00 0.  1.
         21   -1    0    0  503  502  0.00000000000E+00 -0.00000000000E+00 -0.18265526529E+03  0.18265526529E+03  0.00000000000E+00 0. -1.
         21    1    1    2  503  501  0.79096429395E+02 -0.11268202787E+02  0.36730117741E+03  0.37589010690E+03  0.00000000000E+00 0. -1.
         21    1    1    2  504  502 -0.55604162541E+02 -0.37328646559E+01 -0.84794278063E+02  0.10146835350E+03  0.00000000000E+00 0. -1.
         21    1    1    2  505  504 -0.43286911371E+02 -0.59288336342E+02 -0.68760317512E+02  0.10058252724E+03  0.00000000000E+00 0. -1.
          1    1    1    2  501    0  0.19794644517E+02  0.74289403784E+02  0.26473284341E+04  0.26484445589E+04  0.00000000000E+00 0.  1.
<scales pt_clust_3="113.84150" pt_clust_4="51.50574" pt_clust_5="51.50574" pt_clust_6="76.88136"></scales>
<clustering>
<clus scale="   51.506">  4  5 -1 -1</clus>
<clus scale="   76.881">  1  6  2 -1</clus>
<clus scale="  113.842">  1  3  2 -1</clus>
<clus scale="  128.274">  2  3  1 -1</clus>
</clustering>
</event>
<event>
 6    0  0.1230761E+002  0.2274958E+03  0.7546771E-02  0.1128415E+00
          2   -1    0    0  503    0 -0.00000000000E+00  0.00000000000E+00  0.25969148506E+04  0.25969148506E+04  0.00000000000E+00 0.  1.
         21   -1    0    0  505  502  0.00000000000E+00 -0.00000000000E+00 -0.95502594507E+03  0.95502594507E+03  0.00000000000E+00 0. -1.
         21    1    1    2  503  504  0.14428046217E+02 -0.31857449939E+02  0.11968741712E+04  0.11973850038E+04  0.00000000000E+00 0.  1.
         21    1    1    2  504  502  0.10194491377E+03 -0.40095668758E+02 -0.74940192669E+02  0.13272701524E+03  0.00000000000E+00 0.  1.
         21    1    1    2  505  501  0.11570302796E+03  0.10932600559E+03 -0.83327032593E+03  0.84833884873E+03  0.00000000000E+00 0. -1.
          2    1    1    2  501    0 -0.23207598795E+03 -0.37372886898E+02  0.13532252529E+04  0.13734899278E+04  0.00000000000E+00 0.  1.
<scales pt_clust_3="34.97236" pt_clust_4="110.06545" pt_clust_5="227.49584" pt_clust_6="14000.00000"></scales>
<clustering>
<clus scale="   34.972">  1  3  2 -1</clus>
<clus scale="  110.065">  2  4  1 -1</clus>
<clus scale="  227.496">  2  5  1 -1</clus>
<clus scale="  110.065">  2  3  1 -1</clus>
</clustering>
</event>
<event>
 6    0  0.1230761E+002  0.1487615E+03  0.7546771E-02  0.1202003E+00
         21   -1    0    0  504  502  0.00000000000E+00  0.00000000000E+00  0.39388027626E+03  0.39388027626E+03  0.00000000000E+00 0.  1.
          1   -1    0    0  505    0 -0.00000000000E+00 -0.00000000000E+00 -0.14611993726E+04  0.14611993726E+04  0.00000000000E+00 0. -1.
         21    1    1    2  503  502 -0.87883381855E+02 -0.68783104760E+02  0.31453296132E+02  0.11594789409E+03  0.00000000000E+00 0.  1.
         21    1    1    2  504  501 -0.57284037024E+02  0.11197940185E+03  0.29821569947E+03  0.32365637758E+03  0.00000000000E+00 0.  1.
         21    1    1    2  505  503  0.62706205412E+01 -0.41724071246E+02 -0.73747847228E+02  0.84964485369E+02  0.00000000000E+00 0. -1.
          1    1    1    2  501    0  0.13889679834E+03 -0.14722258484E+01 -0.13232402448E+04  0.13305108919E+04  0.00000000000E+00 0. -1.
<scales pt_clust_3="112.24106" pt_clust_4="148.76149" pt_clust_5="42.19264" pt_clust_6="14000.00000"></scales>
<clustering>
<clus scale="   42.193">  2  5  1 -1</clus>
<clus scale="  112.241">  1  3  2 -1</clus>
<clus scale="  148.761">  1  4  2 -1</clus>
<clus scale="  112.241">  1  3  2 -1</clus>
</clustering>
</event>
<event>
 6    0  0.1230761E+002  0.1251502E+03  0.7546771E-02  0.1234835E+00
         21   -1    0    0  505  502  0.00000000000E+00  0.00000000000E+00  0.79798307058E+03  0.79798307058E+03  0.00000000000E+00 0. -1.
          1   -1    0    0  503    0 -0.00000000000E+00 -0.00000000000E+00 -0.26897462826E+03  0.26897462826E+03  0.00000000000E+00 0. -1.
         21    1    1    2  503  504  0.26484332135E+02 -0.22679285484E+02 -0.86011246718E+02  0.92810044719E+02  0.00000000000E+00 0.  1.
         21    1    1    2  504  502 -0.90305773282E+02  0.24315665006E+02  0.13885338197E+03  0.16741160634E+03  0.00000000000E+00 0. -1.
         21    1    1    2  505  501  0.11948758401E+03 -0.85336146088E+02  0.61670776306E+03  0.63394637437E+03  0.00000000000E+00 0. -1.
          1    1    1    2  501    0 -0.55666142860E+02  0.83699766567E+02 -0.14054145599E+03  0.17278967341E+03  0.00000000000E+00 0. -1.
<scales pt_clust_3="34.86789" pt_clust_4="125.15025" pt_clust_5="14000.00000" pt_clust_6="71.72809"></scales>
<clustering>
<clus scale="   34.868">  2  3  1 -1</clus>
<clus scale="   71.728">  2  6  1 -1</clus>
<clus scale="  125.150">  2  4  1 -1</clus>
<clus scale="  125.150">  1  3  2 -1</clus>
</clustering>
</event>
<event>
 6    0  0.1230761E+002  0.9316869E+02  0.7546771E-02  0.1295355E+00
          2   -1    0    0  505    0 -0.00000000000E+00  0.00000000000E+00  0.67866888614E+03  0.67866888614E+03  0.00000000000E+00 0.  1.
         21   -1    0    0  503  502  0.00000000000E+00 -0.00000000000E+00 -0.18954582706E+03  0.18954582706E+03  0.00000000000E+00 0.  1.
         21    1    1    2  503  501  0.86077411457E+02 -0.37070268380E+02 -0.15404106304E+03  0.18031132705E+03  0.00000000000E+00 0.  1.
         21    1    1    2  504  502 -0.13780091833E+02  0.60521569935E+02  0.63160103475E+02  0.88554785468E+02  0.00000000000E+00 0.  1.
         21    1    1    2  505  504  0.28344440322E+02  0.26023165578E+02  0.12946818152E+03  0.13506525264E+03  0.00000000000E+00 0. -1.
          2    1    1    2  501    0 -0.10064175995E+03 -0.49474467133E+02  0.45053583712E+03  0.46428334805E+03  0.00000000000E+00 0.  1.
<scales pt_clust_3="14000.00000" pt_clust_4="64.88562" pt_clust_5="38.47873" pt_clust_6="93.16869"></scales>
<clustering>
<clus scale="   38.479">  1  5  2 -1</clus>
<clus scale="   64.886">  1  4  2 -1</clus>
<clus scale="   93.169">  1  6  2 -1</clus>
<clus scale="   93.169">  2  3  1 -1</clus>
</clustering>
</event>
<event>
 6    0  0.1230761E+002  0.1223269E+03  0.7546771E-02  0.1239307E+00
          1   -1    0    0  504    0 -0.00000000000E+00  0.00000000000E+00  0.48142947310E+03  0.48142947310E+03  0.00000000000E+00 0. -1.
         21   -1    0    0  503  502  0.00000000000E+00 -0.00000000000E+00 -0.88963217539E+03  0.88963217539E+03  0.00000000000E+00 0. -1.
         21    1    1    2  503  505  0.19564089420E+02  0.34460377512E+02 -0.21357248418E+03  0.21721758035E+03  0.00000000000E+00 0.  1.
         21    1    1    2  504  502 -0.21141272938E+02 -0.57863832439E+02  0.49374285476E+02  0.78949329270E+02  0.00000000000E+00 0. -1.
         21    1    1    2  505  501  0.76377228322E+02  0.27129678167E+02 -0.65355049007E+03  0.65855731984E+03  0.00000000000E+00 0. -1.
          1    1    1    2  501    0 -0.74800044804E+02 -0.37262232408E+01  0.40954598648E+03  0.41633741903E+03  0.00000000000E+00 0. -1.
<scales pt_clust_3="31.89946" pt_clust_4="61.60500" pt_clust_5="31.89946" pt_clust_6="113.50122"></scales>
<clustering>
<clus scale="   31.899">  3  5 -1 -1</clus>
<clus scale="   61.605">  1  4  2 -1</clus>
<clus scale="  113.501">  1  6  2 -1</clus>
<clus scale="  122.327">  2  3  1 -1</clus>
</clustering>
</event>
<event>
 6    0  0.1230761E+002  0.9334963E+02  0.7546771E-02  0.1294937E+00
          2   -1    0    0  503    0 -0.00000000000E+00  0.00000000000E+00  0.77312227747E+03  0.77312227747E+03  0.00000000000E+00 0. -1.
         21   -1    0    0  504  502  0.00000000000E+00 -0.00000000000E+00 -0.64487805131E+03  0.64487805131E+03  0.00000000000E+00 0.  1.
         21    1    1    2  503  505 -0.24042899075E+02 -0.42409709224E+02  0.15130728713E+03  0.15896710216E+03  0.00000000000E+00 0.  1.
         21    1    1    2  504  501 -0.29226739144E+02  0.52679270488E+02 -0.30688552883E+03  0.31274276271E+03  0.00000000000E+00 0.  1.
         21    1    1    2  505  502 -0.64522852790E+02 -0.51956976376E+02 -0.31955116433E+03  0.33011463547E+03  0.00000000000E+00 0.  1.
          2    1    1    2  501    0  0.11779249101E+03  0.41687415112E+02  0.60337363220E+03  0.61617582843E+03  0.00000000000E+00 0. -1.
<scales pt_clust_3="48.75084" pt_clust_4="60.12359" pt_clust_5="14000.00000" pt_clust_6="93.34963"></scales>
<clustering>
<clus scale="   48.751">  1  3  2 -1</clus>
<clus scale="   60.124">  2  4  1 -1</clus>
<clus scale="   93.350">  1  6  2 -1</clus>
<clus scale="   60.124">  2  3  1 -1</clus>
</clustering>
</event>
<event>
 6    0  0.1230761E+002  0.1287463E+03  0.7546771E-02  0.1229328E+00
         21   -1    0    0  503  502  0.00000000000E+00  0.00000000000E+00  0.54526560353E+03  0.54526560353E+03  0.00000000000E+00 0. -1.
         -3   -1    0    0    0  501 -0.00000000000E+00 -0.00000000000E+00 -0.16056385326E+03  0.16056385326E+03  0.00000000000E+00 0.  1.
         21    1    1    2  503  501 -0.15815862256E+02  0.26956758876E+02 -0.15395264468E+02  0.34839955741E+02  0.00000000000E+00 0. -1.
         21    1    1    2  504  505 -0.65693668662E+02 -0.31611981287E+02  0.35316380197E+03  0.36061010314E+03  0.00000000000E+00 0. -1.
         21    1    1    2  505  502 -0.16900555856E+02 -0.49470627120E+02  0.14944041833E+03  0.15832059363E+03  0.00000000000E+00 0. -1.
         -3    1    1    2    0  504  0.98410086774E+02  0.54125849531E+02 -0.10250720556E+03  0.15205880428E+03  0.00000000000E+00 0.  1.
<scales pt_clust_3="31.25393" pt_clust_4="48.17802" pt_clust_5="48.17802" pt_clust_6="115.29848"></scales>
<clustering>
<clus scale="   31.254">  2  3  1 -1</clus>
<clus scale="   48.178">  4  5 -1 -1</clus>
<clus scale="  115.298">  2  6  1 -1</clus>
<clus scale="  128.746">  1  3  2 -1</clus>
</clustering>
</event>
<event>
 6    0  0.1230761E+002  0.1040930E+03  0.7546771E-02  0.1271917E+00
         21   -1    0    0  501  502  0.00000000000E+00  0.00000000000E+00  0.81467152542E+02  0.81467152542E+02  0.00000000000E+00 0.  1.
          2   -1    0    0  505    0 -0.00000000000E+00 -0.00000000000E+00 -0.13900058806E+04  0.13900058806E+04  0.00000000000E+00 0. -1.
         21    1    1    2  503  504  0.69261703903E+02 -0.37498659967E+02 -0.16286069290E+03  0.18090588276E+03  0.00000000000E+00 0.  1.
         21    1    1    2  504  502 -0.82765673038E+02  0.73925647466E+02  0.27058518495E+02  0.11422487212E+03  0.00000000000E+00 0.  1.
         21    1    1    2  505  503  0.32862360820E+02  0.14989069552E+02 -0.38417203819E+03  0.38586624871E+03  0.00000000000E+00 0. -1.
          2    1    1    2  501    0 -0.19358391685E+02 -0.51416057050E+02 -0.78856451551E+03  0.79047602960E+03  0.00000000000E+00 0. -1.
<scales pt_clust_3="14000.00000" pt_clust_4="104.09304" pt_clust_5="36.11934" pt_clust_6="40.16327"></scales>
<clustering>
<clus scale="   36.119">  2  5  1 -1</clus>
<clus scale="   40.163">  2  6  1 -1</clus>
<clus scale="  104.093">  1  4  2 -1</clus>
<clus scale="  104.093">  1  3  2 -1</clus>
</clustering>
</event>
<event>
 6    0  0.1230761E+002  0.6819552E+02  0.7546771E-02  0.1366339E+00
          2   -1    0    0  503    0 -0.00000000000E+00  0.00000000000E+00  0.21614915052E+04  0.21614915052E+04  0.00000000000E+00 0.  1.
         21   -1    0    0  504  502  0.00000000000E+00 -0.00000000000E+00 -0.83333012665E+02  0.83333012665E+02  0.00000000000E+00 0.  1.
         21    1    1    2  503  505  0.45259825758E+02 -0.21090259919E+02  0.46204827766E+03  0.46473848752E+03  0.00000000000E+00 0.  1.
         21    1    1    2  504  501 -0.61360923810E+02 -0.58275449681E+02  0.26853249924E+03  0.28155087312E+03  0.00000000000E+00 0.  1.
         21    1    1    2  505  502  0.59914509533E+02  0.31000531738E+02 -0.59496833644E+02  0.89948066317E+02  0.00000000000E+00 0.  1.
          2    1    1    2  501    0 -0.43813411482E+02  0.48365177862E+02  0.14070745493E+04  0.14085870910E+04  0.00000000000E+00 0.  1.
<scales pt_clust_3="49.93246" pt_clust_4="68.19552" pt_clust_5="14000.00000" pt_clust_6="31.51415"></scales>
<clustering>
<clus scale="   49.932">  1  3  2 -1</clus>
<clus scale="   31.514">  1  6  2 -1</clus>
<clus scale="   68.196">  1  4  2 -1</clus>
<clus scale="   68.196">  2  3  1 -1</clus>
</clustering>
</event>
<event>
 6    0  0.1230761E+002  0.1923807E+03  0.7546771E-02  0.1156331E+00
          2   -1    0    0  505    0 -0.00000000000E+00  0.00000000000E+00  0.25322301097E+04  0.25322301097E+04  0.00000000000E+00 0.  1.
         21   -1    0    0  503  502  0.00000000000E+00 -0.00000000000E+00 -0.41350418500E+02  0.41350418500E+02  0.00000000000E+00 0.  1.
         21    1    1    2  503  504 -0.12020382223E+02 -0.67807652905E+02  0.34216139291E+02  0.76896759160E+02  0.00000000000E+00 0.  1.
         21    1    1    2  504  501 -0.58659233437E+02 -0.88082771957E+02  0.18953488989E+03  0.21707822293E+03  0.00000000000E+00 0.  1.
         21    1    1    2  505  502 -0.34099675543E+02 -0.34211924721E+01  0.14802887265E+03  0.15194419886E+03  0.00000000000E+00 0.  1.
          2    1    1    2  501    0  0.10477929120E+03  0.15931161733E+03  0.21190997894E+04  0.21276613473E+04  0.00000000000E+00 0.  1.
<scales pt_clust_3="67.29080" pt_clust_4="67.29080" pt_clust_5="34.27087" pt_clust_6="173.06357"></scales>
<clustering>
<clus scale="   34.271">  1  5  2 -1</clus>
<clus scale="   67.291">  3  4 -1 -1</clus>
<clus scale="  173.064">  1  6  2 -1</clus>
<clus scale="  192.381">  2  3  1 -1</clus>
</clustering>
</event>
<event>
 6    0  0.1230761E+002  0.2942129E+03  0.7546771E-02  0.1088170E+00
          1   -1    0    0  503    0 -0.00000000000E+00  0.00000000000E+00  0.32642655264E+04  0.32642655264E+04  0.00000000000E+00 0. -1.
         21   -1    0    0  501  502  0.00000000000E+00 -0.00000000000E+00 -0.40353995246E+02  0.40353995246E+02  0.00000000000E+00 0. -1.
         21    1    1    2  503  505 -0.23447411063E+02  0.57062307681E+02  0.11398969893E+04  0.11415651686E+04  0.00000000000E+00 0. -1.
         21    1    1    2  504  502 -0.10078247206E+02  0.18678128657E+03  0.85382773459E+03  0.87407701059E+03  0.00000000000E+00 0. -1.
         21    1    1    2  505  504 -0.58736458889E+02  0.44658068280E+02  0.36274693301E+03  0.37017516404E+03  0.00000000000E+00 0. -1.
          1    1    1    2  501    0  0.92262117158E+02 -0.28850166253E+03  0.86743987429E+03  0.91880217841E+03  0.00000000000E+00 0. -1.
<scales pt_clust_3="61.69188" pt_clust_4="62.18588" pt_clust_5="62.18588" pt_clust_6="277.04025"></scales>
<clustering>
<clus scale="   61.692">  1  3  2 -1</clus>
<clus scale="   62.186">  4  5 -1 -1</clus>
<clus scale="  277.040">  2  6  1 -1</clus>
<clus scale="  277.040">  2  3  1 -1</clus>
</clustering>
</event>
<event>
 6    0  0.1230761E+002  0.1334500E+03  0.7546771E-02  0.1222425E+00
          4   -1    0    0  503    0 -0.00000000000E+00  0.00000000000E+00  0.13161065099E+04  0.13161065099E+04  0.00000000000E+00 0.  1.
         21   -1    0    0  504  502  0.00000000000E+00 -0.00000000000E+00 -0.94911814441E+03  0.94911814441E+03  0.00000000000E+00 0. -1.
         21    1    1    2  503  505  0.29294579376E+02  0.29513014302E+02  0.56589199883E+03  0.56741778676E+03  0.00000000000E+00 0.  1.
         21    1    1    2  504  501  0.88764575084E+02 -0.62677554747E+02 -0.63898393749E+03  0.64815746391E+03  0.00000000000E+00 0. -1.
         21    1    1    2  505  502 -0.55669087434E+02 -0.67523367216E+02 -0.29365345264E+03  0.30641606136E+03  0.00000000000E+00 0. -1.
          4    1    1    2  501    0 -0.62390067025E+02  0.10068790766E+03  0.73373375673E+03  0.74323334222E+03  0.00000000000E+00 0.  1.
<scales pt_clust_3="41.58354" pt_clust_4="14000.00000" pt_clust_5="87.16003" pt_clust_6="133.44999"></scales>
<clustering>
<clus scale="   41.584">  1  3  2 -1</clus>
<clus scale="   87.160">  2  5  1 -1</clus>
<clus scale="  133.450">  1  6  2 -1</clus>
<clus scale="   87.160">  2  3  1 -1</clus>
</clustering>
</event>
<event>
 6    0  0.1230761E+002  0.9597689E+02  0.7546771E-02  0.1288991E+00
          1   -1    0    0  503    0 -0.00000000000E+00  0.00000000000E+00  0.69725510491E+03  0.69725510491E+03  0.00000000000E+00 0.  1.
         21   -1    0    0  501  502  0.00000000000E+00 -0.00000000000E+00 -0.93153506008E+02  0.93153506008E+02  0.00000000000E+00 0. -1.
         21    1    1    2  503  505 -0.46429571142E+02  0.90706172204E+02  0.28864713518E+03  0.30610534690E+03  0.00000000000E+00 0.  1.
         21    1    1    2  504  502  0.35507402370E+02 -0.39728222462E+02  0.19743468471E+01  0.53319839915E+02  0.00000000000E+00 0. -1.
         21    1    1    2  505  504 -0.98586514941E+02 -0.28794870796E+02  0.49278304152E+01  0.10282377655E+03  0.00000000000E+00 0. -1.
          1    1    1    2  501    0  0.10950868371E+03 -0.22183078946E+02  0.30855228645E+03  0.32815964754E+03  0.00000000000E+00 0.  1.
<scales pt_clust_3="95.97689" pt_clust_4="53.28327" pt_clust_5="92.86276" pt_clust_6="14000.00000"></scales>
<clustering>
<clus scale="   53.283">  2  4  1 -1</clus>
<clus scale="   92.863">  2  5  1 -1</clus>
<clus scale="   95.977">  1  3  2 -1</clus>
<clus scale="   53.283">  2  3  1 -1</clus>
</clustering>
</event>
<event>
 6    0  0.1230761E+002  0.8690230E+02  0.7546771E-02  0.1310531E+00
          1   -1    0    0  503    0 -0.00000000000E+00  0.00000000000E+00  0.11690583525E+04  0.11690583525E+04  0.00000000000E+00 0.  1.
         21   -1    0    0  501  502  0.00000000000E+00 -0.00000000000E+00 -0.14028795034E+04  0.14028795034E+04  0.00000000000E+00 0.  1.
         21    1    1    2  503  505 -0.28560188067E+02  0.36090923923E+02  0.98013437045E+03  0.98121436152E+03  0.00000000000E+00 0.  1.
         21    1    1    2  504  502 -0.21845558011E+02  0.37029321369E+02 -0.11408702933E+04  0.11416800888E+04  0.00000000000E+00 0.  1.
         21    1    1    2  505  504  0.97589138417E+02 -0.83035438957E+02 -0.24175777484E+03  0.27361532442E+03  0.00000000000E+00 0. -1.
          1    1    1    2  501    0 -0.47183392339E+02  0.99151936651E+01  0.16867254687E+03  0.17542808112E+03  0.00000000000E+00 0.  1.
<scales pt_clust_3="46.11225" pt_clust_4="42.99301" pt_clust_5="14000.00000" pt_clust_6="86.90230"></scales>
<clustering>
<clus scale="   42.993">  2  4  1 -1</clus>
<clus scale="   46.112">  1  3  2 -1</clus>
<clus scale="   86.902">  1  6  2 -1</clus>
<clus scale="   42.993">  2  3  1 -1</clus>
</clustering>
</event>
<event>
 6    0  0.1230761E+002  0.1016201E+03  0.7546771E-02  0.1276925E+00
          1   -1    0    0  504    0 -0.00000000000E+00  0.00000000000E+00  0.29853247610E+04  0.29853247610E+04  0.00000000000E+00 0.  1.
         21   -1    0    0  505  502  0.00000000000E+00 -0.00000000000E+00 -0.10920507065E+03  0.10920507065E+03  0.00000000000E+00 0.  1.
         21    1    1    2  503  502 -0.10296971089E+03 -0.46607031177E+02  0.16050043459E+04  0.16089791568E+04  0.00000000000E+00 0.  1.
         21    1    1    2  504  503  0.30208585641E+02  0.93990073982E+01  0.10747869844E+03  0.11203825510E+03  0.00000000000E+00 0.  1.
         21    1    1    2  505  501  0.68909163626E+01 -0.38202125899E+02 -0.99297374134E+02  0.10661545695E+03  0.00000000000E+00 0.  1.
          1    1    1    2  501    0  0.65870208882E+02  0.75410149678E+02  0.12629340202E+04  0.12668969628E+04  0.00000000000E+00 0.  1.
<scales pt_clust_3="14000.00000" pt_clust_4="31.63700" pt_clust_5="38.81372" pt_clust_6="101.62014"></scales>
<clustering>
<clus scale="   31.637">  1  4  2 -1</clus>
<clus scale="   38.814">  2  5  1 -1</clus>
<clus scale="  101.620">  2  6  1 -1</clus>
<clus scale="   38.814">  2  3  1 -1</clus>
</clustering>
</event>
<event>
 6    0  0.1230761E+002  0.7581775E+02  0.7546771E-02  0.1341357E+00
         21   -1    0    0  504  502  0.00000000000E+00  0.00000000000E+00  0.29789415896E+03  0.29789415896E+03  0.00000000000E+00 0. -1.
          1   -1    0    0  505    0 -0.00000000000E+00 -0.00000000000E+00 -0.14450447602E+04  0.14450447602E+04  0.00000000000E+00 0.  1.
         21    1    1    2  503  502  0.89884103837E+02 -0.59475596523E+02  0.58815690481E+02  0.12278348485E+03  0.00000000000E+00 0. -1.
         21    1    1    2  504  501 -0.71984207114E+02  0.21232306421E+01  0.19942832271E+03  0.21203275710E+03  0.00000000000E+00 0. -1.
         21    1    1    2  505  503  0.18258718227E+02  0.24182742857E+02 -0.85750935693E+03  0.85804456940E+03  0.00000000000E+00 0.  1.
          1    1    1    2  501    0 -0.36158614950E+02  0.33169623024E+02 -0.54788525748E+03  0.55007810781E+03  0.00000000000E+00 0.  1.
<scales pt_clust_3="14000.00000" pt_clust_4="75.81775" pt_clust_5="30.30158" pt_clust_6="58.95234"></scales>
<clustering>
<clus scale="   30.302">  2  5  1 -1</clus>
<clus scale="   58.952">  2  6  1 -1</clus>
<clus scale="   75.818">  1  4  2 -1</clus>
<clus scale="   75.818">  1  3  2 -1</clus>
</clustering>
</event>
<event>
 6    0  0.1230761E+002  0.1113125E+03  0.7546771E-02  0.1258158E+00
         -1   -1    0    0    0  501 -0.00000000000E+00  0.00000000000E+00  0.13780902106E+04  0.13780902106E+04  0.00000000000E+00 0.  1.
         21   -1    0    0  504  502  0.00000000000E+00 -0.00000000000E+00 -0.70491977741E+02  0.70491977741E+02  0.00000000000E+00 0. -1.
         21    1    1    2  503  501 -0.11152238254E+03 -0.37150158519E+02  0.11620950538E+04  0.11680249527E+04  0.00000000000E+00 0.  1.
         21    1    1    2  504  503  0.28141771775E+02  0.21669022142E+02  0.17816438929E+01  0.35562340955E+02  0.00000000000E+00 0.  1.
         21    1    1    2  505  502  0.40857261646E+02 -0.75658951354E+02  0.25302770212E+02  0.89631595599E+02  0.00000000000E+00 0. -1.
         -1    1    1    2    0  505  0.42523349120E+02  0.91140087731E+02  0.11841876502E+03  0.15536329915E+03  0.00000000000E+00 0.  1.
<scales pt_clust_3="14000.00000" pt_clust_4="35.51768" pt_clust_5="85.20667" pt_clust_6="111.31252"></scales>
<clustering>
<clus scale="   35.518">  2  4  1 -1</clus>
<clus scale="   85.207">  2  5  1 -1</clus>
<clus scale="  111.313">  2  6  1 -1</clus>
<clus scale="   35.518">  2  3  1 -1</clus>
</clustering>
</event>
<event>
 6    0  0.1230761E+002  0.1989697E+03  0.7546771E-02  0.1150611E+00
         21   -1    0    0  505  502  0.00000000000E+00  0.00000000000E+00  0.19858295051E+03  0.19858295051E+03  0.00000000000E+00 0. -1.
          2   -1    0    0  503    0 -0.00000000000E+00 -0.00000000000E+00 -0.19076731903E+04  0.19076731903E+04  0.00000000000E+00 0. -1.
         21    1    1    2  503  502  0.57189702621E+02 -0.52251969372E+02 -0.33396292854E+03  0.34282964870E+03  0.00000000000E+00 0.  1.
         21    1    1    2  504  501 -0.11158863474E+03  0.64094173909E+02  0.65769581873E+02  0.14451894143E+03  0.00000000000E+00 0. -1.
         21    1    1    2  505  504 -0.60531752296E+02  0.32099789430E+02  0.72942738182E+02  0.10007563425E+03  0.00000000000E+00 0. -1.
          2    1    1    2  501    0  0.11493068441E+03 -0.43941993966E+02 -0.15138396313E+04  0.15188319165E+04  0.00000000000E+00 0. -1.
<scales pt_clust_3="77.46567" pt_clust_4="30.14457" pt_clust_5="30.14457" pt_clust_6="194.63360"></scales>
<clustering>
<clus scale="   30.145">  4  5 -1 -1</clus>
<clus scale="   77.466">  2  3  1 -1</clus>
<clus scale="  194.634">  2  6  1 -1</clus>
<clus scale="  198.970">  1  3  2 -1</clus>
</clustering>
</event>
<event>
 6    0  0.1230761E+002  0.6708118E+02  0.7546771E-02  0.1370310E+00
          1   -1    0    0  504    0 -0.00000000000E+00  0.00000000000E+00  0.14035076496E+04  0.14035076496E+04  0.00000000000E+00 0. -1.
         21   -1    0    0  505  502  0.00000000000E+00 -0.00000000000E+00 -0.46088089471E+02  0.46088089471E+02  0.00000000000E+00 0.  1.
         21    1    1    2  503  502  0.39381365186E+02  0.40738387447E+02  0.15659288914E+03  0.16652879950E+03  0.00000000000E+00 0.  1.
         21    1    1    2  504  503  0.15104325466E+02 -0.27119600648E+02  0.44954074479E+03  0.45061124555E+03  0.00000000000E+00 0. -1.
         21    1    1    2  505  501  0.28694284679E+02  0.59123288047E+02 -0.70643464374E+01  0.66097126665E+02  0.00000000000E+00 0.  1.
          1    1    1    2  501    0 -0.83179975330E+02 -0.72742074846E+02  0.75835027265E+03  0.76635856736E+03  0.00000000000E+00 0. -1.
<scales pt_clust_3="55.36554" pt_clust_4="31.04212" pt_clust_5="67.08118" pt_clust_6="14000.00000"></scales>
<clustering>
<clus scale="   31.042">  1  4  2 -1</clus>
<clus scale="   55.366">  1  3  2 -1</clus>
<clus scale="   67.081">  2  5  1 -1</clus>
<clus scale="   67.081">  2  3  1 -1</clus>
</clustering>
</event>
<event>
 6    0  0.1230761E+002  0.3844097E+03  0.7546771E-02  0.1049316E+00
          2   -1    0    0  504    0 -0.00000000000E+00  0.00000000000E+00  0.12077321083E+04  0.12077321083E+04  0.00000000000E+00 0. -1.
         21   -1    0    0  501  502  0.00000000000E+00 -0.00000000000E+00 -0.17880696936E+03  0.17880696936E+03  0.00000000000E+00 0. -1.
         21    1    1    2  503  502  0.42228614919E+02  0.21281043377E+02  0.10833887438E+02  0.48513006939E+02  0.00000000000E+00 0.  1.
         21    1    1    2  504  505 -0.35458515614E+02 -0.13755759877E+02  0.86987133380E+02  0.94938341217E+02  0.00000000000E+00 0. -1.
         21    1    1    2  505  503 -0.12353084451E+03  0.36272785216E+03  0.68060326731E+03  0.78105836642E+03  0.00000000000E+00 0. -1.
          2    1    1    2  501    0  0.11676074521E+03 -0.37025313566E+03  0.25050085081E+03  0.46202936308E+03  0.00000000000E+00 0. -1.
<scales pt_clust_3="46.28208" pt_clust_4="38.03324" pt_clust_5="14000.00000" pt_clust_6="384.40975"></scales>
<clustering>
<clus scale="   38.033">  1  4  2 -1</clus>
<clus scale="   46.282">  2  3  1 -1</clus>
<clus scale="  384.410">  2  6  1 -1</clus>
<clus scale="   46.282">  2  3  1 -1</clus>
</clustering>
</event>
<event>
 6    0  0.1230761E+002  0.1346807E+03  0.7546771E-02  0.1220671E+00
          2   -1    0    0  503    0 -0.00000000000E+00  0.00000000000E+00  0.14906221712E+03  0.14906221712E+03  0.00000000000E+00 0.  1.
         21   -1    0    0  505  502  0.00000000000E+00 -0.00000000000E+00 -0.63093014545E+03  0.63093014545E+03  0.00000000000E+00 0.  1.
         21    1    1    2  503  504 -0.18874302637E+02 -0.70038168665E+02 -0.20207042617E+03  0.21469522934E+03  0.00000000000E+00 0.  1.
         21    1    1    2  504  502  0.32688498738E+02  0.28025985154E+01 -0.28697763841E+02  0.43588463585E+02  0.00000000000E+00 0.  1.
         21    1    1    2  505  501 -0.10751878612E+03 -0.34784582428E+02 -0.33920961006E+03  0.35753799253E+03  0.00000000000E+00 0.  1.
          2    1    1    2  501    0  0.93704590022E+02  0.10202015258E+03  0.88109871751E+02  0.16417067711E+03  0.00000000000E+00 0.  1.
<scales pt_clust_3="69.45398" pt_clust_4="32.80842" pt_clust_5="134.68068" pt_clust_6="14000.00000"></scales>
<clustering>
<clus scale="   32.808">  2  4  1 -1</clus>
<clus scale="   69.454">  2  3  1 -1</clus>
<clus scale="  134.681">  2  5  1 -1</clus>
<clus scale="   32.808">  2  3  1 -1</clus>
</clustering>
</event>
<event>
 6    0  0.1230761E+002  0.3048210E+03  0.7546771E-02  0.1082855E+00
          3   -1    0    0  503    0 -0.00000000000E+00  0.00000000000E+00  0.12365383568E+04  0.12365383568E+04  0.00000000000E+00 0.  1.
         21   -1    0    0  501  502  0.00000000000E+00 -0.00000000000E+00 -0.33335204990E+03  0.33335204990E+03  0.00000000000E+00 0. -1.
         21    1    1    2  503  504 -0.10615695668E+03  0.72189526514E+02  0.12276824912E+03  0.17763071295E+03  0.00000000000E+00 0.  1.
         21    1    1    2  504  505  0.15565308391E+03 -0.99451877893E+02 -0.14769283408E+03  0.23649890441E+03  0.00000000000E+00 0. -1.
         21    1    1    2  505  502  0.11923340085E+03 -0.45806417596E+02 -0.66702659948E+02  0.14409745527E+03  0.00000000000E+00 0. -1.
          3    1    1    2  501    0 -0.16872952808E+03  0.73068768975E+02  0.99481355181E+03  0.10116633341E+04  0.00000000000E+00 0.  1.
<scales pt_clust_3="128.37690" pt_clust_4="39.23037" pt_clust_5="39.23037" pt_clust_6="301.14819"></scales>
<clustering>
<clus scale="   39.230">  4  5 -1 -1</clus>
<clus scale="  128.377">  1  3  2 -1</clus>
<clus scale="  301.148">  1  6  2 -1</clus>
<clus scale="  304.821">  2  3  1 -1</clus>
</clustering>
</event>
<event>
 6    0  0.1230761E+002  0.6329420E+02  0.7546771E-02  0.1384505E+00
         21   -1    0    0  504  502  0.00000000000E+00  0.00000000000E+00  0.12621464713E+03  0.12621464713E+03  0.00000000000E+00 0.  1.
          2   -1    0    0  503    0 -0.00000000000E+00 -0.00000000000E+00 -0.59322380592E+03  0.59322380592E+03  0.00000000000E+00 0. -1.
         21    1    1    2  503  505 -0.57909713170E+02  0.21972338912E+02 -0.28953564244E+03  0.29608648533E+03  0.00000000000E+00 0. -1.
         21    1    1    2  504  501 -0.56892374227E+02  0.10500792592E+02 -0.11662631910E+02  0.59017165920E+02  0.00000000000E+00 0.  1.
         21    1    1    2  505  502  0.79280487861E+02  0.37877849157E+02  0.72131932388E+02  0.11368000212E+03  0.00000000000E+00 0.  1.
          2    1    1    2  501    0  0.35521599536E+02 -0.70350980661E+02 -0.23794281683E+03  0.25065479967E+03  0.00000000000E+00 0. -1.
<scales pt_clust_3="63.29420" pt_clust_4="57.85334" pt_clust_5="54.90989" pt_clust_6="14000.00000"></scales>
<clustering>
<clus scale="   57.853">  1  4  2 -1</clus>
<clus scale="   54.910">  1  5  2 -1</clus>
<clus scale="   63.294">  2  3  1 -1</clus>
<clus scale="   57.853">  1  3  2 -1</clus>
</clustering>
</event>
<event>
 6    0  0.1230761E+002  0.1492543E+03  0.7546771E-02  0.1201392E+00
         21   -1    0    0  504  502  0.00000000000E+00  0.00000000000E+00  0.15397988932E+04  0.15397988932E+04  0.00000000000E+00 0. -1.
          1   -1    0    0  503    0 -0.00000000000E+00 -0.00000000000E+00 -0.29336840839E+03  0.29336840839E+03  0.00000000000E+00 0.  1.
         21    1    1    2  503  505  0.33467406202E+02  0.95277583935E+01 -0.26035122080E+02  0.43458866064E+02  0.00000000000E+00 0.  1.
         21    1    1    2  504  501  0.84106473067E+02  0.99810829286E+01  0.12888703065E+04  0.12916501801E+04  0.00000000000E+00 0. -1.
         21    1    1    2  505  502  0.64585774389E+02 -0.29669094798E+02  0.20161338643E+03  0.21377449574E+03  0.00000000000E+00 0. -1.
          1    1    1    2  501    0 -0.18215965366E+03  0.10160253476E+02 -0.21801808604E+03  0.28428375967E+03  0.00000000000E+00 0.  1.
<scales pt_clust_3="34.79720" pt_clust_4="149.25426" pt_clust_5="71.69794" pt_clust_6="14000.00000"></scales>
<clustering>
<clus scale="   34.797">  2  3  1 -1</clus>
<clus scale="   71.698">  1  5  2 -1</clus>
<clus scale="  149.254">  1  4  2 -1</clus>
<clus scale="   71.698">  1  3  2 -1</clus>
</clustering>
</event>
<event>
 6    0  0.1230761E+002  0.1893185E+03  0.7546771E-02  0.1159077E+00
         -3   -1    0    0    0  501 -0.00000000000E+00  0.00000000000E+00  0.57286260375E+02  0.57286260375E+02  0.00000000000E+00 0.  1.
         21   -1    0    0  504  502  0.00000000000E+00 -0.00000000000E+00 -0.18883769104E+04  0.18883769104E+04  0.00000000000E+00 0. -1.
         21    1    1    2  503  501  0.64551634144E+01  0.34436575635E+02 -0.28666569075E+02  0.45269405327E+02  0.00000000000E+00 0. -1.
         21    1    1    2  504  505  0.18335813445E+02  0.35920787387E+02 -0.71982510348E+03  0.72095401006E+03  0.00000000000E+00 0. -1.
         21    1    1    2  505  503  0.10517914893E+03  0.11345813545E+03 -0.81585481457E+03  0.83039417166E+03  0.00000000000E+00 0. -1.
         -3    1    1    2    0  502 -0.12997012579E+03 -0.18381549847E+03 -0.26674416289E+03  0.34904558372E+03  0.00000000000E+00 0.  1.
<scales pt_clust_3="35.03637" pt_clust_4="40.71736" pt_clust_5="14000.00000" pt_clust_6="189.31850"></scales>
<clustering>
<clus scale="   35.036">  1  3  2 -1</clus>
<clus scale="   40.717">  2  4  1 -1</clus>
<clus scale="  189.319">  1  6  2 -1</clus>
<clus scale="   40.717">  2  3  1 -1</clus>
</clustering>
</event>
<event>
 6    0  0.1230761E+002  0.9107256E+02  0.7546771E-02  0.1300275E+00
         21   -1    0    0  501  502  0.00000000000E+00  0.00000000000E+00  0.98280777442E+03  0.98280777442E+03  0.00000000000E+00 0.  1.
          1   -1    0    0  505    0 -0.00000000000E+00 -0.00000000000E+00 -0.77917080655E+02  0.77917080655E+02  0.00000000000E+00 0.  1.
         21    1    1    2  503  502  0.42440831669E+02  0.12653235138E+02  0.41099822149E+03  0.41337739007E+03  0.00000000000E+00 0.  1.
         21    1    1    2  504  503  0.32643512615E+02 -0.66507397397E+02  0.48982218474E+03  0.49539338458E+03  0.00000000000E+00 0.  1.
         21    1    1    2  505  504  0.31389804721E+02  0.91695654883E+00  0.98328347090E+01  0.32906614657E+02  0.00000000000E+00 0. -1.
          1    1    1    2  501    0 -0.10647414901E+03  0.52937205711E+02 -0.57625471777E+01  0.11904746576E+03  0.00000000000E+00 0.  1.
<scales pt_clust_3="44.83090" pt_clust_4="91.07256" pt_clust_5="31.40319" pt_clust_6="14000.00000"></scales>
<clustering>
<clus scale="   31.403">  2  5  1 -1</clus>
<clus scale="   44.831">  1  3  2 -1</clus>
<clus scale="   91.073">  1  4  2 -1</clus>
<clus scale="   44.831">  1  3  2 -1</clus>
</clustering>
</event>
<event>
 6    0  0.1230761E+002  0.1922641E+03  0.7546771E-02  0.1156435E+00
         21   -1    0    0  501  502  0.00000000000E+00  0.00000000000E+00  0.42911120581E+03  0.42911120581E+03  0.00000000000E+00 0. -1.
          2   -1    0    0  503    0 -0.00000000000E+00 -0.00000000000E+00 -0.19219884715E+04  0.19219884715E+04  0.00000000000E+00 0. -1.
         21    1    1    2  503  505 -0.21795713422E+02  0.20697090105E+03 -0.57509422916E+03  0.61159249457E+03  0.00000000000E+00 0. -1.
         21    1    1    2  504  502  0.13214099072E+03  0.10429579160E+03  0.21306124324E+03  0.27153995460E+03  0.00000000000E+00 0. -1.
         21    1    1    2  505  504 -0.24320994273E+03 -0.21966044391E+03 -0.20843092115E+01  0.32772874639E+03  0.00000000000E+00 0. -1.
          2    1    1    2  501    0  0.13286466543E+03 -0.91606248738E+02 -0.11287599706E+04  0.11402384818E+04  0.00000000000E+00 0. -1.
<scales pt_clust_3="158.62798" pt_clust_4="192.26415" pt_clust_5="14000.00000" pt_clust_6="161.38378"></scales>
<clustering>
<clus scale="  161.384">  2  6  1 -1</clus>
<clus scale="  158.628">  2  3  1 -1</clus>
<clus scale="  192.264">  1  4  2 -1</clus>
<clus scale="  192.264">  1  3  2 -1</clus>
</clustering>
</event>
<event>
 6    0  0.1230761E+002  0.1384313E+03  0.7546771E-02  0.1215455E+00
          1   -1    0    0  505    0 -0.00000000000E+00  0.00000000000E+00  0.52502239844E+03  0.52502239844E+03  0.00000000000E+00 0.  1.
         21   -1    0    0  501  502  0.00000000000E+00 -0.00000000000E+00 -0.23873611506E+03  0.23873611506E+03  0.00000000000E+00 0.  1.
         21    1    1    2  503  502  0.71080436610E+01  0.35813133035E+02 -0.22358501435E+01  0.36580101262E+02  0.00000000000E+00 0. -1.
         21    1    1    2  504  503  0.45284755088E+02  0.90951727212E+02 -0.14686894043E+03  0.17858726548E+03  0.00000000000E+00 0.  1.
         21    1    1    2  505  504  0.56068085281E+02  0.30363249832E+02  0.31829102508E+03  0.32461474670E+03  0.00000000000E+00 0.  1.
          1    1    1    2  501    0 -0.10846088403E+03 -0.15712811008E+03  0.11710004887E+03  0.22397640007E+03  0.00000000000E+00 0.  1.
<scales pt_clust_3="36.51171" pt_clust_4="138.43134" pt_clust_5="64.09896" pt_clust_6="14000.00000"></scales>
<clustering>
<clus scale="   36.512">  2  3  1 -1</clus>
<clus scale="   64.099">  1  5  2 -1</clus>
<clus scale="  138.431">  2  4  1 -1</clus>
<clus scale="   36.512">  2  3  1 -1</clus>
</clustering>
</event>
<event>
 6    0  0.1230761E+002  0.1158675E+03  0.7546771E-02  0.1250074E+00
         21   -1    0    0  504  502  0.00000000000E+00  0.00000000000E+00  0.57940872008E+03  0.57940872008E+03  0.00000000000E+00 0. -1.
          1   -1    0    0  503    0 -0.00000000000E+00 -0.00000000000E+00 -0.18450766931E+04  0.18450766931E+04  0.00000000000E+00 0. -1.
         21    1    1    2  503  502 -0.73913794525E+02  0.47433729172E+02 -0.12372508003E+03  0.15172706783E+03  0.00000000000E+00 0. -1.
         21    1    1    2  504  505  0.89169461050E+01 -0.29952292567E+02  0.27453062878E+03  0.27630366971E+03  0.00000000000E+00 0. -1.
         21    1    1    2  505  501  0.59904433675E+02 -0.69496603892E+02  0.28232121523E+03  0.29685617342E+03  0.00000000000E+00 0. -1.
          1    1    1    2  501    0  0.50924147452E+01  0.52015167287E+02 -0.16987947370E+04  0.16995985023E+04  0.00000000000E+00 0. -1.
<scales pt_clust_3="14000.00000" pt_clust_4="31.25143" pt_clust_5="115.86755" pt_clust_6="52.22559"></scales>
<clustering>
<clus scale="   31.251">  1  4  2 -1</clus>
<clus scale="   52.226">  2  6  1 -1</clus>
<clus scale="  115.868">  1  5  2 -1</clus>
<clus scale="   31.251">  1  3  2 -1</clus>
</clustering>
</event>
<event>
 6    0  0.1513597E+002  0.1227663E+03  0.7546771E-02  0.1238602E+00
          1   -1    0    0  504    0 -0.00000000000E+00  0.00000000000E+00  0.24227380647E+04  0.24227380647E+04  0.00000000000E+00 0.  1.
         21   -1    0    0  505  502  0.00000000000E+00 -0.00000000000E+00 -0.62870581769E+03  0.62870581769E+03  0.00000000000E+00 0. -1.
         21    1    1    2  503  502 -0.27666155436E+02 -0.31109636482E+02 -0.12520036889E+03  0.13194073673E+03  0.00000000000E+00 0.  1.
         21    1    1    2  504  503  0.38257683959E+02 -0.47388901130E+02  0.33647866330E+02  0.69581155788E+02  0.00000000000E+00 0.  1.
         21    1    1    2  505  501  0.55315006942E+01 -0.43469389802E+02 -0.47957088200E+03  0.48156870352E+03  0.00000000000E+00 0. -1.
          1    1    1    2  501    0 -0.16123029217E+02  0.12196792741E+03  0.23651556315E+04  0.23683532863E+04  0.00000000000E+00 0.  1.
<scales pt_clust_3="41.63203" pt_clust_4="61.16755" pt_clust_5="122.76632" pt_clust_6="14000.00000"></scales>
<clustering>
<clus scale="   41.632">  2  3  1 -1</clus>
<clus scale="   61.168">  2  4  1 -1</clus>
<clus scale="  122.766">  2  5  1 -1</clus>
<clus scale="   41.632">  2  3  1 -1</clus>
</clustering>
</event>
<event>
 6    0  0.1230761E+002  0.8030421E+02  0.7546771E-02  0.1328190E+00
          2   -1    0    0  504    0 -0.00000000000E+00  0.00000000000E+00  0.32177553306E+04  0.32177553306E+04  0.00000000000E+00 0. -1.
         21   -1    0    0  503  502  0.00000000000E+00 -0.00000000000E+00 -0.11665382448E+03  0.11665382448E+03  0.00000000000E+00 0. -1.
         21    1    1    2  503  501 -0.99906423556E+01  0.37862363059E+02  0.46096097942E+01  0.39428669437E+02  0.00000000000E+00 0. -1.
         21    1    1    2  504  505  0.39693044058E+02 -0.28266640200E+02  0.51423365600E+03  0.51653731100E+03  0.00000000000E+00 0. -1.
         21    1    1    2  505  502  0.64152832348E+02  0.21886905583E+02 -0.85353799810E+02  0.10899492500E+03  0.00000000000E+00 0. -1.
          2    1    1    2  501    0 -0.93855234050E+02 -0.31482628443E+02  0.26676120401E+04  0.26694482496E+04  0.00000000000E+00 0. -1.
<scales pt_clust_3="39.15829" pt_clust_4="48.38078" pt_clust_5="14000.00000" pt_clust_6="80.30421"></scales>
<clustering>
<clus scale="   39.158">  2  3  1 -1</clus>
<clus scale="   48.381">  1  4  2 -1</clus>
<clus scale="   80.304">  1  6  2 -1</clus>
<clus scale="   39.158">  2  3  1 -1</clus>
</clustering>
</event>
<event>
 6    0  0.1230761E+002  0.1485450E+03  0.7546771E-02  0.1202272E+00
          2   -1    0    0  505    0 -0.00000000000E+00  0.00000000000E+00  0.26597440354E+04  0.26597440354E+04  0.00000000000E+00 0.  1.
         21   -1    0    0  503  502  0.00000000000E+00 -0.00000000000E+00 -0.10394472132E+03  0.10394472132E+03  0.00000000000E+00 0. -1.
         21    1    1    2  503  501 -0.40743353604E+02 -0.32529959200E+02  0.69470992883E+02  0.86858724148E+02  0.00000000000E+00 0. -1.
         21    1    1    2  504  502  0.45993298404E+02  0.18418203247E+03  0.55864128496E+01  0.18992001630E+03  0.00000000000E+00 0. -1.
         21    1    1    2  505  504 -0.23914324369E+02 -0.39948375205E+02  0.12780085218E+04  0.12788563443E+04  0.00000000000E+00 0.  1.
          2    1    1    2  501    0  0.18664379569E+02 -0.11170369806E+03  0.12027333866E+04  0.12080536720E+04  0.00000000000E+00 0.  1.
<scales pt_clust_3="54.61232" pt_clust_4="14000.00000" pt_clust_5="46.55929" pt_clust_6="148.54495"></scales>
<clustering>
<clus scale="   46.559">  1  5  2 -1</clus>
<clus scale="   54.612">  2  3  1 -1</clus>
<clus scale="  148.545">  1  6  2 -1</clus>
<clus scale="   54.612">  2  3  1 -1</clus>
</clustering>
</event>
<event>
 6    0  0.1230761E+002  0.7046392E+02  0.7546771E-02  0.1358523E+00
         21   -1    0    0  505  502  0.00000000000E+00  0.00000000000E+00  0.12275294780E+04  0.12275294780E+04  0.00000000000E+00 0.  1.
         -2   -1    0    0    0  501 -0.00000000000E+00 -0.00000000000E+00 -0.40041302922E+03  0.40041302922E+03  0.00000000000E+00 0.  1.
         21    1    1    2  503  502 -0.64161048125E+02 -0.35519794459E+02  0.10886985181E+04  0.10911657799E+04  0.00000000000E+00 0.  1.
         21    1    1    2  504  503  0.89843985479E+02 -0.51602061670E+02 -0.21317199795E+02  0.10577871952E+03  0.00000000000E+00 0. -1.
         21    1    1    2  505  501 -0.47364320120E+01  0.37823778048E+02  0.89306860767E+02  0.97101943101E+02  0.00000000000E+00 0.  1.
         -2    1    1    2    0  504 -0.20946505341E+02  0.49298078081E+02 -0.32957173032E+03  0.33389606469E+03  0.00000000000E+00 0.  1.
<scales pt_clust_3="70.46392" pt_clust_4="14000.00000" pt_clust_5="38.11918" pt_clust_6="53.63346"></scales>
<clustering>
<clus scale="   38.119">  1  5  2 -1</clus>
<clus scale="   53.633">  2  6  1 -1</clus>
<clus scale="   70.464">  1  3  2 -1</clus>
<clus scale="   38.119">  1  3  2 -1</clus>
</clustering>
</event>
<event>
 6    0  0.1230761E+002  0.4397653E+03  0.7546771E-02  0.1030819E+00
          1   -1    0    0  503    0 -0.00000000000E+00  0.00000000000E+00  0.65136296660E+03  0.65136296660E+03  0.00000000000E+00 0. -1.
         21   -1    0    0  504  502  0.00000000000E+00 -0.00000000000E+00 -0.38747098482E+03  0.38747098482E+03  0.00000000000E+00 0. -1.
         21    1    1    2  503  502  0.31309881960E+02  0.66620418630E+01  0.12922253291E+03  0.13312833854E+03  0.00000000000E+00 0. -1.
         21    1    1    2  504  505 -0.34163840148E+02  0.13878300431E+03 -0.35482395144E+02  0.14726469578E+03  0.00000000000E+00 0. -1.
         21    1    1    2  505  501  0.72608599895E+02  0.28161477882E+03 -0.68878142188E+01  0.29090605771E+03  0.00000000000E+00 0. -1.
          1    1    1    2  501    0 -0.69754641707E+02 -0.42705982499E+03  0.17703965824E+03  0.46753485939E+03  0.00000000000E+00 0. -1.
<scales pt_clust_3="32.01080" pt_clust_4="76.20976" pt_clust_5="76.20976" pt_clust_6="425.91957"></scales>
<clustering>
<clus scale="   32.011">  1  3  2 -1</clus>
<clus scale="   76.210">  4  5 -1 -1</clus>
<clus scale="  425.920">  1  6  2 -1</clus>
<clus scale="  439.765">  2  3  1 -1</clus>
</clustering>
</event>
<event>
 6    0  0.1230761E+002  0.8902436E+02  0.7546771E-02  0.1305232E+00
          1   -1    0    0  503    0 -0.00000000000E+00  0.00000000000E+00  0.15194463794E+04  0.15194463794E+04  0.00000000000E+00 0.  1.
         21   -1    0    0  504  502  0.00000000000E+00 -0.00000000000E+00 -0.15862186763E+03  0.15862186763E+03  0.00000000000E+00 0. -1.
         21    1    1    2  503  505 -0.10122471913E+03 -0.93536550512E+01  0.11119234588E+04  0.11165606624E+04  0.00000000000E+00 0.  1.
         21    1    1    2  504  501  0.52755895784E+02 -0.15379253730E+02 -0.12955427439E+03  0.14072674230E+03  0.00000000000E+00 0. -1.
         21    1    1    2  505  502 -0.22775976285E+02  0.26447846935E+02 -0.77565507181E+00  0.34911822410E+02  0.00000000000E+00 0.  1.
          1    1    1    2  501    0  0.71244799633E+02 -0.17149381535E+01  0.37923098246E+03  0.38586901994E+03  0.00000000000E+00 0.  1.
<scales pt_clust_3="89.02436" pt_clust_4="32.47315" pt_clust_5="34.90320" pt_clust_6="14000.00000"></scales>
<clustering>
<clus scale="   34.903">  2  5  1 -1</clus>
<clus scale="   32.473">  2  4  1 -1</clus>
<clus scale="   89.024">  1  3  2 -1</clus>
<clus scale="   34.903">  2  3  1 -1</clus>
</clustering>
</event>
<event>
 6    0  0.1230761E+002  0.2663130E+03  0.7546771E-02  0.1103408E+00
          2   -1    0    0  503    0 -0.00000000000E+00  0.00000000000E+00  0.16190388898E+04  0.16190388898E+04  0.00000000000E+00 0.  1.
         21   -1    0    0  501  502  0.00000000000E+00 -0.00000000000E+00 -0.21055293370E+03  0.21055293370E+03  0.00000000000E+00 0.  1.
         21    1    1    2  503  504 -0.41317735821E+02 -0.26340309355E+02  0.10889014239E+03  0.11940699436E+03  0.00000000000E+00 0.  1.
         21    1    1    2  504  505 -0.11135707231E+03 -0.10623468818E+03 -0.49422583625E+02  0.16164404813E+03  0.00000000000E+00 0.  1.
         21    1    1    2  505  502 -0.10355660128E+03 -0.34435258585E+02 -0.47427823256E+02  0.11899224816E+03  0.00000000000E+00 0.  1.
          2    1    1    2  501    0  0.25623140941E+03  0.16701025612E+03  0.13964462206E+04  0.14295485329E+04  0.00000000000E+00 0.  1.
<scales pt_clust_3="48.99967" pt_clust_4="49.07554" pt_clust_5="49.07554" pt_clust_6="259.84963"></scales>
<clustering>
<clus scale="   49.000">  1  3  2 -1</clus>
<clus scale="   49.076">  4  5 -1 -1</clus>
<clus scale="  259.850">  1  6  2 -1</clus>
<clus scale="  266.313">  2  3  1 -1</clus>
</clustering>
</event>
<event>
 6    0  0.1230761E+002  0.6480023E+02  0.7546771E-02  0.1378725E+00
          1   -1    0    0  505    0 -0.00000000000E+00  0.00000000000E+00  0.15091104771E+04  0.15091104771E+04  0.00000000000E+00 0.  1.
         21   -1    0    0  504  502  0.00000000000E+00 -0.00000000000E+00 -0.49960773310E+02  0.49960773310E+02  0.00000000000E+00 0. -1.
         21    1    1    2  503  502 -0.28809580866E+02 -0.17895862579E+02  0.87187903154E+02  0.93552040616E+02  0.00000000000E+00 0. -1.
         21    1    1    2  504  501  0.58710251892E+02  0.76544121065E+02  0.99323962492E+01  0.96977052142E+02  0.00000000000E+00 0. -1.
         21    1    1    2  505  503  0.30744029589E+02 -0.50912870202E+02  0.38145458094E+03  0.38606335364E+03  0.00000000000E+00 0.  1.
          1    1    1    2  501    0 -0.60644700615E+02 -0.77353882849E+01  0.98057482346E+03  0.98247880402E+03  0.00000000000E+00 0.  1.
<scales pt_clust_3="33.91539" pt_clust_4="14000.00000" pt_clust_5="59.51983" pt_clust_6="64.80023"></scales>
<clustering>
<clus scale="   33.915">  2  3  1 -1</clus>
<clus scale="   59.520">  1  5  2 -1</clus>
<clus scale="   64.800">  1  6  2 -1</clus>
<clus scale="   33.915">  2  3  1 -1</clus>
</clustering>
</event>
<event>
 6    0  0.1230761E+002  0.1227827E+03  0.7546771E-02  0.1238576E+00
          1   -1    0    0  505    0 -0.00000000000E+00  0.00000000000E+00  0.22959810702E+04  0.22959810702E+04  0.00000000000E+00 0.  1.
         21   -1    0    0  503  502  0.00000000000E+00 -0.00000000000E+00 -0.11241870572E+02  0.11241870572E+02  0.00000000000E+00 0.  1.
         21    1    1    2  503  501  0.19953314967E+02 -0.27956074081E+02  0.33972079811E+03  0.34145262852E+03  0.00000000000E+00 0.  1.
         21    1    1    2  504  502 -0.17446149990E+01  0.10429375399E+03  0.36942484904E+03  0.38386840179E+03  0.00000000000E+00 0.  1.
         21    1    1    2  505  504  0.14206196404E+02  0.28209569269E+02  0.32965209015E+03  0.33116173746E+03  0.00000000000E+00 0.  1.
          1    1    1    2  501    0 -0.32414896372E+02 -0.10454724918E+03  0.12459414624E+04  0.12507401730E+04  0.00000000000E+00 0.  1.
<scales pt_clust_3="30.88908" pt_clust_4="109.70368" pt_clust_5="31.58474" pt_clust_6="30.88908"></scales>
<clustering>
<clus scale="   30.889">  3  6 -1 -1</clus>
<clus scale="   31.585">  1  5  2 -1</clus>
<clus scale="  109.704">  2  4  1 -1</clus>
<clus scale="  109.704">  2  3  1 -1</clus>
</clustering>
</event>
<event>
 6    0  0.1230761E+002  0.1913164E+03  0.7546771E-02  0.1157279E+00
         21   -1    0    0  504  502  0.00000000000E+00  0.00000000000E+00  0.64395557097E+03  0.64395557097E+03  0.00000000000E+00 0.  1.
          1   -1    0    0  503    0 -0.00000000000E+00 -0.00000000000E+00 -0.12884314846E+04  0.12884314846E+04  0.00000000000E+00 0.  1.
         21    1    1    2  503  502  0.39544198324E+02  0.29897697844E+01 -0.11466993714E+03  0.12133374151E+03  0.00000000000E+00 0.  1.
         21    1    1    2  504  505 -0.14939196317E+02  0.97102789996E+02  0.14663492351E+03  0.17650476538E+03  0.00000000000E+00 0. -1.
         21    1    1    2  505  501  0.44792575410E+02  0.94002869125E+02  0.46404508222E+03  0.47558464289E+03  0.00000000000E+00 0.  1.
          1    1    1    2  501    0 -0.69397577417E+02 -0.19409542891E+03 -0.11404859822E+04  0.11589639057E+04  0.00000000000E+00 0.  1.
<scales pt_clust_3="39.65706" pt_clust_4="98.20754" pt_clust_5="191.31644" pt_clust_6="14000.00000"></scales>
<clustering>
<clus scale="   39.657">  2  3  1 -1</clus>
<clus scale="   98.208">  1  4  2 -1</clus>
<clus scale="  191.316">  1  5  2 -1</clus>
<clus scale="   98.208">  1  3  2 -1</clus>
</clustering>
</event>
<event>
 6    0  0.1230761E+002  0.6684530E+02  0.7546771E-02  0.1371162E+00
         21   -1    0    0  505  502  0.00000000000E+00  0.00000000000E+00  0.12042895282E+03  0.12042895282E+03  0.00000000000E+00 0.  1.
          2   -1    0    0  503    0 -0.00000000000E+00 -0.00000000000E+00 -0.76651704306E+03  0.76651704306E+03  0.00000000000E+00 0. -1.
         21    1    1    2  503  504 -0.25262320480E+02 -0.27122735464E+02 -0.13259843384E+03  0.13768141586E+03  0.00000000000E+00 0. -1.
         21    1    1    2  504  502 -0.40978647648E+02 -0.84124826850E+02  0.81980009190E+02  0.12440642251E+03  0.00000000000E+00 0.  1.
         21    1    1    2  505  501  0.21990202461E+02  0.23866334879E+02 -0.14250193453E+02  0.35443461432E+02  0.00000000000E+00 0. -1.
          2    1    1    2  501    0  0.44250765667E+02  0.87381227435E+02 -0.58121947213E+03  0.58941469608E+03  0.00000000000E+00 0. -1.
<scales pt_clust_3="36.31425" pt_clust_4="66.84530" pt_clust_5="32.45260" pt_clust_6="14000.00000"></scales>
<clustering>
<clus scale="   32.453">  1  5  2 -1</clus>
<clus scale="   36.314">  2  3  1 -1</clus>
<clus scale="   66.845">  1  4  2 -1</clus>
<clus scale="   32.453">  1  3  2 -1</clus>
</clustering>
</event>
<event>
 6    0  0.1230761E+002  0.6850366E+02  0.7546771E-02  0.1365257E+00
         -1   -1    0    0    0  501 -0.00000000000E+00  0.00000000000E+00  0.34369422133E+03  0.34369422133E+03  0.00000000000E+00 0. -1.
         21   -1    0    0  504  502  0.00000000000E+00 -0.00000000000E+00 -0.31191386543E+03  0.31191386543E+03  0.00000000000E+00 0.  1.
         21    1    1    2  503  501  0.33229963144E+02 -0.31337252844E+02  0.58926490198E+02  0.74555919372E+02  0.00000000000E+00 0.  1.
         21    1    1    2  504  503 -0.11815988908E+03  0.23824610472E+02 -0.23374820078E+03  0.26299732474E+03  0.00000000000E+00 0.  1.
         21    1    1    2  505  502  0.48958032807E+02 -0.26364071291E+02 -0.38750661423E+02  0.67775858476E+02  0.00000000000E+00 0.  1.
         -1    1    1    2    0  505  0.35971893129E+02  0.33876713663E+02  0.24535272791E+03  0.25027898417E+03  0.00000000000E+00 0. -1.
<scales pt_clust_3="45.67553" pt_clust_4="14000.00000" pt_clust_5="57.92034" pt_clust_6="68.50366"></scales>
<clustering>
<clus scale="   45.676">  1  3  2 -1</clus>
<clus scale="   57.920">  2  5  1 -1</clus>
<clus scale="   68.504">  1  6  2 -1</clus>
<clus scale="   57.920">  2  3  1 -1</clus>
</clustering>
</event>
<event>
 6    0  0.1230761E+002  0.1581866E+03  0.7546771E-02  0.1190759E+00
          2   -1    0    0  505    0 -0.00000000000E+00  0.00000000000E+00  0.33270704373E+04  0.33270704373E+04  0.00000000000E+00 0. -1.
         21   -1    0    0  504  502  0.00000000000E+00 -0.00000000000E+00 -0.13033041078E+03  0.13033041078E+03  0.00000000000E+00 0. -1.
         21    1    1    2  503  502  0.32533859849E+02 -0.99577305557E+01 -0.58238211330E+02  0.67448481772E+02  0.00000000000E+00 0. -1.
         21    1    1    2  504  501  0.89676904615E+02  0.55207728142E+02  0.47507429545E+03  0.48660602818E+03  0.00000000000E+00 0.  1.
         21    1    1    2  505  503  0.48941025672E+02  0.29923000784E+02 -0.44600793663E+02  0.72662512791E+02  0.00000000000E+00 0. -1.
          2    1    1    2  501    0 -0.17115179014E+03 -0.75172998371E+02  0.28245047360E+04  0.28306838253E+04  0.00000000000E+00 0. -1.
<scales pt_clust_3="34.02365" pt_clust_4="158.18664" pt_clust_5="80.08274" pt_clust_6="14000.00000"></scales>
<clustering>
<clus scale="   34.024">  2  3  1 -1</clus>
<clus scale="   80.083">  2  5  1 -1</clus>
<clus scale="  158.187">  2  4  1 -1</clus>
<clus scale="   34.024">  2  3  1 -1</clus>
</clustering>
</event>
<event>
 6    0  0.1230761E+002  0.9394155E+02  0.7546771E-02  0.1293578E+00
         -2   -1    0    0    0  501 -0.00000000000E+00  0.00000000000E+00  0.97110820687E+03  0.97110820687E+03  0.00000000000E+00 0.  1.
         21   -1    0    0  505  502  0.00000000000E+00 -0.00000000000E+00 -0.10881215061E+03  0.10881215061E+03  0.00000000000E+00 0. -1.
         21    1    1    2  503  501 -0.59816857846E+02  0.91756784298E+01  0.38565512175E+03  0.39037433637E+03  0.00000000000E+00 0.  1.
         21    1    1    2  504  502 -0.35999339468E+02 -0.11809617300E+03  0.71943913795E+02  0.14289361515E+03  0.00000000000E+00 0.  1.
         21    1    1    2  505  503  0.68889712665E+02  0.27263750644E+02 -0.46410094475E+02  0.87424261389E+02  0.00000000000E+00 0. -1.
         -2    1    1    2    0  504  0.26926484649E+02  0.81656743926E+02  0.45110711518E+03  0.45922814458E+03  0.00000000000E+00 0.  1.
<scales pt_clust_3="60.51652" pt_clust_4="93.94155" pt_clust_5="72.25912" pt_clust_6="14000.00000"></scales>
<clustering>
<clus scale="   60.517">  1  3  2 -1</clus>
<clus scale="   72.259">  2  5  1 -1</clus>
<clus scale="   93.942">  2  4  1 -1</clus>
<clus scale="   72.259">  2  3  1 -1</clus>
</clustering>
</event>
<event>
 6    0  0.1230761E+002  0.1142562E+03  0.7546771E-02  0.1252885E+00
         21   -1    0    0  505  502  0.00000000000E+00  0.00000000000E+00  0.37576369166E+02  0.37576369166E+02  0.00000000000E+00 0.  1.
         -2   -1    0    0    0  501 -0.00000000000E+00 -0.00000000000E+00 -0.73998420093E+03  0.73998420093E+03  0.00000000000E+00 0.  1.
         21    1    1    2  503  504  0.45155979703E+01  0.68580364557E+02 -0.71807710832E+02  0.99398211064E+02  0.00000000000E+00 0.  1.
         21    1    1    2  504  501 -0.44167298487E+02 -0.37119078062E+02 -0.37320699699E+03  0.37764009164E+03  0.00000000000E+00 0.  1.
         21    1    1    2  505  503 -0.38532683715E+02  0.33561040013E+02 -0.62815659832E+02  0.80974800038E+02  0.00000000000E+00 0.  1.
         -2    1    1    2    0  502  0.78184384232E+02 -0.65022326508E+02 -0.19457746411E+03  0.21954746736E+03  0.00000000000E+00 0.  1.
<scales pt_clust_3="45.79667" pt_clust_4="57.69381" pt_clust_5="45.79667" pt_clust_6="101.16091"></scales>
<clustering>
<clus scale="   45.797">  3  5 -1 -1</clus>
<clus scale="   57.694">  2  4  1 -1</clus>
<clus scale="  101.161">  2  6  1 -1</clus>
<clus scale="  114.256">  1  3  2 -1</clus>
</clustering>
</event>
<event>
 6    0  0.1230761E+002  0.1231634E+03  0.7546771E-02  0.1237968E+00
         21   -1    0    0  503  502  0.00000000000E+00  0.00000000000E+00  0.65045955018E+02  0.65045955018E+02  0.00000000000E+00 0. -1.
          1   -1    0    0  504    0 -0.00000000000E+00 -0.00000000000E+00 -0.10522787150E+04  0.10522787150E+04  0.00000000000E+00 0. -1.
         21    1    1    2  503  505 -0.59733836910E+01 -0.36278615352E+02  0.27367564001E+02  0.45834515421E+02  0.00000000000E+00 0. -1.
         21    1    1    2  504  502 -0.39444272478E+02 -0.83047102799E+02 -0.27570053307E+03  0.29062597243E+03  0.00000000000E+00 0. -1.
         21    1    1    2  505  501 -0.31057925939E+02 -0.20971190521E+02 -0.16400450189E+02  0.40906727587E+02  0.00000000000E+00 0.  1.
          1    1    1    2  501    0  0.76475582108E+02  0.14029690867E+03 -0.72249934067E+03  0.73995745453E+03  0.00000000000E+00 0. -1.
<scales pt_clust_3="36.76709" pt_clust_4="123.16344" pt_clust_5="49.70435" pt_clust_6="14000.00000"></scales>
<clustering>
<clus scale="   36.767">  1  3  2 -1</clus>
<clus scale="   49.704">  1  5  2 -1</clus>
<clus scale="  123.163">  2  4  1 -1</clus>
<clus scale="   36.767">  1  3  2 -1</clus>
</clustering>
</event>
<event>
 6    0  0.1230761E+002  0.1205189E+03  0.7546771E-02  0.1242244E+00
          4   -1    0    0  505    0 -0.00000000000E+00  0.00000000000E+00  0.33327135674E+03  0.33327135674E+03  0.00000000000E+00 0.  1.
         21   -1    0    0  503  502  0.00000000000E+00 -0.00000000000E+00 -0.16769061265E+04  0.16769061265E+04  0.00000000000E+00 0. -1.
         21    1    1    2  503  501  0.51302377826E+02  0.44293532449E+02 -0.13720143068E+04  0.13736874132E+04  0.00000000000E+00 0. -1.
         21    1    1    2  504  502 -0.12975053386E+02  0.77224209220E+02 -0.24968373394E+03  0.26167517554E+03  0.00000000000E+00 0. -1.
         21    1    1    2  505  504  0.31237507674E+02  0.25592959358E+02 -0.12081707434E+02  0.42151501858E+02  0.00000000000E+00 0.  1.
          4    1    1    2  501    0 -0.69564832114E+02 -0.14711070103E+03  0.29014497850E+03  0.33266339260E+03  0.00000000000E+00 0.  1.
<scales pt_clust_3="67.88407" pt_clust_4="120.51888" pt_clust_5="40.38294" pt_clust_6="14000.00000"></scales>
<clustering>
<clus scale="   40.383">  1  5  2 -1</clus>
<clus scale="   67.884">  2  3  1 -1</clus>
<clus scale="  120.519">  2  4  1 -1</clus>
<clus scale="   67.884">  2  3  1 -1</clus>
</clustering>
</event>
<event>
 6    0  0.1230761E+002  0.1209532E+03  0.7546771E-02  0.1241533E+00
         -4   -1    0    0    0  501 -0.00000000000E+00  0.00000000000E+00  0.18529701292E+04  0.18529701292E+04  0.00000000000E+00 0.  1.
         21   -1    0    0  504  502  0.00000000000E+00 -0.00000000000E+00 -0.15968912250E+04  0.15968912250E+04  0.00000000000E+00 0. -1.
         21    1    1    2  503  501 -0.78380113028E+02 -0.49209245898E+02  0.11791443769E+03  0.14989598599E+03  0.00000000000E+00 0. -1.
         21    1    1    2  504  503  0.66315784802E+02  0.18949844093E+02 -0.12015587436E+04  0.12035365779E+04  0.00000000000E+00 0. -1.
         21    1    1    2  505  502  0.57279442772E+02 -0.15612519354E+02 -0.37541559975E+03  0.38008098855E+03  0.00000000000E+00 0. -1.
         -4    1    1    2    0  505 -0.45215114547E+02  0.45871921159E+02  0.17151388098E+04  0.17163478018E+04  0.00000000000E+00 0.  1.
<scales pt_clust_3="14000.00000" pt_clust_4="120.95315" pt_clust_5="59.36906" pt_clust_6="64.38449"></scales>
<clustering>
<clus scale="   59.369">  2  5  1 -1</clus>
<clus scale="   64.384">  1  6  2 -1</clus>
<clus scale="  120.953">  2  4  1 -1</clus>
<clus scale="   59.369">  2  3  1 -1</clus>
</clustering>
</event>
<event>
 6    0  0.1230761E+002  0.2912039E+03  0.7546771E-02  0.1089722E+00
         21   -1    0    0  501  502  0.00000000000E+00  0.00000000000E+00  0.51510953315E+03  0.51510953315E+03  0.00000000000E+00 0.  1.
          2   -1    0    0  505    0 -0.00000000000E+00 -0.00000000000E+00 -0.72724734792E+03  0.72724734792E+03  0.00000000000E+00 0. -1.
         21    1    1    2  503  504 -0.91691062487E+02  0.18187976426E+03  0.26127141736E+03  0.33128575749E+03  0.00000000000E+00 0.  1.
         21    1    1    2  504  502 -0.42581698981E+02  0.68864180670E+02  0.15922227224E+03  0.17862588962E+03  0.00000000000E+00 0.  1.
         21    1    1    2  505  503 -0.31929647126E+02  0.29322627403E+02 -0.68836861068E+02  0.81350060142E+02  0.00000000000E+00 0. -1.
          2    1    1    2  501    0  0.16620240859E+03 -0.28006657234E+03 -0.56379464329E+03  0.65109517381E+03  0.00000000000E+00 0. -1.
<scales pt_clust_3="30.19235" pt_clust_4="30.19235" pt_clust_5="43.35111" pt_clust_6="287.23941"></scales>
<clustering>
<clus scale="   30.192">  3  4 -1 -1</clus>
<clus scale="   43.351">  2  5  1 -1</clus>
<clus scale="  287.239">  2  6  1 -1</clus>
<clus scale="  291.204">  1  3  2 -1</clus>
</clustering>
</event>
<event>
 6    0  0.1230761E+002  0.1302844E+03  0.7546771E-02  0.1227034E+00
         21   -1    0    0  503  502  0.00000000000E+00  0.00000000000E+00  0.24565996199E+03  0.24565996199E+03  0.00000000000E+00 0. -1.
          2   -1    0    0  504    0 -0.00000000000E+00 -0.00000000000E+00 -0.27465416379E+04  0.27465416379E+04  0.00000000000E+00 0. -1.
         21    1    1    2  503  505  0.40767398624E+02 -0.53304379057E+02  0.17100624932E+03  0.18370213642E+03  0.00000000000E+00 0. -1.
         21    1    1    2  504  502 -0.28403157249E+02  0.18591222505E+02 -0.84642690400E+03  0.84710735843E+03  0.00000000000E+00 0. -1.
         21    1    1    2  505  501 -0.75853721069E+02 -0.74131354724E+02  0.23093803327E+02  0.10854754030E+03  0.00000000000E+00 0.  1.
          2    1    1    2  501    0  0.63489479695E+02  0.10884451128E+03 -0.18485548246E+04  0.18528445648E+04  0.00000000000E+00 0. -1.
<scales pt_clust_3="66.99992" pt_clust_4="33.94662" pt_clust_5="130.28444" pt_clust_6="14000.00000"></scales>
<clustering>
<clus scale="   33.947">  2  4  1 -1</clus>
<clus scale="   67.000">  1  3  2 -1</clus>
<clus scale="  130.284">  1  5  2 -1</clus>
<clus scale="   67.000">  1  3  2 -1</clus>
</clustering>
</event>
<event>
 6    0  0.1230761E+002  0.1956477E+03  0.7546771E-02  0.1153464E+00
         21   -1    0    0  505  502  0.00000000000E+00  0.00000000000E+00  0.30593966800E+03  0.30593966800E+03  0.00000000000E+00 0.  1.
          2   -1    0    0  503    0 -0.00000000000E+00 -0.00000000000E+00 -0.17388931525E+04  0.17388931525E+04  0.00000000000E+00 0. -1.
         21    1    1    2  503  504 -0.56833223995E+02  0.51695523834E+02 -0.50677963873E+03  0.51257003889E+03  0.00000000000E+00 0.  1.
         21    1    1    2  504  502 -0.81266461867E+01  0.16509194751E+03  0.31004442128E+02  0.16817451930E+03  0.00000000000E+00 0.  1.
         21    1    1    2  505  501 -0.42745312303E+02  0.23672600527E+02  0.18529353682E+03  0.19162789079E+03  0.00000000000E+00 0.  1.
          2    1    1    2  501    0  0.10770518248E+03 -0.24046007187E+03 -0.11424718247E+04  0.11724603715E+04  0.00000000000E+00 0. -1.
<scales pt_clust_3="77.99968" pt_clust_4="195.64773" pt_clust_5="48.86260" pt_clust_6="14000.00000"></scales>
<clustering>
<clus scale="   48.863">  1  5  2 -1</clus>
<clus scale="   78.000">  2  3  1 -1</clus>
<clus scale="  195.648">  1  4  2 -1</clus>
<clus scale="   48.863">  1  3  2 -1</clus>
</clustering>
</event>
<event>
 6    0  0.1230761E+002  0.1392994E+03  0.7546771E-02  0.1214275E+00
          1   -1    0    0  505    0 -0.00000000000E+00  0.00000000000E+00  0.90085897957E+03  0.90085897957E+03  0.00000000000E+00 0. -1.
         21   -1    0    0  504  502  0.00000000000E+00 -0.00000000000E+00 -0.11796796138E+03  0.11796796138E+03  0.00000000000E+00 0. -1.
         21    1    1    2  503  501 -0.66474223070E+02  0.61602885583E+02  0.71344919537E+02  0.11534225327E+03  0.00000000000E+00 0. -1.
         21    1    1    2  504  503 -0.83071044119E+01  0.47996539106E+02 -0.28494627700E+02  0.56432433561E+02  0.00000000000E+00 0. -1.
         21    1    1    2  505  502  0.11066278226E+03  0.37931876280E+02  0.29738912504E+02  0.12070410736E+03  0.00000000000E+00 0. -1.
          1    1    1    2  501    0 -0.35881454782E+02 -0.14753130097E+03  0.71030181385E+03  0.72634814677E+03  0.00000000000E+00 0. -1.
<scales pt_clust_3="102.27340" pt_clust_4="48.71012" pt_clust_5="139.29942" pt_clust_6="14000.00000"></scales>
<clustering>
<clus scale="   48.710">  2  4  1 -1</clus>
<clus scale="  102.273">  2  3  1 -1</clus>
<clus scale="  139.299">  2  5  1 -1</clus>
<clus scale="   48.710">  2  3  1 -1</clus>
</clustering>
</event>
<event>
 6    0  0.1230761E+002  0.7881833E+02  0.7546771E-02  0.1332439E+00
          2   -1    0    0  504    0 -0.00000000000E+00  0.00000000000E+00  0.18939220003E+04  0.18939220003E+04  0.00000000000E+00 0. -1.
         21   -1    0    0  505  502  0.00000000000E+00 -0.00000000000E+00 -0.43226250995E+03  0.43226250995E+03  0.00000000000E+00 0.  1.
         21    1    1    2  503  501  0.42420989399E+02 -0.58554369900E+02  0.61218619989E+02  0.94741089340E+02  0.00000000000E+00 0.  1.
         21    1    1    2  504  502 -0.17187046438E+02  0.71610842947E+02 -0.35719967510E+03  0.36471237337E+03  0.00000000000E+00 0.  1.
         21    1    1    2  505  503  0.18283604776E+02  0.52741242007E+02 -0.39168169029E+02  0.68191453109E+02  0.00000000000E+00 0.  1.
          2    1    1    2  501    0 -0.43517547736E+02 -0.65797715055E+02  0.17968087145E+04  0.17985395945E+04  0.00000000000E+00 0. -1.
<scales pt_clust_3="70.91887" pt_clust_4="78.81833" pt_clust_5="55.82051" pt_clust_6="14000.00000"></scales>
<clustering>
<clus scale="   55.821">  2  5  1 -1</clus>
<clus scale="   70.919">  2  3  1 -1</clus>
<clus scale="   78.818">  2  4  1 -1</clus>
<clus scale="   55.821">  2  3  1 -1</clus>
</clustering>
</event>
<event>
 6    0  0.1230761E+002  0.1025444E+03  0.7546771E-02  0.1275035E+00
         21   -1    0    0  504  502  0.00000000000E+00  0.00000000000E+00  0.12067776954E+03  0.12067776954E+03  0.00000000000E+00 0. -1.
         -4   -1    0    0    0  501 -0.00000000000E+00 -0.00000000000E+00 -0.56064592574E+03  0.56064592574E+03  0.00000000000E+00 0. -1.
         21    1    1    2  503  502  0.54081425155E+02 -0.19070403555E+02  0.68566808259E+02  0.89386173614E+02  0.00000000000E+00 0. -1.
         21    1    1    2  504  505  0.52475632874E+02  0.14280079930E+02 -0.40361536242E+01  0.54533505888E+02  0.00000000000E+00 0. -1.
         21    1    1    2  505  501  0.33282250859E+02  0.26437081181E+02 -0.92945161608E+02  0.10220288915E+03  0.00000000000E+00 0.  1.
         -4    1    1    2    0  503 -0.13983930889E+03 -0.21646757556E+02 -0.41155364923E+03  0.43520112662E+03  0.00000000000E+00 0. -1.
<scales pt_clust_3="102.54437" pt_clust_4="56.86376" pt_clust_5="42.50444" pt_clust_6="14000.00000"></scales>
<clustering>
<clus scale="   42.504">  2  5  1 -1</clus>
<clus scale="   56.864">  1  4  2 -1</clus>
<clus scale="  102.544">  1  3  2 -1</clus>
<clus scale="   56.864">  1  3  2 -1</clus>
</clustering>
</event>
<event>
 6    0  0.1230761E+002  0.3222180E+03  0.7546771E-02  0.1074633E+00
         21   -1    0    0  501  502  0.00000000000E+00  0.00000000000E+00  0.11464831836E+03  0.11464831836E+03  0.00000000000E+00 0.  1.
          2   -1    0    0  503    0 -0.00000000000E+00 -0.00000000000E+00 -0.35308235455E+04  0.35308235455E+04  0.00000000000E+00 0. -1.
         21    1    1    2  503  505 -0.33204722714E+02 -0.32909201406E+02 -0.14816856675E+03  0.15536889431E+03  0.00000000000E+00 0.  1.
         21    1    1    2  504  502 -0.25696869299E+02  0.12478245159E+03 -0.61055006383E+02  0.14127527427E+03  0.00000000000E+00 0.  1.
         21    1    1    2  505  504 -0.92978808117E+02  0.17268126394E+03 -0.87942970701E+02  0.21493683670E+03  0.00000000000E+00 0.  1.
          2    1    1    2  501    0  0.15188040013E+03 -0.26455451412E+03 -0.31190086833E+04  0.31338908586E+04  0.00000000000E+00 0. -1.
<scales pt_clust_3="46.75007" pt_clust_4="37.09330" pt_clust_5="37.09330" pt_clust_6="318.91431"></scales>
<clustering>
<clus scale="   37.093">  4  5 -1 -1</clus>
<clus scale="   46.750">  2  3  1 -1</clus>
<clus scale="  318.914">  2  6  1 -1</clus>
<clus scale="  322.218">  1  3  2 -1</clus>
</clustering>
</event>
<event>
 6    0  0.1230761E+002  0.1341797E+03  0.7546771E-02  0.1221382E+00
          2   -1    0    0  503    0 -0.00000000000E+00  0.00000000000E+00  0.13645865429E+04  0.13645865429E+04  0.00000000000E+00 0.  1.
         21   -1    0    0  505  502  0.00000000000E+00 -0.00000000000E+00 -0.20688723927E+03  0.20688723927E+03  0.00000000000E+00 0. -1.
         21    1    1    2  503  504 -0.53919791944E+02 -0.24921710721E+02  0.22923303092E+03  0.23680417668E+03  0.00000000000E+00 0.  1.
         21    1    1    2  504  502  0.47787473957E+01  0.10679757329E+03 -0.16335929774E+03  0.19523016735E+03  0.00000000000E+00 0. -1.
         21    1    1    2  505  501  0.27445116941E+02  0.26016627984E+02 -0.40671343531E+01  0.38034733566E+02  0.00000000000E+00 0. -1.
          2    1    1    2  501    0  0.21695927607E+02 -0.10789249055E+03  0.10958927048E+04  0.11014047046E+04  0.00000000000E+00 0.  1.
<scales pt_clust_3="58.67132" pt_clust_4="134.17967" pt_clust_5="37.81665" pt_clust_6="14000.00000"></scales>
<clustering>
<clus scale="   37.817">  2  5  1 -1</clus>
<clus scale="   58.671">  1  3  2 -1</clus>
<clus scale="  134.180">  2  4  1 -1</clus>
<clus scale="   37.817">  2  3  1 -1</clus>
</clustering>
</event>
<event>
 6    0  0.1230761E+002  0.6381859E+02  0.7546771E-02  0.1382471E+00
         21   -1    0    0  505  502  0.00000000000E+00  0.00000000000E+00  0.15443744037E+03  0.15443744037E+03  0.00000000000E+00 0.  1.
          2   -1    0    0  503    0 -0.00000000000E+00 -0.00000000000E+00 -0.45977316805E+03  0.45977316805E+03  0.00000000000E+00 0. -1.
         21    1    1    2  503  502 -0.51797168830E+02 -0.30975142077E+02 -0.29035486983E+02  0.66973618909E+02  0.00000000000E+00 0.  1.
         21    1    1    2  504  501  0.82048790267E+02  0.33390740488E+02  0.75488782796E+02  0.11638514451E+03  0.00000000000E+00 0.  1.
         21    1    1    2  505  504  0.20634242868E+02 -0.41782957545E+02  0.22024124728E+02  0.51542696766E+02  0.00000000000E+00 0.  1.
          2    1    1    2  501    0 -0.50885864304E+02  0.39367359134E+02 -0.37381314822E+03  0.37930914824E+03  0.00000000000E+00 0. -1.
<scales pt_clust_3="61.41293" pt_clust_4="63.81859" pt_clust_5="46.60030" pt_clust_6="14000.00000"></scales>
<clustering>
<clus scale="   46.600">  1  5  2 -1</clus>
<clus scale="   61.413">  1  3  2 -1</clus>
<clus scale="   63.819">  1  4  2 -1</clus>
<clus scale="   46.600">  1  3  2 -1</clus>
</clustering>
</event>
<event>
 6    0  0.1230761E+002  0.1372281E+03  0.7546771E-02  0.1217108E+00
         -1   -1    0    0    0  501 -0.00000000000E+00  0.00000000000E+00  0.78875649207E+02  0.78875649207E+02  0.00000000000E+00 0. -1.
         21   -1    0    0  504  502  0.00000000000E+00 -0.00000000000E+00 -0.97974620124E+03  0.97974620124E+03  0.00000000000E+00 0.  1.
         21    1    1    2  503  501  0.13118345470E+01 -0.37025408965E+02  0.34490813839E+02  0.50618356929E+02  0.00000000000E+00 0. -1.
         21    1    1    2  504  503 -0.58590523454E+02  0.22962920954E+02 -0.21779519507E+03  0.22670441587E+03  0.00000000000E+00 0.  1.
         21    1    1    2  505  502 -0.31576403613E+02  0.10922659608E+03 -0.58327994669E+03  0.59425837375E+03  0.00000000000E+00 0.  1.
         -1    1    1    2    0  505  0.88855092520E+02 -0.95164108068E+02 -0.13428622410E+03  0.18704070390E+03  0.00000000000E+00 0. -1.
<scales pt_clust_3="37.04864" pt_clust_4="61.26491" pt_clust_5="14000.00000" pt_clust_6="137.22808"></scales>
<clustering>
<clus scale="   37.049">  1  3  2 -1</clus>
<clus scale="   61.265">  2  4  1 -1</clus>
<clus scale="  137.228">  1  6  2 -1</clus>
<clus scale="   61.265">  2  3  1 -1</clus>
</clustering>
</event>
<event>
 6    0  0.1230761E+002  0.1111226E+03  0.7546771E-02  0.1258505E+00
         21   -1    0    0  501  502  0.00000000000E+00  0.00000000000E+00  0.10938502612E+03  0.10938502612E+03  0.00000000000E+00 0. -1.
         -1   -1    0    0    0  501 -0.00000000000E+00 -0.00000000000E+00 -0.46596928373E+03  0.46596928373E+03  0.00000000000E+00 0.  1.
         21    1    1    2  503  505  0.46865606457E+02 -0.32019065787E+02  0.23284165443E+01  0.56806928856E+02  0.00000000000E+00 0. -1.
         21    1    1    2  504  503 -0.10931488402E+03 -0.27992996769E+01 -0.30690548951E+03  0.32580448038E+03  0.00000000000E+00 0.  1.
         21    1    1    2  505  502  0.28300045435E+02 -0.39136261636E+02  0.45040767254E+02  0.66039459880E+02  0.00000000000E+00 0. -1.
         -1    1    1    2    0  504  0.34149232125E+02  0.73954627100E+02 -0.97047951899E+02  0.12670344073E+03  0.00000000000E+00 0.  1.
<scales pt_clust_3="42.61683" pt_clust_4="101.06326" pt_clust_5="42.61683" pt_clust_6="81.45831"></scales>
<clustering>
<clus scale="   42.617">  3  5 -1 -1</clus>
<clus scale="   81.458">  2  6  1 -1</clus>
<clus scale="  101.063">  2  4  1 -1</clus>
<clus scale="  111.123">  1  3  2 -1</clus>
</clustering>
</event>
<event>
 6    0  0.1230761E+002  0.8793903E+02  0.7546771E-02  0.1307921E+00
         21   -1    0    0  505  502  0.00000000000E+00  0.00000000000E+00  0.22726516426E+03  0.22726516426E+03  0.00000000000E+00 0.  1.
         -1   -1    0    0    0  501 -0.00000000000E+00 -0.00000000000E+00 -0.13262138302E+03  0.13262138302E+03  0.00000000000E+00 0.  1.
         21    1    1    2  503  502  0.25770545769E+02  0.17006744217E+02  0.19435468258E+02  0.36484076040E+02  0.00000000000E+00 0. -1.
         21    1    1    2  504  501  0.21515261810E+02 -0.70706331086E+02 -0.16803605092E+02  0.75793488444E+02  0.00000000000E+00 0.  1.
         21    1    1    2  505  504 -0.35031022087E+02 -0.54931639687E+02  0.11840675164E+03  0.13514738763E+03  0.00000000000E+00 0.  1.
         -1    1    1    2    0  503 -0.12254785491E+02  0.10863122656E+03 -0.26394833562E+02  0.11246159517E+03  0.00000000000E+00 0.  1.
<scales pt_clust_3="30.87637" pt_clust_4="87.93903" pt_clust_5="47.88963" pt_clust_6="14000.00000"></scales>
<clustering>
<clus scale="   30.876">  1  3  2 -1</clus>
<clus scale="   47.890">  1  5  2 -1</clus>
<clus scale="   87.939">  2  4  1 -1</clus>
<clus scale="   30.876">  1  3  2 -1</clus>
</clustering>
</event>
<event>
 6    0  0.1230761E+002  0.3902145E+03  0.7546771E-02  0.1047222E+00
          2   -1    0    0  504    0 -0.00000000000E+00  0.00000000000E+00  0.70989092197E+03  0.70989092197E+03  0.00000000000E+00 0.  1.
         21   -1    0    0  505  502  0.00000000000E+00 -0.00000000000E+00 -0.30742504635E+03  0.30742504635E+03  0.00000000000E+00 0. -1.
         21    1    1    2  503  502 -0.42639427073E+02 -0.28562156304E+03 -0.73396731984E+02  0.29796791485E+03  0.00000000000E+00 0. -1.
         21    1    1    2  504  503 -0.36021973215E+02 -0.61772268267E+02  0.45076464618E+02  0.84529777851E+02  0.00000000000E+00 0. -1.
         21    1    1    2  505  501 -0.46455626627E+02  0.15572886791E-01 -0.21308846327E+02  0.51109611812E+02  0.00000000000E+00 0. -1.
          2    1    1    2  501    0  0.12511702692E+03  0.34737825842E+03  0.45209498932E+03  0.58370866381E+03  0.00000000000E+00 0.  1.
<scales pt_clust_3="68.00881" pt_clust_4="68.00881" pt_clust_5="46.45563" pt_clust_6="365.56122"></scales>
<clustering>
<clus scale="   46.456">  2  5  1 -1</clus>
<clus scale="   68.009">  3  4 -1 -1</clus>
<clus scale="  365.561">  1  6  2 -1</clus>
<clus scale="   46.456">  2  3  1 -1</clus>
</clustering>
</event>
<event>
 6    0  0.1230761E+002  0.8678934E+02  0.7546771E-02  0.1310818E+00
         21   -1    0    0  505  502  0.00000000000E+00  0.00000000000E+00  0.16899970605E+04  0.16899970605E+04  0.00000000000E+00 0. -1.
          4   -1    0    0  504    0 -0.00000000000E+00 -0.00000000000E+00 -0.49999240549E+02  0.49999240549E+02  0.00000000000E+00 0. -1.
         21    1    1    2  503  502  0.31522277063E+02  0.10528989060E+03  0.15064408865E+04  0.15104448880E+04  0.00000000000E+00 0. -1.
         21    1    1    2  504  503 -0.63543804530E+02 -0.30766592089E+02  0.17961331903E+02  0.72849212258E+02  0.00000000000E+00 0. -1.
         21    1    1    2  505  501  0.18882800008E+02 -0.30680859576E+02  0.10316641737E+03  0.10927572903E+03  0.00000000000E+00 0. -1.
          4    1    1    2  501    0  0.13138727459E+02 -0.43842438935E+02  0.12429184194E+02  0.47426471835E+02  0.00000000000E+00 0. -1.
<scales pt_clust_3="86.78934" pt_clust_4="14000.00000" pt_clust_5="36.02604" pt_clust_6="46.42695"></scales>
<clustering>
<clus scale="   36.026">  1  5  2 -1</clus>
<clus scale="   46.427">  2  6  1 -1</clus>
<clus scale="   86.789">  1  3  2 -1</clus>
<clus scale="   36.026">  1  3  2 -1</clus>
</clustering>
</event>
<event>
 6    0  0.1230761E+002  0.9109646E+02  0.7546771E-02  0.1300218E+00
         21   -1    0    0  505  502  0.00000000000E+00  0.00000000000E+00  0.21699114604E+03  0.21699114604E+03  0.00000000000E+00 0.  1.
          1   -1    0    0  504    0 -0.00000000000E+00 -0.00000000000E+00 -0.62992036488E+03  0.62992036488E+03  0.00000000000E+00 0.  1.
         21    1    1    2  503  502 -0.46712041251E+02 -0.37156114126E+01  0.27170620433E+02  0.54166993462E+02  0.00000000000E+00 0.  1.
         21    1    1    2  504  503  0.10791184007E+03  0.80098320898E+02 -0.56011062557E+02  0.14559514197E+03  0.00000000000E+00 0.  1.
         21    1    1    2  505  501 -0.47903681235E+02 -0.14443746428E+02  0.12473574745E+03  0.13439639570E+03  0.00000000000E+00 0.  1.
          1    1    1    2  501    0 -0.13296117583E+02 -0.61938963057E+02 -0.50882452416E+03  0.51275297978E+03  0.00000000000E+00 0.  1.
<scales pt_clust_3="46.85958" pt_clust_4="91.09646" pt_clust_5="14000.00000" pt_clust_6="63.50165"></scales>
<clustering>
<clus scale="   46.860">  1  3  2 -1</clus>
<clus scale="   63.502">  2  6  1 -1</clus>
<clus scale="   91.096">  2  4  1 -1</clus>
<clus scale="   46.860">  1  3  2 -1</clus>
</clustering>
</event>
<event>
 6    0  0.1230761E+002  0.1215880E+03  0.7546771E-02  0.1240500E+00
          1   -1    0    0  503    0 -0.00000000000E+00  0.00000000000E+00  0.48946939661E+03  0.48946939661E+03  0.00000000000E+00 0. -1.
         21   -1    0    0  504  502  0.00000000000E+00 -0.00000000000E+00 -0.23439279433E+03  0.23439279433E+03  0.00000000000E+00 0.  1.
         21    1    1    2  503  502 -0.50394584659E+02  0.12757341912E+02  0.25377776687E+03  0.25904732945E+03  0.00000000000E+00 0. -1.
         21    1    1    2  504  505  0.25953054516E+02  0.36048017725E+02 -0.41166194156E+02  0.60561342140E+02  0.00000000000E+00 0.  1.
         21    1    1    2  505  501  0.65701361042E+02  0.29042915185E+02 -0.16439912450E+03  0.17940800400E+03  0.00000000000E+00 0.  1.
          1    1    1    2  501    0 -0.41259830899E+02 -0.77848274822E+02  0.20686415406E+03  0.22484551535E+03  0.00000000000E+00 0. -1.
<scales pt_clust_3="51.98427" pt_clust_4="40.79058" pt_clust_5="40.79058" pt_clust_6="109.96737"></scales>
<clustering>
<clus scale="   40.791">  4  5 -1 -1</clus>
<clus scale="   51.984">  1  3  2 -1</clus>
<clus scale="  109.967">  1  6  2 -1</clus>
<clus scale="  121.588">  2  3  1 -1</clus>
</clustering>
</event>
<event>
 6    0  0.1230761E+002  0.1901794E+03  0.7546771E-02  0.1158300E+00
          2   -1    0    0  505    0 -0.00000000000E+00  0.00000000000E+00  0.85599377084E+03  0.85599377084E+03  0.00000000000E+00 0. -1.
         21   -1    0    0  503  502  0.00000000000E+00 -0.00000000000E+00 -0.90916489468E+02  0.90916489468E+02  0.00000000000E+00 0. -1.
         21    1    1    2  503  504  0.45434664257E+02 -0.10531236684E+03  0.10230586698E+02  0.11515063278E+03  0.00000000000E+00 0. -1.
         21    1    1    2  504  501  0.13062267863E+02 -0.70820585617E+02  0.37141463043E+02  0.81028800224E+02  0.00000000000E+00 0. -1.
         21    1    1    2  505  502 -0.30819479988E+02 -0.85079318708E+01  0.14003030998E+03  0.14363395477E+03  0.00000000000E+00 0.  1.
          2    1    1    2  501    0 -0.27677452132E+02  0.18464088433E+03  0.57767492165E+03  0.60709687252E+03  0.00000000000E+00 0. -1.
<scales pt_clust_3="33.71191" pt_clust_4="33.71191" pt_clust_5="31.97226" pt_clust_6="185.39323"></scales>
<clustering>
<clus scale="   31.972">  1  5  2 -1</clus>
<clus scale="   33.712">  3  4 -1 -1</clus>
<clus scale="  185.393">  1  6  2 -1</clus>
<clus scale="  190.179">  2  3  1 -1</clus>
</clustering>
</event>
<event>
 6    0  0.1230761E+002  0.1124294E+03  0.7546771E-02  0.1256136E+00
         21   -1    0    0  501  502  0.00000000000E+00  0.00000000000E+00  0.11575613931E+04  0.11575613931E+04  0.00000000000E+00 0. -1.
          2   -1    0    0  504    0 -0.00000000000E+00 -0.00000000000E+00 -0.10705232406E+04  0.10705232406E+04  0.00000000000E+00 0.  1.
         21    1    1    2  503  505  0.47172600005E+02  0.31451738054E+02  0.51432692722E+03  0.51744241620E+03  0.00000000000E+00 0. -1.
         21    1    1    2  504  503  0.33686881928E+02  0.16901133141E+02 -0.54793042687E+02  0.66503622776E+02  0.00000000000E+00 0. -1.
         21    1    1    2  505  502  0.50293527094E+02 -0.21967241972E+02  0.63018612763E+03  0.63257138257E+03  0.00000000000E+00 0. -1.
          2    1    1    2  501    0 -0.13115300903E+03 -0.26385629223E+02 -0.10026818596E+04  0.10115672122E+04  0.00000000000E+00 0.  1.
<scales pt_clust_3="54.16180" pt_clust_4="37.68892" pt_clust_5="54.16180" pt_clust_6="98.02229"></scales>
<clustering>
<clus scale="   37.689">  2  4  1 -1</clus>
<clus scale="   54.162">  3  5 -1 -1</clus>
<clus scale="   98.022">  2  6  1 -1</clus>
<clus scale="  112.429">  1  3  2 -1</clus>
</clustering>
</event>
<event>
 6    0  0.1230761E+002  0.9244597E+02  0.7546771E-02  0.1297034E+00
          1   -1    0    0  504    0 -0.00000000000E+00  0.00000000000E+00  0.18728839582E+04  0.18728839582E+04  0.00000000000E+00 0. -1.
         21   -1    0    0  501  502  0.00000000000E+00 -0.00000000000E+00 -0.67169354271E+02  0.67169354271E+02  0.00000000000E+00 0.  1.
         21    1    1    2  503  505  0.59132500141E+02 -0.31581864602E+02  0.75391681880E+02  0.10088593778E+03  0.00000000000E+00 0.  1.
         21    1    1    2  504  503  0.25280806177E+02  0.49216416614E+02  0.39557225051E+03  0.39942305917E+03  0.00000000000E+00 0.  1.
         21    1    1    2  505  502 -0.10324948533E+01 -0.54863917473E+02 -0.36211220156E+02  0.65744718049E+02  0.00000000000E+00 0.  1.
          1    1    1    2  501    0 -0.83380811464E+02  0.37229365460E+02  0.13709618917E+04  0.13739995975E+04  0.00000000000E+00 0. -1.
<scales pt_clust_3="14000.00000" pt_clust_4="49.55356" pt_clust_5="54.87363" pt_clust_6="92.44597"></scales>
<clustering>
<clus scale="   54.874">  2  5  1 -1</clus>
<clus scale="   49.554">  1  4  2 -1</clus>
<clus scale="   92.446">  1  6  2 -1</clus>
<clus scale="   54.874">  2  3  1 -1</clus>
</clustering>
</event>
<event>
 6    0  0.1230761E+002  0.1010621E+03  0.7546771E-02  0.1278078E+00
         21   -1    0    0  501  502  0.00000000000E+00  0.00000000000E+00  0.86977592739E+02  0.86977592739E+02  0.00000000000E+00 0.  1.
          1   -1    0    0  503    0 -0.00000000000E+00 -0.00000000000E+00 -0.63816382889E+03  0.63816382889E+03  0.00000000000E+00 0.  1.
         21    1    1    2  503  504 -0.22261528806E+02 -0.63465671077E+02 -0.11124662771E+03  0.12999722784E+03  0.00000000000E+00 0. -1.
         21    1    1    2  504  505  0.12188917346E+03 -0.28653024143E+02 -0.39299705104E+02  0.13123426847E+03  0.00000000000E+00 0.  1.
         21    1    1    2  505  502 -0.83042063117E+02  0.33808063510E+01 -0.40172934162E+02  0.92310772598E+02  0.00000000000E+00 0.  1.
          1    1    1    2  501    0 -0.16585581536E+02  0.88737888868E+02 -0.36046696917E+03  0.37159915272E+03  0.00000000000E+00 0.  1.
<scales pt_clust_3="67.25673" pt_clust_4="101.06210" pt_clust_5="14000.00000" pt_clust_6="54.48118"></scales>
<clustering>
<clus scale="   67.257">  2  3  1 -1</clus>
<clus scale="   54.481">  2  6  1 -1</clus>
<clus scale="  101.062">  2  4  1 -1</clus>
<clus scale="  101.062">  1  3  2 -1</clus>
</clustering>
</event>
<event>
 6    0  0.1230761E+002  0.1086596E+03  0.7546771E-02  0.1263072E+00
         21   -1    0    0  503  502  0.00000000000E+00  0.00000000000E+00  0.53931670434E+02  0.53931670434E+02  0.00000000000E+00 0. -1.
          1   -1    0    0  505    0 -0.00000000000E+00 -0.00000000000E+00 -0.10250363255E+04  0.10250363255E+04  0.00000000000E+00 0. -1.
         21    1    1    2  503  501  0.35751340368E+02 -0.96176942527E+01 -0.58390682345E+02  0.69138485416E+02  0.00000000000E+00 0. -1.
         21    1    1    2  504  502  0.68371536712E+02 -0.37035526451E+02  0.86280593056E+01  0.78235162550E+02  0.00000000000E+00 0. -1.
         21    1    1    2  505  504  0.10767736379E+01  0.30810364850E+02 -0.17252621969E+03  0.17525904971E+03  0.00000000000E+00 0. -1.
          1    1    1    2  501    0 -0.10519965072E+03  0.15842855853E+02 -0.74881581234E+03  0.75633529826E+03  0.00000000000E+00 0. -1.
<scales pt_clust_3="36.56995" pt_clust_4="108.65962" pt_clust_5="30.82917" pt_clust_6="14000.00000"></scales>
<clustering>
<clus scale="   30.829">  2  5  1 -1</clus>
<clus scale="   36.570">  1  3  2 -1</clus>
<clus scale="  108.660">  1  4  2 -1</clus>
<clus scale="   36.570">  1  3  2 -1</clus>
</clustering>
</event>
<event>
 6    0  0.1230761E+002  0.1468162E+03  0.7546771E-02  0.1204441E+00
          2   -1    0    0  503    0 -0.00000000000E+00  0.00000000000E+00  0.12768872564E+04  0.12768872564E+04  0.00000000000E+00 0. -1.
         21   -1    0    0  504  502  0.00000000000E+00 -0.00000000000E+00 -0.26258184329E+03  0.26258184329E+03  0.00000000000E+00 0. -1.
         21    1    1    2  503  505  0.31990759613E+01  0.85616502231E+02  0.96792868137E+02  0.12926437585E+03  0.00000000000E+00 0. -1.
         21    1    1    2  504  501  0.45101482788E+02  0.15260431143E+02 -0.15237572325E+03  0.15964142803E+03  0.00000000000E+00 0. -1.
         21    1    1    2  505  502  0.70141043468E+01  0.62360197757E+02 -0.72132950376E+02  0.95609384759E+02  0.00000000000E+00 0.  1.
          2    1    1    2  501    0 -0.55314663096E+02 -0.16323713113E+03  0.11420212186E+04  0.11549539110E+04  0.00000000000E+00 0. -1.
<scales pt_clust_3="146.81615" pt_clust_4="47.61328" pt_clust_5="85.66107" pt_clust_6="14000.00000"></scales>
<clustering>
<clus scale="   47.613">  2  4  1 -1</clus>
<clus scale="   85.661">  2  5  1 -1</clus>
<clus scale="  146.816">  2  3  1 -1</clus>
<clus scale="   47.613">  2  3  1 -1</clus>
</clustering>
</event>
<event>
 6    0  0.1230761E+002  0.1109281E+03  0.7546771E-02  0.1258861E+00
         21   -1    0    0  504  502  0.00000000000E+00  0.00000000000E+00  0.91257312387E+01  0.91257312387E+01  0.00000000000E+00 0. -1.
          2   -1    0    0  505    0 -0.00000000000E+00 -0.00000000000E+00 -0.27278177001E+04  0.27278177001E+04  0.00000000000E+00 0.  1.
         21    1    1    2  503  501 -0.40503568184E+02  0.67901130841E+02 -0.81224810566E+03  0.81608705893E+03  0.00000000000E+00 0.  1.
         21    1    1    2  504  503  0.12679068214E+02  0.49807661441E+02 -0.29996421036E+03  0.30433548825E+03  0.00000000000E+00 0.  1.
         21    1    1    2  505  502  0.75519212692E+02 -0.46587134516E+02 -0.61780761700E+03  0.62414722960E+03  0.00000000000E+00 0. -1.
          2    1    1    2  501    0 -0.47694712721E+02 -0.71121657766E+02 -0.98867203584E+03  0.99237365456E+03  0.00000000000E+00 0.  1.
<scales pt_clust_3="49.04886" pt_clust_4="49.04886" pt_clust_5="92.75859" pt_clust_6="85.63338"></scales>
<clustering>
<clus scale="   49.049">  3  4 -1 -1</clus>
<clus scale="   85.633">  2  6  1 -1</clus>
<clus scale="   92.759">  1  5  2 -1</clus>
<clus scale="   92.759">  1  3  2 -1</clus>
</clustering>
</event>
<event>
 6    0  0.1230761E+002  0.1604365E+03  0.7546771E-02  0.1188205E+00
          2   -1    0    0  505    0 -0.00000000000E+00  0.00000000000E+00  0.95359786477E+03  0.95359786477E+03  0.00000000000E+00 0.  1.
         21   -1    0    0  501  502  0.00000000000E+00 -0.00000000000E+00 -0.50058523854E+03  0.50058523854E+03  0.00000000000E+00 0. -1.
         21    1    1    2  503  504  0.47150226825E+02 -0.91389101281E+02 -0.37484624144E+03  0.38869630362E+03  0.00000000000E+00 0. -1.
         21    1    1    2  504  502  0.38364138176E+02 -0.33765179024E+02 -0.97314474287E+02  0.10991815736E+03  0.00000000000E+00 0.  1.
         21    1    1    2  505  503  0.37853991022E+02  0.98489577959E+01  0.46256760899E+02  0.60577343411E+02  0.00000000000E+00 0. -1.
          2    1    1    2  501    0 -0.12336835602E+03  0.11530532251E+03  0.87891658106E+03  0.89499129891E+03  0.00000000000E+00 0.  1.
<scales pt_clust_3="36.66049" pt_clust_4="36.66049" pt_clust_5="39.11428" pt_clust_6="151.77462"></scales>
<clustering>
<clus scale="   36.660">  3  4 -1 -1</clus>
<clus scale="   39.114">  1  5  2 -1</clus>
<clus scale="  151.775">  1  6  2 -1</clus>
<clus scale="  160.437">  2  3  1 -1</clus>
</clustering>
</event>
<event>
 6    0  0.1230761E+002  0.1528663E+03  0.7546771E-02  0.1196995E+00
         21   -1    0    0  504  502  0.00000000000E+00  0.00000000000E+00  0.10056853066E+03  0.10056853066E+03  0.00000000000E+00 0.  1.
          2   -1    0    0  503    0 -0.00000000000E+00 -0.00000000000E+00 -0.36130137655E+04  0.36130137655E+04  0.00000000000E+00 0. -1.
         21    1    1    2  503  505 -0.22442250828E+02 -0.20469451393E+02 -0.20546053100E+03  0.20769372370E+03  0.00000000000E+00 0.  1.
         21    1    1    2  504  501 -0.12846477462E+03  0.95713154122E+01  0.48592010713E+02  0.13768076083E+03  0.00000000000E+00 0.  1.
         21    1    1    2  505  502 -0.22849285832E+02 -0.30077113405E+02 -0.88074146715E+02  0.95832029789E+02  0.00000000000E+00 0.  1.
          2    1    1    2  501    0  0.17375631129E+03  0.40975249386E+02 -0.32675025679E+04  0.32723757819E+04  0.00000000000E+00 0. -1.
<scales pt_clust_3="30.37520" pt_clust_4="152.86630" pt_clust_5="38.57872" pt_clust_6="14000.00000"></scales>
<clustering>
<clus scale="   30.375">  2  3  1 -1</clus>
<clus scale="   38.579">  1  5  2 -1</clus>
<clus scale="  152.866">  1  4  2 -1</clus>
<clus scale="   38.579">  1  3  2 -1</clus>
</clustering>
</event>
<event>
 6    0  0.1230761E+002  0.1407171E+03  0.7546771E-02  0.1212367E+00
          2   -1    0    0  504    0 -0.00000000000E+00  0.00000000000E+00  0.67708902668E+03  0.67708902668E+03  0.00000000000E+00 0. -1.
         21   -1    0    0  505  502  0.00000000000E+00 -0.00000000000E+00 -0.15091262608E+03  0.15091262608E+03  0.00000000000E+00 0.  1.
         21    1    1    2  503  502  0.67048022175E+01 -0.35008764092E+02  0.41938945156E+01  0.35890899783E+02  0.00000000000E+00 0. -1.
         21    1    1    2  504  503  0.13462862855E+02 -0.27988447760E+02  0.24500452473E+03  0.24696521825E+03  0.00000000000E+00 0. -1.
         21    1    1    2  505  501 -0.64624363389E+02 -0.94455897627E+02 -0.88529212937E+02  0.14469155636E+03  0.00000000000E+00 0.  1.
          2    1    1    2  501    0  0.44456698316E+02  0.15745310948E+03  0.36550719429E+03  0.40045397836E+03  0.00000000000E+00 0. -1.
<scales pt_clust_3="37.04259" pt_clust_4="31.05804" pt_clust_5="14000.00000" pt_clust_6="140.71708"></scales>
<clustering>
<clus scale="   31.058">  1  4  2 -1</clus>
<clus scale="   37.043">  2  3  1 -1</clus>
<clus scale="  140.717">  1  6  2 -1</clus>
<clus scale="   37.043">  2  3  1 -1</clus>
</clustering>
</event>
<event>
 6    0  0.1230761E+002  0.1008304E+03  0.7546771E-02  0.1278559E+00
          2   -1    0    0  505    0 -0.00000000000E+00  0.00000000000E+00  0.29416275891E+04  0.29416275891E+04  0.00000000000E+00 0. -1.
         21   -1    0    0  504  502  0.00000000000E+00 -0.00000000000E+00 -0.56076814443E+02  0.56076814443E+02  0.00000000000E+00 0.  1.
         21    1    1    2  503  502  0.25356424780E+02 -0.37843291138E+02 -0.34833424600E+02  0.57344837877E+02  0.00000000000E+00 0.  1.
         21    1    1    2  504  501 -0.11013817659E+03 -0.26565588963E+02  0.40839889620E+03  0.42382284846E+03  0.00000000000E+00 0.  1.
         21    1    1    2  505  503  0.87216012857E+02  0.14428339698E+01  0.16012455758E+04  0.16036196896E+04  0.00000000000E+00 0. -1.
          2    1    1    2  501    0 -0.24342610482E+01  0.62966046131E+02  0.91073972721E+03  0.91291702761E+03  0.00000000000E+00 0. -1.
<scales pt_clust_3="45.55286" pt_clust_4="14000.00000" pt_clust_5="100.83039" pt_clust_6="58.84208"></scales>
<clustering>
<clus scale="   45.553">  2  3  1 -1</clus>
<clus scale="   58.842">  1  6  2 -1</clus>
<clus scale="  100.830">  1  5  2 -1</clus>
<clus scale="   45.553">  2  3  1 -1</clus>
</clustering>
</event>
<event>
 6    0  0.1230761E+002  0.1592261E+03  0.7546771E-02  0.1189573E+00
         21   -1    0    0  504  502  0.00000000000E+00  0.00000000000E+00  0.61737898597E+03  0.61737898597E+03  0.00000000000E+00 0. -1.
          4   -1    0    0  505    0 -0.00000000000E+00 -0.00000000000E+00 -0.17005004193E+03  0.17005004193E+03  0.00000000000E+00 0. -1.
         21    1    1    2  503  501 -0.73680453102E+02 -0.89837360858E+02  0.25415436209E+03  0.27945303782E+03  0.00000000000E+00 0. -1.
         21    1    1    2  504  503 -0.34840510322E+00 -0.37183345487E+02  0.14018001131E+03  0.14502812878E+03  0.00000000000E+00 0. -1.
         21    1    1    2  505  502  0.76220568963E+02 -0.45178394768E+02 -0.99279566490E+02  0.13306800821E+03  0.00000000000E+00 0. -1.
          4    1    1    2  501    0 -0.21917107574E+01  0.17219910111E+03  0.15227413713E+03  0.22987985309E+03  0.00000000000E+00 0. -1.
<scales pt_clust_3="31.34601" pt_clust_4="31.34601" pt_clust_5="88.60396" pt_clust_6="149.27426"></scales>
<clustering>
<clus scale="   31.346">  3  4 -1 -1</clus>
<clus scale="   88.604">  2  5  1 -1</clus>
<clus scale="  149.274">  2  6  1 -1</clus>
<clus scale="  159.226">  1  3  2 -1</clus>
</clustering>
</event>
<event>
 6    0  0.1230761E+002  0.1051363E+03  0.7546771E-02  0.1269851E+00
         21   -1    0    0  503  502  0.00000000000E+00  0.00000000000E+00  0.31236660823E+02  0.31236660823E+02  0.00000000000E+00 0. -1.
          2   -1    0    0  504    0 -0.00000000000E+00 -0.00000000000E+00 -0.18450597336E+04  0.18450597336E+04  0.00000000000E+00 0. -1.
         21    1    1    2  503  501  0.74349092040E+02  0.70775058016E+02 -0.10565899400E+03  0.14731164019E+03  0.00000000000E+00 0. -1.
         21    1    1    2  504  505  0.43465098906E+02 -0.18099212050E+02 -0.48542745940E+03  0.48770545890E+03  0.00000000000E+00 0. -1.
         21    1    1    2  505  502 -0.54699758637E+02  0.57970399547E+02 -0.32933897129E+03  0.33884626135E+03  0.00000000000E+00 0.  1.
          2    1    1    2  501    0 -0.63114432309E+02 -0.11064624551E+03 -0.89339764807E+03  0.90243303397E+03  0.00000000000E+00 0. -1.
<scales pt_clust_3="105.13628" pt_clust_4="47.08287" pt_clust_5="69.29093" pt_clust_6="14000.00000"></scales>
<clustering>
<clus scale="   47.083">  2  4  1 -1</clus>
<clus scale="   69.291">  2  5  1 -1</clus>
<clus scale="  105.136">  1  3  2 -1</clus>
<clus scale="  105.136">  1  3  2 -1</clus>
</clustering>
</event>
<event>
 6    0  0.1230761E+002  0.1051729E+03  0.7546771E-02  0.1269779E+00
         21   -1    0    0  501  502  0.00000000000E+00  0.00000000000E+00  0.52120591349E+03  0.52120591349E+03  0.00000000000E+00 0. -1.
          1   -1    0    0  505    0 -0.00000000000E+00 -0.00000000000E+00 -0.13046620253E+03  0.13046620253E+03  0.00000000000E+00 0.  1.
         21    1    1    2  503  502  0.48495721458E+02  0.17986056528E+02  0.29328972536E+03  0.29781570850E+03  0.00000000000E+00 0. -1.
         21    1    1    2  504  503  0.27814863582E+02  0.40286772091E+02  0.15846739488E+03  0.16585718520E+03  0.00000000000E+00 0. -1.
         21    1    1    2  505  504  0.35798588928E+02 -0.21870857019E+02  0.18463892246E+02  0.45834361268E+02  0.00000000000E+00 0.  1.
          1    1    1    2  501    0 -0.11210917397E+03 -0.36401971600E+02 -0.79481301529E+02  0.14216486105E+03  0.00000000000E+00 0.  1.
<scales pt_clust_3="39.98315" pt_clust_4="39.98315" pt_clust_5="41.95084" pt_clust_6="96.81068"></scales>
<clustering>
<clus scale="   39.983">  3  4 -1 -1</clus>
<clus scale="   41.951">  2  5  1 -1</clus>
<clus scale="   96.811">  2  6  1 -1</clus>
<clus scale="  105.173">  1  3  2 -1</clus>
</clustering>
</event>
<event>
 6    0  0.1230761E+002  0.2007838E+03  0.7546771E-02  0.1149079E+00
         21   -1    0    0  504  502  0.00000000000E+00  0.00000000000E+00  0.85069335698E+01  0.85069335698E+01  0.00000000000E+00 0.  1.
          2   -1    0    0  503    0 -0.00000000000E+00 -0.00000000000E+00 -0.60166965757E+04  0.60166965757E+04  0.00000000000E+00 0. -1.
         21    1    1    2  503  502 -0.29248044472E+02 -0.14090831644E+02 -0.11053077388E+04  0.11057844262E+04  0.00000000000E+00 0. -1.
         21    1    1    2  504  505  0.61703204659E+02 -0.94976090203E+02 -0.91594119779E+03  0.92291712574E+03  0.00000000000E+00 0.  1.
         21    1    1    2  505  501  0.78085371148E+02 -0.40304246685E+02 -0.10384106794E+04  0.10421221122E+04  0.00000000000E+00 0.  1.
          2    1    1    2  501    0 -0.11054053134E+03  0.14937116853E+03 -0.29485300260E+04  0.29543798452E+04  0.00000000000E+00 0. -1.
<scales pt_clust_3="32.46536" pt_clust_4="54.90233" pt_clust_5="54.90233" pt_clust_6="190.44109"></scales>
<clustering>
<clus scale="   32.465">  2  3  1 -1</clus>
<clus scale="   54.902">  4  5 -1 -1</clus>
<clus scale="  190.441">  2  6  1 -1</clus>
<clus scale="  200.784">  1  3  2 -1</clus>
</clustering>
</event>
<event>
 6    0  0.1398456E+002  0.1470234E+03  0.7546771E-02  0.1204179E+00
          2   -1    0    0  504    0 -0.00000000000E+00  0.00000000000E+00  0.96781606366E+03  0.96781606366E+03  0.00000000000E+00 0.  1.
         21   -1    0    0  503  502  0.00000000000E+00 -0.00000000000E+00 -0.51558991351E+03  0.51558991351E+03  0.00000000000E+00 0. -1.
         21    1    1    2  503  501  0.37359336909E+02 -0.12199341190E+03 -0.45743015579E+03  0.47488994518E+03  0.00000000000E+00 0. -1.
         21    1    1    2  504  505 -0.17093371719E+02  0.27880094163E+02  0.34644768556E+02  0.47641819818E+02  0.00000000000E+00 0.  1.
         21    1    1    2  505  502  0.74100357608E+02  0.22136945154E+02 -0.51718241580E+00  0.77338055419E+02  0.00000000000E+00 0. -1.
          2    1    1    2  501    0 -0.94366322798E+02  0.71976372581E+02  0.87552871980E+03  0.88353615675E+03  0.00000000000E+00 0.  1.
<scales pt_clust_3="14000.00000" pt_clust_4="32.70295" pt_clust_5="76.99939" pt_clust_6="147.02337"></scales>
<clustering>
<clus scale="   32.703">  1  4  2 -1</clus>
<clus scale="   76.999">  2  5  1 -1</clus>
<clus scale="  147.023">  1  6  2 -1</clus>
<clus scale="   76.999">  2  3  1 -1</clus>
</clustering>
</event>
<event>
 6    0  0.1230761E+002  0.1382551E+03  0.7546771E-02  0.1215696E+00
          1   -1    0    0  504    0 -0.00000000000E+00  0.00000000000E+00  0.22785419051E+04  0.22785419051E+04  0.00000000000E+00 0.  1.
         21   -1    0    0  501  502  0.00000000000E+00 -0.00000000000E+00 -0.23138024868E+02  0.23138024868E+02  0.00000000000E+00 0. -1.
         21    1    1    2  503  505  0.92903457594E+02 -0.39581118093E+02  0.27874854302E+03  0.29647675723E+03  0.00000000000E+00 0. -1.
         21    1    1    2  504  503 -0.10325738471E+03 -0.19792180249E+02  0.70859679726E+03  0.71635412960E+03  0.00000000000E+00 0.  1.
         21    1    1    2  505  502  0.31037348514E+02 -0.42859672913E+02  0.78166862946E+02  0.94394528590E+02  0.00000000000E+00 0.  1.
          1    1    1    2  501    0 -0.20683421395E+02  0.10223297126E+03  0.11898916770E+04  0.11944545145E+04  0.00000000000E+00 0.  1.
<scales pt_clust_3="41.16619" pt_clust_4="126.01791" pt_clust_5="41.16619" pt_clust_6="104.30429"></scales>
<clustering>
<clus scale="   41.166">  3  5 -1 -1</clus>
<clus scale="  104.304">  1  6  2 -1</clus>
<clus scale="  126.018">  1  4  2 -1</clus>
<clus scale="  138.255">  2  3  1 -1</clus>
</clustering>
</event>
<event>
 6    0  0.1230761E+002  0.7639729E+02  0.7546771E-02  0.1339598E+00
         21   -1    0    0  503  502  0.00000000000E+00  0.00000000000E+00  0.55432004189E+03  0.55432004189E+03  0.00000000000E+00 0. -1.
          1   -1    0    0  505    0 -0.00000000000E+00 -0.00000000000E+00 -0.45488353424E+03  0.45488353424E+03  0.00000000000E+00 0. -1.
         21    1    1    2  503  501  0.52659708613E+02  0.57666385244E+02  0.48633136666E+03  0.49256132115E+03  0.00000000000E+00 0. -1.
         21    1    1    2  504  502 -0.81223627451E+02 -0.56798610302E+01  0.30385702864E+02  0.86907015920E+02  0.00000000000E+00 0. -1.
         21    1    1    2  505  504  0.46379153492E+02  0.12379623941E+01 -0.20181921469E+03  0.20708344658E+03  0.00000000000E+00 0.  1.
          1    1    1    2  501    0 -0.17815234655E+02 -0.53224486608E+02 -0.21546134718E+03  0.22265179247E+03  0.00000000000E+00 0. -1.
<scales pt_clust_3="14000.00000" pt_clust_4="76.39729" pt_clust_5="46.39567" pt_clust_6="56.88989"></scales>
<clustering>
<clus scale="   46.396">  2  5  1 -1</clus>
<clus scale="   56.890">  2  6  1 -1</clus>
<clus scale="   76.397">  2  4  1 -1</clus>
<clus scale="   76.397">  1  3  2 -1</clus>
</clustering>
</event>
<event>
 6    0  0.1355373E+002  0.1331589E+03  0.7546771E-02  0.1222842E+00
         21   -1    0    0  503  502  0.00000000000E+00  0.00000000000E+00  0.36759167967E+03  0.36759167967E+03  0.00000000000E+00 0. -1.
          2   -1    0    0  505    0 -0.00000000000E+00 -0.00000000000E+00 -0.25333679613E+04  0.25333679613E+04  0.00000000000E+00 0.  1.
         21    1    1    2  503  501 -0.16593461624E+02 -0.41392238658E+02 -0.14334516160E+02  0.46841634721E+02  0.00000000000E+00 0. -1.
         21    1    1    2  504  502 -0.70346677106E+02 -0.60794256851E+02  0.34259014541E+03  0.35498254095E+03  0.00000000000E+00 0. -1.
         21    1    1    2  505  504  0.25822366322E+02  0.26035795389E+02 -0.22214432492E+03  0.22515052373E+03  0.00000000000E+00 0. -1.
          2    1    1    2  501    0  0.61117772407E+02  0.76150700121E+02 -0.22718875860E+04  0.22739849416E+04  0.00000000000E+00 0.  1.
<scales pt_clust_3="44.14752" pt_clust_4="133.15887" pt_clust_5="36.66957" pt_clust_6="14000.00000"></scales>
<clustering>
<clus scale="   36.670">  2  5  1 -1</clus>
<clus scale="   44.148">  1  3  2 -1</clus>
<clus scale="  133.159">  1  4  2 -1</clus>
<clus scale="   44.148">  1  3  2 -1</clus>
</clustering>
</event>
<event>
 6    0  0.1230761E+002  0.1113738E+03  0.7546771E-02  0.1258047E+00
         21   -1    0    0  501  502  0.00000000000E+00  0.00000000000E+00  0.15105176327E+02  0.15105176327E+02  0.00000000000E+00 0.  1.
          2   -1    0    0  503    0 -0.00000000000E+00 -0.00000000000E+00 -0.23935256402E+04  0.23935256402E+04  0.00000000000E+00 0. -1.
         21    1    1    2  503  504  0.80243670661E+01 -0.31209981976E+02 -0.26227305049E+03  0.26424535276E+03  0.00000000000E+00 0. -1.
         21    1    1    2  504  505 -0.44468193109E+02 -0.28342462473E+02 -0.39787785130E+03  0.40135707286E+03  0.00000000000E+00 0. -1.
         21    1    1    2  505  502  0.11826341487E+03  0.12738438892E+02 -0.31683568072E+03  0.33842776438E+03  0.00000000000E+00 0.  1.
          2    1    1    2  501    0 -0.81819588828E+02  0.46814005557E+02 -0.14014338814E+04  0.14046006265E+04  0.00000000000E+00 0. -1.
<scales pt_clust_3="32.22504" pt_clust_4="54.91135" pt_clust_5="14000.00000" pt_clust_6="111.37381"></scales>
<clustering>
<clus scale="   32.225">  2  3  1 -1</clus>
<clus scale="   54.911">  2  4  1 -1</clus>
<clus scale="  111.374">  2  6  1 -1</clus>
<clus scale="  111.374">  1  3  2 -1</clus>
</clustering>
</event>
<event>
 6    0  0.1230761E+002  0.5810107E+02  0.7546771E-02  0.1405978E+00
         21   -1    0    0  503  502  0.00000000000E+00  0.00000000000E+00  0.50494549477E+03  0.50494549477E+03  0.00000000000E+00 0. -1.
          1   -1    0    0  505    0 -0.00000000000E+00 -0.00000000000E+00 -0.13189396004E+03  0.13189396004E+03  0.00000000000E+00 0.  1.
         21    1    1    2  503  501  0.65293837531E+02 -0.62112757552E+02  0.41237104817E+03  0.42210325898E+03  0.00000000000E+00 0. -1.
         21    1    1    2  504  502 -0.31572214474E+02  0.17106911547E+02  0.43950515192E+02  0.56754726104E+02  0.00000000000E+00 0.  1.
         21    1    1    2  505  504 -0.69642332461E+02  0.41025065196E+01 -0.75828786537E+02  0.10303829336E+03  0.00000000000E+00 0.  1.
          1    1    1    2  501    0  0.35920709404E+02  0.40903339485E+02 -0.74412420941E+01  0.54943176365E+02  0.00000000000E+00 0.  1.
<scales pt_clust_3="58.10107" pt_clust_4="35.90893" pt_clust_5="14000.00000" pt_clust_6="54.05101"></scales>
<clustering>
<clus scale="   35.909">  1  4  2 -1</clus>
<clus scale="   54.051">  2  6  1 -1</clus>
<clus scale="   58.101">  1  3  2 -1</clus>
<clus scale="   35.909">  1  3  2 -1</clus>
</clustering>
</event>
<event>
 6    0  0.1230761E+002  0.1128840E+03  0.7546771E-02  0.1255320E+00
         21   -1    0    0  504  502  0.00000000000E+00  0.00000000000E+00  0.30202508502E+03  0.30202508502E+03  0.00000000000E+00 0.  1.
          2   -1    0    0  503    0 -0.00000000000E+00 -0.00000000000E+00 -0.47295069505E+03  0.47295069505E+03  0.00000000000E+00 0. -1.
         21    1    1    2  503  505  0.74427743801E+02  0.14428704404E+02 -0.88637265884E+02  0.11663722160E+03  0.00000000000E+00 0.  1.
         21    1    1    2  504  501 -0.97382543252E+02  0.23670940267E+01  0.23943366365E+03  0.25849070032E+03  0.00000000000E+00 0.  1.
         21    1    1    2  505  502 -0.24478443886E+02  0.28253036929E+02  0.26315592103E+02  0.45715847345E+02  0.00000000000E+00 0.  1.
          2    1    1    2  501    0  0.47433243336E+02 -0.45048835359E+02 -0.34803759990E+03  0.35413201081E+03  0.00000000000E+00 0. -1.
<scales pt_clust_3="14000.00000" pt_clust_4="112.88402" pt_clust_5="37.38219" pt_clust_6="64.99025"></scales>
<clustering>
<clus scale="   37.382">  1  5  2 -1</clus>
<clus scale="   64.990">  2  6  1 -1</clus>
<clus scale="  112.884">  1  4  2 -1</clus>
<clus scale="   37.382">  1  3  2 -1</clus>
</clustering>
</event>
<event>
 6    0  0.1614444E+002  0.9431299E+02  0.7546771E-02  0.1292731E+00
          2   -1    0    0  505    0 -0.00000000000E+00  0.00000000000E+00  0.36886390921E+04  0.36886390921E+04  0.00000000000E+00 0. -1.
         21   -1    0    0  503  502  0.00000000000E+00 -0.00000000000E+00 -0.22192898853E+03  0.22192898853E+03  0.00000000000E+00 0. -1.
         21    1    1    2  503  501 -0.46220728524E+02  0.96784875273E+01  0.87355204943E+02  0.99302370046E+02  0.00000000000E+00 0. -1.
         21    1    1    2  504  502 -0.54431351903E+02 -0.66659735626E+02 -0.19714950419E+03  0.21511443333E+03  0.00000000000E+00 0. -1.
         21    1    1    2  505  504  0.49971955589E+02  0.51032559719E+02  0.12273492210E+03  0.14200485766E+03  0.00000000000E+00 0. -1.
          2    1    1    2  501    0  0.50680124838E+02  0.59486883796E+01  0.34537694807E+04  0.34541464196E+04  0.00000000000E+00 0. -1.
<scales pt_clust_3="47.22318" pt_clust_4="94.31299" pt_clust_5="14000.00000" pt_clust_6="50.98897"></scales>
<clustering>
<clus scale="   47.223">  2  3  1 -1</clus>
<clus scale="   50.989">  1  6  2 -1</clus>
<clus scale="   94.313">  2  4  1 -1</clus>
<clus scale="   47.223">  2  3  1 -1</clus>
</clustering>
</event>
<event>
 6    0  0.1230761E+002  0.1999001E+03  0.7546771E-02  0.1149823E+00
         21   -1    0    0  505  502  0.00000000000E+00  0.00000000000E+00  0.15555750754E+04  0.15555750754E+04  0.00000000000E+00 0.  1.
          2   -1    0    0  503    0 -0.00000000000E+00 -0.00000000000E+00 -0.38039290431E+02  0.38039290431E+02  0.00000000000E+00 0.  1.
         21    1    1    2  503  502  0.39455593704E+02 -0.43618858560E+02  0.78042734630E+02  0.97724189048E+02  0.00000000000E+00 0.  1.
         21    1    1    2  504  501  0.25426197721E+02  0.46813446728E+02  0.14887364533E+03  0.15811816024E+03  0.00000000000E+00 0.  1.
         21    1    1    2  505  504  0.83993739542E+02  0.11463753400E+03  0.78331175605E+03  0.79609925239E+03  0.00000000000E+00 0.  1.
          2    1    1    2  501    0 -0.14887553097E+03 -0.11783212217E+03  0.50730764900E+03  0.54167276420E+03  0.00000000000E+00 0.  1.
<scales pt_clust_3="58.81623" pt_clust_4="36.33572" pt_clust_5="36.33572" pt_clust_6="190.88724"></scales>
<clustering>
<clus scale="   36.336">  4  5 -1 -1</clus>
<clus scale="   58.816">  2  3  1 -1</clus>
<clus scale="  190.887">  2  6  1 -1</clus>
<clus scale="  199.900">  1  3  2 -1</clus>
</clustering>
</event>
<event>
 6    0  0.1230761E+002  0.1125471E+03  0.7546771E-02  0.1255924E+00
          1   -1    0    0  504    0 -0.00000000000E+00  0.00000000000E+00  0.20147339907E+04  0.20147339907E+04  0.00000000000E+00 0. -1.
         21   -1    0    0  503  502  0.00000000000E+00 -0.00000000000E+00 -0.25104466130E+04  0.25104466130E+04  0.00000000000E+00 0.  1.
         21    1    1    2  503  501 -0.86624059181E+01  0.10753222684E+03 -0.18991659525E+04  0.19022275185E+04  0.00000000000E+00 0.  1.
         21    1    1    2  504  505  0.24080164493E+02  0.28711132341E+02  0.85918589430E+02  0.93734665156E+02  0.00000000000E+00 0.  1.
         21    1    1    2  505  502  0.70229973800E+02 -0.13400629505E+03 -0.59542252126E+03  0.61434348304E+03  0.00000000000E+00 0. -1.
          1    1    1    2  501    0 -0.85647732375E+02 -0.22370641304E+01  0.19129572620E+04  0.19148749371E+04  0.00000000000E+00 0. -1.
<scales pt_clust_3="112.54714" pt_clust_4="37.47244" pt_clust_5="14000.00000" pt_clust_6="67.08009"></scales>
<clustering>
<clus scale="   37.472">  1  4  2 -1</clus>
<clus scale="   67.080">  1  6  2 -1</clus>
<clus scale="  112.547">  2  3  1 -1</clus>
<clus scale="  112.547">  2  3  1 -1</clus>
</clustering>
</event>
<event>
 6    0  0.1230761E+002  0.5816959E+02  0.7546771E-02  0.1405678E+00
         21   -1    0    0  505  502  0.00000000000E+00  0.00000000000E+00  0.27253732243E+03  0.27253732243E+03  0.00000000000E+00 0. -1.
          2   -1    0    0  503    0 -0.00000000000E+00 -0.00000000000E+00 -0.28590449854E+04  0.28590449854E+04  0.00000000000E+00 0. -1.
         21    1    1    2  503  504  0.13607413166E+02  0.38931139579E+02 -0.17576049619E+03  0.18053406144E+03  0.00000000000E+00 0. -1.
         21    1    1    2  504  502  0.89599269606E+02  0.29750150144E+02  0.13334090678E+03  0.16337961307E+03  0.00000000000E+00 0. -1.
         21    1    1    2  505  501 -0.40614824533E+02 -0.21868425450E-01  0.11757100664E+03  0.12438852862E+03  0.00000000000E+00 0. -1.
          2    1    1    2  501    0 -0.62591858239E+02 -0.68659421297E+02 -0.26616590802E+04  0.26632801046E+04  0.00000000000E+00 0. -1.
<scales pt_clust_3="41.03377" pt_clust_4="14000.00000" pt_clust_5="40.61483" pt_clust_6="58.16959"></scales>
<clustering>
<clus scale="   40.615">  1  5  2 -1</clus>
<clus scale="   41.034">  2  3  1 -1</clus>
<clus scale="   58.170">  2  6  1 -1</clus>
<clus scale="   40.615">  1  3  2 -1</clus>
</clustering>
</event>
<event>
 6    0  0.1230761E+002  0.2642729E+03  0.7546771E-02  0.1104603E+00
         21   -1    0    0  503  502  0.00000000000E+00  0.00000000000E+00  0.17100601942E+03  0.17100601942E+03  0.00000000000E+00 0.  1.
          2   -1    0    0  504    0 -0.00000000000E+00 -0.00000000000E+00 -0.17244968775E+04  0.17244968775E+04  0.00000000000E+00 0.  1.
         21    1    1    2  503  505 -0.92540302634E+02  0.10469587070E+02  0.31499239637E+01  0.93183914310E+02  0.00000000000E+00 0.  1.
         21    1    1    2  504  502 -0.10077013710E+03  0.38577503101E+01 -0.45336141522E+03  0.46444168157E+03  0.00000000000E+00 0.  1.
         21    1    1    2  505  501 -0.12391733845E+03 -0.16850495889E+03 -0.33976353554E+02  0.21190521594E+03  0.00000000000E+00 0.  1.
          2    1    1    2  501    0  0.31722777818E+03  0.15417762151E+03 -0.10693030132E+04  0.11259720851E+04  0.00000000000E+00 0.  1.
<scales pt_clust_3="93.13066" pt_clust_4="105.03306" pt_clust_5="264.27293" pt_clust_6="14000.00000"></scales>
<clustering>
<clus scale="   93.131">  1  3  2 -1</clus>
<clus scale="  105.033">  2  4  1 -1</clus>
<clus scale="  264.273">  1  5  2 -1</clus>
<clus scale="   93.131">  1  3  2 -1</clus>
</clustering>
</event>
<event>
 6    0  0.1230761E+002  0.2550511E+03  0.7546771E-02  0.1110154E+00
         21   -1    0    0  505  502  0.00000000000E+00  0.00000000000E+00  0.25340287090E+03  0.25340287090E+03  0.00000000000E+00 0. -1.
          2   -1    0    0  503    0 -0.00000000000E+00 -0.00000000000E+00 -0.19889736179E+04  0.19889736179E+04  0.00000000000E+00 0.  1.
         21    1    1    2  503  502 -0.13543808034E+02 -0.54485633971E+02 -0.16296353312E+04  0.16306021685E+04  0.00000000000E+00 0.  1.
         21    1    1    2  504  501  0.81640778969E+02  0.10027354070E+03  0.38287714804E+02  0.13485528859E+03  0.00000000000E+00 0. -1.
         21    1    1    2  505  504  0.38127204794E+02  0.12787740309E+03  0.94251283013E+02  0.16336957585E+03  0.00000000000E+00 0. -1.
          2    1    1    2  501    0 -0.10622417573E+03 -0.17366530982E+03 -0.23847441360E+03  0.31354945588E+03  0.00000000000E+00 0.  1.
<scales pt_clust_3="56.14374" pt_clust_4="68.98942" pt_clust_5="68.98942" pt_clust_6="245.10571"></scales>
<clustering>
<clus scale="   56.144">  2  3  1 -1</clus>
<clus scale="   68.989">  4  5 -1 -1</clus>
<clus scale="  245.106">  2  6  1 -1</clus>
<clus scale="  255.051">  1  3  2 -1</clus>
</clustering>
</event>
<event>
 6    0  0.1230761E+002  0.1070231E+03  0.7546771E-02  0.1266184E+00
         -1   -1    0    0    0  501 -0.00000000000E+00  0.00000000000E+00  0.52303339820E+03  0.52303339820E+03  0.00000000000E+00 0. -1.
         21   -1    0    0  503  502  0.00000000000E+00 -0.00000000000E+00 -0.33779351161E+03  0.33779351161E+03  0.00000000000E+00 0. -1.
         21    1    1    2  503  501 -0.38771074443E+02  0.28115185142E+01 -0.12068736443E+03  0.12679329944E+03  0.00000000000E+00 0. -1.
         21    1    1    2  504  502  0.13642769162E+01  0.47069645539E+02 -0.17974997877E+03  0.18581568193E+03  0.00000000000E+00 0. -1.
         21    1    1    2  505  504 -0.72639295960E+02 -0.85452771668E+00  0.33008219835E+02  0.79791854922E+02  0.00000000000E+00 0. -1.
         -1    1    1    2    0  505  0.11004609349E+03 -0.49026636337E+02  0.45266900997E+03  0.46842607351E+03  0.00000000000E+00 0. -1.
<scales pt_clust_3="38.87288" pt_clust_4="58.77868" pt_clust_5="107.02314" pt_clust_6="14000.00000"></scales>
<clustering>
<clus scale="   38.873">  2  3  1 -1</clus>
<clus scale="   58.779">  2  4  1 -1</clus>
<clus scale="  107.023">  2  5  1 -1</clus>
<clus scale="   38.873">  2  3  1 -1</clus>
</clustering>
</event>
<event>
 6    0  0.1230761E+002  0.1915185E+03  0.7546771E-02  0.1157099E+00
         21   -1    0    0  505  502  0.00000000000E+00  0.00000000000E+00  0.10961594369E+04  0.10961594369E+04  0.00000000000E+00 0. -1.
         -1   -1    0    0    0  501 -0.00000000000E+00 -0.00000000000E+00 -0.42391239037E+03  0.42391239037E+03  0.00000000000E+00 0. -1.
         21    1    1    2  503  504  0.12171923447E+03  0.18061517041E+02  0.67531226475E+03  0.68643167567E+03  0.00000000000E+00 0. -1.
         21    1    1    2  504  501  0.22427045000E+02  0.29387128830E+02 -0.20613354739E+03  0.20942209780E+03  0.00000000000E+00 0. -1.
         21    1    1    2  505  503  0.49408661116E+02 -0.46461739814E+02  0.36537453306E+03  0.37161600943E+03  0.00000000000E+00 0. -1.
         -1    1    1    2    0  502 -0.19355494059E+03 -0.98690605800E+00 -0.16230620388E+03  0.25260204439E+03  0.00000000000E+00 0. -1.
<scales pt_clust_3="58.94846" pt_clust_4="36.96722" pt_clust_5="58.94846" pt_clust_6="174.16880"></scales>
<clustering>
<clus scale="   36.967">  2  4  1 -1</clus>
<clus scale="   58.948">  3  5 -1 -1</clus>
<clus scale="  174.169">  2  6  1 -1</clus>
<clus scale="  191.518">  1  3  2 -1</clus>
</clustering>
</event>
<event>
 6    0  0.1230761E+002  0.1294451E+03  0.7546771E-02  0.1228281E+00
          1   -1    0    0  504    0 -0.00000000000E+00  0.00000000000E+00  0.11470235504E+04  0.11470235504E+04  0.00000000000E+00 0.  1.
         21   -1    0    0  503  502  0.00000000000E+00 -0.00000000000E+00 -0.88923086737E+02  0.88923086737E+02  0.00000000000E+00 0. -1.
         21    1    1    2  503  505 -0.59270895080E+02 -0.42892999030E+02 -0.34581120196E+02  0.80924052317E+02  0.00000000000E+00 0. -1.
         21    1    1    2  504  502 -0.16119472438E+02  0.27166738568E+02  0.57513509645E+03  0.57600195160E+03  0.00000000000E+00 0. -1.
         21    1    1    2  505  501 -0.50289403251E+02 -0.90755414391E+01  0.57369943908E+01  0.51422783242E+02  0.00000000000E+00 0. -1.
          1    1    1    2  501    0  0.12567977077E+03  0.24801801901E+02  0.51180949297E+03  0.52759784993E+03  0.00000000000E+00 0.  1.
<scales pt_clust_3="37.41844" pt_clust_4="31.58907" pt_clust_5="37.41844" pt_clust_6="121.55876"></scales>
<clustering>
<clus scale="   31.589">  1  4  2 -1</clus>
<clus scale="   37.418">  3  5 -1 -1</clus>
<clus scale="  121.559">  1  6  2 -1</clus>
<clus scale="  129.445">  2  3  1 -1</clus>
</clustering>
</event>
<event>
 6    0  0.1230761E+002  0.1634285E+03  0.7546771E-02  0.1184880E+00
         21   -1    0    0  503  502  0.00000000000E+00  0.00000000000E+00  0.79068324815E+02  0.79068324815E+02  0.00000000000E+00 0.  1.
          2   -1    0    0  504    0 -0.00000000000E+00 -0.00000000000E+00 -0.22091473986E+04  0.22091473986E+04  0.00000000000E+00 0.  1.
         21    1    1    2  503  505  0.43971558685E+02 -0.33229528991E+01  0.19375186851E+02  0.48165733200E+02  0.00000000000E+00 0.  1.
         21    1    1    2  504  502  0.10512163953E+03 -0.51042963193E+02 -0.24546682785E+03  0.27186376508E+03  0.00000000000E+00 0.  1.
         21    1    1    2  505  501 -0.36842395009E+01 -0.49239511277E+02  0.61177187296E+01  0.49754693989E+02  0.00000000000E+00 0.  1.
          2    1    1    2  501    0 -0.14540895871E+03  0.10360542737E+03 -0.19101051516E+04  0.19184315312E+04  0.00000000000E+00 0.  1.
<scales pt_clust_3="44.09694" pt_clust_4="163.42848" pt_clust_5="56.38882" pt_clust_6="14000.00000"></scales>
<clustering>
<clus scale="   44.097">  1  3  2 -1</clus>
<clus scale="   56.389">  1  5  2 -1</clus>
<clus scale="  163.428">  1  4  2 -1</clus>
<clus scale="   44.097">  1  3  2 -1</clus>
</clustering>
</event>
<event>
 6    0  0.1230761E+002  0.1249198E+03  0.7546771E-02  0.1235195E+00
         21   -1    0    0  504  502  0.00000000000E+00  0.00000000000E+00  0.30381589504E+03  0.30381589504E+03  0.00000000000E+00 0. -1.
          1   -1    0    0  505    0 -0.00000000000E+00 -0.00000000000E+00 -0.59531961122E+03  0.59531961122E+03  0.00000000000E+00 0.  1.
         21    1    1    2  503  502  0.35805982785E+02 -0.36209872849E+02  0.13820992749E+02  0.52765927790E+02  0.00000000000E+00 0.  1.
         21    1    1    2  504  501  0.37306132413E+02 -0.66021094098E+02  0.24935645077E+03  0.26063225419E+03  0.00000000000E+00 0. -1.
         21    1    1    2  505  503  0.31059956738E+02 -0.11465338385E+02 -0.12140266905E+03  0.12583633398E+03  0.00000000000E+00 0.  1.
          1    1    1    2  501    0 -0.10417207193E+03  0.11369630533E+03 -0.43327849065E+03  0.45990099030E+03  0.00000000000E+00 0.  1.
<scales pt_clust_3="52.16502" pt_clust_4="14000.00000" pt_clust_5="33.10853" pt_clust_6="124.91979"></scales>
<clustering>
<clus scale="   33.109">  2  5  1 -1</clus>
<clus scale="   52.165">  1  3  2 -1</clus>
<clus scale="  124.920">  2  6  1 -1</clus>
<clus scale="   52.165">  1  3  2 -1</clus>
</clustering>
</event>
<event>
 6    0  0.1230761E+002  0.1625945E+03  0.7546771E-02  0.1185798E+00
         21   -1    0    0  503  502  0.00000000000E+00  0.00000000000E+00  0.64849476080E+02  0.64849476080E+02  0.00000000000E+00 0.  1.
          1   -1    0    0  505    0 -0.00000000000E+00 -0.00000000000E+00 -0.92779036676E+03  0.92779036676E+03  0.00000000000E+00 0. -1.
         21    1    1    2  503  501 -0.76595078264E+02  0.77219339924E+02 -0.90133864919E+02  0.14125772927E+03  0.00000000000E+00 0. -1.
         21    1    1    2  504  502  0.36935959026E+02 -0.14085439545E+03 -0.13053738587E+03  0.19556133282E+03  0.00000000000E+00 0.  1.
         21    1    1    2  505  504  0.62133452844E+02  0.20126119154E+02 -0.52036674422E+03  0.52444940187E+03  0.00000000000E+00 0. -1.
          1    1    1    2  501    0 -0.22474333606E+02  0.43508936368E+02 -0.12190289567E+03  0.13137137888E+03  0.00000000000E+00 0. -1.
<scales pt_clust_3="47.33778" pt_clust_4="146.49229" pt_clust_5="65.31176" pt_clust_6="47.33778"></scales>
<clustering>
<clus scale="   47.338">  3  6 -1 -1</clus>
<clus scale="   65.312">  2  5  1 -1</clus>
<clus scale="  146.492">  1  4  2 -1</clus>
<clus scale="  146.492">  1  3  2 -1</clus>
</clustering>
</event>
<event>
 6    0  0.1230761E+002  0.1417155E+03  0.7546771E-02  0.1211039E+00
          2   -1    0    0  504    0 -0.00000000000E+00  0.00000000000E+00  0.33538862519E+04  0.33538862519E+04  0.00000000000E+00 0. -1.
         21   -1    0    0  503  502  0.00000000000E+00 -0.00000000000E+00 -0.30598449809E+02  0.30598449809E+02  0.00000000000E+00 0.  1.
         21    1    1    2  503  501 -0.40689825075E+02 -0.77582344892E+02  0.55829640040E+02  0.10388277437E+03  0.00000000000E+00 0.  1.
         21    1    1    2  504  505  0.22788013034E+02 -0.54788526297E+02  0.87771930810E+03  0.87972283133E+03  0.00000000000E+00 0. -1.
         21    1    1    2  505  502  0.39980539765E+02 -0.38324516556E+02  0.42021781719E+03  0.42385165567E+03  0.00000000000E+00 0. -1.
          2    1    1    2  501    0 -0.22078727724E+02  0.17069538775E+03  0.19695210368E+04  0.19770274404E+04  0.00000000000E+00 0. -1.
<scales pt_clust_3="87.60526" pt_clust_4="43.80265" pt_clust_5="43.80265" pt_clust_6="134.26674"></scales>
<clustering>
<clus scale="   43.803">  4  5 -1 -1</clus>
<clus scale="   87.605">  2  3  1 -1</clus>
<clus scale="  134.267">  2  6  1 -1</clus>
<clus scale="   87.605">  2  3  1 -1</clus>
</clustering>
</event>
<event>
 6    0  0.1230761E+002  0.8533288E+02  0.7546771E-02  0.1314564E+00
         21   -1    0    0  503  502  0.00000000000E+00  0.00000000000E+00  0.45591234731E+03  0.45591234731E+03  0.00000000000E+00 0. -1.
          3   -1    0    0  504    0 -0.00000000000E+00 -0.00000000000E+00 -0.95003498677E+02  0.95003498677E+02  0.00000000000E+00 0. -1.
         21    1    1    2  503  501 -0.68136119717E+01 -0.39317007926E+02  0.65175485317E+02  0.76420522811E+02  0.00000000000E+00 0. -1.
         21    1    1    2  504  505  0.26525377579E+02  0.74184795153E+02  0.21982537965E+01  0.78815048102E+02  0.00000000000E+00 0. -1.
         21    1    1    2  505  502 -0.84950326580E+02  0.14791581886E+02  0.30123259636E+03  0.31333117622E+03  0.00000000000E+00 0. -1.
          3    1    1    2  501    0  0.65238560972E+02 -0.49659369114E+02 -0.76974868412E+01  0.82349098855E+02  0.00000000000E+00 0. -1.
<scales pt_clust_3="39.90304" pt_clust_4="74.65258" pt_clust_5="14000.00000" pt_clust_6="85.33288"></scales>
<clustering>
<clus scale="   39.903">  1  3  2 -1</clus>
<clus scale="   74.653">  2  4  1 -1</clus>
<clus scale="   85.333">  2  6  1 -1</clus>
<clus scale="   39.903">  1  3  2 -1</clus>
</clustering>
</event>
<event>
 6    0  0.1230761E+002  0.1159553E+03  0.7546771E-02  0.1249923E+00
         21   -1    0    0  503  502  0.00000000000E+00  0.00000000000E+00  0.11424309395E+04  0.11424309395E+04  0.00000000000E+00 0.  1.
         -1   -1    0    0    0  501 -0.00000000000E+00 -0.00000000000E+00 -0.10702981400E+04  0.10702981400E+04  0.00000000000E+00 0. -1.
         21    1    1    2  503  504  0.73926424707E+02 -0.16838002475E+02  0.10335909778E+04  0.10363681508E+04  0.00000000000E+00 0.  1.
         21    1    1    2  504  501  0.66632306787E+02  0.77972293609E+02 -0.31375388175E+03  0.33009247370E+03  0.00000000000E+00 0.  1.
         21    1    1    2  505  502 -0.34778312458E+02  0.83060942468E+01  0.90494873669E+02  0.97302848773E+02  0.00000000000E+00 0. -1.
         -1    1    1    2    0  505 -0.10578041904E+03 -0.69440385380E+02 -0.73819917034E+03  0.74896560620E+03  0.00000000000E+00 0. -1.
<scales pt_clust_3="40.52912" pt_clust_4="115.95528" pt_clust_5="35.75643" pt_clust_6="14000.00000"></scales>
<clustering>
<clus scale="   35.756">  1  5  2 -1</clus>
<clus scale="   40.529">  1  3  2 -1</clus>
<clus scale="  115.955">  1  4  2 -1</clus>
<clus scale="   35.756">  1  3  2 -1</clus>
</clustering>
</event>
<event>
 6    0  0.1230761E+002  0.1005057E+03  0.7546771E-02  0.1279236E+00
         21   -1    0    0  503  502  0.00000000000E+00  0.00000000000E+00  0.15512643018E+03  0.15512643018E+03  0.00000000000E+00 0.  1.
          2   -1    0    0  505    0 -0.00000000000E+00 -0.00000000000E+00 -0.27508330509E+04  0.27508330509E+04  0.00000000000E+00 0. -1.
         21    1    1    2  503  504  0.14914586590E+02 -0.40758289231E+02  0.92633079322E+02  0.10229648292E+03  0.00000000000E+00 0.  1.
         21    1    1    2  504  501 -0.15608241556E+02 -0.50679399355E+02  0.35850563414E+02  0.64010011877E+02  0.00000000000E+00 0. -1.
         21    1    1    2  505  502  0.10008696835E+03  0.62871776606E+02 -0.52967790691E+03  0.54270521150E+03  0.00000000000E+00 0. -1.
          2    1    1    2  501    0 -0.99393313380E+02  0.28565911980E+02 -0.21945123566E+04  0.21969477748E+04  0.00000000000E+00 0. -1.
<scales pt_clust_3="43.40142" pt_clust_4="86.01494" pt_clust_5="14000.00000" pt_clust_6="100.50565"></scales>
<clustering>
<clus scale="   43.401">  1  3  2 -1</clus>
<clus scale="   86.015">  1  4  2 -1</clus>
<clus scale="  100.506">  2  6  1 -1</clus>
<clus scale="   43.401">  1  3  2 -1</clus>
</clustering>
</event>
<event>
 6    0  0.1230761E+002  0.9749765E+02  0.7546771E-02  0.1285648E+00
         21   -1    0    0  503  502  0.00000000000E+00  0.00000000000E+00  0.15417378308E+03  0.15417378308E+03  0.00000000000E+00 0. -1.
          1   -1    0    0  504    0 -0.00000000000E+00 -0.00000000000E+00 -0.12770541740E+04  0.12770541740E+04  0.00000000000E+00 0.  1.
         21    1    1    2  503  505 -0.20696065992E+02  0.31876936709E+02  0.18521487636E+02  0.42278975221E+02  0.00000000000E+00 0.  1.
         21    1    1    2  504  502 -0.45266981865E+02 -0.22401044134E+02  0.10981694915E+03  0.12087459926E+03  0.00000000000E+00 0. -1.
         21    1    1    2  505  501 -0.64245466641E+02  0.23495912082E+01 -0.24089219106E+03  0.24932318038E+03  0.00000000000E+00 0.  1.
          1    1    1    2  501    0  0.13020851450E+03 -0.11825483783E+02 -0.10103266366E+04  0.10187512022E+04  0.00000000000E+00 0.  1.
<scales pt_clust_3="38.00613" pt_clust_4="64.96590" pt_clust_5="14000.00000" pt_clust_6="97.49765"></scales>
<clustering>
<clus scale="   38.006">  1  3  2 -1</clus>
<clus scale="   64.966">  1  4  2 -1</clus>
<clus scale="   97.498">  2  6  1 -1</clus>
<clus scale="   38.006">  1  3  2 -1</clus>
</clustering>
</event>
<event>
 6    0  0.1230761E+002  0.1424079E+03  0.7546771E-02  0.1210125E+00
          1   -1    0    0  503    0 -0.00000000000E+00  0.00000000000E+00  0.56840515364E+03  0.56840515364E+03  0.00000000000E+00 0. -1.
         21   -1    0    0  504  502  0.00000000000E+00 -0.00000000000E+00 -0.99761876612E+03  0.99761876612E+03  0.00000000000E+00 0.  1.
         21    1    1    2  503  502 -0.24426975541E+02  0.77928995502E+02  0.34618836153E+03  0.35569085894E+03  0.00000000000E+00 0. -1.
         21    1    1    2  504  505 -0.68289845884E+02 -0.30825442423E+02 -0.66166617906E+03  0.66589476906E+03  0.00000000000E+00 0.  1.
         21    1    1    2  505  501 -0.49038158306E+02 -0.65282742685E+02 -0.29928925882E+03  0.31022675241E+03  0.00000000000E+00 0.  1.
          1    1    1    2  501    0  0.14175497973E+03  0.18179189606E+02  0.18555346388E+03  0.23421153936E+03  0.00000000000E+00 0. -1.
<scales pt_clust_3="81.54660" pt_clust_4="74.92470" pt_clust_5="14000.00000" pt_clust_6="142.40793"></scales>
<clustering>
<clus scale="   74.925">  2  4  1 -1</clus>
<clus scale="   81.547">  1  3  2 -1</clus>
<clus scale="  142.408">  1  6  2 -1</clus>
<clus scale="   74.925">  2  3  1 -1</clus>
</clustering>
</event>
<event>
 6    0  0.1230761E+002  0.5844136E+03  0.7546771E-02  0.9938281E-01
         21   -1    0    0  505  502  0.00000000000E+00  0.00000000000E+00  0.35460827091E+03  0.35460827091E+03  0.00000000000E+00 0.  1.
          2   -1    0    0  504    0 -0.00000000000E+00 -0.00000000000E+00 -0.18079606091E+04  0.18079606091E+04  0.00000000000E+00 0.  1.
         21    1    1    2  503  501 -0.20834847144E+03 -0.14361898180E+03 -0.38136084694E+01  0.25308109588E+03  0.00000000000E+00 0.  1.
         21    1    1    2  504  502  0.81828885857E+02 -0.71800147120E+01 -0.78317357304E+02  0.11349505552E+03  0.00000000000E+00 0. -1.
         21    1    1    2  505  503 -0.34090608550E+03  0.48508945815E+02 -0.69467684682E+00  0.34434076078E+03  0.00000000000E+00 0. -1.
          2    1    1    2  501    0  0.46742567108E+03  0.10229005070E+03 -0.13705266956E+04  0.14516519679E+04  0.00000000000E+00 0.  1.
<scales pt_clust_3="184.69783" pt_clust_4="82.14328" pt_clust_5="184.69783" pt_clust_6="543.48249"></scales>
<clustering>
<clus scale="   82.143">  2  4  1 -1</clus>
<clus scale="  184.698">  3  5 -1 -1</clus>
<clus scale="  543.482">  2  6  1 -1</clus>
<clus scale="  584.414">  1  3  2 -1</clus>
</clustering>
</event>
<event>
 6    0  0.1230761E+002  0.1282489E+03  0.7546771E-02  0.1230077E+00
         21   -1    0    0  503  502  0.00000000000E+00  0.00000000000E+00  0.17316592625E+03  0.17316592625E+03  0.00000000000E+00 0. -1.
         -2   -1    0    0    0  501 -0.00000000000E+00 -0.00000000000E+00 -0.33929006016E+03  0.33929006016E+03  0.00000000000E+00 0. -1.
         21    1    1    2  503  505  0.27296314554E+02 -0.94866296067E+02  0.10044853198E+03  0.14083540213E+03  0.00000000000E+00 0. -1.
         21    1    1    2  504  502  0.32608435644E+02 -0.19838580213E+02  0.54381857812E+01  0.38554548429E+02  0.00000000000E+00 0. -1.
         21    1    1    2  505  501  0.17917252408E+02 -0.25867740402E+02 -0.47748306444E+02  0.57184514474E+02  0.00000000000E+00 0. -1.
         -2    1    1    2    0  504 -0.77822002606E+02  0.14057261668E+03 -0.22426254522E+03  0.27588152138E+03  0.00000000000E+00 0. -1.
<scales pt_clust_3="14000.00000" pt_clust_4="39.83576" pt_clust_5="31.46693" pt_clust_6="128.24894"></scales>
<clustering>
<clus scale="   31.467">  2  5  1 -1</clus>
<clus scale="   39.836">  1  4  2 -1</clus>
<clus scale="  128.249">  2  6  1 -1</clus>
<clus scale="   39.836">  1  3  2 -1</clus>
</clustering>
</event>
<event>
 6    0  0.1230761E+002  0.1400701E+03  0.7546771E-02  0.1213235E+00
          2   -1    0    0  505    0 -0.00000000000E+00  0.00000000000E+00  0.10269149990E+04  0.10269149990E+04  0.00000000000E+00 0. -1.
         21   -1    0    0  501  502  0.00000000000E+00 -0.00000000000E+00 -0.62388038571E+02  0.62388038571E+02  0.00000000000E+00 0. -1.
         21    1    1    2  503  504  0.63870750474E+02 -0.60196165124E+02  0.72566160844E+02  0.11388107288E+03  0.00000000000E+00 0. -1.
         21    1    1    2  504  502  0.25514144674E+01 -0.35970749821E+02  0.52794536291E+01  0.36445537300E+02  0.00000000000E+00 0. -1.
         21    1    1    2  505  503  0.48525284839E+02 -0.13580219413E+02  0.66119058153E+03  0.66310791786E+03  0.00000000000E+00 0. -1.
          2    1    1    2  501    0 -0.11494744978E+03  0.10974713436E+03  0.22549076447E+03  0.27586850957E+03  0.00000000000E+00 0. -1.
<scales pt_clust_3="34.38842" pt_clust_4="34.38842" pt_clust_5="50.38974" pt_clust_6="129.38883"></scales>
<clustering>
<clus scale="   34.388">  3  4 -1 -1</clus>
<clus scale="   50.390">  1  5  2 -1</clus>
<clus scale="  129.389">  1  6  2 -1</clus>
<clus scale="  140.070">  2  3  1 -1</clus>
</clustering>
</event>
<event>
 6    0  0.1230761E+002  0.1525055E+03  0.7546771E-02  0.1197428E+00
         21   -1    0    0  504  502  0.00000000000E+00  0.00000000000E+00  0.19680799223E+03  0.19680799223E+03  0.00000000000E+00 0. -1.
          2   -1    0    0  503    0 -0.00000000000E+00 -0.00000000000E+00 -0.29023691594E+04  0.29023691594E+04  0.00000000000E+00 0.  1.
         21    1    1    2  503  505  0.28639409601E+02 -0.56104806099E+02 -0.25315604220E+04  0.25323440001E+04  0.00000000000E+00 0.  1.
         21    1    1    2  504  501  0.40929707611E+02  0.85854908803E+02  0.12352306960E+03  0.15589822017E+03  0.00000000000E+00 0. -1.
         21    1    1    2  505  502  0.84291865241E+02  0.25637731245E+02 -0.22442218298E+02  0.90917902370E+02  0.00000000000E+00 0. -1.
          2    1    1    2  501    0 -0.15386098245E+03 -0.55387833949E+02 -0.27508159654E+03  0.32001702896E+03  0.00000000000E+00 0.  1.
<scales pt_clust_3="62.99179" pt_clust_4="14000.00000" pt_clust_5="90.29898" pt_clust_6="152.50549"></scales>
<clustering>
<clus scale="   62.992">  2  3  1 -1</clus>
<clus scale="   90.299">  1  5  2 -1</clus>
<clus scale="  152.505">  2  6  1 -1</clus>
<clus scale="   90.299">  1  3  2 -1</clus>
</clustering>
</event>
<event>
 6    0  0.1230761E+002  0.1648606E+03  0.7546771E-02  0.1183316E+00
         21   -1    0    0  501  502  0.00000000000E+00  0.00000000000E+00  0.16202934279E+02  0.16202934279E+02  0.00000000000E+00 0.  1.
          2   -1    0    0  505    0 -0.00000000000E+00 -0.00000000000E+00 -0.37351412477E+04  0.37351412477E+04  0.00000000000E+00 0.  1.
         21    1    1    2  503  502 -0.10232316298E+03 -0.87763666164E+01 -0.38196382767E+03  0.39552929088E+03  0.00000000000E+00 0.  1.
         21    1    1    2  504  503 -0.39921615407E+02 -0.39408261196E+02 -0.18856786166E+03  0.19673480851E+03  0.00000000000E+00 0.  1.
         21    1    1    2  505  504 -0.74842354961E+01 -0.44546510324E+02 -0.16086164911E+04  0.16092505774E+04  0.00000000000E+00 0.  1.
          2    1    1    2  501    0  0.14972901388E+03  0.92731138136E+02 -0.15397901330E+04  0.15498295052E+04  0.00000000000E+00 0.  1.
<scales pt_clust_3="38.50961" pt_clust_4="38.50961" pt_clust_5="45.17085" pt_clust_6="156.40966"></scales>
<clustering>
<clus scale="   38.510">  3  4 -1 -1</clus>
<clus scale="   45.171">  2  5  1 -1</clus>
<clus scale="  156.410">  2  6  1 -1</clus>
<clus scale="  164.861">  1  3  2 -1</clus>
</clustering>
</event>
<event>
 6    0  0.1230761E+002  0.1221789E+03  0.7546771E-02  0.1239545E+00
         21   -1    0    0  505  502  0.00000000000E+00  0.00000000000E+00  0.57515051771E+02  0.57515051771E+02  0.00000000000E+00 0. -1.
          1   -1    0    0  503    0 -0.00000000000E+00 -0.00000000000E+00 -0.79318309861E+03  0.79318309861E+03  0.00000000000E+00 0. -1.
         21    1    1    2  503  504  0.59357515666E+02 -0.14206201157E+02 -0.18424752873E+03  0.19409348948E+03  0.00000000000E+00 0. -1.
         21    1    1    2  504  502  0.21976292017E+02  0.56474785800E+02 -0.56417614966E+02  0.82796776027E+02  0.00000000000E+00 0. -1.
         21    1    1    2  505  501 -0.91212874772E+02  0.71736590512E+02 -0.74233131078E+02  0.13775516212E+03  0.00000000000E+00 0. -1.
          1    1    1    2  501    0  0.98790670888E+01 -0.11400517516E+03 -0.42076977207E+03  0.43605272275E+03  0.00000000000E+00 0. -1.
<scales pt_clust_3="62.30550" pt_clust_4="60.59999" pt_clust_5="122.17894" pt_clust_6="14000.00000"></scales>
<clustering>
<clus scale="   60.600">  1  4  2 -1</clus>
<clus scale="   62.306">  2  3  1 -1</clus>
<clus scale="  122.179">  1  5  2 -1</clus>
<clus scale="   60.600">  1  3  2 -1</clus>
</clustering>
</event>
<event>
 6    0  0.1230761E+002  0.2006975E+03  0.7546771E-02  0.1149152E+00
         21   -1    0    0  501  502  0.00000000000E+00  0.00000000000E+00  0.58199478224E+02  0.58199478224E+02  0.00000000000E+00 0.  1.
          3   -1    0    0  505    0 -0.00000000000E+00 -0.00000000000E+00 -0.16117499246E+04  0.16117499246E+04  0.00000000000E+00 0. -1.
         21    1    1    2  503  502  0.20527176265E+02 -0.14003889000E+03 -0.13195209772E+03  0.19350351876E+03  0.00000000000E+00 0.  1.
         21    1    1    2  504  503  0.39862044703E+02 -0.52998081866E+02 -0.43311295821E+02  0.79206361078E+02  0.00000000000E+00 0.  1.
         21    1    1    2  505  504  0.31447081947E+02  0.59201153722E+02 -0.39897507157E+03  0.40456742738E+03  0.00000000000E+00 0. -1.
          3    1    1    2  501    0 -0.91836302915E+02  0.13383581814E+03 -0.97931198125E+03  0.99267209560E+03  0.00000000000E+00 0. -1.
<scales pt_clust_3="35.85187" pt_clust_4="35.85187" pt_clust_5="67.03503" pt_clust_6="193.74260"></scales>
<clustering>
<clus scale="   35.852">  3  4 -1 -1</clus>
<clus scale="   67.035">  2  5  1 -1</clus>
<clus scale="  193.743">  2  6  1 -1</clus>
<clus scale="  200.698">  1  3  2 -1</clus>
</clustering>
</event>
<event>
 6    0  0.1230761E+002  0.7092304E+02  0.7546771E-02  0.1356982E+00
         -4   -1    0    0    0  501 -0.00000000000E+00  0.00000000000E+00  0.52853668135E+03  0.52853668135E+03  0.00000000000E+00 0. -1.
         21   -1    0    0  505  502  0.00000000000E+00 -0.00000000000E+00 -0.10138755958E+03  0.10138755958E+03  0.00000000000E+00 0. -1.
         21    1    1    2  503  501  0.10993707493E+02  0.73430888252E+02  0.15581567442E+03  0.17260208964E+03  0.00000000000E+00 0. -1.
         21    1    1    2  504  503  0.50248816742E+02 -0.35022680282E+02  0.18544184549E+02  0.63995456860E+02  0.00000000000E+00 0. -1.
         21    1    1    2  505  504 -0.79448566680E+02  0.63902235727E+01 -0.45071573578E+02  0.91566131564E+02  0.00000000000E+00 0. -1.
         -4    1    1    2    0  502  0.18206042445E+02 -0.44798431543E+02  0.29786083638E+03  0.30176056287E+03  0.00000000000E+00 0. -1.
<scales pt_clust_3="47.77246" pt_clust_4="70.92304" pt_clust_5="14000.00000" pt_clust_6="48.35659"></scales>
<clustering>
<clus scale="   48.357">  1  6  2 -1</clus>
<clus scale="   47.772">  1  3  2 -1</clus>
<clus scale="   70.923">  1  4  2 -1</clus>
<clus scale="   70.923">  2  3  1 -1</clus>
</clustering>
</event>
<event>
 6    0  0.1230761E+002  0.1652145E+03  0.7546771E-02  0.1182932E+00
         -2   -1    0    0    0  501 -0.00000000000E+00  0.00000000000E+00  0.46314400706E+03  0.46314400706E+03  0.00000000000E+00 0.  1.
         21   -1    0    0  505  502  0.00000000000E+00 -0.00000000000E+00 -0.29315921887E+03  0.29315921887E+03  0.00000000000E+00 0.  1.
         21    1    1    2  503  502 -0.98527675214E+02  0.57339814962E+02 -0.21191175552E+03  0.24062865434E+03  0.00000000000E+00 0.  1.
         21    1    1    2  504  503 -0.44145096895E+02  0.15944623956E+02 -0.34294386272E+02  0.58130246367E+02  0.00000000000E+00 0.  1.
         21    1    1    2  505  501  0.20029691685E+02 -0.52179835595E+02  0.20434167633E+03  0.21184769169E+03  0.00000000000E+00 0.  1.
         -2    1    1    2    0  504  0.12264308042E+03 -0.21104603323E+02  0.21184925365E+03  0.24569663353E+03  0.00000000000E+00 0.  1.
<scales pt_clust_3="34.63360" pt_clust_4="34.63360" pt_clust_5="55.89207" pt_clust_6="156.14908"></scales>
<clustering>
<clus scale="   34.634">  3  4 -1 -1</clus>
<clus scale="   55.892">  1  5  2 -1</clus>
<clus scale="  156.149">  1  6  2 -1</clus>
<clus scale="  165.214">  2  3  1 -1</clus>
</clustering>
</event>
<event>
 6    0  0.1230761E+002  0.8559104E+02  0.7546771E-02  0.1313894E+00
          2   -1    0    0  504    0 -0.00000000000E+00  0.00000000000E+00  0.20943732787E+03  0.20943732787E+03  0.00000000000E+00 0. -1.
         21   -1    0    0  503  502  0.00000000000E+00 -0.00000000000E+00 -0.52600499035E+03  0.52600499035E+03  0.00000000000E+00 0.  1.
         21    1    1    2  503  501 -0.20528450973E+02  0.38945690271E+02 -0.39872776663E+03  0.40115086436E+03  0.00000000000E+00 0.  1.
         21    1    1    2  504  505  0.35914989982E+02  0.16516789819E+02  0.15965594560E+02  0.42633215466E+02  0.00000000000E+00 0. -1.
         21    1    1    2  505  502 -0.44208802622E+01 -0.11904849565E+03 -0.71960762369E+02  0.13917772746E+03  0.00000000000E+00 0.  1.
          2    1    1    2  501    0 -0.10965658747E+02  0.63586015562E+02  0.13815527196E+03  0.15248051094E+03  0.00000000000E+00 0. -1.
<scales pt_clust_3="44.01125" pt_clust_4="39.53088" pt_clust_5="85.59104" pt_clust_6="14000.00000"></scales>
<clustering>
<clus scale="   39.531">  1  4  2 -1</clus>
<clus scale="   44.011">  2  3  1 -1</clus>
<clus scale="   85.591">  2  5  1 -1</clus>
<clus scale="   44.011">  2  3  1 -1</clus>
</clustering>
</event>
<event>
 6    0  0.1230761E+002  0.2039719E+03  0.7546771E-02  0.1146431E+00
         21   -1    0    0  505  502  0.00000000000E+00  0.00000000000E+00  0.10680744276E+03  0.10680744276E+03  0.00000000000E+00 0.  1.
          2   -1    0    0  503    0 -0.00000000000E+00 -0.00000000000E+00 -0.11020755772E+04  0.11020755772E+04  0.00000000000E+00 0.  1.
         21    1    1    2  503  504  0.44206189319E+02 -0.19267279000E+03 -0.50021701299E+03  0.53786062438E+03  0.00000000000E+00 0.  1.
         21    1    1    2  504  502  0.11183421046E+03  0.69296303305E+02 -0.10947885407E+03  0.17115632553E+03  0.00000000000E+00 0.  1.
         21    1    1    2  505  501  0.57410402140E+01 -0.46758656271E+02  0.15280082528E+01  0.47134555139E+02  0.00000000000E+00 0. -1.
          2    1    1    2  501    0 -0.16178144000E+03  0.17013514296E+03 -0.38710027565E+03  0.45273151492E+03  0.00000000000E+00 0.  1.
<scales pt_clust_3="14000.00000" pt_clust_4="125.20460" pt_clust_5="47.10978" pt_clust_6="203.97190"></scales>
<clustering>
<clus scale="   47.110">  1  5  2 -1</clus>
<clus scale="  125.205">  1  4  2 -1</clus>
<clus scale="  203.972">  1  6  2 -1</clus>
<clus scale="   47.110">  1  3  2 -1</clus>
</clustering>
</event>
<event>
 6    0  0.1230761E+002  0.1433250E+03  0.7546771E-02  0.1208924E+00
         21   -1    0    0  504  502  0.00000000000E+00  0.00000000000E+00  0.19023157571E+03  0.19023157571E+03  0.00000000000E+00 0.  1.
          2   -1    0    0  503    0 -0.00000000000E+00 -0.00000000000E+00 -0.42910910019E+04  0.42910910019E+04  0.00000000000E+00 0. -1.
         21    1    1    2  503  505  0.64184575786E+01 -0.47138542575E+02 -0.59155698803E+02  0.75912024704E+02  0.00000000000E+00 0.  1.
         21    1    1    2  504  501  0.35461080748E+02 -0.14985141949E+02  0.15303779053E+03  0.15780560211E+03  0.00000000000E+00 0.  1.
         21    1    1    2  505  502  0.14860453077E+02 -0.62073225496E+02 -0.14912393610E+02  0.65546150706E+02  0.00000000000E+00 0.  1.
          2    1    1    2  501    0 -0.56739991404E+02  0.12419691002E+03 -0.41798291243E+04  0.41820588001E+04  0.00000000000E+00 0. -1.
<scales pt_clust_3="36.85201" pt_clust_4="38.49731" pt_clust_5="36.85201" pt_clust_6="135.63824"></scales>
<clustering>
<clus scale="   38.497">  1  4  2 -1</clus>
<clus scale="   36.852">  3  5 -1 -1</clus>
<clus scale="  135.638">  2  6  1 -1</clus>
<clus scale="   38.497">  1  3  2 -1</clus>
</clustering>
</event>
<event>
 6    0  0.1230761E+002  0.1123745E+03  0.7546771E-02  0.1256235E+00
         21   -1    0    0  504  502  0.00000000000E+00  0.00000000000E+00  0.31439280322E+02  0.31439280322E+02  0.00000000000E+00 0.  1.
          2   -1    0    0  503    0 -0.00000000000E+00 -0.00000000000E+00 -0.11039205158E+04  0.11039205158E+04  0.00000000000E+00 0. -1.
         21    1    1    2  503  505 -0.23445614149E+01 -0.32670821503E+02 -0.10217151065E+03  0.10729350928E+03  0.00000000000E+00 0. -1.
         21    1    1    2  504  501 -0.32009373209E+02  0.16754939566E+02 -0.91404736214E+02  0.98286081291E+02  0.00000000000E+00 0.  1.
         21    1    1    2  505  502 -0.18148218914E+02  0.96818515258E+02 -0.85206168729E+02  0.13024313393E+03  0.00000000000E+00 0.  1.
          2    1    1    2  501    0  0.52502153538E+02 -0.80902633321E+02 -0.79369881991E+03  0.79953707164E+03  0.00000000000E+00 0. -1.
<scales pt_clust_3="32.75484" pt_clust_4="35.00460" pt_clust_5="112.37453" pt_clust_6="14000.00000"></scales>
<clustering>
<clus scale="   32.755">  2  3  1 -1</clus>
<clus scale="   35.005">  1  4  2 -1</clus>
<clus scale="  112.375">  1  5  2 -1</clus>
<clus scale="   35.005">  1  3  2 -1</clus>
</clustering>
</event>
<event>
 6    0  0.1230761E+002  0.2394898E+03  0.7546771E-02  0.1120133E+00
         21   -1    0    0  504  502  0.00000000000E+00  0.00000000000E+00  0.23303569477E+03  0.23303569477E+03  0.00000000000E+00 0.  1.
          2   -1    0    0  503    0 -0.00000000000E+00 -0.00000000000E+00 -0.14443369989E+04  0.14443369989E+04  0.00000000000E+00 0. -1.
         21    1    1    2  503  502  0.53976969898E+02  0.18766538508E+02 -0.33099446817E+03  0.33589140240E+03  0.00000000000E+00 0. -1.
         21    1    1    2  504  505  0.33330664219E+02  0.15761652984E+03  0.10851694711E+03  0.19424168314E+03  0.00000000000E+00 0.  1.
         21    1    1    2  505  501  0.45969402855E+02  0.60185116908E+02  0.38275459263E+02  0.84855436348E+02  0.00000000000E+00 0.  1.
          2    1    1    2  501    0 -0.13327703697E+03 -0.23656818526E+03 -0.10270992423E+04  0.10623841718E+04  0.00000000000E+00 0. -1.
<scales pt_clust_3="57.14627" pt_clust_4="35.10229" pt_clust_5="35.10229" pt_clust_6="233.95345"></scales>
<clustering>
<clus scale="   35.102">  4  5 -1 -1</clus>
<clus scale="   57.146">  2  3  1 -1</clus>
<clus scale="  233.953">  2  6  1 -1</clus>
<clus scale="  239.490">  1  3  2 -1</clus>
</clustering>
</event>
<event>
 6    0  0.1230761E+002  0.3359876E+03  0.7546771E-02  0.1068518E+00
          2   -1    0    0  503    0 -0.00000000000E+00  0.00000000000E+00  0.63939790467E+03  0.63939790467E+03  0.00000000000E+00 0. -1.
         21   -1    0    0  505  502  0.00000000000E+00 -0.00000000000E+00 -0.68829098771E+03  0.68829098771E+03  0.00000000000E+00 0. -1.
         21    1    1    2  503  504 -0.28172685613E+02 -0.13964062188E+02  0.46964077317E+02  0.56518313897E+02  0.00000000000E+00 0.  1.
         21    1    1    2  504  502 -0.21717895353E+02 -0.56010812026E+02 -0.15089511595E+02  0.61940062984E+02  0.00000000000E+00 0.  1.
         21    1    1    2  505  501  0.45733606655E+02 -0.28296891101E+03 -0.55109759005E+03  0.62118557705E+03  0.00000000000E+00 0. -1.
          2    1    1    2  501    0  0.41569743106E+01  0.35294378523E+03  0.47032994129E+03  0.58804493845E+03  0.00000000000E+00 0. -1.
<scales pt_clust_3="31.44352" pt_clust_4="61.00479" pt_clust_5="335.98758" pt_clust_6="14000.00000"></scales>
<clustering>
<clus scale="   31.444">  1  3  2 -1</clus>
<clus scale="   61.005">  2  4  1 -1</clus>
<clus scale="  335.988">  2  5  1 -1</clus>
<clus scale="   61.005">  2  3  1 -1</clus>
</clustering>
</event>
<event>
 6    0  0.1230761E+002  0.7235687E+02  0.7546771E-02  0.1352257E+00
         21   -1    0    0  504  502  0.00000000000E+00  0.00000000000E+00  0.78315423992E+03  0.78315423992E+03  0.00000000000E+00 0. -1.
          2   -1    0    0  503    0 -0.00000000000E+00 -0.00000000000E+00 -0.11487675739E+04  0.11487675739E+04  0.00000000000E+00 0. -1.
         21    1    1    2  503  505  0.28817247027E+02  0.43585293839E+02 -0.81436824654E+02  0.96757779919E+02  0.00000000000E+00 0.  1.
         21    1    1    2  504  501  0.37025269917E+02  0.66511896773E+02  0.56212032093E+03  0.56725123025E+03  0.00000000000E+00 0. -1.
         21    1    1    2  505  502  0.31107008465E+02 -0.42112772267E+02  0.20417881600E+03  0.21078453565E+03  0.00000000000E+00 0.  1.
          2    1    1    2  501    0 -0.96949525409E+02 -0.67984418345E+02 -0.10504756462E+04  0.10571282680E+04  0.00000000000E+00 0. -1.
<scales pt_clust_3="52.25047" pt_clust_4="72.35687" pt_clust_5="52.30013" pt_clust_6="14000.00000"></scales>
<clustering>
<clus scale="   52.250">  2  3  1 -1</clus>
<clus scale="   52.300">  1  5  2 -1</clus>
<clus scale="   72.357">  1  4  2 -1</clus>
<clus scale="   52.300">  1  3  2 -1</clus>
</clustering>
</event>
<event>
 6    0  0.1230761E+002  0.1208489E+03  0.7546771E-02  0.1241703E+00
         21   -1    0    0  505  502  0.00000000000E+00  0.00000000000E+00  0.13385203437E+04  0.13385203437E+04  0.00000000000E+00 0. -1.
          1   -1    0    0  504    0 -0.00000000000E+00 -0.00000000000E+00 -0.12686891417E+04  0.12686891417E+04  0.00000000000E+00 0. -1.
         21    1    1    2  503  502  0.64536654474E+02  0.13638818863E+03  0.12211238697E+04  0.12304105911E+04  0.00000000000E+00 0. -1.
         21    1    1    2  504  503  0.15991714467E+02 -0.45051203906E+02 -0.14119850657E+03  0.14907167458E+03  0.00000000000E+00 0.  1.
         21    1    1    2  505  501  0.23516320496E+01 -0.35717635278E+02  0.10357926121E+03  0.10958988546E+03  0.00000000000E+00 0.  1.
          1    1    1    2  501    0 -0.82880000990E+02 -0.55619349450E+02 -0.11136734223E+04  0.11181373342E+04  0.00000000000E+00 0. -1.
<scales pt_clust_3="14000.00000" pt_clust_4="47.91537" pt_clust_5="35.79497" pt_clust_6="120.84892"></scales>
<clustering>
<clus scale="   35.795">  1  5  2 -1</clus>
<clus scale="   47.915">  2  4  1 -1</clus>
<clus scale="  120.849">  2  6  1 -1</clus>
<clus scale="   35.795">  1  3  2 -1</clus>
</clustering>
</event>
<event>
 6    0  0.1230761E+002  0.1730680E+03  0.7546771E-02  0.1174686E+00
         -1   -1    0    0    0  501 -0.00000000000E+00  0.00000000000E+00  0.16407977407E+03  0.16407977407E+03  0.00000000000E+00 0. -1.
         21   -1    0    0  505  502  0.00000000000E+00 -0.00000000000E+00 -0.35341725139E+03  0.35341725139E+03  0.00000000000E+00 0. -1.
         21    1    1    2  503  501 -0.36496872300E+02  0.15467816255E+02  0.79087399888E+01  0.40420578863E+02  0.00000000000E+00 0. -1.
         21    1    1    2  504  503 -0.67992254027E+02  0.55623916937E+02 -0.10592345949E+03  0.13761084991E+03  0.00000000000E+00 0. -1.
         21    1    1    2  505  504 -0.76982409148E+02 -0.52277393279E+01 -0.12163693925E+03  0.14404570652E+03  0.00000000000E+00 0. -1.
         -1    1    1    2    0  502  0.18147153548E+03 -0.65863993864E+02  0.30314181431E+02  0.19541989016E+03  0.00000000000E+00 0. -1.
<scales pt_clust_3="39.63931" pt_clust_4="58.84716" pt_clust_5="58.84716" pt_clust_6="161.13123"></scales>
<clustering>
<clus scale="   39.639">  1  3  2 -1</clus>
<clus scale="   58.847">  4  5 -1 -1</clus>
<clus scale="  161.131">  1  6  2 -1</clus>
<clus scale="  173.068">  2  3  1 -1</clus>
</clustering>
</event>
<event>
 6    0  0.1230761E+002  0.9909064E+02  0.7546771E-02  0.1282220E+00
         21   -1    0    0  505  502  0.00000000000E+00  0.00000000000E+00  0.22637998820E+03  0.22637998820E+03  0.00000000000E+00 0.  1.
         -1   -1    0    0    0  501 -0.00000000000E+00 -0.00000000000E+00 -0.32190079661E+03  0.32190079661E+03  0.00000000000E+00 0.  1.
         21    1    1    2  503  502  0.15340325392E+03 -0.23843218197E+01  0.85550138271E+02  0.17566180422E+03  0.00000000000E+00 0.  1.
         21    1    1    2  504  503 -0.65670464542E+02 -0.46080034902E+02 -0.80826096102E+02  0.11388080321E+03  0.00000000000E+00 0.  1.
         21    1    1    2  505  501 -0.55415996712E+02  0.15485643671E+02  0.65207296664E+02  0.86963954543E+02  0.00000000000E+00 0.  1.
         -1    1    1    2    0  504 -0.32316792665E+02  0.32978713050E+02 -0.16545214725E+03  0.17177422284E+03  0.00000000000E+00 0.  1.
<scales pt_clust_3="14000.00000" pt_clust_4="99.09064" pt_clust_5="60.39987" pt_clust_6="46.17327"></scales>
<clustering>
<clus scale="   46.173">  2  6  1 -1</clus>
<clus scale="   60.400">  1  5  2 -1</clus>
<clus scale="   99.091">  2  4  1 -1</clus>
<clus scale="   60.400">  1  3  2 -1</clus>
</clustering>
</event>
<event>
 6    0  0.1230761E+002  0.1283484E+03  0.7546771E-02  0.1229927E+00
         21   -1    0    0  503  502  0.00000000000E+00  0.00000000000E+00  0.71203477052E+02  0.71203477052E+02  0.00000000000E+00 0. -1.
          2   -1    0    0  505    0 -0.00000000000E+00 -0.00000000000E+00 -0.10727883982E+04  0.10727883982E+04  0.00000000000E+00 0.  1.
         21    1    1    2  503  504 -0.45190313388E+02  0.61942757933E+02 -0.35175768342E+02  0.84358783555E+02  0.00000000000E+00 0. -1.
         21    1    1    2  504  501 -0.83554677594E+02 -0.82441823140E+01 -0.60921125371E+01  0.84181141149E+02  0.00000000000E+00 0. -1.
         21    1    1    2  505  502  0.15760477489E+02  0.27367505097E+02 -0.20932838939E+03  0.21169730181E+03  0.00000000000E+00 0. -1.
          2    1    1    2  501    0  0.11298451349E+03 -0.81066080715E+02 -0.75098865088E+03  0.76375464875E+03  0.00000000000E+00 0.  1.
<scales pt_clust_3="77.58951" pt_clust_4="14000.00000" pt_clust_5="31.58121" pt_clust_6="128.34841"></scales>
<clustering>
<clus scale="   31.581">  2  5  1 -1</clus>
<clus scale="   77.590">  1  3  2 -1</clus>
<clus scale="  128.348">  2  6  1 -1</clus>
<clus scale="   77.590">  1  3  2 -1</clus>
</clustering>
</event>
<event>
 6    0  0.1230761E+002  0.1030094E+03  0.7546771E-02  0.1274092E+00
          2   -1    0    0  504    0 -0.00000000000E+00  0.00000000000E+00  0.28777847808E+04  0.28777847808E+04  0.00000000000E+00 0. -1.
         21   -1    0    0  501  502  0.00000000000E+00 -0.00000000000E+00 -0.62243210968E+03  0.62243210968E+03  0.00000000000E+00 0. -1.
         21    1    1    2  503  502  0.39382769059E+02  0.17099475848E+02 -0.24967087805E+03  0.25333563097E+03  0.00000000000E+00 0. -1.
         21    1    1    2  504  505 -0.33702821928E+02 -0.33549296382E+02  0.73649945931E+02  0.87668409529E+02  0.00000000000E+00 0.  1.
         21    1    1    2  505  503 -0.30352048849E+02  0.86058138072E+02 -0.35770261277E+03  0.36915905675E+03  0.00000000000E+00 0. -1.
          2    1    1    2  501    0  0.24672101719E+02 -0.69608317538E+02  0.27890762160E+04  0.27900537932E+04  0.00000000000E+00 0. -1.
<scales pt_clust_3="42.93477" pt_clust_4="46.80011" pt_clust_5="103.00942" pt_clust_6="14000.00000"></scales>
<clustering>
<clus scale="   42.935">  2  3  1 -1</clus>
<clus scale="   46.800">  1  4  2 -1</clus>
<clus scale="  103.009">  2  5  1 -1</clus>
<clus scale="   42.935">  2  3  1 -1</clus>
</clustering>
</event>
<event>
 6    0  0.1230761E+002  0.9194866E+02  0.7546771E-02  0.1298200E+00
         21   -1    0    0  505  502  0.00000000000E+00  0.00000000000E+00  0.18999118948E+03  0.18999118948E+03  0.00000000000E+00 0. -1.
         -1   -1    0    0    0  501 -0.00000000000E+00 -0.00000000000E+00 -0.13523396003E+03  0.13523396003E+03  0.00000000000E+00 0. -1.
         21    1    1    2  503  502 -0.19138587972E+02  0.36540528288E+02  0.41817761134E+02  0.58738581046E+02  0.00000000000E+00 0. -1.
         21    1    1    2  504  501  0.45063713305E+02  0.55603487659E+02  0.11797748928E+02  0.72537390196E+02  0.00000000000E+00 0. -1.
         21    1    1    2  505  504  0.30815220515E+02 -0.12400605708E+01  0.63053141539E+02  0.70191268856E+02  0.00000000000E+00 0. -1.
         -1    1    1    2    0  503 -0.56740345848E+02 -0.90903955376E+02 -0.61911422144E+02  0.12375790941E+03  0.00000000000E+00 0. -1.
<scales pt_clust_3="36.63099" pt_clust_4="91.94866" pt_clust_5="30.84016" pt_clust_6="14000.00000"></scales>
<clustering>
<clus scale="   30.840">  1  5  2 -1</clus>
<clus scale="   36.631">  1  3  2 -1</clus>
<clus scale="   91.949">  1  4  2 -1</clus>
<clus scale="   30.840">  1  3  2 -1</clus>
</clustering>
</event>
<event>
 6    0  0.1230761E+002  0.1268091E+03  0.7546771E-02  0.1232269E+00
         21   -1    0    0  501  502  0.00000000000E+00  0.00000000000E+00  0.35855751683E+03  0.35855751683E+03  0.00000000000E+00 0.  1.
          2   -1    0    0  504    0 -0.00000000000E+00 -0.00000000000E+00 -0.10631852213E+04  0.10631852213E+04  0.00000000000E+00 0.  1.
         21    1    1    2  503  505  0.21486306219E+02  0.39923119761E+02  0.69452020709E+02  0.82940340167E+02  0.00000000000E+00 0. -1.
         21    1    1    2  504  503 -0.94149479790E+02  0.18614052733E+02 -0.54298625019E+03  0.55140246228E+03  0.00000000000E+00 0.  1.
         21    1    1    2  505  502  0.30534215040E+02  0.66580521742E+02  0.26453551475E+03  0.27448923973E+03  0.00000000000E+00 0.  1.
          2    1    1    2  501    0  0.42128958531E+02 -0.12511769424E+03 -0.49562898975E+03  0.51291069597E+03  0.00000000000E+00 0.  1.
<scales pt_clust_3="36.55654" pt_clust_4="95.97191" pt_clust_5="36.55654" pt_clust_6="117.98928"></scales>
<clustering>
<clus scale="   36.557">  3  5 -1 -1</clus>
<clus scale="   95.972">  2  4  1 -1</clus>
<clus scale="  117.989">  2  6  1 -1</clus>
<clus scale="  126.809">  1  3  2 -1</clus>
</clustering>
</event>
<event>
 6    0  0.1230761E+002  0.3788176E+03  0.7546771E-02  0.1051372E+00
         21   -1    0    0  504  502  0.00000000000E+00  0.00000000000E+00  0.17942028911E+03  0.17942028911E+03  0.00000000000E+00 0.  1.
          2   -1    0    0  502    0 -0.00000000000E+00 -0.00000000000E+00 -0.72195534908E+03  0.72195534908E+03  0.00000000000E+00 0. -1.
         21    1    1    2  503  505  0.52463987997E+02  0.14142565999E+03 -0.11110355916E+03  0.18734377010E+03  0.00000000000E+00 0.  1.
         21    1    1    2  504  503 -0.91399445506E+02  0.11562612876E+03 -0.10117281982E+03  0.17877136170E+03  0.00000000000E+00 0.  1.
         21    1    1    2  505  501 -0.94104257968E+01  0.79968345656E+02 -0.56207321903E+02  0.98197532841E+02  0.00000000000E+00 0.  1.
          2    1    1    2  501    0  0.48345883306E+02 -0.33702013440E+03 -0.27405135909E+03  0.43706297354E+03  0.00000000000E+00 0. -1.
<scales pt_clust_3="123.08989" pt_clust_4="123.08989" pt_clust_5="37.76650" pt_clust_6="340.47011"></scales>
<clustering>
<clus scale="   37.766">  3  5 -1 -1</clus>
<clus scale="  123.090">  3  4 -1 -1</clus>
<clus scale="  340.470">  2  6  1 -1</clus>
<clus scale="  378.818">  1  3  2 -1</clus>
</clustering>
</event>
<event>
 6    0  0.1230761E+002  0.7496934E+02  0.7546771E-02  0.1343966E+00
         21   -1    0    0  503  502  0.00000000000E+00  0.00000000000E+00  0.12019563928E+03  0.12019563928E+03  0.00000000000E+00 0. -1.
          1   -1    0    0  504    0 -0.00000000000E+00 -0.00000000000E+00 -0.14462539221E+04  0.14462539221E+04  0.00000000000E+00 0. -1.
         21    1    1    2  503  501 -0.23205199447E+02  0.38391872307E+02  0.78022232046E+02  0.89999365743E+02  0.00000000000E+00 0. -1.
         21    1    1    2  504  505 -0.47887052802E+02  0.38804274426E+02 -0.23157855586E+03  0.23964049966E+03  0.00000000000E+00 0.  1.
         21    1    1    2  505  502  0.20989002341E+02  0.38247725991E+02  0.12310933983E+02  0.45331951847E+02  0.00000000000E+00 0.  1.
          1    1    1    2  501    0  0.50103249908E+02 -0.11544387272E+03 -0.11848128930E+04  0.11914777442E+04  0.00000000000E+00 0. -1.
<scales pt_clust_3="74.96934" pt_clust_4="62.00737" pt_clust_5="43.62828" pt_clust_6="14000.00000"></scales>
<clustering>
<clus scale="   43.628">  1  5  2 -1</clus>
<clus scale="   62.007">  2  4  1 -1</clus>
<clus scale="   74.969">  1  3  2 -1</clus>
<clus scale="   43.628">  1  3  2 -1</clus>
</clustering>
</event>
<event>
 6    0  0.1230761E+002  0.7521516E+02  0.7546771E-02  0.1343206E+00
         21   -1    0    0  503  502  0.00000000000E+00  0.00000000000E+00  0.47174855608E+03  0.47174855608E+03  0.00000000000E+00 0. -1.
         -4   -1    0    0    0  501 -0.00000000000E+00 -0.00000000000E+00 -0.15135531881E+04  0.15135531881E+04  0.00000000000E+00 0.  1.
         21    1    1    2  503  501  0.20633954809E+02  0.55442993708E+02 -0.11631658118E+03  0.13049610224E+03  0.00000000000E+00 0. -1.
         21    1    1    2  504  505 -0.47931691536E+02 -0.51628655300E+01  0.22518654124E+03  0.23028912391E+03  0.00000000000E+00 0. -1.
         21    1    1    2  505  502 -0.21680599139E+02  0.36866151309E+02  0.23317301567E+03  0.23706289614E+03  0.00000000000E+00 0. -1.
         -4    1    1    2    0  504  0.48978335866E+02 -0.87146279488E+02 -0.13838476077E+04  0.13874536219E+04  0.00000000000E+00 0.  1.
<scales pt_clust_3="59.97500" pt_clust_4="14000.00000" pt_clust_5="42.76870" pt_clust_6="75.21516"></scales>
<clustering>
<clus scale="   42.769">  1  5  2 -1</clus>
<clus scale="   59.975">  2  3  1 -1</clus>
<clus scale="   75.215">  2  6  1 -1</clus>
<clus scale="   42.769">  1  3  2 -1</clus>
</clustering>
</event>
<event>
 6    0  0.1230761E+002  0.4014058E+03  0.7546771E-02  0.1043294E+00
          1   -1    0    0  505    0 -0.00000000000E+00  0.00000000000E+00  0.20186885610E+03  0.20186885610E+03  0.00000000000E+00 0. -1.
         21   -1    0    0  503  502  0.00000000000E+00 -0.00000000000E+00 -0.26814975039E+04  0.26814975039E+04  0.00000000000E+00 0. -1.
         21    1    1    2  503  501 -0.26790710066E+02 -0.26560503602E+02 -0.32079004365E+03  0.32300070372E+03  0.00000000000E+00 0. -1.
         21    1    1    2  504  502  0.20100489725E+02  0.53213107461E+02 -0.15144204940E+04  0.15154884022E+04  0.00000000000E+00 0. -1.
         21    1    1    2  505  504  0.40377095867E+03 -0.53085764197E+02 -0.43231313432E+03  0.59392232786E+03  0.00000000000E+00 0. -1.
          1    1    1    2  501    0 -0.39708073833E+03  0.26433160337E+02 -0.21210497583E+03  0.45095492623E+03  0.00000000000E+00 0. -1.
<scales pt_clust_3="37.72536" pt_clust_4="36.27634" pt_clust_5="14000.00000" pt_clust_6="401.40584"></scales>
<clustering>
<clus scale="   37.725">  2  3  1 -1</clus>
<clus scale="   36.276">  2  4  1 -1</clus>
<clus scale="  401.406">  1  6  2 -1</clus>
<clus scale="   37.725">  2  3  1 -1</clus>
</clustering>
</event>
<event>
 6    0  0.1230761E+002  0.7572594E+02  0.7546771E-02  0.1341638E+00
          1   -1    0    0  504    0 -0.00000000000E+00  0.00000000000E+00  0.77271249320E+02  0.77271249320E+02  0.00000000000E+00 0. -1.
         21   -1    0    0  503  502  0.00000000000E+00 -0.00000000000E+00 -0.75165450271E+03  0.75165450271E+03  0.00000000000E+00 0.  1.
         21    1    1    2  503  501  0.19065982728E+02  0.10243623899E+03 -0.45358821236E+03  0.46540193505E+03  0.00000000000E+00 0. -1.
         21    1    1    2  504  505  0.34442958383E+02  0.17555839481E+02  0.80622493538E+01  0.39490818511E+02  0.00000000000E+00 0. -1.
         21    1    1    2  505  502 -0.31648706197E+02 -0.51177127660E+02 -0.24310145525E+03  0.25043772988E+03  0.00000000000E+00 0.  1.
          1    1    1    2  501    0 -0.21860234913E+02 -0.68814950810E+02  0.14244164876E+02  0.73595268587E+02  0.00000000000E+00 0. -1.
<scales pt_clust_3="14000.00000" pt_clust_4="38.65909" pt_clust_5="75.72594" pt_clust_6="54.77867"></scales>
<clustering>
<clus scale="   38.659">  1  4  2 -1</clus>
<clus scale="   54.779">  1  6  2 -1</clus>
<clus scale="   75.726">  2  5  1 -1</clus>
<clus scale="   75.726">  2  3  1 -1</clus>
</clustering>
</event>
<event>
 6    0  0.1230761E+002  0.1142493E+03  0.7546771E-02  0.1252897E+00
         21   -1    0    0  503  502  0.00000000000E+00  0.00000000000E+00  0.69988382474E+03  0.69988382474E+03  0.00000000000E+00 0.  1.
         -2   -1    0    0    0  501 -0.00000000000E+00 -0.00000000000E+00 -0.75497840132E+02  0.75497840132E+02  0.00000000000E+00 0.  1.
         21    1    1    2  503  505  0.52507333188E+02 -0.78723855119E+02  0.17539987088E+03  0.19929771726E+03  0.00000000000E+00 0.  1.
         21    1    1    2  504  501  0.81778082726E+02  0.64982195786E+02  0.69505383959E+02  0.12546449292E+03  0.00000000000E+00 0. -1.
         21    1    1    2  505  504 -0.10442564015E+03 -0.78354144221E+02  0.13563738950E+03  0.18825936276E+03  0.00000000000E+00 0.  1.
         -2    1    1    2    0  502 -0.29859775765E+02  0.92095803554E+02  0.24384334027E+03  0.26236009193E+03  0.00000000000E+00 0.  1.
<scales pt_clust_3="94.62804" pt_clust_4="14000.00000" pt_clust_5="114.24933" pt_clust_6="53.36507"></scales>
<clustering>
<clus scale="   94.628">  1  3  2 -1</clus>
<clus scale="   53.365">  1  6  2 -1</clus>
<clus scale="  114.249">  1  5  2 -1</clus>
<clus scale="   94.628">  1  3  2 -1</clus>
</clustering>
</event>
<event>
 6    0  0.1230761E+002  0.9743629E+02  0.7546771E-02  0.1285781E+00
         21   -1    0    0  505  502  0.00000000000E+00  0.00000000000E+00  0.17410969281E+03  0.17410969281E+03  0.00000000000E+00 0.  1.
         -4   -1    0    0    0  501 -0.00000000000E+00 -0.00000000000E+00 -0.21353490856E+04  0.21353490856E+04  0.00000000000E+00 0. -1.
         21    1    1    2  503  502  0.60316153894E+01  0.34227587713E+02  0.74237563258E+01  0.35538996931E+02  0.00000000000E+00 0.  1.
         21    1    1    2  504  503  0.43455553193E+02  0.50851648880E+02  0.13863244933E+03  0.15392605791E+03  0.00000000000E+00 0.  1.
         21    1    1    2  505  501 -0.14375320764E+02  0.34973636490E+02 -0.76355186697E+02  0.85205162003E+02  0.00000000000E+00 0.  1.
         -4    1    1    2    0  504 -0.35111847818E+02 -0.12005287308E+03 -0.20309404118E+04  0.20347885616E+04  0.00000000000E+00 0. -1.
<scales pt_clust_3="34.75497" pt_clust_4="14000.00000" pt_clust_5="38.66786" pt_clust_6="97.43629"></scales>
<clustering>
<clus scale="   34.755">  1  3  2 -1</clus>
<clus scale="   38.668">  2  5  1 -1</clus>
<clus scale="   97.436">  2  6  1 -1</clus>
<clus scale="   34.755">  1  3  2 -1</clus>
</clustering>
</event>
<event>
 6    0  0.1384152E+002  0.1025980E+03  0.7546771E-02  0.1274926E+00
          2   -1    0    0  504    0 -0.00000000000E+00  0.00000000000E+00  0.73310331326E+03  0.73310331326E+03  0.00000000000E+00 0. -1.
         21   -1    0    0  505  502  0.00000000000E+00 -0.00000000000E+00 -0.53285047956E+03  0.53285047956E+03  0.00000000000E+00 0.  1.
         21    1    1    2  503  502 -0.56164204964E+02 -0.46374857819E+02 -0.43949874431E+03  0.44549320040E+03  0.00000000000E+00 0.  1.
         21    1    1    2  504  503  0.43362785538E+02 -0.67248713162E+02 -0.19380106825E+02  0.82330487258E+02  0.00000000000E+00 0.  1.
         21    1    1    2  505  501  0.37639682260E+02  0.11919573741E+02 -0.24541279443E+02  0.46487593135E+02  0.00000000000E+00 0. -1.
          2    1    1    2  501    0 -0.24838262834E+02  0.10170399724E+03  0.68367296427E+03  0.69164251202E+03  0.00000000000E+00 0. -1.
<scales pt_clust_3="42.35115" pt_clust_4="102.59795" pt_clust_5="39.48192" pt_clust_6="14000.00000"></scales>
<clustering>
<clus scale="   39.482">  2  5  1 -1</clus>
<clus scale="   42.351">  2  3  1 -1</clus>
<clus scale="  102.598">  2  4  1 -1</clus>
<clus scale="   39.482">  2  3  1 -1</clus>
</clustering>
</event>
<event>
 6    0  0.1230761E+002  0.1832101E+03  0.7546771E-02  0.1164732E+00
          2   -1    0    0  505    0 -0.00000000000E+00  0.00000000000E+00  0.19777389037E+04  0.19777389037E+04  0.00000000000E+00 0.  1.
         21   -1    0    0  501  502  0.00000000000E+00 -0.00000000000E+00 -0.78329185643E+02  0.78329185643E+02  0.00000000000E+00 0. -1.
         21    1    1    2  503  502  0.34106881483E+02 -0.31999384844E+02 -0.67554972427E+01  0.47253325152E+02  0.00000000000E+00 0. -1.
         21    1    1    2  504  503  0.55006970597E+02 -0.31316529048E+01  0.22418700804E+01  0.55141636226E+02  0.00000000000E+00 0. -1.
         21    1    1    2  505  504  0.21305641002E+02 -0.13363258341E+03  0.22410272020E+03  0.26178927956E+03  0.00000000000E+00 0. -1.
          2    1    1    2  501    0 -0.11041949308E+03  0.16876362116E+03  0.16798206250E+04  0.16918838484E+04  0.00000000000E+00 0.  1.
<scales pt_clust_3="33.07663" pt_clust_4="102.29543" pt_clust_5="183.21014" pt_clust_6="14000.00000"></scales>
<clustering>
<clus scale="   33.077">  3  4 -1 -1</clus>
<clus scale="  102.295">  2  3  1 -1</clus>
<clus scale="  183.210">  2  5  1 -1</clus>
<clus scale="  102.295">  2  3  1 -1</clus>
</clustering>
</event>
<event>
 6    0  0.1230761E+002  0.1247782E+03  0.7546771E-02  0.1235416E+00
          2   -1    0    0  505    0 -0.00000000000E+00  0.00000000000E+00  0.38295183771E+04  0.38295183771E+04  0.00000000000E+00 0.  1.
         21   -1    0    0  501  502  0.00000000000E+00 -0.00000000000E+00 -0.56524631279E+03  0.56524631279E+03  0.00000000000E+00 0. -1.
         21    1    1    2  503  504  0.24603386762E+02 -0.62815456941E+02 -0.32675375515E+03  0.33364520793E+03  0.00000000000E+00 0. -1.
         21    1    1    2  504  502  0.53999509188E+02 -0.17451376631E+02 -0.22818890776E+03  0.23513969287E+03  0.00000000000E+00 0. -1.
         21    1    1    2  505  503  0.10907133313E+02 -0.37318211250E+02  0.19969646460E+03  0.20344604302E+03  0.00000000000E+00 0. -1.
          2    1    1    2  501    0 -0.89510029264E+02  0.11758504482E+03  0.36195182626E+04  0.36225337461E+04  0.00000000000E+00 0.  1.
<scales pt_clust_3="49.67328" pt_clust_4="49.67328" pt_clust_5="38.87949" pt_clust_6="112.40945"></scales>
<clustering>
<clus scale="   38.879">  1  5  2 -1</clus>
<clus scale="   49.673">  3  4 -1 -1</clus>
<clus scale="  112.409">  1  6  2 -1</clus>
<clus scale="  124.778">  2  3  1 -1</clus>
</clustering>
</event>
<event>
 6    0  0.1230761E+002  0.2788801E+03  0.7546771E-02  0.1096302E+00
          2   -1    0    0  503    0 -0.00000000000E+00  0.00000000000E+00  0.12005851577E+04  0.12005851577E+04  0.00000000000E+00 0. -1.
         21   -1    0    0  504  502  0.00000000000E+00 -0.00000000000E+00 -0.43058197389E+03  0.43058197389E+03  0.00000000000E+00 0.  1.
         21    1    1    2  503  502 -0.25318281214E+03  0.42656795773E+02  0.49300709869E+03  0.55585712008E+03  0.00000000000E+00 0. -1.
         21    1    1    2  504  505 -0.25999174837E+02 -0.40694316795E+02 -0.28446767974E+03  0.28853742449E+03  0.00000000000E+00 0.  1.
         21    1    1    2  505  501 -0.13319634949E+02  0.85362711895E+02 -0.52509083456E+02  0.10110098468E+03  0.00000000000E+00 0. -1.
          2    1    1    2  501    0  0.29250162192E+03 -0.87325190874E+02  0.61397284832E+03  0.68567160234E+03  0.00000000000E+00 0. -1.
<scales pt_clust_3="278.88006" pt_clust_4="48.29063" pt_clust_5="69.22807" pt_clust_6="14000.00000"></scales>
<clustering>
<clus scale="   48.291">  2  4  1 -1</clus>
<clus scale="   69.228">  2  5  1 -1</clus>
<clus scale="  278.880">  1  3  2 -1</clus>
<clus scale="   48.291">  2  3  1 -1</clus>
</clustering>
</event>
<event>
 6    0  0.1230761E+002  0.9932345E+02  0.7546771E-02  0.1281725E+00
         21   -1    0    0  503  502  0.00000000000E+00  0.00000000000E+00  0.39601314041E+02  0.39601314041E+02  0.00000000000E+00 0.  1.
          1   -1    0    0  505    0 -0.00000000000E+00 -0.00000000000E+00 -0.22387231464E+04  0.22387231464E+04  0.00000000000E+00 0. -1.
         21    1    1    2  503  501  0.57962171141E+02 -0.39493842549E+02 -0.15052864756E+03  0.16606700641E+03  0.00000000000E+00 0.  1.
         21    1    1    2  504  502 -0.62052144715E+02  0.13715179575E+03 -0.16164320813E+03  0.22088370351E+03  0.00000000000E+00 0.  1.
         21    1    1    2  505  504 -0.29151921917E+02 -0.10673673905E+02 -0.73955292802E+03  0.74020422534E+03  0.00000000000E+00 0. -1.
          1    1    1    2  501    0  0.33241895490E+02 -0.86984279293E+02 -0.11473970486E+04  0.11511695251E+04  0.00000000000E+00 0. -1.
<scales pt_clust_3="68.28072" pt_clust_4="14000.00000" pt_clust_5="31.04451" pt_clust_6="99.32345"></scales>
<clustering>
<clus scale="   31.045">  2  5  1 -1</clus>
<clus scale="   68.281">  1  3  2 -1</clus>
<clus scale="   99.323">  2  6  1 -1</clus>
<clus scale="   68.281">  1  3  2 -1</clus>
</clustering>
</event>
<event>
 6    0  0.1230761E+002  0.1087918E+03  0.7546771E-02  0.1262824E+00
         21   -1    0    0  503  502  0.00000000000E+00  0.00000000000E+00  0.26518786212E+02  0.26518786212E+02  0.00000000000E+00 0. -1.
          2   -1    0    0  504    0 -0.00000000000E+00 -0.00000000000E+00 -0.85805357425E+03  0.85805357425E+03  0.00000000000E+00 0. -1.
         21    1    1    2  503  505  0.36553961302E+02  0.16352814830E+02 -0.10266767876E+03  0.11020099320E+03  0.00000000000E+00 0. -1.
         21    1    1    2  504  502  0.32112005396E+02  0.52008856764E+02 -0.35039199250E+03  0.35568335705E+03  0.00000000000E+00 0. -1.
         21    1    1    2  505  501  0.47428325704E+02 -0.21908362052E+02 -0.13976451721E+03  0.14920972715E+03  0.00000000000E+00 0. -1.
          2    1    1    2  501    0 -0.11609429240E+03 -0.46453309543E+02 -0.23871059957E+03  0.26947828306E+03  0.00000000000E+00 0. -1.
<scales pt_clust_3="33.18443" pt_clust_4="61.12366" pt_clust_5="33.18443" pt_clust_6="101.97543"></scales>
<clustering>
<clus scale="   33.184">  3  5 -1 -1</clus>
<clus scale="   61.124">  2  4  1 -1</clus>
<clus scale="  101.975">  2  6  1 -1</clus>
<clus scale="  108.792">  1  3  2 -1</clus>
</clustering>
</event>
<event>
 6    0  0.1230761E+002  0.8315432E+02  0.7546771E-02  0.1320331E+00
         21   -1    0    0  503  502  0.00000000000E+00  0.00000000000E+00  0.75429095475E+03  0.75429095475E+03  0.00000000000E+00 0. -1.
          1   -1    0    0  504    0 -0.00000000000E+00 -0.00000000000E+00 -0.17381474520E+04  0.17381474520E+04  0.00000000000E+00 0.  1.
         21    1    1    2  503  501  0.32234063717E+02  0.36906020209E+02  0.56529899360E+03  0.56741875309E+03  0.00000000000E+00 0. -1.
         21    1    1    2  504  505 -0.37360288823E+02 -0.79604663042E+02 -0.14962828999E+03  0.17355494440E+03  0.00000000000E+00 0.  1.
         21    1    1    2  505  502  0.40122420252E+01 -0.40668732668E+02  0.17247640481E+03  0.17725166887E+03  0.00000000000E+00 0. -1.
          1    1    1    2  501    0  0.11139830803E+01  0.83367375501E+02 -0.15720036057E+04  0.15742130404E+04  0.00000000000E+00 0.  1.
<scales pt_clust_3="36.26761" pt_clust_4="14000.00000" pt_clust_5="40.86617" pt_clust_6="83.15432"></scales>
<clustering>
<clus scale="   40.866">  1  5  2 -1</clus>
<clus scale="   36.268">  1  3  2 -1</clus>
<clus scale="   83.154">  2  6  1 -1</clus>
<clus scale="   40.866">  1  3  2 -1</clus>
</clustering>
</event>
<event>
 6    0  0.1230761E+002  0.2588566E+03  0.7546771E-02  0.1107832E+00
         21   -1    0    0  503  502  0.00000000000E+00  0.00000000000E+00  0.32310457199E+03  0.32310457199E+03  0.00000000000E+00 0.  1.
          2   -1    0    0  504    0 -0.00000000000E+00 -0.00000000000E+00 -0.29363177501E+04  0.29363177501E+04  0.00000000000E+00 0.  1.
         21    1    1    2  503  501  0.26244836941E+02  0.36355000008E+02 -0.47704815489E+02  0.65469282206E+02  0.00000000000E+00 0. -1.
         21    1    1    2  504  505  0.14027904183E+03 -0.18651263411E+03  0.21083497984E+03  0.31451003320E+03  0.00000000000E+00 0.  1.
         21    1    1    2  505  502 -0.15318721532E+02 -0.36586801631E+02  0.37959230452E+02  0.54901370287E+02  0.00000000000E+00 0.  1.
          2    1    1    2  501    0 -0.15120515724E+03  0.18674443573E+03 -0.28143025730E+04  0.28245416364E+04  0.00000000000E+00 0.  1.
<scales pt_clust_3="44.83835" pt_clust_4="39.49473" pt_clust_5="39.49473" pt_clust_6="240.47647"></scales>
<clustering>
<clus scale="   39.495">  4  5 -1 -1</clus>
<clus scale="   44.838">  1  3  2 -1</clus>
<clus scale="  240.476">  2  6  1 -1</clus>
<clus scale="   44.838">  1  3  2 -1</clus>
</clustering>
</event>
<event>
 6    0  0.1230761E+002  0.9365862E+02  0.7546771E-02  0.1294226E+00
          4   -1    0    0  504    0 -0.00000000000E+00  0.00000000000E+00  0.66800251779E+03  0.66800251779E+03  0.00000000000E+00 0.  1.
         21   -1    0    0  501  502  0.00000000000E+00 -0.00000000000E+00 -0.22686520009E+03  0.22686520009E+03  0.00000000000E+00 0. -1.
         21    1    1    2  503  502 -0.51613979001E+02  0.44780482634E+02 -0.15288194078E+03  0.16745800151E+03  0.00000000000E+00 0. -1.
         21    1    1    2  504  505 -0.26211348438E+02  0.32436638909E+02  0.13650508514E+03  0.14273334789E+03  0.00000000000E+00 0.  1.
         21    1    1    2  505  503  0.58209383839E+02  0.51956778067E+02 -0.27224824036E+02  0.82637946476E+02  0.00000000000E+00 0.  1.
          4    1    1    2  501    0  0.19615943600E+02 -0.12917389961E+03  0.48473899738E+03  0.50203842200E+03  0.00000000000E+00 0.  1.
<scales pt_clust_3="68.89859" pt_clust_4="41.70336" pt_clust_5="93.65862" pt_clust_6="14000.00000"></scales>
<clustering>
<clus scale="   41.703">  1  4  2 -1</clus>
<clus scale="   68.899">  2  3  1 -1</clus>
<clus scale="   93.659">  2  5  1 -1</clus>
<clus scale="   68.899">  2  3  1 -1</clus>
</clustering>
</event>
<event>
 6    0  0.1230761E+002  0.1332213E+03  0.7546771E-02  0.1222753E+00
         21   -1    0    0  503  502  0.00000000000E+00  0.00000000000E+00  0.23759505513E+03  0.23759505513E+03  0.00000000000E+00 0.  1.
         -4   -1    0    0    0  501 -0.00000000000E+00 -0.00000000000E+00 -0.40596530115E+03  0.40596530115E+03  0.00000000000E+00 0. -1.
         21    1    1    2  503  505  0.68473420779E+02  0.26008511848E+02  0.15266049961E+03  0.16932300548E+03  0.00000000000E+00 0.  1.
         21    1    1    2  504  501  0.29361095620E+02 -0.37627225995E+02 -0.94462056946E+02  0.10583459867E+03  0.00000000000E+00 0.  1.
         21    1    1    2  505  504  0.49439490736E+02  0.89691627018E+01  0.39746753527E+02  0.64066477504E+02  0.00000000000E+00 0. -1.
         -4    1    1    2    0  502 -0.14727400714E+03  0.26495514453E+01 -0.26631544221E+03  0.30433627464E+03  0.00000000000E+00 0. -1.
<scales pt_clust_3="39.92118" pt_clust_4="47.72716" pt_clust_5="39.92118" pt_clust_6="124.19619"></scales>
<clustering>
<clus scale="   39.921">  3  5 -1 -1</clus>
<clus scale="   47.727">  2  4  1 -1</clus>
<clus scale="  124.196">  2  6  1 -1</clus>
<clus scale="  133.221">  1  3  2 -1</clus>
</clustering>
</event>
<event>
 6    0  0.1230761E+002  0.1447738E+03  0.7546771E-02  0.1207046E+00
          1   -1    0    0  505    0 -0.00000000000E+00  0.00000000000E+00  0.34149858526E+04  0.34149858526E+04  0.00000000000E+00 0.  1.
         21   -1    0    0  504  502  0.00000000000E+00 -0.00000000000E+00 -0.10394417663E+03  0.10394417663E+03  0.00000000000E+00 0. -1.
         21    1    1    2  503  501  0.76426399166E+02 -0.51650110157E+02 -0.62777018817E+01  0.92456140464E+02  0.00000000000E+00 0. -1.
         21    1    1    2  504  503  0.31953522248E+02 -0.28451655236E+02 -0.40945911076E+02  0.59220705024E+02  0.00000000000E+00 0. -1.
         21    1    1    2  505  502  0.61537435229E+02  0.30715049990E+02  0.99110752889E+03  0.99349101861E+03  0.00000000000E+00 0.  1.
          1    1    1    2  501    0 -0.16991735664E+03  0.49386715403E+02  0.23671577601E+04  0.23737621652E+04  0.00000000000E+00 0.  1.
<scales pt_clust_3="34.81545" pt_clust_4="34.81545" pt_clust_5="68.77696" pt_clust_6="135.44804"></scales>
<clustering>
<clus scale="   34.815">  3  4 -1 -1</clus>
<clus scale="   68.777">  1  5  2 -1</clus>
<clus scale="  135.448">  1  6  2 -1</clus>
<clus scale="  144.774">  2  3  1 -1</clus>
</clustering>
</event>
<event>
 6    0  0.1230761E+002  0.1546967E+03  0.7546771E-02  0.1194818E+00
         21   -1    0    0  501  502  0.00000000000E+00  0.00000000000E+00  0.48156708952E+02  0.48156708952E+02  0.00000000000E+00 0.  1.
          1   -1    0    0  504    0 -0.00000000000E+00 -0.00000000000E+00 -0.13466529728E+04  0.13466529728E+04  0.00000000000E+00 0. -1.
         21    1    1    2  503  505 -0.88482490009E+02  0.86626939181E+01 -0.11736795675E+03  0.14723936490E+03  0.00000000000E+00 0.  1.
         21    1    1    2  504  503  0.50608048489E+02 -0.24628548566E+01 -0.85456419378E+03  0.85606495170E+03  0.00000000000E+00 0. -1.
         21    1    1    2  505  502 -0.70043313276E+02  0.54678368392E+02 -0.10413523694E+03  0.13689389058E+03  0.00000000000E+00 0.  1.
          1    1    1    2  501    0  0.10791775480E+03 -0.60878207454E+02 -0.22242887638E+03  0.25461147459E+03  0.00000000000E+00 0. -1.
<scales pt_clust_3="50.24120" pt_clust_4="50.66794" pt_clust_5="50.24120" pt_clust_6="146.30634"></scales>
<clustering>
<clus scale="   50.241">  3  5 -1 -1</clus>
<clus scale="   50.668">  2  4  1 -1</clus>
<clus scale="  146.306">  1  6  2 -1</clus>
<clus scale="  146.306">  1  3  2 -1</clus>
</clustering>
</event>
<event>
 6    0  0.1230761E+002  0.1290008E+03  0.7546771E-02  0.1228946E+00
         -2   -1    0    0    0  501 -0.00000000000E+00  0.00000000000E+00  0.27286976432E+03  0.27286976432E+03  0.00000000000E+00 0.  1.
         21   -1    0    0  505  502  0.00000000000E+00 -0.00000000000E+00 -0.30263062376E+03  0.30263062376E+03  0.00000000000E+00 0.  1.
         21    1    1    2  503  502 -0.38766802735E+01  0.41393644804E+02 -0.45711012336E+02  0.61789636096E+02  0.00000000000E+00 0. -1.
         21    1    1    2  504  501 -0.40107823574E+01 -0.45550726163E+02  0.36018269386E+02  0.58208854641E+02  0.00000000000E+00 0. -1.
         21    1    1    2  505  504  0.11945846415E+03  0.25955161911E+02 -0.20484898896E+03  0.23855209780E+03  0.00000000000E+00 0.  1.
         -2    1    1    2    0  503 -0.11157100152E+03 -0.21798080552E+02  0.18478087247E+03  0.21694979955E+03  0.00000000000E+00 0.  1.
<scales pt_clust_3="41.57478" pt_clust_4="43.90514" pt_clust_5="129.00081" pt_clust_6="14000.00000"></scales>
<clustering>
<clus scale="   41.575">  2  3  1 -1</clus>
<clus scale="   43.905">  1  4  2 -1</clus>
<clus scale="  129.001">  2  5  1 -1</clus>
<clus scale="   41.575">  2  3  1 -1</clus>
</clustering>
</event>
<event>
 6    0  0.1230761E+002  0.1547357E+03  0.7546771E-02  0.1194772E+00
         21   -1    0    0  501  502  0.00000000000E+00  0.00000000000E+00  0.75807574153E+03  0.75807574153E+03  0.00000000000E+00 0. -1.
          2   -1    0    0  503    0 -0.00000000000E+00 -0.00000000000E+00 -0.64603657583E+03  0.64603657583E+03  0.00000000000E+00 0.  1.
         21    1    1    2  503  504 -0.14062626838E+03 -0.21315379273E+02 -0.84144310878E+02  0.16525845759E+03  0.00000000000E+00 0. -1.
         21    1    1    2  504  505  0.11807155433E+03  0.94361401922E+02  0.48328997302E+03  0.50637354210E+03  0.00000000000E+00 0. -1.
         21    1    1    2  505  502  0.29208820007E+02 -0.37234874460E+02  0.21951137565E+03  0.22455474852E+03  0.00000000000E+00 0. -1.
          2    1    1    2  501    0 -0.66541059615E+01 -0.35811148189E+02 -0.50661787210E+03  0.50792556914E+03  0.00000000000E+00 0.  1.
<scales pt_clust_3="14000.00000" pt_clust_4="154.73568" pt_clust_5="47.76430" pt_clust_6="36.42411"></scales>
<clustering>
<clus scale="   36.424">  2  6  1 -1</clus>
<clus scale="   47.764">  1  5  2 -1</clus>
<clus scale="  154.736">  1  4  2 -1</clus>
<clus scale="   47.764">  1  3  2 -1</clus>
</clustering>
</event>
<event>
 6    0  0.1230761E+002  0.1207498E+03  0.7546771E-02  0.1241865E+00
         21   -1    0    0  505  502  0.00000000000E+00  0.00000000000E+00  0.62931624960E+03  0.62931624960E+03  0.00000000000E+00 0. -1.
         -1   -1    0    0    0  501 -0.00000000000E+00 -0.00000000000E+00 -0.30272208325E+03  0.30272208325E+03  0.00000000000E+00 0. -1.
         21    1    1    2  503  502  0.45582091399E+02  0.16382027848E+02  0.40239748365E+01  0.48603397681E+02  0.00000000000E+00 0.  1.
         21    1    1    2  504  501  0.32749181204E+02 -0.77687560478E+02  0.23697589968E+03  0.25152622717E+03  0.00000000000E+00 0. -1.
         21    1    1    2  505  504 -0.13046989068E+02 -0.42800557587E+02  0.34340628527E+03  0.34630909376E+03  0.00000000000E+00 0. -1.
         -1    1    1    2    0  503 -0.65284283534E+02  0.10410609022E+03 -0.25781199344E+03  0.28559961425E+03  0.00000000000E+00 0. -1.
<scales pt_clust_3="46.08126" pt_clust_4="120.74978" pt_clust_5="44.74496" pt_clust_6="14000.00000"></scales>
<clustering>
<clus scale="   44.745">  1  5  2 -1</clus>
<clus scale="   46.081">  1  3  2 -1</clus>
<clus scale="  120.750">  1  4  2 -1</clus>
<clus scale="   44.745">  1  3  2 -1</clus>
</clustering>
</event>
<event>
 6    0  0.1230761E+002  0.1180321E+03  0.7546771E-02  0.1246379E+00
         21   -1    0    0  505  502  0.00000000000E+00  0.00000000000E+00  0.18640574258E+04  0.18640574258E+04  0.00000000000E+00 0. -1.
         -1   -1    0    0    0  501 -0.00000000000E+00 -0.00000000000E+00 -0.15351796384E+03  0.15351796384E+03  0.00000000000E+00 0.  1.
         21    1    1    2  503  502  0.86548480705E+02  0.14956347912E+02  0.15672289509E+04  0.15696881590E+04  0.00000000000E+00 0. -1.
         21    1    1    2  504  501 -0.33072374780E+02  0.18110916836E+02  0.22471317576E+02  0.43894730843E+02  0.00000000000E+00 0. -1.
         21    1    1    2  505  504  0.26139475536E+02  0.25432477005E+02  0.24365586778E+03  0.24637017874E+03  0.00000000000E+00 0.  1.
         -1    1    1    2    0  503 -0.79615581461E+02 -0.58499741753E+02 -0.12281667434E+03  0.15762232105E+03  0.00000000000E+00 0.  1.
<scales pt_clust_3="118.03208" pt_clust_4="37.49387" pt_clust_5="36.47030" pt_clust_6="14000.00000"></scales>
<clustering>
<clus scale="   36.470">  1  5  2 -1</clus>
<clus scale="   37.494">  2  4  1 -1</clus>
<clus scale="  118.032">  1  3  2 -1</clus>
<clus scale="   36.470">  1  3  2 -1</clus>
</clustering>
</event>
<event>
 6    0  0.1230761E+002  0.1351916E+03  0.7546771E-02  0.1219949E+00
         21   -1    0    0  505  502  0.00000000000E+00  0.00000000000E+00  0.32755455717E+03  0.32755455717E+03  0.00000000000E+00 0.  1.
         -2   -1    0    0    0  501 -0.00000000000E+00 -0.00000000000E+00 -0.39279610770E+03  0.39279610770E+03  0.00000000000E+00 0. -1.
         21    1    1    2  503  502 -0.27292862315E+02  0.65451991720E+02  0.11132656503E+03  0.13199419546E+03  0.00000000000E+00 0.  1.
         21    1    1    2  504  501  0.26120393400E+01 -0.45852236276E+02 -0.55590489079E+02  0.72107924648E+02  0.00000000000E+00 0. -1.
         21    1    1    2  505  504  0.14770890728E+03  0.16561066717E+01  0.15452742731E+03  0.21377415599E+03  0.00000000000E+00 0.  1.
         -2    1    1    2    0  503 -0.12302808431E+03 -0.21255862116E+02 -0.27550505379E+03  0.30247438878E+03  0.00000000000E+00 0. -1.
<scales pt_clust_3="69.55506" pt_clust_4="45.92658" pt_clust_5="14000.00000" pt_clust_6="135.19159"></scales>
<clustering>
<clus scale="   45.927">  2  4  1 -1</clus>
<clus scale="   69.555">  1  3  2 -1</clus>
<clus scale="  135.192">  2  6  1 -1</clus>
<clus scale="   69.555">  1  3  2 -1</clus>
</clustering>
</event>
<event>
 6    0  0.1570435E+002  0.1196286E+03  0.7546771E-02  0.1243711E+00
          1   -1    0    0  503    0 -0.00000000000E+00  0.00000000000E+00  0.11563581789E+04  0.11563581789E+04  0.00000000000E+00 0. -1.
         21   -1    0    0  505  502  0.00000000000E+00 -0.00000000000E+00 -0.35069957998E+03  0.35069957998E+03  0.00000000000E+00 0.  1.
         21    1    1    2  503  504 -0.10169782485E+02  0.30929906573E+02  0.33501015850E+02  0.46716181986E+02  0.00000000000E+00 0.  1.
         21    1    1    2  504  502  0.82172701867E+02  0.43200631732E+02 -0.70385199094E+02  0.11650203331E+03  0.00000000000E+00 0.  1.
         21    1    1    2  505  501  0.35566963131E+02 -0.87262856781E+01 -0.24566205564E+03  0.24837673504E+03  0.00000000000E+00 0.  1.
          1    1    1    2  501    0 -0.10756988251E+03 -0.65404252627E+02  0.10882048378E+04  0.10954628085E+04  0.00000000000E+00 0. -1.
<scales pt_clust_3="32.55892" pt_clust_4="119.62865" pt_clust_5="36.60085" pt_clust_6="14000.00000"></scales>
<clustering>
<clus scale="   32.559">  1  3  2 -1</clus>
<clus scale="   36.601">  2  5  1 -1</clus>
<clus scale="  119.629">  2  4  1 -1</clus>
<clus scale="   36.601">  2  3  1 -1</clus>
</clustering>
</event>
<event>
 6    0  0.1230761E+002  0.9415326E+02  0.7546771E-02  0.1293095E+00
          1   -1    0    0  503    0 -0.00000000000E+00  0.00000000000E+00  0.52678556234E+03  0.52678556234E+03  0.00000000000E+00 0.  1.
         21   -1    0    0  505  502  0.00000000000E+00 -0.00000000000E+00 -0.16562951903E+03  0.16562951903E+03  0.00000000000E+00 0.  1.
         21    1    1    2  503  504  0.49397007674E+02  0.84593603869E+01  0.10442967650E+03  0.11583256226E+03  0.00000000000E+00 0. -1.
         21    1    1    2  504  502  0.24373308926E+02  0.22296958336E+02 -0.30216019867E+02  0.44768520141E+02  0.00000000000E+00 0. -1.
         21    1    1    2  505  501  0.62126947115E+02 -0.57085548068E+02 -0.94112862281E+02  0.12639520641E+03  0.00000000000E+00 0.  1.
          1    1    1    2  501    0 -0.13589726371E+03  0.26329229345E+02  0.38105524896E+03  0.40541879256E+03  0.00000000000E+00 0.  1.
<scales pt_clust_3="51.35865" pt_clust_4="33.03351" pt_clust_5="14000.00000" pt_clust_6="94.15326"></scales>
<clustering>
<clus scale="   33.034">  2  4  1 -1</clus>
<clus scale="   51.359">  1  3  2 -1</clus>
<clus scale="   94.153">  1  6  2 -1</clus>
<clus scale="   33.034">  2  3  1 -1</clus>
</clustering>
</event>
<event>
 6    0  0.1230761E+002  0.1997339E+03  0.7546771E-02  0.1149964E+00
          1   -1    0    0  503    0 -0.00000000000E+00  0.00000000000E+00  0.65880868470E+03  0.65880868470E+03  0.00000000000E+00 0.  1.
         21   -1    0    0  501  502  0.00000000000E+00 -0.00000000000E+00 -0.32877563759E+03  0.32877563759E+03  0.00000000000E+00 0.  1.
         21    1    1    2  503  505  0.56687557933E+02 -0.70737642499E+02  0.10241374679E+03  0.13676940017E+03  0.00000000000E+00 0. -1.
         21    1    1    2  504  502  0.52565982677E+02  0.48133473949E+02 -0.10869810683E+03  0.12998189211E+03  0.00000000000E+00 0.  1.
         21    1    1    2  505  504  0.12495108205E+03 -0.37216312526E-02 -0.14116686442E+03  0.18852282761E+03  0.00000000000E+00 0.  1.
          1    1    1    2  501    0 -0.23420462266E+03  0.22607890182E+02  0.47748427157E+03  0.53231020239E+03  0.00000000000E+00 0.  1.
<scales pt_clust_3="90.64929" pt_clust_4="54.37854" pt_clust_5="54.37854" pt_clust_6="186.30527"></scales>
<clustering>
<clus scale="   54.379">  4  5 -1 -1</clus>
<clus scale="   90.649">  1  3  2 -1</clus>
<clus scale="  186.305">  1  6  2 -1</clus>
<clus scale="  199.734">  2  3  1 -1</clus>
</clustering>
</event>
<event>
 6    0  0.1230761E+002  0.2998393E+03  0.7546771E-02  0.1085321E+00
         21   -1    0    0  505  502  0.00000000000E+00  0.00000000000E+00  0.47354375517E+03  0.47354375517E+03  0.00000000000E+00 0.  1.
         -3   -1    0    0    0  501 -0.00000000000E+00 -0.00000000000E+00 -0.94597932020E+03  0.94597932020E+03  0.00000000000E+00 0. -1.
         21    1    1    2  503  504 -0.85072744981E+02  0.68626412255E+02  0.79446130865E+02  0.13512455035E+03  0.00000000000E+00 0.  1.
         21    1    1    2  504  502 -0.13751554849E+03  0.10640377639E+03  0.30708932909E+03  0.35289679192E+03  0.00000000000E+00 0.  1.
         21    1    1    2  505  501 -0.42390173033E+02 -0.16443979021E+01 -0.12925472579E+03  0.13603828488E+03  0.00000000000E+00 0.  1.
         -3    1    1    2    0  503  0.26497846651E+03 -0.17338579074E+03 -0.72971629919E+03  0.79546344821E+03  0.00000000000E+00 0. -1.
<scales pt_clust_3="73.58979" pt_clust_4="73.58979" pt_clust_5="42.42206" pt_clust_6="285.18337"></scales>
<clustering>
<clus scale="   42.422">  2  5  1 -1</clus>
<clus scale="   73.590">  3  4 -1 -1</clus>
<clus scale="  285.183">  2  6  1 -1</clus>
<clus scale="  299.839">  1  3  2 -1</clus>
</clustering>
</event>
<event>
 6    0  0.1230761E+002  0.7253822E+02  0.7546771E-02  0.1351668E+00
          2   -1    0    0  503    0 -0.00000000000E+00  0.00000000000E+00  0.35063290201E+04  0.35063290201E+04  0.00000000000E+00 0.  1.
         21   -1    0    0  504  502  0.00000000000E+00 -0.00000000000E+00 -0.59856928898E+02  0.59856928898E+02  0.00000000000E+00 0.  1.
         21    1    1    2  503  505  0.40961305452E+02  0.31171000015E+02  0.50426527397E+03  0.50688551599E+03  0.00000000000E+00 0.  1.
         21    1    1    2  504  501  0.54215997020E+02 -0.89041863385E+01  0.47618746573E+02  0.72706285096E+02  0.00000000000E+00 0.  1.
         21    1    1    2  505  502 -0.72647503393E+02  0.47899637268E+02 -0.39618115448E+01  0.87107582622E+02  0.00000000000E+00 0.  1.
          2    1    1    2  501    0 -0.22529799079E+02 -0.70166450944E+02  0.28985498822E+04  0.28994865653E+04  0.00000000000E+00 0.  1.
<scales pt_clust_3="51.47290" pt_clust_4="14000.00000" pt_clust_5="72.53822" pt_clust_6="43.52745"></scales>
<clustering>
<clus scale="   51.473">  1  3  2 -1</clus>
<clus scale="   43.527">  1  6  2 -1</clus>
<clus scale="   72.538">  2  5  1 -1</clus>
<clus scale="   72.538">  2  3  1 -1</clus>
</clustering>
</event>
<event>
 6    0  0.1230761E+002  0.7292749E+02  0.7546771E-02  0.1350412E+00
         -1   -1    0    0    0  501 -0.00000000000E+00  0.00000000000E+00  0.43136095108E+03  0.43136095108E+03  0.00000000000E+00 0.  1.
         21   -1    0    0  505  502  0.00000000000E+00 -0.00000000000E+00 -0.71090303076E+02  0.71090303076E+02  0.00000000000E+00 0.  1.
         21    1    1    2  503  504  0.17016475558E+02  0.28028194271E+02  0.54347219209E+02  0.63472516496E+02  0.00000000000E+00 0.  1.
         21    1    1    2  504  501  0.14664063030E+01  0.31695604124E+02  0.18784392959E+03  0.19050486490E+03  0.00000000000E+00 0.  1.
         21    1    1    2  505  503 -0.87242981174E+01  0.64244251951E+02 -0.14781538660E+02  0.66497602751E+02  0.00000000000E+00 0.  1.
         -1    1    1    2    0  502 -0.97585837436E+01 -0.12396805035E+03  0.13286103787E+03  0.18197627001E+03  0.00000000000E+00 0.  1.
<scales pt_clust_3="39.73693" pt_clust_4="31.72951" pt_clust_5="14000.00000" pt_clust_6="72.92749"></scales>
<clustering>
<clus scale="   31.730">  1  4  2 -1</clus>
<clus scale="   39.737">  1  3  2 -1</clus>
<clus scale="   72.927">  1  6  2 -1</clus>
<clus scale="   72.927">  2  3  1 -1</clus>
</clustering>
</event>
<event>
 6    0  0.1230761E+002  0.7242213E+02  0.7546771E-02  0.1352045E+00
          2   -1    0    0  504    0 -0.00000000000E+00  0.00000000000E+00  0.40459806398E+04  0.40459806398E+04  0.00000000000E+00 0.  1.
         21   -1    0    0  503  502  0.00000000000E+00 -0.00000000000E+00 -0.28485031006E+03  0.28485031006E+03  0.00000000000E+00 0.  1.
         21    1    1    2  503  501 -0.43756837274E+02 -0.22277161276E+02  0.37472028393E+01  0.49244027575E+02  0.00000000000E+00 0.  1.
         21    1    1    2  504  505  0.39464057946E+02  0.57664688752E+02  0.13916329278E+04  0.13933861037E+04  0.00000000000E+00 0.  1.
         21    1    1    2  505  502  0.78224426126E+02  0.84481235524E+02 -0.24654921888E+03  0.27210780461E+03  0.00000000000E+00 0.  1.
          2    1    1    2  501    0 -0.73931646797E+02 -0.11986876300E+03  0.26122994180E+04  0.26160930141E+04  0.00000000000E+00 0.  1.
<scales pt_clust_3="49.10125" pt_clust_4="69.73171" pt_clust_5="72.42213" pt_clust_6="14000.00000"></scales>
<clustering>
<clus scale="   49.101">  2  3  1 -1</clus>
<clus scale="   69.732">  1  4  2 -1</clus>
<clus scale="   72.422">  2  5  1 -1</clus>
<clus scale="   49.101">  2  3  1 -1</clus>
</clustering>
</event>
<event>
 6    0  0.1230761E+002  0.9277196E+02  0.7546771E-02  0.1296275E+00
         21   -1    0    0  501  502  0.00000000000E+00  0.00000000000E+00  0.10514001105E+03  0.10514001105E+03  0.00000000000E+00 0. -1.
          1   -1    0    0  505    0 -0.00000000000E+00 -0.00000000000E+00 -0.89792559323E+03  0.89792559323E+03  0.00000000000E+00 0. -1.
         21    1    1    2  503  504  0.45790867536E+02  0.64600542989E+02  0.38093475488E+00  0.79184460695E+02  0.00000000000E+00 0. -1.
         21    1    1    2  504  502  0.77901928485E+01 -0.42378797198E+02  0.45106731953E+02  0.62380019430E+02  0.00000000000E+00 0. -1.
         21    1    1    2  505  503 -0.31978589611E+02  0.83412518068E+02 -0.43387655244E+03  0.44297758535E+03  0.00000000000E+00 0. -1.
          1    1    1    2  501    0 -0.21602470774E+02 -0.10563426386E+03 -0.40439669644E+03  0.41852353881E+03  0.00000000000E+00 0. -1.
<scales pt_clust_3="60.79883" pt_clust_4="43.08886" pt_clust_5="14000.00000" pt_clust_6="92.77196"></scales>
<clustering>
<clus scale="   43.089">  1  4  2 -1</clus>
<clus scale="   60.799">  1  3  2 -1</clus>
<clus scale="   92.772">  1  6  2 -1</clus>
<clus scale="   43.089">  1  3  2 -1</clus>
</clustering>
</event>
<event>
 6    0  0.1230761E+002  0.1092643E+03  0.7546771E-02  0.1261938E+00
          2   -1    0    0  503    0 -0.00000000000E+00  0.00000000000E+00  0.35137321564E+04  0.35137321564E+04  0.00000000000E+00 0.  1.
         21   -1    0    0  501  502  0.00000000000E+00 -0.00000000000E+00 -0.55542307735E+01  0.55542307735E+01  0.00000000000E+00 0.  1.
         21    1    1    2  503  504  0.43142214094E+02  0.22522031424E+02  0.10818888874E+04  0.10829829441E+04  0.00000000000E+00 0.  1.
         21    1    1    2  504  505 -0.16434054345E+02  0.42784120324E+02  0.78494536008E+03  0.78628225047E+03  0.00000000000E+00 0.  1.
         21    1    1    2  505  502 -0.48576850277E+02  0.38700445884E+02  0.67457057858E+03  0.67742372292E+03  0.00000000000E+00 0.  1.
          2    1    1    2  501    0  0.21868690529E+02 -0.10400659763E+03  0.96677309959E+03  0.97259746970E+03  0.00000000000E+00 0.  1.
<scales pt_clust_3="48.66716" pt_clust_4="31.93760" pt_clust_5="31.93760" pt_clust_6="102.74456"></scales>
<clustering>
<clus scale="   31.938">  4  5 -1 -1</clus>
<clus scale="   48.667">  1  3  2 -1</clus>
<clus scale="  102.745">  2  6  1 -1</clus>
<clus scale="  102.745">  2  3  1 -1</clus>
</clustering>
</event>
<event>
 6    0  0.1230761E+002  0.2151743E+03  0.7546771E-02  0.1137533E+00
         -2   -1    0    0    0  501 -0.00000000000E+00  0.00000000000E+00  0.15488811170E+04  0.15488811170E+04  0.00000000000E+00 0. -1.
         21   -1    0    0  503  502  0.00000000000E+00 -0.00000000000E+00 -0.17405825584E+03  0.17405825584E+03  0.00000000000E+00 0. -1.
         21    1    1    2  503  505 -0.39145616381E+02  0.40355541293E+02  0.17594679853E+02  0.58911134380E+02  0.00000000000E+00 0. -1.
         21    1    1    2  504  502  0.28505481857E+02  0.18032641184E+03 -0.56224399109E+02  0.19102711943E+03  0.00000000000E+00 0. -1.
         21    1    1    2  505  501 -0.11015105940E+03  0.15452696960E+02  0.18191582384E+03  0.21322619139E+03  0.00000000000E+00 0. -1.
         -2    1    1    2    0  504  0.12079119392E+03 -0.23613465010E+03  0.12315367566E+04  0.12597749276E+04  0.00000000000E+00 0. -1.
<scales pt_clust_3="56.22232" pt_clust_4="215.17427" pt_clust_5="115.81171" pt_clust_6="14000.00000"></scales>
<clustering>
<clus scale="   56.222">  2  3  1 -1</clus>
<clus scale="  115.812">  1  5  2 -1</clus>
<clus scale="  215.174">  2  4  1 -1</clus>
<clus scale="   56.222">  2  3  1 -1</clus>
</clustering>
</event>
<event>
 6    0  0.1230761E+002  0.1804197E+03  0.7546771E-02  0.1167397E+00
         21   -1    0    0  501  502  0.00000000000E+00  0.00000000000E+00  0.31604115790E+02  0.31604115790E+02  0.00000000000E+00 0.  1.
          1   -1    0    0  503    0 -0.00000000000E+00 -0.00000000000E+00 -0.15158507375E+04  0.15158507375E+04  0.00000000000E+00 0.  1.
         21    1    1    2  503  504  0.38385724504E+02 -0.32978631465E+02 -0.46643816003E+03  0.46917545877E+03  0.00000000000E+00 0.  1.
         21    1    1    2  504  505  0.16009284879E+02 -0.75874043701E+02 -0.29061852716E+03  0.30078613006E+03  0.00000000000E+00 0.  1.
         21    1    1    2  505  502 -0.35163957446E+02 -0.78728172422E+02 -0.24619759627E+03  0.26085989620E+03  0.00000000000E+00 0.  1.
          1    1    1    2  501    0 -0.19231051937E+02  0.18758084759E+03 -0.48099233823E+03  0.51663336824E+03  0.00000000000E+00 0.  1.
<scales pt_clust_3="50.60686" pt_clust_4="54.46861" pt_clust_5="54.46861" pt_clust_6="171.88747"></scales>
<clustering>
<clus scale="   50.607">  2  3  1 -1</clus>
<clus scale="   54.469">  4  5 -1 -1</clus>
<clus scale="  171.887">  1  6  2 -1</clus>
<clus scale="  171.887">  1  3  2 -1</clus>
</clustering>
</event>
<event>
 6    0  0.1230761E+002  0.9615837E+02  0.7546771E-02  0.1288588E+00
         21   -1    0    0  505  502  0.00000000000E+00  0.00000000000E+00  0.80948994750E+03  0.80948994750E+03  0.00000000000E+00 0. -1.
          1   -1    0    0  503    0 -0.00000000000E+00 -0.00000000000E+00 -0.18859415635E+04  0.18859415635E+04  0.00000000000E+00 0. -1.
         21    1    1    2  503  502  0.21474033183E+02 -0.33302751403E+02  0.82138997088E+02  0.91197709372E+02  0.00000000000E+00 0. -1.
         21    1    1    2  504  501 -0.45997292489E+02  0.99528430487E+02 -0.60220773444E+03  0.61210768237E+03  0.00000000000E+00 0. -1.
         21    1    1    2  505  504  0.72024720403E+02  0.83305044233E+01  0.71450148896E+03  0.71817082604E+03  0.00000000000E+00 0. -1.
          1    1    1    2  501    0 -0.47501461097E+02 -0.74556183507E+02 -0.12708843676E+04  0.12739552932E+04  0.00000000000E+00 0. -1.
<scales pt_clust_3="39.62584" pt_clust_4="96.15837" pt_clust_5="14000.00000" pt_clust_6="88.43775"></scales>
<clustering>
<clus scale="   39.626">  1  3  2 -1</clus>
<clus scale="   88.438">  2  6  1 -1</clus>
<clus scale="   96.158">  2  4  1 -1</clus>
<clus scale="   39.626">  1  3  2 -1</clus>
</clustering>
</event>
<event>
 6    0  0.1230761E+002  0.1150718E+03  0.7546771E-02  0.1251456E+00
          2   -1    0    0  503    0 -0.00000000000E+00  0.00000000000E+00  0.59741130662E+03  0.59741130662E+03  0.00000000000E+00 0. -1.
         21   -1    0    0  504  502  0.00000000000E+00 -0.00000000000E+00 -0.60889560322E+03  0.60889560322E+03  0.00000000000E+00 0. -1.
         21    1    1    2  503  502  0.15459843991E+02  0.45058644967E+02  0.18107879468E+00  0.47637391322E+02  0.00000000000E+00 0.  1.
         21    1    1    2  504  505  0.23850073188E+02 -0.38243498278E+02 -0.33247291896E+03  0.33551398330E+03  0.00000000000E+00 0. -1.
         21    1    1    2  505  501  0.72583798184E+02 -0.37127689252E+02 -0.23845350122E+03  0.25200584381E+03  0.00000000000E+00 0. -1.
          2    1    1    2  501    0 -0.11189371536E+03  0.30312542563E+02  0.55926104478E+03  0.57114969140E+03  0.00000000000E+00 0. -1.
<scales pt_clust_3="45.28354" pt_clust_4="45.07096" pt_clust_5="14000.00000" pt_clust_6="115.07185"></scales>
<clustering>
<clus scale="   45.071">  2  4  1 -1</clus>
<clus scale="   45.284">  2  3  1 -1</clus>
<clus scale="  115.072">  1  6  2 -1</clus>
<clus scale="   45.071">  2  3  1 -1</clus>
</clustering>
</event>
<event>
 6    0  0.1230761E+002  0.9593163E+02  0.7546771E-02  0.1289091E+00
          2   -1    0    0  504    0 -0.00000000000E+00  0.00000000000E+00  0.21693125654E+04  0.21693125654E+04  0.00000000000E+00 0.  1.
         21   -1    0    0  501  502  0.00000000000E+00 -0.00000000000E+00 -0.12553359458E+02  0.12553359458E+02  0.00000000000E+00 0.  1.
         21    1    1    2  503  502  0.45633195430E+02  0.87439083403E+01  0.10135003010E+03  0.11149292829E+03  0.00000000000E+00 0.  1.
         21    1    1    2  504  505 -0.34446748309E+02 -0.33322801656E+02  0.46481492128E+03  0.46727925122E+03  0.00000000000E+00 0. -1.
         21    1    1    2  505  503  0.57026745084E+02 -0.58056319961E+02  0.43534643209E+03  0.44288723381E+03  0.00000000000E+00 0.  1.
          2    1    1    2  501    0 -0.68213192205E+02  0.82635213276E+02  0.11552478225E+04  0.11602065116E+04  0.00000000000E+00 0.  1.
<scales pt_clust_3="46.46337" pt_clust_4="41.73517" pt_clust_5="14000.00000" pt_clust_6="95.93163"></scales>
<clustering>
<clus scale="   46.463">  2  3  1 -1</clus>
<clus scale="   41.735">  1  4  2 -1</clus>
<clus scale="   95.932">  1  6  2 -1</clus>
<clus scale="   46.463">  2  3  1 -1</clus>
</clustering>
</event>
<event>
 6    0  0.1230761E+002  0.2135627E+03  0.7546771E-02  0.1138775E+00
         21   -1    0    0  504  502  0.00000000000E+00  0.00000000000E+00  0.36133491073E+03  0.36133491073E+03  0.00000000000E+00 0. -1.
          1   -1    0    0  505    0 -0.00000000000E+00 -0.00000000000E+00 -0.87978986638E+03  0.87978986638E+03  0.00000000000E+00 0. -1.
         21    1    1    2  503  502  0.53843253029E+02  0.14197263879E+02  0.24350184813E+03  0.24978752620E+03  0.00000000000E+00 0. -1.
         21    1    1    2  504  501  0.15841322754E+03 -0.79388092260E+02 -0.14354870139E+02  0.17777311987E+03  0.00000000000E+00 0. -1.
         21    1    1    2  505  503  0.24758082757E+01 -0.60800563930E+02 -0.76373588106E+02  0.97651232256E+02  0.00000000000E+00 0.  1.
          1    1    1    2  501    0 -0.21473228884E+03  0.12599139231E+03 -0.67122834554E+03  0.71591289879E+03  0.00000000000E+00 0. -1.
<scales pt_clust_3="55.68355" pt_clust_4="213.56267" pt_clust_5="59.95086" pt_clust_6="14000.00000"></scales>
<clustering>
<clus scale="   55.684">  1  3  2 -1</clus>
<clus scale="   59.951">  2  5  1 -1</clus>
<clus scale="  213.563">  1  4  2 -1</clus>
<clus scale="   55.684">  1  3  2 -1</clus>
</clustering>
</event>
<event>
 6    0  0.1230761E+002  0.1094980E+03  0.7546771E-02  0.1261502E+00
         -2   -1    0    0    0  501 -0.00000000000E+00  0.00000000000E+00  0.20337084691E+03  0.20337084691E+03  0.00000000000E+00 0. -1.
         21   -1    0    0  504  502  0.00000000000E+00 -0.00000000000E+00 -0.18942850711E+03  0.18942850711E+03  0.00000000000E+00 0.  1.
         21    1    1    2  503  505 -0.28454170228E+02 -0.33249071787E+02 -0.28746620869E+02  0.52359419300E+02  0.00000000000E+00 0.  1.
         21    1    1    2  504  503 -0.54520099831E+02 -0.13022447347E+02 -0.85344059136E+02  0.10210599321E+03  0.00000000000E+00 0.  1.
         21    1    1    2  505  501 -0.34840450519E+02 -0.38337961389E+02  0.13543675711E+02  0.53545190518E+02  0.00000000000E+00 0.  1.
         -2    1    1    2    0  502  0.11781472058E+03  0.84609480522E+02  0.11448934410E+03  0.18478875099E+03  0.00000000000E+00 0. -1.
<scales pt_clust_3="37.66490" pt_clust_4="37.66490" pt_clust_5="51.80402" pt_clust_6="100.85992"></scales>
<clustering>
<clus scale="   37.665">  3  4 -1 -1</clus>
<clus scale="   51.804">  1  5  2 -1</clus>
<clus scale="  100.860">  1  6  2 -1</clus>
<clus scale="  109.498">  2  3  1 -1</clus>
</clustering>
</event>
<event>
 6    0  0.1230761E+002  0.7671078E+02  0.7546771E-02  0.1338654E+00
         21   -1    0    0  503  502  0.00000000000E+00  0.00000000000E+00  0.97112965113E+02  0.97112965113E+02  0.00000000000E+00 0.  1.
          1   -1    0    0  505    0 -0.00000000000E+00 -0.00000000000E+00 -0.83907088333E+03  0.83907088333E+03  0.00000000000E+00 0. -1.
         21    1    1    2  503  501 -0.94330659676E+02  0.21144160471E+02 -0.16090408433E+03  0.18771114307E+03  0.00000000000E+00 0.  1.
         21    1    1    2  504  502 -0.40001477468E+02  0.48348630076E+02  0.21802575773E+02  0.66430870385E+02  0.00000000000E+00 0.  1.
         21    1    1    2  505  504  0.62306024286E+02 -0.55597804683E+02 -0.93587755644E+01  0.84028228756E+02  0.00000000000E+00 0.  1.
          1    1    1    2  501    0  0.72026112859E+02 -0.13894985864E+02 -0.59349763410E+03  0.59801360624E+03  0.00000000000E+00 0. -1.
<scales pt_clust_3="76.71078" pt_clust_4="62.75116" pt_clust_5="40.35374" pt_clust_6="14000.00000"></scales>
<clustering>
<clus scale="   62.751">  1  4  2 -1</clus>
<clus scale="   40.354">  1  5  2 -1</clus>
<clus scale="   76.711">  1  3  2 -1</clus>
<clus scale="   62.751">  1  3  2 -1</clus>
</clustering>
</event>
<event>
 6    0  0.1230761E+002  0.1027833E+03  0.7546771E-02  0.1274550E+00
         21   -1    0    0  505  502  0.00000000000E+00  0.00000000000E+00  0.33550776015E+03  0.33550776015E+03  0.00000000000E+00 0. -1.
          2   -1    0    0  503    0 -0.00000000000E+00 -0.00000000000E+00 -0.16709966728E+04  0.16709966728E+04  0.00000000000E+00 0.  1.
         21    1    1    2  503  502 -0.17318406756E+02 -0.33933994780E+02 -0.30779329880E+02  0.48977651660E+02  0.00000000000E+00 0. -1.
         21    1    1    2  504  501 -0.89585006463E+02  0.60724350621E+02  0.71948102433E+02  0.12995941515E+03  0.00000000000E+00 0. -1.
         21    1    1    2  505  504  0.57564752077E+02 -0.76389503940E+02  0.21450640281E+03  0.23486603382E+03  0.00000000000E+00 0. -1.
          2    1    1    2  501    0  0.49338661142E+02  0.49599148099E+02 -0.15911640881E+04  0.15927013324E+04  0.00000000000E+00 0.  1.
<scales pt_clust_3="38.09781" pt_clust_4="14000.00000" pt_clust_5="102.78330" pt_clust_6="69.87443"></scales>
<clustering>
<clus scale="   38.098">  1  3  2 -1</clus>
<clus scale="   69.874">  2  6  1 -1</clus>
<clus scale="  102.783">  1  5  2 -1</clus>
<clus scale="   38.098">  1  3  2 -1</clus>
</clustering>
</event>
<event>
 6    0  0.1230761E+002  0.2624542E+03  0.7546771E-02  0.1105678E+00
          2   -1    0    0  503    0 -0.00000000000E+00  0.00000000000E+00  0.76742313821E+03  0.76742313821E+03  0.00000000000E+00 0. -1.
         21   -1    0    0  505  502  0.00000000000E+00 -0.00000000000E+00 -0.31904378487E+03  0.31904378487E+03  0.00000000000E+00 0.  1.
         21    1    1    2  503  504 -0.79261260762E+02  0.54083448747E+02 -0.10737819798E+03  0.14400501480E+03  0.00000000000E+00 0.  1.
         21    1    1    2  504  502 -0.14227053738E+03  0.61746425111E+02 -0.10905847775E+03  0.18959767506E+03  0.00000000000E+00 0.  1.
         21    1    1    2  505  501 -0.23182065451E+02 -0.28941067980E+02 -0.21347492307E+01  0.37142303761E+02  0.00000000000E+00 0.  1.
          2    1    1    2  501    0  0.24471386359E+03 -0.86888805878E+02  0.66695077831E+03  0.71572192946E+03  0.00000000000E+00 0. -1.
<scales pt_clust_3="34.76105" pt_clust_4="34.76105" pt_clust_5="37.08091" pt_clust_6="258.70677"></scales>
<clustering>
<clus scale="   34.761">  3  4 -1 -1</clus>
<clus scale="   37.081">  2  5  1 -1</clus>
<clus scale="  258.707">  1  6  2 -1</clus>
<clus scale="   37.081">  2  3  1 -1</clus>
</clustering>
</event>
<event>
 6    0  0.1230761E+002  0.7046037E+02  0.7546771E-02  0.1358534E+00
          1   -1    0    0  505    0 -0.00000000000E+00  0.00000000000E+00  0.50230509165E+03  0.50230509165E+03  0.00000000000E+00 0.  1.
         21   -1    0    0  504  502  0.00000000000E+00 -0.00000000000E+00 -0.33354754424E+03  0.33354754424E+03  0.00000000000E+00 0.  1.
         21    1    1    2  503  502 -0.23622475544E+02 -0.77239939551E+02 -0.15142474671E+03  0.17162017227E+03  0.00000000000E+00 0.  1.
         21    1    1    2  504  501  0.73344530111E+02  0.25215356912E+02 -0.15780222122E+03  0.17583166763E+03  0.00000000000E+00 0.  1.
         21    1    1    2  505  503  0.43845474432E+01  0.37301470444E+02  0.11160918451E+03  0.11775922054E+03  0.00000000000E+00 0.  1.
          1    1    1    2  501    0 -0.54106602010E+02  0.14723112194E+02  0.36637533083E+03  0.37064157545E+03  0.00000000000E+00 0.  1.
<scales pt_clust_3="14000.00000" pt_clust_4="70.46037" pt_clust_5="37.55827" pt_clust_6="70.79829"></scales>
<clustering>
<clus scale="   37.558">  1  5  2 -1</clus>
<clus scale="   70.798">  1  6  2 -1</clus>
<clus scale="   70.460">  2  4  1 -1</clus>
<clus scale="   70.460">  2  3  1 -1</clus>
</clustering>
</event>
<event>
 6    0  0.1230761E+002  0.1366354E+03  0.7546771E-02  0.1217929E+00
          2   -1    0    0  504    0 -0.00000000000E+00  0.00000000000E+00  0.90355808727E+03  0.90355808727E+03  0.00000000000E+00 0. -1.
         21   -1    0    0  503  502  0.00000000000E+00 -0.00000000000E+00 -0.68628375665E+03  0.68628375665E+03  0.00000000000E+00 0. -1.
         21    1    1    2  503  505 -0.34818098723E+02  0.73865374555E+01 -0.13254415613E+03  0.13723998782E+03  0.00000000000E+00 0.  1.
         21    1    1    2  504  502  0.43901670857E+02  0.15972211091E+02  0.35902926049E+02  0.58919337488E+02  0.00000000000E+00 0.  1.
         21    1    1    2  505  501 -0.33396760440E+02 -0.12665799091E+03 -0.52856040275E+03  0.54454906998E+03  0.00000000000E+00 0. -1.
          2    1    1    2  501    0  0.24313188305E+02  0.10329924236E+03  0.84247596344E+03  0.84913344863E+03  0.00000000000E+00 0. -1.
<scales pt_clust_3="35.59299" pt_clust_4="46.08838" pt_clust_5="14000.00000" pt_clust_6="136.63543"></scales>
<clustering>
<clus scale="   35.593">  2  3  1 -1</clus>
<clus scale="   46.088">  1  4  2 -1</clus>
<clus scale="  136.635">  1  6  2 -1</clus>
<clus scale="   35.593">  2  3  1 -1</clus>
</clustering>
</event>
<event>
 6    0  0.1230761E+002  0.1003911E+03  0.7546771E-02  0.1279476E+00
         21   -1    0    0  504  502  0.00000000000E+00  0.00000000000E+00  0.48007449126E+02  0.48007449126E+02  0.00000000000E+00 0.  1.
          1   -1    0    0  505    0 -0.00000000000E+00 -0.00000000000E+00 -0.27451307449E+04  0.27451307449E+04  0.00000000000E+00 0.  1.
         21    1    1    2  503  501 -0.78219613279E+02 -0.10211538969E+03 -0.51456013358E+03  0.53039418529E+03  0.00000000000E+00 0.  1.
         21    1    1    2  504  503  0.23608995110E+01 -0.31583425158E+02 -0.37901253711E+02  0.49392222303E+02  0.00000000000E+00 0. -1.
         21    1    1    2  505  502  0.16728714279E+02  0.57398310205E+02  0.63973182934E+01  0.60127710559E+02  0.00000000000E+00 0.  1.
          1    1    1    2  501    0  0.59129999489E+02  0.76300504642E+02 -0.21510592268E+04  0.21532240759E+04  0.00000000000E+00 0.  1.
<scales pt_clust_3="14000.00000" pt_clust_4="31.67154" pt_clust_5="37.47465" pt_clust_6="100.39114"></scales>
<clustering>
<clus scale="   31.672">  1  4  2 -1</clus>
<clus scale="   37.475">  1  5  2 -1</clus>
<clus scale="  100.391">  2  6  1 -1</clus>
<clus scale="   31.672">  1  3  2 -1</clus>
</clustering>
</event>
<event>
 6    0  0.1230761E+002  0.1250701E+03  0.7546771E-02  0.1234960E+00
         21   -1    0    0  505  502  0.00000000000E+00  0.00000000000E+00  0.21748618095E+03  0.21748618095E+03  0.00000000000E+00 0.  1.
          2   -1    0    0  502    0 -0.00000000000E+00 -0.00000000000E+00 -0.39775008261E+03  0.39775008261E+03  0.00000000000E+00 0.  1.
         21    1    1    2  503  501  0.33080069208E+02  0.33163671508E+02  0.84406381552E+01  0.47595844978E+02  0.00000000000E+00 0.  1.
         21    1    1    2  504  503  0.61267926166E+02  0.23166806470E+02 -0.24959226088E+02  0.70095810614E+02  0.00000000000E+00 0.  1.
         21    1    1    2  505  504  0.27249704562E+02 -0.40216629209E+02  0.15159477150E+03  0.15918824834E+03  0.00000000000E+00 0.  1.
          2    1    1    2  501    0 -0.12159769994E+03 -0.16113848768E+02 -0.31534008522E+03  0.33835635963E+03  0.00000000000E+00 0.  1.
<scales pt_clust_3="32.79318" pt_clust_4="32.79318" pt_clust_5="48.57905" pt_clust_6="118.90637"></scales>
<clustering>
<clus scale="   32.793">  3  4 -1 -1</clus>
<clus scale="   48.579">  1  5  2 -1</clus>
<clus scale="  118.906">  2  6  1 -1</clus>
<clus scale="   48.579">  1  3  2 -1</clus>
</clustering>
</event>
<event>
 6    0  0.1230761E+002  0.1201304E+03  0.7546771E-02  0.1242882E+00
         21   -1    0    0  505  502  0.00000000000E+00  0.00000000000E+00  0.31665326650E+03  0.31665326650E+03  0.00000000000E+00 0.  1.
          3   -1    0    0  503    0 -0.00000000000E+00 -0.00000000000E+00 -0.40662742069E+03  0.40662742069E+03  0.00000000000E+00 0.  1.
         21    1    1    2  503  502  0.26675344544E+02  0.40875953540E+02 -0.88026457586E+02  0.10065324048E+03  0.00000000000E+00 0. -1.
         21    1    1    2  504  501 -0.10011787105E+03  0.21547621840E+01  0.16675987144E+03  0.19451757203E+03  0.00000000000E+00 0.  1.
         21    1    1    2  505  504 -0.16908573094E+02 -0.48450861033E+02  0.11734686006E+03  0.12807681814E+03  0.00000000000E+00 0.  1.
          3    1    1    2  501    0  0.90351099597E+02  0.54201453090E+01 -0.28605442811E+03  0.30003305654E+03  0.00000000000E+00 0.  1.
<scales pt_clust_3="48.81002" pt_clust_4="14000.00000" pt_clust_5="50.50291" pt_clust_6="120.13036"></scales>
<clustering>
<clus scale="   48.810">  2  3  1 -1</clus>
<clus scale="   50.503">  1  5  2 -1</clus>
<clus scale="  120.130">  2  6  1 -1</clus>
<clus scale="   50.503">  1  3  2 -1</clus>
</clustering>
</event>
<event>
 6    0  0.1230761E+002  0.2619672E+03  0.7546771E-02  0.1105967E+00
          2   -1    0    0  505    0 -0.00000000000E+00  0.00000000000E+00  0.10865132302E+04  0.10865132302E+04  0.00000000000E+00 0.  1.
         21   -1    0    0  503  502  0.00000000000E+00 -0.00000000000E+00 -0.76333808273E+02  0.76333808273E+02  0.00000000000E+00 0. -1.
         21    1    1    2  503  501  0.33353252290E+02  0.58883788321E+02  0.10551930630E+03  0.12535574964E+03  0.00000000000E+00 0.  1.
         21    1    1    2  504  502 -0.94749620564E+02 -0.14051790894E+03  0.10718704261E+03  0.20052888927E+03  0.00000000000E+00 0. -1.
         21    1    1    2  505  504 -0.60151525363E+02 -0.41158906179E+02  0.14906547856E+03  0.16593004086E+03  0.00000000000E+00 0. -1.
          2    1    1    2  501    0  0.12154789364E+03  0.12279302679E+03  0.64840759447E+03  0.67103235872E+03  0.00000000000E+00 0.  1.
<scales pt_clust_3="58.80085" pt_clust_4="70.70949" pt_clust_5="70.70949" pt_clust_6="256.57016"></scales>
<clustering>
<clus scale="   58.801">  3  6 -1 -1</clus>
<clus scale="   70.709">  4  5 -1 -1</clus>
<clus scale="  256.570">  1  3  2 -1</clus>
<clus scale="  261.967">  2  3  1 -1</clus>
</clustering>
</event>
<event>
 6    0  0.1230761E+002  0.1177270E+03  0.7546771E-02  0.1246895E+00
         21   -1    0    0  501  502  0.00000000000E+00  0.00000000000E+00  0.79100414997E+01  0.79100414997E+01  0.00000000000E+00 0.  1.
          2   -1    0    0  504    0 -0.00000000000E+00 -0.00000000000E+00 -0.28038910751E+04  0.28038910751E+04  0.00000000000E+00 0. -1.
         21    1    1    2  503  505 -0.34901167580E-01  0.69441117054E+02 -0.35410231893E+03  0.36084695125E+03  0.00000000000E+00 0.  1.
         21    1    1    2  504  503  0.25884137478E+02 -0.17992017235E+02 -0.10352141612E+04  0.10356939996E+04  0.00000000000E+00 0.  1.
         21    1    1    2  505  502 -0.27808061291E+02  0.47766567158E+02 -0.42096643602E+03  0.42457940773E+03  0.00000000000E+00 0.  1.
          2    1    1    2  501    0  0.19588249814E+01 -0.99215666977E+02 -0.98569811743E+03  0.99068075800E+03  0.00000000000E+00 0. -1.
<scales pt_clust_3="34.83612" pt_clust_4="31.52303" pt_clust_5="34.83612" pt_clust_6="110.49671"></scales>
<clustering>
<clus scale="   31.523">  2  4  1 -1</clus>
<clus scale="   34.836">  3  5 -1 -1</clus>
<clus scale="  110.497">  2  6  1 -1</clus>
<clus scale="  117.727">  1  3  2 -1</clus>
</clustering>
</event>
<event>
 6    0  0.1230761E+002  0.2205977E+03  0.7546771E-02  0.1133438E+00
         21   -1    0    0  504  502  0.00000000000E+00  0.00000000000E+00  0.93158441768E+03  0.93158441768E+03  0.00000000000E+00 0.  1.
          4   -1    0    0  505    0 -0.00000000000E+00 -0.00000000000E+00 -0.43502267818E+03  0.43502267818E+03  0.00000000000E+00 0. -1.
         21    1    1    2  503  502  0.34564904779E+02  0.70464282472E+02  0.53478638469E+02  0.94973220010E+02  0.00000000000E+00 0. -1.
         21    1    1    2  504  501  0.40336369589E+02 -0.12732580298E+03  0.72663661181E+03  0.73880961583E+03  0.00000000000E+00 0.  1.
         21    1    1    2  505  503  0.17057537184E+03  0.10210238939E+03 -0.96986358999E+02  0.22119495752E+03  0.00000000000E+00 0. -1.
          4    1    1    2  501    0 -0.24547664621E+03 -0.45240868878E+02 -0.18656715178E+03  0.31162930250E+03  0.00000000000E+00 0. -1.
<scales pt_clust_3="78.48533" pt_clust_4="96.88040" pt_clust_5="14000.00000" pt_clust_6="220.59770"></scales>
<clustering>
<clus scale="   78.485">  1  3  2 -1</clus>
<clus scale="   96.880">  1  4  2 -1</clus>
<clus scale="  220.598">  1  6  2 -1</clus>
<clus scale="   78.485">  1  3  2 -1</clus>
</clustering>
</event>
<event>
 6    0  0.1230761E+002  0.1089560E+03  0.7546771E-02  0.1262516E+00
         21   -1    0    0  503  502  0.00000000000E+00  0.00000000000E+00  0.29388301416E+03  0.29388301416E+03  0.00000000000E+00 0.  1.
          2   -1    0    0  504    0 -0.00000000000E+00 -0.00000000000E+00 -0.16537307495E+04  0.16537307495E+04  0.00000000000E+00 0.  1.
         21    1    1    2  503  501 -0.31934816360E+02  0.16679389892E+01  0.11583319387E+03  0.12016631524E+03  0.00000000000E+00 0.  1.
         21    1    1    2  504  505  0.58076656704E+02  0.55754168460E+02 -0.15756999003E+04  0.15777552412E+04  0.00000000000E+00 0.  1.
         21    1    1    2  505  502 -0.38272516704E+02 -0.13856051738E+03  0.82711356762E+02  0.16584622711E+03  0.00000000000E+00 0.  1.
          2    1    1    2  501    0  0.12130676360E+02  0.81138409927E+02  0.17307614287E+02  0.83845980147E+02  0.00000000000E+00 0.  1.
<scales pt_clust_3="31.97834" pt_clust_4="80.37956" pt_clust_5="108.95598" pt_clust_6="14000.00000"></scales>
<clustering>
<clus scale="   31.978">  1  3  2 -1</clus>
<clus scale="   80.380">  2  4  1 -1</clus>
<clus scale="  108.956">  2  5  1 -1</clus>
<clus scale="   31.978">  1  3  2 -1</clus>
</clustering>
</event>
<event>
 6    0  0.1230761E+002  0.1105175E+03  0.7546771E-02  0.1259615E+00
         21   -1    0    0  504  502  0.00000000000E+00  0.00000000000E+00  0.36157029141E+03  0.36157029141E+03  0.00000000000E+00 0.  1.
          1   -1    0    0  505    0 -0.00000000000E+00 -0.00000000000E+00 -0.28735516595E+03  0.28735516595E+03  0.00000000000E+00 0. -1.
         21    1    1    2  503  502 -0.74866035224E+02 -0.82840941079E+02  0.23292100588E+03  0.25830164485E+03  0.00000000000E+00 0.  1.
         21    1    1    2  504  501  0.44030799859E+02  0.10313206262E+03  0.75845649545E+02  0.13537908343E+03  0.00000000000E+00 0.  1.
         21    1    1    2  505  503 -0.20414144935E+02 -0.29914562772E+02 -0.40599810362E+02  0.54405541820E+02  0.00000000000E+00 0. -1.
          1    1    1    2  501    0  0.51249380300E+02  0.96234412326E+01 -0.19395171961E+03  0.20083918727E+03  0.00000000000E+00 0. -1.
<scales pt_clust_3="14000.00000" pt_clust_4="110.51747" pt_clust_5="36.21627" pt_clust_6="37.57121"></scales>
<clustering>
<clus scale="   36.216">  2  5  1 -1</clus>
<clus scale="   37.571">  2  6  1 -1</clus>
<clus scale="  110.517">  2  4  1 -1</clus>
<clus scale="  110.517">  1  3  2 -1</clus>
</clustering>
</event>
<event>
 6    0  0.1230761E+002  0.1600017E+03  0.7546771E-02  0.1188695E+00
          2   -1    0    0  503    0 -0.00000000000E+00  0.00000000000E+00  0.66140685905E+03  0.66140685905E+03  0.00000000000E+00 0.  1.
         21   -1    0    0  501  502  0.00000000000E+00 -0.00000000000E+00 -0.14214597667E+03  0.14214597667E+03  0.00000000000E+00 0.  1.
         21    1    1    2  503  505 -0.19246214764E+02 -0.49392949412E+02 -0.57849470186E+02  0.78464268525E+02  0.00000000000E+00 0.  1.
         21    1    1    2  504  502  0.40419134585E+02 -0.51464590830E+02  0.46402779993E+02  0.80221746060E+02  0.00000000000E+00 0.  1.
         21    1    1    2  505  504 -0.51930956483E+01 -0.59732032503E+02 -0.25917234705E+02  0.65319116682E+02  0.00000000000E+00 0.  1.
          2    1    1    2  501    0 -0.15979824172E+02  0.16058957275E+03  0.55662480728E+03  0.57954770445E+03  0.00000000000E+00 0.  1.
<scales pt_clust_3="31.90399" pt_clust_4="65.43937" pt_clust_5="31.90399" pt_clust_6="156.36262"></scales>
<clustering>
<clus scale="   31.904">  3  5 -1 -1</clus>
<clus scale="   65.439">  2  4  1 -1</clus>
<clus scale="  156.363">  1  6  2 -1</clus>
<clus scale="   65.439">  2  3  1 -1</clus>
</clustering>
</event>
<event>
 6    0  0.1230761E+002  0.1082887E+03  0.7546771E-02  0.1263772E+00
         21   -1    0    0  503  502  0.00000000000E+00  0.00000000000E+00  0.13733771953E+03  0.13733771953E+03  0.00000000000E+00 0. -1.
          1   -1    0    0  504    0 -0.00000000000E+00 -0.00000000000E+00 -0.33245542917E+04  0.33245542917E+04  0.00000000000E+00 0. -1.
         21    1    1    2  503  501 -0.10262517623E+03 -0.31577912683E+02  0.98041690207E+02  0.14540035896E+03  0.00000000000E+00 0. -1.
         21    1    1    2  504  505 -0.40067814698E+02 -0.85552435391E+01 -0.46784052465E+03  0.46963110893E+03  0.00000000000E+00 0. -1.
         21    1    1    2  505  502  0.12444967203E+03 -0.31488359946E+01 -0.25257666284E+03  0.28158942922E+03  0.00000000000E+00 0. -1.
          1    1    1    2  501    0  0.18243318897E+02  0.43281992217E+02 -0.25648410749E+04  0.25652711141E+04  0.00000000000E+00 0. -1.
<scales pt_clust_3="108.28869" pt_clust_4="40.97099" pt_clust_5="14000.00000" pt_clust_6="39.77548"></scales>
<clustering>
<clus scale="   40.971">  2  4  1 -1</clus>
<clus scale="   39.775">  2  6  1 -1</clus>
<clus scale="  108.289">  1  3  2 -1</clus>
<clus scale="  108.289">  1  3  2 -1</clus>
</clustering>
</event>
<event>
 6    0  0.1230761E+002  0.1107793E+03  0.7546771E-02  0.1259134E+00
         21   -1    0    0  505  502  0.00000000000E+00  0.00000000000E+00  0.10996005412E+04  0.10996005412E+04  0.00000000000E+00 0. -1.
          2   -1    0    0  504    0 -0.00000000000E+00 -0.00000000000E+00 -0.71322258137E+03  0.71322258137E+03  0.00000000000E+00 0.  1.
         21    1    1    2  503  502 -0.67692213521E+01 -0.65778963067E+02  0.94470358039E+03  0.94701507334E+03  0.00000000000E+00 0. -1.
         21    1    1    2  504  503 -0.89037107580E+02 -0.18344282996E+01 -0.17311738694E+03  0.19468076770E+03  0.00000000000E+00 0.  1.
         21    1    1    2  505  501  0.54075347614E+02 -0.36307934020E+02  0.12918973982E+03  0.14468033096E+03  0.00000000000E+00 0.  1.
          2    1    1    2  501    0  0.41730981319E+02  0.10392132539E+03 -0.51439797345E+03  0.52644695056E+03  0.00000000000E+00 0.  1.
<scales pt_clust_3="110.77928" pt_clust_4="88.45987" pt_clust_5="65.13378" pt_clust_6="14000.00000"></scales>
<clustering>
<clus scale="   65.134">  1  5  2 -1</clus>
<clus scale="   88.460">  2  4  1 -1</clus>
<clus scale="  110.779">  1  3  2 -1</clus>
<clus scale="   65.134">  1  3  2 -1</clus>
</clustering>
</event>
<event>
 6    0  0.1230761E+002  0.1452399E+03  0.7546771E-02  0.1206447E+00
          2   -1    0    0  505    0 -0.00000000000E+00  0.00000000000E+00  0.46311981255E+04  0.46311981255E+04  0.00000000000E+00 0. -1.
         21   -1    0    0  503  502  0.00000000000E+00 -0.00000000000E+00 -0.38956522866E+02  0.38956522866E+02  0.00000000000E+00 0. -1.
         21    1    1    2  503  504  0.20274617139E+02  0.59671779639E+02  0.69782469055E+02  0.94028582744E+02  0.00000000000E+00 0. -1.
         21    1    1    2  504  501  0.12740912390E+02  0.77707299962E+02  0.37374930313E+02  0.87164446489E+02  0.00000000000E+00 0. -1.
         21    1    1    2  505  502  0.45048816039E+02 -0.33144715249E+02  0.12193462233E+04  0.12206281908E+04  0.00000000000E+00 0. -1.
          2    1    1    2  501    0 -0.78064345568E+02 -0.10423436435E+03  0.32657379800E+04  0.32683334283E+04  0.00000000000E+00 0. -1.
<scales pt_clust_3="33.29558" pt_clust_4="33.29558" pt_clust_5="55.92824" pt_clust_6="140.39034"></scales>
<clustering>
<clus scale="   33.296">  3  4 -1 -1</clus>
<clus scale="   55.928">  1  5  2 -1</clus>
<clus scale="  140.390">  1  6  2 -1</clus>
<clus scale="  145.240">  2  3  1 -1</clus>
</clustering>
</event>
<event>
 6    0  0.1230761E+002  0.1715951E+03  0.7546771E-02  0.1176195E+00
          2   -1    0    0  503    0 -0.00000000000E+00  0.00000000000E+00  0.87196922409E+03  0.87196922409E+03  0.00000000000E+00 0. -1.
         21   -1    0    0  504  502  0.00000000000E+00 -0.00000000000E+00 -0.33626174358E+03  0.33626174358E+03  0.00000000000E+00 0. -1.
         21    1    1    2  503  502 -0.62162624202E+02  0.25271168995E+02 -0.49938145474E+02  0.83645933574E+02  0.00000000000E+00 0.  1.
         21    1    1    2  504  505 -0.16337733985E+02  0.64600229372E+02 -0.23779877953E+03  0.24695823682E+03  0.00000000000E+00 0. -1.
         21    1    1    2  505  501 -0.61308184712E+02  0.40411145275E+02  0.74182242337E+02  0.10437796345E+03  0.00000000000E+00 0. -1.
          2    1    1    2  501    0  0.13980854290E+03 -0.13028254364E+03  0.74926216317E+03  0.77324883382E+03  0.00000000000E+00 0. -1.
<scales pt_clust_3="14000.00000" pt_clust_4="66.63416" pt_clust_5="81.66014" pt_clust_6="171.59509"></scales>
<clustering>
<clus scale="   66.634">  2  4  1 -1</clus>
<clus scale="   81.660">  2  5  1 -1</clus>
<clus scale="  171.595">  1  6  2 -1</clus>
<clus scale="   66.634">  2  3  1 -1</clus>
</clustering>
</event>
<event>
 6    0  0.1230761E+002  0.1659644E+03  0.7546771E-02  0.1182123E+00
         21   -1    0    0  503  502  0.00000000000E+00  0.00000000000E+00  0.18042659724E+03  0.18042659724E+03  0.00000000000E+00 0. -1.
          1   -1    0    0  504    0 -0.00000000000E+00 -0.00000000000E+00 -0.14421891152E+04  0.14421891152E+04  0.00000000000E+00 0. -1.
         21    1    1    2  503  501 -0.11085016682E+03  0.41400230421E+02  0.64263011705E+02  0.13465315903E+03  0.00000000000E+00 0. -1.
         21    1    1    2  504  505 -0.23276030814E+02  0.25175524769E+02 -0.94022959556E+03  0.94085454403E+03  0.00000000000E+00 0. -1.
         21    1    1    2  505  502  0.28950167624E+02  0.11188027136E+03 -0.74955853654E+01  0.11580799249E+03  0.00000000000E+00 0.  1.
          1    1    1    2  501    0  0.10517603001E+03 -0.17845602655E+03 -0.37830034871E+03  0.43130001685E+03  0.00000000000E+00 0. -1.
<scales pt_clust_3="165.96437" pt_clust_4="34.28674" pt_clust_5="117.89724" pt_clust_6="14000.00000"></scales>
<clustering>
<clus scale="   34.287">  2  4  1 -1</clus>
<clus scale="  117.897">  1  5  2 -1</clus>
<clus scale="  165.964">  1  3  2 -1</clus>
<clus scale="  117.897">  1  3  2 -1</clus>
</clustering>
</event>
<event>
 6    0  0.1230761E+002  0.1003153E+03  0.7546771E-02  0.1279634E+00
          3   -1    0    0  505    0 -0.00000000000E+00  0.00000000000E+00  0.10609802810E+04  0.10609802810E+04  0.00000000000E+00 0. -1.
         21   -1    0    0  501  502  0.00000000000E+00 -0.00000000000E+00 -0.85783157045E+02  0.85783157045E+02  0.00000000000E+00 0.  1.
         21    1    1    2  503  504 -0.41150170482E+02  0.67735520813E+02  0.11236857180E+03  0.13750684797E+03  0.00000000000E+00 0.  1.
         21    1    1    2  504  502  0.36669905751E+02 -0.10116819963E+03 -0.30041909642E+02  0.11172377965E+03  0.00000000000E+00 0.  1.
         21    1    1    2  505  503 -0.25043415166E+02  0.18658642794E+02  0.12128033058E+03  0.12523672057E+03  0.00000000000E+00 0.  1.
          3    1    1    2  501    0  0.29523679898E+02  0.14774036019E+02  0.77159013125E+03  0.77229608989E+03  0.00000000000E+00 0. -1.
<scales pt_clust_3="100.31533" pt_clust_4="14000.00000" pt_clust_5="31.23008" pt_clust_6="31.42303"></scales>
<clustering>
<clus scale="   31.230">  1  5  2 -1</clus>
<clus scale="   31.423">  1  6  2 -1</clus>
<clus scale="  100.315">  1  3  2 -1</clus>
<clus scale="  100.315">  2  3  1 -1</clus>
</clustering>
</event>
<event>
 6    0  0.1230761E+002  0.1348943E+03  0.7546771E-02  0.1220369E+00
         21   -1    0    0  503  502  0.00000000000E+00  0.00000000000E+00  0.23326518878E+03  0.23326518878E+03  0.00000000000E+00 0.  1.
          2   -1    0    0  504    0 -0.00000000000E+00 -0.00000000000E+00 -0.63394671427E+03  0.63394671427E+03  0.00000000000E+00 0.  1.
         21    1    1    2  503  505 -0.33693959474E+02 -0.23612273663E+02  0.25444094349E+02  0.48375864951E+02  0.00000000000E+00 0. -1.
         21    1    1    2  504  502  0.51396430044E+02 -0.23481229863E+02 -0.64239750693E+02  0.85555284737E+02  0.00000000000E+00 0.  1.
         21    1    1    2  505  501 -0.77526350929E+02  0.10781187233E+03  0.15803499945E+03  0.20641898157E+03  0.00000000000E+00 0.  1.
          2    1    1    2  501    0  0.59823880358E+02 -0.60718368802E+02 -0.51992086859E+03  0.52686177179E+03  0.00000000000E+00 0.  1.
<scales pt_clust_3="41.14392" pt_clust_4="55.40889" pt_clust_5="134.89426" pt_clust_6="14000.00000"></scales>
<clustering>
<clus scale="   41.144">  1  3  2 -1</clus>
<clus scale="   55.409">  2  4  1 -1</clus>
<clus scale="  134.894">  1  5  2 -1</clus>
<clus scale="   41.144">  1  3  2 -1</clus>
</clustering>
</event>
<event>
 6    0  0.1230761E+002  0.1000468E+03  0.7546771E-02  0.1280198E+00
          2   -1    0    0  503    0 -0.00000000000E+00  0.00000000000E+00  0.20930427419E+04  0.20930427419E+04  0.00000000000E+00 0.  1.
         21   -1    0    0  505  502  0.00000000000E+00 -0.00000000000E+00 -0.39817554865E+02  0.39817554865E+02  0.00000000000E+00 0. -1.
         21    1    1    2  503  502  0.32485523100E+02 -0.61166398136E+02  0.10348803271E+04  0.10371952221E+04  0.00000000000E+00 0.  1.
         21    1    1    2  504  501 -0.98802032872E+02  0.13336147587E+02  0.41367729300E+03  0.42552155912E+03  0.00000000000E+00 0.  1.
         21    1    1    2  505  504  0.98611592369E+02  0.22430545445E+02  0.47968149332E+02  0.11192997306E+03  0.00000000000E+00 0. -1.
          2    1    1    2  501    0 -0.32295082598E+02  0.25399705104E+02  0.55669941767E+03  0.55821354248E+03  0.00000000000E+00 0.  1.
<scales pt_clust_3="45.31026" pt_clust_4="14000.00000" pt_clust_5="100.04679" pt_clust_6="41.08671"></scales>
<clustering>
<clus scale="   41.087">  1  6  2 -1</clus>
<clus scale="   45.310">  1  3  2 -1</clus>
<clus scale="  100.047">  2  5  1 -1</clus>
<clus scale="  100.047">  2  3  1 -1</clus>
</clustering>
</event>
<event>
 6    0  0.1230761E+002  0.8160858E+02  0.7546771E-02  0.1324548E+00
          2   -1    0    0  505    0 -0.00000000000E+00  0.00000000000E+00  0.46788782620E+03  0.46788782620E+03  0.00000000000E+00 0.  1.
         21   -1    0    0  504  502  0.00000000000E+00 -0.00000000000E+00 -0.78436774140E+02  0.78436774140E+02  0.00000000000E+00 0. -1.
         21    1    1    2  503  501  0.84703142756E+02  0.62671984152E+02  0.17811840495E+03  0.20695063705E+03  0.00000000000E+00 0. -1.
         21    1    1    2  504  503 -0.35395643227E+02 -0.74316367501E+02 -0.25056796212E+02  0.86044273920E+02  0.00000000000E+00 0. -1.
         21    1    1    2  505  502 -0.19863587968E+02  0.24996712720E+02  0.28058295333E+02  0.42504890434E+02  0.00000000000E+00 0.  1.
          2    1    1    2  501    0 -0.29443911561E+02 -0.13352329372E+02  0.20833114798E+03  0.21082479894E+03  0.00000000000E+00 0.  1.
<scales pt_clust_3="81.60858" pt_clust_4="14000.00000" pt_clust_5="31.92801" pt_clust_6="32.47050"></scales>
<clustering>
<clus scale="   31.928">  2  5  1 -1</clus>
<clus scale="   32.471">  1  6  2 -1</clus>
<clus scale="   81.609">  1  3  2 -1</clus>
<clus scale="   31.928">  2  3  1 -1</clus>
</clustering>
</event>
<event>
 6    0  0.1230761E+002  0.7474976E+02  0.7546771E-02  0.1344648E+00
         21   -1    0    0  504  502  0.00000000000E+00  0.00000000000E+00  0.23631929542E+02  0.23631929542E+02  0.00000000000E+00 0.  1.
          2   -1    0    0  503    0 -0.00000000000E+00 -0.00000000000E+00 -0.20790831515E+04  0.20790831515E+04  0.00000000000E+00 0.  1.
         21    1    1    2  503  505 -0.40343150722E+02 -0.11094007787E+02 -0.30808718400E+03  0.31091535788E+03  0.00000000000E+00 0. -1.
         21    1    1    2  504  501 -0.78469293178E+02  0.86827626252E+02 -0.19356262741E+03  0.22619230178E+03  0.00000000000E+00 0.  1.
         21    1    1    2  505  502  0.30866897901E+02 -0.44335427210E+02 -0.16391966858E+03  0.17259215868E+03  0.00000000000E+00 0.  1.
          2    1    1    2  501    0  0.87945545998E+02 -0.31398191254E+02 -0.13898817419E+04  0.13930152627E+04  0.00000000000E+00 0.  1.
<scales pt_clust_3="41.84073" pt_clust_4="14000.00000" pt_clust_5="52.82945" pt_clust_6="74.74976"></scales>
<clustering>
<clus scale="   41.841">  2  3  1 -1</clus>
<clus scale="   52.829">  1  5  2 -1</clus>
<clus scale="   74.750">  2  6  1 -1</clus>
<clus scale="   52.829">  1  3  2 -1</clus>
</clustering>
</event>
<event>
 6    0  0.1230761E+002  0.1154419E+03  0.7546771E-02  0.1250812E+00
          1   -1    0    0  504    0 -0.00000000000E+00  0.00000000000E+00  0.16346474187E+04  0.16346474187E+04  0.00000000000E+00 0. -1.
         21   -1    0    0  503  502  0.00000000000E+00 -0.00000000000E+00 -0.37999404749E+02  0.37999404749E+02  0.00000000000E+00 0. -1.
         21    1    1    2  503  501  0.35122329043E+02 -0.39384982157E+00  0.90042222130E+01  0.36260296920E+02  0.00000000000E+00 0. -1.
         21    1    1    2  504  505  0.17383395919E+02  0.58132345816E+02  0.30266827491E+03  0.30869019537E+03  0.00000000000E+00 0.  1.
         21    1    1    2  505  502  0.44801420123E+02  0.82643508039E+02  0.13151886357E+03  0.16166115223E+03  0.00000000000E+00 0. -1.
          1    1    1    2  501    0 -0.97307145085E+02 -0.14038200403E+03  0.11534566533E+04  0.11660351789E+04  0.00000000000E+00 0. -1.
<scales pt_clust_3="35.12454" pt_clust_4="62.01278" pt_clust_5="115.44193" pt_clust_6="14000.00000"></scales>
<clustering>
<clus scale="   35.125">  2  3  1 -1</clus>
<clus scale="   62.013">  1  4  2 -1</clus>
<clus scale="  115.442">  2  5  1 -1</clus>
<clus scale="   35.125">  2  3  1 -1</clus>
</clustering>
</event>
<event>
 6    0  0.1230761E+002  0.7403082E+02  0.7546771E-02  0.1346899E+00
          2   -1    0    0  504    0 -0.00000000000E+00  0.00000000000E+00  0.29166518690E+04  0.29166518690E+04  0.00000000000E+00 0.  1.
         21   -1    0    0  501  502  0.00000000000E+00 -0.00000000000E+00 -0.32758965622E+02  0.32758965622E+02  0.00000000000E+00 0.  1.
         21    1    1    2  503  502  0.55989814816E+02 -0.27843325535E+02  0.22743933259E+02  0.66538685290E+02  0.00000000000E+00 0.  1.
         21    1    1    2  504  505 -0.40763192761E+02 -0.85257099607E+00  0.23071577416E+04  0.23075179760E+04  0.00000000000E+00 0.  1.
         21    1    1    2  505  503  0.61773450231E+02  0.41116681938E+02  0.21298086828E+03  0.22553800332E+03  0.00000000000E+00 0.  1.
          2    1    1    2  501    0 -0.77000072285E+02 -0.12420785407E+02  0.34101036027E+03  0.34981617008E+03  0.00000000000E+00 0.  1.
<scales pt_clust_3="59.90061" pt_clust_4="40.77211" pt_clust_5="14000.00000" pt_clust_6="74.03082"></scales>
<clustering>
<clus scale="   40.772">  1  4  2 -1</clus>
<clus scale="   59.901">  2  3  1 -1</clus>
<clus scale="   74.031">  2  6  1 -1</clus>
<clus scale="   59.901">  2  3  1 -1</clus>
</clustering>
</event>
<event>
 6    0  0.1230761E+002  0.1232822E+03  0.7546771E-02  0.1237779E+00
         21   -1    0    0  505  502  0.00000000000E+00  0.00000000000E+00  0.17824837835E+03  0.17824837835E+03  0.00000000000E+00 0.  1.
         -2   -1    0    0    0  501 -0.00000000000E+00 -0.00000000000E+00 -0.18106797651E+03  0.18106797651E+03  0.00000000000E+00 0. -1.
         21    1    1    2  503  502 -0.79601763380E+02 -0.13064025510E+02  0.98417625010E+02  0.12725226288E+03  0.00000000000E+00 0.  1.
         21    1    1    2  504  503 -0.36756224347E+02  0.61654464989E+01  0.57856481385E+01  0.37716130278E+02  0.00000000000E+00 0.  1.
         21    1    1    2  505  501  0.24875818978E+02 -0.46719696773E+02 -0.54657641512E+02  0.76085440211E+02  0.00000000000E+00 0. -1.
         -2    1    1    2    0  504  0.91482168749E+02  0.53618275784E+02 -0.52365229802E+02  0.11826252149E+03  0.00000000000E+00 0. -1.
<scales pt_clust_3="35.77091" pt_clust_4="35.77091" pt_clust_5="52.92954" pt_clust_6="111.48552"></scales>
<clustering>
<clus scale="   35.771">  3  4 -1 -1</clus>
<clus scale="   52.930">  2  5  1 -1</clus>
<clus scale="  111.486">  2  6  1 -1</clus>
<clus scale="  123.282">  1  3  2 -1</clus>
</clustering>
</event>
<event>
 6    0  0.1230761E+002  0.8742929E+02  0.7546771E-02  0.1309199E+00
          1   -1    0    0  503    0 -0.00000000000E+00  0.00000000000E+00  0.78580414701E+03  0.78580414701E+03  0.00000000000E+00 0.  1.
         21   -1    0    0  505  502  0.00000000000E+00 -0.00000000000E+00 -0.32516975200E+03  0.32516975200E+03  0.00000000000E+00 0.  1.
         21    1    1    2  503  502  0.11800996177E+02 -0.10615926594E+03  0.88072601779E+02  0.13844073259E+03  0.00000000000E+00 0.  1.
         21    1    1    2  504  501  0.42170732474E+02  0.17874075141E+02  0.17422491586E+03  0.18014487099E+03  0.00000000000E+00 0.  1.
         21    1    1    2  505  504 -0.64053763550E+02  0.59909260742E+02 -0.29007765926E+03  0.30304628780E+03  0.00000000000E+00 0.  1.
          1    1    1    2  501    0  0.10082034899E+02  0.28375930060E+02  0.48841453663E+03  0.48934200763E+03  0.00000000000E+00 0.  1.
<scales pt_clust_3="14000.00000" pt_clust_4="59.44329" pt_clust_5="87.42929" pt_clust_6="30.11380"></scales>
<clustering>
<clus scale="   30.114">  1  6  2 -1</clus>
<clus scale="   59.443">  1  4  2 -1</clus>
<clus scale="   87.429">  2  5  1 -1</clus>
<clus scale="   87.429">  2  3  1 -1</clus>
</clustering>
</event>
<event>
 6    0  0.1230761E+002  0.8003035E+02  0.7546771E-02  0.1328965E+00
         21   -1    0    0  503  502  0.00000000000E+00  0.00000000000E+00  0.72431611640E+03  0.72431611640E+03  0.00000000000E+00 0. -1.
          2   -1    0    0  505    0 -0.00000000000E+00 -0.00000000000E+00 -0.17088424521E+03  0.17088424521E+03  0.00000000000E+00 0.  1.
         21    1    1    2  503  504  0.31542575265E+02 -0.19522882281E+02  0.35632805682E+03  0.35825376629E+03  0.00000000000E+00 0. -1.
         21    1    1    2  504  501 -0.41830028294E+02 -0.36985505984E+02 -0.31331237652E+02  0.64025974204E+02  0.00000000000E+00 0. -1.
         21    1    1    2  505  502 -0.18703570741E+02  0.10297333031E+03  0.33615889134E+03  0.35207404128E+03  0.00000000000E+00 0. -1.
          2    1    1    2  501    0  0.28991023770E+02 -0.46464942045E+02 -0.10772383932E+03  0.12084657983E+03  0.00000000000E+00 0.  1.
<scales pt_clust_3="37.09551" pt_clust_4="14000.00000" pt_clust_5="80.03035" pt_clust_6="55.36280"></scales>
<clustering>
<clus scale="   37.096">  1  3  2 -1</clus>
<clus scale="   55.363">  2  6  1 -1</clus>
<clus scale="   80.030">  1  5  2 -1</clus>
<clus scale="   37.096">  1  3  2 -1</clus>
</clustering>
</event>
<event>
 6    0  0.1230761E+002  0.1634951E+03  0.7546771E-02  0.1184806E+00
         21   -1    0    0  504  502  0.00000000000E+00  0.00000000000E+00  0.76826766638E+02  0.76826766638E+02  0.00000000000E+00 0. -1.
          2   -1    0    0  503    0 -0.00000000000E+00 -0.00000000000E+00 -0.17155508626E+04  0.17155508626E+04  0.00000000000E+00 0. -1.
         21    1    1    2  503  505 -0.28487863187E+02  0.18013052075E+02 -0.20959539123E+03  0.21228814479E+03  0.00000000000E+00 0. -1.
         21    1    1    2  504  501  0.24902063543E+01  0.99088577089E+02  0.18170525698E+02  0.10077159938E+03  0.00000000000E+00 0. -1.
         21    1    1    2  505  502  0.29247374811E+01  0.69499155408E+02 -0.11949085729E+03  0.13826334173E+03  0.00000000000E+00 0. -1.
          2    1    1    2  501    0  0.23072919352E+02 -0.18660078457E+03 -0.13278083731E+04  0.13410545433E+04  0.00000000000E+00 0. -1.
<scales pt_clust_3="33.70502" pt_clust_4="163.49507" pt_clust_5="71.04371" pt_clust_6="14000.00000"></scales>
<clustering>
<clus scale="   33.705">  2  3  1 -1</clus>
<clus scale="   71.044">  1  5  2 -1</clus>
<clus scale="  163.495">  1  4  2 -1</clus>
<clus scale="   71.044">  1  3  2 -1</clus>
</clustering>
</event>
<event>
 6    0  0.1230761E+002  0.1811953E+03  0.7546771E-02  0.1166651E+00
         -4   -1    0    0    0  501 -0.00000000000E+00  0.00000000000E+00  0.24102871025E+02  0.24102871025E+02  0.00000000000E+00 0.  1.
         21   -1    0    0  504  502  0.00000000000E+00 -0.00000000000E+00 -0.31217703661E+04  0.31217703661E+04  0.00000000000E+00 0. -1.
         21    1    1    2  503  502 -0.11919849644E+03 -0.43757082736E+02 -0.19540940360E+04  0.19582151223E+04  0.00000000000E+00 0. -1.
         21    1    1    2  504  501 -0.48110104891E+02 -0.23536112671E+02 -0.17943740489E+03  0.18726001459E+03  0.00000000000E+00 0. -1.
         21    1    1    2  505  503 -0.37581783267E+02  0.12831772457E+02 -0.31561798055E+03  0.31810651434E+03  0.00000000000E+00 0. -1.
         -4    1    1    2    0  505  0.20489038460E+03  0.54461422951E+02 -0.64851807366E+03  0.68229158588E+03  0.00000000000E+00 0.  1.
<scales pt_clust_3="37.56144" pt_clust_4="53.55867" pt_clust_5="37.56144" pt_clust_6="168.28729"></scales>
<clustering>
<clus scale="   37.561">  3  5 -1 -1</clus>
<clus scale="   53.559">  1  4  2 -1</clus>
<clus scale="  168.287">  1  6  2 -1</clus>
<clus scale="  181.195">  2  3  1 -1</clus>
</clustering>
</event>
<event>
 6    0  0.1230761E+002  0.1599280E+03  0.7546771E-02  0.1188778E+00
         21   -1    0    0  505  502  0.00000000000E+00  0.00000000000E+00  0.30069386221E+02  0.30069386221E+02  0.00000000000E+00 0.  1.
          1   -1    0    0  503    0 -0.00000000000E+00 -0.00000000000E+00 -0.25680865921E+04  0.25680865921E+04  0.00000000000E+00 0.  1.
         21    1    1    2  503  504  0.21966828701E+02 -0.33239655013E+02 -0.46879006518E+03  0.47048011800E+03  0.00000000000E+00 0.  1.
         21    1    1    2  504  502  0.36586560665E+02 -0.39720304331E+02 -0.20601487350E+03  0.21297513258E+03  0.00000000000E+00 0.  1.
         21    1    1    2  505  501  0.12631814969E+03  0.38397309664E+02 -0.19243128905E+03  0.23336758416E+03  0.00000000000E+00 0.  1.
          1    1    1    2  501    0 -0.18487153906E+03  0.34562649681E+02 -0.16707809781E+04  0.16813331435E+04  0.00000000000E+00 0.  1.
<scales pt_clust_3="39.84239" pt_clust_4="57.93261" pt_clust_5="14000.00000" pt_clust_6="159.92802"></scales>
<clustering>
<clus scale="   39.842">  2  3  1 -1</clus>
<clus scale="   57.933">  1  4  2 -1</clus>
<clus scale="  159.928">  2  6  1 -1</clus>
<clus scale="   57.933">  1  3  2 -1</clus>
</clustering>
</event>
<event>
 6    0  0.1230761E+002  0.8762761E+02  0.7546771E-02  0.1308701E+00
          2   -1    0    0  502    0 -0.00000000000E+00  0.00000000000E+00  0.27507916992E+03  0.27507916992E+03  0.00000000000E+00 0.  1.
         21   -1    0    0  504  502  0.00000000000E+00 -0.00000000000E+00 -0.45700352154E+03  0.45700352154E+03  0.00000000000E+00 0. -1.
         21    1    1    2  503  501  0.16226557213E+02 -0.80218407982E+02  0.57383093310E+02  0.99955557805E+02  0.00000000000E+00 0.  1.
         21    1    1    2  504  505 -0.48942078352E+02 -0.24568793012E+02 -0.15309765917E+03  0.16259718898E+03  0.00000000000E+00 0.  1.
         21    1    1    2  505  503  0.10441945237E+03  0.38433657836E+02 -0.25291431194E+03  0.27630819256E+03  0.00000000000E+00 0. -1.
          2    1    1    2  501    0 -0.71703931231E+02  0.66353543158E+02  0.16670452618E+03  0.19322175212E+03  0.00000000000E+00 0.  1.
<scales pt_clust_3="87.62761" pt_clust_4="54.76269" pt_clust_5="63.36955" pt_clust_6="14000.00000"></scales>
<clustering>
<clus scale="   54.763">  2  4  1 -1</clus>
<clus scale="   63.370">  2  5  1 -1</clus>
<clus scale="   87.628">  2  3  1 -1</clus>
<clus scale="   54.763">  2  3  1 -1</clus>
</clustering>
</event>
<event>
 6    0  0.1230761E+002  0.1208476E+03  0.7546771E-02  0.1241705E+00
          1   -1    0    0  503    0 -0.00000000000E+00  0.00000000000E+00  0.47079797373E+03  0.47079797373E+03  0.00000000000E+00 0.  1.
         21   -1    0    0  505  502  0.00000000000E+00 -0.00000000000E+00 -0.16806850022E+03  0.16806850022E+03  0.00000000000E+00 0.  1.
         21    1    1    2  503  504  0.28082269329E+02 -0.26408669864E+02  0.29857065621E+03  0.30104894692E+03  0.00000000000E+00 0.  1.
         21    1    1    2  504  502 -0.10770075668E+03  0.49829458604E+02  0.17050997922E+02  0.11988813313E+03  0.00000000000E+00 0.  1.
         21    1    1    2  505  501 -0.23371498942E+02  0.60855640683E+02 -0.47222163174E+02  0.80495767967E+02  0.00000000000E+00 0.  1.
          1    1    1    2  501    0  0.10298998630E+03 -0.84276429424E+02  0.34329982554E+02  0.13743362593E+03  0.00000000000E+00 0.  1.
<scales pt_clust_3="38.54908" pt_clust_4="120.84765" pt_clust_5="61.83242" pt_clust_6="14000.00000"></scales>
<clustering>
<clus scale="   38.549">  1  3  2 -1</clus>
<clus scale="   61.832">  2  5  1 -1</clus>
<clus scale="  120.848">  1  4  2 -1</clus>
<clus scale="   61.832">  2  3  1 -1</clus>
</clustering>
</event>
<event>
 6    0  0.1230761E+002  0.6844516E+02  0.7546771E-02  0.1365462E+00
         21   -1    0    0  504  502  0.00000000000E+00  0.00000000000E+00  0.18525284130E+04  0.18525284130E+04  0.00000000000E+00 0.  1.
         -1   -1    0    0    0  501 -0.00000000000E+00 -0.00000000000E+00 -0.14755050375E+03  0.14755050375E+03  0.00000000000E+00 0.  1.
         21    1    1    2  503  502 -0.85747191564E+02 -0.37245418165E+02  0.24696583133E+03  0.26406802888E+03  0.00000000000E+00 0. -1.
         21    1    1    2  504  505  0.65452346066E+02 -0.18058575837E+02  0.15550716403E+04  0.15565532205E+04  0.00000000000E+00 0.  1.
         21    1    1    2  505  501 -0.34478016728E+02  0.21484402948E+02  0.20442786198E+02  0.45477694698E+02  0.00000000000E+00 0.  1.
         -1    1    1    2    0  503  0.54772862226E+02  0.33819591053E+02 -0.11750234854E+03  0.13397997271E+03  0.00000000000E+00 0.  1.
<scales pt_clust_3="68.44516" pt_clust_4="14000.00000" pt_clust_5="40.62405" pt_clust_6="58.40381"></scales>
<clustering>
<clus scale="   40.624">  2  5  1 -1</clus>
<clus scale="   58.404">  2  6  1 -1</clus>
<clus scale="   68.445">  2  3  1 -1</clus>
<clus scale="   68.445">  1  3  2 -1</clus>
</clustering>
</event>
<event>
 6    0  0.1230761E+002  0.6794242E+02  0.7546771E-02  0.1367233E+00
         21   -1    0    0  501  502  0.00000000000E+00  0.00000000000E+00  0.29709181166E+03  0.29709181166E+03  0.00000000000E+00 0. -1.
          1   -1    0    0  505    0 -0.00000000000E+00 -0.00000000000E+00 -0.10793412861E+04  0.10793412861E+04  0.00000000000E+00 0.  1.
         21    1    1    2  503  504  0.63903620381E+02 -0.52794276453E+02  0.21086376574E+03  0.22657103969E+03  0.00000000000E+00 0. -1.
         21    1    1    2  504  502 -0.47020899798E+02 -0.12867065762E+02  0.59843055966E+02  0.77186253611E+02  0.00000000000E+00 0. -1.
         21    1    1    2  505  503 -0.41065973602E+02 -0.21160245726E+02 -0.60427756940E+02  0.76063683817E+02  0.00000000000E+00 0. -1.
          1    1    1    2  501    0  0.24183253019E+02  0.86821587941E+02 -0.99252853918E+03  0.99661212061E+03  0.00000000000E+00 0.  1.
<scales pt_clust_3="14000.00000" pt_clust_4="49.13731" pt_clust_5="46.19708" pt_clust_6="67.94242"></scales>
<clustering>
<clus scale="   46.197">  2  5  1 -1</clus>
<clus scale="   49.137">  1  4  2 -1</clus>
<clus scale="   67.942">  2  6  1 -1</clus>
<clus scale="   49.137">  1  3  2 -1</clus>
</clustering>
</event>
<event>
 6    0  0.1230761E+002  0.1314112E+03  0.7546771E-02  0.1225377E+00
          3   -1    0    0  504    0 -0.00000000000E+00  0.00000000000E+00  0.26883858361E+03  0.26883858361E+03  0.00000000000E+00 0.  1.
         21   -1    0    0  501  502  0.00000000000E+00 -0.00000000000E+00 -0.27701596232E+03  0.27701596232E+03  0.00000000000E+00 0.  1.
         21    1    1    2  503  505  0.69100601116E+02 -0.71930359129E+02 -0.87248815119E+02  0.13251877368E+03  0.00000000000E+00 0.  1.
         21    1    1    2  504  503  0.15433062083E+02 -0.47896640221E+02  0.69284995480E+02  0.85631058317E+02  0.00000000000E+00 0. -1.
         21    1    1    2  505  502  0.52122354282E+02  0.10889347179E+02 -0.10561416061E+03  0.11827792956E+03  0.00000000000E+00 0. -1.
          3    1    1    2  501    0 -0.13665601748E+03  0.10893765217E+03  0.11540060154E+03  0.20942678437E+03  0.00000000000E+00 0.  1.
<scales pt_clust_3="131.41117" pt_clust_4="50.32164" pt_clust_5="53.44909" pt_clust_6="14000.00000"></scales>
<clustering>
<clus scale="   50.322">  1  4  2 -1</clus>
<clus scale="   53.449">  2  5  1 -1</clus>
<clus scale="  131.411">  2  3  1 -1</clus>
<clus scale="   53.449">  2  3  1 -1</clus>
</clustering>
</event>
<event>
 6    0  0.1230761E+002  0.9068385E+02  0.7546771E-02  0.1301204E+00
         21   -1    0    0  503  502  0.00000000000E+00  0.00000000000E+00  0.22173074537E+03  0.22173074537E+03  0.00000000000E+00 0. -1.
          2   -1    0    0  505    0 -0.00000000000E+00 -0.00000000000E+00 -0.76291017000E+03  0.76291017000E+03  0.00000000000E+00 0. -1.
         21    1    1    2  503  501 -0.29940254786E+02 -0.56342338662E+02  0.15837999231E+03  0.17074864552E+03  0.00000000000E+00 0. -1.
         21    1    1    2  504  502 -0.35921955406E+02 -0.54576747404E+01  0.24978563408E+02  0.44091968925E+02  0.00000000000E+00 0.  1.
         21    1    1    2  505  504  0.13713998145E+03  0.10623718252E+03 -0.43467976133E+03  0.46801731631E+03  0.00000000000E+00 0. -1.
          2    1    1    2  501    0 -0.71277771262E+02 -0.44437169116E+02 -0.28985821901E+03  0.30178298462E+03  0.00000000000E+00 0. -1.
<scales pt_clust_3="90.68385" pt_clust_4="36.33419" pt_clust_5="14000.00000" pt_clust_6="85.05925"></scales>
<clustering>
<clus scale="   36.334">  1  4  2 -1</clus>
<clus scale="   85.059">  2  6  1 -1</clus>
<clus scale="   90.684">  1  3  2 -1</clus>
<clus scale="   36.334">  1  3  2 -1</clus>
</clustering>
</event>
<event>
 6    0  0.1230761E+002  0.1090766E+03  0.7546771E-02  0.1262289E+00
          1   -1    0    0  503    0 -0.00000000000E+00  0.00000000000E+00  0.15366490618E+04  0.15366490618E+04  0.00000000000E+00 0.  1.
         21   -1    0    0  504  502  0.00000000000E+00 -0.00000000000E+00 -0.95667175761E+02  0.95667175761E+02  0.00000000000E+00 0. -1.
         21    1    1    2  503  502 -0.48617504593E+01 -0.68684087645E+02  0.49260271562E+03  0.49739177310E+03  0.00000000000E+00 0.  1.
         21    1    1    2  504  505 -0.98949765983E+02  0.68315603683E+02  0.95980480867E+01  0.12062421159E+03  0.00000000000E+00 0. -1.
         21    1    1    2  505  501  0.13283369436E+02 -0.11605625767E+03  0.76811755218E+02  0.13980539542E+03  0.00000000000E+00 0. -1.
          1    1    1    2  501    0  0.90528147007E+02  0.11642474163E+03  0.86196936708E+03  0.87449485741E+03  0.00000000000E+00 0.  1.
<scales pt_clust_3="68.85594" pt_clust_4="109.07661" pt_clust_5="14000.00000" pt_clust_6="104.78459"></scales>
<clustering>
<clus scale="   68.856">  1  3  2 -1</clus>
<clus scale="  104.785">  1  6  2 -1</clus>
<clus scale="  109.077">  2  4  1 -1</clus>
<clus scale="  109.077">  2  3  1 -1</clus>
</clustering>
</event>
<event>
 6    0  0.1230761E+002  0.7370641E+02  0.7546771E-02  0.1347924E+00
         21   -1    0    0  503  502  0.00000000000E+00  0.00000000000E+00  0.69420826343E+03  0.69420826343E+03  0.00000000000E+00 0. -1.
         -2   -1    0    0    0  501 -0.00000000000E+00 -0.00000000000E+00 -0.10132828158E+03  0.10132828158E+03  0.00000000000E+00 0. -1.
         21    1    1    2  503  505  0.32169840818E+02  0.36257605466E+02  0.21361816609E+03  0.21904847294E+03  0.00000000000E+00 0. -1.
         21    1    1    2  504  502  0.93494440075E+01 -0.32220299741E+02  0.38930922655E+03  0.39075213844E+03  0.00000000000E+00 0. -1.
         21    1    1    2  505  501  0.49157690694E+02  0.44746527714E+02 -0.41143236225E+02  0.78176058892E+02  0.00000000000E+00 0. -1.
         -2    1    1    2    0  504 -0.90676975520E+02 -0.48783833439E+02  0.31095825440E+02  0.10755987474E+03  0.00000000000E+00 0. -1.
<scales pt_clust_3="41.04814" pt_clust_4="33.54936" pt_clust_5="14000.00000" pt_clust_6="73.70641"></scales>
<clustering>
<clus scale="   33.549">  1  4  2 -1</clus>
<clus scale="   41.048">  1  3  2 -1</clus>
<clus scale="   73.706">  1  6  2 -1</clus>
<clus scale="   33.549">  1  3  2 -1</clus>
</clustering>
</event>
<event>
 6    0  0.1230761E+002  0.1028555E+03  0.7546771E-02  0.1274403E+00
         21   -1    0    0  503  502  0.00000000000E+00  0.00000000000E+00  0.88415067075E+03  0.88415067075E+03  0.00000000000E+00 0.  1.
         -1   -1    0    0    0  501 -0.00000000000E+00 -0.00000000000E+00 -0.36950164657E+02  0.36950164657E+02  0.00000000000E+00 0. -1.
         21    1    1    2  503  501  0.22400592420E+02 -0.70040709886E+02  0.12213775401E+03  0.14256619002E+03  0.00000000000E+00 0. -1.
         21    1    1    2  504  505 -0.98324072627E+02  0.51191198769E+02  0.44585229742E+03  0.45942619996E+03  0.00000000000E+00 0.  1.
         21    1    1    2  505  502  0.43586270092E+01  0.32075539981E+02  0.22759678389E+03  0.22988722002E+03  0.00000000000E+00 0.  1.
         -1    1    1    2    0  504  0.71564853198E+02 -0.13226028864E+02  0.51613670780E+02  0.89221225413E+02  0.00000000000E+00 0. -1.
<scales pt_clust_3="67.69272" pt_clust_4="14000.00000" pt_clust_5="32.37032" pt_clust_6="102.85550"></scales>
<clustering>
<clus scale="   32.370">  1  5  2 -1</clus>
<clus scale="   67.693">  2  3  1 -1</clus>
<clus scale="  102.855">  2  6  1 -1</clus>
<clus scale="   32.370">  1  3  2 -1</clus>
</clustering>
</event>
<event>
 6    0  0.1230761E+002  0.1729010E+03  0.7546771E-02  0.1174856E+00
          1   -1    0    0  505    0 -0.00000000000E+00  0.00000000000E+00  0.13115108002E+04  0.13115108002E+04  0.00000000000E+00 0.  1.
         21   -1    0    0  503  502  0.00000000000E+00 -0.00000000000E+00 -0.62209857956E+02  0.62209857956E+02  0.00000000000E+00 0.  1.
         21    1    1    2  503  504  0.68857152673E+02  0.10162540143E+03  0.35453030093E+02  0.12777302936E+03  0.00000000000E+00 0.  1.
         21    1    1    2  504  501  0.21097108949E+02  0.36195224449E+02  0.51562732198E+02  0.66437170550E+02  0.00000000000E+00 0.  1.
         21    1    1    2  505  502 -0.31771824879E+02  0.12518515419E+02  0.11749758982E+03  0.12235949369E+03  0.00000000000E+00 0. -1.
          1    1    1    2  501    0 -0.58182436743E+02 -0.15033914129E+03  0.10447875902E+04  0.10571509646E+04  0.00000000000E+00 0.  1.
<scales pt_clust_3="32.31388" pt_clust_4="32.31388" pt_clust_5="34.14912" pt_clust_6="163.81454"></scales>
<clustering>
<clus scale="   32.314">  3  4 -1 -1</clus>
<clus scale="   34.149">  1  5  2 -1</clus>
<clus scale="  163.815">  1  6  2 -1</clus>
<clus scale="  172.901">  2  3  1 -1</clus>
</clustering>
</event>
<event>
 6    0  0.1230761E+002  0.9481524E+02  0.7546771E-02  0.1291593E+00
         21   -1    0    0  504  502  0.00000000000E+00  0.00000000000E+00  0.15793095018E+03  0.15793095018E+03  0.00000000000E+00 0. -1.
         -1   -1    0    0    0  501 -0.00000000000E+00 -0.00000000000E+00 -0.28521020584E+03  0.28521020584E+03  0.00000000000E+00 0. -1.
         21    1    1    2  503  501  0.54584674459E+02 -0.21518542627E+02 -0.17680233589E+02  0.61279074914E+02  0.00000000000E+00 0. -1.
         21    1    1    2  504  505  0.75426054903E+02 -0.46222060771E+02  0.64075156524E+02  0.10923000661E+03  0.00000000000E+00 0. -1.
         21    1    1    2  505  503 -0.44611562494E+02 -0.48018309376E+02 -0.65355346754E+02  0.92559553223E+02  0.00000000000E+00 0.  1.
         -1    1    1    2    0  502 -0.85399166868E+02  0.11575891277E+03 -0.10831883184E+03  0.18007252128E+03  0.00000000000E+00 0. -1.
<scales pt_clust_3="58.67311" pt_clust_4="14000.00000" pt_clust_5="61.24143" pt_clust_6="94.81524"></scales>
<clustering>
<clus scale="   58.673">  2  3  1 -1</clus>
<clus scale="   61.241">  2  5  1 -1</clus>
<clus scale="   94.815">  2  6  1 -1</clus>
<clus scale="   94.815">  1  3  2 -1</clus>
</clustering>
</event>
<event>
 6    0  0.1230761E+002  0.9763808E+02  0.7546771E-02  0.1285343E+00
          2   -1    0    0  504    0 -0.00000000000E+00  0.00000000000E+00  0.16107025871E+04  0.16107025871E+04  0.00000000000E+00 0.  1.
         21   -1    0    0  503  502  0.00000000000E+00 -0.00000000000E+00 -0.16659361113E+02  0.16659361113E+02  0.00000000000E+00 0. -1.
         21    1    1    2  503  501 -0.17472313749E+02  0.25105091061E+02  0.88820821343E+02  0.93939798004E+02  0.00000000000E+00 0. -1.
         21    1    1    2  504  505  0.81171597831E+02 -0.14412930135E+02  0.52678575642E+03  0.53319770631E+03  0.00000000000E+00 0. -1.
         21    1    1    2  505  502  0.60135160474E+02  0.24938149600E+02  0.17903353279E+03  0.19050237451E+03  0.00000000000E+00 0. -1.
          2    1    1    2  501    0 -0.12383444456E+03 -0.35630310526E+02  0.79940311540E+03  0.80972206935E+03  0.00000000000E+00 0.  1.
<scales pt_clust_3="30.58672" pt_clust_4="14000.00000" pt_clust_5="63.61998" pt_clust_6="97.63808"></scales>
<clustering>
<clus scale="   30.587">  2  3  1 -1</clus>
<clus scale="   63.620">  2  5  1 -1</clus>
<clus scale="   97.638">  2  6  1 -1</clus>
<clus scale="   30.587">  2  3  1 -1</clus>
</clustering>
</event>
<event>
 6    0  0.1230761E+002  0.7734328E+02  0.7546771E-02  0.1336764E+00
          1   -1    0    0  505    0 -0.00000000000E+00  0.00000000000E+00  0.10562099780E+03  0.10562099780E+03  0.00000000000E+00 0.  1.
         21   -1    0    0  501  502  0.00000000000E+00 -0.00000000000E+00 -0.29738405612E+03  0.29738405612E+03  0.00000000000E+00 0. -1.
         21    1    1    2  503  502  0.33724340617E+02  0.73652637728E+01 -0.74166963211E+02  0.81806580985E+02  0.00000000000E+00 0. -1.
         21    1    1    2  504  503  0.11155867349E+02 -0.65599423156E+02 -0.13610784156E+03  0.15150274660E+03  0.00000000000E+00 0. -1.
         21    1    1    2  505  504  0.24529442594E+02 -0.40543542957E+02  0.11525354783E+02  0.48767881155E+02  0.00000000000E+00 0.  1.
          1    1    1    2  501    0 -0.69409650560E+02  0.98777702340E+02  0.69863916626E+01  0.12092784518E+03  0.00000000000E+00 0.  1.
<scales pt_clust_3="34.51924" pt_clust_4="77.34328" pt_clust_5="48.41270" pt_clust_6="14000.00000"></scales>
<clustering>
<clus scale="   34.519">  2  3  1 -1</clus>
<clus scale="   48.413">  1  5  2 -1</clus>
<clus scale="   77.343">  2  4  1 -1</clus>
<clus scale="   34.519">  2  3  1 -1</clus>
</clustering>
</event>
<event>
 6    0  0.1230761E+002  0.1178697E+03  0.7546771E-02  0.1246653E+00
         21   -1    0    0  501  502  0.00000000000E+00  0.00000000000E+00  0.54972020086E+02  0.54972020086E+02  0.00000000000E+00 0. -1.
          2   -1    0    0  504    0 -0.00000000000E+00 -0.00000000000E+00 -0.42254302187E+03  0.42254302187E+03  0.00000000000E+00 0.  1.
         21    1    1    2  503  505 -0.39384655369E+01 -0.45187303385E+02 -0.16161384972E+02  0.48151783583E+02  0.00000000000E+00 0. -1.
         21    1    1    2  504  503  0.25651927080E+02 -0.49303742872E+02 -0.43673104191E+02  0.70683947639E+02  0.00000000000E+00 0. -1.
         21    1    1    2  505  502  0.48522703720E+02 -0.57540949577E+01 -0.36141034087E+02  0.60776119735E+02  0.00000000000E+00 0. -1.
          2    1    1    2  501    0 -0.70236165263E+02  0.10024514121E+03 -0.27159547853E+03  0.29790319100E+03  0.00000000000E+00 0.  1.
<scales pt_clust_3="30.52543" pt_clust_4="30.52543" pt_clust_5="48.86269" pt_clust_6="112.92273"></scales>
<clustering>
<clus scale="   30.525">  3  4 -1 -1</clus>
<clus scale="   48.863">  1  5  2 -1</clus>
<clus scale="  112.923">  2  6  1 -1</clus>
<clus scale="   48.863">  1  3  2 -1</clus>
</clustering>
</event>
<event>
 6    0  0.1230761E+002  0.1056853E+03  0.7546771E-02  0.1268775E+00
          2   -1    0    0  504    0 -0.00000000000E+00  0.00000000000E+00  0.85341029119E+03  0.85341029119E+03  0.00000000000E+00 0.  1.
         21   -1    0    0  505  502  0.00000000000E+00 -0.00000000000E+00 -0.12246953725E+03  0.12246953725E+03  0.00000000000E+00 0.  1.
         21    1    1    2  503  502  0.31799668929E+02 -0.38745332350E+02 -0.15070760756E+02  0.52340687354E+02  0.00000000000E+00 0.  1.
         21    1    1    2  504  503 -0.11693600580E+02 -0.75222142885E+02  0.54387603286E+02  0.93558123463E+02  0.00000000000E+00 0. -1.
         21    1    1    2  505  501 -0.71430012286E+02  0.13392877666E+02 -0.44520555689E+02  0.85227317840E+02  0.00000000000E+00 0.  1.
          2    1    1    2  501    0  0.51323943937E+02  0.10057459757E+03  0.73614446710E+03  0.74475369979E+03  0.00000000000E+00 0.  1.
<scales pt_clust_3="50.12404" pt_clust_4="105.68531" pt_clust_5="50.44712" pt_clust_6="14000.00000"></scales>
<clustering>
<clus scale="   50.124">  2  3  1 -1</clus>
<clus scale="   50.447">  2  5  1 -1</clus>
<clus scale="  105.685">  2  4  1 -1</clus>
<clus scale="   50.124">  2  3  1 -1</clus>
</clustering>
</event>
<event>
 6    0  0.1230761E+002  0.2259454E+03  0.7546771E-02  0.1129527E+00
         21   -1    0    0  503  502  0.00000000000E+00  0.00000000000E+00  0.82903012965E+02  0.82903012965E+02  0.00000000000E+00 0. -1.
          2   -1    0    0  504    0 -0.00000000000E+00 -0.00000000000E+00 -0.16485098694E+04  0.16485098694E+04  0.00000000000E+00 0.  1.
         21    1    1    2  503  505  0.89222947571E+02 -0.66200347883E+02 -0.41035813323E+02  0.11843630528E+03  0.00000000000E+00 0. -1.
         21    1    1    2  504  502 -0.49986513889E+02  0.12483516946E+02 -0.15572639217E+03  0.16402804329E+03  0.00000000000E+00 0.  1.
         21    1    1    2  505  501  0.30786074885E+02 -0.11399205859E+03 -0.69616704903E+02  0.13707099413E+03  0.00000000000E+00 0. -1.
          2    1    1    2  501    0 -0.70022508567E+02  0.16770888953E+03 -0.12992279461E+04  0.13118775397E+04  0.00000000000E+00 0.  1.
<scales pt_clust_3="75.85532" pt_clust_4="51.52174" pt_clust_5="75.85532" pt_clust_6="211.85558"></scales>
<clustering>
<clus scale="   51.522">  2  4  1 -1</clus>
<clus scale="   75.855">  3  5 -1 -1</clus>
<clus scale="  211.856">  2  6  1 -1</clus>
<clus scale="  225.945">  1  3  2 -1</clus>
</clustering>
</event>
<event>
 6    0  0.1230761E+002  0.1098893E+03  0.7546771E-02  0.1260775E+00
         21   -1    0    0  501  502  0.00000000000E+00  0.00000000000E+00  0.89885489497E+02  0.89885489497E+02  0.00000000000E+00 0.  1.
          2   -1    0    0  504    0 -0.00000000000E+00 -0.00000000000E+00 -0.95129973620E+03  0.95129973620E+03  0.00000000000E+00 0. -1.
         21    1    1    2  503  502 -0.18368500022E+02 -0.51070065178E+02  0.35686630112E+01  0.54390152657E+02  0.00000000000E+00 0. -1.
         21    1    1    2  504  505  0.17847240963E+02 -0.41791070778E+02 -0.17121530686E+03  0.17714315937E+03  0.00000000000E+00 0. -1.
         21    1    1    2  505  503  0.16149774306E+01 -0.47625891455E+02  0.40208917015E+02  0.62350546882E+02  0.00000000000E+00 0.  1.
          2    1    1    2  501    0 -0.10937183715E+01  0.14048702741E+03 -0.73397651987E+03  0.74730136679E+03  0.00000000000E+00 0. -1.
<scales pt_clust_3="38.52493" pt_clust_4="45.44246" pt_clust_5="38.52493" pt_clust_6="101.90832"></scales>
<clustering>
<clus scale="   38.525">  3  5 -1 -1</clus>
<clus scale="   45.442">  2  4  1 -1</clus>
<clus scale="  101.908">  2  6  1 -1</clus>
<clus scale="  109.889">  1  3  2 -1</clus>
</clustering>
</event>
<event>
 6    0  0.1230761E+002  0.7530762E+02  0.7546771E-02  0.1342921E+00
         21   -1    0    0  504  502  0.00000000000E+00  0.00000000000E+00  0.43281339262E+03  0.43281339262E+03  0.00000000000E+00 0.  1.
          2   -1    0    0  503    0 -0.00000000000E+00 -0.00000000000E+00 -0.90314568927E+03  0.90314568927E+03  0.00000000000E+00 0. -1.
         21    1    1    2  503  505 -0.28260990790E+02  0.23321171206E+02 -0.39401580358E+03  0.39571582493E+03  0.00000000000E+00 0. -1.
         21    1    1    2  504  501 -0.36425089199E+02 -0.23137037283E+02  0.57525222535E+02  0.71911479230E+02  0.00000000000E+00 0.  1.
         21    1    1    2  505  502  0.91695391333E+02  0.73784445466E+02  0.35457999234E+03  0.37360294452E+03  0.00000000000E+00 0.  1.
          2    1    1    2  501    0 -0.27009311345E+02 -0.73968579390E+02 -0.48842170793E+03  0.49472883322E+03  0.00000000000E+00 0. -1.
<scales pt_clust_3="36.64097" pt_clust_4="43.31561" pt_clust_5="75.30762" pt_clust_6="14000.00000"></scales>
<clustering>
<clus scale="   36.641">  2  3  1 -1</clus>
<clus scale="   43.316">  1  4  2 -1</clus>
<clus scale="   75.308">  1  5  2 -1</clus>
<clus scale="   43.316">  1  3  2 -1</clus>
</clustering>
</event>
<event>
 6    0  0.1230761E+002  0.1048766E+03  0.7546771E-02  0.1270363E+00
          2   -1    0    0  505    0 -0.00000000000E+00  0.00000000000E+00  0.64370462503E+03  0.64370462503E+03  0.00000000000E+00 0. -1.
         21   -1    0    0  501  502  0.00000000000E+00 -0.00000000000E+00 -0.12593766550E+04  0.12593766550E+04  0.00000000000E+00 0. -1.
         21    1    1    2  503  504 -0.10089744464E+03  0.77870959921E+02 -0.60238598090E+03  0.61572156915E+03  0.00000000000E+00 0. -1.
         21    1    1    2  504  502  0.17676967924E+01 -0.44485866035E+02 -0.63344031470E+03  0.63500295221E+03  0.00000000000E+00 0. -1.
         21    1    1    2  505  503  0.23274845975E+02  0.24576545102E+02  0.10741532210E+02  0.35512047794E+02  0.00000000000E+00 0.  1.
          2    1    1    2  501    0  0.75854901872E+02 -0.57961638988E+02  0.60941273340E+03  0.61684471090E+03  0.00000000000E+00 0. -1.
<scales pt_clust_3="104.87660" pt_clust_4="44.49123" pt_clust_5="33.84856" pt_clust_6="14000.00000"></scales>
<clustering>
<clus scale="   33.849">  1  5  2 -1</clus>
<clus scale="   44.491">  2  4  1 -1</clus>
<clus scale="  104.877">  2  3  1 -1</clus>
<clus scale="   44.491">  2  3  1 -1</clus>
</clustering>
</event>
<event>
 6    0  0.1230761E+002  0.1969754E+03  0.7546771E-02  0.1152316E+00
         -1   -1    0    0    0  501 -0.00000000000E+00  0.00000000000E+00  0.35740797148E+03  0.35740797148E+03  0.00000000000E+00 0.  1.
         21   -1    0    0  504  502  0.00000000000E+00 -0.00000000000E+00 -0.60237939864E+03  0.60237939864E+03  0.00000000000E+00 0.  1.
         21    1    1    2  503  505 -0.20835873261E+02  0.32322664132E+02  0.25248409644E+02  0.46004026135E+02  0.00000000000E+00 0. -1.
         21    1    1    2  504  501  0.13450051904E+03 -0.13736337183E+03 -0.48651311033E+03  0.52311957722E+03  0.00000000000E+00 0.  1.
         21    1    1    2  505  502 -0.27453596775E+02 -0.16450936357E+02 -0.64947135306E+02  0.72404859418E+02  0.00000000000E+00 0.  1.
         -1    1    1    2    0  503 -0.86211049006E+02  0.12149164405E+03  0.28124040884E+03  0.31825890735E+03  0.00000000000E+00 0.  1.
<scales pt_clust_3="30.62927" pt_clust_4="187.52360" pt_clust_5="32.00521" pt_clust_6="30.62927"></scales>
<clustering>
<clus scale="   30.629">  3  6 -1 -1</clus>
<clus scale="   32.005">  2  5  1 -1</clus>
<clus scale="  187.524">  2  4  1 -1</clus>
<clus scale="   32.005">  2  3  1 -1</clus>
</clustering>
</event>
<event>
 6    0  0.1273624E+002  0.7570119E+02  0.7546771E-02  0.1341713E+00
         21   -1    0    0  505  502  0.00000000000E+00  0.00000000000E+00  0.11516342061E+04  0.11516342061E+04  0.00000000000E+00 0.  1.
          3   -1    0    0  503    0 -0.00000000000E+00 -0.00000000000E+00 -0.76324008081E+03  0.76324008081E+03  0.00000000000E+00 0. -1.
         21    1    1    2  503  504  0.13794836579E+01  0.36436801891E+02 -0.11018589878E+02  0.38091374747E+02  0.00000000000E+00 0. -1.
         21    1    1    2  504  502 -0.75012864811E+02 -0.19466352793E+02  0.84681713955E+03  0.85035588821E+03  0.00000000000E+00 0.  1.
         21    1    1    2  505  501  0.90654091721E+01  0.57175212135E+02  0.28329168985E+03  0.28914592867E+03  0.00000000000E+00 0. -1.
          3    1    1    2  501    0  0.64567971981E+02 -0.74145661233E+02 -0.73069611424E+03  0.73728109527E+03  0.00000000000E+00 0. -1.
<scales pt_clust_3="36.46291" pt_clust_4="14000.00000" pt_clust_5="58.03290" pt_clust_6="75.70119"></scales>
<clustering>
<clus scale="   36.463">  2  3  1 -1</clus>
<clus scale="   58.033">  1  5  2 -1</clus>
<clus scale="   75.701">  2  6  1 -1</clus>
<clus scale="   58.033">  1  3  2 -1</clus>
</clustering>
</event>
<event>
 6    0  0.1230761E+002  0.2887517E+03  0.7546771E-02  0.1091003E+00
          2   -1    0    0  504    0 -0.00000000000E+00  0.00000000000E+00  0.99280673693E+03  0.99280673693E+03  0.00000000000E+00 0.  1.
         21   -1    0    0  505  502  0.00000000000E+00 -0.00000000000E+00 -0.26196507247E+03  0.26196507247E+03  0.00000000000E+00 0. -1.
         21    1    1    2  503  501 -0.87958044499E+02  0.24192559825E+02  0.14247691441E+03  0.16917910238E+03  0.00000000000E+00 0. -1.
         21    1    1    2  504  502  0.60623054093E+02 -0.49454578209E+02  0.21199815157E+02  0.81057647116E+02  0.00000000000E+00 0. -1.
         21    1    1    2  505  503  0.19151878019E+03 -0.51790663592E+02 -0.16013632069E+03  0.25496148180E+03  0.00000000000E+00 0. -1.
          2    1    1    2  501    0 -0.16418378978E+03  0.77052681975E+02  0.72730125558E+03  0.74957357811E+03  0.00000000000E+00 0.  1.
<scales pt_clust_3="82.14981" pt_clust_4="78.23624" pt_clust_5="263.83939" pt_clust_6="82.14981"></scales>
<clustering>
<clus scale="   78.236">  2  4  1 -1</clus>
<clus scale="   82.150">  3  6 -1 -1</clus>
<clus scale="  263.839">  2  5  1 -1</clus>
<clus scale="   78.236">  2  3  1 -1</clus>
</clustering>
</event>
<event>
 6    0  0.1230761E+002  0.1224884E+03  0.7546771E-02  0.1239047E+00
          2   -1    0    0  504    0 -0.00000000000E+00  0.00000000000E+00  0.14489154878E+04  0.14489154878E+04  0.00000000000E+00 0.  1.
         21   -1    0    0  503  502  0.00000000000E+00 -0.00000000000E+00 -0.42780188405E+02  0.42780188405E+02  0.00000000000E+00 0.  1.
         21    1    1    2  503  501 -0.20108841379E+02  0.22949695767E+02  0.11253879596E+02  0.32522359130E+02  0.00000000000E+00 0.  1.
         21    1    1    2  504  505 -0.17673621033E+02  0.85457453618E+02  0.18118992631E+03  0.20110972790E+03  0.00000000000E+00 0.  1.
         21    1    1    2  505  502 -0.72180177546E+02 -0.13663032703E+02  0.58826353761E+02  0.94112679220E+02  0.00000000000E+00 0.  1.
          2    1    1    2  501    0  0.10996263996E+03 -0.94744116681E+02  0.11548651398E+04  0.11639509100E+04  0.00000000000E+00 0.  1.
<scales pt_clust_3="30.51318" pt_clust_4="122.48843" pt_clust_5="83.22367" pt_clust_6="14000.00000"></scales>
<clustering>
<clus scale="   30.513">  2  3  1 -1</clus>
<clus scale="   83.224">  2  5  1 -1</clus>
<clus scale="  122.488">  2  4  1 -1</clus>
<clus scale="   30.513">  2  3  1 -1</clus>
</clustering>
</event>
<event>
 6    0  0.1230761E+002  0.1303548E+03  0.7546771E-02  0.1226930E+00
         -2   -1    0    0    0  501 -0.00000000000E+00  0.00000000000E+00  0.69155592322E+03  0.69155592322E+03  0.00000000000E+00 0. -1.
         21   -1    0    0  504  502  0.00000000000E+00 -0.00000000000E+00 -0.14855438818E+03  0.14855438818E+03  0.00000000000E+00 0. -1.
         21    1    1    2  503  505 -0.67523183391E+02 -0.17328726715E+02 -0.65471268702E+02  0.95635516887E+02  0.00000000000E+00 0. -1.
         21    1    1    2  504  503 -0.42196982893E+02 -0.42037429835E+02 -0.35209317109E+02  0.69191234153E+02  0.00000000000E+00 0. -1.
         21    1    1    2  505  501 -0.16671087586E+02  0.38116036558E+02  0.38515010102E+02  0.56693592295E+02  0.00000000000E+00 0. -1.
         -2    1    1    2    0  502  0.12639125387E+03  0.21250119993E+02  0.60516711075E+03  0.61858996806E+03  0.00000000000E+00 0. -1.
<scales pt_clust_3="35.42106" pt_clust_4="35.42106" pt_clust_5="41.60237" pt_clust_6="124.59515"></scales>
<clustering>
<clus scale="   35.421">  3  4 -1 -1</clus>
<clus scale="   41.602">  1  5  2 -1</clus>
<clus scale="  124.595">  1  6  2 -1</clus>
<clus scale="  130.355">  2  3  1 -1</clus>
</clustering>
</event>
<event>
 6    0  0.1230761E+002  0.3140296E+03  0.7546771E-02  0.1078430E+00
         21   -1    0    0  505  502  0.00000000000E+00  0.00000000000E+00  0.20715915222E+03  0.20715915222E+03  0.00000000000E+00 0.  1.
          2   -1    0    0  503    0 -0.00000000000E+00 -0.00000000000E+00 -0.82131425299E+03  0.82131425299E+03  0.00000000000E+00 0.  1.
         21    1    1    2  503  502  0.47987932921E+01 -0.30298501266E+02 -0.17606612908E+02  0.35369766950E+02  0.00000000000E+00 0. -1.
         21    1    1    2  504  501 -0.17218611536E+03  0.74142101035E+02 -0.47275732166E+02  0.19333935016E+03  0.00000000000E+00 0.  1.
         21    1    1    2  505  504 -0.81517921957E+02  0.97619340007E+02  0.49178343570E+02  0.13635694562E+03  0.00000000000E+00 0.  1.
          2    1    1    2  501    0  0.24890524402E+03 -0.14146293978E+03 -0.59845109927E+03  0.66340734247E+03  0.00000000000E+00 0.  1.
<scales pt_clust_3="30.67617" pt_clust_4="96.92062" pt_clust_5="96.92062" pt_clust_6="289.45859"></scales>
<clustering>
<clus scale="   30.676">  1  3  2 -1</clus>
<clus scale="   96.921">  4  5 -1 -1</clus>
<clus scale="  289.459">  2  6  1 -1</clus>
<clus scale="   30.676">  1  3  2 -1</clus>
</clustering>
</event>
<event>
 6    0  0.1230761E+002  0.3910304E+03  0.7546771E-02  0.1046931E+00
          1   -1    0    0  505    0 -0.00000000000E+00  0.00000000000E+00  0.62913553360E+03  0.62913553360E+03  0.00000000000E+00 0.  1.
         21   -1    0    0  501  502  0.00000000000E+00 -0.00000000000E+00 -0.32870505157E+03  0.32870505157E+03  0.00000000000E+00 0. -1.
         21    1    1    2  503  502 -0.61665623666E+02  0.87092791130E+02  0.84244217627E+02  0.13595915421E+03  0.00000000000E+00 0.  1.
         21    1    1    2  504  503 -0.21466870902E+03  0.15175606950E+03  0.20532237229E+03  0.33357133543E+03  0.00000000000E+00 0. -1.
         21    1    1    2  505  504 -0.58977096299E+02 -0.24081971629E+02  0.59484313890E+02  0.87158607403E+02  0.00000000000E+00 0.  1.
          1    1    1    2  501    0  0.33531142898E+03 -0.21476688900E+03 -0.48620421776E+02  0.40115148813E+03  0.00000000000E+00 0.  1.
<scales pt_clust_3="36.04445" pt_clust_4="36.04445" pt_clust_5="63.70431" pt_clust_6="386.91623"></scales>
<clustering>
<clus scale="   36.044">  3  4 -1 -1</clus>
<clus scale="   63.704">  1  5  2 -1</clus>
<clus scale="  386.916">  2  6  1 -1</clus>
<clus scale="  386.916">  2  3  1 -1</clus>
</clustering>
</event>
<event>
 6    0  0.1230761E+002  0.9478561E+02  0.7546771E-02  0.1291660E+00
         -2   -1    0    0    0  501 -0.00000000000E+00  0.00000000000E+00  0.54455301114E+03  0.54455301114E+03  0.00000000000E+00 0.  1.
         21   -1    0    0  505  502  0.00000000000E+00 -0.00000000000E+00 -0.40230377313E+03  0.40230377313E+03  0.00000000000E+00 0.  1.
         21    1    1    2  503  501 -0.16908499394E+02 -0.26786641885E+02  0.32266778949E+03  0.32421894440E+03  0.00000000000E+00 0.  1.
         21    1    1    2  504  503  0.71595433784E+02  0.45469588585E+02 -0.34121099796E+03  0.35159399135E+03  0.00000000000E+00 0.  1.
         21    1    1    2  505  504  0.25671929686E+02 -0.49666049959E+02 -0.28738653333E+02  0.62862347138E+02  0.00000000000E+00 0.  1.
         -2    1    1    2    0  502 -0.80358864075E+02  0.30983103259E+02  0.18953109981E+03  0.20818150139E+03  0.00000000000E+00 0.  1.
<scales pt_clust_3="31.67683" pt_clust_4="94.78561" pt_clust_5="57.18450" pt_clust_6="14000.00000"></scales>
<clustering>
<clus scale="   31.677">  1  3  2 -1</clus>
<clus scale="   57.184">  2  5  1 -1</clus>
<clus scale="   94.786">  2  4  1 -1</clus>
<clus scale="   57.184">  2  3  1 -1</clus>
</clustering>
</event>
<event>
 6    0  0.1230761E+002  0.1481922E+03  0.7546771E-02  0.1202712E+00
         21   -1    0    0  503  502  0.00000000000E+00  0.00000000000E+00  0.90231768159E+03  0.90231768159E+03  0.00000000000E+00 0.  1.
         -2   -1    0    0    0  501 -0.00000000000E+00 -0.00000000000E+00 -0.58761726426E+03  0.58761726426E+03  0.00000000000E+00 0. -1.
         21    1    1    2  503  504  0.65893228097E+02  0.51259995163E+02  0.64298405654E+03  0.64838106202E+03  0.00000000000E+00 0.  1.
         21    1    1    2  504  505  0.44785400411E+02  0.36896827707E+02  0.23201334000E+03  0.23915956582E+03  0.00000000000E+00 0. -1.
         21    1    1    2  505  501 -0.53379292299E+01 -0.63028098143E+02 -0.49712032642E+02  0.80450735443E+02  0.00000000000E+00 0.  1.
         -2    1    1    2    0  502 -0.10534069928E+03 -0.25128724727E+02 -0.51058494657E+03  0.52194358258E+03  0.00000000000E+00 0. -1.
<scales pt_clust_3="38.08263" pt_clust_4="38.08263" pt_clust_5="63.25373" pt_clust_6="140.97660"></scales>
<clustering>
<clus scale="   38.083">  3  4 -1 -1</clus>
<clus scale="   63.254">  2  5  1 -1</clus>
<clus scale="  140.977">  2  6  1 -1</clus>
<clus scale="  148.192">  1  3  2 -1</clus>
</clustering>
</event>
<event>
 6    0  0.1230761E+002  0.1272442E+03  0.7546771E-02  0.1231603E+00
         21   -1    0    0  501  502  0.00000000000E+00  0.00000000000E+00  0.11570756103E+03  0.11570756103E+03  0.00000000000E+00 0. -1.
          1   -1    0    0  505    0 -0.00000000000E+00 -0.00000000000E+00 -0.13586489642E+04  0.13586489642E+04  0.00000000000E+00 0.  1.
         21    1    1    2  503  502 -0.41757154030E+01 -0.60169708076E+02 -0.10186024920E+02  0.61168500658E+02  0.00000000000E+00 0. -1.
         21    1    1    2  504  503  0.13645108458E+02 -0.68889344342E+02  0.66116923123E+02  0.96454021543E+02  0.00000000000E+00 0. -1.
         21    1    1    2  505  504 -0.10721378319E+02 -0.41757563450E+02 -0.34546100533E+03  0.34814070182E+03  0.00000000000E+00 0. -1.
          1    1    1    2  501    0  0.12519852639E+01  0.17081661587E+03 -0.95341129603E+03  0.96859330120E+03  0.00000000000E+00 0.  1.
<scales pt_clust_3="61.81003" pt_clust_4="14000.00000" pt_clust_5="43.11197" pt_clust_6="127.24423"></scales>
<clustering>
<clus scale="   43.112">  2  5  1 -1</clus>
<clus scale="   61.810">  1  3  2 -1</clus>
<clus scale="  127.244">  2  6  1 -1</clus>
<clus scale="   61.810">  1  3  2 -1</clus>
</clustering>
</event>
<event>
 6    0  0.1230761E+002  0.1841127E+03  0.7546771E-02  0.1163881E+00
         21   -1    0    0  505  502  0.00000000000E+00  0.00000000000E+00  0.14764270977E+04  0.14764270977E+04  0.00000000000E+00 0.  1.
          2   -1    0    0  504    0 -0.00000000000E+00 -0.00000000000E+00 -0.92871614241E+03  0.92871614241E+03  0.00000000000E+00 0.  1.
         21    1    1    2  503  501  0.52411991450E+02 -0.14676401287E+03  0.12901311863E+04  0.12995095883E+04  0.00000000000E+00 0.  1.
         21    1    1    2  504  502  0.15851236608E+02  0.40924173590E+02 -0.14688125666E+03  0.15329759700E+03  0.00000000000E+00 0.  1.
         21    1    1    2  505  503  0.55505345831E+02 -0.32443424056E+01  0.16499631457E+03  0.17411247226E+03  0.00000000000E+00 0.  1.
          2    1    1    2  501    0 -0.12376857389E+03  0.10908418168E+03 -0.76053528896E+03  0.77822358248E+03  0.00000000000E+00 0.  1.
<scales pt_clust_3="184.11265" pt_clust_4="43.88678" pt_clust_5="55.67928" pt_clust_6="14000.00000"></scales>
<clustering>
<clus scale="   43.887">  2  4  1 -1</clus>
<clus scale="   55.679">  1  5  2 -1</clus>
<clus scale="  184.113">  1  3  2 -1</clus>
<clus scale="   55.679">  1  3  2 -1</clus>
</clustering>
</event>
<event>
 6    0  0.1230761E+002  0.2063734E+03  0.7546771E-02  0.1144470E+00
          1   -1    0    0  504    0 -0.00000000000E+00  0.00000000000E+00  0.11249985426E+04  0.11249985426E+04  0.00000000000E+00 0. -1.
         21   -1    0    0  505  502  0.00000000000E+00 -0.00000000000E+00 -0.55825606834E+03  0.55825606834E+03  0.00000000000E+00 0. -1.
         21    1    1    2  503  501 -0.10431251473E+03  0.11016815502E+03 -0.37415096044E+03  0.40374133342E+03  0.00000000000E+00 0. -1.
         21    1    1    2  504  502  0.78573329765E+01  0.44337411774E+02  0.75829608091E+03  0.75963181218E+03  0.00000000000E+00 0. -1.
         21    1    1    2  505  503 -0.52345415843E+02  0.11101338144E+02 -0.12742226337E+03  0.13820172021E+03  0.00000000000E+00 0. -1.
          1    1    1    2  501    0  0.14880059760E+03 -0.16560690494E+03  0.31001961718E+03  0.38167974513E+03  0.00000000000E+00 0. -1.
<scales pt_clust_3="31.86306" pt_clust_4="45.02826" pt_clust_5="31.86306" pt_clust_6="199.27722"></scales>
<clustering>
<clus scale="   31.863">  3  5 -1 -1</clus>
<clus scale="   45.028">  1  4  2 -1</clus>
<clus scale="  199.277">  1  6  2 -1</clus>
<clus scale="  206.373">  2  3  1 -1</clus>
</clustering>
</event>
<event>
 6    0  0.1230761E+002  0.1395414E+03  0.7546771E-02  0.1213947E+00
         -2   -1    0    0    0  501 -0.00000000000E+00  0.00000000000E+00  0.76392619356E+02  0.76392619356E+02  0.00000000000E+00 0. -1.
         21   -1    0    0  505  502  0.00000000000E+00 -0.00000000000E+00 -0.15484636198E+04  0.15484636198E+04  0.00000000000E+00 0. -1.
         21    1    1    2  503  501 -0.11787425789E+03 -0.48709584777E+02 -0.63419762902E+03  0.64689535242E+03  0.00000000000E+00 0. -1.
         21    1    1    2  504  502  0.49122756874E+02 -0.93566645655E+01 -0.11761212598E+03  0.12780142641E+03  0.00000000000E+00 0. -1.
         21    1    1    2  505  503 -0.34681293140E+02 -0.39131723166E+02 -0.70552577904E+03  0.70746074714E+03  0.00000000000E+00 0. -1.
         -2    1    1    2    0  504  0.10343279416E+03  0.97197972509E+02 -0.14735466366E+02  0.14269871316E+03  0.00000000000E+00 0. -1.
<scales pt_clust_3="139.54142" pt_clust_4="50.00592" pt_clust_5="44.97293" pt_clust_6="14000.00000"></scales>
<clustering>
<clus scale="   50.006">  2  4  1 -1</clus>
<clus scale="   44.973">  2  5  1 -1</clus>
<clus scale="  139.541">  2  3  1 -1</clus>
<clus scale="   50.006">  2  3  1 -1</clus>
</clustering>
</event>
<event>
 6    0  0.1230761E+002  0.8916261E+02  0.7546771E-02  0.1304892E+00
         21   -1    0    0  505  502  0.00000000000E+00  0.00000000000E+00  0.34893600015E+03  0.34893600015E+03  0.00000000000E+00 0. -1.
         -2   -1    0    0    0  501 -0.00000000000E+00 -0.00000000000E+00 -0.66080813221E+03  0.66080813221E+03  0.00000000000E+00 0. -1.
         21    1    1    2  503  501  0.94867339498E+01 -0.80138815294E+02 -0.10552840127E+03  0.13284754914E+03  0.00000000000E+00 0. -1.
         21    1    1    2  504  503  0.14409592220E+02  0.78687564133E+02  0.67780296332E+01  0.80282692922E+02  0.00000000000E+00 0. -1.
         21    1    1    2  505  504 -0.67885769364E+02  0.22372737010E+02  0.28616496948E+03  0.29495661850E+03  0.00000000000E+00 0. -1.
         -2    1    1    2    0  502  0.43989443194E+02 -0.20921485849E+02 -0.49928672990E+03  0.50165727179E+03  0.00000000000E+00 0. -1.
<scales pt_clust_3="89.16261" pt_clust_4="14000.00000" pt_clust_5="70.15262" pt_clust_6="48.71119"></scales>
<clustering>
<clus scale="   48.711">  2  6  1 -1</clus>
<clus scale="   70.153">  1  5  2 -1</clus>
<clus scale="   89.163">  2  3  1 -1</clus>
<clus scale="   70.153">  1  3  2 -1</clus>
</clustering>
</event>
<event>
 6    0  0.1230761E+002  0.1365725E+03  0.7546771E-02  0.1218017E+00
         21   -1    0    0  505  502  0.00000000000E+00  0.00000000000E+00  0.14239648743E+04  0.14239648743E+04  0.00000000000E+00 0.  1.
          1   -1    0    0  504    0 -0.00000000000E+00 -0.00000000000E+00 -0.49229596255E+02  0.49229596255E+02  0.00000000000E+00 0. -1.
         21    1    1    2  503  502 -0.10705922632E+03 -0.57740294407E+02  0.74708414346E+03  0.75692161876E+03  0.00000000000E+00 0.  1.
         21    1    1    2  504  503 -0.27267188840E+02  0.69126891319E+02  0.81168981476E+02  0.11004739999E+03  0.00000000000E+00 0. -1.
         21    1    1    2  505  501 -0.31488268254E+02  0.32137675421E+02  0.31488369935E+03  0.31808188464E+03  0.00000000000E+00 0.  1.
          1    1    1    2  501    0  0.16581468342E+03 -0.43524272334E+02  0.23159845380E+03  0.28814356720E+03  0.00000000000E+00 0. -1.
<scales pt_clust_3="14000.00000" pt_clust_4="77.90335" pt_clust_5="44.99268" pt_clust_6="136.57252"></scales>
<clustering>
<clus scale="   44.993">  1  5  2 -1</clus>
<clus scale="   77.903">  2  4  1 -1</clus>
<clus scale="  136.573">  2  6  1 -1</clus>
<clus scale="   44.993">  1  3  2 -1</clus>
</clustering>
</event>
<event>
 6    0  0.1230761E+002  0.9178131E+02  0.7546771E-02  0.1298594E+00
         21   -1    0    0  503  502  0.00000000000E+00  0.00000000000E+00  0.72442136531E+03  0.72442136531E+03  0.00000000000E+00 0. -1.
          2   -1    0    0  505    0 -0.00000000000E+00 -0.00000000000E+00 -0.98897606138E+03  0.98897606138E+03  0.00000000000E+00 0. -1.
         21    1    1    2  503  501 -0.30404482921E+02  0.35879048802E+01  0.17914219392E+02  0.35471465991E+02  0.00000000000E+00 0. -1.
         21    1    1    2  504  502  0.59170421685E+02 -0.44769835292E+02  0.68247890947E+03  0.68650050169E+03  0.00000000000E+00 0. -1.
         21    1    1    2  505  504  0.22200549163E+02 -0.78233398512E+02 -0.56777152459E+03  0.57356589261E+03  0.00000000000E+00 0. -1.
          2    1    1    2  501    0 -0.50966487927E+02  0.11941532892E+03 -0.39717630034E+03  0.41785956639E+03  0.00000000000E+00 0. -1.
<scales pt_clust_3="30.61545" pt_clust_4="50.62179" pt_clust_5="91.78131" pt_clust_6="14000.00000"></scales>
<clustering>
<clus scale="   30.615">  1  3  2 -1</clus>
<clus scale="   50.622">  1  4  2 -1</clus>
<clus scale="   91.781">  2  5  1 -1</clus>
<clus scale="   30.615">  1  3  2 -1</clus>
</clustering>
</event>
<event>
 6    0  0.1230761E+002  0.9044888E+02  0.7546771E-02  0.1301768E+00
         21   -1    0    0  501  502  0.00000000000E+00  0.00000000000E+00  0.11248847985E+03  0.11248847985E+03  0.00000000000E+00 0.  1.
          1   -1    0    0  504    0 -0.00000000000E+00 -0.00000000000E+00 -0.36622421097E+03  0.36622421097E+03  0.00000000000E+00 0.  1.
         21    1    1    2  503  502 -0.29177081815E+02 -0.26199390448E+02  0.57824361270E+02  0.69866779798E+02  0.00000000000E+00 0.  1.
         21    1    1    2  504  505 -0.32378477652E+02  0.31408628816E+02 -0.11057965990E+03  0.11942666772E+03  0.00000000000E+00 0.  1.
         21    1    1    2  505  503 -0.31415166293E+02 -0.60127854278E+02 -0.80353568505E+01  0.68314262735E+02  0.00000000000E+00 0.  1.
          1    1    1    2  501    0  0.92970725760E+02  0.54918615909E+02 -0.19294507563E+03  0.22110498057E+03  0.00000000000E+00 0.  1.
<scales pt_clust_3="39.21365" pt_clust_4="45.49441" pt_clust_5="90.44888" pt_clust_6="14000.00000"></scales>
<clustering>
<clus scale="   39.214">  1  3  2 -1</clus>
<clus scale="   45.494">  2  4  1 -1</clus>
<clus scale="   90.449">  1  5  2 -1</clus>
<clus scale="   39.214">  1  3  2 -1</clus>
</clustering>
</event>
<event>
 6    0  0.1230761E+002  0.1124168E+03  0.7546771E-02  0.1256159E+00
         21   -1    0    0  503  502  0.00000000000E+00  0.00000000000E+00  0.23528637712E+03  0.23528637712E+03  0.00000000000E+00 0.  1.
          2   -1    0    0  505    0 -0.00000000000E+00 -0.00000000000E+00 -0.13650979523E+04  0.13650979523E+04  0.00000000000E+00 0. -1.
         21    1    1    2  503  501 -0.43018931788E+02 -0.15277065266E+02 -0.27532452385E+02  0.53310910231E+02  0.00000000000E+00 0.  1.
         21    1    1    2  504  502  0.95040518865E+02  0.68808233454E+02  0.20240846290E+03  0.23395824215E+03  0.00000000000E+00 0.  1.
         21    1    1    2  505  504 -0.52715607350E+02 -0.15523617986E+02 -0.19020557727E+03  0.19798504892E+03  0.00000000000E+00 0.  1.
          2    1    1    2  501    0  0.69402027361E+00 -0.38007550202E+02 -0.11144820084E+04  0.11151301281E+04  0.00000000000E+00 0. -1.
<scales pt_clust_3="47.95424" pt_clust_4="112.41685" pt_clust_5="14000.00000" pt_clust_6="38.01389"></scales>
<clustering>
<clus scale="   38.014">  2  6  1 -1</clus>
<clus scale="   47.954">  2  3  1 -1</clus>
<clus scale="  112.417">  1  4  2 -1</clus>
<clus scale="  112.417">  1  3  2 -1</clus>
</clustering>
</event>
<event>
 6    0  0.1230761E+002  0.9644531E+02  0.7546771E-02  0.1287954E+00
         21   -1    0    0  504  502  0.00000000000E+00  0.00000000000E+00  0.12320000378E+04  0.12320000378E+04  0.00000000000E+00 0. -1.
          4   -1    0    0  503    0 -0.00000000000E+00 -0.00000000000E+00 -0.62549371963E+03  0.62549371963E+03  0.00000000000E+00 0.  1.
         21    1    1    2  503  505 -0.26795183182E+02 -0.15919076965E+02 -0.39925398282E+02  0.50650136043E+02  0.00000000000E+00 0. -1.
         21    1    1    2  504  501 -0.32403841762E+02 -0.90438917466E+02  0.10869094933E+04  0.10911468523E+04  0.00000000000E+00 0. -1.
         21    1    1    2  505  502  0.81241253890E+02  0.76417652243E+02  0.11428480579E+03  0.15968974839E+03  0.00000000000E+00 0. -1.
          4    1    1    2  501    0 -0.22042228946E+02  0.29940342188E+02 -0.55476258263E+03  0.55600702067E+03  0.00000000000E+00 0.  1.
<scales pt_clust_3="31.16727" pt_clust_4="96.44531" pt_clust_5="14000.00000" pt_clust_6="49.90591"></scales>
<clustering>
<clus scale="   31.167">  2  3  1 -1</clus>
<clus scale="   49.906">  2  6  1 -1</clus>
<clus scale="   96.445">  1  4  2 -1</clus>
<clus scale="   96.445">  1  3  2 -1</clus>
</clustering>
</event>
<event>
 6    0  0.1230761E+002  0.7836251E+02  0.7546771E-02  0.1333764E+00
          2   -1    0    0  503    0 -0.00000000000E+00  0.00000000000E+00  0.29335478346E+04  0.29335478346E+04  0.00000000000E+00 0. -1.
         21   -1    0    0  501  502  0.00000000000E+00 -0.00000000000E+00 -0.45172707807E+03  0.45172707807E+03  0.00000000000E+00 0. -1.
         21    1    1    2  503  505  0.42092947784E+02  0.33617246113E+02  0.75383110384E+03  0.75575344432E+03  0.00000000000E+00 0.  1.
         21    1    1    2  504  502 -0.79280726015E+02  0.40603520565E+01 -0.23666168319E+03  0.24962105734E+03  0.00000000000E+00 0. -1.
         21    1    1    2  505  504  0.71752694523E+02  0.50476675550E+02 -0.19727460981E+03  0.21590186572E+03  0.00000000000E+00 0. -1.
          2    1    1    2  501    0 -0.34564916293E+02 -0.88154273720E+02  0.21619259456E+04  0.21639985452E+04  0.00000000000E+00 0. -1.
<scales pt_clust_3="53.86962" pt_clust_4="78.36251" pt_clust_5="14000.00000" pt_clust_6="55.25483"></scales>
<clustering>
<clus scale="   53.870">  1  3  2 -1</clus>
<clus scale="   55.255">  1  6  2 -1</clus>
<clus scale="   78.363">  2  4  1 -1</clus>
<clus scale="   78.363">  2  3  1 -1</clus>
</clustering>
</event>
<event>
 6    0  0.1230761E+002  0.1814703E+03  0.7546771E-02  0.1166388E+00
         21   -1    0    0  505  502  0.00000000000E+00  0.00000000000E+00  0.85051367517E+02  0.85051367517E+02  0.00000000000E+00 0. -1.
          2   -1    0    0  504    0 -0.00000000000E+00 -0.00000000000E+00 -0.97644885287E+03  0.97644885287E+03  0.00000000000E+00 0. -1.
         21    1    1    2  503  502  0.25992798146E+02 -0.26033018560E+02  0.16390399177E+01  0.36824313472E+02  0.00000000000E+00 0. -1.
         21    1    1    2  504  503 -0.12195010492E+03 -0.15289297723E+03 -0.51727380387E+03  0.55301019769E+03  0.00000000000E+00 0. -1.
         21    1    1    2  505  501  0.20019590654E+02  0.27140421391E+02  0.21274127460E+02  0.39874490372E+02  0.00000000000E+00 0.  1.
          2    1    1    2  501    0  0.75937716124E+02  0.15178557440E+03 -0.39703684886E+03  0.43179121886E+03  0.00000000000E+00 0. -1.
<scales pt_clust_3="36.92747" pt_clust_4="181.47033" pt_clust_5="33.72516" pt_clust_6="14000.00000"></scales>
<clustering>
<clus scale="   33.725">  1  5  2 -1</clus>
<clus scale="   36.927">  1  3  2 -1</clus>
<clus scale="  181.470">  1  4  2 -1</clus>
<clus scale="   33.725">  1  3  2 -1</clus>
</clustering>
</event>
<event>
 6    0  0.1230761E+002  0.7858019E+02  0.7546771E-02  0.1333130E+00
         -1   -1    0    0    0  501 -0.00000000000E+00  0.00000000000E+00  0.26343564955E+02  0.26343564955E+02  0.00000000000E+00 0.  1.
         21   -1    0    0  505  502  0.00000000000E+00 -0.00000000000E+00 -0.19650934739E+04  0.19650934739E+04  0.00000000000E+00 0.  1.
         21    1    1    2  503  502  0.31854046771E+02  0.11313038372E+02 -0.30671334620E+03  0.30857048120E+03  0.00000000000E+00 0.  1.
         21    1    1    2  504  501 -0.50973621556E+02 -0.18499209638E+02 -0.16251468143E+03  0.17132294806E+03  0.00000000000E+00 0.  1.
         21    1    1    2  505  504 -0.99394081247E+02 -0.83352187504E+01 -0.13016583434E+04  0.13054742825E+04  0.00000000000E+00 0.  1.
         -1    1    1    2    0  503  0.11851365603E+03  0.15521390016E+02 -0.16786353788E+03  0.20606932708E+03  0.00000000000E+00 0.  1.
<scales pt_clust_3="33.80333" pt_clust_4="50.82248" pt_clust_5="78.58019" pt_clust_6="14000.00000"></scales>
<clustering>
<clus scale="   33.803">  2  3  1 -1</clus>
<clus scale="   50.822">  1  4  2 -1</clus>
<clus scale="   78.580">  2  5  1 -1</clus>
<clus scale="   33.803">  2  3  1 -1</clus>
</clustering>
</event>
<event>
 6    0  0.1230761E+002  0.1035976E+03  0.7546771E-02  0.1272908E+00
         -2   -1    0    0    0  501 -0.00000000000E+00  0.00000000000E+00  0.42658201872E+03  0.42658201872E+03  0.00000000000E+00 0. -1.
         21   -1    0    0  504  502  0.00000000000E+00 -0.00000000000E+00 -0.93562450221E+03  0.93562450221E+03  0.00000000000E+00 0. -1.
         21    1    1    2  503  502  0.70536838724E+01 -0.46033412919E+02 -0.52042311072E+03  0.52250267342E+03  0.00000000000E+00 0. -1.
         21    1    1    2  504  501  0.51460703782E+02 -0.61381672994E+00  0.15724049775E+02  0.53812884573E+02  0.00000000000E+00 0.  1.
         21    1    1    2  505  503 -0.28174362407E+02 -0.46692310527E+02 -0.38701259864E+03  0.39083592218E+03  0.00000000000E+00 0. -1.
         -2    1    1    2    0  505 -0.30340025248E+02  0.93339540175E+02  0.38266917610E+03  0.39505504076E+03  0.00000000000E+00 0. -1.
<scales pt_clust_3="38.14314" pt_clust_4="51.46436" pt_clust_5="38.14314" pt_clust_6="95.01987"></scales>
<clustering>
<clus scale="   38.143">  3  5 -1 -1</clus>
<clus scale="   51.464">  1  4  2 -1</clus>
<clus scale="   95.020">  1  6  2 -1</clus>
<clus scale="  103.598">  2  3  1 -1</clus>
</clustering>
</event>
<event>
 6    0  0.1230761E+002  0.1078975E+03  0.7546771E-02  0.1264514E+00
          2   -1    0    0  504    0 -0.00000000000E+00  0.00000000000E+00  0.17657603900E+04  0.17657603900E+04  0.00000000000E+00 0. -1.
         21   -1    0    0  505  502  0.00000000000E+00 -0.00000000000E+00 -0.91085438735E+02  0.91085438735E+02  0.00000000000E+00 0.  1.
         21    1    1    2  503  502 -0.52961462080E+02  0.68562688179E+02  0.16176738958E+03  0.18350598630E+03  0.00000000000E+00 0. -1.
         21    1    1    2  504  503  0.47594225068E+02  0.40448494965E+01  0.11599781981E+03  0.12544746019E+03  0.00000000000E+00 0.  1.
         21    1    1    2  505  501 -0.59894924377E+02 -0.41038691151E+01 -0.61775388338E+02  0.86141989251E+02  0.00000000000E+00 0.  1.
          2    1    1    2  501    0  0.65262161388E+02 -0.68503668561E+02  0.14586851302E+04  0.14617503930E+04  0.00000000000E+00 0. -1.
<scales pt_clust_3="107.89751" pt_clust_4="47.76579" pt_clust_5="59.68164" pt_clust_6="14000.00000"></scales>
<clustering>
<clus scale="   47.766">  1  4  2 -1</clus>
<clus scale="   59.682">  2  5  1 -1</clus>
<clus scale="  107.898">  2  3  1 -1</clus>
<clus scale="   59.682">  2  3  1 -1</clus>
</clustering>
</event>
<event>
 6    0  0.1230761E+002  0.9269747E+02  0.7546771E-02  0.1296448E+00
         21   -1    0    0  503  502  0.00000000000E+00  0.00000000000E+00  0.85379910707E+02  0.85379910707E+02  0.00000000000E+00 0.  1.
          2   -1    0    0  505    0 -0.00000000000E+00 -0.00000000000E+00 -0.28804065298E+04  0.28804065298E+04  0.00000000000E+00 0. -1.
         21    1    1    2  503  504  0.11458584418E+02 -0.45505003422E+02  0.62278705788E+02  0.77978469386E+02  0.00000000000E+00 0.  1.
         21    1    1    2  504  501  0.23328928561E+02 -0.46390295625E+02 -0.39688745723E+02  0.65356675046E+02  0.00000000000E+00 0.  1.
         21    1    1    2  505  502  0.40628639422E+02 -0.38606454531E+01 -0.51712624939E+03  0.51873417926E+03  0.00000000000E+00 0.  1.
          2    1    1    2  501    0 -0.75416152401E+02  0.95755944500E+02 -0.23004903298E+04  0.23037171169E+04  0.00000000000E+00 0. -1.
<scales pt_clust_3="46.97110" pt_clust_4="14000.00000" pt_clust_5="40.81165" pt_clust_6="92.69747"></scales>
<clustering>
<clus scale="   40.812">  2  5  1 -1</clus>
<clus scale="   46.971">  1  3  2 -1</clus>
<clus scale="   92.697">  2  6  1 -1</clus>
<clus scale="   46.971">  1  3  2 -1</clus>
</clustering>
</event>
<event>
 6    0  0.1230761E+002  0.1652259E+03  0.7546771E-02  0.1182920E+00
         21   -1    0    0  505  502  0.00000000000E+00  0.00000000000E+00  0.19595566172E+03  0.19595566172E+03  0.00000000000E+00 0.  1.
         -2   -1    0    0    0  501 -0.00000000000E+00 -0.00000000000E+00 -0.82258223888E+03  0.82258223888E+03  0.00000000000E+00 0. -1.
         21    1    1    2  503  502 -0.13094335292E+02  0.65134102996E+02 -0.33942875968E+03  0.34586962267E+03  0.00000000000E+00 0.  1.
         21    1    1    2  504  501  0.59461566944E+02 -0.11067659694E+03  0.14456980866E+03  0.19153437454E+03  0.00000000000E+00 0.  1.
         21    1    1    2  505  504  0.27616372240E+02 -0.21553761488E+02  0.28880585164E+01  0.35150669012E+02  0.00000000000E+00 0.  1.
         -2    1    1    2    0  503 -0.73983603893E+02  0.67096255429E+02 -0.43465568466E+03  0.44598323438E+03  0.00000000000E+00 0. -1.
<scales pt_clust_3="42.90784" pt_clust_4="156.66150" pt_clust_5="35.03182" pt_clust_6="42.90784"></scales>
<clustering>
<clus scale="   35.032">  1  5  2 -1</clus>
<clus scale="   42.908">  3  6 -1 -1</clus>
<clus scale="  156.661">  1  4  2 -1</clus>
<clus scale="   35.032">  1  3  2 -1</clus>
</clustering>
</event>
<event>
 6    0  0.1230761E+002  0.1024132E+03  0.7546771E-02  0.1275302E+00
         21   -1    0    0  501  502  0.00000000000E+00  0.00000000000E+00  0.29513620102E+02  0.29513620102E+02  0.00000000000E+00 0.  1.
          1   -1    0    0  504    0 -0.00000000000E+00 -0.00000000000E+00 -0.20430115848E+04  0.20430115848E+04  0.00000000000E+00 0.  1.
         21    1    1    2  503  505  0.70632441288E+02 -0.47588848890E+02 -0.40116436459E+03  0.41010545926E+03  0.00000000000E+00 0.  1.
         21    1    1    2  504  503 -0.14189564196E+02  0.34932113938E+02 -0.20374782845E+03  0.20720707978E+03  0.00000000000E+00 0.  1.
         21    1    1    2  505  502  0.36347718466E+02 -0.27011488898E+02 -0.23349764575E+01  0.45345664459E+02  0.00000000000E+00 0.  1.
          1    1    1    2  501    0 -0.92790595559E+02  0.39668223849E+02 -0.14062507952E+04  0.14098670014E+04  0.00000000000E+00 0.  1.
<scales pt_clust_3="102.41317" pt_clust_4="37.70406" pt_clust_5="44.86814" pt_clust_6="14000.00000"></scales>
<clustering>
<clus scale="   37.704">  2  4  1 -1</clus>
<clus scale="   44.868">  1  5  2 -1</clus>
<clus scale="  102.413">  1  3  2 -1</clus>
<clus scale="   44.868">  1  3  2 -1</clus>
</clustering>
</event>
<event>
 6    0  0.1230761E+002  0.1076203E+03  0.7546771E-02  0.1265041E+00
         21   -1    0    0  503  502  0.00000000000E+00  0.00000000000E+00  0.13852405111E+04  0.13852405111E+04  0.00000000000E+00 0.  1.
          2   -1    0    0  505    0 -0.00000000000E+00 -0.00000000000E+00 -0.96013373289E+03  0.96013373289E+03  0.00000000000E+00 0.  1.
         21    1    1    2  503  501  0.77650961024E+01 -0.10967303831E+03  0.13407848501E+04  0.13452852806E+04  0.00000000000E+00 0.  1.
         21    1    1    2  504  502 -0.11580884059E+02  0.71560980756E+02  0.41401422567E+01  0.72610134418E+02  0.00000000000E+00 0.  1.
         21    1    1    2  505  504 -0.34041362694E+02 -0.27005303018E+02 -0.36181708461E+03  0.36441693632E+03  0.00000000000E+00 0. -1.
          2    1    1    2  501    0  0.37857150651E+02  0.65117360572E+02 -0.55800112947E+03  0.56306189268E+03  0.00000000000E+00 0.  1.
<scales pt_clust_3="107.62027" pt_clust_4="14000.00000" pt_clust_5="43.45228" pt_clust_6="40.19720"></scales>
<clustering>
<clus scale="   43.452">  2  5  1 -1</clus>
<clus scale="   40.197">  2  6  1 -1</clus>
<clus scale="  107.620">  1  3  2 -1</clus>
<clus scale="  107.620">  1  3  2 -1</clus>
</clustering>
</event>
<event>
 6    0  0.1230761E+002  0.1266743E+03  0.7546771E-02  0.1232476E+00
          2   -1    0    0  505    0 -0.00000000000E+00  0.00000000000E+00  0.21623740614E+04  0.21623740614E+04  0.00000000000E+00 0.  1.
         21   -1    0    0  503  502  0.00000000000E+00 -0.00000000000E+00 -0.51466576297E+02  0.51466576297E+02  0.00000000000E+00 0.  1.
         21    1    1    2  503  504 -0.79149014651E+01  0.53446106552E+02  0.95244969214E+01  0.54862081735E+02  0.00000000000E+00 0.  1.
         21    1    1    2  504  501  0.74689782361E+02  0.59286740258E+02  0.79380172984E+02  0.12407535220E+03  0.00000000000E+00 0.  1.
         21    1    1    2  505  502  0.59293863309E+02 -0.36513023817E+01  0.67877656698E+03  0.68137120728E+03  0.00000000000E+00 0.  1.
          2    1    1    2  501    0 -0.12606874421E+03 -0.10908154443E+03  0.13432262483E+04  0.13535319965E+04  0.00000000000E+00 0.  1.
<scales pt_clust_3="54.02899" pt_clust_4="126.67427" pt_clust_5="58.95042" pt_clust_6="14000.00000"></scales>
<clustering>
<clus scale="   54.029">  2  3  1 -1</clus>
<clus scale="   58.950">  1  5  2 -1</clus>
<clus scale="  126.674">  2  4  1 -1</clus>
<clus scale="   54.029">  2  3  1 -1</clus>
</clustering>
</event>
<event>
 6    0  0.1230761E+002  0.1186710E+03  0.7546771E-02  0.1245306E+00
         21   -1    0    0  505  502  0.00000000000E+00  0.00000000000E+00  0.12583093408E+03  0.12583093408E+03  0.00000000000E+00 0.  1.
          2   -1    0    0  504    0 -0.00000000000E+00 -0.00000000000E+00 -0.33281504618E+04  0.33281504618E+04  0.00000000000E+00 0. -1.
         21    1    1    2  503  502  0.41001536213E+02 -0.28999697370E+02 -0.24416882821E+02  0.55841674277E+02  0.00000000000E+00 0.  1.
         21    1    1    2  504  503 -0.44574070373E+02 -0.23840667269E+02 -0.29792158380E+03  0.30217957452E+03  0.00000000000E+00 0. -1.
         21    1    1    2  505  501  0.76493096365E+02  0.56570884721E+02  0.86498300498E+02  0.12858232685E+03  0.00000000000E+00 0.  1.
          2    1    1    2  501    0 -0.72920562205E+02 -0.37305200818E+01 -0.29664793616E+04  0.29673778202E+04  0.00000000000E+00 0. -1.
<scales pt_clust_3="50.22060" pt_clust_4="50.12218" pt_clust_5="118.67104" pt_clust_6="14000.00000"></scales>
<clustering>
<clus scale="   50.221">  1  3  2 -1</clus>
<clus scale="   50.122">  2  4  1 -1</clus>
<clus scale="  118.671">  1  5  2 -1</clus>
<clus scale="   50.221">  1  3  2 -1</clus>
</clustering>
</event>
<event>
 6    0  0.1230761E+002  0.1318146E+03  0.7546771E-02  0.1224788E+00
         21   -1    0    0  504  502  0.00000000000E+00  0.00000000000E+00  0.50764882754E+03  0.50764882754E+03  0.00000000000E+00 0.  1.
          2   -1    0    0  503    0 -0.00000000000E+00 -0.00000000000E+00 -0.19444401199E+04  0.19444401199E+04  0.00000000000E+00 0. -1.
         21    1    1    2  503  505 -0.20718776288E+02 -0.79977017343E+02 -0.12216828623E+04  0.12244731957E+04  0.00000000000E+00 0. -1.
         21    1    1    2  504  501 -0.37617890187E+02 -0.58728051295E+02  0.45405402754E+03  0.45937909138E+03  0.00000000000E+00 0.  1.
         21    1    1    2  505  502  0.97501902935E+00 -0.65211950114E+02  0.11704596061E+01  0.65229740728E+02  0.00000000000E+00 0.  1.
          2    1    1    2  501    0  0.57361647446E+02  0.20391701875E+03 -0.67033291720E+03  0.70300691960E+03  0.00000000000E+00 0. -1.
<scales pt_clust_3="82.80207" pt_clust_4="14000.00000" pt_clust_5="65.21924" pt_clust_6="131.81462"></scales>
<clustering>
<clus scale="   65.219">  1  5  2 -1</clus>
<clus scale="   82.802">  2  3  1 -1</clus>
<clus scale="  131.815">  2  6  1 -1</clus>
<clus scale="   65.219">  1  3  2 -1</clus>
</clustering>
</event>
<event>
 6    0  0.1230761E+002  0.1554091E+03  0.7546771E-02  0.1193980E+00
         21   -1    0    0  505  502  0.00000000000E+00  0.00000000000E+00  0.73553365771E+03  0.73553365771E+03  0.00000000000E+00 0. -1.
          2   -1    0    0  504    0 -0.00000000000E+00 -0.00000000000E+00 -0.23076534890E+04  0.23076534890E+04  0.00000000000E+00 0.  1.
         21    1    1    2  503  502  0.10478666529E+03  0.13697066194E+02  0.28120406724E+03  0.30040569614E+03  0.00000000000E+00 0. -1.
         21    1    1    2  504  503  0.75699818776E+02  0.28577427726E+02 -0.24348182086E+03  0.25657460714E+03  0.00000000000E+00 0.  1.
         21    1    1    2  505  501  0.32043473021E+02  0.63110550334E+02  0.42839937495E+03  0.43420703608E+03  0.00000000000E+00 0. -1.
          2    1    1    2  501    0 -0.21252995708E+03 -0.10538504425E+03 -0.20382414526E+04  0.20519998073E+04  0.00000000000E+00 0.  1.
<scales pt_clust_3="155.40906" pt_clust_4="82.04547" pt_clust_5="70.77942" pt_clust_6="14000.00000"></scales>
<clustering>
<clus scale="   70.779">  1  5  2 -1</clus>
<clus scale="   82.045">  2  4  1 -1</clus>
<clus scale="  155.409">  1  3  2 -1</clus>
<clus scale="   70.779">  1  3  2 -1</clus>
</clustering>
</event>
<event>
 6    0  0.1230761E+002  0.9312582E+02  0.7546771E-02  0.1295454E+00
         21   -1    0    0  505  502  0.00000000000E+00  0.00000000000E+00  0.80687072709E+02  0.80687072709E+02  0.00000000000E+00 0.  1.
         -2   -1    0    0    0  501 -0.00000000000E+00 -0.00000000000E+00 -0.48903819254E+03  0.48903819254E+03  0.00000000000E+00 0.  1.
         21    1    1    2  503  504  0.44839350628E+02 -0.19796291714E+01 -0.12030492534E+03  0.12840467810E+03  0.00000000000E+00 0. -1.
         21    1    1    2  504  502 -0.20753716781E+02  0.11582349746E+03 -0.22379494938E+02  0.11977746498E+03  0.00000000000E+00 0.  1.
         21    1    1    2  505  501 -0.34339821061E+02 -0.72567288078E+02 -0.36022255072E+02  0.87993394468E+02  0.00000000000E+00 0. -1.
         -2    1    1    2    0  503  0.10254187214E+02 -0.41276580208E+02 -0.22964444448E+03  0.23354972770E+03  0.00000000000E+00 0.  1.
<scales pt_clust_3="54.40307" pt_clust_4="14000.00000" pt_clust_5="93.12582" pt_clust_6="42.53122"></scales>
<clustering>
<clus scale="   42.531">  2  6  1 -1</clus>
<clus scale="   54.403">  2  3  1 -1</clus>
<clus scale="   93.126">  1  5  2 -1</clus>
<clus scale="   93.126">  1  3  2 -1</clus>
</clustering>
</event>
<event>
 6    0  0.1230761E+002  0.1648516E+03  0.7546771E-02  0.1183326E+00
          2   -1    0    0  503    0 -0.00000000000E+00  0.00000000000E+00  0.19680164395E+04  0.19680164395E+04  0.00000000000E+00 0. -1.
         21   -1    0    0  505  502  0.00000000000E+00 -0.00000000000E+00 -0.31364342716E+03  0.31364342716E+03  0.00000000000E+00 0. -1.
         21    1    1    2  503  502  0.30952700645E+02  0.14207033052E+02  0.75780058021E+02  0.83081445937E+02  0.00000000000E+00 0.  1.
         21    1    1    2  504  501 -0.34875118578E+02  0.36231790243E+02 -0.52280553561E+02  0.72541524665E+02  0.00000000000E+00 0.  1.
         21    1    1    2  505  504 -0.78327697370E+02  0.75108339161E+02 -0.23252602078E+03  0.25660249634E+03  0.00000000000E+00 0. -1.
          2    1    1    2  501    0  0.82250115303E+02 -0.12554716246E+03  0.18633995287E+04  0.18694343997E+04  0.00000000000E+00 0. -1.
<scales pt_clust_3="34.05744" pt_clust_4="30.51602" pt_clust_5="30.51602" pt_clust_6="158.63965"></scales>
<clustering>
<clus scale="   30.516">  4  5 -1 -1</clus>
<clus scale="   34.057">  1  3  2 -1</clus>
<clus scale="  158.640">  1  6  2 -1</clus>
<clus scale="  164.852">  2  3  1 -1</clus>
</clustering>
</event>
<event>
 6    0  0.1230761E+002  0.1072979E+03  0.7546771E-02  0.1265657E+00
          2   -1    0    0  504    0 -0.00000000000E+00  0.00000000000E+00  0.79747360001E+03  0.79747360001E+03  0.00000000000E+00 0.  1.
         21   -1    0    0  503  502  0.00000000000E+00 -0.00000000000E+00 -0.33637366846E+03  0.33637366846E+03  0.00000000000E+00 0. -1.
         21    1    1    2  503  501 -0.28250162831E+02 -0.56339192206E+02 -0.26105907193E+03  0.26855914677E+03  0.00000000000E+00 0. -1.
         21    1    1    2  504  505  0.64838857823E+01 -0.35787931231E+02  0.53593036772E+02  0.64769054239E+02  0.00000000000E+00 0. -1.
         21    1    1    2  505  502 -0.33066016938E+02 -0.33189122594E+02 -0.50309529454E+02  0.68745385944E+02  0.00000000000E+00 0.  1.
          2    1    1    2  501    0  0.54832293987E+02  0.12531624603E+03  0.71887549616E+03  0.73177368152E+03  0.00000000000E+00 0.  1.
<scales pt_clust_3="14000.00000" pt_clust_4="36.37055" pt_clust_5="47.11042" pt_clust_6="107.29793"></scales>
<clustering>
<clus scale="   36.371">  1  4  2 -1</clus>
<clus scale="   47.110">  2  5  1 -1</clus>
<clus scale="  107.298">  1  6  2 -1</clus>
<clus scale="   47.110">  2  3  1 -1</clus>
</clustering>
</event>
<event>
 6    0  0.1230761E+002  0.6443544E+02  0.7546771E-02  0.1380108E+00
          1   -1    0    0  505    0 -0.00000000000E+00  0.00000000000E+00  0.12314920531E+04  0.12314920531E+04  0.00000000000E+00 0.  1.
         21   -1    0    0  504  502  0.00000000000E+00 -0.00000000000E+00 -0.56046424548E+03  0.56046424548E+03  0.00000000000E+00 0.  1.
         21    1    1    2  503  502 -0.24940986677E+02  0.99612558799E+02 -0.53519792388E+03  0.54496012002E+03  0.00000000000E+00 0.  1.
         21    1    1    2  504  501 -0.78158300312E+01 -0.46019559824E+02  0.18772997618E+02  0.50312150869E+02  0.00000000000E+00 0. -1.
         21    1    1    2  505  503 -0.48122760879E+02  0.51130820316E+01  0.39667834334E+03  0.39961938366E+03  0.00000000000E+00 0. -1.
          1    1    1    2  501    0  0.80879577587E+02 -0.58706081007E+02  0.79077439052E+03  0.79706464400E+03  0.00000000000E+00 0.  1.
<scales pt_clust_3="64.43544" pt_clust_4="46.67855" pt_clust_5="48.40165" pt_clust_6="14000.00000"></scales>
<clustering>
<clus scale="   46.679">  2  4  1 -1</clus>
<clus scale="   48.402">  1  5  2 -1</clus>
<clus scale="   64.435">  2  3  1 -1</clus>
<clus scale="   46.679">  2  3  1 -1</clus>
</clustering>
</event>
<event>
 6    0  0.1230761E+002  0.1181915E+03  0.7546771E-02  0.1246111E+00
          1   -1    0    0  504    0 -0.00000000000E+00  0.00000000000E+00  0.40824924215E+04  0.40824924215E+04  0.00000000000E+00 0.  1.
         21   -1    0    0  501  502  0.00000000000E+00 -0.00000000000E+00 -0.92274265584E+01  0.92274265584E+01  0.00000000000E+00 0.  1.
         21    1    1    2  503  502  0.66544125725E+02 -0.15964289692E+02  0.26178771287E+03  0.27058415663E+03  0.00000000000E+00 0.  1.
         21    1    1    2  504  505  0.12974441641E+02  0.34292829555E+02  0.44042271811E+03  0.44194626928E+03  0.00000000000E+00 0.  1.
         21    1    1    2  505  503  0.43650830593E+02  0.19438521742E+02  0.20422771085E+03  0.20974319779E+03  0.00000000000E+00 0. -1.
          1    1    1    2  501    0 -0.12316939796E+03 -0.37767061604E+02  0.31668268531E+04  0.31694462244E+04  0.00000000000E+00 0.  1.
<scales pt_clust_3="31.14282" pt_clust_4="36.66516" pt_clust_5="31.14282" pt_clust_6="112.16164"></scales>
<clustering>
<clus scale="   31.143">  3  5 -1 -1</clus>
<clus scale="   36.665">  1  4  2 -1</clus>
<clus scale="  112.162">  1  6  2 -1</clus>
<clus scale="  118.191">  2  3  1 -1</clus>
</clustering>
</event>
<event>
 6    0  0.1230761E+002  0.8738963E+02  0.7546771E-02  0.1309299E+00
         -2   -1    0    0    0  501 -0.00000000000E+00  0.00000000000E+00  0.86352791643E+03  0.86352791643E+03  0.00000000000E+00 0.  1.
         21   -1    0    0  503  502  0.00000000000E+00 -0.00000000000E+00 -0.31994368403E+03  0.31994368403E+03  0.00000000000E+00 0. -1.
         21    1    1    2  503  505 -0.99835352639E+02  0.40754140005E+02 -0.24191425019E+03  0.26485940045E+03  0.00000000000E+00 0. -1.
         21    1    1    2  504  502  0.31402277901E+02  0.94438271664E+01 -0.37902959756E+02  0.50119091045E+02  0.00000000000E+00 0. -1.
         21    1    1    2  505  501 -0.26731482294E+02  0.52977204116E+02  0.37588278660E+02  0.70242686411E+02  0.00000000000E+00 0. -1.
         -2    1    1    2    0  504  0.95164557032E+02 -0.10317517129E+03  0.78581316368E+03  0.79825042255E+03  0.00000000000E+00 0.  1.
<scales pt_clust_3="87.38963" pt_clust_4="32.79160" pt_clust_5="59.03210" pt_clust_6="14000.00000"></scales>
<clustering>
<clus scale="   32.792">  2  4  1 -1</clus>
<clus scale="   59.032">  1  5  2 -1</clus>
<clus scale="   87.390">  2  3  1 -1</clus>
<clus scale="   32.792">  2  3  1 -1</clus>
</clustering>
</event>
<event>
 6    0  0.1230761E+002  0.9584902E+02  0.7546771E-02  0.1289275E+00
         21   -1    0    0  505  502  0.00000000000E+00  0.00000000000E+00  0.36013055398E+03  0.36013055398E+03  0.00000000000E+00 0.  1.
          2   -1    0    0  504    0 -0.00000000000E+00 -0.00000000000E+00 -0.13678911976E+04  0.13678911976E+04  0.00000000000E+00 0. -1.
         21    1    1    2  503  502 -0.94266291856E+01  0.77218230412E+02  0.32613687748E+03  0.33528611557E+03  0.00000000000E+00 0.  1.
         21    1    1    2  504  503 -0.65046000671E+02 -0.11963904718E+02 -0.15716473324E+03  0.17051354959E+03  0.00000000000E+00 0. -1.
         21    1    1    2  505  501 -0.28381893059E+02 -0.24784056678E+02  0.25543760094E+01  0.37766468671E+02  0.00000000000E+00 0. -1.
          2    1    1    2  501    0  0.10285452292E+03 -0.40470269016E+02 -0.11792871639E+04  0.11844556178E+04  0.00000000000E+00 0. -1.
<scales pt_clust_3="64.74731" pt_clust_4="14000.00000" pt_clust_5="37.67999" pt_clust_6="95.84902"></scales>
<clustering>
<clus scale="   37.680">  1  5  2 -1</clus>
<clus scale="   64.747">  1  3  2 -1</clus>
<clus scale="   95.849">  2  6  1 -1</clus>
<clus scale="   37.680">  1  3  2 -1</clus>
</clustering>
</event>
<event>
 6    0  0.1230761E+002  0.1879504E+03  0.7546771E-02  0.1160323E+00
         -3   -1    0    0    0  501 -0.00000000000E+00  0.00000000000E+00  0.19431137798E+03  0.19431137798E+03  0.00000000000E+00 0. -1.
         21   -1    0    0  505  502  0.00000000000E+00 -0.00000000000E+00 -0.11075208500E+04  0.11075208500E+04  0.00000000000E+00 0.  1.
         21    1    1    2  503  504 -0.64090625261E+02 -0.20907629461E+02 -0.39077275022E+02  0.77921567228E+02  0.00000000000E+00 0. -1.
         21    1    1    2  504  501  0.24789439206E+02 -0.19370591377E+02 -0.10048891581E+02  0.33025994738E+02  0.00000000000E+00 0. -1.
         21    1    1    2  505  503  0.12479357257E+03 -0.14020990448E+03 -0.95369383658E+03  0.97198980807E+03  0.00000000000E+00 0.  1.
         -3    1    1    2    0  502 -0.85492386515E+02  0.18048812532E+03  0.89610531174E+02  0.21889485794E+03  0.00000000000E+00 0. -1.
<scales pt_clust_3="65.60785" pt_clust_4="31.46007" pt_clust_5="187.95041" pt_clust_6="14000.00000"></scales>
<clustering>
<clus scale="   31.460">  1  4  2 -1</clus>
<clus scale="   65.608">  1  3  2 -1</clus>
<clus scale="  187.950">  2  5  1 -1</clus>
<clus scale="  187.950">  2  3  1 -1</clus>
</clustering>
</event>
<event>
 6    0  0.1230761E+002  0.6374957E+02  0.7546771E-02  0.1382738E+00
         21   -1    0    0  505  502  0.00000000000E+00  0.00000000000E+00  0.10242478064E+04  0.10242478064E+04  0.00000000000E+00 0.  1.
         -2   -1    0    0    0  501 -0.00000000000E+00 -0.00000000000E+00 -0.46933979716E+03  0.46933979716E+03  0.00000000000E+00 0.  1.
         21    1    1    2  503  502  0.65736107722E+02  0.17605160272E+02  0.91529590339E+03  0.91782229668E+03  0.00000000000E+00 0.  1.
         21    1    1    2  504  501  0.22654987535E+01 -0.47922899978E+02 -0.24907887707E+03  0.25365729603E+03  0.00000000000E+00 0.  1.
         21    1    1    2  505  504 -0.24035629691E+02 -0.48551837181E+02  0.87977031027E+02  0.10331965145E+03  0.00000000000E+00 0.  1.
         -2    1    1    2    0  503 -0.43965976785E+02  0.78869576886E+02 -0.19928604807E+03  0.21878835944E+03  0.00000000000E+00 0.  1.
<scales pt_clust_3="14000.00000" pt_clust_4="47.97642" pt_clust_5="63.74957" pt_clust_6="53.19603"></scales>
<clustering>
<clus scale="   47.976">  2  4  1 -1</clus>
<clus scale="   53.196">  2  6  1 -1</clus>
<clus scale="   63.750">  2  5  1 -1</clus>
<clus scale="   63.750">  1  3  2 -1</clus>
</clustering>
</event>
<event>
 6    0  0.1230761E+002  0.1310884E+03  0.7546771E-02  0.1225850E+00
         -2   -1    0    0    0  501 -0.00000000000E+00  0.00000000000E+00  0.83917013169E+03  0.83917013169E+03  0.00000000000E+00 0. -1.
         21   -1    0    0  505  502  0.00000000000E+00 -0.00000000000E+00 -0.15998225473E+03  0.15998225473E+03  0.00000000000E+00 0. -1.
         21    1    1    2  503  504 -0.63752712858E+02 -0.78458100813E+01 -0.56910073117E+02  0.85817955899E+02  0.00000000000E+00 0. -1.
         21    1    1    2  504  501  0.36006824921E+02 -0.21722228902E+02  0.71751786317E+02  0.83166492706E+02  0.00000000000E+00 0. -1.
         21    1    1    2  505  503 -0.55019426563E+02 -0.39528682924E+02 -0.64410306631E+02  0.93479097521E+02  0.00000000000E+00 0. -1.
         -2    1    1    2    0  502  0.82765314500E+02  0.69096721907E+02  0.72875647040E+03  0.73668884029E+03  0.00000000000E+00 0. -1.
<scales pt_clust_3="31.96482" pt_clust_4="42.05171" pt_clust_5="31.96482" pt_clust_6="126.91156"></scales>
<clustering>
<clus scale="   31.965">  3  5 -1 -1</clus>
<clus scale="   42.052">  1  4  2 -1</clus>
<clus scale="  126.912">  1  6  2 -1</clus>
<clus scale="  131.088">  2  3  1 -1</clus>
</clustering>
</event>
<event>
 6    0  0.1230761E+002  0.2126423E+03  0.7546771E-02  0.1139490E+00
          2   -1    0    0  504    0 -0.00000000000E+00  0.00000000000E+00  0.92718148933E+03  0.92718148933E+03  0.00000000000E+00 0. -1.
         21   -1    0    0  503  502  0.00000000000E+00 -0.00000000000E+00 -0.63936854961E+03  0.63936854961E+03  0.00000000000E+00 0. -1.
         21    1    1    2  503  501 -0.32521790544E+02 -0.10839230264E+02 -0.93878643276E+01  0.35542759734E+02  0.00000000000E+00 0.  1.
         21    1    1    2  504  505  0.66119484464E+02 -0.30171835262E+02  0.38517932948E+03  0.39197607290E+03  0.00000000000E+00 0. -1.
         21    1    1    2  505  502  0.22144966417E+03  0.97223648593E+02 -0.55418258025E+03  0.60465752609E+03  0.00000000000E+00 0. -1.
          2    1    1    2  501    0 -0.25504735809E+03 -0.56212583068E+02  0.46620405483E+03  0.53437368022E+03  0.00000000000E+00 0. -1.
<scales pt_clust_3="34.28055" pt_clust_4="72.54015" pt_clust_5="212.64232" pt_clust_6="14000.00000"></scales>
<clustering>
<clus scale="   34.281">  2  3  1 -1</clus>
<clus scale="   72.540">  1  4  2 -1</clus>
<clus scale="  212.642">  2  5  1 -1</clus>
<clus scale="   34.281">  2  3  1 -1</clus>
</clustering>
</event>
<event>
 6    0  0.1230761E+002  0.8825343E+02  0.7546771E-02  0.1307137E+00
         21   -1    0    0  503  502  0.00000000000E+00  0.00000000000E+00  0.19896288302E+04  0.19896288302E+04  0.00000000000E+00 0. -1.
          4   -1    0    0  504    0 -0.00000000000E+00 -0.00000000000E+00 -0.39808127844E+03  0.39808127844E+03  0.00000000000E+00 0.  1.
         21    1    1    2  503  501  0.29057832293E+02 -0.14317628270E+03  0.18397404851E+04  0.18455321341E+04  0.00000000000E+00 0. -1.
         21    1    1    2  504  505  0.32903103495E+02  0.46761813610E+00 -0.18091557186E+02  0.37551795266E+02  0.00000000000E+00 0.  1.
         21    1    1    2  505  502  0.14569175103E+02  0.67557508573E+02  0.11999148964E+03  0.13847106346E+03  0.00000000000E+00 0.  1.
          4    1    1    2  501    0 -0.76530110891E+02  0.75151155990E+02 -0.35009286582E+03  0.36615511578E+03  0.00000000000E+00 0.  1.
<scales pt_clust_3="88.25343" pt_clust_4="32.90643" pt_clust_5="69.29974" pt_clust_6="14000.00000"></scales>
<clustering>
<clus scale="   32.906">  2  4  1 -1</clus>
<clus scale="   69.300">  1  5  2 -1</clus>
<clus scale="   88.253">  1  3  2 -1</clus>
<clus scale="   69.300">  1  3  2 -1</clus>
</clustering>
</event>
<event>
 6    0  0.1230761E+002  0.1184887E+03  0.7546771E-02  0.1245611E+00
         21   -1    0    0  505  502  0.00000000000E+00  0.00000000000E+00  0.34519589312E+04  0.34519589312E+04  0.00000000000E+00 0. -1.
          1   -1    0    0  504    0 -0.00000000000E+00 -0.00000000000E+00 -0.21355545910E+03  0.21355545910E+03  0.00000000000E+00 0. -1.
         21    1    1    2  503  502  0.68879759183E+02  0.64718875554E+02  0.29449462879E+04  0.29464625558E+04  0.00000000000E+00 0. -1.
         21    1    1    2  504  503  0.45351659160E+02 -0.10668255254E+03 -0.12582428889E+03  0.17108387323E+03  0.00000000000E+00 0. -1.
         21    1    1    2  505  501  0.63485464275E+01 -0.39726216286E+02  0.39887573996E+03  0.40089940413E+03  0.00000000000E+00 0.  1.
          1    1    1    2  501    0 -0.12057996477E+03  0.81689893273E+02  0.20405733162E+02  0.14706855719E+03  0.00000000000E+00 0. -1.
<scales pt_clust_3="79.50982" pt_clust_4="118.48866" pt_clust_5="40.23029" pt_clust_6="14000.00000"></scales>
<clustering>
<clus scale="   40.230">  1  5  2 -1</clus>
<clus scale="   79.510">  1  3  2 -1</clus>
<clus scale="  118.489">  2  4  1 -1</clus>
<clus scale="   40.230">  1  3  2 -1</clus>
</clustering>
</event>
<event>
 6    0  0.1230761E+002  0.1015642E+03  0.7546771E-02  0.1277041E+00
          2   -1    0    0  504    0 -0.00000000000E+00  0.00000000000E+00  0.35380062020E+04  0.35380062020E+04  0.00000000000E+00 0.  1.
         21   -1    0    0  503  502  0.00000000000E+00 -0.00000000000E+00 -0.12783043869E+02  0.12783043869E+02  0.00000000000E+00 0. -1.
         21    1    1    2  503  505  0.13699823599E+02 -0.33234230849E+02  0.82681697974E+02  0.90157986039E+02  0.00000000000E+00 0. -1.
         21    1    1    2  504  502  0.63595223196E+02  0.10372364039E+02  0.19069621465E+03  0.20128831221E+03  0.00000000000E+00 0. -1.
         21    1    1    2  505  501  0.10501512951E+02  0.98451044116E+02  0.11265928738E+04  0.11309351852E+04  0.00000000000E+00 0.  1.
          2    1    1    2  501    0 -0.87796559746E+02 -0.75589177305E+02  0.21252523717E+04  0.21284077624E+04  0.00000000000E+00 0.  1.
<scales pt_clust_3="35.94717" pt_clust_4="72.19109" pt_clust_5="101.56422" pt_clust_6="14000.00000"></scales>
<clustering>
<clus scale="   35.947">  2  3  1 -1</clus>
<clus scale="   72.191">  2  4  1 -1</clus>
<clus scale="  101.564">  2  5  1 -1</clus>
<clus scale="   35.947">  2  3  1 -1</clus>
</clustering>
</event>
<event>
 6    0  0.1230761E+002  0.1260318E+03  0.7546771E-02  0.1233465E+00
         21   -1    0    0  505  502  0.00000000000E+00  0.00000000000E+00  0.37535760700E+03  0.37535760700E+03  0.00000000000E+00 0.  1.
          2   -1    0    0  504    0 -0.00000000000E+00 -0.00000000000E+00 -0.33049522430E+04  0.33049522430E+04  0.00000000000E+00 0.  1.
         21    1    1    2  503  501 -0.10606898489E+03  0.11438699562E+03 -0.64990078860E+03  0.66836071798E+03  0.00000000000E+00 0.  1.
         21    1    1    2  504  502  0.11764921525E+02 -0.30546086570E+02  0.33560988015E+03  0.33720241464E+03  0.00000000000E+00 0.  1.
         21    1    1    2  505  503 -0.28833250440E+02 -0.60487816155E+02 -0.11572067114E+02  0.68000330672E+02  0.00000000000E+00 0.  1.
          2    1    1    2  501    0  0.12313731380E+03 -0.23353092895E+02 -0.26037316605E+04  0.26067463868E+04  0.00000000000E+00 0.  1.
<scales pt_clust_3="14000.00000" pt_clust_4="32.73342" pt_clust_5="85.07385" pt_clust_6="126.03181"></scales>
<clustering>
<clus scale="   32.733">  1  4  2 -1</clus>
<clus scale="   85.074">  1  5  2 -1</clus>
<clus scale="  126.032">  2  6  1 -1</clus>
<clus scale="   32.733">  1  3  2 -1</clus>
</clustering>
</event>
<event>
 6    0  0.1230761E+002  0.2191306E+03  0.7546771E-02  0.1134533E+00
         21   -1    0    0  504  502  0.00000000000E+00  0.00000000000E+00  0.33889300845E+03  0.33889300845E+03  0.00000000000E+00 0. -1.
          2   -1    0    0  505    0 -0.00000000000E+00 -0.00000000000E+00 -0.34343111252E+04  0.34343111252E+04  0.00000000000E+00 0.  1.
         21    1    1    2  503  502 -0.11820555220E+02  0.42039359517E+02  0.12034956615E+02  0.45297609816E+02  0.00000000000E+00 0.  1.
         21    1    1    2  504  501 -0.21864191877E+02 -0.82348038869E+02 -0.14085786839E+04  0.14111531282E+04  0.00000000000E+00 0.  1.
         21    1    1    2  505  503 -0.57249516488E+02  0.13881072991E+03  0.28830214609E+03  0.32506007647E+03  0.00000000000E+00 0. -1.
          2    1    1    2  501    0  0.90934263584E+02 -0.98502050560E+02 -0.19871765355E+04  0.19916933191E+04  0.00000000000E+00 0.  1.
<scales pt_clust_3="43.66959" pt_clust_4="82.60332" pt_clust_5="193.09384" pt_clust_6="82.60332"></scales>
<clustering>
<clus scale="   43.670">  1  3  2 -1</clus>
<clus scale="   82.603">  4  6 -1 -1</clus>
<clus scale="  193.094">  1  5  2 -1</clus>
<clus scale="   43.670">  1  3  2 -1</clus>
</clustering>
</event>
<event>
 6    0  0.1230761E+002  0.1202259E+03  0.7546771E-02  0.1242725E+00
         21   -1    0    0  505  502  0.00000000000E+00  0.00000000000E+00  0.70399853151E+02  0.70399853151E+02  0.00000000000E+00 0. -1.
          1   -1    0    0  503    0 -0.00000000000E+00 -0.00000000000E+00 -0.87750870437E+03  0.87750870437E+03  0.00000000000E+00 0.  1.
         21    1    1    2  503  502 -0.31131347974E+02 -0.34615111793E+02 -0.18077265065E+03  0.18667114939E+03  0.00000000000E+00 0.  1.
         21    1    1    2  504  501 -0.13932117988E+02  0.59957131958E+02 -0.13211795339E+02  0.62956438275E+02  0.00000000000E+00 0. -1.
         21    1    1    2  505  504  0.63718878207E+01  0.56623793753E+02  0.18713147243E+02  0.59975302026E+02  0.00000000000E+00 0. -1.
          1    1    1    2  501    0  0.38691578141E+02 -0.81965813917E+02 -0.63183755248E+03  0.63830566783E+03  0.00000000000E+00 0.  1.
<scales pt_clust_3="46.55499" pt_clust_4="36.43020" pt_clust_5="36.43020" pt_clust_6="114.10779"></scales>
<clustering>
<clus scale="   36.430">  4  5 -1 -1</clus>
<clus scale="   46.555">  2  3  1 -1</clus>
<clus scale="  114.108">  2  6  1 -1</clus>
<clus scale="  120.226">  1  3  2 -1</clus>
</clustering>
</event>
<event>
 6    0  0.1230761E+002  0.8459587E+02  0.7546771E-02  0.1316493E+00
          2   -1    0    0  504    0 -0.00000000000E+00  0.00000000000E+00  0.26018648726E+04  0.26018648726E+04  0.00000000000E+00 0.  1.
         21   -1    0    0  501  502  0.00000000000E+00 -0.00000000000E+00 -0.45007127394E+02  0.45007127394E+02  0.00000000000E+00 0.  1.
         21    1    1    2  503  502 -0.30818055347E+02 -0.72417730275E+00 -0.55576608645E+01  0.31323546453E+02  0.00000000000E+00 0.  1.
         21    1    1    2  504  505 -0.17083561037E+02  0.90492110239E+02  0.59033353821E+03  0.59747331021E+03  0.00000000000E+00 0.  1.
         21    1    1    2  505  503 -0.34771237963E+02 -0.50689233644E+02  0.21156619630E+02  0.65007999131E+02  0.00000000000E+00 0.  1.
          2    1    1    2  501    0  0.82672854347E+02 -0.39078699293E+02  0.19509252482E+04  0.19530671442E+04  0.00000000000E+00 0.  1.
<scales pt_clust_3="30.82656" pt_clust_4="84.59587" pt_clust_5="79.08907" pt_clust_6="14000.00000"></scales>
<clustering>
<clus scale="   30.827">  2  3  1 -1</clus>
<clus scale="   79.089">  2  5  1 -1</clus>
<clus scale="   84.596">  2  4  1 -1</clus>
<clus scale="   30.827">  2  3  1 -1</clus>
</clustering>
</event>
<event>
 6    0  0.1230761E+002  0.1140032E+03  0.7546771E-02  0.1253331E+00
         -1   -1    0    0    0  501 -0.00000000000E+00  0.00000000000E+00  0.36705560001E+03  0.36705560001E+03  0.00000000000E+00 0. -1.
         21   -1    0    0  504  502  0.00000000000E+00 -0.00000000000E+00 -0.10046495851E+03  0.10046495851E+03  0.00000000000E+00 0. -1.
         21    1    1    2  503  505 -0.44195507239E+02 -0.27410525252E+02 -0.75598928067E+01  0.52552181058E+02  0.00000000000E+00 0. -1.
         21    1    1    2  504  501 -0.74952005701E+01 -0.29749885169E+02  0.22507850509E+02  0.38050453790E+02  0.00000000000E+00 0. -1.
         21    1    1    2  505  502 -0.29830704864E+02 -0.48764170418E+02 -0.30444097545E+02  0.64766182106E+02  0.00000000000E+00 0. -1.
         -1    1    1    2    0  503  0.81521412673E+02  0.10592458084E+03  0.28208678134E+03  0.31215174156E+03  0.00000000000E+00 0. -1.
<scales pt_clust_3="30.75053" pt_clust_4="30.67953" pt_clust_5="30.75053" pt_clust_6="109.36132"></scales>
<clustering>
<clus scale="   30.680">  1  4  2 -1</clus>
<clus scale="   30.751">  3  5 -1 -1</clus>
<clus scale="  109.361">  1  6  2 -1</clus>
<clus scale="  114.003">  2  3  1 -1</clus>
</clustering>
</event>
<event>
 6    0  0.1230761E+002  0.3178296E+03  0.7546771E-02  0.1076653E+00
         21   -1    0    0  501  502  0.00000000000E+00  0.00000000000E+00  0.48702125332E+03  0.48702125332E+03  0.00000000000E+00 0.  1.
          2   -1    0    0  505    0 -0.00000000000E+00 -0.00000000000E+00 -0.91341077971E+03  0.91341077971E+03  0.00000000000E+00 0. -1.
         21    1    1    2  503  504  0.82088637140E+02 -0.17985837141E+03  0.28410487331E+03  0.34612592673E+03  0.00000000000E+00 0.  1.
         21    1    1    2  504  502  0.10166115025E+03 -0.68307920604E+02  0.11107970114E+03  0.16534709399E+03  0.00000000000E+00 0.  1.
         21    1    1    2  505  503 -0.56959327463E+02  0.41813526891E+02 -0.36851242095E+03  0.37522545278E+03  0.00000000000E+00 0.  1.
          2    1    1    2  501    0 -0.12679045993E+03  0.20635276512E+03 -0.45306167989E+03  0.51373355953E+03  0.00000000000E+00 0. -1.
<scales pt_clust_3="78.58901" pt_clust_4="78.58901" pt_clust_5="70.65930" pt_clust_6="301.54986"></scales>
<clustering>
<clus scale="   70.659">  2  5  1 -1</clus>
<clus scale="   78.589">  3  4 -1 -1</clus>
<clus scale="  301.550">  2  6  1 -1</clus>
<clus scale="  317.830">  1  3  2 -1</clus>
</clustering>
</event>
<event>
 6    0  0.1230761E+002  0.1182644E+03  0.7546771E-02  0.1245988E+00
         21   -1    0    0  501  502  0.00000000000E+00  0.00000000000E+00  0.75693615806E+03  0.75693615806E+03  0.00000000000E+00 0.  1.
          2   -1    0    0  505    0 -0.00000000000E+00 -0.00000000000E+00 -0.13932750404E+04  0.13932750404E+04  0.00000000000E+00 0.  1.
         21    1    1    2  503  502 -0.19605972575E+02  0.32472209022E+02  0.66220301238E+03  0.66328852555E+03  0.00000000000E+00 0.  1.
         21    1    1    2  504  503  0.77548970182E+02 -0.18131492817E+02  0.53833166686E+02  0.96128058565E+02  0.00000000000E+00 0.  1.
         21    1    1    2  505  504  0.69137466043E+02 -0.24906012243E+02 -0.68052838653E+02  0.10015731379E+03  0.00000000000E+00 0.  1.
          2    1    1    2  501    0 -0.12708046365E+03  0.10565296039E+02 -0.12843222227E+04  0.12906373005E+04  0.00000000000E+00 0.  1.
<scales pt_clust_3="37.93202" pt_clust_4="62.42056" pt_clust_5="118.26442" pt_clust_6="14000.00000"></scales>
<clustering>
<clus scale="   37.932">  1  3  2 -1</clus>
<clus scale="   62.421">  1  4  2 -1</clus>
<clus scale="  118.264">  1  5  2 -1</clus>
<clus scale="   37.932">  1  3  2 -1</clus>
</clustering>
</event>
<event>
 6    0  0.1230761E+002  0.2188595E+03  0.7546771E-02  0.1134736E+00
          2   -1    0    0  504    0 -0.00000000000E+00  0.00000000000E+00  0.19565843076E+04  0.19565843076E+04  0.00000000000E+00 0.  1.
         21   -1    0    0  501  502  0.00000000000E+00 -0.00000000000E+00 -0.75208967099E+02  0.75208967099E+02  0.00000000000E+00 0.  1.
         21    1    1    2  503  502  0.26306688104E+02  0.28690970418E+02  0.17542294296E+02  0.42695968331E+02  0.00000000000E+00 0.  1.
         21    1    1    2  504  505 -0.47578603142E+02  0.42047838954E+01  0.97084726961E+03  0.97202151447E+03  0.00000000000E+00 0.  1.
         21    1    1    2  505  503  0.17073878097E+03 -0.15254013742E+03  0.22050428506E+03  0.31787161651E+03  0.00000000000E+00 0.  1.
          2    1    1    2  501    0 -0.14946686593E+03  0.11964438311E+03  0.67248149151E+03  0.69920417536E+03  0.00000000000E+00 0.  1.
<scales pt_clust_3="38.92574" pt_clust_4="47.54296" pt_clust_5="14000.00000" pt_clust_6="218.85951"></scales>
<clustering>
<clus scale="   38.926">  2  3  1 -1</clus>
<clus scale="   47.543">  1  4  2 -1</clus>
<clus scale="  218.860">  1  6  2 -1</clus>
<clus scale="   38.926">  2  3  1 -1</clus>
</clustering>
</event>
<event>
 6    0  0.1230761E+002  0.1077656E+03  0.7546771E-02  0.1264764E+00
         21   -1    0    0  501  502  0.00000000000E+00  0.00000000000E+00  0.57377991779E+03  0.57377991779E+03  0.00000000000E+00 0.  1.
          1   -1    0    0  504    0 -0.00000000000E+00 -0.00000000000E+00 -0.62923215717E+03  0.62923215717E+03  0.00000000000E+00 0.  1.
         21    1    1    2  503  502  0.31906352425E+02 -0.35576485375E+02  0.16729005890E+03  0.17398179630E+03  0.00000000000E+00 0. -1.
         21    1    1    2  504  505  0.28656174600E+02  0.19964782127E+02 -0.16338966855E+02  0.38558147077E+02  0.00000000000E+00 0.  1.
         21    1    1    2  505  503 -0.89692201980E+02 -0.56663943396E+02  0.38224172655E+03  0.39669160704E+03  0.00000000000E+00 0.  1.
          1    1    1    2  501    0  0.29129674955E+02  0.72275646644E+02 -0.58864505797E+03  0.59378052455E+03  0.00000000000E+00 0.  1.
<scales pt_clust_3="47.81222" pt_clust_4="34.92519" pt_clust_5="107.76561" pt_clust_6="14000.00000"></scales>
<clustering>
<clus scale="   34.925">  2  4  1 -1</clus>
<clus scale="   47.812">  1  3  2 -1</clus>
<clus scale="  107.766">  1  5  2 -1</clus>
<clus scale="   47.812">  1  3  2 -1</clus>
</clustering>
</event>
<event>
 6    0  0.1230761E+002  0.9353628E+02  0.7546771E-02  0.1294507E+00
         -1   -1    0    0    0  501 -0.00000000000E+00  0.00000000000E+00  0.18685886902E+03  0.18685886902E+03  0.00000000000E+00 0.  1.
         21   -1    0    0  503  502  0.00000000000E+00 -0.00000000000E+00 -0.12845155779E+03  0.12845155779E+03  0.00000000000E+00 0.  1.
         21    1    1    2  503  501 -0.48822681810E+02  0.16511715532E+02  0.61719792065E+02  0.80409102355E+02  0.00000000000E+00 0.  1.
         21    1    1    2  504  505 -0.35125118224E+02  0.20092179916E+02 -0.23885886405E+02  0.46989415760E+02  0.00000000000E+00 0.  1.
         21    1    1    2  505  502 -0.42048166075E+02 -0.10703168095E+02 -0.26611932456E+02  0.50899911852E+02  0.00000000000E+00 0.  1.
         -1    1    1    2    0  504  0.12599596611E+03 -0.25900727353E+02  0.47185338034E+02  0.13701199684E+03  0.00000000000E+00 0.  1.
<scales pt_clust_3="51.53922" pt_clust_4="30.36159" pt_clust_5="30.36159" pt_clust_6="88.09435"></scales>
<clustering>
<clus scale="   30.362">  4  5 -1 -1</clus>
<clus scale="   51.539">  1  3  2 -1</clus>
<clus scale="   88.094">  1  6  2 -1</clus>
<clus scale="   93.536">  2  3  1 -1</clus>
</clustering>
</event>
<event>
 6    0  0.1230761E+002  0.4585397E+03  0.7546771E-02  0.1025206E+00
         21   -1    0    0  503  502  0.00000000000E+00  0.00000000000E+00  0.12318712311E+04  0.12318712311E+04  0.00000000000E+00 0. -1.
          2   -1    0    0  505    0 -0.00000000000E+00 -0.00000000000E+00 -0.49417549930E+03  0.49417549930E+03  0.00000000000E+00 0.  1.
         21    1    1    2  503  504 -0.25437799488E+03  0.15907857441E+03  0.84113620787E+03  0.89304214755E+03  0.00000000000E+00 0. -1.
         21    1    1    2  504  501 -0.11253095233E+03  0.80867195040E+02  0.19648104683E+03  0.24043194511E+03  0.00000000000E+00 0. -1.
         21    1    1    2  505  502 -0.40405328169E+02 -0.18684850557E+02 -0.93254984811E+01  0.45482734160E+02  0.00000000000E+00 0. -1.
          2    1    1    2  501    0  0.40731427538E+03 -0.22126091889E+03 -0.29059602444E+03  0.54708990356E+03  0.00000000000E+00 0.  1.
<scales pt_clust_3="85.87178" pt_clust_4="85.87178" pt_clust_5="44.51645" pt_clust_6="440.84105"></scales>
<clustering>
<clus scale="   44.516">  2  5  1 -1</clus>
<clus scale="   85.872">  3  4 -1 -1</clus>
<clus scale="  440.841">  2  6  1 -1</clus>
<clus scale="  458.540">  1  3  2 -1</clus>
</clustering>
</event>
<event>
 6    0  0.1230761E+002  0.1810929E+03  0.7546771E-02  0.1166750E+00
         21   -1    0    0  503  502  0.00000000000E+00  0.00000000000E+00  0.10807255757E+03  0.10807255757E+03  0.00000000000E+00 0. -1.
          2   -1    0    0  505    0 -0.00000000000E+00 -0.00000000000E+00 -0.17434360965E+04  0.17434360965E+04  0.00000000000E+00 0. -1.
         21    1    1    2  503  501  0.67145805767E+02  0.16873103013E+03 -0.23266602289E+03  0.29514775616E+03  0.00000000000E+00 0. -1.
         21    1    1    2  504  502 -0.34667218031E+02 -0.17848952244E+03 -0.39521584876E+02  0.18607063524E+03  0.00000000000E+00 0. -1.
         21    1    1    2  505  504  0.38873930365E+02 -0.67775457077E+01 -0.15666440410E+03  0.16155758447E+03  0.00000000000E+00 0. -1.
          2    1    1    2  501    0 -0.71352518101E+02  0.16536038026E+02 -0.12065115271E+04  0.12087326782E+04  0.00000000000E+00 0. -1.
<scales pt_clust_3="181.09289" pt_clust_4="14000.00000" pt_clust_5="39.46033" pt_clust_6="43.24312"></scales>
<clustering>
<clus scale="   39.460">  2  5  1 -1</clus>
<clus scale="   43.243">  2  6  1 -1</clus>
<clus scale="  181.093">  2  3  1 -1</clus>
<clus scale="  181.093">  1  3  2 -1</clus>
</clustering>
</event>
<event>
 6    0  0.1230761E+002  0.1137793E+03  0.7546771E-02  0.1253727E+00
         21   -1    0    0  504  502  0.00000000000E+00  0.00000000000E+00  0.25275852695E+03  0.25275852695E+03  0.00000000000E+00 0.  1.
          1   -1    0    0  503    0 -0.00000000000E+00 -0.00000000000E+00 -0.10840358545E+04  0.10840358545E+04  0.00000000000E+00 0.  1.
         21    1    1    2  503  505 -0.50127300633E+02 -0.22102675986E+02 -0.63608205649E+03  0.63843688579E+03  0.00000000000E+00 0. -1.
         21    1    1    2  504  501  0.11448450626E+02 -0.47066489242E+02  0.54183554992E+02  0.72678601135E+02  0.00000000000E+00 0.  1.
         21    1    1    2  505  502  0.93909204807E+02 -0.41457570422E+01  0.17114128505E+03  0.19525743391E+03  0.00000000000E+00 0.  1.
          1    1    1    2  501    0 -0.55230354800E+02  0.73314922271E+02 -0.42052011110E+03  0.43042146062E+03  0.00000000000E+00 0.  1.
<scales pt_clust_3="54.83764" pt_clust_4="48.43884" pt_clust_5="113.77930" pt_clust_6="14000.00000"></scales>
<clustering>
<clus scale="   48.439">  1  4  2 -1</clus>
<clus scale="   54.838">  2  3  1 -1</clus>
<clus scale="  113.779">  1  5  2 -1</clus>
<clus scale="   48.439">  1  3  2 -1</clus>
</clustering>
</event>
<event>
 6    0  0.1230761E+002  0.8710160E+02  0.7546771E-02  0.1310026E+00
         21   -1    0    0  504  502  0.00000000000E+00  0.00000000000E+00  0.16251217181E+03  0.16251217181E+03  0.00000000000E+00 0.  1.
          2   -1    0    0  505    0 -0.00000000000E+00 -0.00000000000E+00 -0.23171702632E+04  0.23171702632E+04  0.00000000000E+00 0.  1.
         21    1    1    2  503  502 -0.44850425172E+02  0.12471112089E+02  0.67066874855E+02  0.81639787957E+02  0.00000000000E+00 0.  1.
         21    1    1    2  504  501  0.87446705920E+01 -0.43164582574E+02  0.76656006267E+02  0.88406977945E+02  0.00000000000E+00 0.  1.
         21    1    1    2  505  503  0.76167119593E+02 -0.46897705565E+02 -0.18855472946E+04  0.18876677211E+04  0.00000000000E+00 0.  1.
          2    1    1    2  501    0 -0.40061365013E+02  0.77591176051E+02 -0.41283367785E+03  0.42196794799E+03  0.00000000000E+00 0.  1.
<scales pt_clust_3="45.97078" pt_clust_4="44.04146" pt_clust_5="87.10160" pt_clust_6="14000.00000"></scales>
<clustering>
<clus scale="   44.041">  1  4  2 -1</clus>
<clus scale="   45.971">  1  3  2 -1</clus>
<clus scale="   87.102">  2  5  1 -1</clus>
<clus scale="   44.041">  1  3  2 -1</clus>
</clustering>
</event>
<event>
 6    0  0.1230761E+002  0.1615141E+03  0.7546771E-02  0.1186998E+00
         21   -1    0    0  501  502  0.00000000000E+00  0.00000000000E+00  0.89230240629E+02  0.89230240629E+02  0.00000000000E+00 0.  1.
          2   -1    0    0  504    0 -0.00000000000E+00 -0.00000000000E+00 -0.10775796248E+04  0.10775796248E+04  0.00000000000E+00 0. -1.
         21    1    1    2  503  505  0.10364962875E+03 -0.11030498361E+02  0.18561477794E+02  0.10587467068E+03  0.00000000000E+00 0.  1.
         21    1    1    2  504  503 -0.10244757532E+03  0.56595363184E+02 -0.63874907540E+03  0.64938349390E+03  0.00000000000E+00 0. -1.
         21    1    1    2  505  502  0.55723379170E+02 -0.83828526137E+01 -0.24875507428E+02  0.61596737526E+02  0.00000000000E+00 0.  1.
          2    1    1    2  501    0 -0.56925432603E+02 -0.37182012209E+02 -0.34328627911E+03  0.34995496330E+03  0.00000000000E+00 0. -1.
<scales pt_clust_3="34.72250" pt_clust_4="154.45588" pt_clust_5="34.72250" pt_clust_6="67.99270"></scales>
<clustering>
<clus scale="   34.723">  3  5 -1 -1</clus>
<clus scale="   67.993">  2  6  1 -1</clus>
<clus scale="  154.456">  2  4  1 -1</clus>
<clus scale="  161.514">  1  3  2 -1</clus>
</clustering>
</event>
<event>
 6    0  0.1230761E+002  0.9656026E+02  0.7546771E-02  0.1287700E+00
          2   -1    0    0  505    0 -0.00000000000E+00  0.00000000000E+00  0.22243746890E+04  0.22243746890E+04  0.00000000000E+00 0.  1.
         21   -1    0    0  503  502  0.00000000000E+00 -0.00000000000E+00 -0.10070728762E+03  0.10070728762E+03  0.00000000000E+00 0. -1.
         21    1    1    2  503  501  0.29087225687E+01 -0.45359716076E+02 -0.79773164370E+02  0.91813518956E+02  0.00000000000E+00 0. -1.
         21    1    1    2  504  502 -0.40821033932E+02  0.18798570011E+02  0.47191287821E+02  0.65167174957E+02  0.00000000000E+00 0. -1.
         21    1    1    2  505  504 -0.67828157124E+02  0.10193294119E+02  0.26190375545E+03  0.27073629099E+03  0.00000000000E+00 0. -1.
          2    1    1    2  501    0  0.10574046849E+03  0.16367851946E+02  0.18943455225E+04  0.18973649917E+04  0.00000000000E+00 0.  1.
<scales pt_clust_3="44.89773" pt_clust_4="44.94155" pt_clust_5="96.56026" pt_clust_6="14000.00000"></scales>
<clustering>
<clus scale="   44.942">  2  4  1 -1</clus>
<clus scale="   44.898">  2  3  1 -1</clus>
<clus scale="   96.560">  2  5  1 -1</clus>
<clus scale="   44.942">  2  3  1 -1</clus>
</clustering>
</event>
<event>
 6    0  0.1230761E+002  0.8478648E+02  0.7546771E-02  0.1315992E+00
          2   -1    0    0  505    0 -0.00000000000E+00  0.00000000000E+00  0.41302037751E+03  0.41302037751E+03  0.00000000000E+00 0.  1.
         21   -1    0    0  504  502  0.00000000000E+00 -0.00000000000E+00 -0.17068098713E+04  0.17068098713E+04  0.00000000000E+00 0. -1.
         21    1    1    2  503  502 -0.92021285235E+02 -0.10006316329E+02 -0.10680491311E+04  0.10720526992E+04  0.00000000000E+00 0. -1.
         21    1    1    2  504  501  0.67973225722E+02  0.41129358083E+02 -0.62250272319E+03  0.62755208859E+03  0.00000000000E+00 0. -1.
         21    1    1    2  505  503 -0.23395685640E+02  0.31169541860E+02  0.43569032404E+02  0.58456471249E+02  0.00000000000E+00 0. -1.
          2    1    1    2  501    0  0.47443745153E+02 -0.62292583614E+02  0.35319332814E+03  0.36176898979E+03  0.00000000000E+00 0.  1.
<scales pt_clust_3="84.78648" pt_clust_4="14000.00000" pt_clust_5="38.97305" pt_clust_6="39.81859"></scales>
<clustering>
<clus scale="   38.973">  1  5  2 -1</clus>
<clus scale="   39.819">  1  6  2 -1</clus>
<clus scale="   84.786">  2  3  1 -1</clus>
<clus scale="   84.786">  2  3  1 -1</clus>
</clustering>
</event>
<event>
 6    0  0.1230761E+002  0.1893393E+03  0.7546771E-02  0.1159059E+00
         21   -1    0    0  503  502  0.00000000000E+00  0.00000000000E+00  0.14014878427E+03  0.14014878427E+03  0.00000000000E+00 0. -1.
          2   -1    0    0  505    0 -0.00000000000E+00 -0.00000000000E+00 -0.55028084708E+03  0.55028084708E+03  0.00000000000E+00 0. -1.
         21    1    1    2  503  501  0.27505587155E+02  0.40626921639E+02 -0.18683039592E+02  0.52499143374E+02  0.00000000000E+00 0.  1.
         21    1    1    2  504  502 -0.44808547033E+02 -0.72894391130E+02  0.27150780681E+02  0.89769499480E+02  0.00000000000E+00 0. -1.
         21    1    1    2  505  504 -0.95465200512E+02 -0.90570735578E+02 -0.45063832328E+02  0.13909497344E+03  0.00000000000E+00 0. -1.
          2    1    1    2  501    0  0.11276816039E+03  0.12283820507E+03 -0.37353597157E+03  0.40906601506E+03  0.00000000000E+00 0. -1.
<scales pt_clust_3="49.06225" pt_clust_4="55.77955" pt_clust_5="55.77955" pt_clust_6="173.74951"></scales>
<clustering>
<clus scale="   49.062">  1  3  2 -1</clus>
<clus scale="   55.780">  4  5 -1 -1</clus>
<clus scale="  173.750">  2  6  1 -1</clus>
<clus scale="   49.062">  1  3  2 -1</clus>
</clustering>
</event>
<event>
 6    0  0.1230761E+002  0.1176600E+03  0.7546771E-02  0.1247008E+00
         -2   -1    0    0    0  501 -0.00000000000E+00  0.00000000000E+00  0.28072614424E+03  0.28072614424E+03  0.00000000000E+00 0. -1.
         21   -1    0    0  505  502  0.00000000000E+00 -0.00000000000E+00 -0.16972580179E+04  0.16972580179E+04  0.00000000000E+00 0. -1.
         21    1    1    2  503  504  0.29746658172E+02 -0.87664910597E+02  0.14048314123E+03  0.16824242388E+03  0.00000000000E+00 0. -1.
         21    1    1    2  504  502 -0.10440418283E+02  0.10055761541E+03 -0.15520697401E+04  0.15553589022E+04  0.00000000000E+00 0. -1.
         21    1    1    2  505  501  0.41877260135E+02  0.15007108681E+02 -0.11617815606E+03  0.12440370642E+03  0.00000000000E+00 0. -1.
         -2    1    1    2    0  503 -0.61183500024E+02 -0.27899813493E+02  0.11123288129E+03  0.12997912967E+03  0.00000000000E+00 0. -1.
<scales pt_clust_3="14000.00000" pt_clust_4="117.65999" pt_clust_5="44.48503" pt_clust_6="66.98100"></scales>
<clustering>
<clus scale="   44.485">  2  5  1 -1</clus>
<clus scale="   66.981">  1  6  2 -1</clus>
<clus scale="  117.660">  2  4  1 -1</clus>
<clus scale="   44.485">  2  3  1 -1</clus>
</clustering>
</event>
<event>
 6    0  0.1230761E+002  0.1857744E+03  0.7546771E-02  0.1162329E+00
          2   -1    0    0  502    0 -0.00000000000E+00  0.00000000000E+00  0.25680758829E+04  0.25680758829E+04  0.00000000000E+00 0. -1.
         21   -1    0    0  504  502  0.00000000000E+00 -0.00000000000E+00 -0.39554900072E+03  0.39554900072E+03  0.00000000000E+00 0.  1.
         21    1    1    2  503  505  0.36728733832E+02  0.60901274046E+01 -0.62186163779E+02  0.72479021146E+02  0.00000000000E+00 0. -1.
         21    1    1    2  504  503  0.34354167957E+02  0.24385380636E+01 -0.25859251716E+03  0.26087591927E+03  0.00000000000E+00 0.  1.
         21    1    1    2  505  501  0.89244232527E+02 -0.10800791586E+03  0.10712289968E+02  0.14051688897E+03  0.00000000000E+00 0. -1.
          2    1    1    2  501    0 -0.16032713432E+03  0.99479250393E+02  0.24825932732E+04  0.24897530543E+04  0.00000000000E+00 0. -1.
<scales pt_clust_3="54.25366" pt_clust_4="34.44061" pt_clust_5="14000.00000" pt_clust_6="185.77438"></scales>
<clustering>
<clus scale="   34.441">  2  4  1 -1</clus>
<clus scale="   54.254">  2  3  1 -1</clus>
<clus scale="  185.774">  1  6  2 -1</clus>
<clus scale="   34.441">  2  3  1 -1</clus>
</clustering>
</event>
<event>
 6    0  0.1230761E+002  0.1040829E+03  0.7546771E-02  0.1271937E+00
          2   -1    0    0  505    0 -0.00000000000E+00  0.00000000000E+00  0.87630785204E+03  0.87630785204E+03  0.00000000000E+00 0.  1.
         21   -1    0    0  504  502  0.00000000000E+00 -0.00000000000E+00 -0.12685166323E+03  0.12685166323E+03  0.00000000000E+00 0.  1.
         21    1    1    2  503  502 -0.12604203025E+03 -0.58376206777E+02 -0.61814519988E+02  0.15203752757E+03  0.00000000000E+00 0.  1.
         21    1    1    2  504  501  0.45267978493E+02 -0.37685798358E+01  0.31666078210E+02  0.55372669974E+02  0.00000000000E+00 0.  1.
         21    1    1    2  505  503 -0.22402340555E+02  0.33496649240E+02  0.10089771651E+03  0.10864731736E+03  0.00000000000E+00 0.  1.
          2    1    1    2  501    0  0.10317639231E+03  0.28648137374E+02  0.67870691407E+03  0.68710200037E+03  0.00000000000E+00 0.  1.
<scales pt_clust_3="104.08293" pt_clust_4="44.04445" pt_clust_5="40.29752" pt_clust_6="14000.00000"></scales>
<clustering>
<clus scale="   40.298">  1  5  2 -1</clus>
<clus scale="   44.044">  2  4  1 -1</clus>
<clus scale="  104.083">  2  3  1 -1</clus>
<clus scale="   44.044">  2  3  1 -1</clus>
</clustering>
</event>
<event>
 6    0  0.1230761E+002  0.1572946E+03  0.7546771E-02  0.1191785E+00
          2   -1    0    0  504    0 -0.00000000000E+00  0.00000000000E+00  0.22814889259E+04  0.22814889259E+04  0.00000000000E+00 0. -1.
         21   -1    0    0  503  502  0.00000000000E+00 -0.00000000000E+00 -0.16082188758E+03  0.16082188758E+03  0.00000000000E+00 0.  1.
         21    1    1    2  503  501  0.17502944540E+02  0.73797457691E+02 -0.10165671332E+03  0.12683258727E+03  0.00000000000E+00 0.  1.
         21    1    1    2  504  505 -0.15439531532E+03 -0.46591770495E+02  0.14312976634E+04  0.14403547159E+04  0.00000000000E+00 0. -1.
         21    1    1    2  505  502 -0.26994948291E+02  0.63654878728E+02  0.75544894729E+01  0.69553872145E+02  0.00000000000E+00 0.  1.
          2    1    1    2  501    0  0.16388731907E+03 -0.90860565924E+02  0.78347159878E+03  0.80556963814E+03  0.00000000000E+00 0. -1.
<scales pt_clust_3="129.96480" pt_clust_4="14000.00000" pt_clust_5="69.14240" pt_clust_6="157.29465"></scales>
<clustering>
<clus scale="   69.142">  2  5  1 -1</clus>
<clus scale="  129.965">  2  3  1 -1</clus>
<clus scale="  157.295">  2  6  1 -1</clus>
<clus scale="   69.142">  2  3  1 -1</clus>
</clustering>
</event>
<event>
 6    0  0.1230761E+002  0.9962124E+02  0.7546771E-02  0.1281094E+00
         21   -1    0    0  505  502  0.00000000000E+00  0.00000000000E+00  0.40572052841E+03  0.40572052841E+03  0.00000000000E+00 0.  1.
          2   -1    0    0  503    0 -0.00000000000E+00 -0.00000000000E+00 -0.48169337699E+04  0.48169337699E+04  0.00000000000E+00 0. -1.
         21    1    1    2  503  504  0.34607279993E+02  0.84052412250E+00 -0.99248467617E+03  0.99308821499E+03  0.00000000000E+00 0. -1.
         21    1    1    2  504  502 -0.10000256910E+03  0.32822508074E+02  0.37142488585E+03  0.38604957803E+03  0.00000000000E+00 0.  1.
         21    1    1    2  505  501  0.69730929674E+02  0.24498609261E+02 -0.25164491641E+02  0.78075835240E+02  0.00000000000E+00 0. -1.
          2    1    1    2  501    0 -0.43356405701E+01 -0.58161641458E+02 -0.37649889596E+04  0.37654406701E+04  0.00000000000E+00 0. -1.
<scales pt_clust_3="34.61749" pt_clust_4="99.62124" pt_clust_5="14000.00000" pt_clust_6="64.58764"></scales>
<clustering>
<clus scale="   34.617">  2  3  1 -1</clus>
<clus scale="   64.588">  2  6  1 -1</clus>
<clus scale="   99.621">  1  4  2 -1</clus>
<clus scale="   99.621">  1  3  2 -1</clus>
</clustering>
</event>
<event>
 6    0  0.1230761E+002  0.7940448E+02  0.7546771E-02  0.1330750E+00
          1   -1    0    0  505    0 -0.00000000000E+00  0.00000000000E+00  0.16728106309E+04  0.16728106309E+04  0.00000000000E+00 0. -1.
         21   -1    0    0  504  502  0.00000000000E+00 -0.00000000000E+00 -0.26890447023E+02  0.26890447023E+02  0.00000000000E+00 0.  1.
         21    1    1    2  503  502  0.12564069040E+02 -0.52709337014E+02  0.47354521624E+02  0.71962356532E+02  0.00000000000E+00 0.  1.
         21    1    1    2  504  501 -0.62827897998E+02  0.98632302150E+02  0.29153401789E+03  0.31411424574E+03  0.00000000000E+00 0.  1.
         21    1    1    2  505  503  0.19393775998E+02  0.32039781332E+02  0.20394008849E+03  0.20735049031E+03  0.00000000000E+00 0.  1.
          1    1    1    2  501    0  0.30870052959E+02 -0.77962746468E+02  0.11030915559E+04  0.11062739853E+04  0.00000000000E+00 0. -1.
<scales pt_clust_3="53.11237" pt_clust_4="14000.00000" pt_clust_5="37.45218" pt_clust_6="79.40448"></scales>
<clustering>
<clus scale="   37.452">  1  5  2 -1</clus>
<clus scale="   53.112">  2  3  1 -1</clus>
<clus scale="   79.404">  1  6  2 -1</clus>
<clus scale="   53.112">  2  3  1 -1</clus>
</clustering>
</event>
<event>
 6    0  0.1230761E+002  0.1793404E+03  0.7546771E-02  0.1168443E+00
          2   -1    0    0  503    0 -0.00000000000E+00  0.00000000000E+00  0.28362694888E+04  0.28362694888E+04  0.00000000000E+00 0.  1.
         21   -1    0    0  501  502  0.00000000000E+00 -0.00000000000E+00 -0.85617226137E+02  0.85617226137E+02  0.00000000000E+00 0. -1.
         21    1    1    2  503  505  0.78886545952E+02 -0.99281887980E+01  0.41120449155E+03  0.41882071335E+03  0.00000000000E+00 0.  1.
         21    1    1    2  504  502  0.67984377944E+02  0.81907452525E+02  0.40939578761E+01  0.10652448974E+03  0.00000000000E+00 0. -1.
         21    1    1    2  505  504  0.59677240499E+02  0.34518106680E+02  0.23201841988E+02  0.72740622722E+02  0.00000000000E+00 0. -1.
          2    1    1    2  501    0 -0.20654816439E+03 -0.10649737041E+03  0.23121519712E+04  0.23238008891E+04  0.00000000000E+00 0.  1.
<scales pt_clust_3="79.50884" pt_clust_4="31.56650" pt_clust_5="31.56650" pt_clust_6="174.99841"></scales>
<clustering>
<clus scale="   31.566">  4  5 -1 -1</clus>
<clus scale="   79.509">  1  3  2 -1</clus>
<clus scale="  174.998">  1  6  2 -1</clus>
<clus scale="  179.340">  2  3  1 -1</clus>
</clustering>
</event>
<event>
 6    0  0.1230761E+002  0.1230392E+03  0.7546771E-02  0.1238166E+00
         21   -1    0    0  501  502  0.00000000000E+00  0.00000000000E+00  0.60039921359E+02  0.60039921359E+02  0.00000000000E+00 0.  1.
          2   -1    0    0  504    0 -0.00000000000E+00 -0.00000000000E+00 -0.13063237860E+04  0.13063237860E+04  0.00000000000E+00 0.  1.
         21    1    1    2  503  505 -0.49266266316E+02 -0.13171687026E+02 -0.30979209185E+02  0.59668833888E+02  0.00000000000E+00 0.  1.
         21    1    1    2  504  503 -0.39913730496E+02 -0.58773276808E+02 -0.19832048193E+03  0.21066185583E+03  0.00000000000E+00 0.  1.
         21    1    1    2  505  502 -0.59381460783E+02 -0.22203172224E+02  0.56106136335E+00  0.63399160337E+02  0.00000000000E+00 0.  1.
          2    1    1    2  501    0  0.14856145759E+03  0.94148136058E+02 -0.10175452349E+04  0.10326338573E+04  0.00000000000E+00 0.  1.
<scales pt_clust_3="30.60945" pt_clust_4="71.04508" pt_clust_5="30.60945" pt_clust_6="118.21124"></scales>
<clustering>
<clus scale="   30.609">  3  5 -1 -1</clus>
<clus scale="   71.045">  2  4  1 -1</clus>
<clus scale="  118.211">  2  6  1 -1</clus>
<clus scale="  123.039">  1  3  2 -1</clus>
</clustering>
</event>
<event>
 6    0  0.3076349E+002  0.1473112E+03  0.7546771E-02  0.1203816E+00
          2   -1    0    0  504    0 -0.00000000000E+00  0.00000000000E+00  0.32044675963E+04  0.32044675963E+04  0.00000000000E+00 0.  1.
         21   -1    0    0  505  502  0.00000000000E+00 -0.00000000000E+00 -0.10781921737E+04  0.10781921737E+04  0.00000000000E+00 0. -1.
         21    1    1    2  503  502  0.15909584983E+02 -0.14806408401E+03 -0.96070006535E+03  0.97217318592E+03  0.00000000000E+00 0. -1.
         21    1    1    2  504  503 -0.10748729353E+02  0.74183223240E+02  0.17569627476E+03  0.19101797496E+03  0.00000000000E+00 0. -1.
         21    1    1    2  505  501 -0.62071934414E+02  0.76911945001E+01 -0.94007919776E+02  0.11291398716E+03  0.00000000000E+00 0.  1.
          2    1    1    2  501    0  0.56911078784E+02  0.66189666274E+02  0.30052871331E+04  0.30065546220E+04  0.00000000000E+00 0.  1.
<scales pt_clust_3="147.31119" pt_clust_4="75.08917" pt_clust_5="62.54662" pt_clust_6="14000.00000"></scales>
<clustering>
<clus scale="   62.547">  2  5  1 -1</clus>
<clus scale="   75.089">  1  4  2 -1</clus>
<clus scale="  147.311">  2  3  1 -1</clus>
<clus scale="   62.547">  2  3  1 -1</clus>
</clustering>
</event>
<event>
 6    0  0.1230761E+002  0.1485626E+03  0.7546771E-02  0.1202251E+00
          2   -1    0    0  505    0 -0.00000000000E+00  0.00000000000E+00  0.35502901499E+04  0.35502901499E+04  0.00000000000E+00 0. -1.
         21   -1    0    0  501  502  0.00000000000E+00 -0.00000000000E+00 -0.17740819767E+02  0.17740819767E+02  0.00000000000E+00 0.  1.
         21    1    1    2  503  502 -0.28209260850E+02 -0.51145841759E+02  0.73616212351E+02  0.93973433734E+02  0.00000000000E+00 0.  1.
         21    1    1    2  504  503 -0.47876974003E+02 -0.21806854154E+02  0.20725659940E+03  0.21382946832E+03  0.00000000000E+00 0. -1.
         21    1    1    2  505  504 -0.35106084256E+02 -0.42580482853E+02  0.36991304411E+03  0.37400694495E+03  0.00000000000E+00 0. -1.
          2    1    1    2  501    0  0.11119231911E+03  0.11553317877E+03  0.28817634743E+04  0.28862211227E+04  0.00000000000E+00 0. -1.
<scales pt_clust_3="58.40941" pt_clust_4="36.46636" pt_clust_5="36.46636" pt_clust_6="143.79116"></scales>
<clustering>
<clus scale="   36.466">  4  5 -1 -1</clus>
<clus scale="   58.409">  2  3  1 -1</clus>
<clus scale="  143.791">  1  6  2 -1</clus>
<clus scale="   58.409">  2  3  1 -1</clus>
</clustering>
</event>
<event>
 6    0  0.1230761E+002  0.1932744E+03  0.7546771E-02  0.1155541E+00
         21   -1    0    0  504  502  0.00000000000E+00  0.00000000000E+00  0.22281414762E+03  0.22281414762E+03  0.00000000000E+00 0. -1.
          2   -1    0    0  503    0 -0.00000000000E+00 -0.00000000000E+00 -0.21983941013E+04  0.21983941013E+04  0.00000000000E+00 0. -1.
         21    1    1    2  503  505 -0.15061473911E+02  0.72951222924E+02  0.97311403156E+02  0.12254892128E+03  0.00000000000E+00 0. -1.
         21    1    1    2  504  501 -0.30673941857E+02  0.70823084368E+02 -0.87511877652E+02  0.11668388371E+03  0.00000000000E+00 0. -1.
         21    1    1    2  505  502 -0.43250546190E+02  0.20025336373E+02  0.88082642313E+02  0.10015076495E+03  0.00000000000E+00 0. -1.
          2    1    1    2  501    0  0.88985961958E+02 -0.16379964367E+03 -0.20734621215E+04  0.20818246789E+04  0.00000000000E+00 0. -1.
<scales pt_clust_3="45.10235" pt_clust_4="77.18031" pt_clust_5="45.10235" pt_clust_6="184.86674"></scales>
<clustering>
<clus scale="   45.102">  3  5 -1 -1</clus>
<clus scale="   77.180">  1  4  2 -1</clus>
<clus scale="  184.867">  2  6  1 -1</clus>
<clus scale="   77.180">  1  3  2 -1</clus>
</clustering>
</event>
<event>
 6    0  0.1230761E+002  0.1597803E+03  0.7546771E-02  0.1188945E+00
         21   -1    0    0  503  502  0.00000000000E+00  0.00000000000E+00  0.54557971380E+03  0.54557971380E+03  0.00000000000E+00 0. -1.
          1   -1    0    0  505    0 -0.00000000000E+00 -0.00000000000E+00 -0.20533997861E+04  0.20533997861E+04  0.00000000000E+00 0.  1.
         21    1    1    2  503  501 -0.31108282148E+02  0.32271114210E+02  0.55893856339E+02  0.71646864599E+02  0.00000000000E+00 0. -1.
         21    1    1    2  504  502  0.17809760101E+03  0.28977765795E+02  0.45860494247E+03  0.49282548600E+03  0.00000000000E+00 0. -1.
         21    1    1    2  505  504  0.19080949551E+02  0.26334174697E+02 -0.21221555953E+03  0.21469283896E+03  0.00000000000E+00 0.  1.
          1    1    1    2  501    0 -0.16607026842E+03 -0.87583054701E+02 -0.18101033115E+04  0.18198143103E+04  0.00000000000E+00 0.  1.
<scales pt_clust_3="44.84823" pt_clust_4="159.78034" pt_clust_5="32.52032" pt_clust_6="14000.00000"></scales>
<clustering>
<clus scale="   32.520">  2  5  1 -1</clus>
<clus scale="   44.848">  1  3  2 -1</clus>
<clus scale="  159.780">  1  4  2 -1</clus>
<clus scale="   44.848">  1  3  2 -1</clus>
</clustering>
</event>
<event>
 6    0  0.1230761E+002  0.1038566E+03  0.7546771E-02  0.1272389E+00
         21   -1    0    0  505  502  0.00000000000E+00  0.00000000000E+00  0.42492150391E+02  0.42492150391E+02  0.00000000000E+00 0.  1.
          2   -1    0    0  503    0 -0.00000000000E+00 -0.00000000000E+00 -0.24631577474E+04  0.24631577474E+04  0.00000000000E+00 0. -1.
         21    1    1    2  503  504  0.24496790641E+02 -0.44357924706E+02 -0.22811533292E+03  0.23367567984E+03  0.00000000000E+00 0. -1.
         21    1    1    2  504  502  0.61946920673E+02  0.46923486823E+02 -0.50675109683E+02  0.92775003842E+02  0.00000000000E+00 0.  1.
         21    1    1    2  505  501 -0.71639451129E+01  0.50262636806E+02 -0.19033809179E+02  0.54221219648E+02  0.00000000000E+00 0.  1.
          2    1    1    2  501    0 -0.79279766201E+02 -0.52828198923E+02 -0.21228413452E+04  0.21249779944E+04  0.00000000000E+00 0. -1.
<scales pt_clust_3="50.67266" pt_clust_4="14000.00000" pt_clust_5="49.99421" pt_clust_6="103.85655"></scales>
<clustering>
<clus scale="   50.673">  2  3  1 -1</clus>
<clus scale="   49.994">  1  5  2 -1</clus>
<clus scale="  103.857">  2  6  1 -1</clus>
<clus scale="   49.994">  1  3  2 -1</clus>
</clustering>
</event>
<event>
 6    0  0.1230761E+002  0.1615057E+03  0.7546771E-02  0.1187007E+00
         21   -1    0    0  503  502  0.00000000000E+00  0.00000000000E+00  0.17209663899E+03  0.17209663899E+03  0.00000000000E+00 0.  1.
          2   -1    0    0  504    0 -0.00000000000E+00 -0.00000000000E+00 -0.32437720585E+04  0.32437720585E+04  0.00000000000E+00 0.  1.
         21    1    1    2  503  501  0.14262580858E+03 -0.55091276150E+02  0.81517758608E+02  0.17326948650E+03  0.00000000000E+00 0.  1.
         21    1    1    2  504  505 -0.21884247870E+02  0.48699929364E+02 -0.10004745126E+04  0.10018981254E+04  0.00000000000E+00 0. -1.
         21    1    1    2  505  502 -0.21866651873E+03  0.26697216996E+02 -0.24154460738E+03  0.32691219794E+03  0.00000000000E+00 0.  1.
          2    1    1    2  501    0  0.97924958014E+02 -0.20305870209E+02 -0.19111740582E+04  0.19137888877E+04  0.00000000000E+00 0.  1.
<scales pt_clust_3="161.50566" pt_clust_4="53.39104" pt_clust_5="14000.00000" pt_clust_6="82.05481"></scales>
<clustering>
<clus scale="   53.391">  2  4  1 -1</clus>
<clus scale="   82.055">  2  6  1 -1</clus>
<clus scale="  161.506">  1  3  2 -1</clus>
<clus scale="  161.506">  1  3  2 -1</clus>
</clustering>
</event>
<event>
 6    0  0.1230761E+002  0.8560972E+02  0.7546771E-02  0.1313846E+00
         -3   -1    0    0    0  501 -0.00000000000E+00  0.00000000000E+00  0.14192236052E+04  0.14192236052E+04  0.00000000000E+00 0. -1.
         21   -1    0    0  503  502  0.00000000000E+00 -0.00000000000E+00 -0.35273038871E+02  0.35273038871E+02  0.00000000000E+00 0. -1.
         21    1    1    2  503  505  0.14339696698E+02 -0.33518435622E+02  0.82963656020E+02  0.90620531052E+02  0.00000000000E+00 0. -1.
         21    1    1    2  504  502  0.66576303009E+02  0.14671670231E+02  0.18262973660E+02  0.70577604356E+02  0.00000000000E+00 0. -1.
         21    1    1    2  505  501  0.33467006179E+02 -0.15892040320E+02  0.51419611956E+03  0.51552909405E+03  0.00000000000E+00 0. -1.
         -3    1    1    2    0  504 -0.11438300589E+03  0.34738805711E+02  0.76852781714E+03  0.77776941465E+03  0.00000000000E+00 0. -1.
<scales pt_clust_3="36.45699" pt_clust_4="14000.00000" pt_clust_5="37.63136" pt_clust_6="85.60972"></scales>
<clustering>
<clus scale="   36.457">  2  3  1 -1</clus>
<clus scale="   37.631">  1  5  2 -1</clus>
<clus scale="   85.610">  1  6  2 -1</clus>
<clus scale="   36.457">  2  3  1 -1</clus>
</clustering>
</event>
<event>
 6    0  0.1230761E+002  0.1187904E+03  0.7546771E-02  0.1245106E+00
          1   -1    0    0  503    0 -0.00000000000E+00  0.00000000000E+00  0.79672995549E+02  0.79672995549E+02  0.00000000000E+00 0.  1.
         21   -1    0    0  505  502  0.00000000000E+00 -0.00000000000E+00 -0.19063109013E+04  0.19063109013E+04  0.00000000000E+00 0. -1.
         21    1    1    2  503  504  0.33461854770E+02  0.18546396128E+02  0.39644902192E+02  0.55094308270E+02  0.00000000000E+00 0.  1.
         21    1    1    2  504  502 -0.30762290936E+02  0.16942904335E+01 -0.14764180720E+03  0.15082205541E+03  0.00000000000E+00 0.  1.
         21    1    1    2  505  501 -0.92474068958E+02  0.11209100878E+02 -0.16711561324E+04  0.16737502551E+04  0.00000000000E+00 0. -1.
          1    1    1    2  501    0  0.89774505124E+02 -0.31449787440E+02 -0.47484868271E+02  0.10631727806E+03  0.00000000000E+00 0.  1.
<scales pt_clust_3="38.14326" pt_clust_4="30.80891" pt_clust_5="14000.00000" pt_clust_6="118.79041"></scales>
<clustering>
<clus scale="   30.809">  2  4  1 -1</clus>
<clus scale="   38.143">  1  3  2 -1</clus>
<clus scale="  118.790">  1  6  2 -1</clus>
<clus scale="   30.809">  2  3  1 -1</clus>
</clustering>
</event>
<event>
 6    0  0.1230761E+002  0.1339599E+03  0.7546771E-02  0.1221696E+00
          1   -1    0    0  505    0 -0.00000000000E+00  0.00000000000E+00  0.15766551940E+04  0.15766551940E+04  0.00000000000E+00 0. -1.
         21   -1    0    0  503  502  0.00000000000E+00 -0.00000000000E+00 -0.25170996492E+03  0.25170996492E+03  0.00000000000E+00 0.  1.
         21    1    1    2  503  504  0.44303513697E+02  0.58013035707E+02 -0.11305754531E+03  0.13457459712E+03  0.00000000000E+00 0. -1.
         21    1    1    2  504  501  0.58297585152E+02  0.17486510486E+02 -0.11414522359E+03  0.12935810200E+03  0.00000000000E+00 0.  1.
         21    1    1    2  505  502 -0.22245820066E+02 -0.21583101176E+02  0.47764288023E+02  0.56939739876E+02  0.00000000000E+00 0.  1.
          1    1    1    2  501    0 -0.80355278782E+02 -0.53916445017E+02  0.15043837100E+04  0.15074927200E+04  0.00000000000E+00 0. -1.
<scales pt_clust_3="38.88568" pt_clust_4="38.88568" pt_clust_5="30.99527" pt_clust_6="127.01592"></scales>
<clustering>
<clus scale="   30.995">  1  5  2 -1</clus>
<clus scale="   38.886">  3  4 -1 -1</clus>
<clus scale="  127.016">  1  6  2 -1</clus>
<clus scale="  133.960">  2  3  1 -1</clus>
</clustering>
</event>
<event>
 6    0  0.1230761E+002  0.9922806E+02  0.7546771E-02  0.1281928E+00
         21   -1    0    0  504  502  0.00000000000E+00  0.00000000000E+00  0.75930085136E+02  0.75930085136E+02  0.00000000000E+00 0.  1.
         -1   -1    0    0    0  501 -0.00000000000E+00 -0.00000000000E+00 -0.54859124815E+03  0.54859124815E+03  0.00000000000E+00 0. -1.
         21    1    1    2  503  505 -0.49643251851E+02  0.74696749870E+01  0.10001172425E+02  0.51188591978E+02  0.00000000000E+00 0.  1.
         21    1    1    2  504  501 -0.99647454190E+01 -0.59958449766E+02 -0.26908390185E+03  0.27586311476E+03  0.00000000000E+00 0. -1.
         21    1    1    2  505  502 -0.36175278614E+02  0.36286968404E+02  0.11331771293E+02  0.52476698633E+02  0.00000000000E+00 0.  1.
         -1    1    1    2    0  503  0.95783275884E+02  0.16201806375E+02 -0.22491020488E+03  0.24499292791E+03  0.00000000000E+00 0. -1.
<scales pt_clust_3="31.48751" pt_clust_4="60.78085" pt_clust_5="31.48751" pt_clust_6="93.99082"></scales>
<clustering>
<clus scale="   31.488">  3  5 -1 -1</clus>
<clus scale="   60.781">  2  4  1 -1</clus>
<clus scale="   93.991">  2  6  1 -1</clus>
<clus scale="   99.228">  1  3  2 -1</clus>
</clustering>
</event>
<event>
 6    0  0.1230761E+002  0.1282013E+03  0.7546771E-02  0.1230149E+00
         -1   -1    0    0    0  501 -0.00000000000E+00  0.00000000000E+00  0.19693006608E+03  0.19693006608E+03  0.00000000000E+00 0.  1.
         21   -1    0    0  503  502  0.00000000000E+00 -0.00000000000E+00 -0.81286846263E+03  0.81286846263E+03  0.00000000000E+00 0.  1.
         21    1    1    2  503  504 -0.14728492854E+02 -0.27482827844E+02 -0.56251169981E+02  0.64315071735E+02  0.00000000000E+00 0. -1.
         21    1    1    2  504  501 -0.73922674715E+02 -0.45232764320E+02 -0.48554835018E+01  0.86799426986E+02  0.00000000000E+00 0. -1.
         21    1    1    2  505  502 -0.56203184667E+02 -0.22988381652E+02 -0.65529180308E+03  0.65809924088E+03  0.00000000000E+00 0.  1.
         -1    1    1    2    0  505  0.14485435224E+03  0.95703973816E+02  0.10046006002E+03  0.20058478912E+03  0.00000000000E+00 0.  1.
<scales pt_clust_3="31.18067" pt_clust_4="128.20133" pt_clust_5="83.51489" pt_clust_6="14000.00000"></scales>
<clustering>
<clus scale="   31.181">  2  3  1 -1</clus>
<clus scale="   83.515">  2  5  1 -1</clus>
<clus scale="  128.201">  1  4  2 -1</clus>
<clus scale="   31.181">  2  3  1 -1</clus>
</clustering>
</event>
<event>
 6    0  0.1230761E+002  0.1276848E+03  0.7546771E-02  0.1230932E+00
          2   -1    0    0  503    0 -0.00000000000E+00  0.00000000000E+00  0.57651396382E+03  0.57651396382E+03  0.00000000000E+00 0. -1.
         21   -1    0    0  505  502  0.00000000000E+00 -0.00000000000E+00 -0.22490729441E+03  0.22490729441E+03  0.00000000000E+00 0.  1.
         21    1    1    2  503  504 -0.16261321234E+02  0.77730992940E+02  0.14395441481E+03  0.16440623886E+03  0.00000000000E+00 0. -1.
         21    1    1    2  504  502 -0.10449960856E+02 -0.94816578550E+02 -0.59544239760E+02  0.11244955197E+03  0.00000000000E+00 0.  1.
         21    1    1    2  505  501 -0.38096394531E+02 -0.41716696967E+02 -0.11732179800E+03  0.13021529238E+03  0.00000000000E+00 0.  1.
          2    1    1    2  501    0  0.64807676621E+02  0.58802282577E+02  0.38451829236E+03  0.39435017503E+03  0.00000000000E+00 0. -1.
<scales pt_clust_3="76.21494" pt_clust_4="127.68477" pt_clust_5="56.49441" pt_clust_6="14000.00000"></scales>
<clustering>
<clus scale="   56.494">  2  5  1 -1</clus>
<clus scale="   76.215">  1  3  2 -1</clus>
<clus scale="  127.685">  2  4  1 -1</clus>
<clus scale="   56.494">  2  3  1 -1</clus>
</clustering>
</event>
<event>
 6    0  0.1230761E+002  0.2715925E+03  0.7546771E-02  0.1100372E+00
         -2   -1    0    0    0  501 -0.00000000000E+00  0.00000000000E+00  0.40361682088E+03  0.40361682088E+03  0.00000000000E+00 0. -1.
         21   -1    0    0  504  502  0.00000000000E+00 -0.00000000000E+00 -0.57447717023E+03  0.57447717023E+03  0.00000000000E+00 0. -1.
         21    1    1    2  503  502  0.61007103803E+02 -0.69551667849E+02 -0.75024955488E+02  0.11911358093E+03  0.00000000000E+00 0. -1.
         21    1    1    2  504  505 -0.10588444393E+03 -0.21403654324E+03 -0.29875605093E+03  0.38246350843E+03  0.00000000000E+00 0. -1.
         21    1    1    2  505  501 -0.42820368227E+02  0.95455911291E+01  0.18290025677E+03  0.18808829355E+03  0.00000000000E+00 0.  1.
         -2    1    1    2    0  503  0.87697708359E+02  0.27404261996E+03  0.20020400301E+02  0.28842860821E+03  0.00000000000E+00 0. -1.
<scales pt_clust_3="88.97605" pt_clust_4="14000.00000" pt_clust_5="43.87143" pt_clust_6="271.59246"></scales>
<clustering>
<clus scale="   43.871">  1  5  2 -1</clus>
<clus scale="   88.976">  2  3  1 -1</clus>
<clus scale="  271.592">  1  6  2 -1</clus>
<clus scale="   88.976">  2  3  1 -1</clus>
</clustering>
</event>
<event>
 6    0  0.1230761E+002  0.1160280E+03  0.7546771E-02  0.1249797E+00
          1   -1    0    0  505    0 -0.00000000000E+00  0.00000000000E+00  0.20794999310E+04  0.20794999310E+04  0.00000000000E+00 0.  1.
         21   -1    0    0  504  502  0.00000000000E+00 -0.00000000000E+00 -0.94973750144E+02  0.94973750144E+02  0.00000000000E+00 0.  1.
         21    1    1    2  503  502 -0.15689802984E+02 -0.27450065548E+02  0.33133457537E+02  0.45798493693E+02  0.00000000000E+00 0.  1.
         21    1    1    2  504  501  0.71316929890E+02  0.44395255367E+02 -0.51900071239E+02  0.98745433225E+02  0.00000000000E+00 0.  1.
         21    1    1    2  505  503  0.52628814273E+02  0.44888519678E+02  0.94716206015E+02  0.11728568102E+03  0.00000000000E+00 0.  1.
          1    1    1    2  501    0 -0.10825594118E+03 -0.61833709498E+02  0.19085765886E+04  0.19126440732E+04  0.00000000000E+00 0.  1.
<scales pt_clust_3="31.61765" pt_clust_4="61.69389" pt_clust_5="116.02798" pt_clust_6="14000.00000"></scales>
<clustering>
<clus scale="   31.618">  2  3  1 -1</clus>
<clus scale="   61.694">  2  4  1 -1</clus>
<clus scale="  116.028">  2  5  1 -1</clus>
<clus scale="   31.618">  2  3  1 -1</clus>
</clustering>
</event>
<event>
 6    0  0.1230761E+002  0.6236401E+02  0.7546771E-02  0.1388171E+00
         21   -1    0    0  501  502  0.00000000000E+00  0.00000000000E+00  0.21616688755E+03  0.21616688755E+03  0.00000000000E+00 0.  1.
          1   -1    0    0  503    0 -0.00000000000E+00 -0.00000000000E+00 -0.35696305940E+04  0.35696305940E+04  0.00000000000E+00 0. -1.
         21    1    1    2  503  504 -0.36910215585E+02  0.25665526593E+01 -0.12130076495E+03  0.12681808540E+03  0.00000000000E+00 0.  1.
         21    1    1    2  504  505 -0.98257138732E+02  0.23407403299E+02 -0.18168768562E+04  0.18196823576E+04  0.00000000000E+00 0.  1.
         21    1    1    2  505  502  0.62205421676E+02 -0.28547273882E+01  0.20651082962E+03  0.21569512444E+03  0.00000000000E+00 0.  1.
          1    1    1    2  501    0  0.72961932641E+02 -0.23119228570E+02 -0.16217969150E+04  0.16236019142E+04  0.00000000000E+00 0. -1.
<scales pt_clust_3="36.99934" pt_clust_4="62.36401" pt_clust_5="14000.00000" pt_clust_6="59.74189"></scales>
<clustering>
<clus scale="   36.999">  2  3  1 -1</clus>
<clus scale="   59.742">  2  6  1 -1</clus>
<clus scale="   62.364">  2  4  1 -1</clus>
<clus scale="   62.364">  1  3  2 -1</clus>
</clustering>
</event>
<event>
 6    0  0.1230761E+002  0.1718057E+03  0.7546771E-02  0.1175978E+00
         21   -1    0    0  503  502  0.00000000000E+00  0.00000000000E+00  0.20680409631E+03  0.20680409631E+03  0.00000000000E+00 0. -1.
          2   -1    0    0  504    0 -0.00000000000E+00 -0.00000000000E+00 -0.19825865852E+04  0.19825865852E+04  0.00000000000E+00 0. -1.
         21    1    1    2  503  505 -0.24526844058E+02 -0.55057344957E+02  0.13965321053E+03  0.15210488659E+03  0.00000000000E+00 0. -1.
         21    1    1    2  504  502  0.14763319847E+02  0.26674581090E+02 -0.65081438153E+02  0.71868508272E+02  0.00000000000E+00 0.  1.
         21    1    1    2  505  501 -0.81702758748E+02 -0.90555250288E+02 -0.13799451878E+02  0.12274371273E+03  0.00000000000E+00 0. -1.
          2    1    1    2  501    0  0.91466282958E+02  0.11893801416E+03 -0.18365548094E+04  0.18426735739E+04  0.00000000000E+00 0. -1.
<scales pt_clust_3="60.17456" pt_clust_4="30.48752" pt_clust_5="14000.00000" pt_clust_6="171.80572"></scales>
<clustering>
<clus scale="   30.488">  2  4  1 -1</clus>
<clus scale="   60.175">  1  3  2 -1</clus>
<clus scale="  171.806">  2  6  1 -1</clus>
<clus scale="   60.175">  1  3  2 -1</clus>
</clustering>
</event>
<event>
 6    0  0.1230761E+002  0.2193689E+03  0.7546771E-02  0.1134354E+00
         21   -1    0    0  505  502  0.00000000000E+00  0.00000000000E+00  0.10551715168E+04  0.10551715168E+04  0.00000000000E+00 0.  1.
         -2   -1    0    0    0  501 -0.00000000000E+00 -0.00000000000E+00 -0.77235594696E+03  0.77235594696E+03  0.00000000000E+00 0.  1.
         21    1    1    2  503  502  0.13762165260E+02  0.93827973732E+02  0.35660711956E+03  0.36900098044E+03  0.00000000000E+00 0. -1.
         21    1    1    2  504  501  0.43541594536E+02  0.17482236161E+02 -0.19926071341E+02  0.50975948790E+02  0.00000000000E+00 0.  1.
         21    1    1    2  505  504 -0.15983370789E+03  0.74224400828E+02  0.64947548604E+03  0.67295949568E+03  0.00000000000E+00 0.  1.
         -2    1    1    2    0  503  0.10252994809E+03 -0.18553461072E+03 -0.70334096445E+03  0.73459103881E+03  0.00000000000E+00 0.  1.
<scales pt_clust_3="95.03109" pt_clust_4="46.92013" pt_clust_5="219.36887" pt_clust_6="14000.00000"></scales>
<clustering>
<clus scale="   46.920">  2  4  1 -1</clus>
<clus scale="   95.031">  1  3  2 -1</clus>
<clus scale="  219.369">  1  5  2 -1</clus>
<clus scale="   95.031">  1  3  2 -1</clus>
</clustering>
</event>
<event>
 6    0  0.1230761E+002  0.1579242E+03  0.7546771E-02  0.1191060E+00
         21   -1    0    0  504  502  0.00000000000E+00  0.00000000000E+00  0.35537057099E+03  0.35537057099E+03  0.00000000000E+00 0. -1.
         -2   -1    0    0    0  501 -0.00000000000E+00 -0.00000000000E+00 -0.84113372718E+03  0.84113372718E+03  0.00000000000E+00 0. -1.
         21    1    1    2  503  505 -0.91340295017E+02  0.83424351742E+02  0.28396609221E+03  0.30974088119E+03  0.00000000000E+00 0. -1.
         21    1    1    2  504  501  0.41221731028E+02 -0.16224209453E+02 -0.81985763493E+01  0.45051889367E+02  0.00000000000E+00 0.  1.
         21    1    1    2  505  502 -0.46388996181E+02  0.59085501119E+02 -0.12683908017E+02  0.76183442635E+02  0.00000000000E+00 0. -1.
         -2    1    1    2    0  503  0.96507560169E+02 -0.12628564341E+03 -0.74884676402E+03  0.76552808498E+03  0.00000000000E+00 0. -1.
<scales pt_clust_3="14000.00000" pt_clust_4="44.29962" pt_clust_5="71.55017" pt_clust_6="157.92421"></scales>
<clustering>
<clus scale="   44.300">  1  4  2 -1</clus>
<clus scale="   71.550">  1  5  2 -1</clus>
<clus scale="  157.924">  2  6  1 -1</clus>
<clus scale="   44.300">  1  3  2 -1</clus>
</clustering>
</event>
<event>
 6    0  0.1230761E+002  0.1087312E+03  0.7546771E-02  0.1262938E+00
          1   -1    0    0  505    0 -0.00000000000E+00  0.00000000000E+00  0.15116441822E+04  0.15116441822E+04  0.00000000000E+00 0.  1.
         21   -1    0    0  503  502  0.00000000000E+00 -0.00000000000E+00 -0.42818553790E+02  0.42818553790E+02  0.00000000000E+00 0.  1.
         21    1    1    2  503  504 -0.58457359367E+02 -0.17849075503E+02  0.18193138273E+02  0.63771801297E+02  0.00000000000E+00 0.  1.
         21    1    1    2  504  501 -0.34407167944E+02  0.30430853029E+02  0.19662549206E+02  0.49965046416E+02  0.00000000000E+00 0. -1.
         21    1    1    2  505  502 -0.30293207071E+02  0.65143622557E+01  0.12343394119E+03  0.12726371497E+03  0.00000000000E+00 0. -1.
          1    1    1    2  501    0  0.12315773438E+03 -0.19096139782E+02  0.13075359998E+04  0.13134621733E+04  0.00000000000E+00 0.  1.
<scales pt_clust_3="45.25674" pt_clust_4="45.25674" pt_clust_5="30.98573" pt_clust_6="95.40218"></scales>
<clustering>
<clus scale="   30.986">  1  5  2 -1</clus>
<clus scale="   45.257">  3  4 -1 -1</clus>
<clus scale="   95.402">  1  6  2 -1</clus>
<clus scale="  108.731">  2  3  1 -1</clus>
</clustering>
</event>
<event>
 6    0  0.1230761E+002  0.8916265E+02  0.7546771E-02  0.1304892E+00
          2   -1    0    0  504    0 -0.00000000000E+00  0.00000000000E+00  0.28473840198E+03  0.28473840198E+03  0.00000000000E+00 0.  1.
         21   -1    0    0  503  502  0.00000000000E+00 -0.00000000000E+00 -0.18861869509E+03  0.18861869509E+03  0.00000000000E+00 0.  1.
         21    1    1    2  503  501  0.55252814451E+02 -0.86800513594E+02 -0.13462217410E+03  0.16944123591E+03  0.00000000000E+00 0.  1.
         21    1    1    2  504  505 -0.49409954121E+02  0.32046716632E+02  0.16651487592E+03  0.17662259062E+03  0.00000000000E+00 0.  1.
         21    1    1    2  505  502 -0.35758446821E+02  0.50624051717E+02  0.67247892349E+01  0.62343274871E+02  0.00000000000E+00 0. -1.
          2    1    1    2  501    0  0.29915586491E+02  0.41297452452E+01  0.57502215845E+02  0.64949995674E+02  0.00000000000E+00 0.  1.
<scales pt_clust_3="14000.00000" pt_clust_4="44.04138" pt_clust_5="89.16265" pt_clust_6="30.19929"></scales>
<clustering>
<clus scale="   30.199">  1  6  2 -1</clus>
<clus scale="   44.041">  1  4  2 -1</clus>
<clus scale="   89.163">  1  5  2 -1</clus>
<clus scale="   89.163">  2  3  1 -1</clus>
</clustering>
</event>
<event>
 6    0  0.1230761E+002  0.1465068E+03  0.7546771E-02  0.1204832E+00
         21   -1    0    0  501  502  0.00000000000E+00  0.00000000000E+00  0.87728281144E+02  0.87728281144E+02  0.00000000000E+00 0.  1.
          1   -1    0    0  503    0 -0.00000000000E+00 -0.00000000000E+00 -0.12458909066E+04  0.12458909066E+04  0.00000000000E+00 0.  1.
         21    1    1    2  503  504  0.58844372164E+02  0.17682440419E+02 -0.31813508087E+03  0.32401428752E+03  0.00000000000E+00 0. -1.
         21    1    1    2  504  505  0.70671214180E+01 -0.65036895964E+02 -0.16753894088E+02  0.67530992951E+02  0.00000000000E+00 0. -1.
         21    1    1    2  505  502  0.57193584673E+01 -0.75263011609E+02  0.26893756605E+02  0.80128060766E+02  0.00000000000E+00 0.  1.
          1    1    1    2  501    0 -0.71630852050E+02  0.12261746715E+03 -0.85016740715E+03  0.86194584656E+03  0.00000000000E+00 0.  1.
<scales pt_clust_3="61.44370" pt_clust_4="40.07331" pt_clust_5="40.07331" pt_clust_6="140.04075"></scales>
<clustering>
<clus scale="   40.073">  4  5 -1 -1</clus>
<clus scale="   61.444">  2  3  1 -1</clus>
<clus scale="  140.041">  2  6  1 -1</clus>
<clus scale="  146.507">  1  3  2 -1</clus>
</clustering>
</event>
<event>
 6    0  0.1230761E+002  0.1011265E+03  0.7546771E-02  0.1277945E+00
         -3   -1    0    0    0  501 -0.00000000000E+00  0.00000000000E+00  0.30780518869E+03  0.30780518869E+03  0.00000000000E+00 0.  1.
         21   -1    0    0  503  502  0.00000000000E+00 -0.00000000000E+00 -0.30913926496E+03  0.30913926496E+03  0.00000000000E+00 0. -1.
         21    1    1    2  503  504  0.53775330140E+02 -0.47612935344E+01 -0.19927950377E+03  0.20646253091E+03  0.00000000000E+00 0. -1.
         21    1    1    2  504  505  0.28240419186E+02 -0.72531986735E+02 -0.65660344110E+02  0.10183168055E+03  0.00000000000E+00 0. -1.
         21    1    1    2  505  501  0.63202613543E+01  0.40418986410E+02  0.17337163711E+02  0.44432166406E+02  0.00000000000E+00 0.  1.
         -3    1    1    2    0  502 -0.88336010680E+02  0.36874293860E+02  0.24626860790E+03  0.26421807577E+03  0.00000000000E+00 0.  1.
<scales pt_clust_3="54.02371" pt_clust_4="101.12653" pt_clust_5="40.91015" pt_clust_6="14000.00000"></scales>
<clustering>
<clus scale="   40.910">  1  5  2 -1</clus>
<clus scale="   54.024">  2  3  1 -1</clus>
<clus scale="  101.127">  2  4  1 -1</clus>
<clus scale="   54.024">  2  3  1 -1</clus>
</clustering>
</event>
<event>
 6    0  0.1230761E+002  0.2008258E+03  0.7546771E-02  0.1149044E+00
          2   -1    0    0  503    0 -0.00000000000E+00  0.00000000000E+00  0.82342756307E+03  0.82342756307E+03  0.00000000000E+00 0. -1.
         21   -1    0    0  501  502  0.00000000000E+00 -0.00000000000E+00 -0.32788227522E+03  0.32788227522E+03  0.00000000000E+00 0. -1.
         21    1    1    2  503  504  0.83579551307E+01 -0.33934478695E+02  0.56325138240E+03  0.56433458518E+03  0.00000000000E+00 0. -1.
         21    1    1    2  504  505 -0.55727452848E+02 -0.12066361747E+03  0.31499107663E+02  0.13659228150E+03  0.00000000000E+00 0. -1.
         21    1    1    2  505  502 -0.51290157224E+02  0.25120485520E+03 -0.15706082919E+03  0.30067035699E+03  0.00000000000E+00 0. -1.
          2    1    1    2  501    0  0.98659654941E+02 -0.96606759031E+02  0.57855626979E+02  0.14971261462E+03  0.00000000000E+00 0. -1.
<scales pt_clust_3="34.94859" pt_clust_4="141.92478" pt_clust_5="200.82580" pt_clust_6="14000.00000"></scales>
<clustering>
<clus scale="   34.949">  1  3  2 -1</clus>
<clus scale="  141.925">  1  4  2 -1</clus>
<clus scale="  200.826">  2  5  1 -1</clus>
<clus scale="  200.826">  2  3  1 -1</clus>
</clustering>
</event>
<event>
 6    0  0.1230761E+002  0.6155723E+02  0.7546771E-02  0.1391411E+00
          1   -1    0    0  504    0 -0.00000000000E+00  0.00000000000E+00  0.19644739760E+04  0.19644739760E+04  0.00000000000E+00 0. -1.
         21   -1    0    0  501  502  0.00000000000E+00 -0.00000000000E+00 -0.90690970489E+02  0.90690970489E+02  0.00000000000E+00 0.  1.
         21    1    1    2  503  502 -0.49644927992E+02  0.29915651683E+02 -0.43173326727E+02  0.72273793533E+02  0.00000000000E+00 0.  1.
         21    1    1    2  504  505  0.40702239064E+02 -0.21249640243E+01  0.37781598680E+03  0.38000803626E+03  0.00000000000E+00 0. -1.
         21    1    1    2  505  503  0.84471543423E+02 -0.10124300095E+01  0.27095984689E+02  0.88716734887E+02  0.00000000000E+00 0.  1.
          1    1    1    2  501    0 -0.75528854495E+02 -0.26778257649E+02  0.15120443607E+04  0.15141663818E+04  0.00000000000E+00 0. -1.
<scales pt_clust_3="61.55723" pt_clust_4="40.75767" pt_clust_5="14000.00000" pt_clust_6="46.64440"></scales>
<clustering>
<clus scale="   40.758">  1  4  2 -1</clus>
<clus scale="   46.644">  1  6  2 -1</clus>
<clus scale="   61.557">  2  3  1 -1</clus>
<clus scale="   61.557">  2  3  1 -1</clus>
</clustering>
</event>
<event>
 6    0  0.1230761E+002  0.1308834E+03  0.7546771E-02  0.1226151E+00
         21   -1    0    0  504  502  0.00000000000E+00  0.00000000000E+00  0.25978891666E+03  0.25978891666E+03  0.00000000000E+00 0. -1.
          2   -1    0    0  503    0 -0.00000000000E+00 -0.00000000000E+00 -0.11362268223E+04  0.11362268223E+04  0.00000000000E+00 0. -1.
         21    1    1    2  503  505 -0.53098843737E+02  0.90053627359E+02 -0.28294669392E+03  0.30164213003E+03  0.00000000000E+00 0.  1.
         21    1    1    2  504  501 -0.21320517792E+02 -0.44045046292E+02 -0.54868138322E+01  0.49240590043E+02  0.00000000000E+00 0. -1.
         21    1    1    2  505  502  0.40351439821E+02 -0.93091061103E+02  0.21620426228E+03  0.23882727521E+03  0.00000000000E+00 0. -1.
          2    1    1    2  501    0  0.34067921708E+02  0.47082480036E+02 -0.80420866018E+03  0.80630574370E+03  0.00000000000E+00 0. -1.
<scales pt_clust_3="130.88341" pt_clust_4="48.93394" pt_clust_5="14000.00000" pt_clust_6="57.90292"></scales>
<clustering>
<clus scale="   48.934">  1  4  2 -1</clus>
<clus scale="   57.903">  2  6  1 -1</clus>
<clus scale="  130.883">  2  3  1 -1</clus>
<clus scale="   48.934">  1  3  2 -1</clus>
</clustering>
</event>
<event>
 6    0  0.1230761E+002  0.1299917E+03  0.7546771E-02  0.1227468E+00
         21   -1    0    0  504  502  0.00000000000E+00  0.00000000000E+00  0.45035992698E+03  0.45035992698E+03  0.00000000000E+00 0.  1.
          2   -1    0    0  503    0 -0.00000000000E+00 -0.00000000000E+00 -0.82722898060E+03  0.82722898060E+03  0.00000000000E+00 0.  1.
         21    1    1    2  503  505 -0.29694072602E+02 -0.22383828897E+02 -0.52627050726E+03  0.52758261965E+03  0.00000000000E+00 0. -1.
         21    1    1    2  504  501  0.11070073257E+03  0.76446907259E+02  0.39107036297E+03  0.41356355088E+03  0.00000000000E+00 0.  1.
         21    1    1    2  505  502 -0.59100683521E+02 -0.93326496297E+02 -0.22531354452E+02  0.11274035496E+03  0.00000000000E+00 0.  1.
          2    1    1    2  501    0 -0.21905976443E+02  0.39263417935E+02 -0.21913755489E+03  0.22370238209E+03  0.00000000000E+00 0.  1.
<scales pt_clust_3="37.18567" pt_clust_4="129.99168" pt_clust_5="14000.00000" pt_clust_6="49.36026"></scales>
<clustering>
<clus scale="   37.186">  2  3  1 -1</clus>
<clus scale="   49.360">  2  6  1 -1</clus>
<clus scale="  129.992">  1  4  2 -1</clus>
<clus scale="  129.992">  1  3  2 -1</clus>
</clustering>
</event>
<event>
 6    0  0.1230761E+002  0.1216864E+03  0.7546771E-02  0.1240341E+00
         -2   -1    0    0    0  501 -0.00000000000E+00  0.00000000000E+00  0.21374370357E+03  0.21374370357E+03  0.00000000000E+00 0.  1.
         21   -1    0    0  503  502  0.00000000000E+00 -0.00000000000E+00 -0.15365226411E+04  0.15365226411E+04  0.00000000000E+00 0. -1.
         21    1    1    2  503  504  0.85524871388E+02  0.17424681235E+02 -0.64072529361E+03  0.64664288832E+03  0.00000000000E+00 0. -1.
         21    1    1    2  504  505  0.46289332623E+01 -0.10177908787E+03 -0.82205140953E+03  0.82834107086E+03  0.00000000000E+00 0. -1.
         21    1    1    2  505  501 -0.15532682987E+01 -0.54872038985E+02 -0.56379921012E+01  0.55182789524E+02  0.00000000000E+00 0.  1.
         -2    1    1    2    0  502 -0.88600536352E+02  0.13922644562E+03  0.14563575774E+03  0.22009959594E+03  0.00000000000E+00 0.  1.
<scales pt_clust_3="87.09053" pt_clust_4="14000.00000" pt_clust_5="54.89402" pt_clust_6="121.68637"></scales>
<clustering>
<clus scale="   54.894">  1  5  2 -1</clus>
<clus scale="   87.091">  2  3  1 -1</clus>
<clus scale="  121.686">  1  6  2 -1</clus>
<clus scale="   87.091">  2  3  1 -1</clus>
</clustering>
</event>
<event>
 6    0  0.1230761E+002  0.8608820E+02  0.7546771E-02  0.1312611E+00
          2   -1    0    0  504    0 -0.00000000000E+00  0.00000000000E+00  0.12982909118E+04  0.12982909118E+04  0.00000000000E+00 0.  1.
         21   -1    0    0  503  502  0.00000000000E+00 -0.00000000000E+00 -0.53822413911E+02  0.53822413911E+02  0.00000000000E+00 0. -1.
         21    1    1    2  503  501 -0.25526930647E+02 -0.43904219818E+02  0.99524072852E+02  0.11173292166E+03  0.00000000000E+00 0. -1.
         21    1    1    2  504  505 -0.65157245529E+02 -0.15313761293E+02  0.41780697490E+03  0.42313431225E+03  0.00000000000E+00 0.  1.
         21    1    1    2  505  502  0.89972089718E+02 -0.23642320419E+02  0.80215003531E+01  0.93371734004E+02  0.00000000000E+00 0. -1.
          2    1    1    2  501    0  0.71208645785E+00  0.82860301530E+02  0.71911594975E+03  0.72387435776E+03  0.00000000000E+00 0.  1.
<scales pt_clust_3="50.78587" pt_clust_4="68.91129" pt_clust_5="86.08820" pt_clust_6="14000.00000"></scales>
<clustering>
<clus scale="   50.786">  2  3  1 -1</clus>
<clus scale="   68.911">  1  4  2 -1</clus>
<clus scale="   86.088">  2  5  1 -1</clus>
<clus scale="   50.786">  2  3  1 -1</clus>
</clustering>
</event>
<event>
 6    0  0.1230761E+002  0.5720557E+02  0.7546771E-02  0.1409947E+00
          2   -1    0    0  504    0 -0.00000000000E+00  0.00000000000E+00  0.17949847542E+04  0.17949847542E+04  0.00000000000E+00 0.  1.
         21   -1    0    0  505  502  0.00000000000E+00 -0.00000000000E+00 -0.66093086502E+03  0.66093086502E+03  0.00000000000E+00 0. -1.
         21    1    1    2  503  501  0.61660209135E+02  0.58333116581E+02 -0.58883555071E+03  0.59492187693E+03  0.00000000000E+00 0. -1.
         21    1    1    2  504  502  0.23141757758E+02 -0.90482462066E+02  0.11254199766E+04  0.11292885993E+04  0.00000000000E+00 0.  1.
         21    1    1    2  505  503 -0.54672327509E+02 -0.19654500953E+01 -0.55043823028E+02  0.77606371149E+02  0.00000000000E+00 0. -1.
          2    1    1    2  501    0 -0.30129639384E+02  0.34114795580E+02  0.65251328635E+03  0.65409877183E+03  0.00000000000E+00 0.  1.
<scales pt_clust_3="57.20557" pt_clust_4="14000.00000" pt_clust_5="54.99416" pt_clust_6="45.51499"></scales>
<clustering>
<clus scale="   45.515">  1  6  2 -1</clus>
<clus scale="   54.994">  2  5  1 -1</clus>
<clus scale="   57.206">  2  3  1 -1</clus>
<clus scale="   54.994">  2  3  1 -1</clus>
</clustering>
</event>
<event>
 6    0  0.1230761E+002  0.9396871E+02  0.7546771E-02  0.1293516E+00
         21   -1    0    0  503  502  0.00000000000E+00  0.00000000000E+00  0.78337031409E+01  0.78337031409E+01  0.00000000000E+00 0.  1.
          2   -1    0    0  505    0 -0.00000000000E+00 -0.00000000000E+00 -0.34913853276E+04  0.34913853276E+04  0.00000000000E+00 0. -1.
         21    1    1    2  503  501  0.30432147922E+02 -0.25423535928E+02 -0.24409511577E+03  0.24729516240E+03  0.00000000000E+00 0.  1.
         21    1    1    2  504  502 -0.58012298242E+02  0.95295704567E+02 -0.83770509770E+03  0.84510149022E+03  0.00000000000E+00 0.  1.
         21    1    1    2  505  504  0.29476162304E+02  0.36816812710E+02 -0.56002775648E+03  0.56201015104E+03  0.00000000000E+00 0.  1.
          2    1    1    2  501    0 -0.18960119834E+01 -0.10668898135E+03 -0.18417236545E+04  0.18448122271E+04  0.00000000000E+00 0. -1.
<scales pt_clust_3="39.65440" pt_clust_4="93.96871" pt_clust_5="47.45186" pt_clust_6="14000.00000"></scales>
<clustering>
<clus scale="   39.654">  1  3  2 -1</clus>
<clus scale="   47.452">  2  5  1 -1</clus>
<clus scale="   93.969">  1  4  2 -1</clus>
<clus scale="   39.654">  1  3  2 -1</clus>
</clustering>
</event>
<event>
 6    0  0.1230761E+002  0.8328866E+02  0.7546771E-02  0.1319970E+00
          1   -1    0    0  503    0 -0.00000000000E+00  0.00000000000E+00  0.20706833581E+04  0.20706833581E+04  0.00000000000E+00 0.  1.
         21   -1    0    0  505  502  0.00000000000E+00 -0.00000000000E+00 -0.23104105252E+03  0.23104105252E+03  0.00000000000E+00 0.  1.
         21    1    1    2  503  502 -0.33662751257E+02  0.29728831209E+02 -0.40819040351E+02  0.60689194116E+02  0.00000000000E+00 0. -1.
         21    1    1    2  504  501 -0.55729720688E+02  0.86786660776E+02  0.85185462906E+03  0.85807577480E+03  0.00000000000E+00 0.  1.
         21    1    1    2  505  504  0.20151374929E+02 -0.79337005300E+02 -0.16636169215E+03  0.18540941437E+03  0.00000000000E+00 0.  1.
          1    1    1    2  501    0  0.69241097016E+02 -0.37178486686E+02  0.11949684091E+04  0.11975500274E+04  0.00000000000E+00 0.  1.
<scales pt_clust_3="44.91085" pt_clust_4="14000.00000" pt_clust_5="51.90888" pt_clust_6="83.28866"></scales>
<clustering>
<clus scale="   44.911">  2  3  1 -1</clus>
<clus scale="   51.909">  2  5  1 -1</clus>
<clus scale="   83.289">  1  6  2 -1</clus>
<clus scale="   44.911">  2  3  1 -1</clus>
</clustering>
</event>
<event>
 6    0  0.1230761E+002  0.3443234E+03  0.7546771E-02  0.1064969E+00
         21   -1    0    0  501  502  0.00000000000E+00  0.00000000000E+00  0.77369546053E+02  0.77369546053E+02  0.00000000000E+00 0.  1.
          2   -1    0    0  503    0 -0.00000000000E+00 -0.00000000000E+00 -0.18878894494E+04  0.18878894494E+04  0.00000000000E+00 0. -1.
         21    1    1    2  503  505  0.36385901928E+01  0.34639921793E+02 -0.59337308739E+02  0.68804649035E+02  0.00000000000E+00 0.  1.
         21    1    1    2  504  502 -0.18233062582E+03  0.84769771208E+02 -0.19845414496E+03  0.28251445781E+03  0.00000000000E+00 0.  1.
         21    1    1    2  505  504 -0.71101413739E+02  0.69880419311E+02 -0.17876986613E+03  0.20468841950E+03  0.00000000000E+00 0.  1.
          2    1    1    2  501    0  0.24979344936E+03 -0.18929011231E+03 -0.13739585835E+04  0.14092514691E+04  0.00000000000E+00 0. -1.
<scales pt_clust_3="30.29949" pt_clust_4="88.60068" pt_clust_5="88.60068" pt_clust_6="313.41269"></scales>
<clustering>
<clus scale="   30.299">  3  5 -1 -1</clus>
<clus scale="   88.601">  3  4 -1 -1</clus>
<clus scale="  313.413">  2  6  1 -1</clus>
<clus scale="  344.323">  1  3  2 -1</clus>
</clustering>
</event>
<event>
 6    0  0.1230761E+002  0.1030905E+03  0.7546771E-02  0.1273928E+00
         -2   -1    0    0    0  501 -0.00000000000E+00  0.00000000000E+00  0.77337649262E+03  0.77337649262E+03  0.00000000000E+00 0. -1.
         21   -1    0    0  505  502  0.00000000000E+00 -0.00000000000E+00 -0.96189553996E+03  0.96189553996E+03  0.00000000000E+00 0.  1.
         21    1    1    2  503  502 -0.29485626290E+02 -0.10093839261E+02 -0.34039683374E+02  0.46151790788E+02  0.00000000000E+00 0.  1.
         21    1    1    2  504  501 -0.69416760489E+02  0.10266080383E+03  0.40246115525E+03  0.42110914116E+03  0.00000000000E+00 0.  1.
         21    1    1    2  505  504  0.57828515596E+02 -0.11922830943E+02 -0.90573963802E+03  0.90766215245E+03  0.00000000000E+00 0.  1.
         -2    1    1    2    0  503  0.41073871183E+02 -0.80644133629E+02  0.34879911879E+03  0.36034894818E+03  0.00000000000E+00 0. -1.
<scales pt_clust_3="31.16549" pt_clust_4="14000.00000" pt_clust_5="36.17196" pt_clust_6="103.09047"></scales>
<clustering>
<clus scale="   31.165">  2  3  1 -1</clus>
<clus scale="   36.172">  2  5  1 -1</clus>
<clus scale="  103.090">  1  6  2 -1</clus>
<clus scale="   31.165">  2  3  1 -1</clus>
</clustering>
</event>
<event>
 6    0  0.1230761E+002  0.1151620E+03  0.7546771E-02  0.1251299E+00
          2   -1    0    0  503    0 -0.00000000000E+00  0.00000000000E+00  0.80028402109E+02  0.80028402109E+02  0.00000000000E+00 0.  1.
         21   -1    0    0  504  502  0.00000000000E+00 -0.00000000000E+00 -0.45285032980E+03  0.45285032980E+03  0.00000000000E+00 0.  1.
         21    1    1    2  503  505  0.70276493433E+01 -0.40368837554E+02 -0.45189309068E+02  0.61000857000E+02  0.00000000000E+00 0. -1.
         21    1    1    2  504  501 -0.18915517112E+02 -0.73209446078E+02 -0.27979266382E+03  0.28982987166E+03  0.00000000000E+00 0.  1.
         21    1    1    2  505  502  0.31932260556E+02 -0.10065762958E+02 -0.45850782034E+02  0.56773964643E+02  0.00000000000E+00 0. -1.
          2    1    1    2  501    0 -0.20044392787E+02  0.12364404659E+03 -0.19891727712E+01  0.12527403860E+03  0.00000000000E+00 0.  1.
<scales pt_clust_3="43.19072" pt_clust_4="115.16196" pt_clust_5="33.48117" pt_clust_6="14000.00000"></scales>
<clustering>
<clus scale="   33.481">  2  5  1 -1</clus>
<clus scale="   43.191">  2  3  1 -1</clus>
<clus scale="  115.162">  2  4  1 -1</clus>
<clus scale="   33.481">  2  3  1 -1</clus>
</clustering>
</event>
<event>
 6    0  0.1230761E+002  0.1685328E+03  0.7546771E-02  0.1179387E+00
          2   -1    0    0  505    0 -0.00000000000E+00  0.00000000000E+00  0.24466937667E+03  0.24466937667E+03  0.00000000000E+00 0. -1.
         21   -1    0    0  503  502  0.00000000000E+00 -0.00000000000E+00 -0.64644348831E+03  0.64644348831E+03  0.00000000000E+00 0. -1.
         21    1    1    2  503  501  0.65160118398E+02 -0.49201192875E+02 -0.54987314020E+02  0.98438829295E+02  0.00000000000E+00 0. -1.
         21    1    1    2  504  502  0.10240939135E+03  0.53154986631E+02 -0.44675860871E+03  0.46141780471E+03  0.00000000000E+00 0. -1.
         21    1    1    2  505  504  0.72282649427E+02  0.17553066512E+02  0.14930517630E+02  0.75867067354E+02  0.00000000000E+00 0. -1.
          2    1    1    2  501    0 -0.23985215918E+03 -0.21506860268E+02  0.85041293469E+02  0.25538916362E+03  0.00000000000E+00 0. -1.
<scales pt_clust_3="87.01187" pt_clust_4="14000.00000" pt_clust_5="74.38341" pt_clust_6="168.53282"></scales>
<clustering>
<clus scale="   74.383">  1  5  2 -1</clus>
<clus scale="   87.012">  2  3  1 -1</clus>
<clus scale="  168.533">  1  6  2 -1</clus>
<clus scale="   87.012">  2  3  1 -1</clus>
</clustering>
</event>
<event>
 6    0  0.1230761E+002  0.1712825E+03  0.7546771E-02  0.1176517E+00
         -2   -1    0    0    0  501 -0.00000000000E+00  0.00000000000E+00  0.23582023338E+03  0.23582023338E+03  0.00000000000E+00 0. -1.
         21   -1    0    0  504  502  0.00000000000E+00 -0.00000000000E+00 -0.36064187697E+04  0.36064187697E+04  0.00000000000E+00 0.  1.
         21    1    1    2  503  501 -0.36964277876E+02  0.54639941525E+01 -0.54588169400E+02  0.66151956203E+02  0.00000000000E+00 0.  1.
         21    1    1    2  504  505 -0.25352968880E+02  0.55476341256E+02 -0.19968982749E+04  0.19978296018E+04  0.00000000000E+00 0.  1.
         21    1    1    2  505  503  0.18709767957E+02  0.97394373834E+02 -0.15174861263E+04  0.15207234670E+04  0.00000000000E+00 0.  1.
         -2    1    1    2    0  502  0.43607478799E+02 -0.15833470924E+03  0.19837403434E+03  0.25753397806E+03  0.00000000000E+00 0. -1.
<scales pt_clust_3="37.36593" pt_clust_4="60.28426" pt_clust_5="60.28426" pt_clust_6="153.07936"></scales>
<clustering>
<clus scale="   37.366">  1  3  2 -1</clus>
<clus scale="   60.284">  4  5 -1 -1</clus>
<clus scale="  153.079">  1  6  2 -1</clus>
<clus scale="  171.282">  2  3  1 -1</clus>
</clustering>
</event>
<event>
 6    0  0.1230761E+002  0.1261280E+03  0.7546771E-02  0.1233317E+00
          2   -1    0    0  505    0 -0.00000000000E+00  0.00000000000E+00  0.10362561846E+04  0.10362561846E+04  0.00000000000E+00 0.  1.
         21   -1    0    0  504  502  0.00000000000E+00 -0.00000000000E+00 -0.59622630758E+02  0.59622630758E+02  0.00000000000E+00 0.  1.
         21    1    1    2  503  501 -0.38890406332E+02  0.27908698622E+02  0.33187074076E+02  0.58247240700E+02  0.00000000000E+00 0.  1.
         21    1    1    2  504  503 -0.43499316990E+02  0.51392841838E+02  0.39832868383E+01  0.67448360579E+02  0.00000000000E+00 0.  1.
         21    1    1    2  505  502 -0.53226135087E+02  0.35537373537E+02  0.22212474319E+03  0.23116082694E+03  0.00000000000E+00 0.  1.
          2    1    1    2  501    0  0.13561585841E+03 -0.11483891400E+03  0.71733844973E+03  0.73902238713E+03  0.00000000000E+00 0.  1.
<scales pt_clust_3="30.87613" pt_clust_4="30.87613" pt_clust_5="63.99942" pt_clust_6="120.69516"></scales>
<clustering>
<clus scale="   30.876">  3  4 -1 -1</clus>
<clus scale="   63.999">  1  5  2 -1</clus>
<clus scale="  120.695">  1  6  2 -1</clus>
<clus scale="  126.128">  2  3  1 -1</clus>
</clustering>
</event>
<event>
 6    0  0.1230761E+002  0.8734002E+02  0.7546771E-02  0.1309424E+00
         21   -1    0    0  503  502  0.00000000000E+00  0.00000000000E+00  0.27095453813E+03  0.27095453813E+03  0.00000000000E+00 0.  1.
         -1   -1    0    0    0  501 -0.00000000000E+00 -0.00000000000E+00 -0.19538801118E+03  0.19538801118E+03  0.00000000000E+00 0.  1.
         21    1    1    2  503  504  0.40735077113E+02  0.21671751975E+01  0.14036299147E+03  0.14617049131E+03  0.00000000000E+00 0.  1.
         21    1    1    2  504  505 -0.43870529171E+02  0.53102381937E+02 -0.11119012133E+02  0.69771905004E+02  0.00000000000E+00 0.  1.
         21    1    1    2  505  501  0.54072975910E+02  0.24159562684E+02  0.72009025442E+02  0.93235566915E+02  0.00000000000E+00 0.  1.
         -1    1    1    2    0  502 -0.50937523852E+02 -0.79429119818E+02 -0.12568647782E+03  0.15716458608E+03  0.00000000000E+00 0.  1.
<scales pt_clust_3="40.79269" pt_clust_4="63.75142" pt_clust_5="87.34002" pt_clust_6="14000.00000"></scales>
<clustering>
<clus scale="   40.793">  1  3  2 -1</clus>
<clus scale="   63.751">  1  4  2 -1</clus>
<clus scale="   87.340">  1  5  2 -1</clus>
<clus scale="   40.793">  1  3  2 -1</clus>
</clustering>
</event>
<event>
 6    0  0.1230761E+002  0.6721999E+03  0.7546771E-02  0.9765992E-01
          1   -1    0    0  504    0 -0.00000000000E+00  0.00000000000E+00  0.23251391088E+04  0.23251391088E+04  0.00000000000E+00 0. -1.
         21   -1    0    0  501  502  0.00000000000E+00 -0.00000000000E+00 -0.43589106653E+03  0.43589106653E+03  0.00000000000E+00 0.  1.
         21    1    1    2  503  502  0.10875441191E+03 -0.16266914501E+03 -0.16490907934E+02  0.19636884400E+03  0.00000000000E+00 0.  1.
         21    1    1    2  504  505 -0.10026890510E+03 -0.36061978438E+02  0.94233045862E+03  0.94833591773E+03  0.00000000000E+00 0. -1.
         21    1    1    2  505  503  0.33117629537E+03 -0.35270141246E+03  0.35988250384E+02  0.48515067673E+03  0.00000000000E+00 0.  1.
          1    1    1    2  501    0 -0.33966180219E+03  0.55143253591E+03  0.92742024117E+03  0.11311747368E+04  0.00000000000E+00 0. -1.
<scales pt_clust_3="44.71140" pt_clust_4="106.55665" pt_clust_5="44.71140" pt_clust_6="668.51319"></scales>
<clustering>
<clus scale="   44.711">  3  5 -1 -1</clus>
<clus scale="  106.557">  1  4  2 -1</clus>
<clus scale="  668.513">  1  6  2 -1</clus>
<clus scale="  672.200">  2  3  1 -1</clus>
</clustering>
</event>
<event>
 6    0  0.1230761E+002  0.9364548E+02  0.7546771E-02  0.1294256E+00
          2   -1    0    0  503    0 -0.00000000000E+00  0.00000000000E+00  0.37114816814E+04  0.37114816814E+04  0.00000000000E+00 0.  1.
         21   -1    0    0  504  502  0.00000000000E+00 -0.00000000000E+00 -0.35294635287E+02  0.35294635287E+02  0.00000000000E+00 0.  1.
         21    1    1    2  503  505 -0.90667337697E+01 -0.51433724129E+02  0.17281063570E+04  0.17288953741E+04  0.00000000000E+00 0. -1.
         21    1    1    2  504  501 -0.85986875437E+02  0.31687598097E+02  0.18123715842E+03  0.20308804547E+03  0.00000000000E+00 0.  1.
         21    1    1    2  505  502  0.50715006882E+02 -0.91241210907E+02  0.10295511709E+03  0.14661762045E+03  0.00000000000E+00 0.  1.
          2    1    1    2  501    0  0.44338602326E+02  0.11098733694E+03  0.16638884136E+04  0.16681752767E+04  0.00000000000E+00 0.  1.
<scales pt_clust_3="52.22675" pt_clust_4="14000.00000" pt_clust_5="93.64548" pt_clust_6="77.08319"></scales>
<clustering>
<clus scale="   52.227">  1  3  2 -1</clus>
<clus scale="   77.083">  1  6  2 -1</clus>
<clus scale="   93.645">  2  5  1 -1</clus>
<clus scale="   93.645">  2  3  1 -1</clus>
</clustering>
</event>
<event>
 6    0  0.1230761E+002  0.7770560E+02  0.7546771E-02  0.1335692E+00
          2   -1    0    0  503    0 -0.00000000000E+00  0.00000000000E+00  0.79610417873E+03  0.79610417873E+03  0.00000000000E+00 0.  1.
         21   -1    0    0  504  502  0.00000000000E+00 -0.00000000000E+00 -0.14001598583E+03  0.14001598583E+03  0.00000000000E+00 0.  1.
         21    1    1    2  503  505  0.49290242726E+02 -0.28428141267E+02  0.23088517366E+03  0.23779329398E+03  0.00000000000E+00 0.  1.
         21    1    1    2  504  501 -0.13137211660E+02  0.62662813346E+02 -0.25527171868E+02  0.68926417361E+02  0.00000000000E+00 0.  1.
         21    1    1    2  505  502  0.37627601597E+02 -0.87624143235E+02 -0.58642863500E+02  0.11195004385E+03  0.00000000000E+00 0.  1.
          2    1    1    2  501    0 -0.73780632663E+02  0.53389471155E+02  0.50937305461E+03  0.51745040936E+03  0.00000000000E+00 0.  1.
<scales pt_clust_3="56.90068" pt_clust_4="77.70560" pt_clust_5="14000.00000" pt_clust_6="39.70890"></scales>
<clustering>
<clus scale="   56.901">  1  3  2 -1</clus>
<clus scale="   39.709">  1  6  2 -1</clus>
<clus scale="   77.706">  2  4  1 -1</clus>
<clus scale="   77.706">  2  3  1 -1</clus>
</clustering>
</event>
<event>
 6    0  0.1230761E+002  0.1158190E+03  0.7546771E-02  0.1250158E+00
          2   -1    0    0  505    0 -0.00000000000E+00  0.00000000000E+00  0.25224461679E+03  0.25224461679E+03  0.00000000000E+00 0. -1.
         21   -1    0    0  501  502  0.00000000000E+00 -0.00000000000E+00 -0.13938519176E+03  0.13938519176E+03  0.00000000000E+00 0. -1.
         21    1    1    2  503  502 -0.19253874251E+02 -0.63663943884E+02 -0.48804087554E+02  0.82496353777E+02  0.00000000000E+00 0. -1.
         21    1    1    2  504  503  0.16473248179E+02 -0.33914536324E+02 -0.51231813977E+01  0.38050107323E+02  0.00000000000E+00 0. -1.
         21    1    1    2  505  504  0.31254570706E+02 -0.32782623674E+02  0.12231663419E+03  0.13043353711E+03  0.00000000000E+00 0. -1.
          2    1    1    2  501    0 -0.28473944633E+02  0.13036110388E+03  0.44470059800E+02  0.14064981033E+03  0.00000000000E+00 0. -1.
<scales pt_clust_3="34.45336" pt_clust_4="34.45336" pt_clust_5="45.29402" pt_clust_6="106.39570"></scales>
<clustering>
<clus scale="   34.453">  3  4 -1 -1</clus>
<clus scale="   45.294">  1  5  2 -1</clus>
<clus scale="  106.396">  1  6  2 -1</clus>
<clus scale="  115.819">  2  3  1 -1</clus>
</clustering>
</event>
<event>
 6    0  0.1230761E+002  0.2228867E+03  0.7546771E-02  0.1131749E+00
         21   -1    0    0  505  502  0.00000000000E+00  0.00000000000E+00  0.76622199691E+03  0.76622199691E+03  0.00000000000E+00 0. -1.
          3   -1    0    0  503    0 -0.00000000000E+00 -0.00000000000E+00 -0.10379908464E+03  0.10379908464E+03  0.00000000000E+00 0.  1.
         21    1    1    2  503  502 -0.11089895479E+03  0.16664487669E+03  0.11764939710E+03  0.23218629102E+03  0.00000000000E+00 0.  1.
         21    1    1    2  504  501  0.78445493757E+02 -0.14736146546E+03  0.34894670890E+03  0.38682412366E+03  0.00000000000E+00 0. -1.
         21    1    1    2  505  504 -0.80206350365E+01 -0.58490110523E+02  0.18425858583E+03  0.19348552935E+03  0.00000000000E+00 0. -1.
          3    1    1    2  501    0  0.40474096068E+02  0.39206699291E+02  0.11568220445E+02  0.57525137515E+02  0.00000000000E+00 0.  1.
<scales pt_clust_3="211.09622" pt_clust_4="42.53883" pt_clust_5="42.53883" pt_clust_6="56.34996"></scales>
<clustering>
<clus scale="   42.539">  4  5 -1 -1</clus>
<clus scale="   56.350">  2  6  1 -1</clus>
<clus scale="  211.096">  2  3  1 -1</clus>
<clus scale="  222.887">  1  3  2 -1</clus>
</clustering>
</event>
<event>
 6    0  0.1230761E+002  0.7396848E+02  0.7546771E-02  0.1347095E+00
         21   -1    0    0  503  502  0.00000000000E+00  0.00000000000E+00  0.46585771260E+03  0.46585771260E+03  0.00000000000E+00 0. -1.
          1   -1    0    0  504    0 -0.00000000000E+00 -0.00000000000E+00 -0.22436785033E+04  0.22436785033E+04  0.00000000000E+00 0.  1.
         21    1    1    2  503  501  0.34084635240E+02  0.23023914639E+02  0.21573283140E+03  0.21961902820E+03  0.00000000000E+00 0. -1.
         21    1    1    2  504  505 -0.20402902445E+02  0.26760187470E+02 -0.61010743290E+02  0.69675654703E+02  0.00000000000E+00 0.  1.
         21    1    1    2  505  502 -0.83132085244E+02 -0.77356158578E+02  0.22994876917E+03  0.25645926637E+03  0.00000000000E+00 0. -1.
          1    1    1    2  501    0  0.69450352449E+02  0.27572056470E+02 -0.21624916480E+04  0.21637822666E+04  0.00000000000E+00 0.  1.
<scales pt_clust_3="41.13055" pt_clust_4="33.65094" pt_clust_5="73.96848" pt_clust_6="14000.00000"></scales>
<clustering>
<clus scale="   33.651">  2  4  1 -1</clus>
<clus scale="   41.131">  1  3  2 -1</clus>
<clus scale="   73.968">  1  5  2 -1</clus>
<clus scale="   41.131">  1  3  2 -1</clus>
</clustering>
</event>
<event>
 6    0  0.1230761E+002  0.1042102E+03  0.7546771E-02  0.1271684E+00
         21   -1    0    0  504  502  0.00000000000E+00  0.00000000000E+00  0.64855112001E+03  0.64855112001E+03  0.00000000000E+00 0. -1.
          1   -1    0    0  503    0 -0.00000000000E+00 -0.00000000000E+00 -0.71620524404E+03  0.71620524404E+03  0.00000000000E+00 0.  1.
         21    1    1    2  503  502  0.29888647185E+02  0.17086180867E+02 -0.14994191224E+02  0.37551226047E+02  0.00000000000E+00 0. -1.
         21    1    1    2  504  505  0.67706997103E+01  0.55215573291E+02  0.35981412013E+03  0.36408900416E+03  0.00000000000E+00 0. -1.
         21    1    1    2  505  501  0.90219611562E+02 -0.89803293999E+02  0.25417784141E+03  0.28427202639E+03  0.00000000000E+00 0. -1.
          1    1    1    2  501    0 -0.12687895846E+03  0.17501539841E+02 -0.66665189434E+03  0.67884410745E+03  0.00000000000E+00 0.  1.
<scales pt_clust_3="34.42773" pt_clust_4="55.69302" pt_clust_5="104.21017" pt_clust_6="14000.00000"></scales>
<clustering>
<clus scale="   34.428">  2  3  1 -1</clus>
<clus scale="   55.693">  1  4  2 -1</clus>
<clus scale="  104.210">  1  5  2 -1</clus>
<clus scale="   55.693">  1  3  2 -1</clus>
</clustering>
</event>
<event>
 6    0  0.1230761E+002  0.2774879E+03  0.7546771E-02  0.1097069E+00
         21   -1    0    0  504  502  0.00000000000E+00  0.00000000000E+00  0.13350120622E+04  0.13350120622E+04  0.00000000000E+00 0. -1.
          1   -1    0    0  505    0 -0.00000000000E+00 -0.00000000000E+00 -0.20670682257E+04  0.20670682257E+04  0.00000000000E+00 0.  1.
         21    1    1    2  503  501 -0.38318896524E+02  0.19111886128E+03 -0.76896853748E+02  0.20954207950E+03  0.00000000000E+00 0. -1.
         21    1    1    2  504  503  0.38202763320E+02  0.46752115638E+02  0.29897562872E+03  0.30501088179E+03  0.00000000000E+00 0.  1.
         21    1    1    2  505  502  0.50767445935E+02  0.51204705400E+02  0.95411783791E+03  0.95683859874E+03  0.00000000000E+00 0. -1.
          1    1    1    2  501    0 -0.50651312731E+02 -0.28907568231E+03 -0.19082527763E+04  0.19306887279E+04  0.00000000000E+00 0.  1.
<scales pt_clust_3="277.48792" pt_clust_4="60.37559" pt_clust_5="127.80452" pt_clust_6="14000.00000"></scales>
<clustering>
<clus scale="   60.376">  1  4  2 -1</clus>
<clus scale="  127.805">  1  5  2 -1</clus>
<clus scale="  277.488">  1  3  2 -1</clus>
<clus scale="   60.376">  1  3  2 -1</clus>
</clustering>
</event>
<event>
 6    0  0.1230761E+002  0.1427136E+03  0.7546771E-02  0.1209724E+00
         21   -1    0    0  505  502  0.00000000000E+00  0.00000000000E+00  0.88650855837E+02  0.88650855837E+02  0.00000000000E+00 0.  1.
          2   -1    0    0  503    0 -0.00000000000E+00 -0.00000000000E+00 -0.84329794315E+03  0.84329794315E+03  0.00000000000E+00 0.  1.
         21    1    1    2  503  504  0.26976639202E+02 -0.22513062781E+02 -0.15677410072E+03  0.16066329922E+03  0.00000000000E+00 0. -1.
         21    1    1    2  504  502  0.66458888619E+02  0.77314756702E+02  0.28743067493E+02  0.10592695318E+03  0.00000000000E+00 0.  1.
         21    1    1    2  505  501  0.20255441571E+02  0.45091847717E+02 -0.54565876065E+02  0.73627389432E+02  0.00000000000E+00 0.  1.
          2    1    1    2  501    0 -0.11369096939E+03 -0.99893541638E+02 -0.57205017802E+03  0.59173115716E+03  0.00000000000E+00 0.  1.
<scales pt_clust_3="35.13655" pt_clust_4="142.71364" pt_clust_5="48.64778" pt_clust_6="14000.00000"></scales>
<clustering>
<clus scale="   35.137">  2  3  1 -1</clus>
<clus scale="   48.648">  1  5  2 -1</clus>
<clus scale="  142.714">  1  4  2 -1</clus>
<clus scale="   48.648">  1  3  2 -1</clus>
</clustering>
</event>
<event>
 6    0  0.1230761E+002  0.1329391E+03  0.7546771E-02  0.1223159E+00
          1   -1    0    0  505    0 -0.00000000000E+00  0.00000000000E+00  0.56717163448E+03  0.56717163448E+03  0.00000000000E+00 0.  1.
         21   -1    0    0  503  502  0.00000000000E+00 -0.00000000000E+00 -0.54766158258E+03  0.54766158258E+03  0.00000000000E+00 0.  1.
         21    1    1    2  503  501  0.20328025034E+02 -0.24030475130E+02 -0.63300881692E+02  0.70694370071E+02  0.00000000000E+00 0.  1.
         21    1    1    2  504  502  0.11165129229E+03 -0.10537653328E+01 -0.46134687658E+03  0.47466626383E+03  0.00000000000E+00 0.  1.
         21    1    1    2  505  504 -0.29708479392E+02  0.62985325208E+01  0.23140377121E+02  0.38180391734E+02  0.00000000000E+00 0. -1.
          1    1    1    2  501    0 -0.10227083793E+03  0.18785707942E+02  0.52101743306E+03  0.53129219142E+03  0.00000000000E+00 0.  1.
<scales pt_clust_3="31.31019" pt_clust_4="14000.00000" pt_clust_5="30.36882" pt_clust_6="132.93906"></scales>
<clustering>
<clus scale="   30.369">  1  5  2 -1</clus>
<clus scale="   31.310">  2  3  1 -1</clus>
<clus scale="  132.939">  1  6  2 -1</clus>
<clus scale="   31.310">  2  3  1 -1</clus>
</clustering>
</event>
<event>
 6    0  0.1230761E+002  0.6672728E+02  0.7546771E-02  0.1371589E+00
         21   -1    0    0  503  502  0.00000000000E+00  0.00000000000E+00  0.15866601381E+04  0.15866601381E+04  0.00000000000E+00 0.  1.
          3   -1    0    0  504    0 -0.00000000000E+00 -0.00000000000E+00 -0.99121796347E+02  0.99121796347E+02  0.00000000000E+00 0. -1.
         21    1    1    2  503  501  0.32554912043E+02 -0.28315276478E+01  0.10646552240E+03  0.11136762234E+03  0.00000000000E+00 0.  1.
         21    1    1    2  504  505 -0.17839030325E+02  0.41711267732E+02 -0.35883028259E+02  0.57841616296E+02  0.00000000000E+00 0. -1.
         21    1    1    2  505  502 -0.38619009364E+02  0.66242999257E+02  0.14061358785E+04  0.14082250075E+04  0.00000000000E+00 0.  1.
          3    1    1    2  501    0  0.23903127646E+02 -0.10512273934E+03  0.10819969112E+02  0.10834768834E+03  0.00000000000E+00 0. -1.
<scales pt_clust_3="32.67782" pt_clust_4="45.25191" pt_clust_5="66.72728" pt_clust_6="14000.00000"></scales>
<clustering>
<clus scale="   32.678">  1  3  2 -1</clus>
<clus scale="   45.252">  2  4  1 -1</clus>
<clus scale="   66.727">  1  5  2 -1</clus>
<clus scale="   32.678">  1  3  2 -1</clus>
</clustering>
</event>
<event>
 6    0  0.1230761E+002  0.1854969E+03  0.7546771E-02  0.1162587E+00
         21   -1    0    0  504  502  0.00000000000E+00  0.00000000000E+00  0.30969535431E+03  0.30969535431E+03  0.00000000000E+00 0. -1.
          1   -1    0    0  503    0 -0.00000000000E+00 -0.00000000000E+00 -0.44888217452E+04  0.44888217452E+04  0.00000000000E+00 0.  1.
         21    1    1    2  503  505 -0.41904289197E+02 -0.34829506412E+01 -0.25210596430E+03  0.25558857101E+03  0.00000000000E+00 0. -1.
         21    1    1    2  504  501  0.98012764011E+02  0.22937944616E+03  0.23138110511E+03  0.34023322594E+03  0.00000000000E+00 0. -1.
         21    1    1    2  505  502  0.30670242005E+00 -0.72232731789E+02 -0.43048949476E+02  0.84088487078E+02  0.00000000000E+00 0. -1.
          1    1    1    2  501    0 -0.56415177234E+02 -0.15366376373E+03 -0.41153525822E+04  0.41186068155E+04  0.00000000000E+00 0.  1.
<scales pt_clust_3="42.04879" pt_clust_4="14000.00000" pt_clust_5="72.28573" pt_clust_6="185.49686"></scales>
<clustering>
<clus scale="   42.049">  2  3  1 -1</clus>
<clus scale="   72.286">  1  5  2 -1</clus>
<clus scale="  185.497">  2  6  1 -1</clus>
<clus scale="   72.286">  1  3  2 -1</clus>
</clustering>
</event>
<event>
 6    0  0.1230761E+002  0.1154243E+03  0.7546771E-02  0.1250842E+00
         21   -1    0    0  505  502  0.00000000000E+00  0.00000000000E+00  0.92147637134E+02  0.92147637134E+02  0.00000000000E+00 0. -1.
          1   -1    0    0  504    0 -0.00000000000E+00 -0.00000000000E+00 -0.16349857448E+04  0.16349857448E+04  0.00000000000E+00 0.  1.
         21    1    1    2  503  502 -0.11578840069E+03 -0.22602549003E+02  0.37211633951E+02  0.12370341409E+03  0.00000000000E+00 0. -1.
         21    1    1    2  504  503 -0.19541301383E+02  0.22822723463E+02 -0.18907392704E+03  0.19144630854E+03  0.00000000000E+00 0.  1.
         21    1    1    2  505  501  0.10453152591E+03 -0.32221679799E+02 -0.28736704744E+03  0.30748153849E+03  0.00000000000E+00 0.  1.
          1    1    1    2  501    0  0.30798176166E+02  0.32001505338E+02 -0.11036087671E+04  0.11045021208E+04  0.00000000000E+00 0.  1.
<scales pt_clust_3="115.42434" pt_clust_4="30.04562" pt_clust_5="14000.00000" pt_clust_6="51.92551"></scales>
<clustering>
<clus scale="   30.046">  2  4  1 -1</clus>
<clus scale="   51.926">  2  6  1 -1</clus>
<clus scale="  115.424">  1  3  2 -1</clus>
<clus scale="  115.424">  1  3  2 -1</clus>
</clustering>
</event>
<event>
 6    0  0.1230761E+002  0.2023766E+03  0.7546771E-02  0.1147749E+00
         21   -1    0    0  503  502  0.00000000000E+00  0.00000000000E+00  0.33850771669E+03  0.33850771669E+03  0.00000000000E+00 0.  1.
          1   -1    0    0  504    0 -0.00000000000E+00 -0.00000000000E+00 -0.23657877031E+04  0.23657877031E+04  0.00000000000E+00 0.  1.
         21    1    1    2  503  505  0.12923420013E+02 -0.56439084204E+02  0.58937961430E+02  0.82620023651E+02  0.00000000000E+00 0. -1.
         21    1    1    2  504  502 -0.63229339536E+00 -0.14296286958E+03 -0.53123122855E+03  0.55013216599E+03  0.00000000000E+00 0. -1.
         21    1    1    2  505  501  0.48182448781E+02 -0.60594168235E+02  0.24239004757E+03  0.25445262183E+03  0.00000000000E+00 0.  1.
          1    1    1    2  501    0 -0.60473575399E+02  0.25999612202E+03 -0.17973767669E+04  0.18170906083E+04  0.00000000000E+00 0.  1.
<scales pt_clust_3="57.89978" pt_clust_4="14000.00000" pt_clust_5="127.99048" pt_clust_6="202.37658"></scales>
<clustering>
<clus scale="   57.900">  1  3  2 -1</clus>
<clus scale="  127.990">  1  5  2 -1</clus>
<clus scale="  202.377">  1  6  2 -1</clus>
<clus scale="   57.900">  1  3  2 -1</clus>
</clustering>
</event>
<event>
 6    0  0.1230761E+002  0.4139853E+03  0.7546771E-02  0.1039042E+00
          2   -1    0    0  503    0 -0.00000000000E+00  0.00000000000E+00  0.12937508821E+04  0.12937508821E+04  0.00000000000E+00 0. -1.
         21   -1    0    0  501  502  0.00000000000E+00 -0.00000000000E+00 -0.22056687156E+03  0.22056687156E+03  0.00000000000E+00 0. -1.
         21    1    1    2  503  504 -0.18864038927E+02 -0.30925107604E+02  0.61340916563E+02  0.71238488822E+02  0.00000000000E+00 0. -1.
         21    1    1    2  504  505 -0.17008895664E+03 -0.83432305466E+02  0.60541842575E+02  0.19888820344E+03  0.00000000000E+00 0. -1.
         21    1    1    2  505  502 -0.21548716356E+03 -0.21195892297E+02  0.17082713793E+02  0.21719991395E+03  0.00000000000E+00 0.  1.
          2    1    1    2  501    0  0.40444015913E+03  0.13555330537E+03  0.93421853761E+03  0.10269911474E+04  0.00000000000E+00 0. -1.
<scales pt_clust_3="36.22450" pt_clust_4="81.23718" pt_clust_5="81.23718" pt_clust_6="404.84083"></scales>
<clustering>
<clus scale="   36.224">  1  3  2 -1</clus>
<clus scale="   81.237">  4  5 -1 -1</clus>
<clus scale="  404.841">  1  6  2 -1</clus>
<clus scale="  413.985">  2  3  1 -1</clus>
</clustering>
</event>
<event>
 6    0  0.1230761E+002  0.2197152E+03  0.7546771E-02  0.1134096E+00
         21   -1    0    0  503  502  0.00000000000E+00  0.00000000000E+00  0.64164649436E+03  0.64164649436E+03  0.00000000000E+00 0.  1.
          1   -1    0    0  504    0 -0.00000000000E+00 -0.00000000000E+00 -0.18281246200E+04  0.18281246200E+04  0.00000000000E+00 0. -1.
         21    1    1    2  503  501 -0.12632313562E+03  0.18175070562E+03  0.58990426065E+03  0.63006181468E+03  0.00000000000E+00 0.  1.
         21    1    1    2  504  505  0.27791871802E+02 -0.27788600054E+02 -0.76699308301E+02  0.86182239035E+02  0.00000000000E+00 0. -1.
         21    1    1    2  505  502 -0.69038580360E+01 -0.11642016837E+03 -0.11131692026E+03  0.16122275148E+03  0.00000000000E+00 0. -1.
          1    1    1    2  501    0  0.10543512185E+03 -0.37541937196E+02 -0.15883661578E+04  0.15923043092E+04  0.00000000000E+00 0. -1.
<scales pt_clust_3="219.71522" pt_clust_4="39.30133" pt_clust_5="118.68265" pt_clust_6="14000.00000"></scales>
<clustering>
<clus scale="   39.301">  2  4  1 -1</clus>
<clus scale="  118.683">  2  5  1 -1</clus>
<clus scale="  219.715">  1  3  2 -1</clus>
<clus scale="  219.715">  1  3  2 -1</clus>
</clustering>
</event>
<event>
 6    0  0.1230761E+002  0.1899847E+03  0.7546771E-02  0.1158475E+00
         -1   -1    0    0    0  501 -0.00000000000E+00  0.00000000000E+00  0.18726562778E+03  0.18726562778E+03  0.00000000000E+00 0. -1.
         21   -1    0    0  503  502  0.00000000000E+00 -0.00000000000E+00 -0.22126501708E+04  0.22126501708E+04  0.00000000000E+00 0.  1.
         21    1    1    2  503  504 -0.69436717651E+02  0.20656861364E+02 -0.85466774992E+03  0.85773254947E+03  0.00000000000E+00 0.  1.
         21    1    1    2  504  505 -0.11927657422E+03 -0.16161748974E+02 -0.12082865079E+04  0.12142670170E+04  0.00000000000E+00 0.  1.
         21    1    1    2  505  501  0.35274358886E+02 -0.27147141209E+01  0.13935642217E+03  0.14377712777E+03  0.00000000000E+00 0.  1.
         -1    1    1    2    0  502  0.15343893298E+03 -0.17803982683E+01 -0.10178670742E+03  0.18413910443E+03  0.00000000000E+00 0. -1.
<scales pt_clust_3="32.62988" pt_clust_4="32.62988" pt_clust_5="35.37867" pt_clust_6="185.27053"></scales>
<clustering>
<clus scale="   32.630">  3  4 -1 -1</clus>
<clus scale="   35.379">  1  5  2 -1</clus>
<clus scale="  185.271">  1  6  2 -1</clus>
<clus scale="  189.985">  2  3  1 -1</clus>
</clustering>
</event>
<event>
 6    0  0.1230761E+002  0.2274533E+03  0.7546771E-02  0.1128445E+00
          2   -1    0    0  503    0 -0.00000000000E+00  0.00000000000E+00  0.46685060382E+03  0.46685060382E+03  0.00000000000E+00 0.  1.
         21   -1    0    0  504  502  0.00000000000E+00 -0.00000000000E+00 -0.53923463557E+03  0.53923463557E+03  0.00000000000E+00 0. -1.
         21    1    1    2  503  505 -0.10541021039E+03  0.59048425810E+02 -0.12003625267E+03  0.17031362541E+03  0.00000000000E+00 0. -1.
         21    1    1    2  504  501  0.73525801388E+02 -0.14935082092E+02  0.74033391924E+02  0.10540418999E+03  0.00000000000E+00 0. -1.
         21    1    1    2  505  502 -0.84403085240E+02  0.71976085422E+02 -0.35014402481E+03  0.36729453546E+03  0.00000000000E+00 0. -1.
          2    1    1    2  501    0  0.11628749425E+03 -0.11608942914E+03  0.32376285381E+03  0.36307288853E+03  0.00000000000E+00 0.  1.
<scales pt_clust_3="209.05164" pt_clust_4="60.56108" pt_clust_5="110.92537" pt_clust_6="60.56108"></scales>
<clustering>
<clus scale="   60.561">  4  6 -1 -1</clus>
<clus scale="  110.925">  2  5  1 -1</clus>
<clus scale="  209.052">  2  3  1 -1</clus>
<clus scale="  110.925">  2  3  1 -1</clus>
</clustering>
</event>
<event>
 6    0  0.1230761E+002  0.1153445E+03  0.7546771E-02  0.1250981E+00
         21   -1    0    0  501  502  0.00000000000E+00  0.00000000000E+00  0.13232606753E+02  0.13232606753E+02  0.00000000000E+00 0.  1.
          2   -1    0    0  504    0 -0.00000000000E+00 -0.00000000000E+00 -0.29102294428E+04  0.29102294428E+04  0.00000000000E+00 0.  1.
         21    1    1    2  503  502 -0.80828348119E+01 -0.61981218829E+02 -0.21475233746E+03  0.22366396704E+03  0.00000000000E+00 0.  1.
         21    1    1    2  504  505 -0.54465661792E+02  0.23648634348E+02 -0.54446858599E+03  0.54769682065E+03  0.00000000000E+00 0. -1.
         21    1    1    2  505  503  0.33100645194E+02 -0.42175107141E+02 -0.10857626101E+03  0.12109168770E+03  0.00000000000E+00 0.  1.
          2    1    1    2  501    0  0.29447851410E+02  0.80507691622E+02 -0.20291996516E+04  0.20310095742E+04  0.00000000000E+00 0.  1.
<scales pt_clust_3="49.36103" pt_clust_4="59.37816" pt_clust_5="49.36103" pt_clust_6="102.29221"></scales>
<clustering>
<clus scale="   49.361">  3  5 -1 -1</clus>
<clus scale="   59.378">  2  4  1 -1</clus>
<clus scale="  102.292">  2  6  1 -1</clus>
<clus scale="  115.344">  1  3  2 -1</clus>
</clustering>
</event>
<event>
 6    0  0.1230761E+002  0.2616323E+03  0.7546771E-02  0.1106166E+00
         21   -1    0    0  503  502  0.00000000000E+00  0.00000000000E+00  0.11018034598E+03  0.11018034598E+03  0.00000000000E+00 0.  1.
          2   -1    0    0  505    0 -0.00000000000E+00 -0.00000000000E+00 -0.21243183231E+04  0.21243183231E+04  0.00000000000E+00 0.  1.
         21    1    1    2  503  504 -0.17903115175E+03  0.36694526145E+02 -0.97449497639E+02  0.20711119269E+03  0.00000000000E+00 0.  1.
         21    1    1    2  504  501 -0.31029228523E+02  0.42814770506E+02 -0.44500573054E+02  0.69110191711E+02  0.00000000000E+00 0.  1.
         21    1    1    2  505  502 -0.14286328436E+03  0.90659859717E+02 -0.77429284649E+03  0.79256453385E+03  0.00000000000E+00 0.  1.
          2    1    1    2  501    0  0.35292366463E+03 -0.17016915637E+03 -0.10978950600E+04  0.11657127509E+04  0.00000000000E+00 0.  1.
<scales pt_clust_3="40.61508" pt_clust_4="40.61508" pt_clust_5="169.20144" pt_clust_6="250.49972"></scales>
<clustering>
<clus scale="   40.615">  3  4 -1 -1</clus>
<clus scale="  169.201">  2  5  1 -1</clus>
<clus scale="  250.500">  2  6  1 -1</clus>
<clus scale="  261.632">  1  3  2 -1</clus>
</clustering>
</event>
<event>
 6    0  0.1230761E+002  0.1583812E+03  0.7546771E-02  0.1190537E+00
         21   -1    0    0  503  502  0.00000000000E+00  0.00000000000E+00  0.97644441650E+03  0.97644441650E+03  0.00000000000E+00 0. -1.
          2   -1    0    0  505    0 -0.00000000000E+00 -0.00000000000E+00 -0.10730676094E+04  0.10730676094E+04  0.00000000000E+00 0.  1.
         21    1    1    2  503  501 -0.23597649984E+02  0.25877491953E+02  0.64172544310E+02  0.73106833591E+02  0.00000000000E+00 0. -1.
         21    1    1    2  504  502 -0.59746128379E+01 -0.18083417078E+03  0.86696413752E+03  0.88564299188E+03  0.00000000000E+00 0. -1.
         21    1    1    2  505  504 -0.99180223972E+02  0.26707129660E+02 -0.93191243983E+02  0.13868884438E+03  0.00000000000E+00 0.  1.
          2    1    1    2  501    0  0.12875248679E+03  0.12824954917E+03 -0.93456863072E+03  0.95207335602E+03  0.00000000000E+00 0.  1.
<scales pt_clust_3="35.02133" pt_clust_4="158.38120" pt_clust_5="103.45382" pt_clust_6="14000.00000"></scales>
<clustering>
<clus scale="   35.021">  1  3  2 -1</clus>
<clus scale="  103.454">  2  5  1 -1</clus>
<clus scale="  158.381">  1  4  2 -1</clus>
<clus scale="   35.021">  1  3  2 -1</clus>
</clustering>
</event>
<event>
 6    0  0.1230761E+002  0.1684166E+03  0.7546771E-02  0.1179509E+00
          3   -1    0    0  503    0 -0.00000000000E+00  0.00000000000E+00  0.16605475917E+04  0.16605475917E+04  0.00000000000E+00 0. -1.
         21   -1    0    0  505  502  0.00000000000E+00 -0.00000000000E+00 -0.18991165983E+03  0.18991165983E+03  0.00000000000E+00 0.  1.
         21    1    1    2  503  504  0.10086431587E+03  0.95524095304E+02  0.50524076191E+03  0.52399111681E+03  0.00000000000E+00 0.  1.
         21    1    1    2  504  502  0.10031703280E+02  0.33384057437E+02  0.18246688840E+02  0.39345546321E+02  0.00000000000E+00 0.  1.
         21    1    1    2  505  501 -0.53325149397E+02  0.77270541147E+02 -0.14579738331E+03  0.17341045259E+03  0.00000000000E+00 0.  1.
          3    1    1    2  501    0 -0.57570869752E+02 -0.20617869389E+03  0.10929458644E+04  0.11137121358E+04  0.00000000000E+00 0. -1.
<scales pt_clust_3="168.41663" pt_clust_4="34.85872" pt_clust_5="115.82452" pt_clust_6="14000.00000"></scales>
<clustering>
<clus scale="   34.859">  2  4  1 -1</clus>
<clus scale="  115.825">  2  5  1 -1</clus>
<clus scale="  168.417">  1  3  2 -1</clus>
<clus scale="   34.859">  2  3  1 -1</clus>
</clustering>
</event>
<event>
 6    0  0.1230761E+002  0.2892882E+03  0.7546771E-02  0.1090721E+00
         21   -1    0    0  503  502  0.00000000000E+00  0.00000000000E+00  0.61150642291E+02  0.61150642291E+02  0.00000000000E+00 0. -1.
          2   -1    0    0  502    0 -0.00000000000E+00 -0.00000000000E+00 -0.30743379125E+04  0.30743379125E+04  0.00000000000E+00 0.  1.
         21    1    1    2  503  504  0.54630828988E+02 -0.25157058668E+02 -0.26406323059E+02  0.65686368253E+02  0.00000000000E+00 0. -1.
         21    1    1    2  504  505  0.19392917151E+03 -0.53547919466E+02 -0.26513513807E+03  0.33282509623E+03  0.00000000000E+00 0. -1.
         21    1    1    2  505  501 -0.88941479234E+02 -0.28136181034E+02 -0.11136218069E+04  0.11175221520E+04  0.00000000000E+00 0.  1.
          2    1    1    2  501    0 -0.15961852126E+03  0.10684115917E+03 -0.16080240022E+04  0.16194549383E+04  0.00000000000E+00 0.  1.
<scales pt_clust_3="41.77800" pt_clust_4="271.68909" pt_clust_5="87.35246" pt_clust_6="87.35246"></scales>
<clustering>
<clus scale="   41.778">  3  4 -1 -1</clus>
<clus scale="   87.352">  5  6 -1 -1</clus>
<clus scale="  271.689">  1  3  2 -1</clus>
<clus scale="  271.689">  1  3  2 -1</clus>
</clustering>
</event>
<event>
 6    0  0.1230761E+002  0.1380293E+03  0.7546771E-02  0.1216006E+00
          2   -1    0    0  503    0 -0.00000000000E+00  0.00000000000E+00  0.16007636825E+04  0.16007636825E+04  0.00000000000E+00 0. -1.
         21   -1    0    0  501  502  0.00000000000E+00 -0.00000000000E+00 -0.10194069393E+04  0.10194069393E+04  0.00000000000E+00 0.  1.
         21    1    1    2  503  504  0.53156801541E+01  0.36852709359E+02  0.79649792106E+03  0.79736774257E+03  0.00000000000E+00 0. -1.
         21    1    1    2  504  505 -0.34766629087E+02  0.24027898175E+02  0.64354178856E+01  0.42748953112E+02  0.00000000000E+00 0.  1.
         21    1    1    2  505  502 -0.12844153293E+03 -0.50457295918E+02 -0.98793681389E+03  0.99752810203E+03  0.00000000000E+00 0.  1.
          2    1    1    2  501    0  0.15789248186E+03 -0.10423311615E+02  0.76636021815E+03  0.78252582399E+03  0.00000000000E+00 0. -1.
<scales pt_clust_3="37.23411" pt_clust_4="42.78118" pt_clust_5="138.02930" pt_clust_6="14000.00000"></scales>
<clustering>
<clus scale="   37.234">  1  3  2 -1</clus>
<clus scale="   42.781">  1  4  2 -1</clus>
<clus scale="  138.029">  2  5  1 -1</clus>
<clus scale="  138.029">  2  3  1 -1</clus>
</clustering>
</event>
<event>
 6    0  0.1230761E+002  0.1393119E+03  0.7546771E-02  0.1214258E+00
         21   -1    0    0  504  502  0.00000000000E+00  0.00000000000E+00  0.67377162804E+03  0.67377162804E+03  0.00000000000E+00 0.  1.
         -1   -1    0    0    0  501 -0.00000000000E+00 -0.00000000000E+00 -0.10585149483E+04  0.10585149483E+04  0.00000000000E+00 0. -1.
         21    1    1    2  503  501  0.53667943617E+02  0.10036046808E+03 -0.19724644847E+03  0.22772490676E+03  0.00000000000E+00 0. -1.
         21    1    1    2  504  503  0.10839125600E+01  0.42911557265E+02  0.54443879599E+03  0.54612835414E+03  0.00000000000E+00 0.  1.
         21    1    1    2  505  502 -0.29377368447E+02  0.75588588473E+01  0.10414747676E+03  0.10847517245E+03  0.00000000000E+00 0.  1.
         -1    1    1    2    0  505 -0.25374487730E+02 -0.15083088419E+03 -0.83608314450E+03  0.84995814295E+03  0.00000000000E+00 0. -1.
<scales pt_clust_3="14000.00000" pt_clust_4="57.04737" pt_clust_5="30.33424" pt_clust_6="139.31193"></scales>
<clustering>
<clus scale="   30.334">  1  5  2 -1</clus>
<clus scale="   57.047">  1  4  2 -1</clus>
<clus scale="  139.312">  2  6  1 -1</clus>
<clus scale="   30.334">  1  3  2 -1</clus>
</clustering>
</event>
<event>
 6    0  0.1230761E+002  0.1560750E+03  0.7546771E-02  0.1193201E+00
         21   -1    0    0  503  502  0.00000000000E+00  0.00000000000E+00  0.49533051913E+02  0.49533051913E+02  0.00000000000E+00 0.  1.
          1   -1    0    0  505    0 -0.00000000000E+00 -0.00000000000E+00 -0.11697912078E+04  0.11697912078E+04  0.00000000000E+00 0.  1.
         21    1    1    2  503  501  0.42022885694E+02 -0.45567873873E+02 -0.87681733333E+02  0.10737988830E+03  0.00000000000E+00 0.  1.
         21    1    1    2  504  502  0.11676504071E+03  0.44579975353E+02 -0.14890973149E+03  0.19441079462E+03  0.00000000000E+00 0.  1.
         21    1    1    2  505  504  0.36969070413E+02  0.27732286812E+02 -0.23267423822E+03  0.23721950390E+03  0.00000000000E+00 0.  1.
          1    1    1    2  501    0 -0.19575699682E+03 -0.26744388293E+02 -0.65099245289E+03  0.68031407293E+03  0.00000000000E+00 0.  1.
<scales pt_clust_3="62.65843" pt_clust_4="156.07503" pt_clust_5="46.21463" pt_clust_6="14000.00000"></scales>
<clustering>
<clus scale="   46.215">  2  5  1 -1</clus>
<clus scale="   62.658">  1  3  2 -1</clus>
<clus scale="  156.075">  1  4  2 -1</clus>
<clus scale="   62.658">  1  3  2 -1</clus>
</clustering>
</event>
<event>
 6    0  0.1230761E+002  0.2313049E+03  0.7546771E-02  0.1125725E+00
         21   -1    0    0  504  502  0.00000000000E+00  0.00000000000E+00  0.15217991855E+03  0.15217991855E+03  0.00000000000E+00 0. -1.
          2   -1    0    0  505    0 -0.00000000000E+00 -0.00000000000E+00 -0.11120240637E+04  0.11120240637E+04  0.00000000000E+00 0. -1.
         21    1    1    2  503  502  0.57909021388E+01 -0.25952674094E+03 -0.15131264212E+03  0.30047159512E+03  0.00000000000E+00 0. -1.
         21    1    1    2  504  501  0.36392086263E+02  0.20867913646E+03 -0.10539249854E+03  0.23659869967E+03  0.00000000000E+00 0. -1.
         21    1    1    2  505  503  0.34624666462E+02 -0.44130888374E+02 -0.32352364085E+03  0.32835034495E+03  0.00000000000E+00 0. -1.
          2    1    1    2  501    0 -0.76807654864E+02  0.94978492853E+02 -0.37961536362E+03  0.39878334249E+03  0.00000000000E+00 0. -1.
<scales pt_clust_3="14000.00000" pt_clust_4="231.30493" pt_clust_5="56.09281" pt_clust_6="94.38061"></scales>
<clustering>
<clus scale="   56.093">  2  5  1 -1</clus>
<clus scale="   94.381">  2  6  1 -1</clus>
<clus scale="  231.305">  1  4  2 -1</clus>
<clus scale="  231.305">  1  3  2 -1</clus>
</clustering>
</event>
<event>
 6    0  0.1230761E+002  0.1993245E+03  0.7546771E-02  0.1150310E+00
         21   -1    0    0  501  502  0.00000000000E+00  0.00000000000E+00  0.18060694308E+03  0.18060694308E+03  0.00000000000E+00 0. -1.
          4   -1    0    0  503    0 -0.00000000000E+00 -0.00000000000E+00 -0.71172323019E+03  0.71172323019E+03  0.00000000000E+00 0. -1.
         21    1    1    2  503  504 -0.26067642320E+02 -0.17663687856E+02 -0.13883201564E+03  0.14235819756E+03  0.00000000000E+00 0. -1.
         21    1    1    2  504  505 -0.14097582459E+03 -0.11851092977E+03  0.57103737426E+02  0.19282079873E+03  0.00000000000E+00 0. -1.
         21    1    1    2  505  502  0.14766537341E+02 -0.33386564148E+02  0.15302070795E+02  0.39583666597E+02  0.00000000000E+00 0.  1.
          4    1    1    2  501    0  0.15227692957E+03  0.16956118178E+03 -0.46469007969E+03  0.51756751039E+03  0.00000000000E+00 0. -1.
<scales pt_clust_3="31.48854" pt_clust_4="14000.00000" pt_clust_5="36.63152" pt_clust_6="199.32448"></scales>
<clustering>
<clus scale="   31.489">  2  3  1 -1</clus>
<clus scale="   36.632">  1  5  2 -1</clus>
<clus scale="  199.324">  2  6  1 -1</clus>
<clus scale="   36.632">  1  3  2 -1</clus>
</clustering>
</event>
<event>
 6    0  0.1230761E+002  0.1309246E+03  0.7546771E-02  0.1226090E+00
          2   -1    0    0  504    0 -0.00000000000E+00  0.00000000000E+00  0.13434792372E+04  0.13434792372E+04  0.00000000000E+00 0. -1.
         21   -1    0    0  501  502  0.00000000000E+00 -0.00000000000E+00 -0.22359149775E+02  0.22359149775E+02  0.00000000000E+00 0. -1.
         21    1    1    2  503  505  0.10471884882E+02  0.65204346803E+02  0.16523818008E+03  0.17794640590E+03  0.00000000000E+00 0. -1.
         21    1    1    2  504  503 -0.49279530862E+02 -0.26793349631E+02  0.58142144250E+03  0.58412092031E+03  0.00000000000E+00 0. -1.
         21    1    1    2  505  502 -0.43356958195E+02  0.48181676687E+02  0.24199693503E+03  0.25052707709E+03  0.00000000000E+00 0. -1.
          2    1    1    2  501    0  0.82164604174E+02 -0.86592673860E+02  0.33246352978E+03  0.35324398364E+03  0.00000000000E+00 0. -1.
<scales pt_clust_3="56.25079" pt_clust_4="56.09239" pt_clust_5="56.25079" pt_clust_6="115.45553"></scales>
<clustering>
<clus scale="   56.092">  1  4  2 -1</clus>
<clus scale="   56.251">  3  5 -1 -1</clus>
<clus scale="  115.456">  2  6  1 -1</clus>
<clus scale="  115.456">  2  3  1 -1</clus>
</clustering>
</event>
<event>
 6    0  0.1230761E+002  0.1502448E+03  0.7546771E-02  0.1200173E+00
         21   -1    0    0  504  502  0.00000000000E+00  0.00000000000E+00  0.14938519675E+04  0.14938519675E+04  0.00000000000E+00 0. -1.
          4   -1    0    0  505    0 -0.00000000000E+00 -0.00000000000E+00 -0.85349305161E+02  0.85349305161E+02  0.00000000000E+00 0. -1.
         21    1    1    2  503  502 -0.78269176331E+01  0.39127183318E+02  0.31845138218E+03  0.32094155220E+03  0.00000000000E+00 0. -1.
         21    1    1    2  504  501  0.10191124467E+03  0.78614254064E+02  0.96566608893E+03  0.97420588072E+03  0.00000000000E+00 0. -1.
         21    1    1    2  505  503  0.76127215881E+01  0.48112546172E+02  0.63837532614E+02  0.80299447068E+02  0.00000000000E+00 0. -1.
          4    1    1    2  501    0 -0.10169704862E+03 -0.16585398355E+03  0.60547658583E+02  0.20375439264E+03  0.00000000000E+00 0. -1.
<scales pt_clust_3="39.90234" pt_clust_4="14000.00000" pt_clust_5="51.01517" pt_clust_6="150.24475"></scales>
<clustering>
<clus scale="   39.902">  1  3  2 -1</clus>
<clus scale="   51.015">  2  5  1 -1</clus>
<clus scale="  150.245">  2  6  1 -1</clus>
<clus scale="   39.902">  1  3  2 -1</clus>
</clustering>
</event>
<event>
 6    0  0.1230761E+002  0.1420500E+03  0.7546771E-02  0.1210597E+00
         21   -1    0    0  504  502  0.00000000000E+00  0.00000000000E+00  0.16352002316E+03  0.16352002316E+03  0.00000000000E+00 0. -1.
         -4   -1    0    0    0  501 -0.00000000000E+00 -0.00000000000E+00 -0.55564634688E+03  0.55564634688E+03  0.00000000000E+00 0.  1.
         21    1    1    2  503  501 -0.29818088898E+02  0.14888712192E+02 -0.44165254790E+02  0.55329575337E+02  0.00000000000E+00 0. -1.
         21    1    1    2  504  505 -0.46586749489E+02  0.19115285684E+02  0.11366900644E+03  0.12432361964E+03  0.00000000000E+00 0. -1.
         21    1    1    2  505  503 -0.63858530713E+02  0.13156175040E+02 -0.12178162536E+02  0.66327253292E+02  0.00000000000E+00 0. -1.
         -4    1    1    2    0  502  0.14026336910E+03 -0.47160172915E+02 -0.44945191283E+03  0.47318592177E+03  0.00000000000E+00 0.  1.
<scales pt_clust_3="32.48165" pt_clust_4="50.35593" pt_clust_5="32.48165" pt_clust_6="134.58908"></scales>
<clustering>
<clus scale="   32.482">  3  5 -1 -1</clus>
<clus scale="   50.356">  1  4  2 -1</clus>
<clus scale="  134.589">  2  6  1 -1</clus>
<clus scale="   50.356">  1  3  2 -1</clus>
</clustering>
</event>
<event>
 6    0  0.1230761E+002  0.9657611E+02  0.7546771E-02  0.1287665E+00
         21   -1    0    0  503  502  0.00000000000E+00  0.00000000000E+00  0.53697061404E+02  0.53697061404E+02  0.00000000000E+00 0.  1.
          2   -1    0    0  504    0 -0.00000000000E+00 -0.00000000000E+00 -0.26517801881E+04  0.26517801881E+04  0.00000000000E+00 0. -1.
         21    1    1    2  503  501 -0.39386655579E+02 -0.84570824298E+02 -0.27351860027E+01  0.93332814179E+02  0.00000000000E+00 0.  1.
         21    1    1    2  504  505  0.27841111767E+02 -0.66410828341E+02 -0.35859383271E+03  0.36575273407E+03  0.00000000000E+00 0. -1.
         21    1    1    2  505  502  0.83305684405E+01  0.42904742785E+02 -0.13585973538E+03  0.14271679306E+03  0.00000000000E+00 0.  1.
          2    1    1    2  501    0  0.32149753706E+01  0.10807690985E+03 -0.21008943726E+04  0.21036749082E+04  0.00000000000E+00 0. -1.
<scales pt_clust_3="55.89131" pt_clust_4="96.57611" pt_clust_5="43.70601" pt_clust_6="14000.00000"></scales>
<clustering>
<clus scale="   43.706">  1  5  2 -1</clus>
<clus scale="   55.891">  1  3  2 -1</clus>
<clus scale="   96.576">  1  4  2 -1</clus>
<clus scale="   43.706">  1  3  2 -1</clus>
</clustering>
</event>
<event>
 6    0  0.1230761E+002  0.1119533E+03  0.7546771E-02  0.1256995E+00
          2   -1    0    0  504    0 -0.00000000000E+00  0.00000000000E+00  0.11986203199E+03  0.11986203199E+03  0.00000000000E+00 0. -1.
         21   -1    0    0  505  502  0.00000000000E+00 -0.00000000000E+00 -0.19227794291E+03  0.19227794291E+03  0.00000000000E+00 0. -1.
         21    1    1    2  503  502 -0.10768698778E+02 -0.51659182744E+02 -0.28913202420E+02  0.60171499144E+02  0.00000000000E+00 0. -1.
         21    1    1    2  504  503  0.68976828852E+01 -0.58225592166E+02  0.47877928951E+01  0.58827889416E+02  0.00000000000E+00 0. -1.
         21    1    1    2  505  501  0.41614911150E+02  0.11417004611E+02 -0.73027465708E+02  0.84824286452E+02  0.00000000000E+00 0. -1.
          2    1    1    2  501    0 -0.37743895258E+02  0.98467770299E+02  0.24736964315E+02  0.10831629988E+03  0.00000000000E+00 0. -1.
<scales pt_clust_3="36.60954" pt_clust_4="36.60954" pt_clust_5="43.15262" pt_clust_6="105.09224"></scales>
<clustering>
<clus scale="   36.610">  3  4 -1 -1</clus>
<clus scale="   43.153">  2  5  1 -1</clus>
<clus scale="  105.092">  1  6  2 -1</clus>
<clus scale="   43.153">  2  3  1 -1</clus>
</clustering>
</event>
<event>
 6    0  0.1230761E+002  0.1177071E+03  0.7546771E-02  0.1246928E+00
         21   -1    0    0  504  502  0.00000000000E+00  0.00000000000E+00  0.26740719238E+03  0.26740719238E+03  0.00000000000E+00 0. -1.
          1   -1    0    0  503    0 -0.00000000000E+00 -0.00000000000E+00 -0.14886605815E+03  0.14886605815E+03  0.00000000000E+00 0. -1.
         21    1    1    2  503  505 -0.84929769005E+02 -0.81911632352E+01  0.22401947079E+02  0.88215690505E+02  0.00000000000E+00 0. -1.
         21    1    1    2  504  501 -0.24828077331E+02  0.40851980822E+02  0.16576490854E+02  0.50597409124E+02  0.00000000000E+00 0. -1.
         21    1    1    2  505  502 -0.48584463226E+02  0.48542053917E+01  0.10210657417E+03  0.11318023620E+03  0.00000000000E+00 0. -1.
          1    1    1    2  501    0  0.15834230956E+03 -0.37515022978E+02 -0.22543877876E+02  0.16427991471E+03  0.00000000000E+00 0. -1.
<scales pt_clust_3="117.70708" pt_clust_4="47.80500" pt_clust_5="64.51041" pt_clust_6="14000.00000"></scales>
<clustering>
<clus scale="   47.805">  1  4  2 -1</clus>
<clus scale="   64.510">  1  5  2 -1</clus>
<clus scale="  117.707">  2  3  1 -1</clus>
<clus scale="   47.805">  1  3  2 -1</clus>
</clustering>
</event>
<event>
 6    0  0.1230761E+002  0.1095397E+03  0.7546771E-02  0.1261425E+00
          4   -1    0    0  505    0 -0.00000000000E+00  0.00000000000E+00  0.60932127398E+02  0.60932127398E+02  0.00000000000E+00 0.  1.
         21   -1    0    0  504  502  0.00000000000E+00 -0.00000000000E+00 -0.97277848422E+03  0.97277848422E+03  0.00000000000E+00 0.  1.
         21    1    1    2  503  502  0.72421293527E+02  0.45778553548E+02 -0.64460067772E+03  0.65026960058E+03  0.00000000000E+00 0.  1.
         21    1    1    2  504  501  0.36600424611E+02 -0.21942862366E+02 -0.19635175346E+03  0.20093554036E+03  0.00000000000E+00 0. -1.
         21    1    1    2  505  503  0.23992334489E+02 -0.21551516942E+02 -0.10864884435E+01  0.32268877481E+02  0.00000000000E+00 0.  1.
          4    1    1    2  501    0 -0.13301405263E+03 -0.22841742392E+01 -0.69807437192E+02  0.15023659320E+03  0.00000000000E+00 0.  1.
<scales pt_clust_3="109.53967" pt_clust_4="44.27552" pt_clust_5="32.25058" pt_clust_6="14000.00000"></scales>
<clustering>
<clus scale="   32.251">  1  5  2 -1</clus>
<clus scale="   44.276">  2  4  1 -1</clus>
<clus scale="  109.540">  2  3  1 -1</clus>
<clus scale="   44.276">  2  3  1 -1</clus>
</clustering>
</event>
<event>
 6    0  0.1230761E+002  0.1338130E+03  0.7546771E-02  0.1221905E+00
          2   -1    0    0  504    0 -0.00000000000E+00  0.00000000000E+00  0.87895208181E+03  0.87895208181E+03  0.00000000000E+00 0. -1.
         21   -1    0    0  503  502  0.00000000000E+00 -0.00000000000E+00 -0.21676446668E+03  0.21676446668E+03  0.00000000000E+00 0. -1.
         21    1    1    2  503  505 -0.21665776075E+02 -0.22640309416E+02 -0.19891619637E+02  0.37116923299E+02  0.00000000000E+00 0.  1.
         21    1    1    2  504  502 -0.65578143869E+02 -0.10628758737E+02 -0.15751004288E+03  0.17094700077E+03  0.00000000000E+00 0. -1.
         21    1    1    2  505  501 -0.77161415420E+02  0.55136341560E+02  0.14298638120E+03  0.17157798635E+03  0.00000000000E+00 0.  1.
          2    1    1    2  501    0  0.16440533536E+03 -0.21867273407E+02  0.69660289645E+03  0.71607463806E+03  0.00000000000E+00 0. -1.
<scales pt_clust_3="31.33671" pt_clust_4="89.77449" pt_clust_5="133.81298" pt_clust_6="14000.00000"></scales>
<clustering>
<clus scale="   31.337">  2  3  1 -1</clus>
<clus scale="   89.774">  2  4  1 -1</clus>
<clus scale="  133.813">  2  5  1 -1</clus>
<clus scale="   31.337">  2  3  1 -1</clus>
</clustering>
</event>
<event>
 6    0  0.1230761E+002  0.1000135E+03  0.7546771E-02  0.1280268E+00
         21   -1    0    0  505  502  0.00000000000E+00  0.00000000000E+00  0.99262729950E+03  0.99262729950E+03  0.00000000000E+00 0.  1.
         -1   -1    0    0    0  501 -0.00000000000E+00 -0.00000000000E+00 -0.21036720062E+03  0.21036720062E+03  0.00000000000E+00 0.  1.
         21    1    1    2  503  504 -0.71484453316E+01 -0.97086697102E+02  0.77723603033E+03  0.78330886237E+03  0.00000000000E+00 0.  1.
         21    1    1    2  504  502 -0.35791643548E+02  0.47401002631E+01  0.17447091199E+03  0.17816736353E+03  0.00000000000E+00 0.  1.
         21    1    1    2  505  501  0.72597310420E+02  0.11181925188E+02 -0.34206378307E+02  0.81027657303E+02  0.00000000000E+00 0. -1.
         -1    1    1    2    0  503 -0.29657221540E+02  0.81164671651E+02 -0.13524046512E+03  0.16049061692E+03  0.00000000000E+00 0.  1.
<scales pt_clust_3="100.01349" pt_clust_4="36.10416" pt_clust_5="72.46020" pt_clust_6="14000.00000"></scales>
<clustering>
<clus scale="   36.104">  1  4  2 -1</clus>
<clus scale="   72.460">  2  5  1 -1</clus>
<clus scale="  100.013">  1  3  2 -1</clus>
<clus scale="   36.104">  1  3  2 -1</clus>
</clustering>
</event>
<event>
 6    0  0.1230761E+002  0.1487515E+03  0.7546771E-02  0.1202016E+00
          2   -1    0    0  505    0 -0.00000000000E+00  0.00000000000E+00  0.21625292621E+04  0.21625292621E+04  0.00000000000E+00 0. -1.
         21   -1    0    0  501  502  0.00000000000E+00 -0.00000000000E+00 -0.15650194105E+03  0.15650194105E+03  0.00000000000E+00 0. -1.
         21    1    1    2  503  504 -0.69045266570E+02  0.19416385832E+02  0.22343240742E+03  0.23466206673E+03  0.00000000000E+00 0.  1.
         21    1    1    2  504  502  0.10963523377E+03 -0.10244338811E+03 -0.10922938468E+03  0.18559523358E+03  0.00000000000E+00 0. -1.
         21    1    1    2  505  503 -0.20236099794E+02 -0.26589989872E+02  0.16473180264E+03  0.16808656727E+03  0.00000000000E+00 0.  1.
          2    1    1    2  501    0 -0.20353867410E+02  0.10961699215E+03  0.17270924956E+04  0.17306873355E+04  0.00000000000E+00 0. -1.
<scales pt_clust_3="73.21961" pt_clust_4="14000.00000" pt_clust_5="33.41448" pt_clust_6="148.75154"></scales>
<clustering>
<clus scale="   33.414">  1  5  2 -1</clus>
<clus scale="   73.220">  1  3  2 -1</clus>
<clus scale="  148.752">  1  6  2 -1</clus>
<clus scale="  148.752">  2  3  1 -1</clus>
</clustering>
</event>
<event>
 6    0  0.1230761E+002  0.1274175E+03  0.7546771E-02  0.1231339E+00
          1   -1    0    0  505    0 -0.00000000000E+00  0.00000000000E+00  0.78231646223E+03  0.78231646223E+03  0.00000000000E+00 0.  1.
         21   -1    0    0  503  502  0.00000000000E+00 -0.00000000000E+00 -0.22711491126E+03  0.22711491126E+03  0.00000000000E+00 0. -1.
         21    1    1    2  503  504 -0.29514123791E+02 -0.17854338903E+02 -0.10071667393E+03  0.10645989540E+03  0.00000000000E+00 0. -1.
         21    1    1    2  504  501 -0.99326610226E+02 -0.25285842324E+00 -0.88363964551E+02  0.13294370864E+03  0.00000000000E+00 0. -1.
         21    1    1    2  505  502 -0.51611304420E+01 -0.31654305370E+02  0.39427247071E+02  0.50824601597E+02  0.00000000000E+00 0. -1.
          1    1    1    2  501    0  0.13400186446E+03  0.49761502696E+02  0.70485494238E+03  0.71920316784E+03  0.00000000000E+00 0.  1.
<scales pt_clust_3="34.57552" pt_clust_4="127.41751" pt_clust_5="32.07230" pt_clust_6="14000.00000"></scales>
<clustering>
<clus scale="   32.072">  1  5  2 -1</clus>
<clus scale="   34.576">  2  3  1 -1</clus>
<clus scale="  127.418">  2  4  1 -1</clus>
<clus scale="   34.576">  2  3  1 -1</clus>
</clustering>
</event>
<event>
 6    0  0.1230761E+002  0.9860496E+02  0.7546771E-02  0.1283257E+00
         21   -1    0    0  503  502  0.00000000000E+00  0.00000000000E+00  0.26493098479E+03  0.26493098479E+03  0.00000000000E+00 0. -1.
         -2   -1    0    0    0  501 -0.00000000000E+00 -0.00000000000E+00 -0.23774401326E+03  0.23774401326E+03  0.00000000000E+00 0. -1.
         21    1    1    2  503  504  0.67580595445E+02 -0.22575453327E+02  0.14450525170E+03  0.16111659052E+03  0.00000000000E+00 0. -1.
         21    1    1    2  504  501  0.38405577994E+02 -0.83474400429E+00 -0.53142900154E+02  0.65573264791E+02  0.00000000000E+00 0.  1.
         21    1    1    2  505  502 -0.13367122149E+01 -0.53779844598E+02  0.70562752987E+02  0.88730832261E+02  0.00000000000E+00 0.  1.
         -2    1    1    2    0  505 -0.10464946122E+03  0.77190041929E+02 -0.13473813301E+03  0.18725431048E+03  0.00000000000E+00 0. -1.
<scales pt_clust_3="98.60496" pt_clust_4="38.41465" pt_clust_5="53.82591" pt_clust_6="14000.00000"></scales>
<clustering>
<clus scale="   38.415">  2  4  1 -1</clus>
<clus scale="   53.826">  1  5  2 -1</clus>
<clus scale="   98.605">  1  3  2 -1</clus>
<clus scale="   53.826">  1  3  2 -1</clus>
</clustering>
</event>
<event>
 6    0  0.1230761E+002  0.3504187E+03  0.7546771E-02  0.1062443E+00
         -2   -1    0    0    0  501 -0.00000000000E+00  0.00000000000E+00  0.14432428870E+04  0.14432428870E+04  0.00000000000E+00 0.  1.
         21   -1    0    0  503  502  0.00000000000E+00 -0.00000000000E+00 -0.18815465392E+04  0.18815465392E+04  0.00000000000E+00 0. -1.
         21    1    1    2  503  501  0.53585212784E+02 -0.33438556230E+02  0.23451818614E+03  0.24287505368E+03  0.00000000000E+00 0.  1.
         21    1    1    2  504  505 -0.80583845203E+02 -0.13311606618E+03 -0.94653119624E+03  0.95923664892E+03  0.00000000000E+00 0. -1.
         21    1    1    2  505  502 -0.17020534194E+02 -0.19074942296E+03 -0.88699086249E+03  0.90742924302E+03  0.00000000000E+00 0. -1.
         -2    1    1    2    0  504  0.44019166612E+02  0.35730404538E+03  0.11607002204E+04  0.12152484806E+04  0.00000000000E+00 0.  1.
<scales pt_clust_3="63.16258" pt_clust_4="81.68978" pt_clust_5="81.68978" pt_clust_6="338.48234"></scales>
<clustering>
<clus scale="   63.163">  1  3  2 -1</clus>
<clus scale="   81.690">  4  5 -1 -1</clus>
<clus scale="  338.482">  1  6  2 -1</clus>
<clus scale="  350.419">  2  3  1 -1</clus>
</clustering>
</event>
<event>
 6    0  0.1230761E+002  0.1405413E+03  0.7546771E-02  0.1212602E+00
         21   -1    0    0  504  502  0.00000000000E+00  0.00000000000E+00  0.53016199529E+02  0.53016199529E+02  0.00000000000E+00 0.  1.
          1   -1    0    0  503    0 -0.00000000000E+00 -0.00000000000E+00 -0.36572615205E+04  0.36572615205E+04  0.00000000000E+00 0. -1.
         21    1    1    2  503  502  0.76705855716E+01 -0.31876417789E+02 -0.14295245656E+04  0.14299004957E+04  0.00000000000E+00 0. -1.
         21    1    1    2  504  505 -0.13011324985E+03 -0.10777978443E+03 -0.11600417980E+03  0.20494611353E+03  0.00000000000E+00 0.  1.
         21    1    1    2  505  501  0.58843196260E+02  0.68663746919E+02 -0.28165927629E+03  0.29581950545E+03  0.00000000000E+00 0. -1.
          1    1    1    2  501    0  0.63599468018E+02  0.70992455301E+02 -0.17770572993E+04  0.17796116054E+04  0.00000000000E+00 0. -1.
<scales pt_clust_3="32.78634" pt_clust_4="14000.00000" pt_clust_5="140.54134" pt_clust_6="83.28030"></scales>
<clustering>
<clus scale="   32.786">  2  3  1 -1</clus>
<clus scale="   83.280">  2  6  1 -1</clus>
<clus scale="  140.541">  2  5  1 -1</clus>
<clus scale="  140.541">  1  3  2 -1</clus>
</clustering>
</event>
<event>
 6    0  0.2374830E+002  0.1303723E+03  0.7546771E-02  0.1226904E+00
         21   -1    0    0  504  502  0.00000000000E+00  0.00000000000E+00  0.77633594841E+03  0.77633594841E+03  0.00000000000E+00 0. -1.
          2   -1    0    0  503    0 -0.00000000000E+00 -0.00000000000E+00 -0.26479769935E+04  0.26479769935E+04  0.00000000000E+00 0.  1.
         21    1    1    2  503  502  0.41477033745E+02  0.78418179077E+02  0.66603765498E+03  0.67191957330E+03  0.00000000000E+00 0. -1.
         21    1    1    2  504  505  0.32359674600E+02 -0.36733108663E+02  0.70894030867E+02  0.86153545631E+02  0.00000000000E+00 0.  1.
         21    1    1    2  505  501  0.12126151149E+02  0.56474865496E+02 -0.34643171560E+01  0.57865840250E+02  0.00000000000E+00 0.  1.
          2    1    1    2  501    0 -0.85962859494E+02 -0.98159935910E+02 -0.26051084138E+04  0.26083739827E+04  0.00000000000E+00 0.  1.
<scales pt_clust_3="130.37232" pt_clust_4="48.95375" pt_clust_5="56.64767" pt_clust_6="14000.00000"></scales>
<clustering>
<clus scale="   48.954">  1  4  2 -1</clus>
<clus scale="   56.648">  1  5  2 -1</clus>
<clus scale="  130.372">  1  3  2 -1</clus>
<clus scale="   48.954">  1  3  2 -1</clus>
</clustering>
</event>
<event>
 6    0  0.1230761E+002  0.1154392E+03  0.7546771E-02  0.1250816E+00
          2   -1    0    0  503    0 -0.00000000000E+00  0.00000000000E+00  0.13131413476E+04  0.13131413476E+04  0.00000000000E+00 0. -1.
         21   -1    0    0  505  502  0.00000000000E+00 -0.00000000000E+00 -0.11610045428E+03  0.11610045428E+03  0.00000000000E+00 0.  1.
         21    1    1    2  503  504 -0.12296990817E+02  0.40039057815E+02  0.92706765782E+02  0.10172947732E+03  0.00000000000E+00 0. -1.
         21    1    1    2  504  502 -0.10328560924E+03 -0.12798460739E+02 -0.74955447340E+02  0.12825769668E+03  0.00000000000E+00 0.  1.
         21    1    1    2  505  501 -0.29990189294E+01 -0.35815486415E+02  0.39986300333E+02  0.53764741198E+02  0.00000000000E+00 0. -1.
          2    1    1    2  501    0  0.11858161898E+03  0.85748893395E+01  0.11393032746E+04  0.11454898867E+04  0.00000000000E+00 0. -1.
<scales pt_clust_3="40.51072" pt_clust_4="14000.00000" pt_clust_5="35.94083" pt_clust_6="115.43922"></scales>
<clustering>
<clus scale="   35.941">  2  5  1 -1</clus>
<clus scale="   40.511">  1  3  2 -1</clus>
<clus scale="  115.439">  1  6  2 -1</clus>
<clus scale="   35.941">  2  3  1 -1</clus>
</clustering>
</event>
<event>
 6    0  0.1230761E+002  0.1153534E+03  0.7546771E-02  0.1250965E+00
         21   -1    0    0  504  502  0.00000000000E+00  0.00000000000E+00  0.16647543213E+04  0.16647543213E+04  0.00000000000E+00 0.  1.
         -1   -1    0    0    0  501 -0.00000000000E+00 -0.00000000000E+00 -0.10728753858E+03  0.10728753858E+03  0.00000000000E+00 0. -1.
         21    1    1    2  503  501 -0.38633511626E+02 -0.54906345640E+02 -0.38291336156E+01  0.67245202627E+02  0.00000000000E+00 0.  1.
         21    1    1    2  504  503  0.13854222974E+02  0.46466945517E+02  0.10285377771E+03  0.11371022869E+03  0.00000000000E+00 0.  1.
         21    1    1    2  505  502  0.10134016485E+03 -0.59749648505E+01  0.14995621818E+04  0.15029944332E+04  0.00000000000E+00 0.  1.
         -1    1    1    2    0  505 -0.76560876195E+02  0.14414364973E+02 -0.41120043221E+02  0.88091995300E+02  0.00000000000E+00 0. -1.
<scales pt_clust_3="66.20025" pt_clust_4="48.48831" pt_clust_5="115.35342" pt_clust_6="14000.00000"></scales>
<clustering>
<clus scale="   48.488">  1  4  2 -1</clus>
<clus scale="   66.200">  2  3  1 -1</clus>
<clus scale="  115.353">  1  5  2 -1</clus>
<clus scale="   48.488">  1  3  2 -1</clus>
</clustering>
</event>
<event>
 6    0  0.1230761E+002  0.2432906E+03  0.7546771E-02  0.1117620E+00
         -3   -1    0    0    0  501 -0.00000000000E+00  0.00000000000E+00  0.39276548746E+03  0.39276548746E+03  0.00000000000E+00 0.  1.
         21   -1    0    0  505  502  0.00000000000E+00 -0.00000000000E+00 -0.12538419735E+04  0.12538419735E+04  0.00000000000E+00 0.  1.
         21    1    1    2  503  502  0.38706972304E+02  0.15088707685E+02 -0.37721817103E+02  0.56114474871E+02  0.00000000000E+00 0.  1.
         21    1    1    2  504  503 -0.11097363543E+03 -0.23167205072E+02  0.12450565875E+03  0.16838505341E+03  0.00000000000E+00 0.  1.
         21    1    1    2  505  501  0.19700884354E+03  0.37344338746E+02 -0.11584099765E+04  0.11756363203E+04  0.00000000000E+00 0.  1.
         -3    1    1    2    0  504 -0.12474218042E+03 -0.29265841359E+02  0.21054964883E+03  0.24647161230E+03  0.00000000000E+00 0.  1.
<scales pt_clust_3="41.54394" pt_clust_4="36.82676" pt_clust_5="240.11972" pt_clust_6="36.82676"></scales>
<clustering>
<clus scale="   36.827">  4  6 -1 -1</clus>
<clus scale="   41.544">  2  3  1 -1</clus>
<clus scale="  240.120">  2  5  1 -1</clus>
<clus scale="   41.544">  2  3  1 -1</clus>
</clustering>
</event>
<event>
 6    0  0.1230761E+002  0.1555681E+03  0.7546771E-02  0.1193793E+00
          2   -1    0    0  504    0 -0.00000000000E+00  0.00000000000E+00  0.22430102343E+04  0.22430102343E+04  0.00000000000E+00 0.  1.
         21   -1    0    0  505  502  0.00000000000E+00 -0.00000000000E+00 -0.36603988805E+02  0.36603988805E+02  0.00000000000E+00 0.  1.
         21    1    1    2  503  502 -0.10191265926E+02 -0.48042049678E+02  0.16279278454E+03  0.17003938113E+03  0.00000000000E+00 0.  1.
         21    1    1    2  504  503 -0.97008962174E+02 -0.48474520582E+02  0.68930345309E+02  0.12849867856E+03  0.00000000000E+00 0.  1.
         21    1    1    2  505  501  0.42521754344E+02 -0.27012890052E+00  0.55920133208E+03  0.56081574725E+03  0.00000000000E+00 0.  1.
          2    1    1    2  501    0  0.64678473755E+02  0.96786699160E+02  0.14154817835E+04  0.14202604161E+04  0.00000000000E+00 0.  1.
<scales pt_clust_3="49.11110" pt_clust_4="140.42579" pt_clust_5="40.46265" pt_clust_6="40.46265"></scales>
<clustering>
<clus scale="   40.463">  5  6 -1 -1</clus>
<clus scale="   49.111">  2  3  1 -1</clus>
<clus scale="  140.426">  2  4  1 -1</clus>
<clus scale="   49.111">  2  3  1 -1</clus>
</clustering>
</event>
<event>
 6    0  0.1230761E+002  0.1585752E+03  0.7546771E-02  0.1190315E+00
         21   -1    0    0  503  502  0.00000000000E+00  0.00000000000E+00  0.59511116595E+02  0.59511116595E+02  0.00000000000E+00 0. -1.
          2   -1    0    0  504    0 -0.00000000000E+00 -0.00000000000E+00 -0.23036506654E+04  0.23036506654E+04  0.00000000000E+00 0.  1.
         21    1    1    2  503  501  0.47874590666E+02 -0.17607580949E+01 -0.80933028228E+02  0.94049092280E+02  0.00000000000E+00 0.  1.
         21    1    1    2  504  505  0.21607759900E+02 -0.30691969917E+02 -0.14883976226E+03  0.15349973008E+03  0.00000000000E+00 0.  1.
         21    1    1    2  505  502 -0.13081825139E+02  0.15993371847E+03 -0.85707099746E+02  0.18192205859E+03  0.00000000000E+00 0. -1.
          2    1    1    2  501    0 -0.56400525428E+02 -0.12748099046E+03 -0.19286596586E+04  0.19336909011E+04  0.00000000000E+00 0.  1.
<scales pt_clust_3="48.84560" pt_clust_4="37.53521" pt_clust_5="158.57519" pt_clust_6="14000.00000"></scales>
<clustering>
<clus scale="   37.535">  2  4  1 -1</clus>
<clus scale="   48.846">  1  3  2 -1</clus>
<clus scale="  158.575">  1  5  2 -1</clus>
<clus scale="   48.846">  1  3  2 -1</clus>
</clustering>
</event>
<event>
 6    0  0.1230761E+002  0.2444140E+03  0.7546771E-02  0.1116887E+00
          1   -1    0    0  504    0 -0.00000000000E+00  0.00000000000E+00  0.92339546372E+03  0.92339546372E+03  0.00000000000E+00 0.  1.
         21   -1    0    0  501  502  0.00000000000E+00 -0.00000000000E+00 -0.19472118875E+03  0.19472118875E+03  0.00000000000E+00 0.  1.
         21    1    1    2  503  502  0.86492994032E+02 -0.12987693151E+02 -0.54375779906E+02  0.10298758969E+03  0.00000000000E+00 0.  1.
         21    1    1    2  504  505  0.63073839479E+02  0.43386531585E+02  0.26061018805E+03  0.27162174152E+03  0.00000000000E+00 0.  1.
         21    1    1    2  505  503  0.10263463401E+03  0.96134262721E+02 -0.99386585221E+01  0.14097674099E+03  0.00000000000E+00 0.  1.
          1    1    1    2  501    0 -0.25220146752E+03 -0.12653310115E+03  0.53237852534E+03  0.60253058027E+03  0.00000000000E+00 0.  1.
<scales pt_clust_3="87.60815" pt_clust_4="76.55521" pt_clust_5="87.60815" pt_clust_6="216.88371"></scales>
<clustering>
<clus scale="   76.555">  1  4  2 -1</clus>
<clus scale="   87.608">  3  5 -1 -1</clus>
<clus scale="  216.884">  1  6  2 -1</clus>
<clus scale="  244.414">  2  3  1 -1</clus>
</clustering>
</event>
<event>
 6    0  0.1230761E+002  0.6125566E+02  0.7546771E-02  0.1392637E+00
         21   -1    0    0  503  502  0.00000000000E+00  0.00000000000E+00  0.70689453808E+02  0.70689453808E+02  0.00000000000E+00 0. -1.
          4   -1    0    0  505    0 -0.00000000000E+00 -0.00000000000E+00 -0.15594203965E+04  0.15594203965E+04  0.00000000000E+00 0. -1.
         21    1    1    2  503  501  0.41980354324E+02 -0.47926201670E+02 -0.10650675497E+03  0.12410866130E+03  0.00000000000E+00 0. -1.
         21    1    1    2  504  502  0.10057033895E+02  0.80668887580E+02  0.29789478869E+02  0.86579595780E+02  0.00000000000E+00 0. -1.
         21    1    1    2  505  504 -0.34441258136E+02  0.46195672419E+02 -0.39276099220E+03  0.39696528489E+03  0.00000000000E+00 0.  1.
          4    1    1    2  501    0 -0.17596130083E+02 -0.78938358330E+02 -0.10192526744E+04  0.10224563084E+04  0.00000000000E+00 0. -1.
<scales pt_clust_3="58.02646" pt_clust_4="61.25566" pt_clust_5="57.62153" pt_clust_6="14000.00000"></scales>
<clustering>
<clus scale="   57.622">  2  5  1 -1</clus>
<clus scale="   58.026">  1  3  2 -1</clus>
<clus scale="   61.256">  1  4  2 -1</clus>
<clus scale="   58.026">  1  3  2 -1</clus>
</clustering>
</event>
<event>
 6    0  0.1230761E+002  0.8844351E+02  0.7546771E-02  0.1306665E+00
          4   -1    0    0  504    0 -0.00000000000E+00  0.00000000000E+00  0.10258545816E+04  0.10258545816E+04  0.00000000000E+00 0. -1.
         21   -1    0    0  503  502  0.00000000000E+00 -0.00000000000E+00 -0.80934863532E+02  0.80934863532E+02  0.00000000000E+00 0. -1.
         21    1    1    2  503  501 -0.11667700773E+02 -0.86223400311E+02 -0.38024082271E+02  0.94954941078E+02  0.00000000000E+00 0. -1.
         21    1    1    2  504  505 -0.29019399030E+02  0.15658857231E+02  0.11218353845E+03  0.11692934460E+03  0.00000000000E+00 0. -1.
         21    1    1    2  505  502 -0.55729195913E+02 -0.31897828447E+02  0.32647596149E+03  0.33273077430E+03  0.00000000000E+00 0. -1.
          4    1    1    2  501    0  0.96416295715E+02  0.10246237153E+03  0.54428430039E+03  0.56217438514E+03  0.00000000000E+00 0. -1.
<scales pt_clust_3="88.44351" pt_clust_4="32.97462" pt_clust_5="71.23201" pt_clust_6="14000.00000"></scales>
<clustering>
<clus scale="   32.975">  1  4  2 -1</clus>
<clus scale="   71.232">  1  5  2 -1</clus>
<clus scale="   88.444">  2  3  1 -1</clus>
<clus scale="   88.444">  2  3  1 -1</clus>
</clustering>
</event>
<event>
 6    0  0.1230761E+002  0.1358714E+03  0.7546771E-02  0.1218995E+00
         21   -1    0    0  504  502  0.00000000000E+00  0.00000000000E+00  0.66847424881E+03  0.66847424881E+03  0.00000000000E+00 0. -1.
          1   -1    0    0  503    0 -0.00000000000E+00 -0.00000000000E+00 -0.92721073950E+03  0.92721073950E+03  0.00000000000E+00 0.  1.
         21    1    1    2  503  505 -0.41918597936E+02 -0.31956861653E+02 -0.35860447960E+03  0.36245769774E+03  0.00000000000E+00 0.  1.
         21    1    1    2  504  501  0.63749823676E+01  0.95592765104E+02  0.89022044136E+02  0.13078050880E+03  0.00000000000E+00 0. -1.
         21    1    1    2  505  502 -0.46977856171E+02  0.40317325753E+02  0.54680494259E+03  0.55029814735E+03  0.00000000000E+00 0. -1.
          1    1    1    2  501    0  0.82521471739E+02 -0.10395322920E+03 -0.53595899782E+03  0.55214863443E+03  0.00000000000E+00 0.  1.
<scales pt_clust_3="52.71062" pt_clust_4="14000.00000" pt_clust_5="61.94053" pt_clust_6="135.87143"></scales>
<clustering>
<clus scale="   52.711">  2  3  1 -1</clus>
<clus scale="   61.941">  1  5  2 -1</clus>
<clus scale="  135.871">  2  6  1 -1</clus>
<clus scale="   61.941">  1  3  2 -1</clus>
</clustering>
</event>
<event>
 6    0  0.1230761E+002  0.1424148E+03  0.7546771E-02  0.1210116E+00
         -3   -1    0    0    0  501 -0.00000000000E+00  0.00000000000E+00  0.79736925001E+03  0.79736925001E+03  0.00000000000E+00 0. -1.
         21   -1    0    0  505  502  0.00000000000E+00 -0.00000000000E+00 -0.20627125710E+04  0.20627125710E+04  0.00000000000E+00 0. -1.
         21    1    1    2  503  501  0.40737358804E+02  0.36665121843E+02  0.58683353174E+03  0.58938735780E+03  0.00000000000E+00 0. -1.
         21    1    1    2  504  502  0.30897124353E+02 -0.80581931740E+02 -0.16088923783E+04  0.16112053764E+04  0.00000000000E+00 0. -1.
         21    1    1    2  505  503  0.44428293165E+01 -0.58860082331E+02 -0.42953315242E+03  0.43357003707E+03  0.00000000000E+00 0. -1.
         -3    1    1    2    0  504 -0.76077312473E+02  0.10277689223E+03  0.18624867790E+03  0.22591904981E+03  0.00000000000E+00 0. -1.
<scales pt_clust_3="54.80751" pt_clust_4="142.41477" pt_clust_5="58.70593" pt_clust_6="14000.00000"></scales>
<clustering>
<clus scale="   54.808">  1  3  2 -1</clus>
<clus scale="   58.706">  2  5  1 -1</clus>
<clus scale="  142.415">  2  4  1 -1</clus>
<clus scale="   58.706">  2  3  1 -1</clus>
</clustering>
</event>
<event>
 6    0  0.1230761E+002  0.1218697E+03  0.7546771E-02  0.1240044E+00
          2   -1    0    0  505    0 -0.00000000000E+00  0.00000000000E+00  0.59919399334E+03  0.59919399334E+03  0.00000000000E+00 0. -1.
         21   -1    0    0  501  502  0.00000000000E+00 -0.00000000000E+00 -0.73249147128E+02  0.73249147128E+02  0.00000000000E+00 0. -1.
         21    1    1    2  503  504  0.33800178029E+02  0.32659379795E+02  0.66188832402E+02  0.81179114667E+02  0.00000000000E+00 0. -1.
         21    1    1    2  504  502  0.58718921132E+02 -0.17822670864E+02 -0.26122662402E+02  0.66692974042E+02  0.00000000000E+00 0. -1.
         21    1    1    2  505  503  0.42500797421E+02 -0.78280024500E+01  0.40882639980E+02  0.59489374308E+02  0.00000000000E+00 0.  1.
          2    1    1    2  501    0 -0.13501989658E+03 -0.70087064805E+01  0.44499603623E+03  0.46508167745E+03  0.00000000000E+00 0. -1.
<scales pt_clust_3="41.63036" pt_clust_4="61.36415" pt_clust_5="41.63036" pt_clust_6="113.87426"></scales>
<clustering>
<clus scale="   41.630">  3  5 -1 -1</clus>
<clus scale="   61.364">  2  4  1 -1</clus>
<clus scale="  113.874">  1  6  2 -1</clus>
<clus scale="   61.364">  2  3  1 -1</clus>
</clustering>
</event>
<event>
 6    0  0.1230761E+002  0.2021665E+03  0.7546771E-02  0.1147924E+00
          1   -1    0    0  503    0 -0.00000000000E+00  0.00000000000E+00  0.76008165057E+03  0.76008165057E+03  0.00000000000E+00 0.  1.
         21   -1    0    0  505  502  0.00000000000E+00 -0.00000000000E+00 -0.71598870464E+03  0.71598870464E+03  0.00000000000E+00 0.  1.
         21    1    1    2  503  504  0.81016837885E+02  0.37878169522E+02  0.49185627078E+02  0.10206718208E+03  0.00000000000E+00 0. -1.
         21    1    1    2  504  502  0.95317219892E+02  0.50569716484E+02 -0.63389496368E+02  0.12514350516E+03  0.00000000000E+00 0. -1.
         21    1    1    2  505  501 -0.96042346842E+02 -0.25252179238E+03 -0.55051451777E+03  0.61323537267E+03  0.00000000000E+00 0.  1.
          1    1    1    2  501    0 -0.80291710935E+02  0.16407390638E+03  0.60881133299E+03  0.63562429530E+03  0.00000000000E+00 0.  1.
<scales pt_clust_3="89.43424" pt_clust_4="111.93079" pt_clust_5="202.16646" pt_clust_6="14000.00000"></scales>
<clustering>
<clus scale="   89.434">  1  3  2 -1</clus>
<clus scale="  111.931">  2  4  1 -1</clus>
<clus scale="  202.166">  2  5  1 -1</clus>
<clus scale="  111.931">  2  3  1 -1</clus>
</clustering>
</event>
<event>
 6    0  0.1488817E+002  0.9522061E+02  0.7546771E-02  0.1290680E+00
         21   -1    0    0  505  502  0.00000000000E+00  0.00000000000E+00  0.48915444778E+03  0.48915444778E+03  0.00000000000E+00 0.  1.
          1   -1    0    0  504    0 -0.00000000000E+00 -0.00000000000E+00 -0.18115408155E+04  0.18115408155E+04  0.00000000000E+00 0. -1.
         21    1    1    2  503  502  0.46661852184E+02  0.53402170654E+02 -0.15189183614E+03  0.16763129232E+03  0.00000000000E+00 0.  1.
         21    1    1    2  504  503  0.21319743810E+02 -0.31071595784E+02 -0.45924161454E+02  0.59405421857E+02  0.00000000000E+00 0. -1.
         21    1    1    2  505  501  0.37821926938E+02 -0.87365309825E+02  0.46732636654E+03  0.47692465693E+03  0.00000000000E+00 0.  1.
          1    1    1    2  501    0 -0.10580352293E+03  0.65034734956E+02 -0.15918967366E+04  0.15967338921E+04  0.00000000000E+00 0. -1.
<scales pt_clust_3="70.14361" pt_clust_4="37.68256" pt_clust_5="14000.00000" pt_clust_6="95.22061"></scales>
<clustering>
<clus scale="   37.683">  2  4  1 -1</clus>
<clus scale="   70.144">  2  3  1 -1</clus>
<clus scale="   95.221">  2  6  1 -1</clus>
<clus scale="   95.221">  1  3  2 -1</clus>
</clustering>
</event>
<event>
 6    0  0.1230761E+002  0.1772965E+03  0.7546771E-02  0.1170445E+00
         21   -1    0    0  501  502  0.00000000000E+00  0.00000000000E+00  0.57426006871E+02  0.57426006871E+02  0.00000000000E+00 0.  1.
          2   -1    0    0  503    0 -0.00000000000E+00 -0.00000000000E+00 -0.11775806475E+04  0.11775806475E+04  0.00000000000E+00 0.  1.
         21    1    1    2  503  505 -0.11402980221E+02  0.32116962995E+02 -0.12965449586E+03  0.13405900032E+03  0.00000000000E+00 0.  1.
         21    1    1    2  504  502  0.93773718556E+01  0.47397517269E+02 -0.53323117319E+02  0.71957032921E+02  0.00000000000E+00 0. -1.
         21    1    1    2  505  504 -0.68634957695E+02  0.99634570969E+02 -0.68107864522E+02  0.13883978666E+03  0.00000000000E+00 0.  1.
          2    1    1    2  501    0  0.70660566060E+02 -0.17914905123E+03 -0.86906916291E+03  0.89015083445E+03  0.00000000000E+00 0.  1.
<scales pt_clust_3="34.08119" pt_clust_4="42.87218" pt_clust_5="42.87218" pt_clust_6="163.93333"></scales>
<clustering>
<clus scale="   34.081">  2  3  1 -1</clus>
<clus scale="   42.872">  4  5 -1 -1</clus>
<clus scale="  163.933">  2  6  1 -1</clus>
<clus scale="  177.297">  1  3  2 -1</clus>
</clustering>
</event>
<event>
 6    0  0.1230761E+002  0.2967572E+03  0.7546771E-02  0.1086873E+00
          2   -1    0    0  503    0 -0.00000000000E+00  0.00000000000E+00  0.32672699495E+04  0.32672699495E+04  0.00000000000E+00 0. -1.
         21   -1    0    0  501  502  0.00000000000E+00 -0.00000000000E+00 -0.15397390501E+03  0.15397390501E+03  0.00000000000E+00 0.  1.
         21    1    1    2  503  505 -0.18631022455E+02 -0.59176351768E+02  0.54770010516E+03  0.55120264948E+03  0.00000000000E+00 0. -1.
         21    1    1    2  504  502  0.96645855145E+02 -0.24219101575E+03  0.23138348324E+01  0.26077243577E+03  0.00000000000E+00 0.  1.
         21    1    1    2  505  504 -0.17238860670E+02 -0.27130876049E+02  0.92056571810E+01  0.33436609824E+02  0.00000000000E+00 0. -1.
          2    1    1    2  501    0 -0.60775972019E+02  0.32849824357E+03  0.25540764473E+04  0.25758321595E+04  0.00000000000E+00 0. -1.
<scales pt_clust_3="62.03995" pt_clust_4="30.58098" pt_clust_5="30.58098" pt_clust_6="283.68701"></scales>
<clustering>
<clus scale="   30.581">  4  5 -1 -1</clus>
<clus scale="   62.040">  1  3  2 -1</clus>
<clus scale="  283.687">  1  6  2 -1</clus>
<clus scale="  296.757">  2  3  1 -1</clus>
</clustering>
</event>
<event>
 6    0  0.1230761E+002  0.1051241E+03  0.7546771E-02  0.1269875E+00
         21   -1    0    0  504  502  0.00000000000E+00  0.00000000000E+00  0.76250463114E+02  0.76250463114E+02  0.00000000000E+00 0.  1.
          2   -1    0    0  505    0 -0.00000000000E+00 -0.00000000000E+00 -0.28653128016E+04  0.28653128016E+04  0.00000000000E+00 0. -1.
         21    1    1    2  503  501  0.40384249117E+02 -0.14628478488E+02 -0.19690009888E+02  0.47250147608E+02  0.00000000000E+00 0.  1.
         21    1    1    2  504  503 -0.12547204655E+02  0.27767627873E+02  0.50650856565E+02  0.59109921106E+02  0.00000000000E+00 0.  1.
         21    1    1    2  505  502  0.41654000403E+02  0.71337402847E+02 -0.25921259952E+03  0.27205744346E+03  0.00000000000E+00 0.  1.
          2    1    1    2  501    0 -0.69491044866E+02 -0.84476552232E+02 -0.25608105856E+04  0.25631457525E+04  0.00000000000E+00 0. -1.
<scales pt_clust_3="32.45927" pt_clust_4="30.47086" pt_clust_5="105.12408" pt_clust_6="14000.00000"></scales>
<clustering>
<clus scale="   30.471">  1  4  2 -1</clus>
<clus scale="   32.459">  1  3  2 -1</clus>
<clus scale="  105.124">  1  5  2 -1</clus>
<clus scale="   30.471">  1  3  2 -1</clus>
</clustering>
</event>
<event>
 6    0  0.1230761E+002  0.1179948E+03  0.7546771E-02  0.1246442E+00
         -3   -1    0    0    0  501 -0.00000000000E+00  0.00000000000E+00  0.44205420896E+02  0.44205420896E+02  0.00000000000E+00 0. -1.
         21   -1    0    0  505  502  0.00000000000E+00 -0.00000000000E+00 -0.13690575919E+04  0.13690575919E+04  0.00000000000E+00 0. -1.
         21    1    1    2  503  501  0.21021959265E+02  0.57463586448E+02 -0.31380519075E+02  0.68765714686E+02  0.00000000000E+00 0. -1.
         21    1    1    2  504  502  0.74228209793E+02  0.25700112261E+02 -0.30889623241E+03  0.31872747810E+03  0.00000000000E+00 0. -1.
         21    1    1    2  505  503  0.62549423757E+01 -0.13764721433E+03 -0.76993313382E+03  0.78216552626E+03  0.00000000000E+00 0. -1.
         -3    1    1    2    0  504 -0.10150511143E+03  0.54483515618E+02 -0.21464228567E+03  0.24360429372E+03  0.00000000000E+00 0. -1.
<scales pt_clust_3="61.18812" pt_clust_4="86.48524" pt_clust_5="14000.00000" pt_clust_6="117.99480"></scales>
<clustering>
<clus scale="   61.188">  1  3  2 -1</clus>
<clus scale="   86.485">  2  4  1 -1</clus>
<clus scale="  117.995">  1  6  2 -1</clus>
<clus scale="   86.485">  2  3  1 -1</clus>
</clustering>
</event>
<event>
 6    0  0.1230761E+002  0.7096693E+02  0.7546771E-02  0.1356835E+00
          2   -1    0    0  505    0 -0.00000000000E+00  0.00000000000E+00  0.69738706893E+03  0.69738706893E+03  0.00000000000E+00 0.  1.
         21   -1    0    0  504  502  0.00000000000E+00 -0.00000000000E+00 -0.22513383962E+03  0.22513383962E+03  0.00000000000E+00 0.  1.
         21    1    1    2  503  501 -0.10127940860E+02 -0.51862076426E+02 -0.36971650273E+02  0.64491496193E+02  0.00000000000E+00 0.  1.
         21    1    1    2  504  503 -0.49874110149E+02  0.11369870515E+02 -0.15181304358E+03  0.16019956622E+03  0.00000000000E+00 0.  1.
         21    1    1    2  505  502 -0.41068754889E+02 -0.39119595446E+02  0.42706976298E+03  0.43081964652E+03  0.00000000000E+00 0.  1.
          2    1    1    2  501    0  0.10107080590E+03  0.79611801356E+02  0.23396816018E+03  0.26701019961E+03  0.00000000000E+00 0.  1.
<scales pt_clust_3="14000.00000" pt_clust_4="51.15370" pt_clust_5="57.49689" pt_clust_6="70.96693"></scales>
<clustering>
<clus scale="   51.154">  2  4  1 -1</clus>
<clus scale="   57.497">  1  5  2 -1</clus>
<clus scale="   70.967">  1  6  2 -1</clus>
<clus scale="   51.154">  2  3  1 -1</clus>
</clustering>
</event>
<event>
 6    0  0.1230761E+002  0.1100517E+03  0.7546771E-02  0.1260474E+00
         21   -1    0    0  503  502  0.00000000000E+00  0.00000000000E+00  0.43746611050E+03  0.43746611050E+03  0.00000000000E+00 0.  1.
          4   -1    0    0  505    0 -0.00000000000E+00 -0.00000000000E+00 -0.81587172728E+02  0.81587172728E+02  0.00000000000E+00 0.  1.
         21    1    1    2  503  504  0.53204227244E+02 -0.50096584793E+01  0.76717593819E+02  0.93495324354E+02  0.00000000000E+00 0.  1.
         21    1    1    2  504  501  0.44815585121E+02  0.64904568591E+02  0.22613132547E+03  0.23949199580E+03  0.00000000000E+00 0.  1.
         21    1    1    2  505  502  0.29932270422E+02  0.80507103813E+01 -0.20770024649E+01  0.31065554711E+02  0.00000000000E+00 0.  1.
          4    1    1    2  501    0 -0.12795208279E+03 -0.67945620493E+02  0.55107020942E+02  0.15500040836E+03  0.00000000000E+00 0.  1.
<scales pt_clust_3="57.20431" pt_clust_4="110.05172" pt_clust_5="30.99604" pt_clust_6="14000.00000"></scales>
<clustering>
<clus scale="   30.996">  2  5  1 -1</clus>
<clus scale="   57.204">  1  3  2 -1</clus>
<clus scale="  110.052">  1  4  2 -1</clus>
<clus scale="   57.204">  1  3  2 -1</clus>
</clustering>
</event>
<event>
 6    0  0.1230761E+002  0.1080689E+03  0.7546771E-02  0.1264188E+00
          2   -1    0    0  503    0 -0.00000000000E+00  0.00000000000E+00  0.64083897857E+03  0.64083897857E+03  0.00000000000E+00 0.  1.
         21   -1    0    0  505  502  0.00000000000E+00 -0.00000000000E+00 -0.47315160619E+03  0.47315160619E+03  0.00000000000E+00 0. -1.
         21    1    1    2  503  504  0.37922607729E+02  0.49494302363E+01  0.18971335424E+03  0.19352978534E+03  0.00000000000E+00 0.  1.
         21    1    1    2  504  502 -0.29217280675E+02 -0.69333969246E+02 -0.42654918784E+03  0.43313399593E+03  0.00000000000E+00 0. -1.
         21    1    1    2  505  501  0.60470387125E+01 -0.37382658555E+02 -0.25189738161E+02  0.45481345038E+02  0.00000000000E+00 0. -1.
          2    1    1    2  501    0 -0.14752365766E+02  0.10176719756E+03  0.42971294414E+03  0.44184545846E+03  0.00000000000E+00 0.  1.
<scales pt_clust_3="38.24963" pt_clust_4="14000.00000" pt_clust_5="37.86859" pt_clust_6="108.06888"></scales>
<clustering>
<clus scale="   37.869">  2  5  1 -1</clus>
<clus scale="   38.250">  1  3  2 -1</clus>
<clus scale="  108.069">  1  6  2 -1</clus>
<clus scale="   37.869">  2  3  1 -1</clus>
</clustering>
</event>
<event>
 6    0  0.1230761E+002  0.1294259E+03  0.7546771E-02  0.1228310E+00
          1   -1    0    0  505    0 -0.00000000000E+00  0.00000000000E+00  0.18236039019E+04  0.18236039019E+04  0.00000000000E+00 0. -1.
         21   -1    0    0  501  502  0.00000000000E+00 -0.00000000000E+00 -0.97952106942E+02  0.97952106942E+02  0.00000000000E+00 0.  1.
         21    1    1    2  503  504 -0.81937028315E+01 -0.34613896686E+02  0.10253454935E+02  0.37018805329E+02  0.00000000000E+00 0. -1.
         21    1    1    2  504  502 -0.28593077771E+02 -0.79257376839E+02 -0.57943373154E+02  0.10225815553E+03  0.00000000000E+00 0.  1.
         21    1    1    2  505  503  0.30313644333E+02  0.13518338911E+02  0.11806731335E+04  0.11811395814E+04  0.00000000000E+00 0. -1.
          1    1    1    2  501    0  0.64731362696E+01  0.10035293461E+03  0.59266857966E+03  0.60113946659E+03  0.00000000000E+00 0. -1.
<scales pt_clust_3="34.21162" pt_clust_4="34.21162" pt_clust_5="33.19130" pt_clust_6="118.09848"></scales>
<clustering>
<clus scale="   33.191">  1  5  2 -1</clus>
<clus scale="   34.212">  3  4 -1 -1</clus>
<clus scale="  118.098">  1  6  2 -1</clus>
<clus scale="  129.426">  2  3  1 -1</clus>
</clustering>
</event>
<event>
 6    0  0.1230761E+002  0.7623949E+02  0.7546771E-02  0.1340075E+00
         21   -1    0    0  504  502  0.00000000000E+00  0.00000000000E+00  0.60597178221E+03  0.60597178221E+03  0.00000000000E+00 0. -1.
         -2   -1    0    0    0  501 -0.00000000000E+00 -0.00000000000E+00 -0.30389465333E+03  0.30389465333E+03  0.00000000000E+00 0. -1.
         21    1    1    2  503  502 -0.82363611584E+02 -0.47813192196E+01  0.53514700100E+03  0.54146924032E+03  0.00000000000E+00 0. -1.
         21    1    1    2  504  501  0.35339071025E+02  0.31828194946E+02  0.26775031309E+02  0.54578257906E+02  0.00000000000E+00 0. -1.
         21    1    1    2  505  503 -0.29129799291E+02 -0.62986787589E+02 -0.44102949703E+02  0.82225001003E+02  0.00000000000E+00 0. -1.
         -2    1    1    2    0  505  0.76154339851E+02  0.35939911862E+02 -0.21574195373E+03  0.23159393632E+03  0.00000000000E+00 0. -1.
<scales pt_clust_3="54.99518" pt_clust_4="47.55927" pt_clust_5="14000.00000" pt_clust_6="76.23949"></scales>
<clustering>
<clus scale="   47.559">  1  4  2 -1</clus>
<clus scale="   54.995">  1  3  2 -1</clus>
<clus scale="   76.239">  2  6  1 -1</clus>
<clus scale="   47.559">  1  3  2 -1</clus>
</clustering>
</event>
<event>
 6    0  0.1230761E+002  0.9253705E+02  0.7546771E-02  0.1296822E+00
         21   -1    0    0  501  502  0.00000000000E+00  0.00000000000E+00  0.31704222521E+03  0.31704222521E+03  0.00000000000E+00 0. -1.
          1   -1    0    0  505    0 -0.00000000000E+00 -0.00000000000E+00 -0.11346739033E+03  0.11346739033E+03  0.00000000000E+00 0. -1.
         21    1    1    2  503  504 -0.14374357093E+02  0.53931590110E+02  0.17752343960E+03  0.18609086533E+03  0.00000000000E+00 0. -1.
         21    1    1    2  504  502 -0.45240208360E+02  0.24086646705E+02  0.34372960423E+02  0.61711776917E+02  0.00000000000E+00 0. -1.
         21    1    1    2  505  503  0.56257791520E+00  0.41690209888E+02  0.20017907249E+02  0.46250477889E+02  0.00000000000E+00 0. -1.
          1    1    1    2  501    0  0.59051987538E+02 -0.11970844670E+03 -0.28339472382E+02  0.13645649541E+03  0.00000000000E+00 0. -1.
<scales pt_clust_3="92.53705" pt_clust_4="54.09006" pt_clust_5="41.69401" pt_clust_6="14000.00000"></scales>
<clustering>
<clus scale="   41.694">  2  5  1 -1</clus>
<clus scale="   54.090">  1  4  2 -1</clus>
<clus scale="   92.537">  1  3  2 -1</clus>
<clus scale="   54.090">  1  3  2 -1</clus>
</clustering>
</event>
<event>
 6    0  0.1230761E+002  0.2566255E+03  0.7546771E-02  0.1109188E+00
          2   -1    0    0  505    0 -0.00000000000E+00  0.00000000000E+00  0.17202146064E+04  0.17202146064E+04  0.00000000000E+00 0. -1.
         21   -1    0    0  504  502  0.00000000000E+00 -0.00000000000E+00 -0.79491653160E+03  0.79491653160E+03  0.00000000000E+00 0.  1.
         21    1    1    2  503  502 -0.64796838825E+02  0.39217928075E+02 -0.14658759853E+03  0.16499878862E+03  0.00000000000E+00 0. -1.
         21    1    1    2  504  501  0.87610853046E+01  0.58412837119E+02  0.33865735891E+03  0.34376972365E+03  0.00000000000E+00 0.  1.
         21    1    1    2  505  503  0.19435735204E+03 -0.23648252972E+03 -0.59214086283E+03  0.66658050421E+03  0.00000000000E+00 0.  1.
          2    1    1    2  501    0 -0.13832159852E+03  0.13885176453E+03  0.13253691773E+04  0.13397821215E+04  0.00000000000E+00 0. -1.
<scales pt_clust_3="75.74085" pt_clust_4="53.96505" pt_clust_5="237.05148" pt_clust_6="53.96505"></scales>
<clustering>
<clus scale="   53.965">  4  6 -1 -1</clus>
<clus scale="   75.741">  2  3  1 -1</clus>
<clus scale="  237.051">  2  5  1 -1</clus>
<clus scale="   75.741">  2  3  1 -1</clus>
</clustering>
</event>
<event>
 6    0  0.1230761E+002  0.1934411E+03  0.7546771E-02  0.1155394E+00
         21   -1    0    0  501  502  0.00000000000E+00  0.00000000000E+00  0.24069314351E+03  0.24069314351E+03  0.00000000000E+00 0. -1.
          2   -1    0    0  503    0 -0.00000000000E+00 -0.00000000000E+00 -0.95633208309E+03  0.95633208309E+03  0.00000000000E+00 0. -1.
         21    1    1    2  503  505 -0.71545801090E+02 -0.25303999487E+02 -0.63113724644E+03  0.63568334719E+03  0.00000000000E+00 0. -1.
         21    1    1    2  504  502  0.74985963956E+02  0.80884597164E+02  0.81136322902E+02  0.13692448920E+03  0.00000000000E+00 0.  1.
         21    1    1    2  505  504  0.77264407197E+02  0.49777285556E+02  0.94845671590E+02  0.13207296542E+03  0.00000000000E+00 0. -1.
          2    1    1    2  501    0 -0.80704570062E+02 -0.10535788323E+03 -0.26048368763E+03  0.29234442479E+03  0.00000000000E+00 0. -1.
<scales pt_clust_3="75.88870" pt_clust_4="30.78462" pt_clust_5="30.78462" pt_clust_6="190.47885"></scales>
<clustering>
<clus scale="   30.785">  4  5 -1 -1</clus>
<clus scale="   75.889">  2  3  1 -1</clus>
<clus scale="  190.479">  2  6  1 -1</clus>
<clus scale="  193.441">  1  3  2 -1</clus>
</clustering>
</event>
<event>
 6    0  0.1230761E+002  0.8446407E+02  0.7546771E-02  0.1316840E+00
         21   -1    0    0  504  502  0.00000000000E+00  0.00000000000E+00  0.78608069160E+03  0.78608069160E+03  0.00000000000E+00 0. -1.
          2   -1    0    0  503    0 -0.00000000000E+00 -0.00000000000E+00 -0.17868542935E+04  0.17868542935E+04  0.00000000000E+00 0. -1.
         21    1    1    2  503  505  0.35169346350E+02  0.34165272279E+01 -0.14648465948E+03  0.15068613421E+03  0.00000000000E+00 0. -1.
         21    1    1    2  504  501 -0.47436557281E+02  0.70301614417E+00  0.40785668500E+03  0.41060662038E+03  0.00000000000E+00 0. -1.
         21    1    1    2  505  502  0.89059873752E+02 -0.73845067977E+02  0.36412737636E+03  0.38206478691E+03  0.00000000000E+00 0. -1.
          2    1    1    2  501    0 -0.76792662822E+02  0.69725524605E+02 -0.16262730038E+04  0.16295774436E+04  0.00000000000E+00 0. -1.
<scales pt_clust_3="35.33491" pt_clust_4="47.41230" pt_clust_5="14000.00000" pt_clust_6="84.46407"></scales>
<clustering>
<clus scale="   35.335">  2  3  1 -1</clus>
<clus scale="   47.412">  1  4  2 -1</clus>
<clus scale="   84.464">  2  6  1 -1</clus>
<clus scale="   47.412">  1  3  2 -1</clus>
</clustering>
</event>
<event>
 6    0  0.1230761E+002  0.1228421E+03  0.7546771E-02  0.1238481E+00
          1   -1    0    0  503    0 -0.00000000000E+00  0.00000000000E+00  0.11565919801E+04  0.11565919801E+04  0.00000000000E+00 0.  1.
         21   -1    0    0  505  502  0.00000000000E+00 -0.00000000000E+00 -0.26482091602E+03  0.26482091602E+03  0.00000000000E+00 0. -1.
         21    1    1    2  503  504  0.52619550881E+02  0.21995020393E+02 -0.21314189118E+03  0.22064012290E+03  0.00000000000E+00 0. -1.
         21    1    1    2  504  502  0.24848068643E+02  0.31813696504E+02 -0.24770981937E+02  0.47361792055E+02  0.00000000000E+00 0. -1.
         21    1    1    2  505  501  0.19507422456E+02  0.23343424652E+02  0.19068822654E+02  0.35903690657E+02  0.00000000000E+00 0.  1.
          1    1    1    2  501    0 -0.96975041980E+02 -0.77152141549E+02  0.11106151145E+04  0.11175072905E+04  0.00000000000E+00 0.  1.
<scales pt_clust_3="122.84208" pt_clust_4="44.64456" pt_clust_5="30.42129" pt_clust_6="14000.00000"></scales>
<clustering>
<clus scale="   30.421">  2  5  1 -1</clus>
<clus scale="   44.645">  2  4  1 -1</clus>
<clus scale="  122.842">  2  3  1 -1</clus>
<clus scale="   30.421">  2  3  1 -1</clus>
</clustering>
</event>
<event>
 6    0  0.1230761E+002  0.1495807E+03  0.7546771E-02  0.1200989E+00
          1   -1    0    0  504    0 -0.00000000000E+00  0.00000000000E+00  0.14640782580E+04  0.14640782580E+04  0.00000000000E+00 0. -1.
         21   -1    0    0  503  502  0.00000000000E+00 -0.00000000000E+00 -0.26828560623E+03  0.26828560623E+03  0.00000000000E+00 0.  1.
         21    1    1    2  503  501  0.13575581171E+03  0.32835480621E+02 -0.19546911005E+03  0.24024150804E+03  0.00000000000E+00 0.  1.
         21    1    1    2  504  505  0.96447566361E+02  0.22302109218E+02  0.19925386307E+03  0.22248959320E+03  0.00000000000E+00 0.  1.
         21    1    1    2  505  502 -0.65053095671E+02  0.95350432063E+01  0.15575965888E+01  0.65766620808E+02  0.00000000000E+00 0. -1.
          1    1    1    2  501    0 -0.16715028240E+03 -0.64672633044E+02  0.11904503022E+04  0.12038661422E+04  0.00000000000E+00 0. -1.
<scales pt_clust_3="86.43625" pt_clust_4="14000.00000" pt_clust_5="65.74817" pt_clust_6="149.58070"></scales>
<clustering>
<clus scale="   65.748">  2  5  1 -1</clus>
<clus scale="   86.436">  2  3  1 -1</clus>
<clus scale="  149.581">  1  6  2 -1</clus>
<clus scale="   65.748">  2  3  1 -1</clus>
</clustering>
</event>
<event>
 6    0  0.1230761E+002  0.6215824E+03  0.7546771E-02  0.9861614E-01
          4   -1    0    0  504    0 -0.00000000000E+00  0.00000000000E+00  0.10431437871E+04  0.10431437871E+04  0.00000000000E+00 0. -1.
         21   -1    0    0  503  502  0.00000000000E+00 -0.00000000000E+00 -0.13164478179E+04  0.13164478179E+04  0.00000000000E+00 0.  1.
         21    1    1    2  503  501 -0.48142468374E+01  0.71907083766E+02 -0.27304734269E+02  0.77067205619E+02  0.00000000000E+00 0. -1.
         21    1    1    2  504  505  0.94139941921E+02 -0.39368909535E+02  0.28962986821E+02  0.10607117567E+03  0.00000000000E+00 0. -1.
         21    1    1    2  505  502  0.27050340371E+03  0.49763679373E+03 -0.10365305454E+04  0.11811900953E+04  0.00000000000E+00 0.  1.
          4    1    1    2  501    0 -0.35982909879E+03 -0.53017496796E+03  0.76156826203E+03  0.99526312838E+03  0.00000000000E+00 0. -1.
<scales pt_clust_3="72.06806" pt_clust_4="101.07804" pt_clust_5="14000.00000" pt_clust_6="621.58237"></scales>
<clustering>
<clus scale="   72.068">  2  3  1 -1</clus>
<clus scale="  101.078">  1  4  2 -1</clus>
<clus scale="  621.582">  1  6  2 -1</clus>
<clus scale="   72.068">  2  3  1 -1</clus>
</clustering>
</event>
<event>
 6    0  0.1230761E+002  0.3739257E+03  0.7546771E-02  0.1053202E+00
         21   -1    0    0  501  502  0.00000000000E+00  0.00000000000E+00  0.16133576142E+03  0.16133576142E+03  0.00000000000E+00 0.  1.
          2   -1    0    0  505    0 -0.00000000000E+00 -0.00000000000E+00 -0.43309409806E+04  0.43309409806E+04  0.00000000000E+00 0.  1.
         21    1    1    2  503  502 -0.29004656141E+03  0.22011693456E+03 -0.12001991602E+03  0.38338394973E+03  0.00000000000E+00 0.  1.
         21    1    1    2  504  503 -0.53750566463E+02 -0.30437840414E+01 -0.14236096280E+03  0.15220062991E+03  0.00000000000E+00 0. -1.
         21    1    1    2  505  504 -0.39272904344E+02  0.36263512649E+02 -0.17641666710E+04  0.17649763303E+04  0.00000000000E+00 0.  1.
          2    1    1    2  501    0  0.38307003222E+03 -0.25333666317E+03 -0.21430576693E+04  0.21917158320E+04  0.00000000000E+00 0.  1.
<scales pt_clust_3="373.92570" pt_clust_4="56.01266" pt_clust_5="53.45469" pt_clust_6="14000.00000"></scales>
<clustering>
<clus scale="   53.455">  2  5  1 -1</clus>
<clus scale="   56.013">  2  4  1 -1</clus>
<clus scale="  373.926">  1  3  2 -1</clus>
<clus scale="  373.926">  1  3  2 -1</clus>
</clustering>
</event>
<event>
 6    0  0.1230761E+002  0.1317420E+03  0.7546771E-02  0.1224894E+00
          2   -1    0    0  502    0 -0.00000000000E+00  0.00000000000E+00  0.34342034033E+04  0.34342034033E+04  0.00000000000E+00 0.  1.
         21   -1    0    0  504  502  0.00000000000E+00 -0.00000000000E+00 -0.48278135931E+02  0.48278135931E+02  0.00000000000E+00 0.  1.
         21    1    1    2  503  501 -0.10058609486E+03 -0.24270742325E+02  0.15610818564E+04  0.15645073326E+04  0.00000000000E+00 0.  1.
         21    1    1    2  504  505  0.60234778655E+02 -0.19314245504E+02  0.41489316142E+01  0.63391500002E+02  0.00000000000E+00 0.  1.
         21    1    1    2  505  503  0.64374908554E+02 -0.25259303115E+01  0.46082589094E+02  0.79209306226E+02  0.00000000000E+00 0.  1.
          2    1    1    2  501    0 -0.24023592348E+02  0.46110918140E+02  0.17746118903E+04  0.17753734005E+04  0.00000000000E+00 0.  1.
<scales pt_clust_3="124.69460" pt_clust_4="42.12396" pt_clust_5="42.12396" pt_clust_6="51.99375"></scales>
<clustering>
<clus scale="   42.124">  4  5 -1 -1</clus>
<clus scale="   51.994">  1  6  2 -1</clus>
<clus scale="  124.695">  1  3  2 -1</clus>
<clus scale="  131.742">  2  3  1 -1</clus>
</clustering>
</event>
<event>
 6    0  0.1230761E+002  0.1285661E+03  0.7546771E-02  0.1229599E+00
         21   -1    0    0  503  502  0.00000000000E+00  0.00000000000E+00  0.26815529459E+03  0.26815529459E+03  0.00000000000E+00 0.  1.
         -2   -1    0    0    0  501 -0.00000000000E+00 -0.00000000000E+00 -0.25325704471E+03  0.25325704471E+03  0.00000000000E+00 0.  1.
         21    1    1    2  503  505  0.25742683938E+02 -0.50683366292E+02  0.83366009655E+02  0.10090282930E+03  0.00000000000E+00 0.  1.
         21    1    1    2  504  501  0.19325665119E+02 -0.35578827295E+02 -0.79573000183E+01  0.41263214944E+02  0.00000000000E+00 0. -1.
         21    1    1    2  505  504 -0.22081643337E+02 -0.65047893787E+02  0.12264006128E+03  0.14056817595E+03  0.00000000000E+00 0.  1.
         -2    1    1    2    0  502 -0.22986705720E+02  0.15131008737E+03 -0.18315052105E+03  0.23867811911E+03  0.00000000000E+00 0.  1.
<scales pt_clust_3="45.39739" pt_clust_4="40.48869" pt_clust_5="45.39739" pt_clust_6="118.60283"></scales>
<clustering>
<clus scale="   40.489">  2  4  1 -1</clus>
<clus scale="   45.397">  3  5 -1 -1</clus>
<clus scale="  118.603">  2  6  1 -1</clus>
<clus scale="  128.566">  1  3  2 -1</clus>
</clustering>
</event>
<event>
 6    0  0.1230761E+002  0.1283373E+03  0.7546771E-02  0.1229944E+00
          1   -1    0    0  504    0 -0.00000000000E+00  0.00000000000E+00  0.20211425796E+04  0.20211425796E+04  0.00000000000E+00 0.  1.
         21   -1    0    0  501  502  0.00000000000E+00 -0.00000000000E+00 -0.22065545823E+02  0.22065545823E+02  0.00000000000E+00 0.  1.
         21    1    1    2  503  502  0.32133018641E+02 -0.13038653588E+02  0.31208441862E+02  0.46653019386E+02  0.00000000000E+00 0.  1.
         21    1    1    2  504  505 -0.93987160047E+01 -0.29727158229E+02  0.61299733911E+03  0.61378968512E+03  0.00000000000E+00 0.  1.
         21    1    1    2  505  503 -0.11138707383E+03 -0.67140631974E+02  0.51877949327E+03  0.53483371932E+03  0.00000000000E+00 0.  1.
          1    1    1    2  501    0  0.88652771194E+02  0.10990644379E+03  0.83609175951E+03  0.84793170159E+03  0.00000000000E+00 0.  1.
<scales pt_clust_3="34.75651" pt_clust_4="31.17755" pt_clust_5="14000.00000" pt_clust_6="128.33732"></scales>
<clustering>
<clus scale="   31.178">  1  4  2 -1</clus>
<clus scale="   34.757">  2  3  1 -1</clus>
<clus scale="  128.337">  1  6  2 -1</clus>
<clus scale="   34.757">  2  3  1 -1</clus>
</clustering>
</event>
<event>
 6    0  0.1230761E+002  0.2024308E+03  0.7546771E-02  0.1147704E+00
          2   -1    0    0  504    0 -0.00000000000E+00  0.00000000000E+00  0.13163995654E+04  0.13163995654E+04  0.00000000000E+00 0.  1.
         21   -1    0    0  501  502  0.00000000000E+00 -0.00000000000E+00 -0.15834903603E+03  0.15834903603E+03  0.00000000000E+00 0. -1.
         21    1    1    2  503  505  0.34028740270E+02  0.13154944966E+03 -0.87732121732E+01  0.13616233738E+03  0.00000000000E+00 0. -1.
         21    1    1    2  504  503 -0.10357602685E+03  0.88663175074E+02  0.35297175188E+03  0.37838896599E+03  0.00000000000E+00 0. -1.
         21    1    1    2  505  502  0.26435646438E+02  0.49556702061E+02 -0.36535895202E+02  0.67004341351E+02  0.00000000000E+00 0.  1.
          2    1    1    2  501    0  0.43111640141E+02 -0.26976932679E+03  0.85038788481E+03  0.89319295666E+03  0.00000000000E+00 0.  1.
<scales pt_clust_3="33.82811" pt_clust_4="136.34204" pt_clust_5="33.82811" pt_clust_6="195.47335"></scales>
<clustering>
<clus scale="   33.828">  3  5 -1 -1</clus>
<clus scale="  136.342">  1  4  2 -1</clus>
<clus scale="  195.473">  1  6  2 -1</clus>
<clus scale="  202.431">  2  3  1 -1</clus>
</clustering>
</event>
<event>
 6    0  0.1230761E+002  0.8832259E+02  0.7546771E-02  0.1306965E+00
         21   -1    0    0  505  502  0.00000000000E+00  0.00000000000E+00  0.80400488810E+02  0.80400488810E+02  0.00000000000E+00 0. -1.
         -1   -1    0    0    0  501 -0.00000000000E+00 -0.00000000000E+00 -0.49833271536E+03  0.49833271536E+03  0.00000000000E+00 0. -1.
         21    1    1    2  503  502  0.44225234944E+02 -0.10871939214E+01  0.12682064377E+02  0.46020518830E+02  0.00000000000E+00 0. -1.
         21    1    1    2  504  503  0.31720563719E+01 -0.73143604582E+02 -0.15982411913E+02  0.74936548649E+02  0.00000000000E+00 0. -1.
         21    1    1    2  505  501 -0.34295476811E+02 -0.49789637170E+02 -0.20623483977E+03  0.21491392890E+03  0.00000000000E+00 0. -1.
         -1    1    1    2    0  504 -0.13101814505E+02  0.12402043567E+03 -0.20839703924E+03  0.24286220779E+03  0.00000000000E+00 0. -1.
<scales pt_clust_3="44.23860" pt_clust_4="14000.00000" pt_clust_5="58.48648" pt_clust_6="88.32259"></scales>
<clustering>
<clus scale="   44.239">  1  3  2 -1</clus>
<clus scale="   58.486">  2  5  1 -1</clus>
<clus scale="   88.323">  2  6  1 -1</clus>
<clus scale="   44.239">  1  3  2 -1</clus>
</clustering>
</event>
<event>
 6    0  0.1230761E+002  0.9675485E+02  0.7546771E-02  0.1287272E+00
         -2   -1    0    0    0  501 -0.00000000000E+00  0.00000000000E+00  0.94256222782E+03  0.94256222782E+03  0.00000000000E+00 0. -1.
         21   -1    0    0  505  502  0.00000000000E+00 -0.00000000000E+00 -0.11836714615E+04  0.11836714615E+04  0.00000000000E+00 0.  1.
         21    1    1    2  503  502 -0.19258777710E+02 -0.33394089954E+02 -0.32249149167E+03  0.32478735807E+03  0.00000000000E+00 0.  1.
         21    1    1    2  504  503 -0.73740313822E+02  0.61420301820E+01 -0.84971667731E+03  0.85293246516E+03  0.00000000000E+00 0.  1.
         21    1    1    2  505  501 -0.18134776090E+02 -0.29164680463E+02  0.65205390293E+02  0.73696618739E+02  0.00000000000E+00 0. -1.
         -2    1    1    2    0  504  0.11113386762E+03  0.56416740236E+02  0.86589354497E+03  0.87481724739E+03  0.00000000000E+00 0. -1.
<scales pt_clust_3="38.59465" pt_clust_4="14000.00000" pt_clust_5="34.34310" pt_clust_6="96.75485"></scales>
<clustering>
<clus scale="   34.343">  1  5  2 -1</clus>
<clus scale="   38.595">  2  3  1 -1</clus>
<clus scale="   96.755">  1  6  2 -1</clus>
<clus scale="   38.595">  2  3  1 -1</clus>
</clustering>
</event>
<event>
 6    0  0.1230761E+002  0.6814264E+02  0.7546771E-02  0.1366525E+00
          1   -1    0    0  505    0 -0.00000000000E+00  0.00000000000E+00  0.21857333961E+04  0.21857333961E+04  0.00000000000E+00 0. -1.
         21   -1    0    0  503  502  0.00000000000E+00 -0.00000000000E+00 -0.39233771495E+02  0.39233771495E+02  0.00000000000E+00 0.  1.
         21    1    1    2  503  504 -0.31214598281E+02  0.53147102744E+02  0.58215898571E+02  0.84782406916E+02  0.00000000000E+00 0.  1.
         21    1    1    2  504  501  0.96032132536E+02 -0.30679187490E+02  0.79643168630E+02  0.12847730280E+03  0.00000000000E+00 0.  1.
         21    1    1    2  505  502 -0.62877593126E+01 -0.35365527221E+02  0.32108783374E+03  0.32309078200E+03  0.00000000000E+00 0. -1.
          1    1    1    2  501    0 -0.58529774942E+02  0.12897611968E+02  0.16875527237E+04  0.16886166759E+04  0.00000000000E+00 0. -1.
<scales pt_clust_3="60.59459" pt_clust_4="68.14264" pt_clust_5="35.92014" pt_clust_6="14000.00000"></scales>
<clustering>
<clus scale="   35.920">  1  5  2 -1</clus>
<clus scale="   60.595">  2  3  1 -1</clus>
<clus scale="   68.143">  2  4  1 -1</clus>
<clus scale="   60.595">  2  3  1 -1</clus>
</clustering>
</event>
<event>
 6    0  0.1230761E+002  0.9520809E+02  0.7546771E-02  0.1290708E+00
          2   -1    0    0  504    0 -0.00000000000E+00  0.00000000000E+00  0.17600145490E+04  0.17600145490E+04  0.00000000000E+00 0. -1.
         21   -1    0    0  505  502  0.00000000000E+00 -0.00000000000E+00 -0.14456857675E+03  0.14456857675E+03  0.00000000000E+00 0. -1.
         21    1    1    2  503  502  0.43688012779E+02 -0.46718864764E+02 -0.20535550899E+02  0.67178892788E+02  0.00000000000E+00 0.  1.
         21    1    1    2  504  503  0.71509878083E+01 -0.31820636919E+02  0.10673450498E+04  0.10678432211E+04  0.00000000000E+00 0. -1.
         21    1    1    2  505  501  0.34524052985E+02 -0.10921339481E+02 -0.91258920954E+02  0.98180326666E+02  0.00000000000E+00 0. -1.
          2    1    1    2  501    0 -0.85363053573E+02  0.89460841164E+02  0.65989539439E+03  0.67138068527E+03  0.00000000000E+00 0. -1.
<scales pt_clust_3="95.20809" pt_clust_4="32.61425" pt_clust_5="36.29262" pt_clust_6="14000.00000"></scales>
<clustering>
<clus scale="   32.614">  1  4  2 -1</clus>
<clus scale="   36.293">  2  5  1 -1</clus>
<clus scale="   95.208">  2  3  1 -1</clus>
<clus scale="   36.293">  2  3  1 -1</clus>
</clustering>
</event>
<event>
 6    0  0.1230761E+002  0.9093543E+02  0.7546771E-02  0.1300602E+00
         21   -1    0    0  505  502  0.00000000000E+00  0.00000000000E+00  0.53467329968E+03  0.53467329968E+03  0.00000000000E+00 0.  1.
          2   -1    0    0  504    0 -0.00000000000E+00 -0.00000000000E+00 -0.42548355156E+03  0.42548355156E+03  0.00000000000E+00 0. -1.
         21    1    1    2  503  501 -0.10270396609E+03  0.17019756819E+02  0.42887300216E+02  0.11259261651E+03  0.00000000000E+00 0.  1.
         21    1    1    2  504  502  0.67128728164E+02 -0.14275195268E+02  0.13871421081E+03  0.15476330194E+03  0.00000000000E+00 0.  1.
         21    1    1    2  505  503 -0.54494741507E+02 -0.57434320728E+00  0.30242107111E+03  0.30729222407E+03  0.00000000000E+00 0.  1.
          2    1    1    2  501    0  0.90069979434E+02 -0.21702183440E+01 -0.37483283402E+03  0.38550870872E+03  0.00000000000E+00 0. -1.
<scales pt_clust_3="90.93543" pt_clust_4="35.49437" pt_clust_5="54.49777" pt_clust_6="14000.00000"></scales>
<clustering>
<clus scale="   54.498">  1  5  2 -1</clus>
<clus scale="   35.494">  1  4  2 -1</clus>
<clus scale="   90.935">  1  3  2 -1</clus>
<clus scale="   54.498">  1  3  2 -1</clus>
</clustering>
</event>
<event>
 6    0  0.1230761E+002  0.1676285E+03  0.7546771E-02  0.1180344E+00
         21   -1    0    0  501  502  0.00000000000E+00  0.00000000000E+00  0.16768108290E+03  0.16768108290E+03  0.00000000000E+00 0.  1.
          2   -1    0    0  505    0 -0.00000000000E+00 -0.00000000000E+00 -0.97145460041E+03  0.97145460041E+03  0.00000000000E+00 0.  1.
         21    1    1    2  503  504  0.14537430137E+03 -0.44803627535E+02 -0.16205994002E+03  0.22227117828E+03  0.00000000000E+00 0.  1.
         21    1    1    2  504  502  0.18720186101E+02 -0.11322030747E+03  0.83247199222E+02  0.14177228068E+03  0.00000000000E+00 0.  1.
         21    1    1    2  505  503 -0.44154457666E+02  0.88832546953E+01 -0.36175060003E+03  0.36454358445E+03  0.00000000000E+00 0.  1.
          2    1    1    2  501    0 -0.11994002980E+03  0.14914068031E+03 -0.36321017669E+03  0.41054863990E+03  0.00000000000E+00 0.  1.
<scales pt_clust_3="167.62852" pt_clust_4="114.00740" pt_clust_5="45.03919" pt_clust_6="14000.00000"></scales>
<clustering>
<clus scale="   45.039">  2  5  1 -1</clus>
<clus scale="  114.007">  1  4  2 -1</clus>
<clus scale="  167.629">  2  3  1 -1</clus>
<clus scale="  114.007">  1  3  2 -1</clus>
</clustering>
</event>
<event>
 6    0  0.1230761E+002  0.1834386E+03  0.7546771E-02  0.1164516E+00
         21   -1    0    0  503  502  0.00000000000E+00  0.00000000000E+00  0.29442035248E+03  0.29442035248E+03  0.00000000000E+00 0. -1.
          2   -1    0    0  505    0 -0.00000000000E+00 -0.00000000000E+00 -0.24627691304E+04  0.24627691304E+04  0.00000000000E+00 0.  1.
         21    1    1    2  503  501  0.12251396258E+03 -0.52336123838E+01 -0.23785139291E+03  0.26760109648E+03  0.00000000000E+00 0. -1.
         21    1    1    2  504  502 -0.19106601770E+03  0.11669645027E+02  0.24302800562E+03  0.30936227186E+03  0.00000000000E+00 0. -1.
         21    1    1    2  505  504  0.29995218900E+01  0.69715884315E+02 -0.97736474708E+03  0.97985261672E+03  0.00000000000E+00 0. -1.
          2    1    1    2  501    0  0.65552533237E+02 -0.76151916959E+02 -0.11961606436E+04  0.12003734978E+04  0.00000000000E+00 0.  1.
<scales pt_clust_3="14000.00000" pt_clust_4="183.43864" pt_clust_5="69.78038" pt_clust_6="70.81761"></scales>
<clustering>
<clus scale="   69.780">  2  5  1 -1</clus>
<clus scale="   70.818">  2  6  1 -1</clus>
<clus scale="  183.439">  1  4  2 -1</clus>
<clus scale="  183.439">  1  3  2 -1</clus>
</clustering>
</event>
<event>
 6    0  0.1230761E+002  0.8123328E+02  0.7546771E-02  0.1325588E+00
         21   -1    0    0  503  502  0.00000000000E+00  0.00000000000E+00  0.82469471786E+03  0.82469471786E+03  0.00000000000E+00 0. -1.
         -4   -1    0    0    0  501 -0.00000000000E+00 -0.00000000000E+00 -0.40573086586E+02  0.40573086586E+02  0.00000000000E+00 0.  1.
         21    1    1    2  503  501  0.24071986050E+02 -0.37645124534E+02  0.23267088270E+02  0.50378301978E+02  0.00000000000E+00 0.  1.
         21    1    1    2  504  502 -0.99761141675E+01 -0.33832737514E+02  0.47629654701E+03  0.47760085603E+03  0.00000000000E+00 0. -1.
         21    1    1    2  505  504 -0.47845987602E+02 -0.38333625275E+02  0.13851474681E+03  0.15147620420E+03  0.00000000000E+00 0.  1.
         -4    1    1    2    0  505  0.33750115719E+02  0.10981148732E+03  0.14604324919E+03  0.18581244224E+03  0.00000000000E+00 0.  1.
<scales pt_clust_3="47.21693" pt_clust_4="35.27289" pt_clust_5="14000.00000" pt_clust_6="81.23328"></scales>
<clustering>
<clus scale="   35.273">  1  4  2 -1</clus>
<clus scale="   47.217">  2  3  1 -1</clus>
<clus scale="   81.233">  2  6  1 -1</clus>
<clus scale="   35.273">  1  3  2 -1</clus>
</clustering>
</event>
<event>
 6    0  0.1230761E+002  0.1140700E+03  0.7546771E-02  0.1253213E+00
         21   -1    0    0  505  502  0.00000000000E+00  0.00000000000E+00  0.15242976782E+03  0.15242976782E+03  0.00000000000E+00 0. -1.
          2   -1    0    0  503    0 -0.00000000000E+00 -0.00000000000E+00 -0.46380131934E+03  0.46380131934E+03  0.00000000000E+00 0. -1.
         21    1    1    2  503  502 -0.13423067832E+02 -0.43317595817E+02 -0.82452219762E+02  0.94100804466E+02  0.00000000000E+00 0. -1.
         21    1    1    2  504  501  0.68970232418E+01 -0.94547898574E+02  0.77394523672E+02  0.12237968111E+03  0.00000000000E+00 0. -1.
         21    1    1    2  505  504 -0.25185647079E+02 -0.17296470767E+02  0.20358053930E+02  0.36714235381E+02  0.00000000000E+00 0. -1.
          2    1    1    2  501    0  0.31711691669E+02  0.15516196516E+03 -0.32667190936E+03  0.36303636621E+03  0.00000000000E+00 0. -1.
<scales pt_clust_3="46.48533" pt_clust_4="14000.00000" pt_clust_5="30.55298" pt_clust_6="114.07005"></scales>
<clustering>
<clus scale="   30.553">  1  5  2 -1</clus>
<clus scale="   46.485">  2  3  1 -1</clus>
<clus scale="  114.070">  2  6  1 -1</clus>
<clus scale="   30.553">  1  3  2 -1</clus>
</clustering>
</event>
<event>
 6    0  0.1230761E+002  0.8726183E+02  0.7546771E-02  0.1309621E+00
          2   -1    0    0  503    0 -0.00000000000E+00  0.00000000000E+00  0.98520683911E+03  0.98520683911E+03  0.00000000000E+00 0. -1.
         21   -1    0    0  505  502  0.00000000000E+00 -0.00000000000E+00 -0.90878233249E+02  0.90878233249E+02  0.00000000000E+00 0. -1.
         21    1    1    2  503  504 -0.24577755813E+02  0.20649203902E+02  0.66439251445E+03  0.66516754954E+03  0.00000000000E+00 0. -1.
         21    1    1    2  504  502 -0.50341402882E+02  0.61252732117E+02  0.37355077569E+01  0.79373220006E+02  0.00000000000E+00 0. -1.
         21    1    1    2  505  501  0.34036880654E+02  0.22656917227E+02 -0.30735309887E+02  0.51151778236E+02  0.00000000000E+00 0. -1.
          2    1    1    2  501    0  0.40882278040E+02 -0.10455885325E+03  0.25693589355E+03  0.28039252458E+03  0.00000000000E+00 0. -1.
<scales pt_clust_3="32.10071" pt_clust_4="14000.00000" pt_clust_5="40.61279" pt_clust_6="87.26183"></scales>
<clustering>
<clus scale="   32.101">  1  3  2 -1</clus>
<clus scale="   40.613">  2  5  1 -1</clus>
<clus scale="   87.262">  1  6  2 -1</clus>
<clus scale="   40.613">  2  3  1 -1</clus>
</clustering>
</event>
<event>
 6    0  0.1230761E+002  0.1969917E+03  0.7546771E-02  0.1152302E+00
         21   -1    0    0  501  502  0.00000000000E+00  0.00000000000E+00  0.17866028280E+03  0.17866028280E+03  0.00000000000E+00 0.  1.
          2   -1    0    0  505    0 -0.00000000000E+00 -0.00000000000E+00 -0.13234511393E+04  0.13234511393E+04  0.00000000000E+00 0.  1.
         21    1    1    2  503  504 -0.62049457951E+02  0.15976214377E+03 -0.14585105049E+03  0.22504800987E+03  0.00000000000E+00 0.  1.
         21    1    1    2  504  502  0.66571759538E+02  0.42822878065E+02  0.11153933410E+03  0.13677215033E+03  0.00000000000E+00 0.  1.
         21    1    1    2  505  503 -0.21914316536E+02  0.21405650437E+02 -0.20928277786E+03  0.21151293164E+03  0.00000000000E+00 0.  1.
          2    1    1    2  501    0  0.17392014949E+02 -0.22399067227E+03 -0.90119636220E+03  0.92877833022E+03  0.00000000000E+00 0.  1.
<scales pt_clust_3="14000.00000" pt_clust_4="79.07861" pt_clust_5="30.63395" pt_clust_6="196.99171"></scales>
<clustering>
<clus scale="   30.634">  2  5  1 -1</clus>
<clus scale="   79.079">  1  4  2 -1</clus>
<clus scale="  196.992">  2  6  1 -1</clus>
<clus scale="   79.079">  1  3  2 -1</clus>
</clustering>
</event>
<event>
 6    0  0.1230761E+002  0.4805535E+03  0.7546771E-02  0.1018983E+00
          2   -1    0    0  503    0 -0.00000000000E+00  0.00000000000E+00  0.20648156760E+04  0.20648156760E+04  0.00000000000E+00 0. -1.
         21   -1    0    0  505  502  0.00000000000E+00 -0.00000000000E+00 -0.11849220128E+03  0.11849220128E+03  0.00000000000E+00 0.  1.
         21    1    1    2  503  502  0.29896561960E+02 -0.27120640505E+02  0.78228260511E+02  0.88028372137E+02  0.00000000000E+00 0.  1.
         21    1    1    2  504  501 -0.13777164103E+02  0.47155373720E+02  0.21107188408E+03  0.21671358926E+03  0.00000000000E+00 0. -1.
         21    1    1    2  505  504 -0.16990678918E+03 -0.41953455663E+03  0.75871810859E+03  0.88347650196E+03  0.00000000000E+00 0.  1.
          2    1    1    2  501    0  0.15378739132E+03  0.39949982341E+03  0.89830522153E+03  0.99508941390E+03  0.00000000000E+00 0. -1.
<scales pt_clust_3="40.36500" pt_clust_4="46.17407" pt_clust_5="460.74556" pt_clust_6="46.17407"></scales>
<clustering>
<clus scale="   40.365">  2  3  1 -1</clus>
<clus scale="   46.174">  4  6 -1 -1</clus>
<clus scale="  460.746">  2  5  1 -1</clus>
<clus scale="   40.365">  2  3  1 -1</clus>
</clustering>
</event>
<event>
 6    0  0.1230761E+002  0.1186786E+03  0.7546771E-02  0.1245293E+00
          1   -1    0    0  503    0 -0.00000000000E+00  0.00000000000E+00  0.82996415237E+03  0.82996415237E+03  0.00000000000E+00 0.  1.
         21   -1    0    0  505  502  0.00000000000E+00 -0.00000000000E+00 -0.94387666482E+02  0.94387666482E+02  0.00000000000E+00 0. -1.
         21    1    1    2  503  504 -0.83443251316E+02 -0.84015648409E+02  0.33994671071E+03  0.35997940426E+03  0.00000000000E+00 0. -1.
         21    1    1    2  504  502  0.10466813976E+02 -0.28939066528E+02  0.94103434695E+00  0.30788135896E+02  0.00000000000E+00 0.  1.
         21    1    1    2  505  501 -0.53300311208E+02  0.85956543951E+02 -0.16605945649E+02  0.10249491721E+03  0.00000000000E+00 0. -1.
          1    1    1    2  501    0  0.12627674855E+03  0.26998170986E+02  0.41129468648E+03  0.43108936149E+03  0.00000000000E+00 0.  1.
<scales pt_clust_3="14000.00000" pt_clust_4="30.77375" pt_clust_5="78.72022" pt_clust_6="118.67860"></scales>
<clustering>
<clus scale="   30.774">  2  4  1 -1</clus>
<clus scale="   78.720">  2  5  1 -1</clus>
<clus scale="  118.679">  1  6  2 -1</clus>
<clus scale="   30.774">  2  3  1 -1</clus>
</clustering>
</event>
<event>
 6    0  0.1230761E+002  0.1234189E+03  0.7546771E-02  0.1237561E+00
          4   -1    0    0  503    0 -0.00000000000E+00  0.00000000000E+00  0.89300897868E+02  0.89300897868E+02  0.00000000000E+00 0. -1.
         21   -1    0    0  504  502  0.00000000000E+00 -0.00000000000E+00 -0.20146022303E+04  0.20146022303E+04  0.00000000000E+00 0.  1.
         21    1    1    2  503  502  0.71048152705E+02  0.40231546591E+02 -0.14105573412E+04  0.14129184089E+04  0.00000000000E+00 0.  1.
         21    1    1    2  504  505  0.56870425269E+02 -0.30384727287E+02 -0.54164460949E+03  0.54546893579E+03  0.00000000000E+00 0. -1.
         21    1    1    2  505  501 -0.99204104813E+02 -0.22928821592E+02 -0.32520193015E+01  0.10187129577E+03  0.00000000000E+00 0. -1.
          4    1    1    2  501    0 -0.28714473160E+02  0.13082002288E+02  0.30152637592E+02  0.43644487698E+02  0.00000000000E+00 0. -1.
<scales pt_clust_3="14000.00000" pt_clust_4="63.32943" pt_clust_5="123.41888" pt_clust_6="31.55408"></scales>
<clustering>
<clus scale="   31.554">  1  6  2 -1</clus>
<clus scale="   63.329">  2  4  1 -1</clus>
<clus scale="  123.419">  1  5  2 -1</clus>
<clus scale="   63.329">  2  3  1 -1</clus>
</clustering>
</event>
<event>
 6    0  0.1230761E+002  0.9799654E+02  0.7546771E-02  0.1284566E+00
          2   -1    0    0  504    0 -0.00000000000E+00  0.00000000000E+00  0.30890013419E+04  0.30890013419E+04  0.00000000000E+00 0.  1.
         21   -1    0    0  503  502  0.00000000000E+00 -0.00000000000E+00 -0.23806159375E+03  0.23806159375E+03  0.00000000000E+00 0.  1.
         21    1    1    2  503  501  0.47747150182E+02  0.37096131076E+01 -0.17388683652E+03  0.18036125829E+03  0.00000000000E+00 0.  1.
         21    1    1    2  504  505  0.39775877172E+02 -0.35369100443E+02  0.38182916994E+03  0.38552121691E+03  0.00000000000E+00 0. -1.
         21    1    1    2  505  502  0.44198732279E+02  0.35852906318E+02 -0.43387909936E+02  0.71564443372E+02  0.00000000000E+00 0.  1.
          2    1    1    2  501    0 -0.13172175963E+03 -0.41934189832E+01  0.26863853247E+04  0.26896160171E+04  0.00000000000E+00 0.  1.
<scales pt_clust_3="47.89104" pt_clust_4="54.24312" pt_clust_5="97.99654" pt_clust_6="14000.00000"></scales>
<clustering>
<clus scale="   47.891">  2  3  1 -1</clus>
<clus scale="   54.243">  1  4  2 -1</clus>
<clus scale="   97.997">  2  5  1 -1</clus>
<clus scale="   47.891">  2  3  1 -1</clus>
</clustering>
</event>
<event>
 6    0  0.1230761E+002  0.7177960E+02  0.7546771E-02  0.1354144E+00
          1   -1    0    0  505    0 -0.00000000000E+00  0.00000000000E+00  0.16416231990E+03  0.16416231990E+03  0.00000000000E+00 0. -1.
         21   -1    0    0  503  502  0.00000000000E+00 -0.00000000000E+00 -0.45728823153E+03  0.45728823153E+03  0.00000000000E+00 0. -1.
         21    1    1    2  503  501 -0.57968995924E-01 -0.47541876479E+02 -0.32489162814E+03  0.32835164597E+03  0.00000000000E+00 0. -1.
         21    1    1    2  504  502 -0.30695229338E+02  0.43512588076E+02 -0.59065099092E+02  0.79525017170E+02  0.00000000000E+00 0. -1.
         21    1    1    2  505  504  0.32268458518E+02  0.74801822918E+02 -0.18299529851E+02  0.83495143091E+02  0.00000000000E+00 0. -1.
          1    1    1    2  501    0 -0.15152601848E+01 -0.70772534516E+02  0.10913034544E+03  0.13007874520E+03  0.00000000000E+00 0. -1.
<scales pt_clust_3="47.54191" pt_clust_4="35.76287" pt_clust_5="71.77960" pt_clust_6="14000.00000"></scales>
<clustering>
<clus scale="   47.542">  2  3  1 -1</clus>
<clus scale="   35.763">  2  4  1 -1</clus>
<clus scale="   71.780">  2  5  1 -1</clus>
<clus scale="   47.542">  2  3  1 -1</clus>
</clustering>
</event>
<event>
 6    0  0.1230761E+002  0.1633595E+03  0.7546771E-02  0.1184955E+00
         21   -1    0    0  503  502  0.00000000000E+00  0.00000000000E+00  0.47390477270E+03  0.47390477270E+03  0.00000000000E+00 0.  1.
          2   -1    0    0  504    0 -0.00000000000E+00 -0.00000000000E+00 -0.38616100776E+04  0.38616100776E+04  0.00000000000E+00 0. -1.
         21    1    1    2  503  501 -0.53399078865E+02 -0.17190738616E+02  0.15396074770E+03  0.16386242690E+03  0.00000000000E+00 0.  1.
         21    1    1    2  504  505  0.50645369313E+02 -0.88194059075E+01 -0.33785254769E+04  0.33789165620E+04  0.00000000000E+00 0. -1.
         21    1    1    2  505  502  0.17278702592E+03  0.12038478363E+03  0.25551844896E+03  0.33111558437E+03  0.00000000000E+00 0.  1.
          2    1    1    2  501    0 -0.17003331637E+03 -0.94374639102E+02 -0.41865902468E+03  0.46162027698E+03  0.00000000000E+00 0. -1.
<scales pt_clust_3="55.63196" pt_clust_4="51.40754" pt_clust_5="163.35947" pt_clust_6="14000.00000"></scales>
<clustering>
<clus scale="   51.408">  2  4  1 -1</clus>
<clus scale="   55.632">  1  3  2 -1</clus>
<clus scale="  163.359">  1  5  2 -1</clus>
<clus scale="   55.632">  1  3  2 -1</clus>
</clustering>
</event>
<event>
 6    0  0.1230761E+002  0.1096493E+03  0.7546771E-02  0.1261221E+00
          1   -1    0    0  505    0 -0.00000000000E+00  0.00000000000E+00  0.24096148515E+04  0.24096148515E+04  0.00000000000E+00 0.  1.
         21   -1    0    0  504  502  0.00000000000E+00 -0.00000000000E+00 -0.31236748141E+02  0.31236748141E+02  0.00000000000E+00 0.  1.
         21    1    1    2  503  501  0.68900165340E+02  0.81950948727E+01  0.30219137361E+02  0.75680833945E+02  0.00000000000E+00 0.  1.
         21    1    1    2  504  503  0.25175467657E+02  0.38907240480E+02  0.10133342237E+03  0.11142728581E+03  0.00000000000E+00 0. -1.
         21    1    1    2  505  502 -0.10265280846E+02  0.28882546535E+02  0.11806746895E+03  0.12198157529E+03  0.00000000000E+00 0.  1.
          1    1    1    2  501    0 -0.83810352151E+02 -0.75984881888E+02  0.21287580747E+04  0.21317619046E+04  0.00000000000E+00 0.  1.
<scales pt_clust_3="14000.00000" pt_clust_4="49.73730" pt_clust_5="30.65253" pt_clust_6="109.64935"></scales>
<clustering>
<clus scale="   30.653">  2  5  1 -1</clus>
<clus scale="   49.737">  2  4  1 -1</clus>
<clus scale="  109.649">  1  6  2 -1</clus>
<clus scale="   30.653">  2  3  1 -1</clus>
</clustering>
</event>
<event>
 6    0  0.1230761E+002  0.9415308E+02  0.7546771E-02  0.1293095E+00
         21   -1    0    0  503  502  0.00000000000E+00  0.00000000000E+00  0.17112034535E+03  0.17112034535E+03  0.00000000000E+00 0.  1.
         -2   -1    0    0    0  501 -0.00000000000E+00 -0.00000000000E+00 -0.14192731514E+03  0.14192731514E+03  0.00000000000E+00 0.  1.
         21    1    1    2  503  505 -0.49980792915E+02 -0.25537977958E+01  0.19259555949E+02  0.53623987534E+02  0.00000000000E+00 0.  1.
         21    1    1    2  504  501  0.21866898498E+02  0.35858121939E+02  0.91639753325E-01  0.41999697103E+02  0.00000000000E+00 0.  1.
         21    1    1    2  505  504 -0.67911655198E+02  0.41998737986E+02 -0.35310140218E+02  0.87308034603E+02  0.00000000000E+00 0.  1.
         -2    1    1    2    0  502  0.96025549615E+02 -0.75303062128E+02  0.45151974722E+02  0.13011594125E+03  0.00000000000E+00 0.  1.
<scales pt_clust_3="46.94369" pt_clust_4="41.99960" pt_clust_5="94.15308" pt_clust_6="14000.00000"></scales>
<clustering>
<clus scale="   42.000">  2  4  1 -1</clus>
<clus scale="   46.944">  1  3  2 -1</clus>
<clus scale="   94.153">  2  5  1 -1</clus>
<clus scale="   46.944">  1  3  2 -1</clus>
</clustering>
</event>
<event>
 6    0  0.1230761E+002  0.9910169E+02  0.7546771E-02  0.1282196E+00
         21   -1    0    0  505  502  0.00000000000E+00  0.00000000000E+00  0.14377019569E+04  0.14377019569E+04  0.00000000000E+00 0.  1.
          1   -1    0    0  504    0 -0.00000000000E+00 -0.00000000000E+00 -0.25039817273E+04  0.25039817273E+04  0.00000000000E+00 0.  1.
         21    1    1    2  503  501 -0.41795397359E+02 -0.48491175810E+01  0.87348837598E+03  0.87450117905E+03  0.00000000000E+00 0.  1.
         21    1    1    2  504  502 -0.60843086714E+02 -0.26792874958E+02 -0.18371708118E+04  0.18383732839E+04  0.00000000000E+00 0.  1.
         21    1    1    2  505  503 -0.46031311335E+02 -0.23582490835E+02  0.55243503798E+03  0.55485086887E+03  0.00000000000E+00 0.  1.
          1    1    1    2  501    0  0.14866979541E+03  0.55224483374E+02 -0.65503237252E+03  0.67395835233E+03  0.00000000000E+00 0.  1.
<scales pt_clust_3="32.11523" pt_clust_4="66.48112" pt_clust_5="32.11523" pt_clust_6="92.48426"></scales>
<clustering>
<clus scale="   32.115">  3  5 -1 -1</clus>
<clus scale="   66.481">  2  4  1 -1</clus>
<clus scale="   92.484">  2  6  1 -1</clus>
<clus scale="   99.102">  1  3  2 -1</clus>
</clustering>
</event>
<event>
 6    0  0.1230761E+002  0.2427120E+03  0.7546771E-02  0.1117999E+00
          1   -1    0    0  503    0 -0.00000000000E+00  0.00000000000E+00  0.33963051254E+03  0.33963051254E+03  0.00000000000E+00 0.  1.
         21   -1    0    0  505  502  0.00000000000E+00 -0.00000000000E+00 -0.41873586370E+03  0.41873586370E+03  0.00000000000E+00 0. -1.
         21    1    1    2  503  502  0.62052010333E-01 -0.34151525932E+02  0.16233271113E+03  0.16588622510E+03  0.00000000000E+00 0.  1.
         21    1    1    2  504  501  0.34020145052E+02  0.10982636457E+02 -0.13380385106E+02  0.38170974293E+02  0.00000000000E+00 0.  1.
         21    1    1    2  505  504  0.12096933627E+03  0.16569663707E+03 -0.27046993149E+03  0.33947450522E+03  0.00000000000E+00 0. -1.
          1    1    1    2  501    0 -0.15505153333E+03 -0.14252774759E+03  0.42412254302E+02  0.21483467164E+03  0.00000000000E+00 0.  1.
<scales pt_clust_3="34.15158" pt_clust_4="34.57822" pt_clust_5="34.57822" pt_clust_6="228.25714"></scales>
<clustering>
<clus scale="   34.152">  1  3  2 -1</clus>
<clus scale="   34.578">  4  5 -1 -1</clus>
<clus scale="  228.257">  1  6  2 -1</clus>
<clus scale="  242.712">  2  3  1 -1</clus>
</clustering>
</event>
<event>
 6    0  0.1230761E+002  0.8917229E+02  0.7546771E-02  0.1304869E+00
         21   -1    0    0  504  502  0.00000000000E+00  0.00000000000E+00  0.96903430989E+02  0.96903430989E+02  0.00000000000E+00 0. -1.
         -3   -1    0    0    0  501 -0.00000000000E+00 -0.00000000000E+00 -0.46807952274E+03  0.46807952274E+03  0.00000000000E+00 0. -1.
         21    1    1    2  503  501  0.29931996470E+02  0.19839778007E+02 -0.63255915781E+02  0.72738243623E+02  0.00000000000E+00 0. -1.
         21    1    1    2  504  503  0.96609572021E+02 -0.64433168093E+02  0.97747637556E+01  0.11653578233E+03  0.00000000000E+00 0. -1.
         21    1    1    2  505  502 -0.42918832853E+02 -0.35612712446E+00  0.12455207772E+01  0.42938378661E+02  0.00000000000E+00 0.  1.
         -3    1    1    2    0  505 -0.83622735638E+02  0.44949517210E+02 -0.31894046050E+03  0.33277054912E+03  0.00000000000E+00 0. -1.
<scales pt_clust_3="35.91018" pt_clust_4="89.17229" pt_clust_5="41.36477" pt_clust_6="14000.00000"></scales>
<clustering>
<clus scale="   35.910">  2  3  1 -1</clus>
<clus scale="   41.365">  1  5  2 -1</clus>
<clus scale="   89.172">  1  4  2 -1</clus>
<clus scale="   41.365">  1  3  2 -1</clus>
</clustering>
</event>
<event>
 6    0  0.1230761E+002  0.1249541E+03  0.7546771E-02  0.1235141E+00
         -1   -1    0    0    0  501 -0.00000000000E+00  0.00000000000E+00  0.70511202413E+03  0.70511202413E+03  0.00000000000E+00 0.  1.
         21   -1    0    0  505  502  0.00000000000E+00 -0.00000000000E+00 -0.61507590965E+02  0.61507590965E+02  0.00000000000E+00 0.  1.
         21    1    1    2  503  502  0.93752644010E+02 -0.83760692882E+02  0.15886402275E+03  0.20259118850E+03  0.00000000000E+00 0.  1.
         21    1    1    2  504  501 -0.34122960847E+02  0.59984731623E+01  0.10591778807E+03  0.11144027982E+03  0.00000000000E+00 0. -1.
         21    1    1    2  505  504 -0.57482036560E+02  0.11427404080E+03  0.78578191300E+02  0.15012419217E+03  0.00000000000E+00 0.  1.
         -1    1    1    2    0  503 -0.21476466032E+01 -0.36511821075E+02  0.30024443104E+03  0.30246395461E+03  0.00000000000E+00 0.  1.
<scales pt_clust_3="14000.00000" pt_clust_4="34.64619" pt_clust_5="124.95409" pt_clust_6="38.68977"></scales>
<clustering>
<clus scale="   34.646">  1  4  2 -1</clus>
<clus scale="   38.690">  1  6  2 -1</clus>
<clus scale="  124.954">  2  5  1 -1</clus>
<clus scale="  124.954">  2  3  1 -1</clus>
</clustering>
</event>
<event>
 6    0  0.1230761E+002  0.2828682E+03  0.7546771E-02  0.1094133E+00
          1   -1    0    0  504    0 -0.00000000000E+00  0.00000000000E+00  0.83868173102E+03  0.83868173102E+03  0.00000000000E+00 0. -1.
         21   -1    0    0  505  502  0.00000000000E+00 -0.00000000000E+00 -0.64877449018E+03  0.64877449018E+03  0.00000000000E+00 0.  1.
         21    1    1    2  503  502  0.62767455734E+02  0.28132959556E+03 -0.47186380861E+03  0.55293900994E+03  0.00000000000E+00 0.  1.
         21    1    1    2  504  503  0.26780926609E+02 -0.13267308680E+03  0.64651884501E+03  0.66053461903E+03  0.00000000000E+00 0. -1.
         21    1    1    2  505  501 -0.17687067460E+02  0.54516736410E+02 -0.49664186488E+01  0.57528881602E+02  0.00000000000E+00 0. -1.
          1    1    1    2  501    0 -0.71861314883E+02 -0.20317324516E+03  0.20218623097E+02  0.21645371063E+03  0.00000000000E+00 0. -1.
<scales pt_clust_3="282.86815" pt_clust_4="134.70292" pt_clust_5="57.31411" pt_clust_6="14000.00000"></scales>
<clustering>
<clus scale="   57.314">  2  5  1 -1</clus>
<clus scale="  134.703">  1  4  2 -1</clus>
<clus scale="  282.868">  2  3  1 -1</clus>
<clus scale="   57.314">  2  3  1 -1</clus>
</clustering>
</event>
<event>
 6    0  0.1230761E+002  0.6883189E+02  0.7546771E-02  0.1364111E+00
         21   -1    0    0  501  502  0.00000000000E+00  0.00000000000E+00  0.18142798065E+03  0.18142798065E+03  0.00000000000E+00 0. -1.
          2   -1    0    0  504    0 -0.00000000000E+00 -0.00000000000E+00 -0.16979616589E+04  0.16979616589E+04  0.00000000000E+00 0.  1.
         21    1    1    2  503  505  0.28022535722E+02 -0.23256086451E+02  0.12756532469E+03  0.13266129853E+03  0.00000000000E+00 0.  1.
         21    1    1    2  504  503  0.58586573719E+02 -0.18728426716E+02 -0.18765612556E+03  0.19747901673E+03  0.00000000000E+00 0.  1.
         21    1    1    2  505  502  0.29966974282E+02 -0.16017672669E+02  0.36945551415E+02  0.50195210476E+02  0.00000000000E+00 0. -1.
          2    1    1    2  501    0 -0.11657608372E+03  0.58002185836E+02 -0.14933884288E+04  0.14990541138E+04  0.00000000000E+00 0.  1.
<scales pt_clust_3="14000.00000" pt_clust_4="62.69832" pt_clust_5="33.97919" pt_clust_6="68.83189"></scales>
<clustering>
<clus scale="   33.979">  1  5  2 -1</clus>
<clus scale="   62.698">  2  4  1 -1</clus>
<clus scale="   68.832">  2  6  1 -1</clus>
<clus scale="   33.979">  1  3  2 -1</clus>
</clustering>
</event>
<event>
 6    0  0.1230761E+002  0.1236503E+03  0.7546771E-02  0.1237194E+00
          1   -1    0    0  503    0 -0.00000000000E+00  0.00000000000E+00  0.19892942948E+03  0.19892942948E+03  0.00000000000E+00 0. -1.
         21   -1    0    0  504  502  0.00000000000E+00 -0.00000000000E+00 -0.16641256470E+04  0.16641256470E+04  0.00000000000E+00 0.  1.
         21    1    1    2  503  505  0.31204740985E+02  0.24592989989E+02 -0.46999030470E+01  0.40008000515E+02  0.00000000000E+00 0. -1.
         21    1    1    2  504  501  0.12146925736E+03  0.18300900914E+02 -0.15225562902E+04  0.15275036368E+04  0.00000000000E+00 0.  1.
         21    1    1    2  505  502  0.15078141648E+02  0.45442758116E+02 -0.54848696637E+02  0.72806415538E+02  0.00000000000E+00 0.  1.
          1    1    1    2  501    0 -0.16775213999E+03 -0.88336649019E+02  0.11690867238E+03  0.22273702366E+03  0.00000000000E+00 0. -1.
<scales pt_clust_3="39.73098" pt_clust_4="123.65027" pt_clust_5="49.53371" pt_clust_6="14000.00000"></scales>
<clustering>
<clus scale="   39.731">  1  3  2 -1</clus>
<clus scale="   49.534">  1  5  2 -1</clus>
<clus scale="  123.650">  2  4  1 -1</clus>
<clus scale="  123.650">  2  3  1 -1</clus>
</clustering>
</event>
<event>
 6    0  0.1230761E+002  0.1145888E+03  0.7546771E-02  0.1252301E+00
         21   -1    0    0  505  502  0.00000000000E+00  0.00000000000E+00  0.11421837810E+04  0.11421837810E+04  0.00000000000E+00 0. -1.
          2   -1    0    0  503    0 -0.00000000000E+00 -0.00000000000E+00 -0.10759117976E+04  0.10759117976E+04  0.00000000000E+00 0. -1.
         21    1    1    2  503  502 -0.30736648012E+02 -0.12497198027E+02 -0.22167952296E+01  0.33254107575E+02  0.00000000000E+00 0.  1.
         21    1    1    2  504  501 -0.55498851313E+02 -0.57044293023E+02 -0.70852849759E+03  0.71298443585E+03  0.00000000000E+00 0.  1.
         21    1    1    2  505  504  0.11418580745E+03 -0.12431703599E+02  0.11160459475E+04  0.11219409534E+04  0.00000000000E+00 0. -1.
          2    1    1    2  501    0 -0.27950308125E+02  0.81973194650E+02 -0.33902867126E+03  0.34991608180E+03  0.00000000000E+00 0. -1.
<scales pt_clust_3="33.18014" pt_clust_4="114.58884" pt_clust_5="14000.00000" pt_clust_6="86.65937"></scales>
<clustering>
<clus scale="   33.180">  2  3  1 -1</clus>
<clus scale="   86.659">  2  6  1 -1</clus>
<clus scale="  114.589">  2  4  1 -1</clus>
<clus scale="  114.589">  1  3  2 -1</clus>
</clustering>
</event>
<event>
 6    0  0.1230761E+002  0.2290894E+03  0.7546771E-02  0.1127282E+00
          2   -1    0    0  505    0 -0.00000000000E+00  0.00000000000E+00  0.13082902802E+04  0.13082902802E+04  0.00000000000E+00 0. -1.
         21   -1    0    0  503  502  0.00000000000E+00 -0.00000000000E+00 -0.19932195403E+03  0.19932195403E+03  0.00000000000E+00 0. -1.
         21    1    1    2  503  504 -0.96883055445E+00  0.13263357660E+03 -0.85152657902E+02  0.15761846155E+03  0.00000000000E+00 0. -1.
         21    1    1    2  504  501  0.73860368452E+02  0.63209464385E+02 -0.31272175115E+02  0.10212119933E+03  0.00000000000E+00 0. -1.
         21    1    1    2  505  502 -0.48887344354E+02 -0.39496882453E+02  0.18173355178E+03  0.19229420169E+03  0.00000000000E+00 0.  1.
          2    1    1    2  501    0 -0.24004193544E+02 -0.15634615853E+03  0.10436596074E+04  0.10555783717E+04  0.00000000000E+00 0. -1.
<scales pt_clust_3="86.16247" pt_clust_4="86.16247" pt_clust_5="62.84884" pt_clust_6="205.52294"></scales>
<clustering>
<clus scale="   62.849">  1  5  2 -1</clus>
<clus scale="   86.162">  3  4 -1 -1</clus>
<clus scale="  205.523">  1  6  2 -1</clus>
<clus scale="  229.089">  2  3  1 -1</clus>
</clustering>
</event>
<event>
 6    0  0.1230761E+002  0.9052114E+02  0.7546771E-02  0.1301595E+00
         -3   -1    0    0    0  501 -0.00000000000E+00  0.00000000000E+00  0.17841516778E+02  0.17841516778E+02  0.00000000000E+00 0. -1.
         21   -1    0    0  503  502  0.00000000000E+00 -0.00000000000E+00 -0.23300656702E+04  0.23300656702E+04  0.00000000000E+00 0.  1.
         21    1    1    2  503  504  0.82016560873E+01  0.36300187415E+02 -0.78824737816E+03  0.78912540192E+03  0.00000000000E+00 0.  1.
         21    1    1    2  504  501  0.42896125374E+02  0.43664460090E+02 -0.27669990318E+03  0.28338930655E+03  0.00000000000E+00 0.  1.
         21    1    1    2  505  502 -0.64664864149E+02  0.42808542165E+02 -0.95424299818E+03  0.95738906172E+03  0.00000000000E+00 0.  1.
         -3    1    1    2    0  505  0.13567082687E+02 -0.12277318967E+03 -0.29303387390E+03  0.31800341679E+03  0.00000000000E+00 0. -1.
<scales pt_clust_3="37.21520" pt_clust_4="67.05348" pt_clust_5="14000.00000" pt_clust_6="90.52114"></scales>
<clustering>
<clus scale="   37.215">  2  3  1 -1</clus>
<clus scale="   67.053">  1  4  2 -1</clus>
<clus scale="   90.521">  1  6  2 -1</clus>
<clus scale="   37.215">  2  3  1 -1</clus>
</clustering>
</event>
<event>
 6    0  0.1230761E+002  0.1066976E+03  0.7546771E-02  0.1266811E+00
         -2   -1    0    0    0  501 -0.00000000000E+00  0.00000000000E+00  0.78975233877E+02  0.78975233877E+02  0.00000000000E+00 0.  1.
         21   -1    0    0  505  502  0.00000000000E+00 -0.00000000000E+00 -0.66195435838E+03  0.66195435838E+03  0.00000000000E+00 0.  1.
         21    1    1    2  503  504  0.87456513976E+02 -0.43438605129E+01 -0.46338695476E+03  0.47158772334E+03  0.00000000000E+00 0.  1.
         21    1    1    2  504  502  0.17754140321E+02 -0.27808687115E+02 -0.76503204042E+02  0.83314301331E+02  0.00000000000E+00 0.  1.
         21    1    1    2  505  501 -0.72497555265E+01 -0.51543771208E+02 -0.10047962902E+02  0.53012082245E+02  0.00000000000E+00 0. -1.
         -2    1    1    2    0  503 -0.97960898771E+02  0.83696318836E+02 -0.33041002796E+02  0.13301548534E+03  0.00000000000E+00 0.  1.
<scales pt_clust_3="14000.00000" pt_clust_4="32.99292" pt_clust_5="53.42155" pt_clust_6="106.69761"></scales>
<clustering>
<clus scale="   32.993">  2  4  1 -1</clus>
<clus scale="   53.422">  1  5  2 -1</clus>
<clus scale="  106.698">  1  6  2 -1</clus>
<clus scale="   32.993">  2  3  1 -1</clus>
</clustering>
</event>
<event>
 6    0  0.1230761E+002  0.1208426E+03  0.7546771E-02  0.1241713E+00
         -2   -1    0    0    0  501 -0.00000000000E+00  0.00000000000E+00  0.23085363283E+04  0.23085363283E+04  0.00000000000E+00 0. -1.
         21   -1    0    0  503  502  0.00000000000E+00 -0.00000000000E+00 -0.72476071561E+03  0.72476071561E+03  0.00000000000E+00 0.  1.
         21    1    1    2  503  504 -0.63175746366E+02 -0.32823749728E+02 -0.70444560187E+03  0.70803402423E+03  0.00000000000E+00 0.  1.
         21    1    1    2  504  501  0.42466058319E+02 -0.11077881914E+02  0.43492819365E+02  0.61787627509E+02  0.00000000000E+00 0. -1.
         21    1    1    2  505  502  0.80435754903E+02  0.12667908589E+03  0.72736611433E+03  0.74268362426E+03  0.00000000000E+00 0. -1.
         -2    1    1    2    0  505 -0.59726066856E+02 -0.82777454246E+02  0.15173622809E+04  0.15207917680E+04  0.00000000000E+00 0. -1.
<scales pt_clust_3="71.16801" pt_clust_4="43.88719" pt_clust_5="14000.00000" pt_clust_6="120.84259"></scales>
<clustering>
<clus scale="   43.887">  1  4  2 -1</clus>
<clus scale="   71.168">  2  3  1 -1</clus>
<clus scale="  120.843">  1  6  2 -1</clus>
<clus scale="   71.168">  2  3  1 -1</clus>
</clustering>
</event>
<event>
 6    0  0.1230761E+002  0.1348387E+03  0.7546771E-02  0.1220448E+00
          2   -1    0    0  505    0 -0.00000000000E+00  0.00000000000E+00  0.27643920867E+04  0.27643920867E+04  0.00000000000E+00 0. -1.
         21   -1    0    0  504  502  0.00000000000E+00 -0.00000000000E+00 -0.61414103216E+03  0.61414103216E+03  0.00000000000E+00 0.  1.
         21    1    1    2  503  502 -0.27390139145E+02  0.28614278658E+02  0.94981967262E+01  0.40733431068E+02  0.00000000000E+00 0.  1.
         21    1    1    2  504  501 -0.70094550194E+02 -0.12208900207E+03 -0.58727492842E+03  0.60391291752E+03  0.00000000000E+00 0.  1.
         21    1    1    2  505  503  0.39656010209E+02 -0.18412866118E+02  0.38467844468E+03  0.38715518669E+03  0.00000000000E+00 0. -1.
          2    1    1    2  501    0  0.57828679130E+02  0.11188758953E+03  0.23433493416E+04  0.23467315836E+04  0.00000000000E+00 0. -1.
<scales pt_clust_3="39.61056" pt_clust_4="134.83869" pt_clust_5="43.64590" pt_clust_6="14000.00000"></scales>
<clustering>
<clus scale="   39.611">  2  3  1 -1</clus>
<clus scale="   43.646">  1  5  2 -1</clus>
<clus scale="  134.839">  2  4  1 -1</clus>
<clus scale="   39.611">  2  3  1 -1</clus>
</clustering>
</event>
<event>
 6    0  0.1230761E+002  0.1224944E+03  0.7546771E-02  0.1239038E+00
          1   -1    0    0  504    0 -0.00000000000E+00  0.00000000000E+00  0.16075408563E+04  0.16075408563E+04  0.00000000000E+00 0.  1.
         21   -1    0    0  505  502  0.00000000000E+00 -0.00000000000E+00 -0.23307485552E+03  0.23307485552E+03  0.00000000000E+00 0. -1.
         21    1    1    2  503  502  0.29956609892E+02 -0.98281100562E+02 -0.19238196501E+03  0.21809950405E+03  0.00000000000E+00 0. -1.
         21    1    1    2  504  503 -0.76837542468E+02  0.63137834902E+02  0.94522141157E+03  0.95043879920E+03  0.00000000000E+00 0.  1.
         21    1    1    2  505  501 -0.47891765849E+02 -0.28838151477E+02  0.19527695394E+02  0.59216476627E+02  0.00000000000E+00 0. -1.
          1    1    1    2  501    0  0.94772698424E+02  0.63981417137E+02  0.60209885886E+03  0.61286093198E+03  0.00000000000E+00 0.  1.
<scales pt_clust_3="14000.00000" pt_clust_4="99.68125" pt_clust_5="55.90403" pt_clust_6="122.49443"></scales>
<clustering>
<clus scale="   55.904">  2  5  1 -1</clus>
<clus scale="   99.681">  1  4  2 -1</clus>
<clus scale="  122.494">  1  6  2 -1</clus>
<clus scale="   55.904">  2  3  1 -1</clus>
</clustering>
</event>
<event>
 6    0  0.1230761E+002  0.1039423E+03  0.7546771E-02  0.1272218E+00
          2   -1    0    0  503    0 -0.00000000000E+00  0.00000000000E+00  0.12772631040E+04  0.12772631040E+04  0.00000000000E+00 0.  1.
         21   -1    0    0  505  502  0.00000000000E+00 -0.00000000000E+00 -0.42689864661E+03  0.42689864661E+03  0.00000000000E+00 0. -1.
         21    1    1    2  503  504  0.40335563014E+00 -0.31196032599E+02  0.14810436165E+03  0.15135473923E+03  0.00000000000E+00 0. -1.
         21    1    1    2  504  502  0.39721672335E+02 -0.47760254514E+02 -0.53799985593E+02  0.82178413310E+02  0.00000000000E+00 0.  1.
         21    1    1    2  505  501 -0.14156047449E+03  0.29580801856E+02 -0.33963414841E+03  0.36914190570E+03  0.00000000000E+00 0. -1.
          2    1    1    2  501    0  0.10143544652E+03  0.49375485257E+02  0.10956942298E+04  0.11014866924E+04  0.00000000000E+00 0.  1.
<scales pt_clust_3="31.19864" pt_clust_4="62.42524" pt_clust_5="103.94230" pt_clust_6="14000.00000"></scales>
<clustering>
<clus scale="   31.199">  1  3  2 -1</clus>
<clus scale="   62.425">  2  4  1 -1</clus>
<clus scale="  103.942">  2  5  1 -1</clus>
<clus scale="   62.425">  2  3  1 -1</clus>
</clustering>
</event>
<event>
 6    0  0.1230761E+002  0.1159969E+03  0.7546771E-02  0.1249851E+00
         21   -1    0    0  503  502  0.00000000000E+00  0.00000000000E+00  0.10424737069E+04  0.10424737069E+04  0.00000000000E+00 0.  1.
         -2   -1    0    0    0  501 -0.00000000000E+00 -0.00000000000E+00 -0.22058774788E+04  0.22058774788E+04  0.00000000000E+00 0.  1.
         21    1    1    2  503  505 -0.50506127562E+02 -0.28919058778E+02  0.31573544653E+02  0.66212307042E+02  0.00000000000E+00 0.  1.
         21    1    1    2  504  502 -0.40127765373E+02 -0.43964356722E+02  0.98699632214E+03  0.98878958436E+03  0.00000000000E+00 0.  1.
         21    1    1    2  505  501 -0.41949396245E+02  0.49601776059E+02 -0.32064685831E+03  0.32716126876E+03  0.00000000000E+00 0. -1.
         -2    1    1    2    0  504  0.13258328918E+03  0.23281639441E+02 -0.18613267804E+04  0.18661880255E+04  0.00000000000E+00 0.  1.
<scales pt_clust_3="58.19949" pt_clust_4="14000.00000" pt_clust_5="64.99701" pt_clust_6="115.99694"></scales>
<clustering>
<clus scale="   58.199">  1  3  2 -1</clus>
<clus scale="   64.997">  2  5  1 -1</clus>
<clus scale="  115.997">  2  6  1 -1</clus>
<clus scale="   58.199">  1  3  2 -1</clus>
</clustering>
</event>
<event>
 6    0  0.1230761E+002  0.1070159E+03  0.7546771E-02  0.1266198E+00
         -2   -1    0    0    0  501 -0.00000000000E+00  0.00000000000E+00  0.26750870401E+03  0.26750870401E+03  0.00000000000E+00 0.  1.
         21   -1    0    0  504  502  0.00000000000E+00 -0.00000000000E+00 -0.11407190689E+04  0.11407190689E+04  0.00000000000E+00 0. -1.
         21    1    1    2  503  505 -0.10086983413E+03  0.12595877833E+02 -0.42069032205E+03  0.43279755850E+03  0.00000000000E+00 0.  1.
         21    1    1    2  504  501 -0.32823022114E+02  0.12647141687E+01  0.46097766665E+02  0.56603483763E+02  0.00000000000E+00 0. -1.
         21    1    1    2  505  502  0.10858073355E+03  0.47083209899E+02 -0.69844905462E+03  0.70840502981E+03  0.00000000000E+00 0. -1.
         -2    1    1    2    0  503  0.25112122694E+02 -0.60943801901E+02  0.19983124508E+03  0.21042170089E+03  0.00000000000E+00 0.  1.
<scales pt_clust_3="107.01595" pt_clust_4="32.84738" pt_clust_5="14000.00000" pt_clust_6="60.04775"></scales>
<clustering>
<clus scale="   32.847">  1  4  2 -1</clus>
<clus scale="   60.048">  1  6  2 -1</clus>
<clus scale="  107.016">  1  3  2 -1</clus>
<clus scale="  107.016">  2  3  1 -1</clus>
</clustering>
</event>
<event>
 6    0  0.1230761E+002  0.1198728E+03  0.7546771E-02  0.1243307E+00
         21   -1    0    0  504  502  0.00000000000E+00  0.00000000000E+00  0.40832759468E+02  0.40832759468E+02  0.00000000000E+00 0.  1.
          2   -1    0    0  503    0 -0.00000000000E+00 -0.00000000000E+00 -0.19509278430E+04  0.19509278430E+04  0.00000000000E+00 0.  1.
         21    1    1    2  503  505 -0.30737517286E+01 -0.42201681769E+02 -0.37169303647E+03  0.37409376265E+03  0.00000000000E+00 0.  1.
         21    1    1    2  504  501 -0.10761416304E+03 -0.66057425298E+01 -0.88872826919E+02  0.13972409701E+03  0.00000000000E+00 0.  1.
         21    1    1    2  505  502 -0.12664346968E+02  0.29534538128E+02 -0.10940378859E+02  0.33946524360E+02  0.00000000000E+00 0.  1.
          2    1    1    2  501    0  0.12335226174E+03  0.19272886171E+02 -0.14385888413E+04  0.14439962185E+04  0.00000000000E+00 0.  1.
<scales pt_clust_3="41.15001" pt_clust_4="119.87276" pt_clust_5="32.13526" pt_clust_6="14000.00000"></scales>
<clustering>
<clus scale="   32.135">  1  5  2 -1</clus>
<clus scale="   41.150">  2  3  1 -1</clus>
<clus scale="  119.873">  1  4  2 -1</clus>
<clus scale="   32.135">  1  3  2 -1</clus>
</clustering>
</event>
<event>
 6    0  0.1230761E+002  0.8442518E+02  0.7546771E-02  0.1316943E+00
         -2   -1    0    0    0  501 -0.00000000000E+00  0.00000000000E+00  0.81724286761E+03  0.81724286761E+03  0.00000000000E+00 0. -1.
         21   -1    0    0  503  502  0.00000000000E+00 -0.00000000000E+00 -0.22704446535E+03  0.22704446535E+03  0.00000000000E+00 0.  1.
         21    1    1    2  503  504  0.74819880806E+02 -0.69906506034E+02 -0.15980529648E+03  0.18979638282E+03  0.00000000000E+00 0.  1.
         21    1    1    2  504  505 -0.45847116810E+02  0.39766181115E+02 -0.26608477977E+02  0.66267023327E+02  0.00000000000E+00 0. -1.
         21    1    1    2  505  501  0.34110030111E+02 -0.18366905593E+02  0.10509169874E+03  0.11200492186E+03  0.00000000000E+00 0. -1.
         -2    1    1    2    0  502 -0.63082794107E+02  0.48507230511E+02  0.67152047797E+03  0.67621900495E+03  0.00000000000E+00 0. -1.
<scales pt_clust_3="84.42518" pt_clust_4="14000.00000" pt_clust_5="38.74064" pt_clust_6="43.62356"></scales>
<clustering>
<clus scale="   38.741">  1  5  2 -1</clus>
<clus scale="   43.624">  1  6  2 -1</clus>
<clus scale="   84.425">  2  3  1 -1</clus>
<clus scale="   84.425">  2  3  1 -1</clus>
</clustering>
</event>
<event>
 6    0  0.1230761E+002  0.1378625E+03  0.7546771E-02  0.1216234E+00
          1   -1    0    0  505    0 -0.00000000000E+00  0.00000000000E+00  0.25155431904E+04  0.25155431904E+04  0.00000000000E+00 0.  1.
         21   -1    0    0  501  502  0.00000000000E+00 -0.00000000000E+00 -0.54887113711E+02  0.54887113711E+02  0.00000000000E+00 0.  1.
         21    1    1    2  503  502  0.38776904314E+02  0.53400321341E+02  0.17651351669E+01  0.66017863716E+02  0.00000000000E+00 0.  1.
         21    1    1    2  504  503  0.59718223139E+02  0.26571524915E+02  0.41861670808E+02  0.77619015673E+02  0.00000000000E+00 0.  1.
         21    1    1    2  505  504  0.46312950542E+02 -0.30059175182E+02  0.99694829920E+03  0.99847601607E+03  0.00000000000E+00 0.  1.
          1    1    1    2  501    0 -0.14480807800E+03 -0.49912671074E+02  0.14200809715E+04  0.14283174086E+04  0.00000000000E+00 0.  1.
<scales pt_clust_3="51.05188" pt_clust_4="51.05188" pt_clust_5="55.21271" pt_clust_6="127.96326"></scales>
<clustering>
<clus scale="   51.052">  3  4 -1 -1</clus>
<clus scale="   55.213">  1  5  2 -1</clus>
<clus scale="  127.963">  1  6  2 -1</clus>
<clus scale="  137.862">  2  3  1 -1</clus>
</clustering>
</event>
<event>
 6    0  0.1230761E+002  0.3220468E+03  0.7546771E-02  0.1074711E+00
         -2   -1    0    0    0  501 -0.00000000000E+00  0.00000000000E+00  0.53523445990E+02  0.53523445990E+02  0.00000000000E+00 0.  1.
         21   -1    0    0  503  502  0.00000000000E+00 -0.00000000000E+00 -0.25095351717E+04  0.25095351717E+04  0.00000000000E+00 0. -1.
         21    1    1    2  503  505 -0.59318143090E+02  0.17372371780E+02 -0.32071245457E+03  0.32661432902E+03  0.00000000000E+00 0. -1.
         21    1    1    2  504  501 -0.83329950655E+01 -0.44169656037E+02 -0.24939267467E+02  0.51403933536E+02  0.00000000000E+00 0.  1.
         21    1    1    2  505  504 -0.14943615888E+03  0.22627230895E+03 -0.10518670844E+04  0.10862571918E+04  0.00000000000E+00 0. -1.
         -2    1    1    2    0  502  0.21708729703E+03 -0.19947502469E+03 -0.10584929193E+04  0.10987831634E+04  0.00000000000E+00 0.  1.
<scales pt_clust_3="47.11058" pt_clust_4="44.94883" pt_clust_5="47.11058" pt_clust_6="307.28466"></scales>
<clustering>
<clus scale="   44.949">  1  4  2 -1</clus>
<clus scale="   47.111">  3  5 -1 -1</clus>
<clus scale="  307.285">  1  6  2 -1</clus>
<clus scale="  322.047">  2  3  1 -1</clus>
</clustering>
</event>
<event>
 6    0  0.1230761E+002  0.1570439E+03  0.7546771E-02  0.1192075E+00
          2   -1    0    0  504    0 -0.00000000000E+00  0.00000000000E+00  0.16109562349E+04  0.16109562349E+04  0.00000000000E+00 0. -1.
         21   -1    0    0  501  502  0.00000000000E+00 -0.00000000000E+00 -0.84239285547E+02  0.84239285547E+02  0.00000000000E+00 0. -1.
         21    1    1    2  503  502  0.57860128066E+02  0.46616655711E+02 -0.22868143140E+02  0.77742259937E+02  0.00000000000E+00 0. -1.
         21    1    1    2  504  505  0.15276812554E+02  0.32091456293E+02  0.31828843351E+03  0.32026671615E+03  0.00000000000E+00 0. -1.
         21    1    1    2  505  503  0.62124613658E+02  0.74554017729E+02  0.74170204313E+02  0.12214331087E+03  0.00000000000E+00 0. -1.
          2    1    1    2  501    0 -0.13526155428E+03 -0.15326212973E+03  0.11571264547E+04  0.11750432335E+04  0.00000000000E+00 0. -1.
<scales pt_clust_3="74.98388" pt_clust_4="35.54212" pt_clust_5="157.04392" pt_clust_6="14000.00000"></scales>
<clustering>
<clus scale="   35.542">  1  4  2 -1</clus>
<clus scale="   74.984">  2  3  1 -1</clus>
<clus scale="  157.044">  2  5  1 -1</clus>
<clus scale="   74.984">  2  3  1 -1</clus>
</clustering>
</event>
<event>
 6    0  0.1230761E+002  0.2912052E+03  0.7546771E-02  0.1089722E+00
         21   -1    0    0  501  502  0.00000000000E+00  0.00000000000E+00  0.18449107890E+03  0.18449107890E+03  0.00000000000E+00 0.  1.
          2   -1    0    0  504    0 -0.00000000000E+00 -0.00000000000E+00 -0.53979454060E+04  0.53979454060E+04  0.00000000000E+00 0.  1.
         21    1    1    2  503  502  0.45719715598E+02  0.14285259608E+03  0.46816733997E+02  0.15712721974E+03  0.00000000000E+00 0.  1.
         21    1    1    2  504  505 -0.31622628381E+02 -0.18672455011E+01 -0.29460813802E+03  0.29630631485E+03  0.00000000000E+00 0. -1.
         21    1    1    2  505  503  0.89697366925E+01  0.13962210749E+03  0.14707070134E+02  0.14068079822E+03  0.00000000000E+00 0. -1.
          2    1    1    2  501    0 -0.23066823910E+02 -0.28060745806E+03 -0.49803699932E+04  0.49883221521E+04  0.00000000000E+00 0.  1.
<scales pt_clust_3="44.49619" pt_clust_4="31.67771" pt_clust_5="44.49619" pt_clust_6="287.53943"></scales>
<clustering>
<clus scale="   31.678">  2  4  1 -1</clus>
<clus scale="   44.496">  3  5 -1 -1</clus>
<clus scale="  287.539">  2  6  1 -1</clus>
<clus scale="  291.205">  1  3  2 -1</clus>
</clustering>
</event>
<event>
 6    0  0.1230761E+002  0.1125945E+03  0.7546771E-02  0.1255839E+00
         21   -1    0    0  504  502  0.00000000000E+00  0.00000000000E+00  0.48358766849E+03  0.48358766849E+03  0.00000000000E+00 0.  1.
          3   -1    0    0  505    0 -0.00000000000E+00 -0.00000000000E+00 -0.61619750957E+03  0.61619750957E+03  0.00000000000E+00 0.  1.
         21    1    1    2  503  501  0.18749344949E+01  0.69169088007E+02  0.28854539044E+03  0.29672600233E+03  0.00000000000E+00 0.  1.
         21    1    1    2  504  503  0.37594898341E+02  0.20998337502E+02  0.16626576957E+03  0.17175160171E+03  0.00000000000E+00 0.  1.
         21    1    1    2  505  502 -0.27934565647E+02  0.39821461030E+02 -0.26472804795E+02  0.55379582069E+02  0.00000000000E+00 0.  1.
          3    1    1    2  501    0 -0.11535267188E+02 -0.12998888654E+03 -0.56094819628E+03  0.57592799196E+03  0.00000000000E+00 0.  1.
<scales pt_clust_3="42.70183" pt_clust_4="42.70183" pt_clust_5="48.64246" pt_clust_6="98.72929"></scales>
<clustering>
<clus scale="   42.702">  3  4 -1 -1</clus>
<clus scale="   48.642">  2  5  1 -1</clus>
<clus scale="   98.729">  2  6  1 -1</clus>
<clus scale="  112.594">  1  3  2 -1</clus>
</clustering>
</event>
<event>
 6    0  0.1230761E+002  0.2431910E+03  0.7546771E-02  0.1117685E+00
         -1   -1    0    0    0  501 -0.00000000000E+00  0.00000000000E+00  0.10473736693E+04  0.10473736693E+04  0.00000000000E+00 0. -1.
         21   -1    0    0  504  502  0.00000000000E+00 -0.00000000000E+00 -0.28930616716E+03  0.28930616716E+03  0.00000000000E+00 0.  1.
         21    1    1    2  503  501 -0.86954442381E+01 -0.34868131666E+02  0.10157145693E+03  0.10774116306E+03  0.00000000000E+00 0.  1.
         21    1    1    2  504  505 -0.80134721910E+02  0.38062814606E+02 -0.13132664172E+03  0.15848355857E+03  0.00000000000E+00 0.  1.
         21    1    1    2  505  503 -0.13357119847E+03  0.54063479236E+02 -0.85423857878E+02  0.16751525406E+03  0.00000000000E+00 0.  1.
         -1    1    1    2    0  502  0.22240136462E+03 -0.57258162176E+02  0.87324654478E+03  0.90293986073E+03  0.00000000000E+00 0. -1.
<scales pt_clust_3="35.93602" pt_clust_4="56.24628" pt_clust_5="56.24628" pt_clust_6="232.38954"></scales>
<clustering>
<clus scale="   35.936">  1  3  2 -1</clus>
<clus scale="   56.246">  4  5 -1 -1</clus>
<clus scale="  232.390">  1  6  2 -1</clus>
<clus scale="  243.191">  2  3  1 -1</clus>
</clustering>
</event>
<event>
 6    0  0.1230761E+002  0.1731864E+03  0.7546771E-02  0.1174565E+00
          2   -1    0    0  504    0 -0.00000000000E+00  0.00000000000E+00  0.18000337730E+04  0.18000337730E+04  0.00000000000E+00 0. -1.
         21   -1    0    0  505  502  0.00000000000E+00 -0.00000000000E+00 -0.94308093427E+02  0.94308093427E+02  0.00000000000E+00 0. -1.
         21    1    1    2  503  501  0.32873988449E+02  0.13855723920E+03  0.55046716201E+02  0.15267268458E+03  0.00000000000E+00 0. -1.
         21    1    1    2  504  502  0.20863932377E+02  0.62883530477E+02  0.89250267197E+03  0.89495846918E+03  0.00000000000E+00 0. -1.
         21    1    1    2  505  503  0.24431542686E+02  0.21666824134E+02 -0.16626956996E+02  0.36644334419E+02  0.00000000000E+00 0.  1.
          2    1    1    2  501    0 -0.78169463512E+02 -0.22310759381E+03  0.77480324837E+03  0.81006637823E+03  0.00000000000E+00 0. -1.
<scales pt_clust_3="14000.00000" pt_clust_4="66.76777" pt_clust_5="32.65504" pt_clust_6="173.18640"></scales>
<clustering>
<clus scale="   32.655">  2  5  1 -1</clus>
<clus scale="   66.768">  1  4  2 -1</clus>
<clus scale="  173.186">  1  6  2 -1</clus>
<clus scale="   32.655">  2  3  1 -1</clus>
</clustering>
</event>
<event>
 6    0  0.1230761E+002  0.9613302E+02  0.7546771E-02  0.1288644E+00
          2   -1    0    0  503    0 -0.00000000000E+00  0.00000000000E+00  0.31354191095E+04  0.31354191095E+04  0.00000000000E+00 0.  1.
         21   -1    0    0  504  502  0.00000000000E+00 -0.00000000000E+00 -0.54712687915E+02  0.54712687915E+02  0.00000000000E+00 0.  1.
         21    1    1    2  503  502 -0.91966892866E+01  0.46399642801E+02  0.33653443871E+03  0.33984251409E+03  0.00000000000E+00 0.  1.
         21    1    1    2  504  505 -0.90082934544E+01  0.37332115499E+02 -0.29045721575E+02  0.48150702387E+02  0.00000000000E+00 0.  1.
         21    1    1    2  505  501  0.20066036491E+02  0.62790150429E+02  0.74622436580E+02  0.99567850497E+02  0.00000000000E+00 0.  1.
          2    1    1    2  501    0 -0.18610537501E+01 -0.14652190873E+03  0.26985952679E+04  0.27025707304E+04  0.00000000000E+00 0.  1.
<scales pt_clust_3="51.24107" pt_clust_4="38.40360" pt_clust_5="96.13302" pt_clust_6="14000.00000"></scales>
<clustering>
<clus scale="   38.404">  2  4  1 -1</clus>
<clus scale="   51.241">  1  3  2 -1</clus>
<clus scale="   96.133">  2  5  1 -1</clus>
<clus scale="   38.404">  2  3  1 -1</clus>
</clustering>
</event>
<event>
 6    0  0.1230761E+002  0.7344563E+02  0.7546771E-02  0.1348753E+00
         21   -1    0    0  505  502  0.00000000000E+00  0.00000000000E+00  0.25507697546E+03  0.25507697546E+03  0.00000000000E+00 0.  1.
         -3   -1    0    0    0  501 -0.00000000000E+00 -0.00000000000E+00 -0.91643365397E+03  0.91643365397E+03  0.00000000000E+00 0.  1.
         21    1    1    2  503  504  0.15714633383E+02  0.29397697390E+02 -0.65922331991E+02  0.73871023882E+02  0.00000000000E+00 0.  1.
         21    1    1    2  504  502  0.54119388366E+02  0.44021257570E+02  0.19864524302E+03  0.21053909824E+03  0.00000000000E+00 0.  1.
         21    1    1    2  505  501 -0.99648593194E+02 -0.85715116018E+02 -0.47403665107E+02  0.13972841767E+03  0.00000000000E+00 0.  1.
         -3    1    1    2    0  503  0.29814571445E+02  0.12296161057E+02 -0.74667592443E+03  0.74737208964E+03  0.00000000000E+00 0.  1.
<scales pt_clust_3="44.41997" pt_clust_4="14000.00000" pt_clust_5="73.44563" pt_clust_6="32.25065"></scales>
<clustering>
<clus scale="   32.251">  2  6  1 -1</clus>
<clus scale="   44.420">  2  3  1 -1</clus>
<clus scale="   73.446">  2  5  1 -1</clus>
<clus scale="   73.446">  1  3  2 -1</clus>
</clustering>
</event>
<event>
 6    0  0.1230761E+002  0.8509914E+02  0.7546771E-02  0.1315173E+00
         21   -1    0    0  504  502  0.00000000000E+00  0.00000000000E+00  0.36440958723E+03  0.36440958723E+03  0.00000000000E+00 0. -1.
         -2   -1    0    0    0  501 -0.00000000000E+00 -0.00000000000E+00 -0.11349953877E+04  0.11349953877E+04  0.00000000000E+00 0. -1.
         21    1    1    2  503  505 -0.35079405672E+02 -0.14956156368E+03  0.12532348807E+03  0.19825539764E+03  0.00000000000E+00 0. -1.
         21    1    1    2  504  503 -0.69245162528E+00  0.69921036527E+02  0.19347272184E+03  0.20572098807E+03  0.00000000000E+00 0. -1.
         21    1    1    2  505  501  0.20981795892E+02  0.45561429358E+02 -0.23761180458E+03  0.24284861392E+03  0.00000000000E+00 0.  1.
         -2    1    1    2    0  502  0.14790061405E+02  0.34079097794E+02 -0.85177020576E+03  0.85257997528E+03  0.00000000000E+00 0. -1.
<scales pt_clust_3="85.09914" pt_clust_4="70.65996" pt_clust_5="14000.00000" pt_clust_6="37.15011"></scales>
<clustering>
<clus scale="   37.150">  2  6  1 -1</clus>
<clus scale="   70.660">  1  4  2 -1</clus>
<clus scale="   85.099">  1  3  2 -1</clus>
<clus scale="   70.660">  1  3  2 -1</clus>
</clustering>
</event>
<event>
 6    0  0.1230761E+002  0.1233596E+03  0.7546771E-02  0.1237655E+00
          2   -1    0    0  503    0 -0.00000000000E+00  0.00000000000E+00  0.96775408078E+03  0.96775408078E+03  0.00000000000E+00 0.  1.
         21   -1    0    0  504  502  0.00000000000E+00 -0.00000000000E+00 -0.18851270223E+03  0.18851270223E+03  0.00000000000E+00 0. -1.
         21    1    1    2  503  505 -0.34245789951E+02  0.31282493685E+02  0.19226605940E+03  0.19778171335E+03  0.00000000000E+00 0.  1.
         21    1    1    2  504  501  0.67375083275E+02  0.79966195643E+02 -0.11752554079E+03  0.15730939905E+03  0.00000000000E+00 0. -1.
         21    1    1    2  505  502 -0.21168328270E+02  0.35302636004E+02 -0.30741086214E+02  0.51374980411E+02  0.00000000000E+00 0. -1.
          2    1    1    2  501    0 -0.11960965054E+02 -0.14655132533E+03  0.73524194615E+03  0.74980069020E+03  0.00000000000E+00 0.  1.
<scales pt_clust_3="47.12098" pt_clust_4="123.35962" pt_clust_5="41.16278" pt_clust_6="14000.00000"></scales>
<clustering>
<clus scale="   41.163">  2  5  1 -1</clus>
<clus scale="   47.121">  1  3  2 -1</clus>
<clus scale="  123.360">  2  4  1 -1</clus>
<clus scale="   41.163">  2  3  1 -1</clus>
</clustering>
</event>
<event>
 6    0  0.1230761E+002  0.1743786E+03  0.7546771E-02  0.1173357E+00
         21   -1    0    0  505  502  0.00000000000E+00  0.00000000000E+00  0.66494405052E+02  0.66494405052E+02  0.00000000000E+00 0.  1.
          1   -1    0    0  504    0 -0.00000000000E+00 -0.00000000000E+00 -0.22133567617E+04  0.22133567617E+04  0.00000000000E+00 0.  1.
         21    1    1    2  503  501  0.88809942696E+02 -0.28872169802E+02 -0.56435769133E+02  0.10911372117E+03  0.00000000000E+00 0. -1.
         21    1    1    2  504  502  0.16026646095E+01 -0.60654662627E+02 -0.37082819189E+03  0.37575937052E+03  0.00000000000E+00 0. -1.
         21    1    1    2  505  503  0.56463396715E+02 -0.50336216734E+02 -0.13464807450E+02  0.76831965505E+02  0.00000000000E+00 0.  1.
          1    1    1    2  501    0 -0.14687600402E+03  0.13986304916E+03 -0.17061335882E+04  0.17181461096E+04  0.00000000000E+00 0.  1.
<scales pt_clust_3="43.26952" pt_clust_4="60.67583" pt_clust_5="43.26952" pt_clust_6="167.62006"></scales>
<clustering>
<clus scale="   43.270">  3  5 -1 -1</clus>
<clus scale="   60.676">  2  4  1 -1</clus>
<clus scale="  167.620">  2  6  1 -1</clus>
<clus scale="  174.379">  1  3  2 -1</clus>
</clustering>
</event>
<event>
 6    0  0.1230761E+002  0.9516998E+02  0.7546771E-02  0.1290794E+00
          1   -1    0    0  505    0 -0.00000000000E+00  0.00000000000E+00  0.60384227643E+03  0.60384227643E+03  0.00000000000E+00 0. -1.
         21   -1    0    0  504  502  0.00000000000E+00 -0.00000000000E+00 -0.60780850386E+03  0.60780850386E+03  0.00000000000E+00 0. -1.
         21    1    1    2  503  502  0.47050839166E+02  0.11361332976E+01 -0.65026793841E+02  0.80271764540E+02  0.00000000000E+00 0.  1.
         21    1    1    2  504  501  0.25699156311E+02 -0.64388139899E+02 -0.49656648692E+03  0.50138264342E+03  0.00000000000E+00 0. -1.
         21    1    1    2  505  503  0.60045180494E+02 -0.44660861785E+01  0.82721366579E+01  0.60776622736E+02  0.00000000000E+00 0.  1.
          1    1    1    2  501    0 -0.13279517597E+03  0.67718092780E+02  0.54935491667E+03  0.56921974959E+03  0.00000000000E+00 0. -1.
<scales pt_clust_3="47.06455" pt_clust_4="14000.00000" pt_clust_5="62.50904" pt_clust_6="95.16998"></scales>
<clustering>
<clus scale="   47.065">  2  3  1 -1</clus>
<clus scale="   62.509">  1  5  2 -1</clus>
<clus scale="   95.170">  1  6  2 -1</clus>
<clus scale="   47.065">  2  3  1 -1</clus>
</clustering>
</event>
<event>
 6    0  0.1230761E+002  0.1862988E+03  0.7546771E-02  0.1161843E+00
          3   -1    0    0  504    0 -0.00000000000E+00  0.00000000000E+00  0.71548072800E+03  0.71548072800E+03  0.00000000000E+00 0.  1.
         21   -1    0    0  501  502  0.00000000000E+00 -0.00000000000E+00 -0.31399376419E+03  0.31399376419E+03  0.00000000000E+00 0. -1.
         21    1    1    2  503  502  0.35832380186E+01  0.18723923092E+03 -0.19143605059E+03  0.26780427677E+03  0.00000000000E+00 0. -1.
         21    1    1    2  504  505 -0.70074854039E+02  0.28460792921E+01  0.89746864817E+02  0.11389945162E+03  0.00000000000E+00 0. -1.
         21    1    1    2  505  503  0.14336659769E+03 -0.18512265009E+02  0.43229293860E+02  0.15088226249E+03  0.00000000000E+00 0. -1.
          3    1    1    2  501    0 -0.76874981665E+02 -0.17157304521E+03  0.45994685572E+03  0.49688850131E+03  0.00000000000E+00 0.  1.
<scales pt_clust_3="186.29883" pt_clust_4="70.13263" pt_clust_5="133.51101" pt_clust_6="14000.00000"></scales>
<clustering>
<clus scale="   70.133">  1  4  2 -1</clus>
<clus scale="  133.511">  1  5  2 -1</clus>
<clus scale="  186.299">  2  3  1 -1</clus>
<clus scale="  186.299">  2  3  1 -1</clus>
</clustering>
</event>
<event>
 6    0  0.1230761E+002  0.8091804E+02  0.7546771E-02  0.1326466E+00
         21   -1    0    0  503  502  0.00000000000E+00  0.00000000000E+00  0.39157692908E+03  0.39157692908E+03  0.00000000000E+00 0.  1.
         -3   -1    0    0    0  501 -0.00000000000E+00 -0.00000000000E+00 -0.12541897988E+03  0.12541897988E+03  0.00000000000E+00 0. -1.
         21    1    1    2  503  505  0.18338781016E+02  0.41766933998E+02  0.84016919520E+02  0.95601414374E+02  0.00000000000E+00 0.  1.
         21    1    1    2  504  502  0.98157340128E+02 -0.85423285825E+02  0.35677210244E+02  0.13492540351E+03  0.00000000000E+00 0. -1.
         21    1    1    2  505  501 -0.59356624480E+02  0.23797811545E+02  0.19732986623E+03  0.20743341295E+03  0.00000000000E+00 0.  1.
         -3    1    1    2    0  504 -0.57139496663E+02  0.19858540282E+02 -0.50866046785E+02  0.79035678124E+02  0.00000000000E+00 0. -1.
<scales pt_clust_3="45.61565" pt_clust_4="14000.00000" pt_clust_5="80.91804" pt_clust_6="60.36080"></scales>
<clustering>
<clus scale="   45.616">  1  3  2 -1</clus>
<clus scale="   60.361">  2  6  1 -1</clus>
<clus scale="   80.918">  1  5  2 -1</clus>
<clus scale="   45.616">  1  3  2 -1</clus>
</clustering>
</event>
<event>
 6    0  0.1230761E+002  0.1851735E+03  0.7546771E-02  0.1162888E+00
         21   -1    0    0  501  502  0.00000000000E+00  0.00000000000E+00  0.62277051938E+03  0.62277051938E+03  0.00000000000E+00 0. -1.
          2   -1    0    0  505    0 -0.00000000000E+00 -0.00000000000E+00 -0.28697950768E+04  0.28697950768E+04  0.00000000000E+00 0. -1.
         21    1    1    2  503  504  0.19913763635E+03  0.49086211078E+02  0.49146368065E+03  0.53254277174E+03  0.00000000000E+00 0. -1.
         21    1    1    2  504  502 -0.14463888847E+02 -0.37955263052E+02  0.99101679835E+02  0.10710251640E+03  0.00000000000E+00 0.  1.
         21    1    1    2  505  503 -0.13408740369E+02  0.45555004430E+02 -0.11580455766E+03  0.12516288715E+03  0.00000000000E+00 0. -1.
          2    1    1    2  501    0 -0.17126500714E+03 -0.56685952456E+02 -0.27217853602E+04  0.27277574209E+04  0.00000000000E+00 0. -1.
<scales pt_clust_3="14000.00000" pt_clust_4="40.61780" pt_clust_5="47.19684" pt_clust_6="185.17346"></scales>
<clustering>
<clus scale="   40.618">  1  4  2 -1</clus>
<clus scale="   47.197">  2  5  1 -1</clus>
<clus scale="  185.173">  2  6  1 -1</clus>
<clus scale="   40.618">  1  3  2 -1</clus>
</clustering>
</event>
<event>
 6    0  0.1230761E+002  0.1402046E+03  0.7546771E-02  0.1213054E+00
          1   -1    0    0  505    0 -0.00000000000E+00  0.00000000000E+00  0.11671647726E+04  0.11671647726E+04  0.00000000000E+00 0. -1.
         21   -1    0    0  503  502  0.00000000000E+00 -0.00000000000E+00 -0.57708308361E+03  0.57708308361E+03  0.00000000000E+00 0.  1.
         21    1    1    2  503  501 -0.46320245295E+01 -0.71150492259E+02 -0.91822321383E+02  0.11625483605E+03  0.00000000000E+00 0.  1.
         21    1    1    2  504  502 -0.60517996195E+02 -0.54501744869E+02 -0.44787925307E+03  0.45522378385E+03  0.00000000000E+00 0.  1.
         21    1    1    2  505  504 -0.34451040919E+02 -0.58051601716E+02  0.91729514237E+02  0.11389102890E+03  0.00000000000E+00 0. -1.
          1    1    1    2  501    0  0.99601061644E+02  0.18370383884E+03  0.10380537492E+04  0.10588782074E+04  0.00000000000E+00 0. -1.
<scales pt_clust_3="71.99254" pt_clust_4="14000.00000" pt_clust_5="67.50454" pt_clust_6="140.20455"></scales>
<clustering>
<clus scale="   67.505">  1  5  2 -1</clus>
<clus scale="   71.993">  2  3  1 -1</clus>
<clus scale="  140.205">  1  6  2 -1</clus>
<clus scale="   71.993">  2  3  1 -1</clus>
</clustering>
</event>
<event>
 6    0  0.1230761E+002  0.2642439E+03  0.7546771E-02  0.1104620E+00
         -1   -1    0    0    0  501 -0.00000000000E+00  0.00000000000E+00  0.84865691325E+03  0.84865691325E+03  0.00000000000E+00 0. -1.
         21   -1    0    0  504  502  0.00000000000E+00 -0.00000000000E+00 -0.25587423714E+03  0.25587423714E+03  0.00000000000E+00 0.  1.
         21    1    1    2  503  501  0.24102051755E+02  0.19722196614E+02  0.13077641038E+03  0.13443341641E+03  0.00000000000E+00 0. -1.
         21    1    1    2  504  505  0.21132376368E+03  0.70071221030E+02 -0.14713826961E+03  0.26686584550E+03  0.00000000000E+00 0.  1.
         21    1    1    2  505  503  0.15634342422E+02  0.29290303321E+02 -0.54577454386E+00  0.33206210284E+02  0.00000000000E+00 0.  1.
         -1    1    1    2    0  502 -0.25106015785E+03 -0.11908372097E+03  0.60969030989E+03  0.67002567819E+03  0.00000000000E+00 0. -1.
<scales pt_clust_3="31.14280" pt_clust_4="32.10092" pt_clust_5="32.10092" pt_clust_6="250.94792"></scales>
<clustering>
<clus scale="   31.143">  1  3  2 -1</clus>
<clus scale="   32.101">  4  5 -1 -1</clus>
<clus scale="  250.948">  1  6  2 -1</clus>
<clus scale="  264.244">  2  3  1 -1</clus>
</clustering>
</event>
<event>
 6    0  0.1230761E+002  0.1456917E+03  0.7546771E-02  0.1205869E+00
         21   -1    0    0  501  502  0.00000000000E+00  0.00000000000E+00  0.71595738173E+02  0.71595738173E+02  0.00000000000E+00 0.  1.
          1   -1    0    0  503    0 -0.00000000000E+00 -0.00000000000E+00 -0.12817138091E+04  0.12817138091E+04  0.00000000000E+00 0. -1.
         21    1    1    2  503  504 -0.34801092726E+00  0.53493754054E+02 -0.11228448739E+03  0.12437648067E+03  0.00000000000E+00 0.  1.
         21    1    1    2  504  505  0.45944381388E+02  0.64759799995E+02 -0.31478622131E+02  0.85414410540E+02  0.00000000000E+00 0.  1.
         21    1    1    2  505  502  0.59475326535E+02  0.12438743943E+02  0.32492455549E+01  0.60848947517E+02  0.00000000000E+00 0.  1.
          1    1    1    2  501    0 -0.10507169700E+03 -0.13069229799E+03 -0.10696042070E+04  0.10826697085E+04  0.00000000000E+00 0. -1.
<scales pt_clust_3="53.49489" pt_clust_4="51.92365" pt_clust_5="51.92365" pt_clust_6="133.05230"></scales>
<clustering>
<clus scale="   51.924">  4  5 -1 -1</clus>
<clus scale="   53.495">  2  3  1 -1</clus>
<clus scale="  133.052">  2  6  1 -1</clus>
<clus scale="  145.692">  1  3  2 -1</clus>
</clustering>
</event>
<event>
 6    0  0.1230761E+002  0.7497396E+02  0.7546771E-02  0.1343952E+00
         21   -1    0    0  504  502  0.00000000000E+00  0.00000000000E+00  0.14866812095E+03  0.14866812095E+03  0.00000000000E+00 0.  1.
          1   -1    0    0  503    0 -0.00000000000E+00 -0.00000000000E+00 -0.70898570533E+03  0.70898570533E+03  0.00000000000E+00 0. -1.
         21    1    1    2  503  505 -0.31595620790E+02  0.37329912930E+02 -0.12870534596E+03  0.13768395596E+03  0.00000000000E+00 0.  1.
         21    1    1    2  504  501  0.91827839720E+02  0.76952310249E+02 -0.45990974426E+01  0.11989646324E+03  0.00000000000E+00 0.  1.
         21    1    1    2  505  502 -0.20498555526E+02 -0.60962112734E+02  0.72061088246E+02  0.96588666037E+02  0.00000000000E+00 0.  1.
          1    1    1    2  501    0 -0.39733663404E+02 -0.53320110445E+02 -0.49907422923E+03  0.50348474105E+03  0.00000000000E+00 0. -1.
<scales pt_clust_3="48.90609" pt_clust_4="14000.00000" pt_clust_5="63.78325" pt_clust_6="74.97396"></scales>
<clustering>
<clus scale="   48.906">  2  3  1 -1</clus>
<clus scale="   63.783">  1  5  2 -1</clus>
<clus scale="   74.974">  2  6  1 -1</clus>
<clus scale="   63.783">  1  3  2 -1</clus>
</clustering>
</event>
<event>
 6    0  0.1230761E+002  0.2507608E+03  0.7546771E-02  0.1112825E+00
         21   -1    0    0  501  502  0.00000000000E+00  0.00000000000E+00  0.48503746085E+03  0.48503746085E+03  0.00000000000E+00 0.  1.
          2   -1    0    0  504    0 -0.00000000000E+00 -0.00000000000E+00 -0.56722961949E+03  0.56722961949E+03  0.00000000000E+00 0.  1.
         21    1    1    2  503  502 -0.15383013501E+03  0.81426673557E+02  0.31270915350E+03  0.35788409896E+03  0.00000000000E+00 0.  1.
         21    1    1    2  504  505 -0.85564183336E+02  0.75757255846E+02 -0.73035536857E+02  0.13562662322E+03  0.00000000000E+00 0. -1.
         21    1    1    2  505  503 -0.51516139456E+02  0.20893041794E+02  0.34530057817E+02  0.65442774335E+02  0.00000000000E+00 0.  1.
          2    1    1    2  501    0  0.29091045780E+03 -0.17807697120E+03 -0.35639583310E+03  0.49331358382E+03  0.00000000000E+00 0.  1.
<scales pt_clust_3="43.75519" pt_clust_4="114.28207" pt_clust_5="43.75519" pt_clust_6="238.50959"></scales>
<clustering>
<clus scale="   43.755">  3  5 -1 -1</clus>
<clus scale="  114.282">  2  4  1 -1</clus>
<clus scale="  238.510">  2  6  1 -1</clus>
<clus scale="  250.761">  1  3  2 -1</clus>
</clustering>
</event>
<event>
 6    0  0.1230761E+002  0.9404323E+02  0.7546771E-02  0.1293346E+00
          1   -1    0    0  503    0 -0.00000000000E+00  0.00000000000E+00  0.22357955017E+04  0.22357955017E+04  0.00000000000E+00 0.  1.
         21   -1    0    0  505  502  0.00000000000E+00 -0.00000000000E+00 -0.19789846510E+02  0.19789846510E+02  0.00000000000E+00 0.  1.
         21    1    1    2  503  504  0.40982840187E+02  0.19228004377E+01  0.64262031655E+03  0.64392869294E+03  0.00000000000E+00 0.  1.
         21    1    1    2  504  502 -0.43341773837E+02  0.51442505203E+02  0.22359754789E+03  0.23349668975E+03  0.00000000000E+00 0.  1.
         21    1    1    2  505  501 -0.30806055803E+02  0.39491060033E+02  0.38506604109E+02  0.63176858553E+02  0.00000000000E+00 0.  1.
          1    1    1    2  501    0  0.33164989453E+02 -0.92856365674E+02  0.13112811866E+04  0.13149831069E+04  0.00000000000E+00 0.  1.
<scales pt_clust_3="41.02792" pt_clust_4="14000.00000" pt_clust_5="49.34074" pt_clust_6="94.04323"></scales>
<clustering>
<clus scale="   41.028">  1  3  2 -1</clus>
<clus scale="   49.341">  2  5  1 -1</clus>
<clus scale="   94.043">  1  6  2 -1</clus>
<clus scale="   49.341">  2  3  1 -1</clus>
</clustering>
</event>
<event>
 6    0  0.1230761E+002  0.9442487E+02  0.7546771E-02  0.1292477E+00
          2   -1    0    0  503    0 -0.00000000000E+00  0.00000000000E+00  0.19962195689E+04  0.19962195689E+04  0.00000000000E+00 0. -1.
         21   -1    0    0  504  502  0.00000000000E+00 -0.00000000000E+00 -0.12620395330E+03  0.12620395330E+03  0.00000000000E+00 0.  1.
         21    1    1    2  503  505 -0.36428280739E+02 -0.35906402866E+02  0.23406039235E+03  0.23958413276E+03  0.00000000000E+00 0. -1.
         21    1    1    2  504  501 -0.70517503616E+02  0.40326710445E+02 -0.85994791346E+02  0.11829651741E+03  0.00000000000E+00 0.  1.
         21    1    1    2  505  502 -0.23927237733E+02 -0.41790605521E+02  0.12591765483E+02  0.49774692097E+02  0.00000000000E+00 0.  1.
          2    1    1    2  501    0  0.13087302209E+03  0.37370297942E+02  0.17093582492E+04  0.17147681800E+04  0.00000000000E+00 0. -1.
<scales pt_clust_3="52.34100" pt_clust_4="14000.00000" pt_clust_5="48.15566" pt_clust_6="94.42487"></scales>
<clustering>
<clus scale="   48.156">  2  5  1 -1</clus>
<clus scale="   52.341">  1  3  2 -1</clus>
<clus scale="   94.425">  1  6  2 -1</clus>
<clus scale="   48.156">  2  3  1 -1</clus>
</clustering>
</event>
<event>
 6    0  0.1230761E+002  0.1721520E+03  0.7546771E-02  0.1175622E+00
         21   -1    0    0  505  502  0.00000000000E+00  0.00000000000E+00  0.12143538382E+04  0.12143538382E+04  0.00000000000E+00 0. -1.
         -1   -1    0    0    0  501 -0.00000000000E+00 -0.00000000000E+00 -0.27136821050E+03  0.27136821050E+03  0.00000000000E+00 0. -1.
         21    1    1    2  503  502  0.36266543561E+02  0.36252496177E+02  0.45347629834E+02  0.68453730303E+02  0.00000000000E+00 0. -1.
         21    1    1    2  504  501 -0.28225874054E+01  0.32269901466E+02 -0.12031684424E+02  0.34555389889E+02  0.00000000000E+00 0. -1.
         21    1    1    2  505  504  0.80566020113E+02 -0.16518939816E+03  0.11142712342E+04  0.11293267040E+04  0.00000000000E+00 0. -1.
         -1    1    1    2    0  503 -0.11400997627E+03  0.96667000513E+02 -0.20460155199E+03  0.25338622448E+03  0.00000000000E+00 0. -1.
<scales pt_clust_3="52.26098" pt_clust_4="32.39311" pt_clust_5="14000.00000" pt_clust_6="172.15201"></scales>
<clustering>
<clus scale="   32.393">  2  4  1 -1</clus>
<clus scale="   52.261">  1  3  2 -1</clus>
<clus scale="  172.152">  2  6  1 -1</clus>
<clus scale="   52.261">  1  3  2 -1</clus>
</clustering>
</event>
<event>
 6    0  0.1230761E+002  0.1183590E+03  0.7546771E-02  0.1245829E+00
         -1   -1    0    0    0  501 -0.00000000000E+00  0.00000000000E+00  0.77785083150E+02  0.77785083150E+02  0.00000000000E+00 0. -1.
         21   -1    0    0  503  502  0.00000000000E+00 -0.00000000000E+00 -0.24208487590E+04  0.24208487590E+04  0.00000000000E+00 0.  1.
         21    1    1    2  503  505  0.29774327963E+02 -0.23096166230E+02 -0.35358800302E+03  0.35559024084E+03  0.00000000000E+00 0.  1.
         21    1    1    2  504  502  0.28929888708E+02 -0.83139508970E+02 -0.20006909727E+04  0.20026266463E+04  0.00000000000E+00 0.  1.
         21    1    1    2  505  501 -0.95465739670E+00  0.47540943707E+02 -0.21021784553E+02  0.51990077179E+02  0.00000000000E+00 0.  1.
         -1    1    1    2    0  504 -0.57749559274E+02  0.58694731493E+02  0.32237084428E+02  0.88426877780E+02  0.00000000000E+00 0. -1.
<scales pt_clust_3="37.68214" pt_clust_4="14000.00000" pt_clust_5="47.13484" pt_clust_6="118.35904"></scales>
<clustering>
<clus scale="   37.682">  2  3  1 -1</clus>
<clus scale="   47.135">  1  5  2 -1</clus>
<clus scale="  118.359">  1  6  2 -1</clus>
<clus scale="   37.682">  2  3  1 -1</clus>
</clustering>
</event>
<event>
 6    0  0.1230761E+002  0.1793385E+03  0.7546771E-02  0.1168445E+00
          2   -1    0    0  504    0 -0.00000000000E+00  0.00000000000E+00  0.26003590141E+04  0.26003590141E+04  0.00000000000E+00 0.  1.
         21   -1    0    0  505  502  0.00000000000E+00 -0.00000000000E+00 -0.10394168334E+03  0.10394168334E+03  0.00000000000E+00 0. -1.
         21    1    1    2  503  502 -0.11084483322E+03 -0.54108793346E+02 -0.40970297957E+02  0.12997270438E+03  0.00000000000E+00 0. -1.
         21    1    1    2  504  503 -0.31186521881E+02 -0.53664495008E+02  0.26316503116E+03  0.27038548555E+03  0.00000000000E+00 0.  1.
         21    1    1    2  505  501 -0.64767851099E+02  0.95167290528E+01  0.11274010047E+03  0.13036783699E+03  0.00000000000E+00 0.  1.
          2    1    1    2  501    0  0.20679920620E+03  0.98256559302E+02  0.21614824971E+04  0.21735746706E+04  0.00000000000E+00 0.  1.
<scales pt_clust_3="179.33848" pt_clust_4="62.06833" pt_clust_5="66.73169" pt_clust_6="14000.00000"></scales>
<clustering>
<clus scale="   62.068">  1  4  2 -1</clus>
<clus scale="   66.732">  2  5  1 -1</clus>
<clus scale="  179.338">  2  3  1 -1</clus>
<clus scale="   66.732">  2  3  1 -1</clus>
</clustering>
</event>
<event>
 6    0  0.1230761E+002  0.1286805E+03  0.7546771E-02  0.1229427E+00
         21   -1    0    0  501  502  0.00000000000E+00  0.00000000000E+00  0.35248239552E+02  0.35248239552E+02  0.00000000000E+00 0.  1.
          2   -1    0    0  503    0 -0.00000000000E+00 -0.00000000000E+00 -0.94971898444E+03  0.94971898444E+03  0.00000000000E+00 0.  1.
         21    1    1    2  503  505  0.16691267826E+02  0.44813629976E+02 -0.31600695841E+03  0.31960484605E+03  0.00000000000E+00 0. -1.
         21    1    1    2  504  502 -0.10921505360E+02  0.63598862780E+02 -0.48318655116E+02  0.80615054788E+02  0.00000000000E+00 0.  1.
         21    1    1    2  505  504 -0.38906258192E+01  0.44129158942E+02 -0.97664438065E+02  0.10724207244E+03  0.00000000000E+00 0.  1.
          2    1    1    2  501    0 -0.18791366473E+01 -0.15254165170E+03 -0.45248069329E+03  0.47750525071E+03  0.00000000000E+00 0.  1.
<scales pt_clust_3="47.82112" pt_clust_4="38.45897" pt_clust_5="38.45897" pt_clust_6="120.01728"></scales>
<clustering>
<clus scale="   38.459">  4  5 -1 -1</clus>
<clus scale="   47.821">  2  3  1 -1</clus>
<clus scale="  120.017">  2  6  1 -1</clus>
<clus scale="  128.680">  1  3  2 -1</clus>
</clustering>
</event>
<event>
 6    0  0.1230761E+002  0.1716809E+03  0.7546771E-02  0.1176106E+00
         -2   -1    0    0    0  501 -0.00000000000E+00  0.00000000000E+00  0.20064889895E+04  0.20064889895E+04  0.00000000000E+00 0.  1.
         21   -1    0    0  504  502  0.00000000000E+00 -0.00000000000E+00 -0.31089239072E+02  0.31089239072E+02  0.00000000000E+00 0.  1.
         21    1    1    2  503  502 -0.10406793441E+02  0.12727350886E+03  0.18881928444E+03  0.22794641823E+03  0.00000000000E+00 0.  1.
         21    1    1    2  504  501  0.45205382412E+02 -0.61099741599E+02  0.71481865701E+03  0.71884797936E+03  0.00000000000E+00 0.  1.
         21    1    1    2  505  503  0.19992711399E+02  0.50292549504E+02  0.13867657415E+03  0.14886316288E+03  0.00000000000E+00 0.  1.
         -2    1    1    2    0  505 -0.54791300369E+02 -0.11646631677E+03  0.93308523483E+03  0.94192066810E+03  0.00000000000E+00 0.  1.
<scales pt_clust_3="36.30716" pt_clust_4="76.00464" pt_clust_5="36.30716" pt_clust_6="162.36992"></scales>
<clustering>
<clus scale="   36.307">  3  5 -1 -1</clus>
<clus scale="   76.005">  1  4  2 -1</clus>
<clus scale="  162.370">  1  6  2 -1</clus>
<clus scale="  171.681">  2  3  1 -1</clus>
</clustering>
</event>
<event>
 6    0  0.1230761E+002  0.9240838E+02  0.7546771E-02  0.1297122E+00
         21   -1    0    0  504  502  0.00000000000E+00  0.00000000000E+00  0.28695700263E+03  0.28695700263E+03  0.00000000000E+00 0. -1.
         -3   -1    0    0    0  501 -0.00000000000E+00 -0.00000000000E+00 -0.10379903779E+04  0.10379903779E+04  0.00000000000E+00 0. -1.
         21    1    1    2  503  501 -0.47314800933E+02 -0.42042676773E+02 -0.19833361613E+03  0.20818861723E+03  0.00000000000E+00 0. -1.
         21    1    1    2  504  503  0.67724134583E+02 -0.11426650626E+03  0.16473205860E+03  0.21161295799E+03  0.00000000000E+00 0. -1.
         21    1    1    2  505  502 -0.63080612622E+02  0.24894265567E+02  0.74794531878E+02  0.10096093376E+03  0.00000000000E+00 0. -1.
         -3    1    1    2    0  505  0.42671278972E+02  0.13141491747E+03 -0.79222634960E+03  0.80418487152E+03  0.00000000000E+00 0. -1.
<scales pt_clust_3="63.29516" pt_clust_4="92.40838" pt_clust_5="68.26876" pt_clust_6="14000.00000"></scales>
<clustering>
<clus scale="   63.295">  2  3  1 -1</clus>
<clus scale="   68.269">  1  5  2 -1</clus>
<clus scale="   92.408">  1  4  2 -1</clus>
<clus scale="   68.269">  1  3  2 -1</clus>
</clustering>
</event>
<event>
 6    0  0.1230761E+002  0.1447130E+03  0.7546771E-02  0.1207124E+00
          2   -1    0    0  504    0 -0.00000000000E+00  0.00000000000E+00  0.23122211791E+04  0.23122211791E+04  0.00000000000E+00 0.  1.
         21   -1    0    0  505  502  0.00000000000E+00 -0.00000000000E+00 -0.36586836111E+03  0.36586836111E+03  0.00000000000E+00 0. -1.
         21    1    1    2  503  502 -0.11212719657E+03 -0.42746680395E+02 -0.83179348832E+02  0.14600887291E+03  0.00000000000E+00 0. -1.
         21    1    1    2  504  503 -0.22066377825E+02  0.26632376624E+02  0.54534313991E+02  0.64577085080E+02  0.00000000000E+00 0. -1.
         21    1    1    2  505  501  0.16725729959E+03  0.25059095358E+02 -0.21706508122E+03  0.27517305830E+03  0.00000000000E+00 0. -1.
          2    1    1    2  501    0 -0.33063725193E+02 -0.89447915865E+01  0.21920629340E+04  0.21923305239E+04  0.00000000000E+00 0.  1.
<scales pt_clust_3="144.71303" pt_clust_4="44.41515" pt_clust_5="14000.00000" pt_clust_6="34.25229"></scales>
<clustering>
<clus scale="   34.252">  1  6  2 -1</clus>
<clus scale="   44.415">  1  4  2 -1</clus>
<clus scale="  144.713">  1  3  2 -1</clus>
<clus scale="  144.713">  2  3  1 -1</clus>
</clustering>
</event>
<event>
 6    0  0.1230761E+002  0.1101570E+03  0.7546771E-02  0.1260280E+00
         21   -1    0    0  504  502  0.00000000000E+00  0.00000000000E+00  0.38536048529E+02  0.38536048529E+02  0.00000000000E+00 0.  1.
         -2   -1    0    0    0  501 -0.00000000000E+00 -0.00000000000E+00 -0.14622659270E+04  0.14622659270E+04  0.00000000000E+00 0. -1.
         21    1    1    2  503  505 -0.61209335473E+02  0.47568336869E+02 -0.57779262897E+02  0.96683879951E+02  0.00000000000E+00 0.  1.
         21    1    1    2  504  503  0.16243087008E+02  0.63004341795E+02 -0.61361008859E+02  0.89434659774E+02  0.00000000000E+00 0.  1.
         21    1    1    2  505  501  0.29078510880E+02  0.17209700291E+02 -0.28369997808E+03  0.28570511221E+03  0.00000000000E+00 0. -1.
         -2    1    1    2    0  502  0.15887737585E+02 -0.12778237895E+03 -0.10208896287E+04  0.10289783236E+04  0.00000000000E+00 0. -1.
<scales pt_clust_3="110.15695" pt_clust_4="66.61382" pt_clust_5="33.78955" pt_clust_6="14000.00000"></scales>
<clustering>
<clus scale="   33.790">  2  5  1 -1</clus>
<clus scale="   66.614">  1  4  2 -1</clus>
<clus scale="  110.157">  1  3  2 -1</clus>
<clus scale="   66.614">  1  3  2 -1</clus>
</clustering>
</event>
<event>
 6    0  0.1230761E+002  0.2150358E+03  0.7546771E-02  0.1137639E+00
         21   -1    0    0  505  502  0.00000000000E+00  0.00000000000E+00  0.26122017353E+02  0.26122017353E+02  0.00000000000E+00 0. -1.
          2   -1    0    0  503    0 -0.00000000000E+00 -0.00000000000E+00 -0.37391420825E+04  0.37391420825E+04  0.00000000000E+00 0. -1.
         21    1    1    2  503  504  0.73139249545E+02 -0.24545644075E+02 -0.48925369402E+03  0.49529891538E+03  0.00000000000E+00 0.  1.
         21    1    1    2  504  502  0.12005230716E+03 -0.25739850221E+02 -0.31394710165E+03  0.33710217884E+03  0.00000000000E+00 0. -1.
         21    1    1    2  505  501  0.19774351444E+01  0.37675373046E+02 -0.35199757287E+02  0.51598128812E+02  0.00000000000E+00 0. -1.
          2    1    1    2  501    0 -0.19516899185E+03  0.12610121250E+02 -0.28746195122E+04  0.28812648768E+04  0.00000000000E+00 0. -1.
<scales pt_clust_3="70.23782" pt_clust_4="70.23782" pt_clust_5="37.72723" pt_clust_6="195.78541"></scales>
<clustering>
<clus scale="   37.727">  1  5  2 -1</clus>
<clus scale="   70.238">  3  4 -1 -1</clus>
<clus scale="  195.785">  2  6  1 -1</clus>
<clus scale="   37.727">  1  3  2 -1</clus>
</clustering>
</event>
<event>
 6    0  0.1230761E+002  0.3593741E+03  0.7546771E-02  0.1058832E+00
          2   -1    0    0  505    0 -0.00000000000E+00  0.00000000000E+00  0.11945538480E+04  0.11945538480E+04  0.00000000000E+00 0. -1.
         21   -1    0    0  503  502  0.00000000000E+00 -0.00000000000E+00 -0.21190154040E+03  0.21190154040E+03  0.00000000000E+00 0.  1.
         21    1    1    2  503  504 -0.11170482081E+03 -0.16998551374E+03  0.74382855287E+02  0.21657758664E+03  0.00000000000E+00 0.  1.
         21    1    1    2  504  501 -0.93552522674E+02 -0.10038315413E+03 -0.56716941955E+02  0.14847782204E+03  0.00000000000E+00 0.  1.
         21    1    1    2  505  502 -0.34605774131E+02  0.63486001056E+02  0.22901392774E+03  0.24015705493E+03  0.00000000000E+00 0. -1.
          2    1    1    2  501    0  0.23986311762E+03  0.20688266682E+03  0.73597246649E+03  0.80124292475E+03  0.00000000000E+00 0. -1.
<scales pt_clust_3="110.26871" pt_clust_4="110.26871" pt_clust_5="72.30513" pt_clust_6="333.80562"></scales>
<clustering>
<clus scale="   72.305">  1  5  2 -1</clus>
<clus scale="  110.269">  3  4 -1 -1</clus>
<clus scale="  333.806">  1  6  2 -1</clus>
<clus scale="  359.374">  2  3  1 -1</clus>
</clustering>
</event>
<event>
 6    0  0.1230761E+002  0.9116978E+02  0.7546771E-02  0.1300043E+00
         21   -1    0    0  503  502  0.00000000000E+00  0.00000000000E+00  0.21700715885E+02  0.21700715885E+02  0.00000000000E+00 0. -1.
          1   -1    0    0  505    0 -0.00000000000E+00 -0.00000000000E+00 -0.16361363714E+04  0.16361363714E+04  0.00000000000E+00 0. -1.
         21    1    1    2  503  501  0.56313763081E+02  0.28692916197E+02 -0.12947983663E+03  0.14408175265E+03  0.00000000000E+00 0. -1.
         21    1    1    2  504  502  0.24501609312E+02 -0.27304246561E+02 -0.15097261397E+03  0.15536595801E+03  0.00000000000E+00 0.  1.
         21    1    1    2  505  504 -0.13603644758E+03 -0.36671471136E+02 -0.43999158589E+03  0.46199925056E+03  0.00000000000E+00 0. -1.
          1    1    1    2  501    0  0.55221075185E+02  0.35282801499E+02 -0.89399161902E+03  0.89639012606E+03  0.00000000000E+00 0. -1.
<scales pt_clust_3="91.16978" pt_clust_4="36.68584" pt_clust_5="14000.00000" pt_clust_6="65.93365"></scales>
<clustering>
<clus scale="   36.686">  1  4  2 -1</clus>
<clus scale="   65.934">  2  6  1 -1</clus>
<clus scale="   91.170">  1  3  2 -1</clus>
<clus scale="   36.686">  1  3  2 -1</clus>
</clustering>
</event>
<event>
 6    0  0.1230761E+002  0.7628999E+02  0.7546771E-02  0.1339922E+00
          2   -1    0    0  503    0 -0.00000000000E+00  0.00000000000E+00  0.12348519934E+04  0.12348519934E+04  0.00000000000E+00 0. -1.
         21   -1    0    0  504  502  0.00000000000E+00 -0.00000000000E+00 -0.11382680187E+03  0.11382680187E+03  0.00000000000E+00 0.  1.
         21    1    1    2  503  505 -0.61350750803E+01  0.31870937685E+02  0.63820132513E+02  0.71598918492E+02  0.00000000000E+00 0.  1.
         21    1    1    2  504  501 -0.65374286771E+02 -0.85799973455E+01 -0.17902121233E+02  0.68322029170E+02  0.00000000000E+00 0.  1.
         21    1    1    2  505  502  0.76095831383E+02  0.67303401174E+02 -0.25240404604E+02  0.10467760691E+03  0.00000000000E+00 0.  1.
          2    1    1    2  501    0 -0.45864695318E+01 -0.90594341514E+02  0.11003475848E+04  0.11040802407E+04  0.00000000000E+00 0. -1.
<scales pt_clust_3="32.45606" pt_clust_4="14000.00000" pt_clust_5="76.28999" pt_clust_6="61.38048"></scales>
<clustering>
<clus scale="   32.456">  1  3  2 -1</clus>
<clus scale="   61.380">  1  6  2 -1</clus>
<clus scale="   76.290">  1  5  2 -1</clus>
<clus scale="   76.290">  2  3  1 -1</clus>
</clustering>
</event>
<event>
 6    0  0.1230761E+002  0.1270441E+03  0.7546771E-02  0.1231909E+00
         21   -1    0    0  503  502  0.00000000000E+00  0.00000000000E+00  0.39415942182E+03  0.39415942182E+03  0.00000000000E+00 0. -1.
          1   -1    0    0  504    0 -0.00000000000E+00 -0.00000000000E+00 -0.39495846478E+03  0.39495846478E+03  0.00000000000E+00 0.  1.
         21    1    1    2  503  501  0.31322810796E+02 -0.76078135556E+01  0.10480148842E+02  0.33894406958E+02  0.00000000000E+00 0.  1.
         21    1    1    2  504  505  0.33718076088E+02  0.32781061250E+02  0.11052276533E+03  0.12011156601E+03  0.00000000000E+00 0.  1.
         21    1    1    2  505  502  0.48095209145E+02  0.20540649320E+02  0.24397561268E+03  0.24951786910E+03  0.00000000000E+00 0. -1.
          1    1    1    2  501    0 -0.11313609603E+03 -0.45713897015E+02 -0.36577756981E+03  0.38559404454E+03  0.00000000000E+00 0.  1.
<scales pt_clust_3="32.23348" pt_clust_4="32.66083" pt_clust_5="32.66083" pt_clust_6="121.32606"></scales>
<clustering>
<clus scale="   32.233">  1  3  2 -1</clus>
<clus scale="   32.661">  4  5 -1 -1</clus>
<clus scale="  121.326">  2  6  1 -1</clus>
<clus scale="   32.233">  1  3  2 -1</clus>
</clustering>
</event>
<event>
 6    0  0.1230761E+002  0.1169722E+03  0.7546771E-02  0.1248177E+00
          1   -1    0    0  503    0 -0.00000000000E+00  0.00000000000E+00  0.88599953396E+03  0.88599953396E+03  0.00000000000E+00 0.  1.
         21   -1    0    0  505  502  0.00000000000E+00 -0.00000000000E+00 -0.11181654863E+03  0.11181654863E+03  0.00000000000E+00 0.  1.
         21    1    1    2  503  504  0.33904062687E+02  0.67358047722E+01  0.11439402586E+03  0.11950250911E+03  0.00000000000E+00 0.  1.
         21    1    1    2  504  502 -0.85916940580E+02  0.29597204137E+02 -0.73445130095E+02  0.11684135529E+03  0.00000000000E+00 0.  1.
         21    1    1    2  505  501 -0.20624642529E+02  0.27678852824E+02  0.16554408557E+02  0.38282413923E+02  0.00000000000E+00 0.  1.
          1    1    1    2  501    0  0.72637520422E+02 -0.64011861733E+02  0.71667968101E+03  0.72318980426E+03  0.00000000000E+00 0.  1.
<scales pt_clust_3="34.20043" pt_clust_4="14000.00000" pt_clust_5="34.51804" pt_clust_6="116.97220"></scales>
<clustering>
<clus scale="   34.518">  2  5  1 -1</clus>
<clus scale="   34.200">  1  3  2 -1</clus>
<clus scale="  116.972">  1  6  2 -1</clus>
<clus scale="   34.518">  2  3  1 -1</clus>
</clustering>
</event>
<event>
 6    0  0.1230761E+002  0.9805543E+02  0.7546771E-02  0.1284439E+00
         21   -1    0    0  501  502  0.00000000000E+00  0.00000000000E+00  0.12987134826E+03  0.12987134826E+03  0.00000000000E+00 0. -1.
          2   -1    0    0  504    0 -0.00000000000E+00 -0.00000000000E+00 -0.58845453697E+03  0.58845453697E+03  0.00000000000E+00 0. -1.
         21    1    1    2  503  502 -0.17560538838E+02 -0.39270891643E+02  0.11509243457E+02  0.44531316393E+02  0.00000000000E+00 0. -1.
         21    1    1    2  504  505 -0.42994717722E+01 -0.31903493602E+02 -0.11083384172E+03  0.11541429214E+03  0.00000000000E+00 0. -1.
         21    1    1    2  505  503 -0.53760458679E+02 -0.30808096387E+02  0.79972752172E+02  0.10116801278E+03  0.00000000000E+00 0. -1.
          2    1    1    2  501    0  0.75620469290E+02  0.10198248163E+03 -0.43923134262E+03  0.45721226392E+03  0.00000000000E+00 0. -1.
<scales pt_clust_3="44.09207" pt_clust_4="32.19190" pt_clust_5="98.05543" pt_clust_6="14000.00000"></scales>
<clustering>
<clus scale="   32.192">  2  4  1 -1</clus>
<clus scale="   44.092">  1  3  2 -1</clus>
<clus scale="   98.055">  1  5  2 -1</clus>
<clus scale="   44.092">  1  3  2 -1</clus>
</clustering>
</event>
<event>
 6    0  0.1230761E+002  0.1237485E+03  0.7546771E-02  0.1237038E+00
          2   -1    0    0  504    0 -0.00000000000E+00  0.00000000000E+00  0.12406264789E+04  0.12406264789E+04  0.00000000000E+00 0. -1.
         21   -1    0    0  505  502  0.00000000000E+00 -0.00000000000E+00 -0.11408241081E+03  0.11408241081E+03  0.00000000000E+00 0. -1.
         21    1    1    2  503  502  0.18838803872E+02  0.95175931196E+02 -0.62145725937E+02  0.11521913757E+03  0.00000000000E+00 0. -1.
         21    1    1    2  504  503  0.36447750267E+02 -0.11767830552E+02  0.12150580569E+03  0.12739929809E+03  0.00000000000E+00 0. -1.
         21    1    1    2  505  501  0.51263027732E+02  0.92167530688E+01  0.20574123518E+02  0.56001259878E+02  0.00000000000E+00 0.  1.
          2    1    1    2  501    0 -0.10654958187E+03 -0.92624853712E+02  0.10466098648E+04  0.10560891942E+04  0.00000000000E+00 0. -1.
<scales pt_clust_3="14000.00000" pt_clust_4="38.30040" pt_clust_5="53.24768" pt_clust_6="123.74854"></scales>
<clustering>
<clus scale="   38.300">  1  4  2 -1</clus>
<clus scale="   53.248">  2  5  1 -1</clus>
<clus scale="  123.749">  1  6  2 -1</clus>
<clus scale="   53.248">  2  3  1 -1</clus>
</clustering>
</event>
<event>
 6    0  0.1230761E+002  0.1272666E+03  0.7546771E-02  0.1231569E+00
          2   -1    0    0  503    0 -0.00000000000E+00  0.00000000000E+00  0.23140140971E+04  0.23140140971E+04  0.00000000000E+00 0.  1.
         21   -1    0    0  501  502  0.00000000000E+00 -0.00000000000E+00 -0.93085844593E+01  0.93085844593E+01  0.00000000000E+00 0.  1.
         21    1    1    2  503  505 -0.24563925743E+02 -0.23873672600E+02  0.31907422223E+03  0.32090761597E+03  0.00000000000E+00 0.  1.
         21    1    1    2  504  502 -0.26507573330E+02  0.68679055969E+02  0.91042913692E+03  0.91340061174E+03  0.00000000000E+00 0.  1.
         21    1    1    2  505  504 -0.47412085055E+02  0.19318251246E+02  0.44625256403E+03  0.44917975416E+03  0.00000000000E+00 0. -1.
          2    1    1    2  501    0  0.98483584128E+02 -0.64123634616E+02  0.62894958947E+03  0.63983469971E+03  0.00000000000E+00 0.  1.
<scales pt_clust_3="34.25403" pt_clust_4="47.40203" pt_clust_5="47.40203" pt_clust_6="115.60456"></scales>
<clustering>
<clus scale="   34.254">  1  3  2 -1</clus>
<clus scale="   47.402">  4  5 -1 -1</clus>
<clus scale="  115.605">  2  6  1 -1</clus>
<clus scale="  115.605">  2  3  1 -1</clus>
</clustering>
</event>
<event>
 6    0  0.1230761E+002  0.1066932E+03  0.7546771E-02  0.1266819E+00
         21   -1    0    0  504  502  0.00000000000E+00  0.00000000000E+00  0.16271566560E+03  0.16271566560E+03  0.00000000000E+00 0.  1.
          3   -1    0    0  503    0 -0.00000000000E+00 -0.00000000000E+00 -0.53150926408E+03  0.53150926408E+03  0.00000000000E+00 0.  1.
         21    1    1    2  503  505  0.12512546104E+01 -0.12961388257E+03 -0.21914596414E+03  0.25461005046E+03  0.00000000000E+00 0.  1.
         21    1    1    2  504  501  0.23076953336E+02  0.22203751194E+02  0.73001722464E+02  0.79717023433E+02  0.00000000000E+00 0.  1.
         21    1    1    2  505  502 -0.34244096153E+02  0.11505645025E+02  0.55101814697E+02  0.65888147429E+02  0.00000000000E+00 0.  1.
          3    1    1    2  501    0  0.99158882059E+01  0.95904486355E+02 -0.27775117150E+03  0.29400970836E+03  0.00000000000E+00 0.  1.
<scales pt_clust_3="106.69319" pt_clust_4="32.02425" pt_clust_5="32.54319" pt_clust_6="14000.00000"></scales>
<clustering>
<clus scale="   32.024">  1  4  2 -1</clus>
<clus scale="   32.543">  1  5  2 -1</clus>
<clus scale="  106.693">  1  3  2 -1</clus>
<clus scale="   32.024">  1  3  2 -1</clus>
</clustering>
</event>
<event>
 6    0  0.1230761E+002  0.8601560E+02  0.7546771E-02  0.1312798E+00
         21   -1    0    0  504  502  0.00000000000E+00  0.00000000000E+00  0.18088465457E+03  0.18088465457E+03  0.00000000000E+00 0. -1.
          2   -1    0    0  505    0 -0.00000000000E+00 -0.00000000000E+00 -0.69028383875E+03  0.69028383875E+03  0.00000000000E+00 0.  1.
         21    1    1    2  503  502  0.96412882143E+01 -0.30233075641E+02  0.19133236947E+02  0.37055013928E+02  0.00000000000E+00 0. -1.
         21    1    1    2  504  501  0.10576435876E+01 -0.60616699288E+02  0.13473361286E+03  0.14774521744E+03  0.00000000000E+00 0. -1.
         21    1    1    2  505  503  0.67284180225E+02  0.56651593058E+02 -0.26913052083E+03  0.28313919041E+03  0.00000000000E+00 0.  1.
          2    1    1    2  501    0 -0.77983112027E+02  0.34198181871E+02 -0.39413551315E+03  0.40322907154E+03  0.00000000000E+00 0.  1.
<scales pt_clust_3="31.73316" pt_clust_4="14000.00000" pt_clust_5="86.01560" pt_clust_6="84.53100"></scales>
<clustering>
<clus scale="   31.733">  1  3  2 -1</clus>
<clus scale="   84.531">  2  6  1 -1</clus>
<clus scale="   86.016">  2  5  1 -1</clus>
<clus scale="   31.733">  1  3  2 -1</clus>
</clustering>
</event>
<event>
 6    0  0.1230761E+002  0.8142253E+02  0.7546771E-02  0.1325062E+00
          2   -1    0    0  504    0 -0.00000000000E+00  0.00000000000E+00  0.11026889917E+04  0.11026889917E+04  0.00000000000E+00 0. -1.
         21   -1    0    0  505  502  0.00000000000E+00 -0.00000000000E+00 -0.10633832439E+04  0.10633832439E+04  0.00000000000E+00 0.  1.
         21    1    1    2  503  502  0.59406217736E+02 -0.46627352504E+02 -0.98625035987E+02  0.12421797950E+03  0.00000000000E+00 0.  1.
         21    1    1    2  504  503 -0.37959903055E+02 -0.81224852281E+00  0.17616705740E+03  0.18021222517E+03  0.00000000000E+00 0. -1.
         21    1    1    2  505  501 -0.84701149336E+02 -0.79059606477E+01 -0.94608953059E+03  0.94990641055E+03  0.00000000000E+00 0.  1.
          2    1    1    2  501    0  0.63254834655E+02  0.55345561675E+02  0.90785325700E+03  0.91173562043E+03  0.00000000000E+00 0. -1.
<scales pt_clust_3="81.42253" pt_clust_4="37.96859" pt_clust_5="14000.00000" pt_clust_6="60.38241"></scales>
<clustering>
<clus scale="   37.969">  1  4  2 -1</clus>
<clus scale="   60.382">  1  6  2 -1</clus>
<clus scale="   81.423">  1  3  2 -1</clus>
<clus scale="   81.423">  2  3  1 -1</clus>
</clustering>
</event>
<event>
 6    0  0.1230761E+002  0.1741412E+03  0.7546771E-02  0.1173597E+00
          4   -1    0    0  504    0 -0.00000000000E+00  0.00000000000E+00  0.12889251649E+04  0.12889251649E+04  0.00000000000E+00 0.  1.
         21   -1    0    0  505  502  0.00000000000E+00 -0.00000000000E+00 -0.21919451467E+04  0.21919451467E+04  0.00000000000E+00 0. -1.
         21    1    1    2  503  502  0.57685829095E+02 -0.10313328896E+03 -0.12414100886E+03  0.17139171582E+03  0.00000000000E+00 0.  1.
         21    1    1    2  504  503 -0.27379333298E+02 -0.10197390153E+03  0.72130271319E+03  0.72898964913E+03  0.00000000000E+00 0.  1.
         21    1    1    2  505  501  0.11836144665E+03  0.10966957633E+03 -0.20225905295E+04  0.20290168304E+04  0.00000000000E+00 0. -1.
          4    1    1    2  501    0 -0.14866794244E+03  0.95437614163E+02  0.52240884339E+03  0.55147211622E+03  0.00000000000E+00 0.  1.
<scales pt_clust_3="121.37860" pt_clust_4="105.58553" pt_clust_5="14000.00000" pt_clust_6="174.14125"></scales>
<clustering>
<clus scale="  105.586">  1  4  2 -1</clus>
<clus scale="  121.379">  2  3  1 -1</clus>
<clus scale="  174.141">  1  6  2 -1</clus>
<clus scale="  121.379">  2  3  1 -1</clus>
</clustering>
</event>
<event>
 6    0  0.1230761E+002  0.1666759E+03  0.7546771E-02  0.1181359E+00
         21   -1    0    0  503  502  0.00000000000E+00  0.00000000000E+00  0.19534241083E+03  0.19534241083E+03  0.00000000000E+00 0. -1.
          2   -1    0    0  505    0 -0.00000000000E+00 -0.00000000000E+00 -0.16039908347E+04  0.16039908347E+04  0.00000000000E+00 0.  1.
         21    1    1    2  503  504  0.35400512368E+02 -0.10664889109E+02  0.11001306154E+02  0.38574147725E+02  0.00000000000E+00 0. -1.
         21    1    1    2  504  501  0.82255661953E+02 -0.90419840390E+02  0.13993978600E+03  0.18580873275E+03  0.00000000000E+00 0. -1.
         21    1    1    2  505  502  0.31501904893E+02  0.31941135176E+01 -0.44963988636E+03  0.45075336912E+03  0.00000000000E+00 0.  1.
          2    1    1    2  501    0 -0.14915807921E+03  0.97890615982E+02 -0.11099496297E+04  0.11241969960E+04  0.00000000000E+00 0.  1.
<scales pt_clust_3="32.65560" pt_clust_4="32.65560" pt_clust_5="31.66342" pt_clust_6="155.81233"></scales>
<clustering>
<clus scale="   31.663">  2  5  1 -1</clus>
<clus scale="   32.656">  3  4 -1 -1</clus>
<clus scale="  155.812">  2  6  1 -1</clus>
<clus scale="  166.676">  1  3  2 -1</clus>
</clustering>
</event>
<event>
 6    0  0.1230761E+002  0.8781355E+02  0.7546771E-02  0.1308235E+00
         21   -1    0    0  504  502  0.00000000000E+00  0.00000000000E+00  0.37577270990E+03  0.37577270990E+03  0.00000000000E+00 0. -1.
         -1   -1    0    0    0  501 -0.00000000000E+00 -0.00000000000E+00 -0.24781435059E+03  0.24781435059E+03  0.00000000000E+00 0.  1.
         21    1    1    2  503  502  0.22462044201E+02 -0.31056023533E+02  0.33006379748E+02  0.50581035294E+02  0.00000000000E+00 0. -1.
         21    1    1    2  504  505  0.66902204244E+02  0.39846730070E+02  0.30174084763E+03  0.31162670931E+03  0.00000000000E+00 0. -1.
         21    1    1    2  505  501 -0.88762191275E+02  0.45823633599E+02 -0.16386930660E+03  0.19191581915E+03  0.00000000000E+00 0.  1.
         -1    1    1    2    0  503 -0.60205717038E+00 -0.54614340135E+02 -0.42919561465E+02  0.69463496727E+02  0.00000000000E+00 0.  1.
<scales pt_clust_3="38.32780" pt_clust_4="87.81355" pt_clust_5="14000.00000" pt_clust_6="55.84923"></scales>
<clustering>
<clus scale="   38.328">  1  3  2 -1</clus>
<clus scale="   55.849">  2  6  1 -1</clus>
<clus scale="   87.814">  1  4  2 -1</clus>
<clus scale="   38.328">  1  3  2 -1</clus>
</clustering>
</event>
<event>
 6    0  0.1230761E+002  0.1764030E+03  0.7546771E-02  0.1171330E+00
          1   -1    0    0  505    0 -0.00000000000E+00  0.00000000000E+00  0.16095178248E+04  0.16095178248E+04  0.00000000000E+00 0. -1.
         21   -1    0    0  504  502  0.00000000000E+00 -0.00000000000E+00 -0.18904641101E+03  0.18904641101E+03  0.00000000000E+00 0. -1.
         21    1    1    2  503  502 -0.64599213693E+02  0.28501944006E+02  0.11406526916E+02  0.71522919949E+02  0.00000000000E+00 0. -1.
         21    1    1    2  504  501  0.19109407291E+03 -0.14916325786E+03 -0.44861093165E+02  0.24653425701E+03  0.00000000000E+00 0. -1.
         21    1    1    2  505  503 -0.93689034489E+02 -0.27032925805E+02  0.27226493595E+03  0.28919994746E+03  0.00000000000E+00 0. -1.
          1    1    1    2  501    0 -0.32805824729E+02  0.14769423966E+03  0.11816610441E+04  0.11913071114E+04  0.00000000000E+00 0. -1.
<scales pt_clust_3="70.60750" pt_clust_4="176.40297" pt_clust_5="100.42486" pt_clust_6="14000.00000"></scales>
<clustering>
<clus scale="   70.608">  2  3  1 -1</clus>
<clus scale="  100.425">  1  5  2 -1</clus>
<clus scale="  176.403">  2  4  1 -1</clus>
<clus scale="   70.608">  2  3  1 -1</clus>
</clustering>
</event>
<event>
 6    0  0.1230761E+002  0.4238394E+03  0.7546771E-02  0.1035824E+00
         21   -1    0    0  503  502  0.00000000000E+00  0.00000000000E+00  0.49161832917E+03  0.49161832917E+03  0.00000000000E+00 0.  1.
         -3   -1    0    0    0  501 -0.00000000000E+00 -0.00000000000E+00 -0.18978115328E+04  0.18978115328E+04  0.00000000000E+00 0.  1.
         21    1    1    2  503  504  0.20980208368E+02  0.86303034002E+02  0.96791647392E+02  0.13136592338E+03  0.00000000000E+00 0. -1.
         21    1    1    2  504  501 -0.41691994367E+02  0.31451569467E+03  0.28137100297E+03  0.42406129970E+03  0.00000000000E+00 0.  1.
         21    1    1    2  505  502  0.26367223639E+02 -0.51015320388E+02 -0.11693138883E+03  0.13027180466E+03  0.00000000000E+00 0.  1.
         -3    1    1    2    0  505 -0.56554376405E+01 -0.34980340829E+03 -0.16674244652E+04  0.17037308342E+04  0.00000000000E+00 0.  1.
<scales pt_clust_3="35.12727" pt_clust_4="406.80758" pt_clust_5="55.18851" pt_clust_6="55.18851"></scales>
<clustering>
<clus scale="   35.127">  3  4 -1 -1</clus>
<clus scale="   55.189">  5  6 -1 -1</clus>
<clus scale="  406.808">  1  3  2 -1</clus>
<clus scale="  406.808">  1  3  2 -1</clus>
</clustering>
</event>
<event>
 6    0  0.1230761E+002  0.7212858E+02  0.7546771E-02  0.1353001E+00
         21   -1    0    0  503  502  0.00000000000E+00  0.00000000000E+00  0.97820574695E+03  0.97820574695E+03  0.00000000000E+00 0.  1.
          2   -1    0    0  504    0 -0.00000000000E+00 -0.00000000000E+00 -0.40431046196E+03  0.40431046196E+03  0.00000000000E+00 0.  1.
         21    1    1    2  503  501  0.21583897276E+02  0.82024005650E+02  0.69084822199E+03  0.69603524907E+03  0.00000000000E+00 0.  1.
         21    1    1    2  504  505  0.10127252422E+02 -0.74838310298E+02  0.22269789242E+03  0.23515459855E+03  0.00000000000E+00 0.  1.
         21    1    1    2  505  502  0.35866343911E+02 -0.32872149736E+02  0.41152029414E+02  0.63721757498E+02  0.00000000000E+00 0. -1.
          2    1    1    2  501    0 -0.67577493609E+02  0.25686454383E+02 -0.38080285884E+03  0.38760460379E+03  0.00000000000E+00 0.  1.
<scales pt_clust_3="71.88489" pt_clust_4="14000.00000" pt_clust_5="48.65155" pt_clust_6="72.12858"></scales>
<clustering>
<clus scale="   48.652">  1  5  2 -1</clus>
<clus scale="   72.129">  2  6  1 -1</clus>
<clus scale="   71.885">  1  3  2 -1</clus>
<clus scale="   48.652">  1  3  2 -1</clus>
</clustering>
</event>
<event>
 6    0  0.1230761E+002  0.1161729E+03  0.7546771E-02  0.1249547E+00
          2   -1    0    0  503    0 -0.00000000000E+00  0.00000000000E+00  0.21695498061E+04  0.21695498061E+04  0.00000000000E+00 0. -1.
         21   -1    0    0  504  502  0.00000000000E+00 -0.00000000000E+00 -0.13219976200E+03  0.13219976200E+03  0.00000000000E+00 0.  1.
         21    1    1    2  503  502  0.54732681384E+02 -0.50337446434E+01  0.13727924710E+02  0.56652104228E+02  0.00000000000E+00 0. -1.
         21    1    1    2  504  505 -0.15313507343E+03  0.45381149513E+02 -0.50693974188E+02  0.16756992113E+03  0.00000000000E+00 0.  1.
         21    1    1    2  505  501  0.37797900382E+02 -0.39700633439E+02  0.10145333343E+04  0.10160131436E+04  0.00000000000E+00 0. -1.
          2    1    1    2  501    0  0.60604491669E+02 -0.64677142978E+00  0.10597827593E+04  0.10615143992E+04  0.00000000000E+00 0. -1.
<scales pt_clust_3="54.96367" pt_clust_4="107.11518" pt_clust_5="42.76940" pt_clust_6="42.76940"></scales>
<clustering>
<clus scale="   42.769">  5  6 -1 -1</clus>
<clus scale="   54.964">  2  3  1 -1</clus>
<clus scale="  107.115">  2  4  1 -1</clus>
<clus scale="   54.964">  2  3  1 -1</clus>
</clustering>
</event>
<event>
 6    0  0.1230761E+002  0.8978646E+02  0.7546771E-02  0.1303370E+00
          1   -1    0    0  504    0 -0.00000000000E+00  0.00000000000E+00  0.32530398100E+04  0.32530398100E+04  0.00000000000E+00 0. -1.
         21   -1    0    0  505  502  0.00000000000E+00 -0.00000000000E+00 -0.11342066723E+03  0.11342066723E+03  0.00000000000E+00 0. -1.
         21    1    1    2  503  502  0.31754510471E+02 -0.54277963803E+02 -0.57020087545E+02  0.84886610684E+02  0.00000000000E+00 0. -1.
         21    1    1    2  504  503  0.72814368666E+01 -0.52568499359E+02  0.68289670595E+03  0.68495574853E+03  0.00000000000E+00 0. -1.
         21    1    1    2  505  501  0.52379721158E+02  0.20684660890E+02 -0.20001089176E+02  0.59762312145E+02  0.00000000000E+00 0. -1.
          1    1    1    2  501    0 -0.91415668495E+02  0.86161802272E+02  0.25337436135E+04  0.25368558059E+04  0.00000000000E+00 0. -1.
<scales pt_clust_3="14000.00000" pt_clust_4="53.07039" pt_clust_5="56.22040" pt_clust_6="89.78646"></scales>
<clustering>
<clus scale="   53.070">  1  4  2 -1</clus>
<clus scale="   56.220">  2  5  1 -1</clus>
<clus scale="   89.786">  1  6  2 -1</clus>
<clus scale="   56.220">  2  3  1 -1</clus>
</clustering>
</event>
<event>
 6    0  0.1230761E+002  0.1329523E+03  0.7546771E-02  0.1223140E+00
          2   -1    0    0  504    0 -0.00000000000E+00  0.00000000000E+00  0.17179437452E+04  0.17179437452E+04  0.00000000000E+00 0. -1.
         21   -1    0    0  501  502  0.00000000000E+00 -0.00000000000E+00 -0.31803450081E+02  0.31803450081E+02  0.00000000000E+00 0.  1.
         21    1    1    2  503  502 -0.78607537123E+01  0.40809325122E+02  0.24283592066E+02  0.48134034835E+02  0.00000000000E+00 0.  1.
         21    1    1    2  504  505 -0.90440654165E+02  0.49575239105E+02  0.41965917229E+03  0.43214700872E+03  0.00000000000E+00 0.  1.
         21    1    1    2  505  503  0.49398612962E+01  0.52195966208E+02  0.85604484048E+02  0.10038400673E+03  0.00000000000E+00 0.  1.
          2    1    1    2  501    0  0.93361546581E+02 -0.14258053044E+03  0.11565930467E+04  0.11690821450E+04  0.00000000000E+00 0. -1.
<scales pt_clust_3="32.39246" pt_clust_4="132.95227" pt_clust_5="99.91106" pt_clust_6="14000.00000"></scales>
<clustering>
<clus scale="   32.392">  3  5 -1 -1</clus>
<clus scale="   99.911">  2  3  1 -1</clus>
<clus scale="  132.952">  1  4  2 -1</clus>
<clus scale="   99.911">  2  3  1 -1</clus>
</clustering>
</event>
<event>
 6    0  0.1230761E+002  0.2830738E+03  0.7546771E-02  0.1094022E+00
          1   -1    0    0  505    0 -0.00000000000E+00  0.00000000000E+00  0.84611329687E+03  0.84611329687E+03  0.00000000000E+00 0.  1.
         21   -1    0    0  503  502  0.00000000000E+00 -0.00000000000E+00 -0.73674146907E+03  0.73674146907E+03  0.00000000000E+00 0.  1.
         21    1    1    2  503  504 -0.13016586948E+03 -0.36171738357E+02 -0.37080064985E+03  0.39464499257E+03  0.00000000000E+00 0.  1.
         21    1    1    2  504  501 -0.14568807169E+03 -0.13571974825E+02 -0.30704352972E+03  0.34012489159E+03  0.00000000000E+00 0.  1.
         21    1    1    2  505  502  0.20390158103E+02 -0.33682816900E+02  0.51530306508E+02  0.64851084729E+02  0.00000000000E+00 0. -1.
          1    1    1    2  501    0  0.25546378307E+03  0.83426530082E+02  0.73568570087E+03  0.78323379705E+03  0.00000000000E+00 0.  1.
<scales pt_clust_3="41.29116" pt_clust_4="41.29116" pt_clust_5="39.37373" pt_clust_6="279.79731"></scales>
<clustering>
<clus scale="   39.374">  1  5  2 -1</clus>
<clus scale="   41.291">  3  4 -1 -1</clus>
<clus scale="  279.797">  1  6  2 -1</clus>
<clus scale="  283.074">  2  3  1 -1</clus>
</clustering>
</event>
<event>
 6    0  0.1230761E+002  0.1862937E+03  0.7546771E-02  0.1161847E+00
          2   -1    0    0  503    0 -0.00000000000E+00  0.00000000000E+00  0.90247492936E+03  0.90247492936E+03  0.00000000000E+00 0. -1.
         21   -1    0    0  501  502  0.00000000000E+00 -0.00000000000E+00 -0.63849404606E+02  0.63849404606E+02  0.00000000000E+00 0. -1.
         21    1    1    2  503  505 -0.80191011875E+02 -0.47879666206E+02  0.21847920821E+03  0.23760518774E+03  0.00000000000E+00 0. -1.
         21    1    1    2  504  502 -0.65413181394E+02  0.82001991157E+02  0.12790807042E+03  0.16541972473E+03  0.00000000000E+00 0.  1.
         21    1    1    2  505  504 -0.48893046172E+02  0.41267217517E+02  0.14003133009E+03  0.15395546958E+03  0.00000000000E+00 0. -1.
          2    1    1    2  501    0  0.19449723944E+03 -0.75389542468E+02  0.35220691605E+03  0.40934395192E+03  0.00000000000E+00 0. -1.
<scales pt_clust_3="93.39733" pt_clust_4="34.46785" pt_clust_5="34.46785" pt_clust_6="180.99052"></scales>
<clustering>
<clus scale="   34.468">  4  5 -1 -1</clus>
<clus scale="   93.397">  1  3  2 -1</clus>
<clus scale="  180.991">  1  6  2 -1</clus>
<clus scale="  186.294">  2  3  1 -1</clus>
</clustering>
</event>
<event>
 6    0  0.1230761E+002  0.2208628E+03  0.7546771E-02  0.1133241E+00
          1   -1    0    0  503    0 -0.00000000000E+00  0.00000000000E+00  0.13704813626E+04  0.13704813626E+04  0.00000000000E+00 0. -1.
         21   -1    0    0  504  502  0.00000000000E+00 -0.00000000000E+00 -0.31556060688E+03  0.31556060688E+03  0.00000000000E+00 0.  1.
         21    1    1    2  503  502  0.65098781686E+02  0.14476357595E+02  0.28635029927E+03  0.29401345241E+03  0.00000000000E+00 0. -1.
         21    1    1    2  504  505 -0.22355549835E+02 -0.76100552074E+02 -0.13479447501E+03  0.15639889747E+03  0.00000000000E+00 0.  1.
         21    1    1    2  505  501  0.54021694987E+02 -0.12484162376E+03 -0.12577610636E+03  0.18526576446E+03  0.00000000000E+00 0.  1.
          1    1    1    2  501    0 -0.96764926838E+02  0.18646581824E+03  0.10291410378E+04  0.10503638551E+04  0.00000000000E+00 0. -1.
<scales pt_clust_3="66.68895" pt_clust_4="65.94079" pt_clust_5="65.94079" pt_clust_6="203.28096"></scales>
<clustering>
<clus scale="   65.941">  4  5 -1 -1</clus>
<clus scale="   66.689">  1  3  2 -1</clus>
<clus scale="  203.281">  1  6  2 -1</clus>
<clus scale="  220.863">  2  3  1 -1</clus>
</clustering>
</event>
<event>
 6    0  0.1230761E+002  0.8545226E+02  0.7546771E-02  0.1314254E+00
          2   -1    0    0  505    0 -0.00000000000E+00  0.00000000000E+00  0.98206668770E+03  0.98206668770E+03  0.00000000000E+00 0. -1.
         21   -1    0    0  503  502  0.00000000000E+00 -0.00000000000E+00 -0.40878320262E+03  0.40878320262E+03  0.00000000000E+00 0. -1.
         21    1    1    2  503  501  0.11153719012E+02  0.60081158878E+02 -0.31257795562E+03  0.31849510112E+03  0.00000000000E+00 0. -1.
         21    1    1    2  504  502  0.46779558823E+02  0.32638984692E+01 -0.79311281522E+02  0.92137177804E+02  0.00000000000E+00 0. -1.
         21    1    1    2  505  504 -0.67822277134E+01  0.39590107782E+02  0.10537832188E+03  0.11277395962E+03  0.00000000000E+00 0. -1.
          2    1    1    2  501    0 -0.51151050122E+02 -0.10293516513E+03  0.85979440034E+03  0.86744365177E+03  0.00000000000E+00 0. -1.
<scales pt_clust_3="14000.00000" pt_clust_4="46.86475" pt_clust_5="40.16684" pt_clust_6="85.45226"></scales>
<clustering>
<clus scale="   40.167">  1  5  2 -1</clus>
<clus scale="   46.865">  2  4  1 -1</clus>
<clus scale="   85.452">  1  6  2 -1</clus>
<clus scale="   46.865">  2  3  1 -1</clus>
</clustering>
</event>
<event>
 6    0  0.1230761E+002  0.2211680E+03  0.7546771E-02  0.1133015E+00
         21   -1    0    0  504  502  0.00000000000E+00  0.00000000000E+00  0.40285175911E+02  0.40285175911E+02  0.00000000000E+00 0.  1.
         -1   -1    0    0    0  501 -0.00000000000E+00 -0.00000000000E+00 -0.16069464684E+04  0.16069464684E+04  0.00000000000E+00 0.  1.
         21    1    1    2  503  501  0.34162880634E+02  0.21533783613E+02 -0.33059108239E+03  0.33304844994E+03  0.00000000000E+00 0.  1.
         21    1    1    2  504  505  0.10506861989E+03  0.10316685575E+03 -0.41756954975E+03  0.44277211282E+03  0.00000000000E+00 0.  1.
         21    1    1    2  505  503  0.23446771248E+02  0.39552121163E+02 -0.45913923309E+02  0.64978532794E+02  0.00000000000E+00 0.  1.
         -1    1    1    2    0  502 -0.16267827177E+03 -0.16425276053E+03 -0.77258673699E+03  0.80643254871E+03  0.00000000000E+00 0.  1.
<scales pt_clust_3="40.38324" pt_clust_4="42.52980" pt_clust_5="42.52980" pt_clust_6="206.89706"></scales>
<clustering>
<clus scale="   40.383">  2  3  1 -1</clus>
<clus scale="   42.530">  4  5 -1 -1</clus>
<clus scale="  206.897">  2  6  1 -1</clus>
<clus scale="  221.168">  1  3  2 -1</clus>
</clustering>
</event>
<event>
 6    0  0.1230761E+002  0.1252593E+03  0.7546771E-02  0.1234665E+00
          1   -1    0    0  505    0 -0.00000000000E+00  0.00000000000E+00  0.48982828572E+03  0.48982828572E+03  0.00000000000E+00 0. -1.
         21   -1    0    0  503  502  0.00000000000E+00 -0.00000000000E+00 -0.94793360164E+03  0.94793360164E+03  0.00000000000E+00 0.  1.
         21    1    1    2  503  501  0.12033870116E+03 -0.19695503795E+02 -0.56799024624E+03  0.58093221265E+03  0.00000000000E+00 0.  1.
         21    1    1    2  504  502 -0.13398881287E+03 -0.10810152132E+02 -0.33723066885E+03  0.36303496440E+03  0.00000000000E+00 0.  1.
         21    1    1    2  505  504 -0.16042409523E+02 -0.31998890453E+02 -0.52402833994E+01  0.36176628694E+02  0.00000000000E+00 0.  1.
          1    1    1    2  501    0  0.29692521238E+02  0.62504546379E+02  0.45235588257E+03  0.45761808162E+03  0.00000000000E+00 0. -1.
<scales pt_clust_3="125.25932" pt_clust_4="14000.00000" pt_clust_5="35.79508" pt_clust_6="34.88090"></scales>
<clustering>
<clus scale="   35.795">  1  5  2 -1</clus>
<clus scale="   34.881">  1  6  2 -1</clus>
<clus scale="  125.259">  2  3  1 -1</clus>
<clus scale="  125.259">  2  3  1 -1</clus>
</clustering>
</event>
<event>
 6    0  0.1230761E+002  0.1016805E+03  0.7546771E-02  0.1276801E+00
         21   -1    0    0  503  502  0.00000000000E+00  0.00000000000E+00  0.19166744172E+02  0.19166744172E+02  0.00000000000E+00 0.  1.
          2   -1    0    0  504    0 -0.00000000000E+00 -0.00000000000E+00 -0.23135539893E+04  0.23135539893E+04  0.00000000000E+00 0.  1.
         21    1    1    2  503  505 -0.13987370099E+02 -0.28553610498E+02 -0.59446752668E+02  0.67415662850E+02  0.00000000000E+00 0.  1.
         21    1    1    2  504  502 -0.79764638456E+01  0.41372322622E+02 -0.42847544720E+03  0.43054210237E+03  0.00000000000E+00 0. -1.
         21    1    1    2  505  501 -0.89039300267E+02  0.24166834675E+02 -0.16427380038E+03  0.18840890208E+03  0.00000000000E+00 0.  1.
          2    1    1    2  501    0  0.11100313421E+03 -0.36985546799E+02 -0.16421912449E+04  0.16463540662E+04  0.00000000000E+00 0.  1.
<scales pt_clust_3="31.79552" pt_clust_4="40.42719" pt_clust_5="101.68046" pt_clust_6="14000.00000"></scales>
<clustering>
<clus scale="   31.796">  1  3  2 -1</clus>
<clus scale="   40.427">  2  4  1 -1</clus>
<clus scale="  101.680">  1  5  2 -1</clus>
<clus scale="   31.796">  1  3  2 -1</clus>
</clustering>
</event>
<event>
 6    0  0.1230761E+002  0.1567806E+03  0.7546771E-02  0.1192380E+00
         21   -1    0    0  503  502  0.00000000000E+00  0.00000000000E+00  0.50232906454E+03  0.50232906454E+03  0.00000000000E+00 0.  1.
          1   -1    0    0  504    0 -0.00000000000E+00 -0.00000000000E+00 -0.37110156029E+03  0.37110156029E+03  0.00000000000E+00 0. -1.
         21    1    1    2  503  505  0.53642093112E+02 -0.44396599050E+02  0.31307771671E+03  0.32072759292E+03  0.00000000000E+00 0.  1.
         21    1    1    2  504  502  0.85420637082E+01  0.61575859452E+02 -0.17122635233E+01  0.62189108098E+02  0.00000000000E+00 0.  1.
         21    1    1    2  505  501  0.66761114913E+02 -0.32735039176E+02  0.13251885157E+03  0.15195352999E+03  0.00000000000E+00 0.  1.
          1    1    1    2  501    0 -0.12894527173E+03  0.15555778775E+02 -0.31265680051E+03  0.33856039382E+03  0.00000000000E+00 0. -1.
<scales pt_clust_3="64.43654" pt_clust_4="62.16553" pt_clust_5="64.43654" pt_clust_6="141.96911"></scales>
<clustering>
<clus scale="   62.166">  2  4  1 -1</clus>
<clus scale="   64.437">  3  5 -1 -1</clus>
<clus scale="  141.969">  2  6  1 -1</clus>
<clus scale="  156.781">  1  3  2 -1</clus>
</clustering>
</event>
<event>
 6    0  0.1230761E+002  0.3200594E+03  0.7546771E-02  0.1075622E+00
          2   -1    0    0  505    0 -0.00000000000E+00  0.00000000000E+00  0.17939914446E+04  0.17939914446E+04  0.00000000000E+00 0.  1.
         21   -1    0    0  503  502  0.00000000000E+00 -0.00000000000E+00 -0.34600651232E+03  0.34600651232E+03  0.00000000000E+00 0.  1.
         21    1    1    2  503  504 -0.14125118127E+03 -0.70067528325E+02 -0.97944194784E+02  0.18561901849E+03  0.00000000000E+00 0.  1.
         21    1    1    2  504  501 -0.15592285106E+03 -0.22717957904E+02 -0.86950591532E+02  0.17996790398E+03  0.00000000000E+00 0.  1.
         21    1    1    2  505  502 -0.34897985609E+02  0.25353482867E+02  0.12955877695E+04  0.12963056495E+04  0.00000000000E+00 0. -1.
          2    1    1    2  501    0  0.33207201794E+03  0.67432003362E+02  0.33729194914E+03  0.47810538496E+03  0.00000000000E+00 0.  1.
<scales pt_clust_3="50.30098" pt_clust_4="50.30098" pt_clust_5="43.13547" pt_clust_6="316.05673"></scales>
<clustering>
<clus scale="   43.135">  1  5  2 -1</clus>
<clus scale="   50.301">  3  4 -1 -1</clus>
<clus scale="  316.057">  1  6  2 -1</clus>
<clus scale="  320.059">  2  3  1 -1</clus>
</clustering>
</event>
<event>
 6    0  0.1230761E+002  0.1293543E+03  0.7546771E-02  0.1228417E+00
         21   -1    0    0  504  502  0.00000000000E+00  0.00000000000E+00  0.26126403624E+03  0.26126403624E+03  0.00000000000E+00 0. -1.
          2   -1    0    0  503    0 -0.00000000000E+00 -0.00000000000E+00 -0.11657639904E+03  0.11657639904E+03  0.00000000000E+00 0.  1.
         21    1    1    2  503  505  0.20893996138E+02  0.28131930261E+02 -0.27516175008E+02  0.44554511129E+02  0.00000000000E+00 0. -1.
         21    1    1    2  504  501  0.22036679966E+02 -0.70344164131E+02  0.32040883357E+02  0.80377452669E+02  0.00000000000E+00 0. -1.
         21    1    1    2  505  502 -0.78754522551E+02  0.86539180385E+02  0.15481761884E+03  0.19406132965E+03  0.00000000000E+00 0. -1.
          2    1    1    2  501    0  0.35823846447E+02 -0.44326946516E+02 -0.14654689987E+02  0.58847141820E+02  0.00000000000E+00 0.  1.
<scales pt_clust_3="35.04233" pt_clust_4="45.78327" pt_clust_5="118.94805" pt_clust_6="45.78327"></scales>
<clustering>
<clus scale="   35.042">  2  3  1 -1</clus>
<clus scale="   45.783">  4  6 -1 -1</clus>
<clus scale="  118.948">  1  5  2 -1</clus>
<clus scale="  118.948">  1  3  2 -1</clus>
</clustering>
</event>
<event>
 6    0  0.1230761E+002  0.1022914E+03  0.7546771E-02  0.1275550E+00
         -4   -1    0    0    0  501 -0.00000000000E+00  0.00000000000E+00  0.40316265026E+03  0.40316265026E+03  0.00000000000E+00 0. -1.
         21   -1    0    0  503  502  0.00000000000E+00 -0.00000000000E+00 -0.17018276478E+03  0.17018276478E+03  0.00000000000E+00 0. -1.
         21    1    1    2  503  505 -0.19886343779E+02  0.24943422233E+02 -0.24735953913E+02  0.40367169799E+02  0.00000000000E+00 0. -1.
         21    1    1    2  504  502 -0.81058997857E+02 -0.10905177746E+02 -0.88284292999E+02  0.12034783100E+03  0.00000000000E+00 0. -1.
         21    1    1    2  505  501 -0.59616935198E+02  0.52969869165E+01  0.64568261872E+02  0.88041453157E+02  0.00000000000E+00 0. -1.
         -4    1    1    2    0  504  0.16056227683E+03 -0.19335231404E+02  0.28143187052E+03  0.32458896109E+03  0.00000000000E+00 0. -1.
<scales pt_clust_3="31.90049" pt_clust_4="14000.00000" pt_clust_5="61.76059" pt_clust_6="102.29137"></scales>
<clustering>
<clus scale="   31.900">  2  3  1 -1</clus>
<clus scale="   61.761">  1  5  2 -1</clus>
<clus scale="  102.291">  1  6  2 -1</clus>
<clus scale="   31.900">  2  3  1 -1</clus>
</clustering>
</event>
<event>
 6    0  0.1230761E+002  0.7410381E+02  0.7546771E-02  0.1346669E+00
         21   -1    0    0  503  502  0.00000000000E+00  0.00000000000E+00  0.89717321205E+03  0.89717321205E+03  0.00000000000E+00 0. -1.
         -1   -1    0    0    0  501 -0.00000000000E+00 -0.00000000000E+00 -0.21526576110E+03  0.21526576110E+03  0.00000000000E+00 0. -1.
         21    1    1    2  503  504 -0.63495194898E+02 -0.38510791797E+02  0.82394087567E+03  0.82728065822E+03  0.00000000000E+00 0. -1.
         21    1    1    2  504  501 -0.20099846084E+02  0.40461103675E+02  0.31840627499E+02  0.55271423744E+02  0.00000000000E+00 0. -1.
         21    1    1    2  505  502  0.94928835725E+02 -0.33022259200E+02 -0.74374075422E+02  0.12503382162E+03  0.00000000000E+00 0. -1.
         -1    1    1    2    0  505 -0.11333794742E+02  0.31071947322E+02 -0.99499976799E+02  0.10485306956E+03  0.00000000000E+00 0. -1.
<scales pt_clust_3="14000.00000" pt_clust_4="48.58520" pt_clust_5="74.10381" pt_clust_6="33.07447"></scales>
<clustering>
<clus scale="   33.074">  2  6  1 -1</clus>
<clus scale="   48.585">  2  4  1 -1</clus>
<clus scale="   74.104">  2  5  1 -1</clus>
<clus scale="   74.104">  1  3  2 -1</clus>
</clustering>
</event>
<event>
 6    0  0.1230761E+002  0.1908298E+03  0.7546771E-02  0.1157715E+00
         21   -1    0    0  504  502  0.00000000000E+00  0.00000000000E+00  0.30300130244E+04  0.30300130244E+04  0.00000000000E+00 0. -1.
          1   -1    0    0  503    0 -0.00000000000E+00 -0.00000000000E+00 -0.10214761236E+04  0.10214761236E+04  0.00000000000E+00 0. -1.
         21    1    1    2  503  502 -0.93437885818E+02  0.18755788870E+02  0.26047963372E+04  0.26065391569E+04  0.00000000000E+00 0. -1.
         21    1    1    2  504  505 -0.26734556273E+02  0.18228378210E+02  0.23916443281E+03  0.24134339890E+03  0.00000000000E+00 0. -1.
         21    1    1    2  505  501  0.11901566238E+03  0.15571041948E+03  0.11942635244E+03  0.22950624454E+03  0.00000000000E+00 0. -1.
          1    1    1    2  501    0  0.11567797138E+01 -0.19269458656E+03 -0.95485022153E+03  0.97410034770E+03  0.00000000000E+00 0. -1.
<scales pt_clust_3="123.69649" pt_clust_4="32.35754" pt_clust_5="190.82977" pt_clust_6="14000.00000"></scales>
<clustering>
<clus scale="   32.358">  1  4  2 -1</clus>
<clus scale="  123.696">  1  3  2 -1</clus>
<clus scale="  190.830">  1  5  2 -1</clus>
<clus scale="   32.358">  1  3  2 -1</clus>
</clustering>
</event>
<event>
 6    0  0.1230761E+002  0.8411504E+02  0.7546771E-02  0.1317763E+00
          2   -1    0    0  503    0 -0.00000000000E+00  0.00000000000E+00  0.69118922425E+03  0.69118922425E+03  0.00000000000E+00 0.  1.
         21   -1    0    0  504  502  0.00000000000E+00 -0.00000000000E+00 -0.12096542578E+03  0.12096542578E+03  0.00000000000E+00 0.  1.
         21    1    1    2  503  505  0.15257364611E+01  0.33584837182E+02  0.58436358482E+02  0.67417187370E+02  0.00000000000E+00 0.  1.
         21    1    1    2  504  501 -0.37690199645E+02 -0.73979375520E+02 -0.12641792013E+01  0.83036722603E+02  0.00000000000E+00 0.  1.
         21    1    1    2  505  502 -0.50089216628E+02  0.67500393304E+02 -0.45704366433E+02  0.95677175072E+02  0.00000000000E+00 0.  1.
          2    1    1    2  501    0  0.86253679812E+02 -0.27105854966E+02  0.55875598562E+03  0.56602356498E+03  0.00000000000E+00 0.  1.
<scales pt_clust_3="33.61948" pt_clust_4="81.03960" pt_clust_5="84.11504" pt_clust_6="14000.00000"></scales>
<clustering>
<clus scale="   33.619">  1  3  2 -1</clus>
<clus scale="   81.040">  2  4  1 -1</clus>
<clus scale="   84.115">  2  5  1 -1</clus>
<clus scale="   81.040">  2  3  1 -1</clus>
</clustering>
</event>
<event>
 6    0  0.1230761E+002  0.1172354E+03  0.7546771E-02  0.1247729E+00
         21   -1    0    0  505  502  0.00000000000E+00  0.00000000000E+00  0.82655313131E+02  0.82655313131E+02  0.00000000000E+00 0.  1.
         -4   -1    0    0    0  501 -0.00000000000E+00 -0.00000000000E+00 -0.70060965566E+03  0.70060965566E+03  0.00000000000E+00 0.  1.
         21    1    1    2  503  502  0.10563898460E+03 -0.30199309052E+02 -0.15521264425E+02  0.11096171855E+03  0.00000000000E+00 0.  1.
         21    1    1    2  504  501  0.43789193103E+02 -0.19091092812E+02 -0.82022014068E+02  0.94918776062E+02  0.00000000000E+00 0.  1.
         21    1    1    2  505  504 -0.27212204329E+02 -0.50107496236E+02 -0.34660912542E+02  0.66728135758E+02  0.00000000000E+00 0. -1.
         -4    1    1    2    0  503 -0.12221597337E+03  0.99397898100E+02 -0.48575015149E+03  0.51065633842E+03  0.00000000000E+00 0.  1.
<scales pt_clust_3="117.23543" pt_clust_4="47.76990" pt_clust_5="56.81544" pt_clust_6="14000.00000"></scales>
<clustering>
<clus scale="   47.770">  2  4  1 -1</clus>
<clus scale="   56.815">  1  5  2 -1</clus>
<clus scale="  117.235">  1  3  2 -1</clus>
<clus scale="   56.815">  1  3  2 -1</clus>
</clustering>
</event>
<event>
 6    0  0.1230761E+002  0.1438946E+03  0.7546771E-02  0.1208183E+00
          2   -1    0    0  505    0 -0.00000000000E+00  0.00000000000E+00  0.10979370002E+04  0.10979370002E+04  0.00000000000E+00 0. -1.
         21   -1    0    0  503  502  0.00000000000E+00 -0.00000000000E+00 -0.79904038904E+02  0.79904038904E+02  0.00000000000E+00 0.  1.
         21    1    1    2  503  504  0.89209803507E-01  0.53869625362E+02 -0.27702440429E+02  0.60575322540E+02  0.00000000000E+00 0.  1.
         21    1    1    2  504  501  0.13533037898E+03  0.61202311661E+02  0.25244110295E+03  0.29289340191E+03  0.00000000000E+00 0. -1.
         21    1    1    2  505  502 -0.45433704609E+02  0.92393525853E+00  0.53696181909E+02  0.70344545791E+02  0.00000000000E+00 0. -1.
          2    1    1    2  501    0 -0.89985884171E+02 -0.11599587228E+03  0.73959811682E+03  0.75402776881E+03  0.00000000000E+00 0. -1.
<scales pt_clust_3="61.18463" pt_clust_4="143.89456" pt_clust_5="45.44310" pt_clust_6="14000.00000"></scales>
<clustering>
<clus scale="   45.443">  2  5  1 -1</clus>
<clus scale="   61.185">  2  3  1 -1</clus>
<clus scale="  143.895">  2  4  1 -1</clus>
<clus scale="   45.443">  2  3  1 -1</clus>
</clustering>
</event>
<event>
 6    0  0.1230761E+002  0.1306252E+03  0.7546771E-02  0.1226531E+00
         21   -1    0    0  505  502  0.00000000000E+00  0.00000000000E+00  0.81737362454E+02  0.81737362454E+02  0.00000000000E+00 0. -1.
          2   -1    0    0  504    0 -0.00000000000E+00 -0.00000000000E+00 -0.32833597222E+04  0.32833597222E+04  0.00000000000E+00 0. -1.
         21    1    1    2  503  501 -0.91459569799E+02 -0.14989915435E+02 -0.31065113317E+03  0.32418154947E+03  0.00000000000E+00 0. -1.
         21    1    1    2  504  502  0.20958673075E+02  0.84000077227E+02  0.28561987618E+02  0.91165048609E+02  0.00000000000E+00 0. -1.
         21    1    1    2  505  503  0.15931206649E+02  0.51410789034E+02 -0.39690318374E+02  0.66874464087E+02  0.00000000000E+00 0. -1.
          2    1    1    2  501    0  0.54569690076E+02 -0.12042095083E+03 -0.28798428958E+04  0.28828760225E+04  0.00000000000E+00 0. -1.
<scales pt_clust_3="90.42005" pt_clust_4="130.62523" pt_clust_5="53.82260" pt_clust_6="14000.00000"></scales>
<clustering>
<clus scale="   53.823">  1  5  2 -1</clus>
<clus scale="   90.420">  1  3  2 -1</clus>
<clus scale="  130.625">  1  4  2 -1</clus>
<clus scale="   53.823">  1  3  2 -1</clus>
</clustering>
</event>
<event>
 6    0  0.1230761E+002  0.1426365E+03  0.7546771E-02  0.1209825E+00
          1   -1    0    0  505    0 -0.00000000000E+00  0.00000000000E+00  0.13216027256E+04  0.13216027256E+04  0.00000000000E+00 0. -1.
         21   -1    0    0  504  502  0.00000000000E+00 -0.00000000000E+00 -0.58668958617E+03  0.58668958617E+03  0.00000000000E+00 0. -1.
         21    1    1    2  503  502  0.33560573674E+02 -0.99762643351E+01 -0.30127828177E+02  0.46190085366E+02  0.00000000000E+00 0. -1.
         21    1    1    2  504  501  0.45168460635E+02  0.12860774642E+03 -0.53224238348E+03  0.54941978217E+03  0.00000000000E+00 0. -1.
         21    1    1    2  505  503  0.30652177498E+02  0.78695892453E+01  0.27437681287E+03  0.27619580348E+03  0.00000000000E+00 0.  1.
          1    1    1    2  501    0 -0.10938121181E+03 -0.12650107133E+03  0.10229065382E+04  0.10364866407E+04  0.00000000000E+00 0. -1.
<scales pt_clust_3="35.22050" pt_clust_4="14000.00000" pt_clust_5="31.64627" pt_clust_6="142.63647"></scales>
<clustering>
<clus scale="   31.646">  1  5  2 -1</clus>
<clus scale="   35.221">  2  3  1 -1</clus>
<clus scale="  142.636">  1  6  2 -1</clus>
<clus scale="   35.221">  2  3  1 -1</clus>
</clustering>
</event>
<event>
 6    0  0.1230761E+002  0.1435450E+03  0.7546771E-02  0.1208637E+00
         21   -1    0    0  503  502  0.00000000000E+00  0.00000000000E+00  0.72286245229E+02  0.72286245229E+02  0.00000000000E+00 0.  1.
          2   -1    0    0  504    0 -0.00000000000E+00 -0.00000000000E+00 -0.60665739742E+03  0.60665739742E+03  0.00000000000E+00 0.  1.
         21    1    1    2  503  501  0.85382118540E+02  0.88340296855E+02 -0.24697133384E+03  0.27584226281E+03  0.00000000000E+00 0.  1.
         21    1    1    2  504  505 -0.32783062151E+02  0.94942592427E+01 -0.18583035091E+02  0.38861282992E+02  0.00000000000E+00 0.  1.
         21    1    1    2  505  502 -0.85725594853E+02 -0.71898162389E+02 -0.22207193144E+02  0.11406744845E+03  0.00000000000E+00 0.  1.
          2    1    1    2  501    0  0.33126538464E+02 -0.25936393709E+02 -0.24660959012E+03  0.25017264840E+03  0.00000000000E+00 0.  1.
<scales pt_clust_3="129.69337" pt_clust_4="33.97860" pt_clust_5="33.97860" pt_clust_6="42.07213"></scales>
<clustering>
<clus scale="   33.979">  4  5 -1 -1</clus>
<clus scale="   42.072">  2  6  1 -1</clus>
<clus scale="  129.693">  2  3  1 -1</clus>
<clus scale="  143.545">  1  3  2 -1</clus>
</clustering>
</event>
<event>
 6    0  0.1230761E+002  0.8513300E+02  0.7546771E-02  0.1315085E+00
         21   -1    0    0  503  502  0.00000000000E+00  0.00000000000E+00  0.29536564345E+03  0.29536564345E+03  0.00000000000E+00 0.  1.
          1   -1    0    0  504    0 -0.00000000000E+00 -0.00000000000E+00 -0.25779644481E+04  0.25779644481E+04  0.00000000000E+00 0. -1.
         21    1    1    2  503  501 -0.28442252249E+02 -0.82966246094E+02  0.27251815759E+02  0.91842371300E+02  0.00000000000E+00 0. -1.
         21    1    1    2  504  505  0.11619521847E+03 -0.78154102439E+01 -0.89333036884E+03  0.90088931469E+03  0.00000000000E+00 0. -1.
         21    1    1    2  505  502 -0.33440370987E+02  0.27172741689E+02  0.22896733687E+03  0.23298638942E+03  0.00000000000E+00 0.  1.
          1    1    1    2  501    0 -0.54312595233E+02  0.63608914649E+02 -0.16454875884E+04  0.16476120161E+04  0.00000000000E+00 0. -1.
<scales pt_clust_3="82.88341" pt_clust_4="85.13300" pt_clust_5="43.08847" pt_clust_6="14000.00000"></scales>
<clustering>
<clus scale="   43.088">  1  5  2 -1</clus>
<clus scale="   82.883">  1  3  2 -1</clus>
<clus scale="   85.133">  1  4  2 -1</clus>
<clus scale="   43.088">  1  3  2 -1</clus>
</clustering>
</event>
<event>
 6    0  0.1230761E+002  0.6470100E+02  0.7546771E-02  0.1379100E+00
         -1   -1    0    0    0  501 -0.00000000000E+00  0.00000000000E+00  0.99753138604E+03  0.99753138604E+03  0.00000000000E+00 0. -1.
         21   -1    0    0  503  502  0.00000000000E+00 -0.00000000000E+00 -0.26147604139E+03  0.26147604139E+03  0.00000000000E+00 0. -1.
         21    1    1    2  503  504  0.30641252231E+02  0.54897409717E+02 -0.21863343799E+03  0.22749327933E+03  0.00000000000E+00 0. -1.
         21    1    1    2  504  501 -0.41725250412E+02  0.36861402087E+02  0.86555929050E+02  0.10291592850E+03  0.00000000000E+00 0.  1.
         21    1    1    2  505  502 -0.45041292637E+02 -0.89687669723E+02  0.56793692422E+02  0.11531747327E+03  0.00000000000E+00 0.  1.
         -1    1    1    2    0  505  0.56125290817E+02 -0.20711420814E+01  0.81133916117E+03  0.81328074633E+03  0.00000000000E+00 0. -1.
<scales pt_clust_3="14000.00000" pt_clust_4="55.67548" pt_clust_5="64.70100" pt_clust_6="36.22481"></scales>
<clustering>
<clus scale="   55.675">  1  4  2 -1</clus>
<clus scale="   36.225">  1  6  2 -1</clus>
<clus scale="   64.701">  1  5  2 -1</clus>
<clus scale="   64.701">  2  3  1 -1</clus>
</clustering>
</event>
<event>
 6    0  0.1230761E+002  0.8988567E+02  0.7546771E-02  0.1303129E+00
          1   -1    0    0  504    0 -0.00000000000E+00  0.00000000000E+00  0.45147308173E+03  0.45147308173E+03  0.00000000000E+00 0.  1.
         21   -1    0    0  505  502  0.00000000000E+00 -0.00000000000E+00 -0.17252622590E+03  0.17252622590E+03  0.00000000000E+00 0. -1.
         21    1    1    2  503  502  0.24341147308E+02 -0.97337155581E+02 -0.11260884628E+03  0.15082362404E+03  0.00000000000E+00 0. -1.
         21    1    1    2  504  503  0.64580456767E+01 -0.32918803453E+02  0.24418750939E+02  0.41492521883E+02  0.00000000000E+00 0.  1.
         21    1    1    2  505  501 -0.45028673923E+02  0.54652385211E+02  0.16505152996E+02  0.72710967261E+02  0.00000000000E+00 0. -1.
          1    1    1    2  501    0  0.14229480938E+02  0.75603573823E+02  0.35063179817E+03  0.35897219445E+03  0.00000000000E+00 0.  1.
<scales pt_clust_3="14000.00000" pt_clust_4="33.54630" pt_clust_5="89.88567" pt_clust_6="51.60624"></scales>
<clustering>
<clus scale="   33.546">  1  4  2 -1</clus>
<clus scale="   51.606">  1  6  2 -1</clus>
<clus scale="   89.886">  1  5  2 -1</clus>
<clus scale="   89.886">  2  3  1 -1</clus>
</clustering>
</event>
<event>
 6    0  0.1230761E+002  0.6919935E+02  0.7546771E-02  0.1362837E+00
          1   -1    0    0  504    0 -0.00000000000E+00  0.00000000000E+00  0.66413971816E+03  0.66413971816E+03  0.00000000000E+00 0.  1.
         21   -1    0    0  505  502  0.00000000000E+00 -0.00000000000E+00 -0.65668235714E+02  0.65668235714E+02  0.00000000000E+00 0.  1.
         21    1    1    2  503  502 -0.72782984865E+02  0.36130629013E+02  0.54347599859E+02  0.97757080813E+02  0.00000000000E+00 0.  1.
         21    1    1    2  504  503 -0.18482914691E+02 -0.36077880631E+02  0.14844648270E+03  0.15388173976E+03  0.00000000000E+00 0.  1.
         21    1    1    2  505  501  0.22393390102E+02 -0.67540796889E+02  0.25231289219E+00  0.71156776391E+02  0.00000000000E+00 0.  1.
          1    1    1    2  501    0  0.68872509454E+02  0.67488048507E+02  0.39542508699E+03  0.40701235691E+03  0.00000000000E+00 0.  1.
<scales pt_clust_3="69.19935" pt_clust_4="40.53679" pt_clust_5="14000.00000" pt_clust_6="67.10643"></scales>
<clustering>
<clus scale="   40.537">  1  4  2 -1</clus>
<clus scale="   67.106">  1  6  2 -1</clus>
<clus scale="   69.199">  1  3  2 -1</clus>
<clus scale="   69.199">  2  3  1 -1</clus>
</clustering>
</event>
<event>
 6    0  0.1230761E+002  0.1282641E+03  0.7546771E-02  0.1230055E+00
          2   -1    0    0  504    0 -0.00000000000E+00  0.00000000000E+00  0.20693455093E+04  0.20693455093E+04  0.00000000000E+00 0. -1.
         21   -1    0    0  503  502  0.00000000000E+00 -0.00000000000E+00 -0.96694921527E+03  0.96694921527E+03  0.00000000000E+00 0.  1.
         21    1    1    2  503  501  0.10697874857E+02 -0.76105991400E+02 -0.78179524819E+01  0.77250804750E+02  0.00000000000E+00 0. -1.
         21    1    1    2  504  505  0.70158653467E+02  0.11559586492E+03  0.16445290209E+03  0.21290701644E+03  0.00000000000E+00 0. -1.
         21    1    1    2  505  502 -0.12784891514E+02  0.68473608067E+02 -0.89662916631E+03  0.89933083475E+03  0.00000000000E+00 0.  1.
          2    1    1    2  501    0 -0.68071636810E+02 -0.10796348159E+03  0.18423905108E+04  0.18468060687E+04  0.00000000000E+00 0. -1.
<scales pt_clust_3="33.99387" pt_clust_4="128.26406" pt_clust_5="69.65693" pt_clust_6="14000.00000"></scales>
<clustering>
<clus scale="   69.657">  2  5  1 -1</clus>
<clus scale="   33.994">  2  3  1 -1</clus>
<clus scale="  128.264">  2  4  1 -1</clus>
<clus scale="   69.657">  2  3  1 -1</clus>
</clustering>
</event>
<event>
 6    0  0.1230761E+002  0.9549588E+02  0.7546771E-02  0.1290063E+00
          2   -1    0    0  503    0 -0.00000000000E+00  0.00000000000E+00  0.19022212712E+04  0.19022212712E+04  0.00000000000E+00 0. -1.
         21   -1    0    0  504  502  0.00000000000E+00 -0.00000000000E+00 -0.48950204070E+03  0.48950204070E+03  0.00000000000E+00 0. -1.
         21    1    1    2  503  505  0.54669068346E+02  0.72092931426E+02  0.15763449504E+03  0.18175459230E+03  0.00000000000E+00 0. -1.
         21    1    1    2  504  501  0.15335821540E+01  0.32284192135E+02 -0.57705057171E+02  0.66139961892E+02  0.00000000000E+00 0. -1.
         21    1    1    2  505  502 -0.67630618060E+02  0.37599905910E+02 -0.40895044888E+03  0.41620682726E+03  0.00000000000E+00 0. -1.
          2    1    1    2  501    0  0.11427967560E+02 -0.14197702947E+03  0.17217402415E+04  0.17276219304E+04  0.00000000000E+00 0. -1.
<scales pt_clust_3="91.23022" pt_clust_4="32.32060" pt_clust_5="14000.00000" pt_clust_6="95.49588"></scales>
<clustering>
<clus scale="   32.321">  2  4  1 -1</clus>
<clus scale="   91.230">  1  3  2 -1</clus>
<clus scale="   95.496">  1  6  2 -1</clus>
<clus scale="   32.321">  2  3  1 -1</clus>
</clustering>
</event>
<event>
 6    0  0.1230761E+002  0.9003673E+02  0.7546771E-02  0.1302763E+00
         21   -1    0    0  505  502  0.00000000000E+00  0.00000000000E+00  0.38445135591E+02  0.38445135591E+02  0.00000000000E+00 0. -1.
          2   -1    0    0  503    0 -0.00000000000E+00 -0.00000000000E+00 -0.16404506141E+04  0.16404506141E+04  0.00000000000E+00 0.  1.
         21    1    1    2  503  502  0.17792991411E+02 -0.82972552300E+02 -0.12968292066E+03  0.15497965960E+03  0.00000000000E+00 0. -1.
         21    1    1    2  504  501  0.15281436989E+01  0.89779426828E+02 -0.48416110128E+03  0.49241715314E+03  0.00000000000E+00 0.  1.
         21    1    1    2  505  504  0.45626881896E+02  0.16339636536E+01 -0.47428305839E+01  0.45901815113E+02  0.00000000000E+00 0. -1.
          2    1    1    2  501    0 -0.64948017005E+02 -0.84408381815E+01 -0.98341862597E+03  0.98559712183E+03  0.00000000000E+00 0.  1.
<scales pt_clust_3="14000.00000" pt_clust_4="90.03673" pt_clust_5="45.65613" pt_clust_6="62.72330"></scales>
<clustering>
<clus scale="   45.656">  1  5  2 -1</clus>
<clus scale="   62.723">  2  6  1 -1</clus>
<clus scale="   90.037">  2  4  1 -1</clus>
<clus scale="   45.656">  1  3  2 -1</clus>
</clustering>
</event>
<event>
 6    0  0.1230761E+002  0.1307449E+03  0.7546771E-02  0.1226355E+00
         -2   -1    0    0    0  501 -0.00000000000E+00  0.00000000000E+00  0.86587855243E+02  0.86587855243E+02  0.00000000000E+00 0.  1.
         21   -1    0    0  503  502  0.00000000000E+00 -0.00000000000E+00 -0.45182528405E+03  0.45182528405E+03  0.00000000000E+00 0.  1.
         21    1    1    2  503  504  0.26957572724E+02 -0.29493257608E+02 -0.14329051896E+03  0.14875730501E+03  0.00000000000E+00 0.  1.
         21    1    1    2  504  501  0.92604336793E+02 -0.51132889213E+02 -0.18447791652E+03  0.21265520740E+03  0.00000000000E+00 0.  1.
         21    1    1    2  505  502 -0.39593729930E+02  0.80255939343E+02 -0.37502651973E+02  0.97031583284E+02  0.00000000000E+00 0.  1.
         -2    1    1    2    0  505 -0.79968179587E+02  0.37020747789E+00  0.33658646055E-01  0.79969043591E+02  0.00000000000E+00 0.  1.
<scales pt_clust_3="30.05373" pt_clust_4="30.05373" pt_clust_5="121.25588" pt_clust_6="79.96904"></scales>
<clustering>
<clus scale="   30.054">  3  4 -1 -1</clus>
<clus scale="   79.969">  1  6  2 -1</clus>
<clus scale="  121.256">  1  5  2 -1</clus>
<clus scale="  130.745">  2  3  1 -1</clus>
</clustering>
</event>
<event>
 6    0  0.1534512E+002  0.1374891E+03  0.7546771E-02  0.1216748E+00
         21   -1    0    0  504  502  0.00000000000E+00  0.00000000000E+00  0.17993684747E+04  0.17993684747E+04  0.00000000000E+00 0.  1.
         -1   -1    0    0    0  501 -0.00000000000E+00 -0.00000000000E+00 -0.29572578284E+03  0.29572578284E+03  0.00000000000E+00 0. -1.
         21    1    1    2  503  502  0.23862929407E+01  0.31015392557E+02  0.54348780419E+02  0.62621393329E+02  0.00000000000E+00 0.  1.
         21    1    1    2  504  505  0.12178932749E+03 -0.89591956537E+02  0.16888310467E+04  0.16955853453E+04  0.00000000000E+00 0.  1.
         21    1    1    2  505  501 -0.21550283403E+02 -0.33722421649E+02  0.18626635633E+02  0.44142587051E+02  0.00000000000E+00 0.  1.
         -1    1    1    2    0  503 -0.10262533702E+03  0.92298985628E+02 -0.25816377087E+03  0.29274493187E+03  0.00000000000E+00 0. -1.
<scales pt_clust_3="31.10706" pt_clust_4="137.48914" pt_clust_5="39.52677" pt_clust_6="14000.00000"></scales>
<clustering>
<clus scale="   31.107">  1  3  2 -1</clus>
<clus scale="   39.527">  2  5  1 -1</clus>
<clus scale="  137.489">  1  4  2 -1</clus>
<clus scale="   31.107">  1  3  2 -1</clus>
</clustering>
</event>
<event>
 6    0  0.1230761E+002  0.1842630E+03  0.7546771E-02  0.1163740E+00
          2   -1    0    0  505    0 -0.00000000000E+00  0.00000000000E+00  0.30563052885E+03  0.30563052885E+03  0.00000000000E+00 0. -1.
         21   -1    0    0  503  502  0.00000000000E+00 -0.00000000000E+00 -0.12027209992E+04  0.12027209992E+04  0.00000000000E+00 0. -1.
         21    1    1    2  503  504  0.60438477617E+02  0.32328466753E+02 -0.54068651794E+03  0.54501362371E+03  0.00000000000E+00 0. -1.
         21    1    1    2  504  501  0.51456839036E+02  0.98959567062E+02 -0.58764579522E+03  0.59813742805E+03  0.00000000000E+00 0. -1.
         21    1    1    2  505  502 -0.19065506194E+02  0.56515242312E+02  0.99385895656E+01  0.60466864501E+02  0.00000000000E+00 0. -1.
          2    1    1    2  501    0 -0.92829810459E+02 -0.18780327613E+03  0.22130325327E+03  0.30473361177E+03  0.00000000000E+00 0. -1.
<scales pt_clust_3="48.97639" pt_clust_4="48.97639" pt_clust_5="59.64450" pt_clust_6="173.34781"></scales>
<clustering>
<clus scale="   48.976">  3  4 -1 -1</clus>
<clus scale="   59.644">  1  5  2 -1</clus>
<clus scale="  173.348">  1  6  2 -1</clus>
<clus scale="  184.263">  2  3  1 -1</clus>
</clustering>
</event>
<event>
 6    0  0.1230761E+002  0.8087688E+02  0.7546771E-02  0.1326581E+00
         21   -1    0    0  503  502  0.00000000000E+00  0.00000000000E+00  0.16489913719E+03  0.16489913719E+03  0.00000000000E+00 0.  1.
          3   -1    0    0  504    0 -0.00000000000E+00 -0.00000000000E+00 -0.41173184115E+03  0.41173184115E+03  0.00000000000E+00 0. -1.
         21    1    1    2  503  501 -0.38473361596E+02  0.15302464247E+02 -0.13825564182E+02  0.43652161338E+02  0.00000000000E+00 0. -1.
         21    1    1    2  504  505  0.28332935704E+02  0.51230501555E+02 -0.18941022827E+03  0.19825123987E+03  0.00000000000E+00 0.  1.
         21    1    1    2  505  502 -0.66142897304E+00  0.53795453241E+02  0.11991201746E+03  0.13142785173E+03  0.00000000000E+00 0.  1.
          3    1    1    2  501    0  0.10801854865E+02 -0.12032841904E+03 -0.16350892897E+03  0.20329972541E+03  0.00000000000E+00 0. -1.
<scales pt_clust_3="41.40489" pt_clust_4="58.40175" pt_clust_5="14000.00000" pt_clust_6="80.87688"></scales>
<clustering>
<clus scale="   41.405">  1  3  2 -1</clus>
<clus scale="   58.402">  2  4  1 -1</clus>
<clus scale="   80.877">  2  6  1 -1</clus>
<clus scale="   41.405">  1  3  2 -1</clus>
</clustering>
</event>
<event>
 6    0  0.1230761E+002  0.9964453E+02  0.7546771E-02  0.1281045E+00
         21   -1    0    0  501  502  0.00000000000E+00  0.00000000000E+00  0.75395437614E+03  0.75395437614E+03  0.00000000000E+00 0. -1.
          2   -1    0    0  504    0 -0.00000000000E+00 -0.00000000000E+00 -0.11672011467E+03  0.11672011467E+03  0.00000000000E+00 0. -1.
         21    1    1    2  503  505 -0.70208923055E+02 -0.12214112138E+02  0.22673525625E+03  0.23767068359E+03  0.00000000000E+00 0. -1.
         21    1    1    2  504  503 -0.33947461568E+02 -0.18585025635E+02 -0.25163499113E+02  0.46163134776E+02  0.00000000000E+00 0. -1.
         21    1    1    2  505  502 -0.31018967070E+02  0.32614541073E+02  0.44876787029E+03  0.45101938541E+03  0.00000000000E+00 0. -1.
          2    1    1    2  501    0  0.13517535169E+03 -0.18154033002E+01 -0.13105365955E+02  0.13582128703E+03  0.00000000000E+00 0. -1.
<scales pt_clust_3="99.64453" pt_clust_4="38.70185" pt_clust_5="45.15071" pt_clust_6="14000.00000"></scales>
<clustering>
<clus scale="   38.702">  2  4  1 -1</clus>
<clus scale="   45.151">  1  5  2 -1</clus>
<clus scale="   99.645">  1  3  2 -1</clus>
<clus scale="   45.151">  1  3  2 -1</clus>
</clustering>
</event>
<event>
 6    0  0.1230761E+002  0.1158527E+03  0.7546771E-02  0.1250100E+00
         21   -1    0    0  501  502  0.00000000000E+00  0.00000000000E+00  0.11030403423E+04  0.11030403423E+04  0.00000000000E+00 0.  1.
          2   -1    0    0  505    0 -0.00000000000E+00 -0.00000000000E+00 -0.53048454521E+03  0.53048454521E+03  0.00000000000E+00 0.  1.
         21    1    1    2  503  504 -0.45861609391E+02  0.55942232232E+02  0.85007228083E+03  0.85314459688E+03  0.00000000000E+00 0.  1.
         21    1    1    2  504  502 -0.40393932944E+02  0.23997337231E+02  0.21407754934E+03  0.21917285221E+03  0.00000000000E+00 0. -1.
         21    1    1    2  505  503  0.40855474031E+02  0.47027541588E+02 -0.12549220057E+02  0.63547166343E+02  0.00000000000E+00 0. -1.
          2    1    1    2  501    0  0.45400068303E+02 -0.12696711105E+03 -0.47904481304E+03  0.49766027207E+03  0.00000000000E+00 0.  1.
<scales pt_clust_3="115.85267" pt_clust_4="46.98449" pt_clust_5="62.06905" pt_clust_6="14000.00000"></scales>
<clustering>
<clus scale="   46.984">  1  4  2 -1</clus>
<clus scale="   62.069">  2  5  1 -1</clus>
<clus scale="  115.853">  1  3  2 -1</clus>
<clus scale="   46.984">  1  3  2 -1</clus>
</clustering>
</event>
<event>
 6    0  0.1230761E+002  0.8678179E+02  0.7546771E-02  0.1310838E+00
          1   -1    0    0  503    0 -0.00000000000E+00  0.00000000000E+00  0.18627029882E+04  0.18627029882E+04  0.00000000000E+00 0.  1.
         21   -1    0    0  505  502  0.00000000000E+00 -0.00000000000E+00 -0.31196922086E+03  0.31196922086E+03  0.00000000000E+00 0.  1.
         21    1    1    2  503  504  0.13102422515E+03 -0.29172438848E+02  0.18070614008E+03  0.22510683647E+03  0.00000000000E+00 0. -1.
         21    1    1    2  504  502 -0.83289587206E+00  0.60515424962E+02 -0.23850554221E+03  0.24606443066E+03  0.00000000000E+00 0.  1.
         21    1    1    2  505  501 -0.56538227213E+02  0.58309495166E+01 -0.29056338732E+02  0.63834488555E+02  0.00000000000E+00 0. -1.
          1    1    1    2  501    0 -0.73653102063E+02 -0.37173935631E+02  0.16375895082E+04  0.16396664534E+04  0.00000000000E+00 0.  1.
<scales pt_clust_3="14000.00000" pt_clust_4="86.78179" pt_clust_5="56.83811" pt_clust_6="82.68983"></scales>
<clustering>
<clus scale="   56.838">  2  5  1 -1</clus>
<clus scale="   82.690">  1  6  2 -1</clus>
<clus scale="   86.782">  2  4  1 -1</clus>
<clus scale="   56.838">  2  3  1 -1</clus>
</clustering>
</event>
<event>
 6    0  0.1230761E+002  0.1052705E+03  0.7546771E-02  0.1269588E+00
         21   -1    0    0  504  502  0.00000000000E+00  0.00000000000E+00  0.44621228953E+03  0.44621228953E+03  0.00000000000E+00 0.  1.
         -2   -1    0    0    0  501 -0.00000000000E+00 -0.00000000000E+00 -0.19193905033E+03  0.19193905033E+03  0.00000000000E+00 0. -1.
         21    1    1    2  503  505 -0.97700327115E+02  0.43448345363E+02  0.22963776626E+03  0.25331130319E+03  0.00000000000E+00 0.  1.
         21    1    1    2  504  501  0.30389731514E+02 -0.26979233780E+02 -0.12185827601E+03  0.12845565098E+03  0.00000000000E+00 0. -1.
         21    1    1    2  505  502  0.14153747757E+02  0.38742219765E+02  0.17101246845E+03  0.17591632253E+03  0.00000000000E+00 0.  1.
         -2    1    1    2    0  503  0.53156847844E+02 -0.55211331348E+02 -0.24518719498E+02  0.80468063154E+02  0.00000000000E+00 0. -1.
<scales pt_clust_3="105.27046" pt_clust_4="40.63760" pt_clust_5="40.72280" pt_clust_6="14000.00000"></scales>
<clustering>
<clus scale="   40.638">  2  4  1 -1</clus>
<clus scale="   40.723">  1  5  2 -1</clus>
<clus scale="  105.270">  1  3  2 -1</clus>
<clus scale="   40.723">  1  3  2 -1</clus>
</clustering>
</event>
<event>
 6    0  0.1230761E+002  0.1352052E+03  0.7546771E-02  0.1219930E+00
         21   -1    0    0  501  502  0.00000000000E+00  0.00000000000E+00  0.23912816850E+03  0.23912816850E+03  0.00000000000E+00 0. -1.
          1   -1    0    0  503    0 -0.00000000000E+00 -0.00000000000E+00 -0.55847835962E+03  0.55847835962E+03  0.00000000000E+00 0. -1.
         21    1    1    2  503  505  0.31402639636E+02 -0.22248783609E+02 -0.46565034356E+02  0.60410566731E+02  0.00000000000E+00 0. -1.
         21    1    1    2  504  502 -0.48191957257E+02 -0.91979293494E+01  0.50364423291E+02  0.70311035991E+02  0.00000000000E+00 0. -1.
         21    1    1    2  505  504 -0.66703356905E+02  0.50641655853E+02  0.15764886734E+03  0.17851353030E+03  0.00000000000E+00 0. -1.
          1    1    1    2  501    0  0.83492674525E+02 -0.19194942895E+02 -0.48079844739E+03  0.48837139509E+03  0.00000000000E+00 0. -1.
<scales pt_clust_3="38.48551" pt_clust_4="46.68968" pt_clust_5="46.68968" pt_clust_6="120.64340"></scales>
<clustering>
<clus scale="   38.486">  2  3  1 -1</clus>
<clus scale="   46.690">  4  5 -1 -1</clus>
<clus scale="  120.643">  2  6  1 -1</clus>
<clus scale="  135.205">  1  3  2 -1</clus>
</clustering>
</event>
<event>
 6    0  0.1230761E+002  0.2098505E+03  0.7546771E-02  0.1141684E+00
         21   -1    0    0  501  502  0.00000000000E+00  0.00000000000E+00  0.63765781815E+02  0.63765781815E+02  0.00000000000E+00 0. -1.
          2   -1    0    0  504    0 -0.00000000000E+00 -0.00000000000E+00 -0.26699871368E+04  0.26699871368E+04  0.00000000000E+00 0. -1.
         21    1    1    2  503  505 -0.48350013362E+02 -0.14579515343E+02 -0.20378267459E+03  0.20994681356E+03  0.00000000000E+00 0. -1.
         21    1    1    2  504  503  0.15517999329E+02  0.30556419355E+02 -0.14882544573E+03  0.15272038621E+03  0.00000000000E+00 0.  1.
         21    1    1    2  505  502  0.42440428514E+02 -0.20752267823E+03 -0.15193339093E+03  0.26067337270E+03  0.00000000000E+00 0. -1.
          2    1    1    2  501    0 -0.96084144812E+01  0.19154577422E+03 -0.21016798438E+04  0.21104123462E+04  0.00000000000E+00 0. -1.
<scales pt_clust_3="48.59857" pt_clust_4="34.27102" pt_clust_5="209.85045" pt_clust_6="14000.00000"></scales>
<clustering>
<clus scale="   34.271">  2  4  1 -1</clus>
<clus scale="   48.599">  2  3  1 -1</clus>
<clus scale="  209.850">  1  5  2 -1</clus>
<clus scale="  209.850">  1  3  2 -1</clus>
</clustering>
</event>
<event>
 6    0  0.1230761E+002  0.2052371E+03  0.7546771E-02  0.1145394E+00
          2   -1    0    0  504    0 -0.00000000000E+00  0.00000000000E+00  0.30514560942E+04  0.30514560942E+04  0.00000000000E+00 0.  1.
         21   -1    0    0  505  502  0.00000000000E+00 -0.00000000000E+00 -0.56284938550E+03  0.56284938550E+03  0.00000000000E+00 0.  1.
         21    1    1    2  503  501 -0.89780188190E+02 -0.72681762191E+02 -0.43911511554E+03  0.45405418778E+03  0.00000000000E+00 0.  1.
         21    1    1    2  504  502  0.16655876626E+03 -0.84071738814E+02  0.96141211606E+02  0.20988809508E+03  0.00000000000E+00 0.  1.
         21    1    1    2  505  503 -0.30130198757E+02 -0.48914887872E+02 -0.40665038629E+02  0.70385655494E+02  0.00000000000E+00 0. -1.
          2    1    1    2  501    0 -0.46648379317E+02  0.20566838888E+03  0.28722456512E+04  0.28799775413E+04  0.00000000000E+00 0.  1.
<scales pt_clust_3="164.07992" pt_clust_4="205.23707" pt_clust_5="57.44994" pt_clust_6="14000.00000"></scales>
<clustering>
<clus scale="   57.450">  2  5  1 -1</clus>
<clus scale="  164.080">  2  3  1 -1</clus>
<clus scale="  205.237">  2  4  1 -1</clus>
<clus scale="   57.450">  2  3  1 -1</clus>
</clustering>
</event>
<event>
 6    0  0.1230761E+002  0.1587352E+03  0.7546771E-02  0.1190132E+00
          2   -1    0    0  503    0 -0.00000000000E+00  0.00000000000E+00  0.21979704539E+04  0.21979704539E+04  0.00000000000E+00 0.  1.
         21   -1    0    0  505  502  0.00000000000E+00 -0.00000000000E+00 -0.20212900628E+03  0.20212900628E+03  0.00000000000E+00 0. -1.
         21    1    1    2  503  504  0.43804987098E+02  0.92965281192E+02 -0.95296406569E+02  0.14015286478E+03  0.00000000000E+00 0. -1.
         21    1    1    2  504  502  0.31025488348E+02 -0.21823071876E+02 -0.62768934223E+02  0.73340074290E+02  0.00000000000E+00 0. -1.
         21    1    1    2  505  501 -0.82992897373E+00  0.70950245209E+02  0.81677511444E+02  0.10819353933E+03  0.00000000000E+00 0. -1.
          2    1    1    2  501    0 -0.74000546472E+02 -0.14209245452E+03  0.20722292770E+04  0.20784129818E+04  0.00000000000E+00 0.  1.
<scales pt_clust_3="14000.00000" pt_clust_4="37.93188" pt_clust_5="68.82866" pt_clust_6="158.73523"></scales>
<clustering>
<clus scale="   37.932">  2  4  1 -1</clus>
<clus scale="   68.829">  2  5  1 -1</clus>
<clus scale="  158.735">  1  6  2 -1</clus>
<clus scale="   37.932">  2  3  1 -1</clus>
</clustering>
</event>
<event>
 6    0  0.1230761E+002  0.6395838E+02  0.7546771E-02  0.1381933E+00
         21   -1    0    0  504  502  0.00000000000E+00  0.00000000000E+00  0.27481449019E+04  0.27481449019E+04  0.00000000000E+00 0. -1.
          4   -1    0    0  505    0 -0.00000000000E+00 -0.00000000000E+00 -0.98616258337E+03  0.98616258337E+03  0.00000000000E+00 0.  1.
         21    1    1    2  503  502  0.26519025104E+02 -0.27842414082E+02  0.13049385403E+03  0.13604081980E+03  0.00000000000E+00 0. -1.
         21    1    1    2  504  501 -0.83987451485E+02  0.55386804827E+02  0.26016608037E+04  0.26036052941E+04  0.00000000000E+00 0. -1.
         21    1    1    2  505  503 -0.34171018669E+02 -0.30618217197E+02 -0.42730037469E+02  0.62697606360E+02  0.00000000000E+00 0.  1.
          4    1    1    2  501    0  0.91639445050E+02  0.30738264523E+01 -0.92744230170E+03  0.93196376500E+03  0.00000000000E+00 0.  1.
<scales pt_clust_3="38.45073" pt_clust_4="14000.00000" pt_clust_5="45.87750" pt_clust_6="63.95838"></scales>
<clustering>
<clus scale="   38.451">  1  3  2 -1</clus>
<clus scale="   45.878">  2  5  1 -1</clus>
<clus scale="   63.958">  2  6  1 -1</clus>
<clus scale="   38.451">  1  3  2 -1</clus>
</clustering>
</event>
<event>
 6    0  0.1230761E+002  0.9158404E+02  0.7546771E-02  0.1299060E+00
         21   -1    0    0  504  502  0.00000000000E+00  0.00000000000E+00  0.91419946267E+03  0.91419946267E+03  0.00000000000E+00 0.  1.
          1   -1    0    0  503    0 -0.00000000000E+00 -0.00000000000E+00 -0.18966116825E+03  0.18966116825E+03  0.00000000000E+00 0.  1.
         21    1    1    2  503  502 -0.46598925965E+01 -0.47689824153E+02  0.99489714286E+02  0.11042752001E+03  0.00000000000E+00 0. -1.
         21    1    1    2  504  505 -0.92758592052E+02  0.47346496779E+02  0.77966555974E+03  0.78659025687E+03  0.00000000000E+00 0.  1.
         21    1    1    2  505  501  0.61374507552E+02 -0.19409261457E+02 -0.22037091225E+02  0.68038099600E+02  0.00000000000E+00 0. -1.
          1    1    1    2  501    0  0.36043977096E+02  0.19752588831E+02 -0.13257988839E+03  0.13880475444E+03  0.00000000000E+00 0.  1.
<scales pt_clust_3="45.69931" pt_clust_4="91.58404" pt_clust_5="14000.00000" pt_clust_6="41.10150"></scales>
<clustering>
<clus scale="   41.101">  2  6  1 -1</clus>
<clus scale="   45.699">  1  3  2 -1</clus>
<clus scale="   91.584">  1  4  2 -1</clus>
<clus scale="   45.699">  1  3  2 -1</clus>
</clustering>
</event>
<event>
 6    0  0.1230761E+002  0.9440499E+02  0.7546771E-02  0.1292522E+00
         21   -1    0    0  501  502  0.00000000000E+00  0.00000000000E+00  0.51531992245E+03  0.51531992245E+03  0.00000000000E+00 0.  1.
          1   -1    0    0  503    0 -0.00000000000E+00 -0.00000000000E+00 -0.90814734878E+03  0.90814734878E+03  0.00000000000E+00 0. -1.
         21    1    1    2  503  504  0.77466319015E+02 -0.42504825408E+02 -0.46226841166E+03  0.47063762619E+03  0.00000000000E+00 0.  1.
         21    1    1    2  504  505 -0.31081035296E+00  0.54826351692E+02  0.18085868596E+03  0.18898648028E+03  0.00000000000E+00 0.  1.
         21    1    1    2  505  502  0.41560543057E+02  0.12395509952E+01  0.31667224284E+03  0.31939023875E+03  0.00000000000E+00 0.  1.
          1    1    1    2  501    0 -0.11871605172E+03 -0.13561077279E+02 -0.42808994346E+03  0.44445292602E+03  0.00000000000E+00 0. -1.
<scales pt_clust_3="14000.00000" pt_clust_4="68.03009" pt_clust_5="41.57902" pt_clust_6="94.40499"></scales>
<clustering>
<clus scale="   41.579">  1  5  2 -1</clus>
<clus scale="   68.030">  1  4  2 -1</clus>
<clus scale="   94.405">  1  6  2 -1</clus>
<clus scale="   41.579">  1  3  2 -1</clus>
</clustering>
</event>
<event>
 6    0  0.1230761E+002  0.1368729E+03  0.7546771E-02  0.1217600E+00
          2   -1    0    0  503    0 -0.00000000000E+00  0.00000000000E+00  0.84810850936E+03  0.84810850936E+03  0.00000000000E+00 0.  1.
         21   -1    0    0  504  502  0.00000000000E+00 -0.00000000000E+00 -0.22258046487E+03  0.22258046487E+03  0.00000000000E+00 0.  1.
         21    1    1    2  503  505  0.77680605122E+02 -0.22998034670E+00  0.22254240261E+03  0.23571052217E+03  0.00000000000E+00 0.  1.
         21    1    1    2  504  501  0.10185181146E+02  0.16176703857E+03 -0.15700891587E+03  0.22566371517E+03  0.00000000000E+00 0.  1.
         21    1    1    2  505  502 -0.20719557748E+02 -0.27015523585E+02  0.51165623576E+01  0.34428444610E+02  0.00000000000E+00 0. -1.
          2    1    1    2  501    0 -0.67146228519E+02 -0.13452153464E+03  0.55487799539E+03  0.57488629228E+03  0.00000000000E+00 0.  1.
<scales pt_clust_3="77.03216" pt_clust_4="136.87294" pt_clust_5="34.04612" pt_clust_6="14000.00000"></scales>
<clustering>
<clus scale="   34.046">  2  5  1 -1</clus>
<clus scale="   77.032">  1  3  2 -1</clus>
<clus scale="  136.873">  2  4  1 -1</clus>
<clus scale="   34.046">  2  3  1 -1</clus>
</clustering>
</event>
<event>
 6    0  0.1230761E+002  0.8931190E+02  0.7546771E-02  0.1304527E+00
          2   -1    0    0  504    0 -0.00000000000E+00  0.00000000000E+00  0.90773634384E+02  0.90773634384E+02  0.00000000000E+00 0. -1.
         21   -1    0    0  505  502  0.00000000000E+00 -0.00000000000E+00 -0.37460958429E+03  0.37460958429E+03  0.00000000000E+00 0. -1.
         21    1    1    2  503  502  0.33494038011E+02 -0.42591843935E+02 -0.12662392895E+03  0.13772993551E+03  0.00000000000E+00 0. -1.
         21    1    1    2  504  503  0.96151711321E+02  0.11052560921E+01  0.13347655585E+02  0.97080034459E+02  0.00000000000E+00 0. -1.
         21    1    1    2  505  501 -0.51731581371E+02  0.24192115759E+02 -0.12791415042E+03  0.14008370659E+03  0.00000000000E+00 0. -1.
          2    1    1    2  501    0 -0.77914167960E+02  0.17294472085E+02 -0.42645526121E+02  0.90489542113E+02  0.00000000000E+00 0. -1.
<scales pt_clust_3="54.18409" pt_clust_4="89.31190" pt_clust_5="33.22491" pt_clust_6="14000.00000"></scales>
<clustering>
<clus scale="   54.184">  2  3  1 -1</clus>
<clus scale="   33.225">  2  5  1 -1</clus>
<clus scale="   89.312">  1  4  2 -1</clus>
<clus scale="   54.184">  2  3  1 -1</clus>
</clustering>
</event>
<event>
 6    0  0.1230761E+002  0.7173212E+02  0.7546771E-02  0.1354300E+00
         21   -1    0    0  505  502  0.00000000000E+00  0.00000000000E+00  0.23339518810E+04  0.23339518810E+04  0.00000000000E+00 0.  1.
          1   -1    0    0  503    0 -0.00000000000E+00 -0.00000000000E+00 -0.15157445298E+02  0.15157445298E+02  0.00000000000E+00 0.  1.
         21    1    1    2  503  504 -0.82428507478E+02  0.26596931894E+02  0.29473130072E+03  0.30719439327E+03  0.00000000000E+00 0.  1.
         21    1    1    2  504  502  0.75068479602E+01  0.50989878032E+02  0.46281642945E+03  0.46567732154E+03  0.00000000000E+00 0.  1.
         21    1    1    2  505  501  0.60314108466E+02 -0.21743101837E+01  0.13518463773E+04  0.13531929453E+04  0.00000000000E+00 0.  1.
          1    1    1    2  501    0  0.14607551052E+02 -0.75412499742E+02  0.20940032819E+03  0.22304466618E+03  0.00000000000E+00 0.  1.
<scales pt_clust_3="71.73212" pt_clust_4="51.53950" pt_clust_5="14000.00000" pt_clust_6="71.21754"></scales>
<clustering>
<clus scale="   51.540">  1  4  2 -1</clus>
<clus scale="   71.218">  2  6  1 -1</clus>
<clus scale="   71.732">  2  3  1 -1</clus>
<clus scale="   51.540">  1  3  2 -1</clus>
</clustering>
</event>
<event>
 6    0  0.1230761E+002  0.1008133E+03  0.7546771E-02  0.1278595E+00
         21   -1    0    0  504  502  0.00000000000E+00  0.00000000000E+00  0.31233563402E+03  0.31233563402E+03  0.00000000000E+00 0.  1.
          4   -1    0    0  505    0 -0.00000000000E+00 -0.00000000000E+00 -0.83056920188E+03  0.83056920188E+03  0.00000000000E+00 0.  1.
         21    1    1    2  503  502 -0.99685629218E+02  0.73149899317E+02  0.24524628325E+03  0.27465227450E+03  0.00000000000E+00 0.  1.
         21    1    1    2  504  501  0.86449407584E+01 -0.36677510966E+02 -0.16930797253E+03  0.17345075489E+03  0.00000000000E+00 0.  1.
         21    1    1    2  505  503  0.65917678867E+02 -0.17432865828E+02  0.26630287045E+02  0.73199845535E+02  0.00000000000E+00 0.  1.
          4    1    1    2  501    0  0.25123009592E+02 -0.19039522523E+02 -0.62080216563E+03  0.62160196097E+03  0.00000000000E+00 0.  1.
<scales pt_clust_3="100.81326" pt_clust_4="59.87127" pt_clust_5="14000.00000" pt_clust_6="31.52252"></scales>
<clustering>
<clus scale="   31.523">  2  6  1 -1</clus>
<clus scale="   59.871">  2  4  1 -1</clus>
<clus scale="  100.813">  1  3  2 -1</clus>
<clus scale="  100.813">  1  3  2 -1</clus>
</clustering>
</event>
<event>
 6    0  0.1230761E+002  0.1144764E+03  0.7546771E-02  0.1252498E+00
          4   -1    0    0  503    0 -0.00000000000E+00  0.00000000000E+00  0.16320444732E+04  0.16320444732E+04  0.00000000000E+00 0.  1.
         21   -1    0    0  501  502  0.00000000000E+00 -0.00000000000E+00 -0.45306375777E+02  0.45306375777E+02  0.00000000000E+00 0. -1.
         21    1    1    2  503  504 -0.38933978594E+02  0.12382430488E+02  0.23448014282E+03  0.23801284976E+03  0.00000000000E+00 0. -1.
         21    1    1    2  504  505 -0.44148508308E+02  0.27580523951E+00  0.84301173213E+01  0.44947010272E+02  0.00000000000E+00 0. -1.
         21    1    1    2  505  502 -0.37778859024E+02 -0.56860222421E+02  0.30494943106E+02  0.74768099066E+02  0.00000000000E+00 0. -1.
          4    1    1    2  501    0  0.12086134593E+03  0.44201986694E+02  0.13133328942E+04  0.13196228899E+04  0.00000000000E+00 0.  1.
<scales pt_clust_3="40.85559" pt_clust_4="43.55153" pt_clust_5="43.55153" pt_clust_6="101.00585"></scales>
<clustering>
<clus scale="   40.856">  1  3  2 -1</clus>
<clus scale="   43.552">  4  5 -1 -1</clus>
<clus scale="  101.006">  1  6  2 -1</clus>
<clus scale="  114.476">  2  3  1 -1</clus>
</clustering>
</event>
<event>
 6    0  0.1230761E+002  0.1310806E+03  0.7546771E-02  0.1225861E+00
         21   -1    0    0  501  502  0.00000000000E+00  0.00000000000E+00  0.61912129915E+02  0.61912129915E+02  0.00000000000E+00 0.  1.
          2   -1    0    0  504    0 -0.00000000000E+00 -0.00000000000E+00 -0.12902260242E+04  0.12902260242E+04  0.00000000000E+00 0. -1.
         21    1    1    2  503  505  0.14123522910E+02 -0.48719197049E+02 -0.18788234065E+02  0.54092807283E+02  0.00000000000E+00 0.  1.
         21    1    1    2  504  503  0.40490235111E+02  0.29591772219E+02 -0.12357650866E+03  0.13336523391E+03  0.00000000000E+00 0.  1.
         21    1    1    2  505  502  0.75399076711E+02 -0.21985403450E+02 -0.89092648517E+01  0.79042733593E+02  0.00000000000E+00 0.  1.
          2    1    1    2  501    0 -0.13001283473E+03  0.41112828281E+02 -0.10770398867E+04  0.10856373794E+04  0.00000000000E+00 0. -1.
<scales pt_clust_3="49.84556" pt_clust_4="50.15109" pt_clust_5="49.84556" pt_clust_6="115.05498"></scales>
<clustering>
<clus scale="   50.151">  2  4  1 -1</clus>
<clus scale="   49.846">  3  5 -1 -1</clus>
<clus scale="  115.055">  2  6  1 -1</clus>
<clus scale="  131.081">  1  3  2 -1</clus>
</clustering>
</event>
<event>
 6    0  0.1230761E+002  0.8763580E+02  0.7546771E-02  0.1308680E+00
          2   -1    0    0  505    0 -0.00000000000E+00  0.00000000000E+00  0.13039822361E+04  0.13039822361E+04  0.00000000000E+00 0.  1.
         21   -1    0    0  504  502  0.00000000000E+00 -0.00000000000E+00 -0.65149563584E+02  0.65149563584E+02  0.00000000000E+00 0.  1.
         21    1    1    2  503  502  0.62378108636E+02  0.16882475212E+02 -0.80677533331E+01  0.65123997498E+02  0.00000000000E+00 0.  1.
         21    1    1    2  504  501  0.10521099709E+02  0.29562451817E+02  0.21173184787E+02  0.37854139147E+02  0.00000000000E+00 0.  1.
         21    1    1    2  505  503  0.64806108232E+02 -0.55010059043E+02  0.98522881642E+03  0.98888915404E+03  0.00000000000E+00 0.  1.
          2    1    1    2  501    0 -0.13770531658E+03  0.85651320136E+01  0.24049842466E+03  0.27726450902E+03  0.00000000000E+00 0.  1.
<scales pt_clust_3="77.93082" pt_clust_4="31.37885" pt_clust_5="14000.00000" pt_clust_6="87.63580"></scales>
<clustering>
<clus scale="   31.379">  2  4  1 -1</clus>
<clus scale="   77.931">  2  3  1 -1</clus>
<clus scale="   87.636">  2  6  1 -1</clus>
<clus scale="   31.379">  2  3  1 -1</clus>
</clustering>
</event>
<event>
 6    0  0.1230761E+002  0.7331958E+02  0.7546771E-02  0.1349155E+00
         21   -1    0    0  505  502  0.00000000000E+00  0.00000000000E+00  0.25042780313E+03  0.25042780313E+03  0.00000000000E+00 0.  1.
         -1   -1    0    0    0  501 -0.00000000000E+00 -0.00000000000E+00 -0.31355740872E+03  0.31355740872E+03  0.00000000000E+00 0. -1.
         21    1    1    2  503  501  0.49504524121E+02 -0.23061603079E+02 -0.19146913727E+02  0.57871752612E+02  0.00000000000E+00 0.  1.
         21    1    1    2  504  502 -0.15473992722E+00 -0.41699413313E+02  0.10554226761E+03  0.11348143137E+03  0.00000000000E+00 0.  1.
         21    1    1    2  505  503  0.56059726179E+02 -0.10314485385E+02  0.97969707243E+02  0.11334524712E+03  0.00000000000E+00 0.  1.
         -1    1    1    2    0  504 -0.10540951037E+03  0.75075501778E+02 -0.24749466671E+03  0.27928678074E+03  0.00000000000E+00 0. -1.
<scales pt_clust_3="57.24972" pt_clust_4="41.69970" pt_clust_5="73.31958" pt_clust_6="14000.00000"></scales>
<clustering>
<clus scale="   41.700">  1  4  2 -1</clus>
<clus scale="   57.250">  2  3  1 -1</clus>
<clus scale="   73.320">  1  5  2 -1</clus>
<clus scale="   41.700">  1  3  2 -1</clus>
</clustering>
</event>
<event>
 6    0  0.1230761E+002  0.7835540E+02  0.7546771E-02  0.1333784E+00
         21   -1    0    0  505  502  0.00000000000E+00  0.00000000000E+00  0.14758157566E+03  0.14758157566E+03  0.00000000000E+00 0.  1.
          2   -1    0    0  503    0 -0.00000000000E+00 -0.00000000000E+00 -0.95057718820E+03  0.95057718820E+03  0.00000000000E+00 0. -1.
         21    1    1    2  503  504 -0.22073997948E+02 -0.23786809760E+02 -0.48263282273E+03  0.48372256024E+03  0.00000000000E+00 0. -1.
         21    1    1    2  504  502 -0.88973703047E+02 -0.51702303351E+01  0.96540065898E+02  0.13138887106E+03  0.00000000000E+00 0.  1.
         21    1    1    2  505  501  0.23869131243E+02 -0.34091861780E+02  0.99951399097E+01  0.42800622516E+02  0.00000000000E+00 0. -1.
          2    1    1    2  501    0  0.87178569752E+02  0.63048901876E+02 -0.42689799561E+03  0.44024671005E+03  0.00000000000E+00 0. -1.
<scales pt_clust_3="32.45110" pt_clust_4="78.35540" pt_clust_5="41.87152" pt_clust_6="14000.00000"></scales>
<clustering>
<clus scale="   32.451">  2  3  1 -1</clus>
<clus scale="   41.872">  1  5  2 -1</clus>
<clus scale="   78.355">  1  4  2 -1</clus>
<clus scale="   41.872">  1  3  2 -1</clus>
</clustering>
</event>
<event>
 6    0  0.1230761E+002  0.9171970E+02  0.7546771E-02  0.1298740E+00
         21   -1    0    0  505  502  0.00000000000E+00  0.00000000000E+00  0.37766705769E+04  0.37766705769E+04  0.00000000000E+00 0. -1.
         -3   -1    0    0    0  501 -0.00000000000E+00 -0.00000000000E+00 -0.13253740292E+03  0.13253740292E+03  0.00000000000E+00 0. -1.
         21    1    1    2  503  501  0.21458444963E+02 -0.57031768280E+02  0.77115560064E+02  0.98284775309E+02  0.00000000000E+00 0.  1.
         21    1    1    2  504  502  0.21666526900E+02 -0.60011100228E+02  0.14256552801E+04  0.14270822500E+04  0.00000000000E+00 0. -1.
         21    1    1    2  505  503  0.16763070260E+01 -0.30502557114E+02  0.22134249179E+04  0.22136357160E+04  0.00000000000E+00 0. -1.
         -3    1    1    2    0  504 -0.44801278889E+02  0.14754542562E+03 -0.72062584057E+02  0.17020523856E+03  0.00000000000E+00 0. -1.
<scales pt_clust_3="62.57207" pt_clust_4="14000.00000" pt_clust_5="30.54858" pt_clust_6="91.71970"></scales>
<clustering>
<clus scale="   30.549">  1  5  2 -1</clus>
<clus scale="   62.572">  2  3  1 -1</clus>
<clus scale="   91.720">  2  6  1 -1</clus>
<clus scale="   30.549">  1  3  2 -1</clus>
</clustering>
</event>
<event>
 6    0  0.1230761E+002  0.1038089E+03  0.7546771E-02  0.1272484E+00
         21   -1    0    0  505  502  0.00000000000E+00  0.00000000000E+00  0.25849348565E+02  0.25849348565E+02  0.00000000000E+00 0.  1.
          2   -1    0    0  504    0 -0.00000000000E+00 -0.00000000000E+00 -0.28386815490E+04  0.28386815490E+04  0.00000000000E+00 0.  1.
         21    1    1    2  503  502 -0.67434797346E+02 -0.71521784048E+02 -0.20740807317E+03  0.22952325874E+03  0.00000000000E+00 0.  1.
         21    1    1    2  504  503 -0.13670020090E+02  0.36087719622E+02 -0.23808248328E+03  0.24118968013E+03  0.00000000000E+00 0. -1.
         21    1    1    2  505  501  0.33954592394E+02  0.11234416208E+03 -0.26839375429E+03  0.29293230010E+03  0.00000000000E+00 0.  1.
          2    1    1    2  501    0  0.47150225042E+02 -0.76910097659E+02 -0.20989478897E+04  0.21008856586E+04  0.00000000000E+00 0.  1.
<scales pt_clust_3="14000.00000" pt_clust_4="38.59006" pt_clust_5="103.80889" pt_clust_6="59.86593"></scales>
<clustering>
<clus scale="   38.590">  2  4  1 -1</clus>
<clus scale="   59.866">  2  6  1 -1</clus>
<clus scale="  103.809">  2  5  1 -1</clus>
<clus scale="  103.809">  1  3  2 -1</clus>
</clustering>
</event>
<event>
 6    0  0.1230761E+002  0.2742631E+03  0.7546771E-02  0.1098864E+00
         21   -1    0    0  501  502  0.00000000000E+00  0.00000000000E+00  0.41062910283E+03  0.41062910283E+03  0.00000000000E+00 0.  1.
          1   -1    0    0  505    0 -0.00000000000E+00 -0.00000000000E+00 -0.31702805961E+03  0.31702805961E+03  0.00000000000E+00 0.  1.
         21    1    1    2  503  502 -0.71143428116E+01  0.62568463998E+02  0.11621698660E+03  0.13218099158E+03  0.00000000000E+00 0.  1.
         21    1    1    2  504  503  0.21024985113E+01  0.19659530483E+03  0.14049939864E+03  0.24164895076E+03  0.00000000000E+00 0.  1.
         21    1    1    2  505  504  0.32464565373E+02  0.13696963958E+02 -0.98857542092E+00  0.35249568904E+02  0.00000000000E+00 0.  1.
          1    1    1    2  501    0 -0.27452721073E+02 -0.27286073279E+03 -0.16212676660E+03  0.31857765120E+03  0.00000000000E+00 0.  1.
<scales pt_clust_3="45.98093" pt_clust_4="45.98093" pt_clust_5="35.23570" pt_clust_6="261.85050"></scales>
<clustering>
<clus scale="   35.236">  2  5  1 -1</clus>
<clus scale="   45.981">  3  4 -1 -1</clus>
<clus scale="  261.850">  2  6  1 -1</clus>
<clus scale="  274.263">  1  3  2 -1</clus>
</clustering>
</event>
<event>
 6    0  0.1230761E+002  0.6489514E+02  0.7546771E-02  0.1378366E+00
          2   -1    0    0  504    0 -0.00000000000E+00  0.00000000000E+00  0.15152236504E+04  0.15152236504E+04  0.00000000000E+00 0.  1.
         21   -1    0    0  505  502  0.00000000000E+00 -0.00000000000E+00 -0.56993772419E+02  0.56993772419E+02  0.00000000000E+00 0.  1.
         21    1    1    2  503  501 -0.90074329080E+02 -0.13687179361E+02  0.58560090964E+02  0.10830516097E+03  0.00000000000E+00 0.  1.
         21    1    1    2  504  502 -0.29326709660E+02  0.10456176662E+02  0.10635263986E+03  0.11081638658E+03  0.00000000000E+00 0. -1.
         21    1    1    2  505  503  0.45054101282E+02  0.37374630316E+02  0.13632337180E+01  0.58554192332E+02  0.00000000000E+00 0. -1.
          2    1    1    2  501    0  0.74346937458E+02 -0.34143627616E+02  0.12919539134E+04  0.12945416829E+04  0.00000000000E+00 0.  1.
<scales pt_clust_3="64.89514" pt_clust_4="31.13499" pt_clust_5="14000.00000" pt_clust_6="53.35737"></scales>
<clustering>
<clus scale="   31.135">  1  4  2 -1</clus>
<clus scale="   53.357">  1  6  2 -1</clus>
<clus scale="   64.895">  1  3  2 -1</clus>
<clus scale="   64.895">  2  3  1 -1</clus>
</clustering>
</event>
<event>
 6    0  0.1230761E+002  0.8726865E+02  0.7546771E-02  0.1309604E+00
          1   -1    0    0  504    0 -0.00000000000E+00  0.00000000000E+00  0.86721049646E+03  0.86721049646E+03  0.00000000000E+00 0. -1.
         21   -1    0    0  505  502  0.00000000000E+00 -0.00000000000E+00 -0.15875321105E+03  0.15875321105E+03  0.00000000000E+00 0. -1.
         21    1    1    2  503  502 -0.13275894217E+02  0.69081186094E+02 -0.12298987532E+03  0.14168616400E+03  0.00000000000E+00 0. -1.
         21    1    1    2  504  503 -0.41299519423E+02  0.20587250427E+02  0.11461681009E+03  0.12355767212E+03  0.00000000000E+00 0.  1.
         21    1    1    2  505  501 -0.31429935853E+02  0.57291619779E+01 -0.52916312139E+00  0.31952217111E+02  0.00000000000E+00 0.  1.
          1    1    1    2  501    0  0.86005349493E+02 -0.95397598499E+02  0.71735951376E+03  0.72876765428E+03  0.00000000000E+00 0. -1.
<scales pt_clust_3="87.26865" pt_clust_4="47.10971" pt_clust_5="31.94784" pt_clust_6="14000.00000"></scales>
<clustering>
<clus scale="   31.948">  2  5  1 -1</clus>
<clus scale="   47.110">  1  4  2 -1</clus>
<clus scale="   87.269">  2  3  1 -1</clus>
<clus scale="   31.948">  2  3  1 -1</clus>
</clustering>
</event>
<event>
 6    0  0.1472738E+002  0.8724772E+02  0.7546771E-02  0.1309657E+00
         -1   -1    0    0    0  501 -0.00000000000E+00  0.00000000000E+00  0.35867401335E+03  0.35867401335E+03  0.00000000000E+00 0.  1.
         21   -1    0    0  505  502  0.00000000000E+00 -0.00000000000E+00 -0.28668259025E+04  0.28668259025E+04  0.00000000000E+00 0. -1.
         21    1    1    2  503  504 -0.26019177744E+02  0.57836592266E+02 -0.75153851619E+02  0.98337024709E+02  0.00000000000E+00 0.  1.
         21    1    1    2  504  502  0.65006870758E+02 -0.60826848755E+02 -0.27403798416E+04  0.27418255734E+04  0.00000000000E+00 0. -1.
         21    1    1    2  505  501  0.24493575219E+02  0.48603572776E+02 -0.12666655217E+02  0.55881004537E+02  0.00000000000E+00 0.  1.
         -1    1    1    2    0  503 -0.63481268233E+02 -0.45613316288E+02  0.32004845927E+03  0.32945631322E+03  0.00000000000E+00 0.  1.
<scales pt_clust_3="14000.00000" pt_clust_4="87.24772" pt_clust_5="54.42649" pt_clust_6="39.90103"></scales>
<clustering>
<clus scale="   54.426">  1  5  2 -1</clus>
<clus scale="   39.901">  1  6  2 -1</clus>
<clus scale="   87.248">  2  4  1 -1</clus>
<clus scale="   87.248">  2  3  1 -1</clus>
</clustering>
</event>
<event>
 6    0  0.1230761E+002  0.2826466E+03  0.7546771E-02  0.1094252E+00
          2   -1    0    0  504    0 -0.00000000000E+00  0.00000000000E+00  0.25354798627E+04  0.25354798627E+04  0.00000000000E+00 0. -1.
         21   -1    0    0  505  502  0.00000000000E+00 -0.00000000000E+00 -0.24314196993E+03  0.24314196993E+03  0.00000000000E+00 0. -1.
         21    1    1    2  503  502 -0.26987117751E+03  0.17492219379E+03 -0.64594127228E+02  0.32802534598E+03  0.00000000000E+00 0. -1.
         21    1    1    2  504  503 -0.48729126625E+02  0.93578659222E+02  0.19145642482E+03  0.21860250650E+03  0.00000000000E+00 0. -1.
         21    1    1    2  505  501  0.46699044010E+02 -0.21315976075E+02  0.19704376038E+02  0.54985761634E+02  0.00000000000E+00 0.  1.
          2    1    1    2  501    0  0.27190126012E+03 -0.24718487694E+03  0.21457712192E+04  0.21770082185E+04  0.00000000000E+00 0. -1.
<scales pt_clust_3="14000.00000" pt_clust_4="103.08722" pt_clust_5="51.33392" pt_clust_6="282.64657"></scales>
<clustering>
<clus scale="   51.334">  2  5  1 -1</clus>
<clus scale="  103.087">  1  4  2 -1</clus>
<clus scale="  282.647">  1  6  2 -1</clus>
<clus scale="   51.334">  2  3  1 -1</clus>
</clustering>
</event>
<event>
 6    0  0.1230761E+002  0.6881053E+02  0.7546771E-02  0.1364185E+00
         -2   -1    0    0    0  501 -0.00000000000E+00  0.00000000000E+00  0.50378135838E+03  0.50378135838E+03  0.00000000000E+00 0.  1.
         21   -1    0    0  504  502  0.00000000000E+00 -0.00000000000E+00 -0.57644770108E+03  0.57644770108E+03  0.00000000000E+00 0.  1.
         21    1    1    2  503  502 -0.60786157171E+02  0.42970376059E+01 -0.49225220231E+03  0.49600972986E+03  0.00000000000E+00 0.  1.
         21    1    1    2  504  505  0.60291836854E+01 -0.46008794316E+02 -0.61543733176E+02  0.77076528876E+02  0.00000000000E+00 0.  1.
         21    1    1    2  505  501  0.23115545996E+02 -0.50281752619E+02  0.25566260785E+03  0.26158354720E+03  0.00000000000E+00 0. -1.
         -2    1    1    2    0  503  0.31641427489E+02  0.91993509329E+02  0.22546698494E+03  0.24555925352E+03  0.00000000000E+00 0.  1.
<scales pt_clust_3="68.81053" pt_clust_4="46.40216" pt_clust_5="55.59940" pt_clust_6="14000.00000"></scales>
<clustering>
<clus scale="   46.402">  2  4  1 -1</clus>
<clus scale="   55.599">  1  5  2 -1</clus>
<clus scale="   68.811">  2  3  1 -1</clus>
<clus scale="   46.402">  2  3  1 -1</clus>
</clustering>
</event>
<event>
 6    0  0.1230761E+002  0.1257061E+03  0.7546771E-02  0.1233970E+00
          2   -1    0    0  503    0 -0.00000000000E+00  0.00000000000E+00  0.56675686226E+03  0.56675686226E+03  0.00000000000E+00 0. -1.
         21   -1    0    0  504  502  0.00000000000E+00 -0.00000000000E+00 -0.15643463628E+03  0.15643463628E+03  0.00000000000E+00 0.  1.
         21    1    1    2  503  505  0.25724975417E+02 -0.22666683653E+02  0.66511415345E+02  0.74828612704E+02  0.00000000000E+00 0. -1.
         21    1    1    2  504  501  0.23860864908E+02 -0.15496021951E+03 -0.30118123915E+02  0.15965309860E+03  0.00000000000E+00 0.  1.
         21    1    1    2  505  502  0.57022216864E+02  0.71200016628E+02  0.63250860660E+01  0.91438407126E+02  0.00000000000E+00 0.  1.
          2    1    1    2  501    0 -0.10660805719E+03  0.10642688654E+03  0.36760384848E+03  0.39727138011E+03  0.00000000000E+00 0. -1.
<scales pt_clust_3="34.28634" pt_clust_4="14000.00000" pt_clust_5="91.12313" pt_clust_6="125.70610"></scales>
<clustering>
<clus scale="   34.286">  1  3  2 -1</clus>
<clus scale="   91.123">  2  5  1 -1</clus>
<clus scale="  125.706">  1  6  2 -1</clus>
<clus scale="   91.123">  2  3  1 -1</clus>
</clustering>
</event>
<event>
 6    0  0.1230761E+002  0.9934540E+02  0.7546771E-02  0.1281679E+00
         21   -1    0    0  501  502  0.00000000000E+00  0.00000000000E+00  0.87722068100E+03  0.87722068100E+03  0.00000000000E+00 0. -1.
          4   -1    0    0  504    0 -0.00000000000E+00 -0.00000000000E+00 -0.70933385694E+02  0.70933385694E+02  0.00000000000E+00 0. -1.
         21    1    1    2  503  505 -0.75996042034E+00 -0.61624040001E+02  0.58618599689E+03  0.58941676494E+03  0.00000000000E+00 0. -1.
         21    1    1    2  504  503 -0.12754220035E+02 -0.39247312239E+02  0.45590268339E+02  0.61493855091E+02  0.00000000000E+00 0. -1.
         21    1    1    2  505  502  0.10807336468E+02 -0.40579658518E+02  0.14730556466E+03  0.15317452983E+03  0.00000000000E+00 0. -1.
          4    1    1    2  501    0  0.27068439878E+01  0.14145101076E+03  0.27205465412E+02  0.14406891683E+03  0.00000000000E+00 0. -1.
<scales pt_clust_3="99.34540" pt_clust_4="41.26768" pt_clust_5="43.62076" pt_clust_6="14000.00000"></scales>
<clustering>
<clus scale="   41.268">  2  4  1 -1</clus>
<clus scale="   43.621">  1  5  2 -1</clus>
<clus scale="   99.345">  1  3  2 -1</clus>
<clus scale="   43.621">  1  3  2 -1</clus>
</clustering>
</event>
<event>
 6    0  0.1230761E+002  0.9263558E+02  0.7546771E-02  0.1296592E+00
          2   -1    0    0  504    0 -0.00000000000E+00  0.00000000000E+00  0.10491932149E+04  0.10491932149E+04  0.00000000000E+00 0.  1.
         21   -1    0    0  501  502  0.00000000000E+00 -0.00000000000E+00 -0.62537742656E+02  0.62537742656E+02  0.00000000000E+00 0. -1.
         21    1    1    2  503  505 -0.76722738785E+02 -0.52823143911E+01  0.12641530210E+03  0.14796996349E+03  0.00000000000E+00 0. -1.
         21    1    1    2  504  503  0.17195237600E+02 -0.29851563804E+02  0.39049686093E+03  0.39201350800E+03  0.00000000000E+00 0. -1.
         21    1    1    2  505  502 -0.71356408272E+02 -0.48359116473E+02  0.10334854698E+02  0.86816763181E+02  0.00000000000E+00 0. -1.
          2    1    1    2  501    0  0.13088390946E+03  0.83492994668E+02  0.45940845455E+03  0.48493072292E+03  0.00000000000E+00 0.  1.
<scales pt_clust_3="74.03688" pt_clust_4="34.44985" pt_clust_5="14000.00000" pt_clust_6="92.63558"></scales>
<clustering>
<clus scale="   34.450">  1  4  2 -1</clus>
<clus scale="   74.037">  1  3  2 -1</clus>
<clus scale="   92.636">  1  6  2 -1</clus>
<clus scale="   92.636">  2  3  1 -1</clus>
</clustering>
</event>
<event>
 6    0  0.1230761E+002  0.1721294E+03  0.7546771E-02  0.1175645E+00
          2   -1    0    0  504    0 -0.00000000000E+00  0.00000000000E+00  0.75980119508E+03  0.75980119508E+03  0.00000000000E+00 0. -1.
         21   -1    0    0  505  502  0.00000000000E+00 -0.00000000000E+00 -0.17187878055E+03  0.17187878055E+03  0.00000000000E+00 0. -1.
         21    1    1    2  503  501  0.12035577275E+03 -0.50102694238E+02  0.43176663557E+03  0.45101909006E+03  0.00000000000E+00 0. -1.
         21    1    1    2  504  502 -0.23564253373E+02 -0.25207852137E+02  0.76578541011E+01  0.35346181912E+02  0.00000000000E+00 0. -1.
         21    1    1    2  505  503 -0.11842584746E+03  0.10021490580E+03 -0.10651053490E+03  0.18818130284E+03  0.00000000000E+00 0. -1.
          2    1    1    2  501    0  0.21634328085E+02 -0.24904359425E+02  0.25500845977E+03  0.25713340083E+03  0.00000000000E+00 0. -1.
<scales pt_clust_3="31.94445" pt_clust_4="34.50666" pt_clust_5="159.98706" pt_clust_6="31.94445"></scales>
<clustering>
<clus scale="   31.944">  3  6 -1 -1</clus>
<clus scale="   34.507">  2  4  1 -1</clus>
<clus scale="  159.987">  2  5  1 -1</clus>
<clus scale="   34.507">  2  3  1 -1</clus>
</clustering>
</event>
<event>
 6    0  0.1230761E+002  0.2631851E+03  0.7546771E-02  0.1105245E+00
         21   -1    0    0  503  502  0.00000000000E+00  0.00000000000E+00  0.74268001907E+03  0.74268001907E+03  0.00000000000E+00 0.  1.
          1   -1    0    0  505    0 -0.00000000000E+00 -0.00000000000E+00 -0.50824725070E+03  0.50824725070E+03  0.00000000000E+00 0.  1.
         21    1    1    2  503  504 -0.41660951522E+02 -0.39454828615E+02  0.33925939338E+03  0.34407739592E+03  0.00000000000E+00 0.  1.
         21    1    1    2  504  501 -0.58084468714E+02  0.54547633667E+00  0.22926091936E+03  0.23650512087E+03  0.00000000000E+00 0.  1.
         21    1    1    2  505  502  0.29934157911E+03  0.15476404068E+03 -0.12652423111E+03  0.35995231675E+03  0.00000000000E+00 0. -1.
          1    1    1    2  501    0 -0.19959615888E+03 -0.11585468840E+03 -0.20756331326E+03  0.31039243624E+03  0.00000000000E+00 0.  1.
<scales pt_clust_3="48.66611" pt_clust_4="117.73153" pt_clust_5="14000.00000" pt_clust_6="263.18507"></scales>
<clustering>
<clus scale="   48.666">  3  4 -1 -1</clus>
<clus scale="  117.732">  1  3  2 -1</clus>
<clus scale="  263.185">  2  6  1 -1</clus>
<clus scale="  117.732">  1  3  2 -1</clus>
</clustering>
</event>
<event>
 6    0  0.1230761E+002  0.1486703E+03  0.7546771E-02  0.1202116E+00
         21   -1    0    0  505  502  0.00000000000E+00  0.00000000000E+00  0.14557528841E+04  0.14557528841E+04  0.00000000000E+00 0.  1.
          1   -1    0    0  503    0 -0.00000000000E+00 -0.00000000000E+00 -0.60518210612E+03  0.60518210612E+03  0.00000000000E+00 0. -1.
         21    1    1    2  503  504  0.49178067755E+02  0.10583816847E+03 -0.92332567867E+02  0.14881365307E+03  0.00000000000E+00 0. -1.
         21    1    1    2  504  502  0.40905440057E+02 -0.11399304237E+03  0.47216504670E+03  0.48744999750E+03  0.00000000000E+00 0.  1.
         21    1    1    2  505  501 -0.24288526828E+02 -0.42368569805E+02  0.94346151040E+03  0.94472464234E+03  0.00000000000E+00 0.  1.
          1    1    1    2  501    0 -0.65794980984E+02  0.50523443712E+02 -0.47272321120E+03  0.47994669735E+03  0.00000000000E+00 0. -1.
<scales pt_clust_3="14000.00000" pt_clust_4="148.67031" pt_clust_5="48.83675" pt_clust_6="82.90993"></scales>
<clustering>
<clus scale="   48.837">  1  5  2 -1</clus>
<clus scale="   82.910">  2  6  1 -1</clus>
<clus scale="  148.670">  1  4  2 -1</clus>
<clus scale="   48.837">  1  3  2 -1</clus>
</clustering>
</event>
<event>
 6    0  0.1230761E+002  0.1876698E+03  0.7546771E-02  0.1160580E+00
          2   -1    0    0  504    0 -0.00000000000E+00  0.00000000000E+00  0.10286791243E+04  0.10286791243E+04  0.00000000000E+00 0. -1.
         21   -1    0    0  503  502  0.00000000000E+00 -0.00000000000E+00 -0.30332452021E+03  0.30332452021E+03  0.00000000000E+00 0.  1.
         21    1    1    2  503  501  0.46639425085E+02 -0.32615141864E+01  0.34340827618E+03  0.34657627963E+03  0.00000000000E+00 0.  1.
         21    1    1    2  504  505 -0.12928975086E+03 -0.80499772885E+02 -0.16868001915E+03  0.22726416781E+03  0.00000000000E+00 0.  1.
         21    1    1    2  505  502 -0.29998279740E+02  0.33491631994E+01 -0.94061504731E+02  0.98786033192E+02  0.00000000000E+00 0. -1.
          2    1    1    2  501    0  0.11264860551E+03  0.80412123872E+02  0.64468785177E+03  0.65937716385E+03  0.00000000000E+00 0. -1.
<scales pt_clust_3="38.05454" pt_clust_4="175.88768" pt_clust_5="30.18466" pt_clust_6="38.05454"></scales>
<clustering>
<clus scale="   30.185">  2  5  1 -1</clus>
<clus scale="   38.055">  3  6 -1 -1</clus>
<clus scale="  175.888">  2  4  1 -1</clus>
<clus scale="   30.185">  2  3  1 -1</clus>
</clustering>
</event>
<event>
 6    0  0.1230761E+002  0.1885975E+03  0.7546771E-02  0.1159732E+00
         -1   -1    0    0    0  501 -0.00000000000E+00  0.00000000000E+00  0.43020067260E+03  0.43020067260E+03  0.00000000000E+00 0. -1.
         21   -1    0    0  503  502  0.00000000000E+00 -0.00000000000E+00 -0.32870106604E+03  0.32870106604E+03  0.00000000000E+00 0.  1.
         21    1    1    2  503  501 -0.38009276422E+02 -0.14910419813E+03  0.97716378921E+02  0.18227796823E+03  0.00000000000E+00 0.  1.
         21    1    1    2  504  505  0.33691508418E+02 -0.37263117299E+02 -0.13978806593E+03  0.14854077227E+03  0.00000000000E+00 0.  1.
         21    1    1    2  505  502  0.32926346819E+02 -0.49694352566E+02 -0.81294537458E+02  0.10080910084E+03  0.00000000000E+00 0.  1.
         -1    1    1    2    0  504 -0.28608578815E+02  0.23606166800E+03  0.22486583104E+03  0.32727389729E+03  0.00000000000E+00 0. -1.
<scales pt_clust_3="188.59752" pt_clust_4="33.07699" pt_clust_5="115.31627" pt_clust_6="14000.00000"></scales>
<clustering>
<clus scale="   33.077">  4  5 -1 -1</clus>
<clus scale="  115.316">  2  4  1 -1</clus>
<clus scale="  188.598">  1  3  2 -1</clus>
<clus scale="  115.316">  2  3  1 -1</clus>
</clustering>
</event>
<event>
 6    0  0.1230761E+002  0.8151849E+02  0.7546771E-02  0.1324797E+00
          2   -1    0    0  504    0 -0.00000000000E+00  0.00000000000E+00  0.33150332031E+04  0.33150332031E+04  0.00000000000E+00 0.  1.
         21   -1    0    0  505  502  0.00000000000E+00 -0.00000000000E+00 -0.82031764435E+02  0.82031764435E+02  0.00000000000E+00 0.  1.
         21    1    1    2  503  502 -0.21650822375E+02  0.80180752542E+02 -0.50897231431E+02  0.97407593929E+02  0.00000000000E+00 0.  1.
         21    1    1    2  504  503  0.12638655528E+02  0.33418635622E+02  0.23040507402E+04  0.23043277445E+04  0.00000000000E+00 0.  1.
         21    1    1    2  505  501 -0.33693946650E+02 -0.74718303755E+02  0.24773114387E+03  0.26093835785E+03  0.00000000000E+00 0.  1.
          2    1    1    2  501    0  0.42706113497E+02 -0.38881084409E+02  0.73211678607E+03  0.73439127126E+03  0.00000000000E+00 0.  1.
<scales pt_clust_3="14000.00000" pt_clust_4="35.72871" pt_clust_5="81.51849" pt_clust_6="53.90023"></scales>
<clustering>
<clus scale="   35.729">  1  4  2 -1</clus>
<clus scale="   53.900">  1  6  2 -1</clus>
<clus scale="   81.518">  1  5  2 -1</clus>
<clus scale="   81.518">  2  3  1 -1</clus>
</clustering>
</event>
<event>
 6    0  0.1230761E+002  0.7978204E+02  0.7546771E-02  0.1329671E+00
         21   -1    0    0  505  502  0.00000000000E+00  0.00000000000E+00  0.59040269278E+03  0.59040269278E+03  0.00000000000E+00 0.  1.
         -3   -1    0    0    0  501 -0.00000000000E+00 -0.00000000000E+00 -0.42042009586E+03  0.42042009586E+03  0.00000000000E+00 0.  1.
         21    1    1    2  503  501 -0.20978684267E+02 -0.73345185211E+02 -0.53664831398E+02  0.93271300603E+02  0.00000000000E+00 0.  1.
         21    1    1    2  504  502 -0.61045348953E+02  0.23478318573E+02  0.27235129627E+01  0.65461313726E+02  0.00000000000E+00 0.  1.
         21    1    1    2  505  503  0.38606170955E+02 -0.18943764221E+02  0.53037800927E+03  0.53211853506E+03  0.00000000000E+00 0.  1.
         -3    1    1    2    0  504  0.43417862265E+02  0.68810630859E+02 -0.30945409392E+03  0.31997163925E+03  0.00000000000E+00 0.  1.
<scales pt_clust_3="79.78204" pt_clust_4="40.77813" pt_clust_5="43.00352" pt_clust_6="14000.00000"></scales>
<clustering>
<clus scale="   43.004">  1  5  2 -1</clus>
<clus scale="   40.778">  1  4  2 -1</clus>
<clus scale="   79.782">  1  3  2 -1</clus>
<clus scale="   43.004">  1  3  2 -1</clus>
</clustering>
</event>
<event>
 6    0  0.1230761E+002  0.1903113E+03  0.7546771E-02  0.1158181E+00
          2   -1    0    0  503    0 -0.00000000000E+00  0.00000000000E+00  0.17266103271E+04  0.17266103271E+04  0.00000000000E+00 0. -1.
         21   -1    0    0  501  502  0.00000000000E+00 -0.00000000000E+00 -0.85453008946E+02  0.85453008946E+02  0.00000000000E+00 0. -1.
         21    1    1    2  503  505  0.41681687512E+02 -0.10114060808E+02  0.36948693714E+03  0.37196808198E+03  0.00000000000E+00 0.  1.
         21    1    1    2  504  502  0.64365321340E+02  0.77740486274E+02 -0.58448110116E+01  0.10109717906E+03  0.00000000000E+00 0. -1.
         21    1    1    2  505  504  0.86036510123E+02  0.10316783841E+03  0.30862801424E+03  0.33659639798E+03  0.00000000000E+00 0. -1.
          2    1    1    2  501    0 -0.19208351897E+03 -0.17079426387E+03  0.96888717777E+03  0.10024016770E+04  0.00000000000E+00 0. -1.
<scales pt_clust_3="42.89123" pt_clust_4="101.59717" pt_clust_5="14000.00000" pt_clust_6="190.31125"></scales>
<clustering>
<clus scale="   42.891">  1  3  2 -1</clus>
<clus scale="  101.597">  2  4  1 -1</clus>
<clus scale="  190.311">  1  6  2 -1</clus>
<clus scale="  101.597">  2  3  1 -1</clus>
</clustering>
</event>
<event>
 6    0  0.1230761E+002  0.9527476E+02  0.7546771E-02  0.1290558E+00
         21   -1    0    0  505  502  0.00000000000E+00  0.00000000000E+00  0.17925698098E+03  0.17925698098E+03  0.00000000000E+00 0.  1.
          2   -1    0    0  503    0 -0.00000000000E+00 -0.00000000000E+00 -0.26717285280E+04  0.26717285280E+04  0.00000000000E+00 0. -1.
         21    1    1    2  503  504 -0.72670181477E+01 -0.33710604771E+02 -0.88654752388E+02  0.95125598804E+02  0.00000000000E+00 0. -1.
         21    1    1    2  504  502 -0.12643896193E+02  0.27868728625E+02  0.10730209086E+03  0.11158079068E+03  0.00000000000E+00 0.  1.
         21    1    1    2  505  501  0.86144912766E+01  0.10039773694E+03  0.27042284187E+02  0.10433216271E+03  0.00000000000E+00 0.  1.
          2    1    1    2  501    0  0.11296423064E+02 -0.94555860790E+02 -0.25381611697E+04  0.25399469568E+04  0.00000000000E+00 0. -1.
<scales pt_clust_3="33.35667" pt_clust_4="30.60285" pt_clust_5="14000.00000" pt_clust_6="95.27476"></scales>
<clustering>
<clus scale="   30.603">  1  4  2 -1</clus>
<clus scale="   33.357">  1  3  2 -1</clus>
<clus scale="   95.275">  2  6  1 -1</clus>
<clus scale="   30.603">  1  3  2 -1</clus>
</clustering>
</event>
<event>
 6    0  0.1230761E+002  0.8473695E+02  0.7546771E-02  0.1316122E+00
          2   -1    0    0  505    0 -0.00000000000E+00  0.00000000000E+00  0.34177282109E+03  0.34177282109E+03  0.00000000000E+00 0.  1.
         21   -1    0    0  501  502  0.00000000000E+00 -0.00000000000E+00 -0.13268390138E+03  0.13268390138E+03  0.00000000000E+00 0.  1.
         21    1    1    2  503  504  0.57389946255E+02 -0.47248474048E+01 -0.13114460707E+02  0.59058608126E+02  0.00000000000E+00 0.  1.
         21    1    1    2  504  502  0.39638777767E+02  0.29373882682E+02 -0.72474281569E+02  0.87673138278E+02  0.00000000000E+00 0.  1.
         21    1    1    2  505  503 -0.19291750573E+02  0.38588070492E+02  0.84154845875E+02  0.94568752285E+02  0.00000000000E+00 0.  1.
          2    1    1    2  501    0 -0.77736973449E+02 -0.63237105769E+02  0.21052281611E+03  0.23315622379E+03  0.00000000000E+00 0.  1.
<scales pt_clust_3="14000.00000" pt_clust_4="49.57772" pt_clust_5="43.14175" pt_clust_6="84.73695"></scales>
<clustering>
<clus scale="   43.142">  1  5  2 -1</clus>
<clus scale="   49.578">  2  4  1 -1</clus>
<clus scale="   84.737">  1  6  2 -1</clus>
<clus scale="   49.578">  2  3  1 -1</clus>
</clustering>
</event>
<event>
 6    0  0.1297626E+002  0.1505004E+03  0.7546771E-02  0.1199859E+00
         21   -1    0    0  505  502  0.00000000000E+00  0.00000000000E+00  0.18810892550E+04  0.18810892550E+04  0.00000000000E+00 0.  1.
          2   -1    0    0  502    0 -0.00000000000E+00 -0.00000000000E+00 -0.32888645460E+03  0.32888645460E+03  0.00000000000E+00 0.  1.
         21    1    1    2  503  504 -0.55117620311E+02  0.27093934195E+02  0.17822584177E+03  0.18851123047E+03  0.00000000000E+00 0.  1.
         21    1    1    2  504  501 -0.22671274033E+02  0.44030958839E+02  0.47040992644E+02  0.68304955834E+02  0.00000000000E+00 0. -1.
         21    1    1    2  505  503 -0.13050092398E+01  0.42338398903E+02  0.16244842775E+04  0.16250364337E+04  0.00000000000E+00 0.  1.
          2    1    1    2  501    0  0.79093903584E+02 -0.11346329194E+03 -0.29754831154E+03  0.32812308955E+03  0.00000000000E+00 0.  1.
<scales pt_clust_3="54.57264" pt_clust_4="54.57264" pt_clust_5="42.35851" pt_clust_6="136.20144"></scales>
<clustering>
<clus scale="   42.359">  1  5  2 -1</clus>
<clus scale="   54.573">  3  4 -1 -1</clus>
<clus scale="  136.201">  2  6  1 -1</clus>
<clus scale="   42.359">  1  3  2 -1</clus>
</clustering>
</event>
<event>
 6    0  0.1230761E+002  0.9476448E+02  0.7546771E-02  0.1291707E+00
         21   -1    0    0  504  502  0.00000000000E+00  0.00000000000E+00  0.52424736035E+03  0.52424736035E+03  0.00000000000E+00 0. -1.
          2   -1    0    0  503    0 -0.00000000000E+00 -0.00000000000E+00 -0.32639919291E+03  0.32639919291E+03  0.00000000000E+00 0.  1.
         21    1    1    2  503  502 -0.59364452602E+02  0.48136280476E+02  0.87292817683E+02  0.11602273807E+03  0.00000000000E+00 0. -1.
         21    1    1    2  504  505  0.10699310979E+03  0.49422592047E+02  0.37834852929E+03  0.39627986040E+03  0.00000000000E+00 0. -1.
         21    1    1    2  505  501 -0.78049683810E+02 -0.18733660964E+02 -0.29501389347E+02  0.85516285989E+02  0.00000000000E+00 0.  1.
          2    1    1    2  501    0  0.30421026626E+02 -0.78825211559E+02 -0.23829179019E+03  0.25282766880E+03  0.00000000000E+00 0.  1.
<scales pt_clust_3="76.42800" pt_clust_4="14000.00000" pt_clust_5="94.76448" pt_clust_6="83.35435"></scales>
<clustering>
<clus scale="   76.428">  1  3  2 -1</clus>
<clus scale="   83.354">  2  6  1 -1</clus>
<clus scale="   94.764">  2  5  1 -1</clus>
<clus scale="   76.428">  1  3  2 -1</clus>
</clustering>
</event>
<event>
 6    0  0.1230761E+002  0.1642848E+03  0.7546771E-02  0.1183942E+00
          2   -1    0    0  503    0 -0.00000000000E+00  0.00000000000E+00  0.11265094810E+04  0.11265094810E+04  0.00000000000E+00 0. -1.
         21   -1    0    0  501  502  0.00000000000E+00 -0.00000000000E+00 -0.48984430452E+03  0.48984430452E+03  0.00000000000E+00 0.  1.
         21    1    1    2  503  505  0.67877854471E+02 -0.55671306622E+02  0.12726182250E+03  0.15460358655E+03  0.00000000000E+00 0. -1.
         21    1    1    2  504  502  0.67282574625E+02  0.41434278915E+01 -0.17489300201E+03  0.18743445520E+03  0.00000000000E+00 0.  1.
         21    1    1    2  505  504  0.68543173395E+02  0.67537526889E+02 -0.27611844361E+03  0.29240533350E+03  0.00000000000E+00 0.  1.
          2    1    1    2  501    0 -0.20370360249E+03 -0.16009648159E+02  0.96041479960E+03  0.98191041027E+03  0.00000000000E+00 0. -1.
<scales pt_clust_3="87.78780" pt_clust_4="47.70135" pt_clust_5="47.70135" pt_clust_6="154.08241"></scales>
<clustering>
<clus scale="   47.701">  4  5 -1 -1</clus>
<clus scale="   87.788">  1  3  2 -1</clus>
<clus scale="  154.082">  1  6  2 -1</clus>
<clus scale="  164.285">  2  3  1 -1</clus>
</clustering>
</event>
<event>
 6    0  0.1230761E+002  0.6643443E+02  0.7546771E-02  0.1372656E+00
         21   -1    0    0  504  502  0.00000000000E+00  0.00000000000E+00  0.93797454468E+02  0.93797454468E+02  0.00000000000E+00 0. -1.
          2   -1    0    0  503    0 -0.00000000000E+00 -0.00000000000E+00 -0.18352374666E+04  0.18352374666E+04  0.00000000000E+00 0.  1.
         21    1    1    2  503  502 -0.73994246144E+02  0.61197257925E+02  0.52582269797E+02  0.10947670043E+03  0.00000000000E+00 0. -1.
         21    1    1    2  504  505  0.12255108313E+02 -0.41224971541E+02 -0.68092219394E+02  0.80537173407E+02  0.00000000000E+00 0.  1.
         21    1    1    2  505  501  0.70378994658E+02  0.45552035087E+02 -0.29815053292E+03  0.30971265888E+03  0.00000000000E+00 0.  1.
          2    1    1    2  501    0 -0.86398568273E+01 -0.65524321470E+02 -0.14277795296E+04  0.14293083883E+04  0.00000000000E+00 0.  1.
<scales pt_clust_3="65.09716" pt_clust_4="43.00798" pt_clust_5="14000.00000" pt_clust_6="66.43443"></scales>
<clustering>
<clus scale="   43.008">  1  4  2 -1</clus>
<clus scale="   66.434">  2  6  1 -1</clus>
<clus scale="   65.097">  1  3  2 -1</clus>
<clus scale="   43.008">  1  3  2 -1</clus>
</clustering>
</event>
<event>
 6    0  0.1230761E+002  0.1786092E+03  0.7546771E-02  0.1169156E+00
         21   -1    0    0  505  502  0.00000000000E+00  0.00000000000E+00  0.20960889706E+04  0.20960889706E+04  0.00000000000E+00 0.  1.
         -3   -1    0    0    0  501 -0.00000000000E+00 -0.00000000000E+00 -0.32476980952E+03  0.32476980952E+03  0.00000000000E+00 0.  1.
         21    1    1    2  503  501  0.75620402013E+02  0.10665959275E+03  0.12232245266E+03  0.17904607326E+03  0.00000000000E+00 0. -1.
         21    1    1    2  504  502 -0.11713780542E+03  0.56436590764E+02  0.15729915318E+04  0.15783563328E+04  0.00000000000E+00 0.  1.
         21    1    1    2  505  503 -0.31908681602E+02  0.52624334656E+02  0.32217886070E+03  0.32800412016E+03  0.00000000000E+00 0. -1.
         -3    1    1    2    0  504  0.73426085005E+02 -0.21572051817E+03 -0.24617368406E+03  0.33545225389E+03  0.00000000000E+00 0.  1.
<scales pt_clust_3="132.91600" pt_clust_4="178.60917" pt_clust_5="61.54254" pt_clust_6="14000.00000"></scales>
<clustering>
<clus scale="   61.543">  1  5  2 -1</clus>
<clus scale="  132.916">  2  3  1 -1</clus>
<clus scale="  178.609">  1  4  2 -1</clus>
<clus scale="   61.543">  1  3  2 -1</clus>
</clustering>
</event>
<event>
 6    0  0.1230761E+002  0.1900995E+03  0.7546771E-02  0.1158372E+00
         21   -1    0    0  501  502  0.00000000000E+00  0.00000000000E+00  0.10582684246E+03  0.10582684246E+03  0.00000000000E+00 0. -1.
          1   -1    0    0  505    0 -0.00000000000E+00 -0.00000000000E+00 -0.97092781682E+03  0.97092781682E+03  0.00000000000E+00 0.  1.
         21    1    1    2  503  502 -0.78410135622E+01 -0.38318399579E+02 -0.21713852446E+02  0.44735585701E+02  0.00000000000E+00 0. -1.
         21    1    1    2  504  503 -0.17289836329E+03 -0.28808741872E+02 -0.24131247227E+02  0.17693531227E+03  0.00000000000E+00 0. -1.
         21    1    1    2  505  504 -0.17889978752E+02  0.38863981585E+02 -0.18351626099E+03  0.18843746562E+03  0.00000000000E+00 0.  1.
          1    1    1    2  501    0  0.19862935560E+03  0.28263159867E+02 -0.63573961371E+03  0.66664629568E+03  0.00000000000E+00 0.  1.
<scales pt_clust_3="39.11242" pt_clust_4="190.09952" pt_clust_5="41.96567" pt_clust_6="14000.00000"></scales>
<clustering>
<clus scale="   39.112">  1  3  2 -1</clus>
<clus scale="   41.966">  2  5  1 -1</clus>
<clus scale="  190.100">  1  4  2 -1</clus>
<clus scale="   39.112">  1  3  2 -1</clus>
</clustering>
</event>
<event>
 6    0  0.1230761E+002  0.1807499E+03  0.7546771E-02  0.1167079E+00
          2   -1    0    0  505    0 -0.00000000000E+00  0.00000000000E+00  0.31513822374E+04  0.31513822374E+04  0.00000000000E+00 0.  1.
         21   -1    0    0  504  502  0.00000000000E+00 -0.00000000000E+00 -0.43727801641E+03  0.43727801641E+03  0.00000000000E+00 0. -1.
         21    1    1    2  503  502 -0.10063187713E+02 -0.34497649900E+02 -0.13934166400E+03  0.14390085101E+03  0.00000000000E+00 0. -1.
         21    1    1    2  504  501 -0.32107180471E+02 -0.12737086327E+02 -0.25995795607E+03  0.26224271835E+03  0.00000000000E+00 0. -1.
         21    1    1    2  505  503 -0.10760381787E+03 -0.62825240160E+02  0.90732256264E+02  0.15413609165E+03  0.00000000000E+00 0. -1.
          2    1    1    2  501    0  0.14977418606E+03  0.11005997639E+03  0.30226715848E+04  0.30283805928E+04  0.00000000000E+00 0.  1.
<scales pt_clust_3="57.34281" pt_clust_4="34.54134" pt_clust_5="180.74994" pt_clust_6="14000.00000"></scales>
<clustering>
<clus scale="   34.541">  2  4  1 -1</clus>
<clus scale="   57.343">  2  3  1 -1</clus>
<clus scale="  180.750">  2  5  1 -1</clus>
<clus scale="   34.541">  2  3  1 -1</clus>
</clustering>
</event>
<event>
 6    0  0.1230761E+002  0.5652768E+03  0.7546771E-02  0.9980185E-01
          1   -1    0    0  503    0 -0.00000000000E+00  0.00000000000E+00  0.17667502366E+04  0.17667502366E+04  0.00000000000E+00 0. -1.
         21   -1    0    0  501  502  0.00000000000E+00 -0.00000000000E+00 -0.11995189229E+04  0.11995189229E+04  0.00000000000E+00 0.  1.
         21    1    1    2  503  505 -0.10724393879E+03  0.29758631807E+02  0.16355626659E+03  0.19783197648E+03  0.00000000000E+00 0.  1.
         21    1    1    2  504  502 -0.76618857730E+02 -0.23709939505E+03 -0.52709485558E+03  0.58302277767E+03  0.00000000000E+00 0.  1.
         21    1    1    2  505  504 -0.13445381869E+03 -0.28239470072E+03 -0.52820617064E+03  0.61386183711E+03  0.00000000000E+00 0.  1.
          1    1    1    2  501    0  0.31831661521E+03  0.48973546396E+03  0.14589760734E+04  0.15715525683E+04  0.00000000000E+00 0. -1.
<scales pt_clust_3="111.29618" pt_clust_4="59.51933" pt_clust_5="59.51933" pt_clust_6="561.32978"></scales>
<clustering>
<clus scale="   59.519">  4  5 -1 -1</clus>
<clus scale="  111.296">  1  3  2 -1</clus>
<clus scale="  561.330">  1  6  2 -1</clus>
<clus scale="  565.277">  2  3  1 -1</clus>
</clustering>
</event>
<event>
 6    0  0.1230761E+002  0.1547281E+03  0.7546771E-02  0.1194781E+00
         21   -1    0    0  505  502  0.00000000000E+00  0.00000000000E+00  0.15779908528E+03  0.15779908528E+03  0.00000000000E+00 0.  1.
          2   -1    0    0  503    0 -0.00000000000E+00 -0.00000000000E+00 -0.17852599316E+04  0.17852599316E+04  0.00000000000E+00 0.  1.
         21    1    1    2  503  502  0.99531237727E+02 -0.74325177547E+02 -0.57830266887E+03  0.59149359770E+03  0.00000000000E+00 0.  1.
         21    1    1    2  504  501  0.10508166902E+03  0.28946049688E+02  0.86631146850E+02  0.13922997723E+03  0.00000000000E+00 0.  1.
         21    1    1    2  505  504  0.32192174334E+02 -0.22568047958E+02  0.98308506525E+01  0.40525282251E+02  0.00000000000E+00 0.  1.
          2    1    1    2  501    0 -0.23680508108E+03  0.67947175817E+02 -0.11456201750E+04  0.11718101597E+04  0.00000000000E+00 0.  1.
<scales pt_clust_3="124.22037" pt_clust_4="38.56033" pt_clust_5="38.56033" pt_clust_6="140.77836"></scales>
<clustering>
<clus scale="   38.560">  4  5 -1 -1</clus>
<clus scale="  124.220">  2  3  1 -1</clus>
<clus scale="  140.778">  2  6  1 -1</clus>
<clus scale="  154.728">  1  3  2 -1</clus>
</clustering>
</event>
<event>
 6    0  0.1230761E+002  0.2174928E+03  0.7546771E-02  0.1135766E+00
         21   -1    0    0  504  502  0.00000000000E+00  0.00000000000E+00  0.37728625954E+03  0.37728625954E+03  0.00000000000E+00 0. -1.
          1   -1    0    0  503    0 -0.00000000000E+00 -0.00000000000E+00 -0.19729159242E+04  0.19729159242E+04  0.00000000000E+00 0.  1.
         21    1    1    2  503  502  0.45963439211E+02  0.85903075210E+01 -0.12837421151E+03  0.13662492199E+03  0.00000000000E+00 0.  1.
         21    1    1    2  504  505  0.48461316756E+02  0.12844658720E+03  0.14964036586E+03  0.20307452839E+03  0.00000000000E+00 0. -1.
         21    1    1    2  505  501 -0.26618265835E+03 -0.13931028094E+03  0.75206514754E+02  0.30970402297E+03  0.00000000000E+00 0. -1.
          1    1    1    2  501    0  0.17175790239E+03  0.22733862117E+01 -0.16921023337E+04  0.17007987104E+04  0.00000000000E+00 0.  1.
<scales pt_clust_3="46.75929" pt_clust_4="137.63790" pt_clust_5="14000.00000" pt_clust_6="217.49284"></scales>
<clustering>
<clus scale="   46.759">  2  3  1 -1</clus>
<clus scale="  137.638">  1  4  2 -1</clus>
<clus scale="  217.493">  2  6  1 -1</clus>
<clus scale="  137.638">  1  3  2 -1</clus>
</clustering>
</event>
<event>
 6    0  0.1230761E+002  0.6250504E+02  0.7546771E-02  0.1387610E+00
         21   -1    0    0  504  502  0.00000000000E+00  0.00000000000E+00  0.15222249814E+02  0.15222249814E+02  0.00000000000E+00 0.  1.
          2   -1    0    0  505    0 -0.00000000000E+00 -0.00000000000E+00 -0.23312617215E+04  0.23312617215E+04  0.00000000000E+00 0.  1.
         21    1    1    2  503  502  0.10118200037E+03  0.32115497642E+02 -0.23809428853E+03  0.26068773009E+03  0.00000000000E+00 0.  1.
         21    1    1    2  504  501 -0.45080895813E+02 -0.18406347530E+02 -0.22831964143E+03  0.23345436269E+03  0.00000000000E+00 0.  1.
         21    1    1    2  505  503 -0.88810472096E+01  0.29706299106E+02 -0.35886275414E+03  0.36019968561E+03  0.00000000000E+00 0. -1.
          2    1    1    2  501    0 -0.47220057348E+02 -0.43415449218E+02 -0.14907627876E+04  0.14921421930E+04  0.00000000000E+00 0.  1.
<scales pt_clust_3="62.50504" pt_clust_4="48.47651" pt_clust_5="31.00544" pt_clust_6="14000.00000"></scales>
<clustering>
<clus scale="   31.005">  2  5  1 -1</clus>
<clus scale="   48.477">  1  4  2 -1</clus>
<clus scale="   62.505">  1  3  2 -1</clus>
<clus scale="   48.477">  1  3  2 -1</clus>
</clustering>
</event>
<event>
 6    0  0.1230761E+002  0.1685297E+03  0.7546771E-02  0.1179390E+00
         21   -1    0    0  504  502  0.00000000000E+00  0.00000000000E+00  0.14016607443E+03  0.14016607443E+03  0.00000000000E+00 0.  1.
          2   -1    0    0  505    0 -0.00000000000E+00 -0.00000000000E+00 -0.30849116592E+03  0.30849116592E+03  0.00000000000E+00 0.  1.
         21    1    1    2  503  502 -0.59308726904E+02  0.15860920759E+02  0.39089341554E+02  0.72780976343E+02  0.00000000000E+00 0.  1.
         21    1    1    2  504  501  0.62531012280E+02  0.17506387282E+02 -0.75540557035E+02  0.99614139808E+02  0.00000000000E+00 0. -1.
         21    1    1    2  505  503 -0.99458084258E+02  0.39789026761E+01  0.10841728392E+02  0.10012634651E+03  0.00000000000E+00 0.  1.
          2    1    1    2  501    0  0.96235798883E+02 -0.37346210718E+02 -0.14271560440E+03  0.17613577769E+03  0.00000000000E+00 0.  1.
<scales pt_clust_3="33.35039" pt_clust_4="41.98129" pt_clust_5="165.54102" pt_clust_6="41.98129"></scales>
<clustering>
<clus scale="   33.350">  3  5 -1 -1</clus>
<clus scale="   41.981">  4  6 -1 -1</clus>
<clus scale="  165.541">  1  3  2 -1</clus>
<clus scale="  165.541">  1  3  2 -1</clus>
</clustering>
</event>
<event>
 6    0  0.1230761E+002  0.1595296E+03  0.7546771E-02  0.1189229E+00
          2   -1    0    0  504    0 -0.00000000000E+00  0.00000000000E+00  0.12125425241E+04  0.12125425241E+04  0.00000000000E+00 0.  1.
         21   -1    0    0  503  502  0.00000000000E+00 -0.00000000000E+00 -0.32596743345E+03  0.32596743345E+03  0.00000000000E+00 0.  1.
         21    1    1    2  503  501 -0.25826174638E+01 -0.12116743705E+03  0.71948509828E+02  0.14094256199E+03  0.00000000000E+00 0. -1.
         21    1    1    2  504  505  0.19727371471E+02  0.30916846108E+02  0.31323037735E+03  0.31537008396E+03  0.00000000000E+00 0.  1.
         21    1    1    2  505  502 -0.13257966141E+02  0.16799179764E+03 -0.26381242218E+03  0.31303995246E+03  0.00000000000E+00 0.  1.
          2    1    1    2  501    0 -0.38867878669E+01 -0.77741206704E+02  0.76520862563E+03  0.76915735911E+03  0.00000000000E+00 0.  1.
<scales pt_clust_3="159.52964" pt_clust_4="36.67452" pt_clust_5="14000.00000" pt_clust_6="52.94653"></scales>
<clustering>
<clus scale="   36.675">  1  4  2 -1</clus>
<clus scale="   52.947">  1  6  2 -1</clus>
<clus scale="  159.530">  1  3  2 -1</clus>
<clus scale="  159.530">  2  3  1 -1</clus>
</clustering>
</event>
<event>
 6    0  0.1230761E+002  0.8429838E+02  0.7546771E-02  0.1317278E+00
          1   -1    0    0  504    0 -0.00000000000E+00  0.00000000000E+00  0.51694201580E+03  0.51694201580E+03  0.00000000000E+00 0. -1.
         21   -1    0    0  505  502  0.00000000000E+00 -0.00000000000E+00 -0.11466104913E+03  0.11466104913E+03  0.00000000000E+00 0. -1.
         21    1    1    2  503  502  0.29802798225E+02  0.51890295633E+02  0.68522896864E+02  0.90973605829E+02  0.00000000000E+00 0. -1.
         21    1    1    2  504  503  0.34637974642E+02  0.32288333440E+02  0.27931405467E+03  0.28329960625E+03  0.00000000000E+00 0. -1.
         21    1    1    2  505  501  0.60079362004E+02 -0.38715186004E+02 -0.51119271937E+02  0.87872494727E+02  0.00000000000E+00 0. -1.
          1    1    1    2  501    0 -0.12452013487E+03 -0.45463443069E+02  0.10556328707E+03  0.16945735812E+03  0.00000000000E+00 0. -1.
<scales pt_clust_3="84.29838" pt_clust_4="47.35320" pt_clust_5="72.46824" pt_clust_6="14000.00000"></scales>
<clustering>
<clus scale="   47.353">  1  4  2 -1</clus>
<clus scale="   72.468">  2  5  1 -1</clus>
<clus scale="   84.298">  1  3  2 -1</clus>
<clus scale="   72.468">  2  3  1 -1</clus>
</clustering>
</event>
<event>
 6    0  0.1230761E+002  0.1056079E+03  0.7546771E-02  0.1268927E+00
         -3   -1    0    0    0  501 -0.00000000000E+00  0.00000000000E+00  0.13087181493E+03  0.13087181493E+03  0.00000000000E+00 0.  1.
         21   -1    0    0  503  502  0.00000000000E+00 -0.00000000000E+00 -0.56124134571E+03  0.56124134571E+03  0.00000000000E+00 0.  1.
         21    1    1    2  503  501 -0.54482195495E+02 -0.19403760445E+02  0.26356529101E+01  0.57894405702E+02  0.00000000000E+00 0.  1.
         21    1    1    2  504  505  0.11692327014E+03 -0.33325390786E+02 -0.35520148574E+02  0.12666220323E+03  0.00000000000E+00 0.  1.
         21    1    1    2  505  502 -0.94119382777E+02  0.43456763826E+02 -0.44095388941E+03  0.45297602710E+03  0.00000000000E+00 0.  1.
         -3    1    1    2    0  504  0.31678308130E+02  0.92723874048E+01  0.43468854286E+02  0.54580524614E+02  0.00000000000E+00 0.  1.
<scales pt_clust_3="45.65451" pt_clust_4="105.60786" pt_clust_5="14000.00000" pt_clust_6="33.00746"></scales>
<clustering>
<clus scale="   33.007">  1  6  2 -1</clus>
<clus scale="   45.655">  1  3  2 -1</clus>
<clus scale="  105.608">  1  4  2 -1</clus>
<clus scale="  105.608">  2  3  1 -1</clus>
</clustering>
</event>
<event>
 6    0  0.1230761E+002  0.1884374E+03  0.7546771E-02  0.1159878E+00
          2   -1    0    0  503    0 -0.00000000000E+00  0.00000000000E+00  0.12117169877E+04  0.12117169877E+04  0.00000000000E+00 0.  1.
         21   -1    0    0  501  502  0.00000000000E+00 -0.00000000000E+00 -0.50257837185E+02  0.50257837185E+02  0.00000000000E+00 0.  1.
         21    1    1    2  503  505  0.69475683696E+01 -0.39466769659E+02  0.46372831703E+03  0.46545660016E+03  0.00000000000E+00 0. -1.
         21    1    1    2  504  502 -0.72951029660E+02  0.76087287995E+02  0.96704881127E+02  0.14304881040E+03  0.00000000000E+00 0.  1.
         21    1    1    2  505  504 -0.52704870549E+02  0.72728863324E+02  0.15503876597E+03  0.17917675601E+03  0.00000000000E+00 0.  1.
          2    1    1    2  501    0  0.11870833184E+03 -0.10934938166E+03  0.44598718643E+03  0.47429265837E+03  0.00000000000E+00 0.  1.
<scales pt_clust_3="40.07361" pt_clust_4="45.37624" pt_clust_5="45.37624" pt_clust_6="181.63105"></scales>
<clustering>
<clus scale="   40.074">  1  3  2 -1</clus>
<clus scale="   45.376">  4  5 -1 -1</clus>
<clus scale="  181.631">  1  6  2 -1</clus>
<clus scale="  188.437">  2  3  1 -1</clus>
</clustering>
</event>
<event>
 6    0  0.1230761E+002  0.8880915E+02  0.7546771E-02  0.1305761E+00
          2   -1    0    0  503    0 -0.00000000000E+00  0.00000000000E+00  0.92163705860E+03  0.92163705860E+03  0.00000000000E+00 0. -1.
         21   -1    0    0  504  502  0.00000000000E+00 -0.00000000000E+00 -0.50229285186E+03  0.50229285186E+03  0.00000000000E+00 0. -1.
         21    1    1    2  503  502 -0.44724803401E+02 -0.12249996362E+02  0.96364321485E+02  0.10694135264E+03  0.00000000000E+00 0. -1.
         21    1    1    2  504  505  0.11594761079E+02 -0.58959788843E+02 -0.37267545126E+03  0.37748865831E+03  0.00000000000E+00 0. -1.
         21    1    1    2  505  501 -0.79871817657E+02  0.56562761309E+00 -0.10269653803E+03  0.13010152234E+03  0.00000000000E+00 0. -1.
          2    1    1    2  501    0  0.11300185998E+03  0.70644157592E+02  0.79835187455E+03  0.80939837716E+03  0.00000000000E+00 0. -1.
<scales pt_clust_3="46.37209" pt_clust_4="60.09916" pt_clust_5="14000.00000" pt_clust_6="88.80915"></scales>
<clustering>
<clus scale="   46.372">  1  3  2 -1</clus>
<clus scale="   60.099">  2  4  1 -1</clus>
<clus scale="   88.809">  1  6  2 -1</clus>
<clus scale="   60.099">  2  3  1 -1</clus>
</clustering>
</event>
<event>
 6    0  0.1230761E+002  0.1366851E+03  0.7546771E-02  0.1217860E+00
         21   -1    0    0  501  502  0.00000000000E+00  0.00000000000E+00  0.11147346613E+04  0.11147346613E+04  0.00000000000E+00 0. -1.
          1   -1    0    0  505    0 -0.00000000000E+00 -0.00000000000E+00 -0.49868230301E+03  0.49868230301E+03  0.00000000000E+00 0. -1.
         21    1    1    2  503  504  0.49171708971E+02 -0.14318298582E+01  0.24847316987E+03  0.25329592030E+03  0.00000000000E+00 0.  1.
         21    1    1    2  504  502  0.66148308384E+02  0.44413098644E+02  0.81203952654E+03  0.81593891603E+03  0.00000000000E+00 0. -1.
         21    1    1    2  505  503  0.36196382548E+02  0.38847814845E+02  0.13609668561E+02  0.54813811272E+02  0.00000000000E+00 0.  1.
          1    1    1    2  501    0 -0.15151639990E+03 -0.81829083631E+02 -0.45807000668E+03  0.48936831670E+03  0.00000000000E+00 0. -1.
<scales pt_clust_3="46.01788" pt_clust_4="46.01788" pt_clust_5="53.09737" pt_clust_6="123.50282"></scales>
<clustering>
<clus scale="   46.018">  3  4 -1 -1</clus>
<clus scale="   53.097">  2  5  1 -1</clus>
<clus scale="  123.503">  2  6  1 -1</clus>
<clus scale="  136.685">  1  3  2 -1</clus>
</clustering>
</event>
<event>
 6    0  0.1230761E+002  0.1038130E+03  0.7546771E-02  0.1272476E+00
         21   -1    0    0  504  502  0.00000000000E+00  0.00000000000E+00  0.75655481496E+03  0.75655481496E+03  0.00000000000E+00 0.  1.
          2   -1    0    0  505    0 -0.00000000000E+00 -0.00000000000E+00 -0.94149849312E+03  0.94149849312E+03  0.00000000000E+00 0. -1.
         21    1    1    2  503  502 -0.55628073118E+02 -0.38450610634E+02  0.70682226818E+03  0.71004975232E+03  0.00000000000E+00 0.  1.
         21    1    1    2  504  501  0.61901169895E+01 -0.51435021164E+02  0.15876229466E+02  0.54184256131E+02  0.00000000000E+00 0. -1.
         21    1    1    2  505  503  0.43054058618E+01 -0.58674613213E+02 -0.35239295002E+03  0.35727025902E+03  0.00000000000E+00 0.  1.
          2    1    1    2  501    0  0.45132550267E+02  0.14856024501E+03 -0.55524922579E+03  0.57654904061E+03  0.00000000000E+00 0. -1.
<scales pt_clust_3="103.81300" pt_clust_4="51.80617" pt_clust_5="59.00727" pt_clust_6="14000.00000"></scales>
<clustering>
<clus scale="   51.806">  1  4  2 -1</clus>
<clus scale="   59.007">  2  5  1 -1</clus>
<clus scale="  103.813">  1  3  2 -1</clus>
<clus scale="   51.806">  1  3  2 -1</clus>
</clustering>
</event>
<event>
 6    0  0.1230761E+002  0.1652445E+03  0.7546771E-02  0.1182900E+00
         21   -1    0    0  505  502  0.00000000000E+00  0.00000000000E+00  0.65748344099E+02  0.65748344099E+02  0.00000000000E+00 0.  1.
          1   -1    0    0  503    0 -0.00000000000E+00 -0.00000000000E+00 -0.17500780681E+04  0.17500780681E+04  0.00000000000E+00 0. -1.
         21    1    1    2  503  504 -0.26145224250E+02 -0.16140365260E+02 -0.13754723926E+03  0.14093731645E+03  0.00000000000E+00 0.  1.
         21    1    1    2  504  502 -0.44822048865E+02  0.34113420731E+02 -0.19110280791E+03  0.19923108375E+03  0.00000000000E+00 0.  1.
         21    1    1    2  505  501 -0.14610779601E+03 -0.65307942075E+02 -0.76601411909E+02  0.17742714466E+03  0.00000000000E+00 0.  1.
          1    1    1    2  501    0  0.21707506913E+03  0.47334886603E+02 -0.12790782649E+04  0.12982308673E+04  0.00000000000E+00 0. -1.
<scales pt_clust_3="30.72595" pt_clust_4="57.76805" pt_clust_5="165.24445" pt_clust_6="14000.00000"></scales>
<clustering>
<clus scale="   30.726">  2  3  1 -1</clus>
<clus scale="   57.768">  2  4  1 -1</clus>
<clus scale="  165.244">  1  5  2 -1</clus>
<clus scale="  165.244">  1  3  2 -1</clus>
</clustering>
</event>
<event>
 6    0  0.1230761E+002  0.6721219E+02  0.7546771E-02  0.1369838E+00
          4   -1    0    0  505    0 -0.00000000000E+00  0.00000000000E+00  0.59840054848E+03  0.59840054848E+03  0.00000000000E+00 0. -1.
         21   -1    0    0  503  502  0.00000000000E+00 -0.00000000000E+00 -0.39934148560E+03  0.39934148560E+03  0.00000000000E+00 0.  1.
         21    1    1    2  503  501  0.51047435528E+02 -0.55141371962E+02 -0.25095818830E+03  0.26196645558E+03  0.00000000000E+00 0.  1.
         21    1    1    2  504  502 -0.18054911477E+02  0.57001469353E+02 -0.10839557696E+03  0.12379316799E+03  0.00000000000E+00 0.  1.
         21    1    1    2  505  504 -0.66959614915E+02 -0.34708903272E+02  0.29534575240E+02  0.80997463729E+02  0.00000000000E+00 0.  1.
          4    1    1    2  501    0  0.33967090863E+02  0.32848805882E+02  0.52887825290E+03  0.53098494677E+03  0.00000000000E+00 0. -1.
<scales pt_clust_3="67.21219" pt_clust_4="14000.00000" pt_clust_5="40.38256" pt_clust_6="47.25259"></scales>
<clustering>
<clus scale="   47.253">  1  6  2 -1</clus>
<clus scale="   40.383">  1  5  2 -1</clus>
<clus scale="   67.212">  2  3  1 -1</clus>
<clus scale="   67.212">  2  3  1 -1</clus>
</clustering>
</event>
<event>
 6    0  0.1230761E+002  0.1448240E+03  0.7546771E-02  0.1206981E+00
         21   -1    0    0  504  502  0.00000000000E+00  0.00000000000E+00  0.18629527811E+03  0.18629527811E+03  0.00000000000E+00 0. -1.
         -1   -1    0    0    0  501 -0.00000000000E+00 -0.00000000000E+00 -0.18701327132E+03  0.18701327132E+03  0.00000000000E+00 0. -1.
         21    1    1    2  503  501 -0.23379380166E+02 -0.30042311190E+02 -0.44241991289E+02  0.58365140896E+02  0.00000000000E+00 0. -1.
         21    1    1    2  504  505  0.97167523642E+02 -0.16118534264E+02  0.64137827818E+02  0.11753721009E+03  0.00000000000E+00 0. -1.
         21    1    1    2  505  503  0.48342911503E+02  0.22409862539E+02  0.32182014760E+02  0.62248864292E+02  0.00000000000E+00 0. -1.
         -1    1    1    2    0  502 -0.12213105498E+03  0.23750982916E+02 -0.52795844500E+02  0.13515733416E+03  0.00000000000E+00 0. -1.
<scales pt_clust_3="38.06752" pt_clust_4="31.48710" pt_clust_5="31.48710" pt_clust_6="138.35226"></scales>
<clustering>
<clus scale="   31.487">  4  5 -1 -1</clus>
<clus scale="   38.068">  2  3  1 -1</clus>
<clus scale="  138.352">  2  6  1 -1</clus>
<clus scale="  144.824">  1  3  2 -1</clus>
</clustering>
</event>
<event>
 6    0  0.1230761E+002  0.9836098E+02  0.7546771E-02  0.1283781E+00
          1   -1    0    0  505    0 -0.00000000000E+00  0.00000000000E+00  0.94649352538E+03  0.94649352538E+03  0.00000000000E+00 0. -1.
         21   -1    0    0  504  502  0.00000000000E+00 -0.00000000000E+00 -0.27379151518E+03  0.27379151518E+03  0.00000000000E+00 0. -1.
         21    1    1    2  503  502  0.47773516989E+02  0.27097388492E+02 -0.22988022803E+03  0.23635036837E+03  0.00000000000E+00 0. -1.
         21    1    1    2  504  501  0.44701861600E+02  0.76404256288E+01 -0.12320656311E+02  0.46993947549E+02  0.00000000000E+00 0. -1.
         21    1    1    2  505  503 -0.99775960004E+02 -0.86814904630E+02  0.44883360188E+03  0.46791417165E+03  0.00000000000E+00 0. -1.
          1    1    1    2  501    0  0.73005814142E+01  0.52077090509E+02  0.46606929266E+03  0.46902655299E+03  0.00000000000E+00 0. -1.
<scales pt_clust_3="14000.00000" pt_clust_4="45.35011" pt_clust_5="98.36098" pt_clust_6="52.67039"></scales>
<clustering>
<clus scale="   45.350">  2  4  1 -1</clus>
<clus scale="   52.670">  1  6  2 -1</clus>
<clus scale="   98.361">  1  5  2 -1</clus>
<clus scale="   45.350">  2  3  1 -1</clus>
</clustering>
</event>
<event>
 6    0  0.1230761E+002  0.7905938E+02  0.7546771E-02  0.1331742E+00
          1   -1    0    0  505    0 -0.00000000000E+00  0.00000000000E+00  0.23091798728E+04  0.23091798728E+04  0.00000000000E+00 0.  1.
         21   -1    0    0  503  502  0.00000000000E+00 -0.00000000000E+00 -0.21350916956E+02  0.21350916956E+02  0.00000000000E+00 0.  1.
         21    1    1    2  503  501 -0.35218870754E+02 -0.43222739484E+02  0.23538316453E+03  0.24189627573E+03  0.00000000000E+00 0.  1.
         21    1    1    2  504  502  0.48847560913E+02  0.77938697298E+02  0.13573630435E+03  0.16396606070E+03  0.00000000000E+00 0.  1.
         21    1    1    2  505  504  0.29814906331E+02 -0.92579961108E+02  0.85948936997E+03  0.86497511809E+03  0.00000000000E+00 0.  1.
          1    1    1    2  501    0 -0.43443596490E+02  0.57864003294E+02  0.10572201170E+04  0.10596933353E+04  0.00000000000E+00 0.  1.
<scales pt_clust_3="55.75459" pt_clust_4="49.11660" pt_clust_5="79.05938" pt_clust_6="14000.00000"></scales>
<clustering>
<clus scale="   55.755">  2  3  1 -1</clus>
<clus scale="   49.117">  2  4  1 -1</clus>
<clus scale="   79.059">  2  5  1 -1</clus>
<clus scale="   55.755">  2  3  1 -1</clus>
</clustering>
</event>
<event>
 6    0  0.1230761E+002  0.7284398E+02  0.7546771E-02  0.1350681E+00
         -1   -1    0    0    0  501 -0.00000000000E+00  0.00000000000E+00  0.55027390412E+03  0.55027390412E+03  0.00000000000E+00 0. -1.
         21   -1    0    0  505  502  0.00000000000E+00 -0.00000000000E+00 -0.12870622281E+03  0.12870622281E+03  0.00000000000E+00 0. -1.
         21    1    1    2  503  501  0.51315547889E+01 -0.31272826135E+02  0.26294755938E+03  0.26485041343E+03  0.00000000000E+00 0. -1.
         21    1    1    2  504  502  0.23565929493E+02  0.63850625973E+02 -0.74699568114E+02  0.10105583084E+03  0.00000000000E+00 0. -1.
         21    1    1    2  505  503 -0.34010483534E+02 -0.90097219236E+02  0.28746328740E+02  0.10050160855E+03  0.00000000000E+00 0. -1.
         -1    1    1    2    0  504  0.53129992522E+01  0.57519419398E+02  0.20457336130E+03  0.21257227412E+03  0.00000000000E+00 0. -1.
<scales pt_clust_3="31.69105" pt_clust_4="14000.00000" pt_clust_5="72.84398" pt_clust_6="35.90223"></scales>
<clustering>
<clus scale="   31.691">  1  3  2 -1</clus>
<clus scale="   35.902">  1  6  2 -1</clus>
<clus scale="   72.844">  1  5  2 -1</clus>
<clus scale="   72.844">  2  3  1 -1</clus>
</clustering>
</event>
<event>
 6    0  0.1230761E+002  0.1793898E+03  0.7546771E-02  0.1168395E+00
          2   -1    0    0  503    0 -0.00000000000E+00  0.00000000000E+00  0.67692678711E+03  0.67692678711E+03  0.00000000000E+00 0.  1.
         21   -1    0    0  505  502  0.00000000000E+00 -0.00000000000E+00 -0.65888009809E+03  0.65888009809E+03  0.00000000000E+00 0. -1.
         21    1    1    2  503  502 -0.10639241829E+03  0.43164756431E+02 -0.56923963534E+03  0.58070328509E+03  0.00000000000E+00 0. -1.
         21    1    1    2  504  501  0.94926855428E+02 -0.79442765704E+02  0.35376041699E+03  0.37479153343E+03  0.00000000000E+00 0.  1.
         21    1    1    2  505  504 -0.30056924877E+02  0.58767041867E+02 -0.56243775655E+02  0.86719929905E+02  0.00000000000E+00 0.  1.
          2    1    1    2  501    0  0.41522487740E+02 -0.22489032594E+02  0.28976968303E+03  0.29359213678E+03  0.00000000000E+00 0.  1.
<scales pt_clust_3="169.06650" pt_clust_4="37.04446" pt_clust_5="66.00745" pt_clust_6="37.04446"></scales>
<clustering>
<clus scale="   37.044">  4  6 -1 -1</clus>
<clus scale="   66.007">  2  5  1 -1</clus>
<clus scale="  169.067">  2  3  1 -1</clus>
<clus scale="   66.007">  2  3  1 -1</clus>
</clustering>
</event>
<event>
 6    0  0.1230761E+002  0.1522510E+03  0.7546771E-02  0.1197734E+00
         21   -1    0    0  505  502  0.00000000000E+00  0.00000000000E+00  0.34438886197E+03  0.34438886197E+03  0.00000000000E+00 0. -1.
          1   -1    0    0  503    0 -0.00000000000E+00 -0.00000000000E+00 -0.14384649262E+04  0.14384649262E+04  0.00000000000E+00 0. -1.
         21    1    1    2  503  504  0.46762713430E+01 -0.76039443820E+02 -0.12078687623E+03  0.14280523099E+03  0.00000000000E+00 0.  1.
         21    1    1    2  504  502  0.25991462030E+01 -0.42234531524E+02  0.11505051241E+02  0.43850626199E+02  0.00000000000E+00 0. -1.
         21    1    1    2  505  501  0.54088614347E+02 -0.99761749769E+02  0.28478972867E+03  0.30656675370E+03  0.00000000000E+00 0. -1.
          1    1    1    2  501    0 -0.61364031893E+02  0.21803572511E+03 -0.12695839680E+04  0.12896311773E+04  0.00000000000E+00 0. -1.
<scales pt_clust_3="77.65399" pt_clust_4="42.31443" pt_clust_5="14000.00000" pt_clust_6="152.25096"></scales>
<clustering>
<clus scale="   42.314">  1  4  2 -1</clus>
<clus scale="   77.654">  2  3  1 -1</clus>
<clus scale="  152.251">  2  6  1 -1</clus>
<clus scale="   42.314">  1  3  2 -1</clus>
</clustering>
</event>
<event>
 6    0  0.1230761E+002  0.2030068E+03  0.7546771E-02  0.1147227E+00
         21   -1    0    0  501  502  0.00000000000E+00  0.00000000000E+00  0.14182774057E+03  0.14182774057E+03  0.00000000000E+00 0.  1.
          2   -1    0    0  505    0 -0.00000000000E+00 -0.00000000000E+00 -0.10515474493E+04  0.10515474493E+04  0.00000000000E+00 0. -1.
         21    1    1    2  503  502  0.37899488129E+02 -0.18444209502E+02  0.22049776794E+02  0.47568400449E+02  0.00000000000E+00 0.  1.
         21    1    1    2  504  503  0.72817994730E+01 -0.76608218800E+02  0.32014812142E+02  0.83347417403E+02  0.00000000000E+00 0.  1.
         21    1    1    2  505  504  0.75047307098E+02 -0.10884812392E+03 -0.97116163535E+02  0.16404743705E+03  0.00000000000E+00 0.  1.
          2    1    1    2  501    0 -0.12022859470E+03  0.20390055222E+03 -0.86666813417E+03  0.89841193501E+03  0.00000000000E+00 0. -1.
<scales pt_clust_3="41.46885" pt_clust_4="119.23075" pt_clust_5="14000.00000" pt_clust_6="203.00675"></scales>
<clustering>
<clus scale="   41.469">  3  4 -1 -1</clus>
<clus scale="  119.231">  1  3  2 -1</clus>
<clus scale="  203.007">  2  6  1 -1</clus>
<clus scale="  119.231">  1  3  2 -1</clus>
</clustering>
</event>
<event>
 6    0  0.1230761E+002  0.1183988E+03  0.7546771E-02  0.1245762E+00
         21   -1    0    0  501  502  0.00000000000E+00  0.00000000000E+00  0.80738707986E+02  0.80738707986E+02  0.00000000000E+00 0.  1.
          1   -1    0    0  505    0 -0.00000000000E+00 -0.00000000000E+00 -0.19055382712E+04  0.19055382712E+04  0.00000000000E+00 0. -1.
         21    1    1    2  503  504  0.41886627924E+02 -0.13196640204E+03 -0.78874031442E+02  0.15934470089E+03  0.00000000000E+00 0.  1.
         21    1    1    2  504  502  0.15519927573E+02  0.27796184825E+02  0.29271925535E+02  0.43247446945E+02  0.00000000000E+00 0.  1.
         21    1    1    2  505  503  0.37537513814E+01  0.42934464015E+02 -0.14697114635E+03  0.15315997098E+03  0.00000000000E+00 0. -1.
          1    1    1    2  501    0 -0.61160306878E+02  0.61235753200E+02 -0.16282263110E+04  0.16305248604E+04  0.00000000000E+00 0. -1.
<scales pt_clust_3="118.39879" pt_clust_4="31.83545" pt_clust_5="45.12784" pt_clust_6="14000.00000"></scales>
<clustering>
<clus scale="   31.835">  1  4  2 -1</clus>
<clus scale="   45.128">  2  5  1 -1</clus>
<clus scale="  118.399">  1  3  2 -1</clus>
<clus scale="   31.835">  1  3  2 -1</clus>
</clustering>
</event>
<event>
 6    0  0.1230761E+002  0.8870325E+02  0.7546771E-02  0.1306023E+00
         21   -1    0    0  504  502  0.00000000000E+00  0.00000000000E+00  0.46142550886E+02  0.46142550886E+02  0.00000000000E+00 0. -1.
          2   -1    0    0  505    0 -0.00000000000E+00 -0.00000000000E+00 -0.26591482831E+04  0.26591482831E+04  0.00000000000E+00 0.  1.
         21    1    1    2  503  501 -0.23926057411E+02  0.58009264927E+02 -0.27469892900E+03  0.28177479063E+03  0.00000000000E+00 0.  1.
         21    1    1    2  504  503 -0.41066444582E+02 -0.89394430484E+02 -0.22021964060E+02  0.10081063423E+03  0.00000000000E+00 0. -1.
         21    1    1    2  505  502  0.51952022574E+02 -0.10969615944E+02 -0.23398370711E+03  0.23993274123E+03  0.00000000000E+00 0.  1.
          2    1    1    2  501    0  0.13040479419E+02  0.42354781501E+02 -0.20823011320E+04  0.20827726679E+04  0.00000000000E+00 0.  1.
<scales pt_clust_3="14000.00000" pt_clust_4="88.70325" pt_clust_5="57.67126" pt_clust_6="44.31683"></scales>
<clustering>
<clus scale="   44.317">  2  6  1 -1</clus>
<clus scale="   57.671">  2  5  1 -1</clus>
<clus scale="   88.703">  1  4  2 -1</clus>
<clus scale="   88.703">  1  3  2 -1</clus>
</clustering>
</event>
<event>
 6    0  0.1230761E+002  0.7074273E+02  0.7546771E-02  0.1357585E+00
          2   -1    0    0  505    0 -0.00000000000E+00  0.00000000000E+00  0.22491058388E+04  0.22491058388E+04  0.00000000000E+00 0.  1.
         21   -1    0    0  503  502  0.00000000000E+00 -0.00000000000E+00 -0.99852372281E+02  0.99852372281E+02  0.00000000000E+00 0. -1.
         21    1    1    2  503  504 -0.17478668977E+02 -0.64719290391E+02 -0.62597812645E+02  0.91720099029E+02  0.00000000000E+00 0. -1.
         21    1    1    2  504  501  0.39995354492E+02  0.10062494699E+03  0.12494763474E+03  0.16533880296E+03  0.00000000000E+00 0. -1.
         21    1    1    2  505  502 -0.38871110069E+02  0.15162767487E+02  0.20354223409E+03  0.20777467068E+03  0.00000000000E+00 0. -1.
          2    1    1    2  501    0  0.16354424554E+02 -0.51068424088E+02  0.18833614103E+04  0.18841246384E+04  0.00000000000E+00 0.  1.
<scales pt_clust_3="70.74273" pt_clust_4="14000.00000" pt_clust_5="41.72377" pt_clust_6="41.89440"></scales>
<clustering>
<clus scale="   41.724">  1  5  2 -1</clus>
<clus scale="   41.894">  1  6  2 -1</clus>
<clus scale="   70.743">  2  3  1 -1</clus>
<clus scale="   70.743">  2  3  1 -1</clus>
</clustering>
</event>
<event>
 6    0  0.1230761E+002  0.1592239E+03  0.7546771E-02  0.1189576E+00
         21   -1    0    0  504  502  0.00000000000E+00  0.00000000000E+00  0.13902182558E+03  0.13902182558E+03  0.00000000000E+00 0.  1.
          2   -1    0    0  505    0 -0.00000000000E+00 -0.00000000000E+00 -0.16359835912E+04  0.16359835912E+04  0.00000000000E+00 0.  1.
         21    1    1    2  503  502  0.74799853204E+02  0.98068877723E+02  0.85130365645E+02  0.14986561304E+03  0.00000000000E+00 0.  1.
         21    1    1    2  504  501  0.19193148704E+02  0.33279322930E+02 -0.18409380033E+02  0.42600417428E+02  0.00000000000E+00 0.  1.
         21    1    1    2  505  503 -0.25142928331E+02  0.28528741766E+02 -0.78879919373E+02  0.87567674584E+02  0.00000000000E+00 0. -1.
          2    1    1    2  501    0 -0.68850073577E+02 -0.15987694242E+03 -0.14848028319E+04  0.14949717117E+04  0.00000000000E+00 0.  1.
<scales pt_clust_3="159.22388" pt_clust_4="38.66253" pt_clust_5="38.02704" pt_clust_6="14000.00000"></scales>
<clustering>
<clus scale="   38.027">  2  5  1 -1</clus>
<clus scale="   38.663">  1  4  2 -1</clus>
<clus scale="  159.224">  1  3  2 -1</clus>
<clus scale="   38.663">  1  3  2 -1</clus>
</clustering>
</event>
<event>
 6    0  0.1230761E+002  0.1062622E+03  0.7546771E-02  0.1267653E+00
         21   -1    0    0  503  502  0.00000000000E+00  0.00000000000E+00  0.25389888636E+03  0.25389888636E+03  0.00000000000E+00 0. -1.
          2   -1    0    0  505    0 -0.00000000000E+00 -0.00000000000E+00 -0.28763853986E+03  0.28763853986E+03  0.00000000000E+00 0.  1.
         21    1    1    2  503  501 -0.30088371274E+02  0.43583310667E+02  0.24650118994E+02  0.58416122954E+02  0.00000000000E+00 0. -1.
         21    1    1    2  504  502  0.35855747855E+02  0.64424603147E+02  0.14618641192E+03  0.16372730736E+03  0.00000000000E+00 0. -1.
         21    1    1    2  505  504  0.40715159426E+02  0.56010072126E+02 -0.30243921100E+02  0.75561545446E+02  0.00000000000E+00 0. -1.
          2    1    1    2  501    0 -0.46482536007E+02 -0.16401798594E+03 -0.17433226332E+03  0.24383245046E+03  0.00000000000E+00 0.  1.
<scales pt_clust_3="52.96050" pt_clust_4="14000.00000" pt_clust_5="71.31817" pt_clust_6="106.26220"></scales>
<clustering>
<clus scale="   52.961">  1  3  2 -1</clus>
<clus scale="   71.318">  2  5  1 -1</clus>
<clus scale="  106.262">  2  6  1 -1</clus>
<clus scale="   52.961">  1  3  2 -1</clus>
</clustering>
</event>
<event>
 6    0  0.1230761E+002  0.1669841E+03  0.7546771E-02  0.1181030E+00
         21   -1    0    0  504  502  0.00000000000E+00  0.00000000000E+00  0.95024492644E+02  0.95024492644E+02  0.00000000000E+00 0. -1.
         -1   -1    0    0    0  501 -0.00000000000E+00 -0.00000000000E+00 -0.21027658304E+04  0.21027658304E+04  0.00000000000E+00 0. -1.
         21    1    1    2  503  505  0.47469668988E+02  0.37146857334E+02 -0.36354294097E+02  0.70391002145E+02  0.00000000000E+00 0. -1.
         21    1    1    2  504  503  0.82022556914E+02  0.40104657042E+02  0.31965488666E+02  0.96736114377E+02  0.00000000000E+00 0. -1.
         21    1    1    2  505  501  0.49455812273E+02 -0.90029680348E+02 -0.28453858608E+03  0.30251186370E+03  0.00000000000E+00 0.  1.
         -1    1    1    2    0  502 -0.17894803817E+03  0.12778165972E+02 -0.17188139463E+04  0.17281513429E+04  0.00000000000E+00 0. -1.
<scales pt_clust_3="58.45722" pt_clust_4="58.45722" pt_clust_5="102.71914" pt_clust_6="150.69016"></scales>
<clustering>
<clus scale="   58.457">  3  4 -1 -1</clus>
<clus scale="  102.719">  2  5  1 -1</clus>
<clus scale="  150.690">  2  6  1 -1</clus>
<clus scale="  166.984">  1  3  2 -1</clus>
</clustering>
</event>
<event>
 6    0  0.1230761E+002  0.1034916E+03  0.7546771E-02  0.1273120E+00
         21   -1    0    0  503  502  0.00000000000E+00  0.00000000000E+00  0.10141734102E+03  0.10141734102E+03  0.00000000000E+00 0. -1.
          2   -1    0    0  505    0 -0.00000000000E+00 -0.00000000000E+00 -0.46814845259E+03  0.46814845259E+03  0.00000000000E+00 0. -1.
         21    1    1    2  503  504 -0.21847280917E+02 -0.20703270214E+02 -0.47121361427E+01  0.30465280371E+02  0.00000000000E+00 0.  1.
         21    1    1    2  504  501 -0.56553412286E+02 -0.23346363347E+02  0.49788958589E+02  0.78881439643E+02  0.00000000000E+00 0. -1.
         21    1    1    2  505  502 -0.56144998652E+02 -0.45393366228E+01 -0.71172981291E+02  0.90765961222E+02  0.00000000000E+00 0. -1.
          2    1    1    2  501    0  0.13454569186E+03  0.48588970184E+02 -0.34063495273E+03  0.36945311237E+03  0.00000000000E+00 0. -1.
<scales pt_clust_3="30.06779" pt_clust_4="30.06779" pt_clust_5="56.32820" pt_clust_6="94.19536"></scales>
<clustering>
<clus scale="   30.068">  3  4 -1 -1</clus>
<clus scale="   56.328">  2  5  1 -1</clus>
<clus scale="   94.195">  2  6  1 -1</clus>
<clus scale="  103.492">  1  3  2 -1</clus>
</clustering>
</event>
<event>
 6    0  0.1230761E+002  0.8559068E+02  0.7546771E-02  0.1313895E+00
         21   -1    0    0  504  502  0.00000000000E+00  0.00000000000E+00  0.65196836071E+02  0.65196836071E+02  0.00000000000E+00 0. -1.
          2   -1    0    0  505    0 -0.00000000000E+00 -0.00000000000E+00 -0.79510311369E+03  0.79510311369E+03  0.00000000000E+00 0. -1.
         21    1    1    2  503  502 -0.51520118525E+02  0.86693482265E+01 -0.77740285702E+02  0.93664466221E+02  0.00000000000E+00 0. -1.
         21    1    1    2  504  501 -0.24203216871E+02 -0.75040914073E+02 -0.11656110454E+01  0.78856154744E+02  0.00000000000E+00 0. -1.
         21    1    1    2  505  503  0.12221424351E+02 -0.44866634602E+02 -0.42872363332E+03  0.43123813825E+03  0.00000000000E+00 0. -1.
          2    1    1    2  501    0  0.63501911045E+02  0.11123820045E+03 -0.22227674755E+03  0.25654119055E+03  0.00000000000E+00 0. -1.
<scales pt_clust_3="48.68709" pt_clust_4="85.59068" pt_clust_5="46.50138" pt_clust_6="14000.00000"></scales>
<clustering>
<clus scale="   46.501">  2  5  1 -1</clus>
<clus scale="   48.687">  2  3  1 -1</clus>
<clus scale="   85.591">  1  4  2 -1</clus>
<clus scale="   85.591">  1  3  2 -1</clus>
</clustering>
</event>
<event>
 6    0  0.1230761E+002  0.1034603E+03  0.7546771E-02  0.1273183E+00
         -1   -1    0    0    0  501 -0.00000000000E+00  0.00000000000E+00  0.99306874935E+03  0.99306874935E+03  0.00000000000E+00 0. -1.
         21   -1    0    0  504  502  0.00000000000E+00 -0.00000000000E+00 -0.24704884374E+03  0.24704884374E+03  0.00000000000E+00 0.  1.
         21    1    1    2  503  505  0.59813334159E+02 -0.67301548261E+02  0.12061670257E+03  0.15051751486E+03  0.00000000000E+00 0. -1.
         21    1    1    2  504  501 -0.52343389128E+01  0.33917885497E+02  0.19502968314E+03  0.19802625726E+03  0.00000000000E+00 0. -1.
         21    1    1    2  505  502 -0.98761495546E+02  0.37163349846E+02 -0.21773102822E+03  0.24195402088E+03  0.00000000000E+00 0.  1.
         -1    1    1    2    0  503  0.44182500299E+02 -0.37796870820E+01  0.64810454812E+03  0.64961980008E+03  0.00000000000E+00 0. -1.
<scales pt_clust_3="103.46032" pt_clust_4="34.31940" pt_clust_5="14000.00000" pt_clust_6="46.50064"></scales>
<clustering>
<clus scale="   34.319">  1  4  2 -1</clus>
<clus scale="   46.501">  1  6  2 -1</clus>
<clus scale="  103.460">  1  3  2 -1</clus>
<clus scale="  103.460">  2  3  1 -1</clus>
</clustering>
</event>
<event>
 6    0  0.1230761E+002  0.1729109E+03  0.7546771E-02  0.1174846E+00
          2   -1    0    0  503    0 -0.00000000000E+00  0.00000000000E+00  0.20321473556E+04  0.20321473556E+04  0.00000000000E+00 0.  1.
         21   -1    0    0  504  502  0.00000000000E+00 -0.00000000000E+00 -0.32419310905E+03  0.32419310905E+03  0.00000000000E+00 0. -1.
         21    1    1    2  503  502 -0.61634902797E+02 -0.63762063944E+02  0.41079364807E+03  0.42025692539E+03  0.00000000000E+00 0. -1.
         21    1    1    2  504  505 -0.56399787043E+02  0.12066821395E+03 -0.25330363634E+03  0.28618959803E+03  0.00000000000E+00 0. -1.
         21    1    1    2  505  501  0.14096333742E+02  0.34257265979E+02 -0.39371019621E+02  0.54058709597E+02  0.00000000000E+00 0.  1.
          2    1    1    2  501    0  0.10393835610E+03 -0.91163415986E+02  0.15898352545E+04  0.15958352317E+04  0.00000000000E+00 0.  1.
<scales pt_clust_3="88.68180" pt_clust_4="34.65777" pt_clust_5="34.65777" pt_clust_6="159.93505"></scales>
<clustering>
<clus scale="   34.658">  4  5 -1 -1</clus>
<clus scale="   88.682">  1  3  2 -1</clus>
<clus scale="  159.935">  1  6  2 -1</clus>
<clus scale="  172.911">  2  3  1 -1</clus>
</clustering>
</event>
<event>
 6    0  0.1230761E+002  0.8581009E+02  0.7546771E-02  0.1313328E+00
          1   -1    0    0  503    0 -0.00000000000E+00  0.00000000000E+00  0.13636183864E+04  0.13636183864E+04  0.00000000000E+00 0. -1.
         21   -1    0    0  504  502  0.00000000000E+00 -0.00000000000E+00 -0.49501696227E+02  0.49501696227E+02  0.00000000000E+00 0.  1.
         21    1    1    2  503  505  0.11904819842E+02 -0.11942684446E+03  0.86766214544E+02  0.14809750808E+03  0.00000000000E+00 0.  1.
         21    1    1    2  504  501 -0.54832603473E+02  0.31387238900E+02  0.89053864909E+02  0.10918957837E+03  0.00000000000E+00 0.  1.
         21    1    1    2  505  502  0.29652555488E+02  0.48642899879E+01  0.24267807529E+02  0.38624627459E+02  0.00000000000E+00 0.  1.
          1    1    1    2  501    0  0.13275228143E+02  0.83175315570E+02  0.11140288032E+04  0.11172083687E+04  0.00000000000E+00 0. -1.
<scales pt_clust_3="14000.00000" pt_clust_4="57.80964" pt_clust_5="30.04888" pt_clust_6="85.81009"></scales>
<clustering>
<clus scale="   30.049">  2  5  1 -1</clus>
<clus scale="   57.810">  2  4  1 -1</clus>
<clus scale="   85.810">  1  6  2 -1</clus>
<clus scale="   30.049">  2  3  1 -1</clus>
</clustering>
</event>
<event>
 6    0  0.1335057E+002  0.1897707E+03  0.7546771E-02  0.1158668E+00
         21   -1    0    0  504  502  0.00000000000E+00  0.00000000000E+00  0.59992073376E+03  0.59992073376E+03  0.00000000000E+00 0. -1.
          2   -1    0    0  503    0 -0.00000000000E+00 -0.00000000000E+00 -0.51290809929E+04  0.51290809929E+04  0.00000000000E+00 0.  1.
         21    1    1    2  503  505  0.61076693970E+01  0.30701770047E+02 -0.10170171373E+03  0.10641024803E+03  0.00000000000E+00 0. -1.
         21    1    1    2  504  501 -0.39190987061E+02  0.15592972715E+02  0.34341220576E+02  0.54391117800E+02  0.00000000000E+00 0.  1.
         21    1    1    2  505  502 -0.13571426745E+03 -0.89998897045E+02  0.53966408888E+03  0.56369805098E+03  0.00000000000E+00 0. -1.
          2    1    1    2  501    0  0.16879758512E+03  0.43704154283E+02 -0.50014638548E+04  0.50045023098E+04  0.00000000000E+00 0.  1.
<scales pt_clust_3="31.30339" pt_clust_4="42.19044" pt_clust_5="14000.00000" pt_clust_6="189.77066"></scales>
<clustering>
<clus scale="   31.303">  2  3  1 -1</clus>
<clus scale="   42.190">  1  4  2 -1</clus>
<clus scale="  189.771">  2  6  1 -1</clus>
<clus scale="   42.190">  1  3  2 -1</clus>
</clustering>
</event>
<event>
 6    0  0.1230761E+002  0.1464325E+03  0.7546771E-02  0.1204927E+00
          2   -1    0    0  503    0 -0.00000000000E+00  0.00000000000E+00  0.28808479706E+04  0.28808479706E+04  0.00000000000E+00 0.  1.
         21   -1    0    0  505  502  0.00000000000E+00 -0.00000000000E+00 -0.14948012955E+02  0.14948012955E+02  0.00000000000E+00 0.  1.
         21    1    1    2  503  502 -0.47806433387E+02 -0.19662048869E+02  0.26738770484E+03  0.27233845843E+03  0.00000000000E+00 0.  1.
         21    1    1    2  504  501 -0.22723684285E+02  0.49977051725E+02  0.15062886113E+03  0.16032194277E+03  0.00000000000E+00 0.  1.
         21    1    1    2  505  504 -0.63380633214E+02  0.28113921141E+02  0.22464817753E+03  0.23510487212E+03  0.00000000000E+00 0.  1.
          2    1    1    2  501    0  0.13391075089E+03 -0.58428923997E+02  0.22232352142E+04  0.22280307103E+04  0.00000000000E+00 0.  1.
<scales pt_clust_3="51.69189" pt_clust_4="39.96685" pt_clust_5="39.96685" pt_clust_6="139.37400"></scales>
<clustering>
<clus scale="   39.967">  4  5 -1 -1</clus>
<clus scale="   51.692">  2  3  1 -1</clus>
<clus scale="  139.374">  1  6  2 -1</clus>
<clus scale="   51.692">  2  3  1 -1</clus>
</clustering>
</event>
<event>
 6    0  0.1230761E+002  0.1259286E+03  0.7546771E-02  0.1233625E+00
         21   -1    0    0  501  502  0.00000000000E+00  0.00000000000E+00  0.14866423638E+03  0.14866423638E+03  0.00000000000E+00 0.  1.
          1   -1    0    0  504    0 -0.00000000000E+00 -0.00000000000E+00 -0.23402917198E+03  0.23402917198E+03  0.00000000000E+00 0.  1.
         21    1    1    2  503  502  0.54399813531E+02 -0.12727962860E+02  0.50367391638E+02  0.75221106687E+02  0.00000000000E+00 0.  1.
         21    1    1    2  504  505  0.30572231594E+02 -0.58328110902E+01 -0.34358706269E+02  0.46359505243E+02  0.00000000000E+00 0. -1.
         21    1    1    2  505  503  0.39190689542E+02 -0.49745443688E+02  0.27986868817E+02  0.69237158669E+02  0.00000000000E+00 0.  1.
          1    1    1    2  501    0 -0.12416273467E+03  0.68306217637E+02 -0.12936048979E+03  0.19187563776E+03  0.00000000000E+00 0.  1.
<scales pt_clust_3="42.60970" pt_clust_4="31.12367" pt_clust_5="42.60970" pt_clust_6="117.43643"></scales>
<clustering>
<clus scale="   31.124">  2  4  1 -1</clus>
<clus scale="   42.610">  3  5 -1 -1</clus>
<clus scale="  117.436">  2  6  1 -1</clus>
<clus scale="  125.929">  1  3  2 -1</clus>
</clustering>
</event>
<event>
 6    0  0.1230761E+002  0.1153348E+03  0.7546771E-02  0.1250998E+00
         21   -1    0    0  503  502  0.00000000000E+00  0.00000000000E+00  0.11584442066E+03  0.11584442066E+03  0.00000000000E+00 0.  1.
          1   -1    0    0  504    0 -0.00000000000E+00 -0.00000000000E+00 -0.12582528842E+04  0.12582528842E+04  0.00000000000E+00 0. -1.
         21    1    1    2  503  505  0.31816606771E+02 -0.35567765480E+02 -0.40100702179E+02  0.62333207225E+02  0.00000000000E+00 0. -1.
         21    1    1    2  504  502  0.44419553648E+02  0.39186865708E+01 -0.11277266477E+03  0.12126882027E+03  0.00000000000E+00 0. -1.
         21    1    1    2  505  501 -0.86597104082E+02 -0.69180213262E+02  0.66732089080E+02  0.12937593306E+03  0.00000000000E+00 0.  1.
          1    1    1    2  501    0  0.10360943663E+02  0.10082929217E+03 -0.10562671856E+04  0.10611193442E+04  0.00000000000E+00 0. -1.
<scales pt_clust_3="48.94598" pt_clust_4="44.59207" pt_clust_5="14000.00000" pt_clust_6="115.33481"></scales>
<clustering>
<clus scale="   44.592">  2  4  1 -1</clus>
<clus scale="   48.946">  1  3  2 -1</clus>
<clus scale="  115.335">  2  6  1 -1</clus>
<clus scale="   48.946">  1  3  2 -1</clus>
</clustering>
</event>
<event>
 6    0  0.1230761E+002  0.1486158E+03  0.7546771E-02  0.1202184E+00
         -4   -1    0    0    0  501 -0.00000000000E+00  0.00000000000E+00  0.24370139172E+03  0.24370139172E+03  0.00000000000E+00 0.  1.
         21   -1    0    0  503  502  0.00000000000E+00 -0.00000000000E+00 -0.48404593457E+03  0.48404593457E+03  0.00000000000E+00 0. -1.
         21    1    1    2  503  505 -0.40215208972E+02 -0.49949419735E+02 -0.24797479559E+03  0.25613220573E+03  0.00000000000E+00 0. -1.
         21    1    1    2  504  501 -0.66699031952E+02 -0.26716924613E+02  0.20889083074E+02  0.74825855931E+02  0.00000000000E+00 0. -1.
         21    1    1    2  505  504 -0.29089988878E+02 -0.67625151072E+02 -0.14229826144E+03  0.16021293244E+03  0.00000000000E+00 0. -1.
         -4    1    1    2    0  502  0.13600422980E+03  0.14429149542E+03  0.12903943110E+03  0.23657633219E+03  0.00000000000E+00 0.  1.
<scales pt_clust_3="45.75393" pt_clust_4="71.85092" pt_clust_5="45.75393" pt_clust_6="140.29767"></scales>
<clustering>
<clus scale="   45.754">  3  5 -1 -1</clus>
<clus scale="   71.851">  1  4  2 -1</clus>
<clus scale="  140.298">  1  6  2 -1</clus>
<clus scale="  148.616">  2  3  1 -1</clus>
</clustering>
</event>
<event>
 6    0  0.1230761E+002  0.3100104E+03  0.7546771E-02  0.1080341E+00
         21   -1    0    0  503  502  0.00000000000E+00  0.00000000000E+00  0.11110335897E+04  0.11110335897E+04  0.00000000000E+00 0. -1.
          2   -1    0    0  505    0 -0.00000000000E+00 -0.00000000000E+00 -0.47874132351E+03  0.47874132351E+03  0.00000000000E+00 0. -1.
         21    1    1    2  503  504  0.69796901436E+02  0.39329322261E+01  0.16425899569E+03  0.17851636640E+03  0.00000000000E+00 0. -1.
         21    1    1    2  504  501 -0.35199757505E+03 -0.11768265925E+03  0.81050487159E+03  0.89144245355E+03  0.00000000000E+00 0. -1.
         21    1    1    2  505  502 -0.18174886618E+02  0.59301769216E+02 -0.14104494824E+03  0.15408018613E+03  0.00000000000E+00 0. -1.
          2    1    1    2  501    0  0.30037556023E+03  0.54447957812E+02 -0.20142665284E+03  0.36573590714E+03  0.00000000000E+00 0. -1.
<scales pt_clust_3="69.60091" pt_clust_4="310.01043" pt_clust_5="62.02440" pt_clust_6="14000.00000"></scales>
<clustering>
<clus scale="   62.024">  2  5  1 -1</clus>
<clus scale="   69.601">  1  3  2 -1</clus>
<clus scale="  310.010">  1  4  2 -1</clus>
<clus scale="   69.601">  1  3  2 -1</clus>
</clustering>
</event>
<event>
 6    0  0.1230761E+002  0.1283259E+03  0.7546771E-02  0.1229961E+00
          1   -1    0    0  504    0 -0.00000000000E+00  0.00000000000E+00  0.21858263346E+04  0.21858263346E+04  0.00000000000E+00 0. -1.
         21   -1    0    0  503  502  0.00000000000E+00 -0.00000000000E+00 -0.17988375872E+03  0.17988375872E+03  0.00000000000E+00 0. -1.
         21    1    1    2  503  501  0.12828978809E+03 -0.53055330107E+02 -0.11865440658E+03  0.18262531583E+03  0.00000000000E+00 0. -1.
         21    1    1    2  504  505  0.69593451670E+02  0.12510725162E+02  0.34572600912E+03  0.35288275693E+03  0.00000000000E+00 0. -1.
         21    1    1    2  505  502 -0.94960829716E+02  0.21005790917E+02  0.74236251242E+02  0.12235122979E+03  0.00000000000E+00 0. -1.
          1    1    1    2  501    0 -0.10292241004E+03  0.19538814028E+02  0.17046347221E+04  0.17078507907E+04  0.00000000000E+00 0. -1.
<scales pt_clust_3="14000.00000" pt_clust_4="70.70903" pt_clust_5="128.32591" pt_clust_6="49.34920"></scales>
<clustering>
<clus scale="   70.709">  1  4  2 -1</clus>
<clus scale="   49.349">  1  6  2 -1</clus>
<clus scale="  128.326">  1  5  2 -1</clus>
<clus scale="  128.326">  2  3  1 -1</clus>
</clustering>
</event>
<event>
 6    0  0.1230761E+002  0.2455549E+03  0.7546771E-02  0.1116147E+00
         -1   -1    0    0    0  501 -0.00000000000E+00  0.00000000000E+00  0.82214772887E+03  0.82214772887E+03  0.00000000000E+00 0.  1.
         21   -1    0    0  504  502  0.00000000000E+00 -0.00000000000E+00 -0.25309548121E+03  0.25309548121E+03  0.00000000000E+00 0.  1.
         21    1    1    2  503  505 -0.57606257240E+02  0.11109313807E+01 -0.11152733439E+02  0.58686442258E+02  0.00000000000E+00 0.  1.
         21    1    1    2  504  501  0.32998335846E+02  0.36783139753E+01  0.43596568493E+03  0.43722819969E+03  0.00000000000E+00 0. -1.
         21    1    1    2  505  502 -0.12550334595E+03  0.13841879727E+03 -0.13567795158E+03  0.23090985216E+03  0.00000000000E+00 0.  1.
         -1    1    1    2    0  503  0.15011126734E+03 -0.14320804262E+03  0.27991724775E+03  0.34841871598E+03  0.00000000000E+00 0.  1.
<scales pt_clust_3="52.96365" pt_clust_4="33.20271" pt_clust_5="52.96365" pt_clust_6="225.80545"></scales>
<clustering>
<clus scale="   33.203">  1  4  2 -1</clus>
<clus scale="   52.964">  3  5 -1 -1</clus>
<clus scale="  225.805">  1  6  2 -1</clus>
<clus scale="  245.555">  2  3  1 -1</clus>
</clustering>
</event>
<event>
 6    0  0.1230761E+002  0.9398135E+02  0.7546771E-02  0.1293487E+00
          1   -1    0    0  503    0 -0.00000000000E+00  0.00000000000E+00  0.49181086597E+02  0.49181086597E+02  0.00000000000E+00 0.  1.
         21   -1    0    0  504  502  0.00000000000E+00 -0.00000000000E+00 -0.19133370801E+04  0.19133370801E+04  0.00000000000E+00 0. -1.
         21    1    1    2  503  502 -0.81887370639E+02  0.55860918593E+02 -0.26907989975E+02  0.10271330791E+03  0.00000000000E+00 0.  1.
         21    1    1    2  504  505  0.31071905245E+02 -0.31184044120E+02 -0.28865145286E+03  0.29198898805E+03  0.00000000000E+00 0. -1.
         21    1    1    2  505  501  0.67243316475E+02  0.47687505486E+02 -0.13929292707E+04  0.13953665164E+04  0.00000000000E+00 0. -1.
          1    1    1    2  501    0 -0.16427851081E+02 -0.72364379960E+02 -0.15566728001E+03  0.17244935443E+03  0.00000000000E+00 0.  1.
<scales pt_clust_3="93.98135" pt_clust_4="44.02168" pt_clust_5="14000.00000" pt_clust_6="76.67654"></scales>
<clustering>
<clus scale="   44.022">  2  4  1 -1</clus>
<clus scale="   76.677">  1  6  2 -1</clus>
<clus scale="   93.981">  1  3  2 -1</clus>
<clus scale="   44.022">  2  3  1 -1</clus>
</clustering>
</event>
<event>
 6    0  0.1230761E+002  0.2564865E+03  0.7546771E-02  0.1109273E+00
         -2   -1    0    0    0  501 -0.00000000000E+00  0.00000000000E+00  0.94496960906E+03  0.94496960906E+03  0.00000000000E+00 0. -1.
         21   -1    0    0  505  502  0.00000000000E+00 -0.00000000000E+00 -0.57316787066E+03  0.57316787066E+03  0.00000000000E+00 0. -1.
         21    1    1    2  503  502 -0.39442257774E+01 -0.40327395659E+02 -0.38424002092E+03  0.38637061151E+03  0.00000000000E+00 0. -1.
         21    1    1    2  504  501  0.26661858571E+01 -0.54704794059E+02  0.18551807684E+03  0.19343391604E+03  0.00000000000E+00 0. -1.
         21    1    1    2  505  504 -0.24923717571E+03 -0.55359261855E+01 -0.56541883583E+02  0.25563020329E+03  0.00000000000E+00 0.  1.
         -2    1    1    2    0  503  0.25051521563E+03  0.10056811590E+03  0.62706556606E+03  0.68270274888E+03  0.00000000000E+00 0. -1.
<scales pt_clust_3="40.51982" pt_clust_4="55.61444" pt_clust_5="256.48649" pt_clust_6="14000.00000"></scales>
<clustering>
<clus scale="   40.520">  2  3  1 -1</clus>
<clus scale="   55.614">  1  4  2 -1</clus>
<clus scale="  256.486">  2  5  1 -1</clus>
<clus scale="   40.520">  2  3  1 -1</clus>
</clustering>
</event>
<event>
 6    0  0.1230761E+002  0.8634717E+02  0.7546771E-02  0.1311947E+00
         21   -1    0    0  501  502  0.00000000000E+00  0.00000000000E+00  0.35942635277E+03  0.35942635277E+03  0.00000000000E+00 0. -1.
          2   -1    0    0  503    0 -0.00000000000E+00 -0.00000000000E+00 -0.88395878128E+03  0.88395878128E+03  0.00000000000E+00 0.  1.
         21    1    1    2  503  504  0.43384161655E+02  0.56496742025E+01 -0.90933839984E+02  0.10091118647E+03  0.00000000000E+00 0.  1.
         21    1    1    2  504  505  0.38556562039E+02 -0.35749918084E+02  0.17325362619E+03  0.18105657709E+03  0.00000000000E+00 0. -1.
         21    1    1    2  505  502 -0.15427932318E+02 -0.49298016248E+02  0.17000822083E+03  0.17768261213E+03  0.00000000000E+00 0.  1.
          2    1    1    2  501    0 -0.66512791376E+02  0.79398260130E+02 -0.77686043556E+03  0.78373475836E+03  0.00000000000E+00 0.  1.
<scales pt_clust_3="43.75048" pt_clust_4="14000.00000" pt_clust_5="51.56675" pt_clust_6="86.34717"></scales>
<clustering>
<clus scale="   43.750">  2  3  1 -1</clus>
<clus scale="   51.567">  1  5  2 -1</clus>
<clus scale="   86.347">  2  6  1 -1</clus>
<clus scale="   51.567">  1  3  2 -1</clus>
</clustering>
</event>
<event>
 6    0  0.1230761E+002  0.5025389E+03  0.7546771E-02  0.1013118E+00
         21   -1    0    0  503  502  0.00000000000E+00  0.00000000000E+00  0.54883281775E+03  0.54883281775E+03  0.00000000000E+00 0. -1.
          2   -1    0    0  504    0 -0.00000000000E+00 -0.00000000000E+00 -0.45891513362E+03  0.45891513362E+03  0.00000000000E+00 0. -1.
         21    1    1    2  503  501  0.80757148249E+01 -0.53733370135E+02 -0.27461283822E+01  0.54406189511E+02  0.00000000000E+00 0.  1.
         21    1    1    2  504  505  0.18647604297E+03  0.31917094668E+03  0.54605508949E+02  0.37366451452E+03  0.00000000000E+00 0. -1.
         21    1    1    2  505  502  0.15254830151E+02  0.12810388703E+03 -0.17748560804E+02  0.13022414187E+03  0.00000000000E+00 0. -1.
          2    1    1    2  501    0 -0.20980658794E+03 -0.39354146357E+03  0.55806864365E+02  0.44945310546E+03  0.00000000000E+00 0. -1.
<scales pt_clust_3="35.43989" pt_clust_4="64.16022" pt_clust_5="64.16022" pt_clust_6="501.05763"></scales>
<clustering>
<clus scale="   35.440">  3  6 -1 -1</clus>
<clus scale="   64.160">  4  5 -1 -1</clus>
<clus scale="  501.058">  1  3  2 -1</clus>
<clus scale="  501.058">  1  3  2 -1</clus>
</clustering>
</event>
<event>
 6    0  0.1230761E+002  0.1093696E+03  0.7546771E-02  0.1261742E+00
          2   -1    0    0  503    0 -0.00000000000E+00  0.00000000000E+00  0.12839274934E+04  0.12839274934E+04  0.00000000000E+00 0.  1.
         21   -1    0    0  501  502  0.00000000000E+00 -0.00000000000E+00 -0.14265154894E+03  0.14265154894E+03  0.00000000000E+00 0.  1.
         21    1    1    2  503  504  0.22149485582E+02 -0.41286859736E+02  0.70648661196E+02  0.84772860204E+02  0.00000000000E+00 0.  1.
         21    1    1    2  504  505  0.56466445090E+02 -0.88787368402E+01  0.19012013504E+03  0.19852696828E+03  0.00000000000E+00 0. -1.
         21    1    1    2  505  502  0.69654795984E+01  0.11018915807E+03 -0.10492781150E+03  0.15231550837E+03  0.00000000000E+00 0.  1.
          2    1    1    2  501    0 -0.85581410270E+02 -0.60023561498E+02  0.98543495974E+03  0.99096370549E+03  0.00000000000E+00 0.  1.
<scales pt_clust_3="46.85301" pt_clust_4="62.01095" pt_clust_5="14000.00000" pt_clust_6="109.36962"></scales>
<clustering>
<clus scale="   46.853">  1  3  2 -1</clus>
<clus scale="   62.011">  1  4  2 -1</clus>
<clus scale="  109.370">  1  6  2 -1</clus>
<clus scale="  109.370">  2  3  1 -1</clus>
</clustering>
</event>
<event>
 6    0  0.1230761E+002  0.8564520E+02  0.7546771E-02  0.1313754E+00
         21   -1    0    0  501  502  0.00000000000E+00  0.00000000000E+00  0.67185889771E+02  0.67185889771E+02  0.00000000000E+00 0. -1.
          1   -1    0    0  504    0 -0.00000000000E+00 -0.00000000000E+00 -0.39853161105E+03  0.39853161105E+03  0.00000000000E+00 0.  1.
         21    1    1    2  503  505 -0.28962573840E+02  0.32085308310E+02 -0.25705315804E+02  0.50289769867E+02  0.00000000000E+00 0. -1.
         21    1    1    2  504  503 -0.67254652101E+02  0.28692409080E+02 -0.17787818884E+03  0.19232028659E+03  0.00000000000E+00 0. -1.
         21    1    1    2  505  502 -0.34508062778E+02 -0.67517793827E+01 -0.44289854215E+01  0.35440214917E+02  0.00000000000E+00 0. -1.
          1    1    1    2  501    0  0.13072528872E+03 -0.54025938007E+02 -0.12333323122E+03  0.18766722945E+03  0.00000000000E+00 0.  1.
<scales pt_clust_3="48.06900" pt_clust_4="85.64520" pt_clust_5="35.16238" pt_clust_6="14000.00000"></scales>
<clustering>
<clus scale="   35.162">  1  5  2 -1</clus>
<clus scale="   48.069">  1  3  2 -1</clus>
<clus scale="   85.645">  2  4  1 -1</clus>
<clus scale="   35.162">  1  3  2 -1</clus>
</clustering>
</event>
<event>
 6    0  0.1230761E+002  0.1042157E+03  0.7546771E-02  0.1271673E+00
         21   -1    0    0  504  502  0.00000000000E+00  0.00000000000E+00  0.10116889895E+04  0.10116889895E+04  0.00000000000E+00 0. -1.
          2   -1    0    0  503    0 -0.00000000000E+00 -0.00000000000E+00 -0.11959052635E+04  0.11959052635E+04  0.00000000000E+00 0.  1.
         21    1    1    2  503  502 -0.13356206465E+02  0.30860072500E+02 -0.31721459639E+03  0.31899190035E+03  0.00000000000E+00 0.  1.
         21    1    1    2  504  505 -0.48130396902E+02  0.19186696699E+02  0.71833354959E+03  0.72019980069E+03  0.00000000000E+00 0. -1.
         21    1    1    2  505  501 -0.42995413361E+02  0.13229891697E+02  0.28551012362E+03  0.28903229283E+03  0.00000000000E+00 0. -1.
          2    1    1    2  501    0  0.10448201673E+03 -0.63276660896E+02 -0.87084535084E+03  0.87937025917E+03  0.00000000000E+00 0.  1.
<scales pt_clust_3="33.62636" pt_clust_4="36.00646" pt_clust_5="36.00646" pt_clust_6="96.79035"></scales>
<clustering>
<clus scale="   33.626">  2  3  1 -1</clus>
<clus scale="   36.006">  4  5 -1 -1</clus>
<clus scale="   96.790">  2  6  1 -1</clus>
<clus scale="  104.216">  1  3  2 -1</clus>
</clustering>
</event>
<event>
 6    0  0.1230761E+002  0.1298820E+03  0.7546771E-02  0.1227631E+00
         21   -1    0    0  501  502  0.00000000000E+00  0.00000000000E+00  0.61787350685E+02  0.61787350685E+02  0.00000000000E+00 0.  1.
          2   -1    0    0  505    0 -0.00000000000E+00 -0.00000000000E+00 -0.89158423750E+03  0.89158423750E+03  0.00000000000E+00 0.  1.
         21    1    1    2  503  504  0.22949964477E+02  0.43744898257E+02 -0.23540807200E+02  0.54721902349E+02  0.00000000000E+00 0.  1.
         21    1    1    2  504  502 -0.13410016791E+02  0.72628696721E+02 -0.18523272698E+02  0.76143730991E+02  0.00000000000E+00 0.  1.
         21    1    1    2  505  503  0.34612336765E+02  0.28413769720E+02 -0.45216987637E+03  0.45438194646E+03  0.00000000000E+00 0.  1.
          2    1    1    2  501    0 -0.44152284451E+02 -0.14478736470E+03 -0.33556293055E+03  0.36812400839E+03  0.00000000000E+00 0.  1.
<scales pt_clust_3="33.94379" pt_clust_4="33.94379" pt_clust_5="44.78120" pt_clust_6="123.07204"></scales>
<clustering>
<clus scale="   33.944">  3  4 -1 -1</clus>
<clus scale="   44.781">  2  5  1 -1</clus>
<clus scale="  123.072">  2  6  1 -1</clus>
<clus scale="  129.882">  1  3  2 -1</clus>
</clustering>
</event>
<event>
 6    0  0.1230761E+002  0.2835307E+03  0.7546771E-02  0.1093776E+00
          2   -1    0    0  503    0 -0.00000000000E+00  0.00000000000E+00  0.81582868340E+03  0.81582868340E+03  0.00000000000E+00 0. -1.
         21   -1    0    0  505  502  0.00000000000E+00 -0.00000000000E+00 -0.81045910106E+03  0.81045910106E+03  0.00000000000E+00 0. -1.
         21    1    1    2  503  502  0.32219783843E+02 -0.57996167050E+01  0.94834067275E+01  0.34083500817E+02  0.00000000000E+00 0.  1.
         21    1    1    2  504  501  0.11695871570E+03 -0.10014982493E+03 -0.30353802273E+03  0.34035960374E+03  0.00000000000E+00 0. -1.
         21    1    1    2  505  504  0.66525255036E+02 -0.95354993095E+02 -0.44033069840E+03  0.45542212092E+03  0.00000000000E+00 0. -1.
          2    1    1    2  501    0 -0.21570375458E+03  0.20130443473E+03  0.73975489675E+03  0.79642255898E+03  0.00000000000E+00 0. -1.
<scales pt_clust_3="32.73759" pt_clust_4="77.82163" pt_clust_5="77.82163" pt_clust_6="268.98007"></scales>
<clustering>
<clus scale="   32.738">  1  3  2 -1</clus>
<clus scale="   77.822">  4  5 -1 -1</clus>
<clus scale="  268.980">  1  6  2 -1</clus>
<clus scale="  283.531">  2  3  1 -1</clus>
</clustering>
</event>
<event>
 6    0  0.1230761E+002  0.1850580E+03  0.7546771E-02  0.1162996E+00
         21   -1    0    0  503  502  0.00000000000E+00  0.00000000000E+00  0.23569736493E+03  0.23569736493E+03  0.00000000000E+00 0.  1.
         -1   -1    0    0    0  501 -0.00000000000E+00 -0.00000000000E+00 -0.82570433935E+03  0.82570433935E+03  0.00000000000E+00 0.  1.
         21    1    1    2  503  501  0.95973756635E+02 -0.44802438693E+02 -0.15080183846E+03  0.18428080464E+03  0.00000000000E+00 0.  1.
         21    1    1    2  504  505  0.14357025108E+02  0.33952254196E+02  0.36661001894E+01  0.37044838042E+02  0.00000000000E+00 0.  1.
         21    1    1    2  505  502  0.93445747776E+02  0.97615126828E+02  0.15314424738E+03  0.20424000898E+03  0.00000000000E+00 0.  1.
         -1    1    1    2    0  504 -0.20377652952E+03 -0.86764942331E+02 -0.59601548353E+03  0.63583605262E+03  0.00000000000E+00 0.  1.
<scales pt_clust_3="105.91610" pt_clust_4="35.79708" pt_clust_5="35.79708" pt_clust_6="171.89818"></scales>
<clustering>
<clus scale="   35.797">  4  5 -1 -1</clus>
<clus scale="  105.916">  2  3  1 -1</clus>
<clus scale="  171.898">  2  6  1 -1</clus>
<clus scale="  185.058">  1  3  2 -1</clus>
</clustering>
</event>
<event>
 6    0  0.1230761E+002  0.1398964E+03  0.7546771E-02  0.1213468E+00
          2   -1    0    0  503    0 -0.00000000000E+00  0.00000000000E+00  0.25215262391E+04  0.25215262391E+04  0.00000000000E+00 0. -1.
         21   -1    0    0  505  502  0.00000000000E+00 -0.00000000000E+00 -0.24151651690E+02  0.24151651690E+02  0.00000000000E+00 0.  1.
         21    1    1    2  503  504 -0.11838692766E+02  0.39887329890E+02  0.45829047960E+03  0.46017531162E+03  0.00000000000E+00 0.  1.
         21    1    1    2  504  502 -0.52477855818E+02 -0.10715405354E+03  0.17317202607E+03  0.21029614156E+03  0.00000000000E+00 0.  1.
         21    1    1    2  505  501 -0.32220701937E+02 -0.16044734952E+02  0.13872612363E+03  0.14331972834E+03  0.00000000000E+00 0.  1.
          2    1    1    2  501    0  0.96537250521E+02  0.83311458604E+02  0.17271859581E+04  0.17318867093E+04  0.00000000000E+00 0. -1.
<scales pt_clust_3="41.36746" pt_clust_4="14000.00000" pt_clust_5="35.99454" pt_clust_6="139.89643"></scales>
<clustering>
<clus scale="   35.995">  2  5  1 -1</clus>
<clus scale="   41.367">  1  3  2 -1</clus>
<clus scale="  139.896">  1  6  2 -1</clus>
<clus scale="   35.995">  2  3  1 -1</clus>
</clustering>
</event>
<event>
 6    0  0.1230761E+002  0.1321099E+03  0.7546771E-02  0.1224358E+00
         21   -1    0    0  501  502  0.00000000000E+00  0.00000000000E+00  0.29704240135E+03  0.29704240135E+03  0.00000000000E+00 0.  1.
          1   -1    0    0  505    0 -0.00000000000E+00 -0.00000000000E+00 -0.10208692106E+04  0.10208692106E+04  0.00000000000E+00 0.  1.
         21    1    1    2  503  502 -0.64563789897E+02 -0.11493238220E+03  0.25990095757E+03  0.29142141855E+03  0.00000000000E+00 0.  1.
         21    1    1    2  504  503 -0.32212908397E+02 -0.15513858782E+02 -0.28152548898E+02  0.45507332279E+02  0.00000000000E+00 0.  1.
         21    1    1    2  505  504  0.32080414938E+02 -0.39779823389E+01 -0.32174505343E+02  0.45608948247E+02  0.00000000000E+00 0. -1.
          1    1    1    2  501    0  0.64696283355E+02  0.13442422332E+03 -0.92340071255E+03  0.93537391284E+03  0.00000000000E+00 0.  1.
<scales pt_clust_3="132.10995" pt_clust_4="34.74094" pt_clust_5="32.32611" pt_clust_6="14000.00000"></scales>
<clustering>
<clus scale="   32.326">  2  5  1 -1</clus>
<clus scale="   34.741">  2  4  1 -1</clus>
<clus scale="  132.110">  1  3  2 -1</clus>
<clus scale="  132.110">  1  3  2 -1</clus>
</clustering>
</event>
<event>
 6    0  0.1230761E+002  0.1325852E+03  0.7546771E-02  0.1223669E+00
         21   -1    0    0  505  502  0.00000000000E+00  0.00000000000E+00  0.11223427386E+04  0.11223427386E+04  0.00000000000E+00 0. -1.
          1   -1    0    0  503    0 -0.00000000000E+00 -0.00000000000E+00 -0.68358595117E+03  0.68358595117E+03  0.00000000000E+00 0.  1.
         21    1    1    2  503  504 -0.10460965044E+03  0.20239374777E+02 -0.10768805527E+03  0.15149101790E+03  0.00000000000E+00 0. -1.
         21    1    1    2  504  502  0.13831113172E+02  0.49904770491E+02  0.91401598980E+03  0.91548184877E+03  0.00000000000E+00 0. -1.
         21    1    1    2  505  501 -0.17437109913E+02  0.35555523531E+02  0.17307395280E+03  0.17754672961E+03  0.00000000000E+00 0. -1.
          1    1    1    2  501    0  0.10821564718E+03 -0.10569966880E+03 -0.54064509987E+03  0.56140909352E+03  0.00000000000E+00 0.  1.
<scales pt_clust_3="14000.00000" pt_clust_4="84.30205" pt_clust_5="39.60111" pt_clust_6="132.58517"></scales>
<clustering>
<clus scale="   39.601">  1  5  2 -1</clus>
<clus scale="   84.302">  1  4  2 -1</clus>
<clus scale="  132.585">  2  6  1 -1</clus>
<clus scale="   39.601">  1  3  2 -1</clus>
</clustering>
</event>
<event>
 6    0  0.1230761E+002  0.4128877E+03  0.7546771E-02  0.1039406E+00
          2   -1    0    0  503    0 -0.00000000000E+00  0.00000000000E+00  0.47836635316E+03  0.47836635316E+03  0.00000000000E+00 0.  1.
         21   -1    0    0  501  502  0.00000000000E+00 -0.00000000000E+00 -0.45541219433E+03  0.45541219433E+03  0.00000000000E+00 0.  1.
         21    1    1    2  503  505  0.42794432570E+02  0.56475394310E+01  0.10234959096E+03  0.11107968730E+03  0.00000000000E+00 0.  1.
         21    1    1    2  504  502 -0.94481402726E+02  0.91800311636E+02  0.41397975569E+02  0.13808629569E+03  0.00000000000E+00 0.  1.
         21    1    1    2  505  504 -0.15067350112E+03  0.23822755801E+03 -0.46818711946E+02  0.28573915574E+03  0.00000000000E+00 0.  1.
          2    1    1    2  501    0  0.20236047128E+03 -0.33567540908E+03 -0.73974695760E+02  0.39887340875E+03  0.00000000000E+00 0.  1.
<scales pt_clust_3="43.16547" pt_clust_4="69.32563" pt_clust_5="69.32563" pt_clust_6="399.87120"></scales>
<clustering>
<clus scale="   43.165">  1  3  2 -1</clus>
<clus scale="   69.326">  4  5 -1 -1</clus>
<clus scale="  399.871">  2  6  1 -1</clus>
<clus scale="  399.871">  2  3  1 -1</clus>
</clustering>
</event>
<event>
 6    0  0.1230761E+002  0.1198174E+03  0.7546771E-02  0.1243399E+00
          2   -1    0    0  502    0 -0.00000000000E+00  0.00000000000E+00  0.40775416007E+04  0.40775416007E+04  0.00000000000E+00 0. -1.
         21   -1    0    0  503  502  0.00000000000E+00 -0.00000000000E+00 -0.14154468387E+03  0.14154468387E+03  0.00000000000E+00 0. -1.
         21    1    1    2  503  505 -0.73480276765E+02 -0.10755199604E+02 -0.42487591857E+02  0.85558289218E+02  0.00000000000E+00 0. -1.
         21    1    1    2  504  501  0.71380144435E+02 -0.15715652270E+02  0.24797298019E+03  0.25852022290E+03  0.00000000000E+00 0. -1.
         21    1    1    2  505  504 -0.42017688981E+02 -0.17000713780E+02 -0.64861284726E+02  0.79129619693E+02  0.00000000000E+00 0. -1.
          2    1    1    2  501    0  0.44117821311E+02  0.43471565654E+02  0.37953728132E+04  0.37958781527E+04  0.00000000000E+00 0. -1.
<scales pt_clust_3="30.13799" pt_clust_4="113.43745" pt_clust_5="30.13799" pt_clust_6="61.93674"></scales>
<clustering>
<clus scale="   30.138">  3  5 -1 -1</clus>
<clus scale="   61.937">  1  6  2 -1</clus>
<clus scale="  113.437">  1  4  2 -1</clus>
<clus scale="  119.817">  2  3  1 -1</clus>
</clustering>
</event>
<event>
 6    0  0.1230761E+002  0.1269686E+03  0.7546771E-02  0.1232024E+00
          2   -1    0    0  505    0 -0.00000000000E+00  0.00000000000E+00  0.31890522475E+03  0.31890522475E+03  0.00000000000E+00 0.  1.
         21   -1    0    0  504  502  0.00000000000E+00 -0.00000000000E+00 -0.16120858597E+03  0.16120858597E+03  0.00000000000E+00 0.  1.
         21    1    1    2  503  502  0.14560899684E+02 -0.26421425097E+02  0.61247045112E+01  0.30783494102E+02  0.00000000000E+00 0.  1.
         21    1    1    2  504  501  0.10943632238E+03  0.21656638810E+02 -0.85942593782E+02  0.14082417437E+03  0.00000000000E+00 0.  1.
         21    1    1    2  505  503  0.30205452840E+02 -0.13942699196E+02  0.82958794000E+02  0.89380813064E+02  0.00000000000E+00 0.  1.
          2    1    1    2  501    0 -0.15420267491E+03  0.18707485483E+02  0.15455573405E+03  0.21912532918E+03  0.00000000000E+00 0.  1.
<scales pt_clust_3="30.16805" pt_clust_4="14000.00000" pt_clust_5="33.79429" pt_clust_6="126.96857"></scales>
<clustering>
<clus scale="   30.168">  2  3  1 -1</clus>
<clus scale="   33.794">  1  5  2 -1</clus>
<clus scale="  126.969">  1  6  2 -1</clus>
<clus scale="   30.168">  2  3  1 -1</clus>
</clustering>
</event>
<event>
 6    0  0.1230761E+002  0.9000953E+02  0.7546771E-02  0.1302829E+00
          1   -1    0    0  503    0 -0.00000000000E+00  0.00000000000E+00  0.63019379375E+03  0.63019379375E+03  0.00000000000E+00 0.  1.
         21   -1    0    0  504  502  0.00000000000E+00 -0.00000000000E+00 -0.11119269891E+03  0.11119269891E+03  0.00000000000E+00 0.  1.
         21    1    1    2  503  505  0.33343067847E+02 -0.11108966661E+02  0.33679101691E+03  0.33861978440E+03  0.00000000000E+00 0.  1.
         21    1    1    2  504  501 -0.80230735776E+02 -0.38432320693E+02 -0.59981670642E+02  0.10729312676E+03  0.00000000000E+00 0.  1.
         21    1    1    2  505  502 -0.52374216874E+02  0.27931411442E+02  0.48081447545E+02  0.76387485469E+02  0.00000000000E+00 0. -1.
          1    1    1    2  501    0  0.99261884803E+02  0.21609875912E+02  0.19411030102E+03  0.21908609603E+03  0.00000000000E+00 0.  1.
<scales pt_clust_3="35.14498" pt_clust_4="90.00953" pt_clust_5="51.99952" pt_clust_6="14000.00000"></scales>
<clustering>
<clus scale="   35.145">  1  3  2 -1</clus>
<clus scale="   52.000">  1  5  2 -1</clus>
<clus scale="   90.010">  2  4  1 -1</clus>
<clus scale="   90.010">  2  3  1 -1</clus>
</clustering>
</event>
<event>
 6    0  0.1230761E+002  0.1882120E+03  0.7546771E-02  0.1160084E+00
          2   -1    0    0  504    0 -0.00000000000E+00  0.00000000000E+00  0.59090727624E+03  0.59090727624E+03  0.00000000000E+00 0. -1.
         21   -1    0    0  503  502  0.00000000000E+00 -0.00000000000E+00 -0.85942061235E+03  0.85942061235E+03  0.00000000000E+00 0. -1.
         21    1    1    2  503  501  0.18411951804E+03  0.82253257073E+02 -0.74893739634E+03  0.77561125498E+03  0.00000000000E+00 0. -1.
         21    1    1    2  504  505  0.44355676378E+02  0.29024964747E+02  0.10202725582E+02  0.53981202420E+02  0.00000000000E+00 0. -1.
         21    1    1    2  505  502 -0.53188223452E+01 -0.31380537360E+02 -0.44121993701E+02  0.54403844756E+02  0.00000000000E+00 0. -1.
          2    1    1    2  501    0 -0.22315637207E+03 -0.79897684459E+02  0.51434332835E+03  0.56633158644E+03  0.00000000000E+00 0. -1.
<scales pt_clust_3="14000.00000" pt_clust_4="52.42755" pt_clust_5="31.82810" pt_clust_6="188.21198"></scales>
<clustering>
<clus scale="   31.828">  2  5  1 -1</clus>
<clus scale="   52.428">  1  4  2 -1</clus>
<clus scale="  188.212">  1  6  2 -1</clus>
<clus scale="   31.828">  2  3  1 -1</clus>
</clustering>
</event>
<event>
 6    0  0.1230761E+002  0.8952830E+02  0.7546771E-02  0.1303998E+00
         21   -1    0    0  505  502  0.00000000000E+00  0.00000000000E+00  0.56647302245E+02  0.56647302245E+02  0.00000000000E+00 0. -1.
          2   -1    0    0  503    0 -0.00000000000E+00 -0.00000000000E+00 -0.67218999217E+03  0.67218999217E+03  0.00000000000E+00 0. -1.
         21    1    1    2  503  504 -0.98734016185E+02 -0.43846303184E+02 -0.20688670139E+03  0.23339454036E+03  0.00000000000E+00 0. -1.
         21    1    1    2  504  502 -0.63435498301E+01  0.67923519681E+02 -0.22448785754E+02  0.71817777270E+02  0.00000000000E+00 0. -1.
         21    1    1    2  505  501  0.21589191426E+02 -0.34276709291E+02 -0.15302192248E+02  0.43302922232E+02  0.00000000000E+00 0. -1.
          2    1    1    2  501    0  0.83488374588E+02  0.10199492794E+02 -0.37090501053E+03  0.38032205455E+03  0.00000000000E+00 0. -1.
<scales pt_clust_3="89.52830" pt_clust_4="48.47582" pt_clust_5="40.50909" pt_clust_6="14000.00000"></scales>
<clustering>
<clus scale="   40.509">  1  5  2 -1</clus>
<clus scale="   48.476">  1  4  2 -1</clus>
<clus scale="   89.528">  1  3  2 -1</clus>
<clus scale="   40.509">  1  3  2 -1</clus>
</clustering>
</event>
<event>
 6    0  0.1230761E+002  0.1116359E+03  0.7546771E-02  0.1257570E+00
         -2   -1    0    0    0  501 -0.00000000000E+00  0.00000000000E+00  0.28854010175E+04  0.28854010175E+04  0.00000000000E+00 0. -1.
         21   -1    0    0  505  502  0.00000000000E+00 -0.00000000000E+00 -0.50896560932E+02  0.50896560932E+02  0.00000000000E+00 0.  1.
         21    1    1    2  503  502  0.37916348419E+02 -0.72240769925E+02  0.54167878937E+02  0.97931289307E+02  0.00000000000E+00 0.  1.
         21    1    1    2  504  503  0.73730410824E+02  0.74163532725E+02  0.79881731229E+02  0.13159594998E+03  0.00000000000E+00 0.  1.
         21    1    1    2  505  501  0.28897549678E+02  0.21755456061E+02  0.88078737896E+03  0.88152979257E+03  0.00000000000E+00 0. -1.
         -2    1    1    2    0  504 -0.14054430892E+03 -0.23678218861E+02  0.18196674674E+04  0.18252405466E+04  0.00000000000E+00 0. -1.
<scales pt_clust_3="81.37655" pt_clust_4="111.63594" pt_clust_5="36.17137" pt_clust_6="14000.00000"></scales>
<clustering>
<clus scale="   36.171">  1  5  2 -1</clus>
<clus scale="   81.377">  2  3  1 -1</clus>
<clus scale="  111.636">  2  4  1 -1</clus>
<clus scale="   81.377">  2  3  1 -1</clus>
</clustering>
</event>
<event>
 6    0  0.1230761E+002  0.1077724E+03  0.7546771E-02  0.1264752E+00
         21   -1    0    0  505  502  0.00000000000E+00  0.00000000000E+00  0.13110291189E+04  0.13110291189E+04  0.00000000000E+00 0.  1.
         -1   -1    0    0    0  501 -0.00000000000E+00 -0.00000000000E+00 -0.43305680437E+03  0.43305680437E+03  0.00000000000E+00 0. -1.
         21    1    1    2  503  502 -0.33917259663E+02  0.27256922307E+02  0.28679311730E+03  0.29007518413E+03  0.00000000000E+00 0.  1.
         21    1    1    2  504  501 -0.20719133264E+02 -0.62962754195E+02 -0.78255249157E+01  0.66744510930E+02  0.00000000000E+00 0. -1.
         21    1    1    2  505  504  0.65732628289E+02  0.82357481099E+02  0.98886723979E+03  0.99446566107E+03  0.00000000000E+00 0.  1.
         -1    1    1    2    0  503 -0.11096235362E+02 -0.46651649211E+02 -0.38986251769E+03  0.39280056710E+03  0.00000000000E+00 0. -1.
<scales pt_clust_3="43.51230" pt_clust_4="14000.00000" pt_clust_5="107.77236" pt_clust_6="47.92635"></scales>
<clustering>
<clus scale="   43.512">  1  3  2 -1</clus>
<clus scale="   47.926">  2  6  1 -1</clus>
<clus scale="  107.772">  1  5  2 -1</clus>
<clus scale="   43.512">  1  3  2 -1</clus>
</clustering>
</event>
<event>
 6    0  0.1230761E+002  0.1150019E+03  0.7546771E-02  0.1251578E+00
         21   -1    0    0  504  502  0.00000000000E+00  0.00000000000E+00  0.21481465464E+03  0.21481465464E+03  0.00000000000E+00 0.  1.
          2   -1    0    0  505    0 -0.00000000000E+00 -0.00000000000E+00 -0.10129991449E+04  0.10129991449E+04  0.00000000000E+00 0. -1.
         21    1    1    2  503  501 -0.44986872315E+02  0.44509720963E+02 -0.52425750408E+03  0.52806331488E+03  0.00000000000E+00 0.  1.
         21    1    1    2  504  503  0.72022509590E+02  0.63269584862E+01 -0.18312322646E+02  0.74582930031E+02  0.00000000000E+00 0. -1.
         21    1    1    2  505  502 -0.17634556819E+02 -0.10222673854E+03  0.16848634564E+03  0.19786089137E+03  0.00000000000E+00 0.  1.
          2    1    1    2  501    0 -0.94010804570E+01  0.51390059086E+02 -0.42410100919E+03  0.42730666327E+03  0.00000000000E+00 0. -1.
<scales pt_clust_3="31.38374" pt_clust_4="72.29988" pt_clust_5="109.69196" pt_clust_6="31.38374"></scales>
<clustering>
<clus scale="   31.384">  3  6 -1 -1</clus>
<clus scale="   72.300">  1  4  2 -1</clus>
<clus scale="  109.692">  1  5  2 -1</clus>
<clus scale="   72.300">  1  3  2 -1</clus>
</clustering>
</event>
<event>
 6    0  0.1230761E+002  0.1695988E+03  0.7546771E-02  0.1178267E+00
         21   -1    0    0  503  502  0.00000000000E+00  0.00000000000E+00  0.89676221380E+03  0.89676221380E+03  0.00000000000E+00 0.  1.
          2   -1    0    0  505    0 -0.00000000000E+00 -0.00000000000E+00 -0.86455636679E+03  0.86455636679E+03  0.00000000000E+00 0. -1.
         21    1    1    2  503  501  0.19513531318E+02 -0.14346062652E+03  0.75057511918E+03  0.76441136752E+03  0.00000000000E+00 0.  1.
         21    1    1    2  504  502  0.36046305215E+02 -0.17400931378E+02  0.58943299966E+02  0.71249148370E+02  0.00000000000E+00 0. -1.
         21    1    1    2  505  504 -0.74476405229E+02 -0.12098962673E+03 -0.59077160355E+02  0.15386791604E+03  0.00000000000E+00 0.  1.
          2    1    1    2  501    0  0.18916568696E+02  0.28185118462E+03 -0.71823541177E+03  0.77179014866E+03  0.00000000000E+00 0. -1.
<scales pt_clust_3="169.59881" pt_clust_4="40.02660" pt_clust_5="141.86051" pt_clust_6="14000.00000"></scales>
<clustering>
<clus scale="   40.027">  1  4  2 -1</clus>
<clus scale="  141.861">  2  5  1 -1</clus>
<clus scale="  169.599">  1  3  2 -1</clus>
<clus scale="   40.027">  1  3  2 -1</clus>
</clustering>
</event>
<event>
 6    0  0.1230761E+002  0.1158385E+03  0.7546771E-02  0.1250125E+00
         21   -1    0    0  505  502  0.00000000000E+00  0.00000000000E+00  0.10825703054E+04  0.10825703054E+04  0.00000000000E+00 0.  1.
          2   -1    0    0  502    0 -0.00000000000E+00 -0.00000000000E+00 -0.29751430927E+04  0.29751430927E+04  0.00000000000E+00 0. -1.
         21    1    1    2  503  504  0.43821184425E+02 -0.74478930197E+01  0.39056055927E+03  0.39308182071E+03  0.00000000000E+00 0.  1.
         21    1    1    2  504  501 -0.75816450491E+02  0.10971021746E+03 -0.36584193929E+03  0.38939028047E+03  0.00000000000E+00 0. -1.
         21    1    1    2  505  503  0.46719153724E+02 -0.53712435806E+02  0.67686030015E+03  0.68059354317E+03  0.00000000000E+00 0.  1.
          2    1    1    2  501    0 -0.14723887658E+02 -0.48549888638E+02 -0.25941517074E+04  0.25946477537E+04  0.00000000000E+00 0. -1.
<scales pt_clust_3="30.12432" pt_clust_4="109.38551" pt_clust_5="30.12432" pt_clust_6="50.73347"></scales>
<clustering>
<clus scale="   30.124">  3  5 -1 -1</clus>
<clus scale="   50.733">  2  6  1 -1</clus>
<clus scale="  109.386">  2  4  1 -1</clus>
<clus scale="  115.838">  1  3  2 -1</clus>
</clustering>
</event>
<event>
 6    0  0.1230761E+002  0.1056545E+03  0.7546771E-02  0.1268835E+00
         21   -1    0    0  505  502  0.00000000000E+00  0.00000000000E+00  0.15684941615E+03  0.15684941615E+03  0.00000000000E+00 0.  1.
          2   -1    0    0  503    0 -0.00000000000E+00 -0.00000000000E+00 -0.59396161485E+03  0.59396161485E+03  0.00000000000E+00 0.  1.
         21    1    1    2  503  504  0.25249071580E+02 -0.33215670979E+02 -0.37994836722E+03  0.38223233532E+03  0.00000000000E+00 0. -1.
         21    1    1    2  504  502  0.18979441116E+02 -0.24407012638E+02 -0.18142047417E+02  0.35847668480E+02  0.00000000000E+00 0. -1.
         21    1    1    2  505  501  0.79629458780E+02 -0.63029411860E+01  0.10524907972E+03  0.13212852287E+03  0.00000000000E+00 0.  1.
          2    1    1    2  501    0 -0.12385797148E+03  0.63925624803E+02 -0.14427086379E+03  0.20060250433E+03  0.00000000000E+00 0.  1.
<scales pt_clust_3="41.96141" pt_clust_4="30.91798" pt_clust_5="105.65449" pt_clust_6="14000.00000"></scales>
<clustering>
<clus scale="   30.918">  1  4  2 -1</clus>
<clus scale="   41.961">  2  3  1 -1</clus>
<clus scale="  105.654">  1  5  2 -1</clus>
<clus scale="   30.918">  1  3  2 -1</clus>
</clustering>
</event>
<event>
 6    0  0.1230761E+002  0.1049638E+03  0.7546771E-02  0.1270191E+00
         -1   -1    0    0    0  501 -0.00000000000E+00  0.00000000000E+00  0.97361087471E+01  0.97361087471E+01  0.00000000000E+00 0. -1.
         21   -1    0    0  505  502  0.00000000000E+00 -0.00000000000E+00 -0.24130932083E+04  0.24130932083E+04  0.00000000000E+00 0. -1.
         21    1    1    2  503  504 -0.56037758620E+02  0.48469252219E+01 -0.91671449479E+03  0.91843845086E+03  0.00000000000E+00 0. -1.
         21    1    1    2  504  502 -0.28283304311E+02 -0.34599469198E+02 -0.78772623208E+03  0.78899282967E+03  0.00000000000E+00 0. -1.
         21    1    1    2  505  501 -0.84789466910E+01 -0.35998554492E+02 -0.12664568388E+03  0.13193527849E+03  0.00000000000E+00 0. -1.
         -1    1    1    2    0  503  0.92800009623E+02  0.65751098469E+02 -0.57227068878E+03  0.58346275800E+03  0.00000000000E+00 0. -1.
<scales pt_clust_3="42.95070" pt_clust_4="42.95070" pt_clust_5="36.98362" pt_clust_6="93.85768"></scales>
<clustering>
<clus scale="   36.984">  1  5  2 -1</clus>
<clus scale="   42.951">  3  4 -1 -1</clus>
<clus scale="   93.858">  1  6  2 -1</clus>
<clus scale="  104.964">  2  3  1 -1</clus>
</clustering>
</event>
<event>
 6    0  0.1230761E+002  0.1291126E+03  0.7546771E-02  0.1228778E+00
         -3   -1    0    0    0  501 -0.00000000000E+00  0.00000000000E+00  0.21002945543E+04  0.21002945543E+04  0.00000000000E+00 0.  1.
         21   -1    0    0  505  502  0.00000000000E+00 -0.00000000000E+00 -0.61276122507E+02  0.61276122507E+02  0.00000000000E+00 0. -1.
         21    1    1    2  503  504 -0.16786090381E+02  0.49312226516E+02 -0.86563786715E+01  0.52805316076E+02  0.00000000000E+00 0.  1.
         21    1    1    2  504  501  0.33455819844E+02  0.18592516666E+02  0.20079187498E+03  0.20440731547E+03  0.00000000000E+00 0. -1.
         21    1    1    2  505  503  0.38240763707E+02  0.61527777817E+02  0.24373783488E+02  0.76433662567E+02  0.00000000000E+00 0. -1.
         -3    1    1    2    0  502 -0.54910493170E+02 -0.12943252100E+03  0.18225091520E+04  0.18279243827E+04  0.00000000000E+00 0.  1.
<scales pt_clust_3="51.37450" pt_clust_4="38.27497" pt_clust_5="51.37450" pt_clust_6="113.84283"></scales>
<clustering>
<clus scale="   38.275">  1  4  2 -1</clus>
<clus scale="   51.374">  3  5 -1 -1</clus>
<clus scale="  113.843">  1  6  2 -1</clus>
<clus scale="  129.113">  2  3  1 -1</clus>
</clustering>
</event>
<event>
 6    0  0.1230761E+002  0.1635958E+03  0.7546771E-02  0.1184696E+00
         21   -1    0    0  504  502  0.00000000000E+00  0.00000000000E+00  0.21839403810E+03  0.21839403810E+03  0.00000000000E+00 0.  1.
          1   -1    0    0  505    0 -0.00000000000E+00 -0.00000000000E+00 -0.55572020110E+03  0.55572020110E+03  0.00000000000E+00 0. -1.
         21    1    1    2  503  502 -0.24231306563E+02  0.26675062799E+02  0.64636668563E+01  0.36612759830E+02  0.00000000000E+00 0. -1.
         21    1    1    2  504  501 -0.13346613680E+03 -0.66333128399E+02  0.14010163307E+03  0.20455258782E+03  0.00000000000E+00 0.  1.
         21    1    1    2  505  503 -0.21659334809E+02 -0.24607963011E+02 -0.74720133689E+02  0.81595202104E+02  0.00000000000E+00 0.  1.
          1    1    1    2  501    0  0.17935677817E+03  0.64266028611E+02 -0.40917132923E+03  0.45135368945E+03  0.00000000000E+00 0. -1.
<scales pt_clust_3="35.93715" pt_clust_4="163.59584" pt_clust_5="32.78229" pt_clust_6="14000.00000"></scales>
<clustering>
<clus scale="   32.782">  2  5  1 -1</clus>
<clus scale="   35.937">  1  3  2 -1</clus>
<clus scale="  163.596">  1  4  2 -1</clus>
<clus scale="   35.937">  1  3  2 -1</clus>
</clustering>
</event>
<event>
 6    0  0.1230761E+002  0.1222077E+03  0.7546771E-02  0.1239499E+00
          1   -1    0    0  505    0 -0.00000000000E+00  0.00000000000E+00  0.24846394177E+03  0.24846394177E+03  0.00000000000E+00 0. -1.
         21   -1    0    0  503  502  0.00000000000E+00 -0.00000000000E+00 -0.57412909708E+03  0.57412909708E+03  0.00000000000E+00 0.  1.
         21    1    1    2  503  501  0.64222624270E+02 -0.30218594660E+02 -0.43800272992E+03  0.44371623854E+03  0.00000000000E+00 0.  1.
         21    1    1    2  504  502  0.80035924983E+01  0.31901238175E+02 -0.70770339640E+02  0.78039653144E+02  0.00000000000E+00 0.  1.
         21    1    1    2  505  504  0.47757068949E+02 -0.34074519003E+02 -0.20627923128E+02  0.62187793758E+02  0.00000000000E+00 0.  1.
          1    1    1    2  501    0 -0.11998328572E+03  0.32391875488E+02  0.20373583738E+03  0.23864935340E+03  0.00000000000E+00 0. -1.
<scales pt_clust_3="122.20770" pt_clust_4="32.88991" pt_clust_5="57.72727" pt_clust_6="14000.00000"></scales>
<clustering>
<clus scale="   32.890">  2  4  1 -1</clus>
<clus scale="   57.727">  2  5  1 -1</clus>
<clus scale="  122.208">  2  3  1 -1</clus>
<clus scale="   32.890">  2  3  1 -1</clus>
</clustering>
</event>
<event>
 6    0  0.1230761E+002  0.1348013E+03  0.7546771E-02  0.1220500E+00
          3   -1    0    0  503    0 -0.00000000000E+00  0.00000000000E+00  0.24120180212E+03  0.24120180212E+03  0.00000000000E+00 0.  1.
         21   -1    0    0  504  502  0.00000000000E+00 -0.00000000000E+00 -0.13941741213E+03  0.13941741213E+03  0.00000000000E+00 0.  1.
         21    1    1    2  503  505  0.11438378496E+02 -0.39397535523E+02  0.14356373128E+01  0.41049523291E+02  0.00000000000E+00 0.  1.
         21    1    1    2  504  501 -0.13191641962E+03 -0.68003568010E+02  0.42228999120E+02  0.15430397076E+03  0.00000000000E+00 0.  1.
         21    1    1    2  505  502  0.34314556311E+02  0.11048832192E+02 -0.12273772429E+02  0.38081635433E+02  0.00000000000E+00 0.  1.
          3    1    1    2  501    0  0.86163484810E+02  0.96352271342E+02  0.70393525989E+02  0.14718408477E+03  0.00000000000E+00 0.  1.
<scales pt_clust_3="41.31863" pt_clust_4="134.80129" pt_clust_5="36.04949" pt_clust_6="14000.00000"></scales>
<clustering>
<clus scale="   36.049">  2  5  1 -1</clus>
<clus scale="   41.319">  2  3  1 -1</clus>
<clus scale="  134.801">  2  4  1 -1</clus>
<clus scale="   36.049">  2  3  1 -1</clus>
</clustering>
</event>
<event>
 6    0  0.1230761E+002  0.1016059E+03  0.7546771E-02  0.1276955E+00
         21   -1    0    0  503  502  0.00000000000E+00  0.00000000000E+00  0.11288855481E+04  0.11288855481E+04  0.00000000000E+00 0.  1.
          1   -1    0    0  504    0 -0.00000000000E+00 -0.00000000000E+00 -0.48449339877E+04  0.48449339877E+04  0.00000000000E+00 0. -1.
         21    1    1    2  503  505  0.67246357071E+02  0.35786902803E+02  0.24515933022E+03  0.25672139012E+03  0.00000000000E+00 0.  1.
         21    1    1    2  504  502  0.25754496332E+02  0.73876546985E+02 -0.20492619503E+03  0.21935310275E+03  0.00000000000E+00 0.  1.
         21    1    1    2  505  501 -0.70546567942E+02  0.65940891343E+02  0.86635480504E+03  0.87171994793E+03  0.00000000000E+00 0.  1.
          1    1    1    2  501    0 -0.22454285461E+02 -0.17560434113E+03 -0.46226363798E+04  0.46260250950E+04  0.00000000000E+00 0. -1.
<scales pt_clust_3="76.17595" pt_clust_4="78.69774" pt_clust_5="14000.00000" pt_clust_6="101.60588"></scales>
<clustering>
<clus scale="   76.176">  1  3  2 -1</clus>
<clus scale="   78.698">  2  4  1 -1</clus>
<clus scale="  101.606">  2  6  1 -1</clus>
<clus scale="   76.176">  1  3  2 -1</clus>
</clustering>
</event>
<event>
 6    0  0.1230761E+002  0.2938721E+03  0.7546771E-02  0.1088345E+00
          2   -1    0    0  504    0 -0.00000000000E+00  0.00000000000E+00  0.14949931878E+04  0.14949931878E+04  0.00000000000E+00 0. -1.
         21   -1    0    0  501  502  0.00000000000E+00 -0.00000000000E+00 -0.86072928080E+02  0.86072928080E+02  0.00000000000E+00 0.  1.
         21    1    1    2  503  502  0.69848558181E+02  0.20278105397E+02  0.77324395088E+02  0.10615594526E+03  0.00000000000E+00 0.  1.
         21    1    1    2  504  505 -0.18479298214E+02  0.63595342032E+02  0.11715462252E+03  0.13457732933E+03  0.00000000000E+00 0.  1.
         21    1    1    2  505  503  0.55716776003E+02  0.18921172352E+03  0.18685099438E+03  0.27169602417E+03  0.00000000000E+00 0.  1.
          2    1    1    2  501    0 -0.10708603597E+03 -0.27308517095E+03  0.10275902478E+04  0.10686368171E+04  0.00000000000E+00 0. -1.
<scales pt_clust_3="72.73254" pt_clust_4="49.64507" pt_clust_5="49.64507" pt_clust_6="281.10537"></scales>
<clustering>
<clus scale="   49.645">  4  5 -1 -1</clus>
<clus scale="   72.733">  2  3  1 -1</clus>
<clus scale="  281.105">  1  6  2 -1</clus>
<clus scale="   72.733">  2  3  1 -1</clus>
</clustering>
</event>
<event>
 6    0  0.1230761E+002  0.1679531E+03  0.7546771E-02  0.1179999E+00
          1   -1    0    0  504    0 -0.00000000000E+00  0.00000000000E+00  0.50160394837E+03  0.50160394837E+03  0.00000000000E+00 0. -1.
         21   -1    0    0  505  502  0.00000000000E+00 -0.00000000000E+00 -0.87778628090E+02  0.87778628090E+02  0.00000000000E+00 0. -1.
         21    1    1    2  503  501 -0.11101070558E+03  0.63878927545E+02  0.81764762517E+02  0.15195186911E+03  0.00000000000E+00 0. -1.
         21    1    1    2  504  502  0.26058260009E+02 -0.34762992745E+02  0.18007679886E+03  0.18524349399E+03  0.00000000000E+00 0. -1.
         21    1    1    2  505  503 -0.43603338471E+02  0.99676733735E+00 -0.84311671652E+01  0.44422170711E+02  0.00000000000E+00 0.  1.
          1    1    1    2  501    0  0.12855578404E+03 -0.30112702138E+02  0.16041492607E+03  0.20776504264E+03  0.00000000000E+00 0. -1.
<scales pt_clust_3="41.55364" pt_clust_4="43.44535" pt_clust_5="41.55364" pt_clust_6="152.11068"></scales>
<clustering>
<clus scale="   41.554">  3  5 -1 -1</clus>
<clus scale="   43.445">  1  4  2 -1</clus>
<clus scale="  152.111">  1  6  2 -1</clus>
<clus scale="  167.953">  2  3  1 -1</clus>
</clustering>
</event>
<event>
 6    0  0.1230761E+002  0.1464994E+03  0.7546771E-02  0.1204842E+00
          1   -1    0    0  503    0 -0.00000000000E+00  0.00000000000E+00  0.43560739242E+03  0.43560739242E+03  0.00000000000E+00 0.  1.
         21   -1    0    0  501  502  0.00000000000E+00 -0.00000000000E+00 -0.16144732627E+03  0.16144732627E+03  0.00000000000E+00 0. -1.
         21    1    1    2  503  504 -0.29052667708E+02 -0.44234195525E+02  0.13569231044E+03  0.14564726111E+03  0.00000000000E+00 0. -1.
         21    1    1    2  504  505  0.12309304445E+03  0.44814586975E+02 -0.30636412110E+02  0.13453190902E+03  0.00000000000E+00 0. -1.
         21    1    1    2  505  502  0.39640505144E+02 -0.23610633929E+02 -0.44328596570E+02  0.63983249030E+02  0.00000000000E+00 0. -1.
          1    1    1    2  501    0 -0.13368088189E+03  0.23030242478E+02  0.21343276438E+03  0.25289229953E+03  0.00000000000E+00 0.  1.
<scales pt_clust_3="52.87108" pt_clust_4="14000.00000" pt_clust_5="46.13926" pt_clust_6="146.49940"></scales>
<clustering>
<clus scale="   46.139">  2  5  1 -1</clus>
<clus scale="   52.871">  1  3  2 -1</clus>
<clus scale="  146.499">  1  6  2 -1</clus>
<clus scale="   46.139">  2  3  1 -1</clus>
</clustering>
</event>
<event>
 6    0  0.1230761E+002  0.1162097E+03  0.7546771E-02  0.1249484E+00
         21   -1    0    0  505  502  0.00000000000E+00  0.00000000000E+00  0.13790663525E+03  0.13790663525E+03  0.00000000000E+00 0. -1.
          1   -1    0    0  503    0 -0.00000000000E+00 -0.00000000000E+00 -0.14769607749E+04  0.14769607749E+04  0.00000000000E+00 0.  1.
         21    1    1    2  503  504  0.37257160731E+02 -0.62226663436E+02 -0.72120131573E+03  0.72483901074E+03  0.00000000000E+00 0.  1.
         21    1    1    2  504  502 -0.24010062383E+02 -0.71644087018E+02  0.42950572298E+02  0.86914382935E+02  0.00000000000E+00 0. -1.
         21    1    1    2  505  501  0.13195106344E+03  0.70065197695E+02 -0.29616976034E+02  0.15230686242E+03  0.00000000000E+00 0. -1.
          1    1    1    2  501    0 -0.14519816179E+03  0.63805552759E+02 -0.63118642017E+03  0.65080715405E+03  0.00000000000E+00 0.  1.
<scales pt_clust_3="72.52761" pt_clust_4="76.95214" pt_clust_5="14000.00000" pt_clust_6="116.20967"></scales>
<clustering>
<clus scale="   72.528">  2  3  1 -1</clus>
<clus scale="   76.952">  1  4  2 -1</clus>
<clus scale="  116.210">  2  6  1 -1</clus>
<clus scale="   76.952">  1  3  2 -1</clus>
</clustering>
</event>
<event>
 6    0  0.1230761E+002  0.1681838E+03  0.7546771E-02  0.1179755E+00
          2   -1    0    0  505    0 -0.00000000000E+00  0.00000000000E+00  0.10537473540E+04  0.10537473540E+04  0.00000000000E+00 0.  1.
         21   -1    0    0  503  502  0.00000000000E+00 -0.00000000000E+00 -0.46057903872E+02  0.46057903872E+02  0.00000000000E+00 0.  1.
         21    1    1    2  503  504 -0.40866178253E+02  0.48952631217E+02  0.61611234120E+02  0.88669886647E+02  0.00000000000E+00 0.  1.
         21    1    1    2  504  501 -0.56187238640E+02  0.48050355801E+02  0.22327670353E+03  0.23519848813E+03  0.00000000000E+00 0.  1.
         21    1    1    2  505  502 -0.32404531330E+02 -0.21208436580E+01 -0.29885760717E+01  0.32611090375E+02  0.00000000000E+00 0.  1.
          2    1    1    2  501    0  0.12945794822E+03 -0.94882143360E+02  0.72579008851E+03  0.74332579268E+03  0.00000000000E+00 0.  1.
<scales pt_clust_3="67.76378" pt_clust_4="67.76378" pt_clust_5="32.47386" pt_clust_6="152.92199"></scales>
<clustering>
<clus scale="   32.474">  2  5  1 -1</clus>
<clus scale="   67.764">  3  4 -1 -1</clus>
<clus scale="  152.922">  1  6  2 -1</clus>
<clus scale="   32.474">  2  3  1 -1</clus>
</clustering>
</event>
<event>
 6    0  0.1230761E+002  0.8679329E+02  0.7546771E-02  0.1310808E+00
          2   -1    0    0  504    0 -0.00000000000E+00  0.00000000000E+00  0.15613774804E+04  0.15613774804E+04  0.00000000000E+00 0.  1.
         21   -1    0    0  505  502  0.00000000000E+00 -0.00000000000E+00 -0.72688530355E+02  0.72688530355E+02  0.00000000000E+00 0. -1.
         21    1    1    2  503  501 -0.48340333392E+02  0.38758292559E+02  0.13718181167E+03  0.15052522223E+03  0.00000000000E+00 0.  1.
         21    1    1    2  504  502 -0.35526917255E+02  0.24674293696E+02  0.67279210308E+03  0.67418113039E+03  0.00000000000E+00 0. -1.
         21    1    1    2  505  503  0.55779942618E+01  0.40758197552E+02 -0.52456791080E+02  0.66663780407E+02  0.00000000000E+00 0. -1.
          2    1    1    2  501    0  0.78289256385E+02 -0.10419078381E+03  0.73117182641E+03  0.74269587776E+03  0.00000000000E+00 0.  1.
<scales pt_clust_3="14000.00000" pt_clust_4="44.28495" pt_clust_5="41.13812" pt_clust_6="86.79329"></scales>
<clustering>
<clus scale="   41.138">  2  5  1 -1</clus>
<clus scale="   44.285">  1  4  2 -1</clus>
<clus scale="   86.793">  1  6  2 -1</clus>
<clus scale="   41.138">  2  3  1 -1</clus>
</clustering>
</event>
<event>
 6    0  0.1230761E+002  0.1461569E+03  0.7546771E-02  0.1205277E+00
          2   -1    0    0  502    0 -0.00000000000E+00  0.00000000000E+00  0.66021675670E+02  0.66021675670E+02  0.00000000000E+00 0. -1.
         21   -1    0    0  505  502  0.00000000000E+00 -0.00000000000E+00 -0.23035231575E+04  0.23035231575E+04  0.00000000000E+00 0. -1.
         21    1    1    2  503  504  0.58655479696E+02 -0.29909329593E+02 -0.98638155798E+03  0.98857655810E+03  0.00000000000E+00 0. -1.
         21    1    1    2  504  501 -0.13436870839E+03 -0.56287493446E+01 -0.22843795972E+03  0.26508589939E+03  0.00000000000E+00 0.  1.
         21    1    1    2  505  503  0.52257698328E+02 -0.67498050714E+02 -0.10051469778E+04  0.10087652357E+04  0.00000000000E+00 0.  1.
          2    1    1    2  501    0  0.23455530368E+02  0.10303612965E+03 -0.17534986315E+02  0.10711713992E+03  0.00000000000E+00 0. -1.
<scales pt_clust_3="32.84196" pt_clust_4="141.29201" pt_clust_5="32.84196" pt_clust_6="105.67216"></scales>
<clustering>
<clus scale="   32.842">  3  5 -1 -1</clus>
<clus scale="  105.672">  1  6  2 -1</clus>
<clus scale="  141.292">  1  4  2 -1</clus>
<clus scale="  146.157">  2  3  1 -1</clus>
</clustering>
</event>
<event>
 6    0  0.1230761E+002  0.1564097E+03  0.7546771E-02  0.1192811E+00
         21   -1    0    0  501  502  0.00000000000E+00  0.00000000000E+00  0.68975246221E+02  0.68975246221E+02  0.00000000000E+00 0. -1.
          1   -1    0    0  504    0 -0.00000000000E+00 -0.00000000000E+00 -0.22373835164E+04  0.22373835164E+04  0.00000000000E+00 0.  1.
         21    1    1    2  503  502 -0.78924771702E+02 -0.12484379050E+03 -0.17430172408E+03  0.22846483894E+03  0.00000000000E+00 0. -1.
         21    1    1    2  504  505 -0.30252681043E+02 -0.42319164425E+02 -0.59360835423E+03  0.59588339010E+03  0.00000000000E+00 0.  1.
         21    1    1    2  505  503  0.19568593036E+03  0.42056887879E+02 -0.24417504319E+03  0.31572649061E+03  0.00000000000E+00 0. -1.
          1    1    1    2  501    0 -0.86508477612E+02  0.12510606704E+03 -0.11563231487E+04  0.11662840430E+04  0.00000000000E+00 0.  1.
<scales pt_clust_3="156.40969" pt_clust_4="52.02054" pt_clust_5="14000.00000" pt_clust_6="143.88287"></scales>
<clustering>
<clus scale="   52.021">  2  4  1 -1</clus>
<clus scale="  143.883">  2  6  1 -1</clus>
<clus scale="  156.410">  1  3  2 -1</clus>
<clus scale="  156.410">  1  3  2 -1</clus>
</clustering>
</event>
<event>
 6    0  0.1230761E+002  0.9638343E+02  0.7546771E-02  0.1288090E+00
          2   -1    0    0  505    0 -0.00000000000E+00  0.00000000000E+00  0.43318229034E+03  0.43318229034E+03  0.00000000000E+00 0.  1.
         21   -1    0    0  504  502  0.00000000000E+00 -0.00000000000E+00 -0.73043787670E+03  0.73043787670E+03  0.00000000000E+00 0.  1.
         21    1    1    2  503  502  0.46970884607E+02 -0.66384292962E+02 -0.59781541647E+03  0.60332115040E+03  0.00000000000E+00 0.  1.
         21    1    1    2  504  501  0.36981853361E+02  0.18709676460E+02 -0.10602164079E+03  0.11383451931E+03  0.00000000000E+00 0.  1.
         21    1    1    2  505  503  0.31149801124E+02 -0.13653530999E+01  0.13544710195E+02  0.33994609476E+02  0.00000000000E+00 0. -1.
          2    1    1    2  501    0 -0.11510253909E+03  0.49039969602E+02  0.39303676070E+03  0.41246988785E+03  0.00000000000E+00 0.  1.
<scales pt_clust_3="96.38343" pt_clust_4="41.70484" pt_clust_5="31.17971" pt_clust_6="14000.00000"></scales>
<clustering>
<clus scale="   31.180">  1  5  2 -1</clus>
<clus scale="   41.705">  2  4  1 -1</clus>
<clus scale="   96.383">  2  3  1 -1</clus>
<clus scale="   41.705">  2  3  1 -1</clus>
</clustering>
</event>
<event>
 6    0  0.1230761E+002  0.7528763E+02  0.7546771E-02  0.1342983E+00
          2   -1    0    0  505    0 -0.00000000000E+00  0.00000000000E+00  0.45195452210E+03  0.45195452210E+03  0.00000000000E+00 0. -1.
         21   -1    0    0  501  502  0.00000000000E+00 -0.00000000000E+00 -0.18062015490E+03  0.18062015490E+03  0.00000000000E+00 0. -1.
         21    1    1    2  503  504  0.49467797492E+02  0.94092354340E+01  0.22091687990E+02  0.54987629322E+02  0.00000000000E+00 0.  1.
         21    1    1    2  504  502  0.10320431226E+02  0.54907218085E+02 -0.14173195939E+03  0.15234586378E+03  0.00000000000E+00 0. -1.
         21    1    1    2  505  503  0.46018000673E+02 -0.18693604415E+02  0.15258329569E+03  0.16046423077E+03  0.00000000000E+00 0.  1.
          2    1    1    2  501    0 -0.10580622939E+03 -0.45622849104E+02  0.23839134290E+03  0.26477695313E+03  0.00000000000E+00 0. -1.
<scales pt_clust_3="75.28763" pt_clust_4="55.69827" pt_clust_5="49.66998" pt_clust_6="14000.00000"></scales>
<clustering>
<clus scale="   49.670">  1  5  2 -1</clus>
<clus scale="   55.698">  2  4  1 -1</clus>
<clus scale="   75.288">  2  3  1 -1</clus>
<clus scale="   55.698">  2  3  1 -1</clus>
</clustering>
</event>
<event>
 6    0  0.1230761E+002  0.6448167E+02  0.7546771E-02  0.1379932E+00
         21   -1    0    0  505  502  0.00000000000E+00  0.00000000000E+00  0.48086753376E+03  0.48086753376E+03  0.00000000000E+00 0.  1.
          4   -1    0    0  504    0 -0.00000000000E+00 -0.00000000000E+00 -0.89248568769E+02  0.89248568769E+02  0.00000000000E+00 0. -1.
         21    1    1    2  503  502  0.24472392296E+02  0.19960437007E+02  0.36378114512E+02  0.48173480730E+02  0.00000000000E+00 0. -1.
         21    1    1    2  504  503 -0.45116603293E+02 -0.21417068950E+02 -0.27471587098E+02  0.56999007297E+02  0.00000000000E+00 0. -1.
         21    1    1    2  505  501 -0.75267220357E+02  0.31003977848E+01  0.35806333789E+03  0.36590179129E+03  0.00000000000E+00 0.  1.
          4    1    1    2  501    0  0.95911431354E+02 -0.16437658419E+01  0.24649099689E+02  0.99041823216E+02  0.00000000000E+00 0. -1.
<scales pt_clust_3="31.58033" pt_clust_4="48.91029" pt_clust_5="64.48167" pt_clust_6="14000.00000"></scales>
<clustering>
<clus scale="   31.580">  1  3  2 -1</clus>
<clus scale="   48.910">  2  4  1 -1</clus>
<clus scale="   64.482">  1  5  2 -1</clus>
<clus scale="   31.580">  1  3  2 -1</clus>
</clustering>
</event>
<event>
 6    0  0.1230761E+002  0.1109642E+03  0.7546771E-02  0.1258795E+00
         21   -1    0    0  505  502  0.00000000000E+00  0.00000000000E+00  0.41426886908E+03  0.41426886908E+03  0.00000000000E+00 0. -1.
          1   -1    0    0  503    0 -0.00000000000E+00 -0.00000000000E+00 -0.17072661465E+04  0.17072661465E+04  0.00000000000E+00 0.  1.
         21    1    1    2  503  504 -0.74520103524E+02  0.14454232393E+02 -0.24726601045E+03  0.25865546696E+03  0.00000000000E+00 0.  1.
         21    1    1    2  504  502 -0.68228083466E+02  0.87672101556E+02  0.38580942841E+03  0.40148522241E+03  0.00000000000E+00 0. -1.
         21    1    1    2  505  501  0.79748398316E+02 -0.74093663981E+02 -0.19818660684E+03  0.22611415084E+03  0.00000000000E+00 0.  1.
          1    1    1    2  501    0  0.62999788674E+02 -0.28032669968E+02 -0.12333540886E+04  0.12352801754E+04  0.00000000000E+00 0.  1.
<scales pt_clust_3="40.82770" pt_clust_4="14000.00000" pt_clust_5="110.96419" pt_clust_6="68.95509"></scales>
<clustering>
<clus scale="   68.955">  2  6  1 -1</clus>
<clus scale="   40.828">  2  3  1 -1</clus>
<clus scale="  110.964">  2  5  1 -1</clus>
<clus scale="  110.964">  1  3  2 -1</clus>
</clustering>
</event>
<event>
 6    0  0.1230761E+002  0.1024399E+03  0.7546771E-02  0.1275247E+00
         21   -1    0    0  501  502  0.00000000000E+00  0.00000000000E+00  0.10192635338E+04  0.10192635338E+04  0.00000000000E+00 0.  1.
         -1   -1    0    0    0  501 -0.00000000000E+00 -0.00000000000E+00 -0.67364950984E+03  0.67364950984E+03  0.00000000000E+00 0. -1.
         21    1    1    2  503  505 -0.32571225410E+01 -0.11016737517E+03  0.88849455903E+03  0.89530444031E+03  0.00000000000E+00 0.  1.
         21    1    1    2  504  503  0.83644940727E+00  0.61584052350E+02 -0.23306205923E+03  0.24106268604E+03  0.00000000000E+00 0.  1.
         21    1    1    2  505  502 -0.31221251663E+02  0.12613049617E+02  0.11963196545E+03  0.12428058068E+03  0.00000000000E+00 0.  1.
         -1    1    1    2    0  504  0.33641924797E+02  0.35970273200E+02 -0.42945044133E+03  0.43226533659E+03  0.00000000000E+00 0. -1.
<scales pt_clust_3="14000.00000" pt_clust_4="102.43993" pt_clust_5="33.67277" pt_clust_6="49.23181"></scales>
<clustering>
<clus scale="   33.673">  1  5  2 -1</clus>
<clus scale="   49.232">  2  6  1 -1</clus>
<clus scale="  102.440">  2  4  1 -1</clus>
<clus scale="   33.673">  1  3  2 -1</clus>
</clustering>
</event>
<event>
 6    0  0.1230761E+002  0.1136661E+03  0.7546771E-02  0.1253928E+00
          1   -1    0    0  505    0 -0.00000000000E+00  0.00000000000E+00  0.44751298392E+04  0.44751298392E+04  0.00000000000E+00 0.  1.
         21   -1    0    0  504  502  0.00000000000E+00 -0.00000000000E+00 -0.18615413574E+02  0.18615413574E+02  0.00000000000E+00 0. -1.
         21    1    1    2  503  501  0.57098590545E+02  0.52757555691E+02  0.89624858778E+03  0.89961388374E+03  0.00000000000E+00 0. -1.
         21    1    1    2  504  503  0.37279476414E+02 -0.12516586429E+02  0.62138975331E+02  0.73536906059E+02  0.00000000000E+00 0. -1.
         21    1    1    2  505  502  0.30454588130E+02  0.40484290161E+02  0.57004715593E+02  0.76262686078E+02  0.00000000000E+00 0. -1.
          1    1    1    2  501    0 -0.12483265509E+03 -0.80725259422E+02  0.34411221469E+04  0.34443317769E+04  0.00000000000E+00 0.  1.
<scales pt_clust_3="113.66610" pt_clust_4="39.32460" pt_clust_5="66.05381" pt_clust_6="14000.00000"></scales>
<clustering>
<clus scale="   39.325">  2  4  1 -1</clus>
<clus scale="   66.054">  2  5  1 -1</clus>
<clus scale="  113.666">  2  3  1 -1</clus>
<clus scale="   39.325">  2  3  1 -1</clus>
</clustering>
</event>
<event>
 6    0  0.1230761E+002  0.9296686E+02  0.7546771E-02  0.1295822E+00
          2   -1    0    0  505    0 -0.00000000000E+00  0.00000000000E+00  0.23459514207E+03  0.23459514207E+03  0.00000000000E+00 0. -1.
         21   -1    0    0  503  502  0.00000000000E+00 -0.00000000000E+00 -0.24486492727E+03  0.24486492727E+03  0.00000000000E+00 0.  1.
         21    1    1    2  503  501 -0.42161024260E+02  0.17975034155E+02 -0.34026399558E+02  0.57082831801E+02  0.00000000000E+00 0. -1.
         21    1    1    2  504  502 -0.51639544798E+02  0.68164621983E+01 -0.16127548450E+03  0.16947828370E+03  0.00000000000E+00 0.  1.
         21    1    1    2  505  504 -0.32876277887E+02 -0.19863296968E+02  0.16001027140E+02  0.41610492471E+02  0.00000000000E+00 0. -1.
          2    1    1    2  501    0  0.12667684694E+03 -0.49281993858E+01  0.16903107172E+03  0.21128846137E+03  0.00000000000E+00 0. -1.
<scales pt_clust_3="47.12301" pt_clust_4="14000.00000" pt_clust_5="38.41094" pt_clust_6="92.96686"></scales>
<clustering>
<clus scale="   38.411">  1  5  2 -1</clus>
<clus scale="   47.123">  2  3  1 -1</clus>
<clus scale="   92.967">  1  6  2 -1</clus>
<clus scale="   47.123">  2  3  1 -1</clus>
</clustering>
</event>
<event>
 6    0  0.1230761E+002  0.7138816E+02  0.7546771E-02  0.1355435E+00
         21   -1    0    0  505  502  0.00000000000E+00  0.00000000000E+00  0.10992258920E+03  0.10992258920E+03  0.00000000000E+00 0.  1.
          2   -1    0    0  504    0 -0.00000000000E+00 -0.00000000000E+00 -0.26911953832E+04  0.26911953832E+04  0.00000000000E+00 0.  1.
         21    1    1    2  503  501 -0.19905167156E+01  0.11735122407E+03  0.25386431521E+02  0.12008223371E+03  0.00000000000E+00 0.  1.
         21    1    1    2  504  502  0.53599340216E+02 -0.39408465638E+02 -0.25876793731E+03  0.26718301184E+03  0.00000000000E+00 0.  1.
         21    1    1    2  505  503 -0.27082056336E+01 -0.45330539907E+02  0.16808696057E+02  0.48422355262E+02  0.00000000000E+00 0.  1.
          2    1    1    2  501    0 -0.48900617867E+02 -0.32612218526E+02 -0.23646999843E+04  0.23654303716E+04  0.00000000000E+00 0.  1.
<scales pt_clust_3="14000.00000" pt_clust_4="71.38816" pt_clust_5="45.41137" pt_clust_6="58.90748"></scales>
<clustering>
<clus scale="   45.411">  1  5  2 -1</clus>
<clus scale="   58.907">  2  6  1 -1</clus>
<clus scale="   71.388">  2  4  1 -1</clus>
<clus scale="   45.411">  1  3  2 -1</clus>
</clustering>
</event>
<event>
 6    0  0.1230761E+002  0.3013354E+03  0.7546771E-02  0.1084575E+00
          1   -1    0    0  505    0 -0.00000000000E+00  0.00000000000E+00  0.13801978924E+04  0.13801978924E+04  0.00000000000E+00 0.  1.
         21   -1    0    0  501  502  0.00000000000E+00 -0.00000000000E+00 -0.15869265189E+03  0.15869265189E+03  0.00000000000E+00 0. -1.
         21    1    1    2  503  502  0.89264238360E+02  0.15068370089E+03 -0.87573150126E+01  0.17535784137E+03  0.00000000000E+00 0. -1.
         21    1    1    2  504  503  0.93772774883E+02  0.64334687748E+02  0.46155784313E+02  0.12272995471E+03  0.00000000000E+00 0.  1.
         21    1    1    2  505  504  0.36206951017E+02  0.26212913648E+02  0.13318418094E+03  0.14048518141E+03  0.00000000000E+00 0.  1.
          1    1    1    2  501    0 -0.21924396426E+03 -0.24123130229E+03  0.10509225903E+04  0.11003175669E+04  0.00000000000E+00 0.  1.
<scales pt_clust_3="71.19232" pt_clust_4="71.19232" pt_clust_5="44.69967" pt_clust_6="288.23735"></scales>
<clustering>
<clus scale="   44.700">  1  5  2 -1</clus>
<clus scale="   71.192">  3  4 -1 -1</clus>
<clus scale="  288.237">  1  6  2 -1</clus>
<clus scale="  301.335">  2  3  1 -1</clus>
</clustering>
</event>
<event>
 6    0  0.1230761E+002  0.7272554E+02  0.7546771E-02  0.1351063E+00
         21   -1    0    0  504  502  0.00000000000E+00  0.00000000000E+00  0.72110589727E+02  0.72110589727E+02  0.00000000000E+00 0.  1.
          2   -1    0    0  503    0 -0.00000000000E+00 -0.00000000000E+00 -0.27749786824E+04  0.27749786824E+04  0.00000000000E+00 0.  1.
         21    1    1    2  503  505 -0.62944005129E+02 -0.18078630325E+02 -0.32709488852E+03  0.33358634677E+03  0.00000000000E+00 0. -1.
         21    1    1    2  504  501  0.68408151968E+02 -0.40274632115E+02 -0.72668188056E+02  0.10762149787E+03  0.00000000000E+00 0.  1.
         21    1    1    2  505  502 -0.73668685755E+02 -0.39429142862E+01  0.23512939991E+02  0.77430486121E+02  0.00000000000E+00 0.  1.
          2    1    1    2  501    0  0.68204538916E+02  0.62296176726E+02 -0.23266179561E+04  0.23284509414E+04  0.00000000000E+00 0.  1.
<scales pt_clust_3="65.48881" pt_clust_4="14000.00000" pt_clust_5="72.72554" pt_clust_6="45.83682"></scales>
<clustering>
<clus scale="   65.489">  2  3  1 -1</clus>
<clus scale="   45.837">  2  6  1 -1</clus>
<clus scale="   72.726">  1  5  2 -1</clus>
<clus scale="   72.726">  1  3  2 -1</clus>
</clustering>
</event>
<event>
 6    0  0.1230761E+002  0.1710270E+03  0.7546771E-02  0.1176781E+00
         21   -1    0    0  504  502  0.00000000000E+00  0.00000000000E+00  0.29823845723E+03  0.29823845723E+03  0.00000000000E+00 0.  1.
         -1   -1    0    0    0  501 -0.00000000000E+00 -0.00000000000E+00 -0.89351943287E+03  0.89351943287E+03  0.00000000000E+00 0.  1.
         21    1    1    2  503  502 -0.87168763775E+01 -0.82965680467E+02  0.14160968835E+03  0.16435507873E+03  0.00000000000E+00 0.  1.
         21    1    1    2  504  501  0.33782708918E+02 -0.40036285834E+02 -0.46512679749E+02  0.70054300244E+02  0.00000000000E+00 0.  1.
         21    1    1    2  505  503 -0.40615943167E+02 -0.75075944016E+02  0.10626509035E+03  0.13630231706E+03  0.00000000000E+00 0.  1.
         -1    1    1    2    0  505  0.15550110626E+02  0.19807791032E+03 -0.79664307460E+03  0.82104619407E+03  0.00000000000E+00 0.  1.
<scales pt_clust_3="38.82145" pt_clust_4="52.38488" pt_clust_5="38.82145" pt_clust_6="166.45768"></scales>
<clustering>
<clus scale="   38.821">  3  5 -1 -1</clus>
<clus scale="   52.385">  2  4  1 -1</clus>
<clus scale="  166.458">  2  6  1 -1</clus>
<clus scale="  171.027">  1  3  2 -1</clus>
</clustering>
</event>
<event>
 6    0  0.1230761E+002  0.1076488E+03  0.7546771E-02  0.1264987E+00
         21   -1    0    0  503  502  0.00000000000E+00  0.00000000000E+00  0.34303269339E+03  0.34303269339E+03  0.00000000000E+00 0.  1.
          2   -1    0    0  505    0 -0.00000000000E+00 -0.00000000000E+00 -0.84777558823E+03  0.84777558823E+03  0.00000000000E+00 0.  1.
         21    1    1    2  503  504 -0.36641668423E+02 -0.28706812374E+02 -0.13839887571E+02  0.48561666255E+02  0.00000000000E+00 0. -1.
         21    1    1    2  504  501  0.33980702042E+02 -0.33049622370E+02  0.28636192205E+02  0.55380476290E+02  0.00000000000E+00 0. -1.
         21    1    1    2  505  502 -0.70971618642E+02 -0.17601774509E+02  0.27521989764E+03  0.28476794970E+03  0.00000000000E+00 0.  1.
          2    1    1    2  501    0  0.73632585022E+02  0.79358209253E+02 -0.79475909712E+03  0.80209818938E+03  0.00000000000E+00 0.  1.
<scales pt_clust_3="46.54775" pt_clust_4="46.97405" pt_clust_5="14000.00000" pt_clust_6="107.64876"></scales>
<clustering>
<clus scale="   46.548">  1  3  2 -1</clus>
<clus scale="   46.974">  1  4  2 -1</clus>
<clus scale="  107.649">  2  6  1 -1</clus>
<clus scale="   46.548">  1  3  2 -1</clus>
</clustering>
</event>
<event>
 6    0  0.1230761E+002  0.9103210E+02  0.7546771E-02  0.1300371E+00
         21   -1    0    0  505  502  0.00000000000E+00  0.00000000000E+00  0.26162508816E+03  0.26162508816E+03  0.00000000000E+00 0. -1.
          1   -1    0    0  503    0 -0.00000000000E+00 -0.00000000000E+00 -0.80842657817E+03  0.80842657817E+03  0.00000000000E+00 0. -1.
         21    1    1    2  503  504 -0.37825485454E+02 -0.60167042653E+02 -0.21112724199E+03  0.22276793459E+03  0.00000000000E+00 0.  1.
         21    1    1    2  504  502 -0.32199732483E+02  0.14494320236E+02  0.10174189991E+03  0.10769550728E+03  0.00000000000E+00 0. -1.
         21    1    1    2  505  501 -0.24692768292E+02 -0.17198665906E+02  0.14402613164E+03  0.14713617336E+03  0.00000000000E+00 0. -1.
          1    1    1    2  501    0  0.94717986230E+02  0.62871388322E+02 -0.58144227957E+03  0.59245205110E+03  0.00000000000E+00 0. -1.
<scales pt_clust_3="91.03210" pt_clust_4="54.49228" pt_clust_5="30.09197" pt_clust_6="14000.00000"></scales>
<clustering>
<clus scale="   30.092">  1  5  2 -1</clus>
<clus scale="   54.492">  1  4  2 -1</clus>
<clus scale="   91.032">  1  3  2 -1</clus>
<clus scale="   30.092">  1  3  2 -1</clus>
</clustering>
</event>
<event>
 6    0  0.1230761E+002  0.1421122E+03  0.7546771E-02  0.1210515E+00
          2   -1    0    0  504    0 -0.00000000000E+00  0.00000000000E+00  0.11145043542E+03  0.11145043542E+03  0.00000000000E+00 0. -1.
         21   -1    0    0  505  502  0.00000000000E+00 -0.00000000000E+00 -0.13430059545E+04  0.13430059545E+04  0.00000000000E+00 0. -1.
         21    1    1    2  503  502  0.49977053985E+02  0.94297629189E+02 -0.50289256257E+03  0.51409209125E+03  0.00000000000E+00 0.  1.
         21    1    1    2  504  503 -0.65089803576E+01 -0.34564022394E+02 -0.23181883329E+02  0.42124080809E+02  0.00000000000E+00 0.  1.
         21    1    1    2  505  501 -0.35078176725E+02  0.57646049147E+02 -0.76388880688E+03  0.76686351768E+03  0.00000000000E+00 0. -1.
          2    1    1    2  501    0 -0.83898969023E+01 -0.11737965594E+03  0.58407733693E+02  0.13137670020E+03  0.00000000000E+00 0. -1.
<scales pt_clust_3="142.11220" pt_clust_4="35.17156" pt_clust_5="67.09954" pt_clust_6="14000.00000"></scales>
<clustering>
<clus scale="   35.172">  1  4  2 -1</clus>
<clus scale="   67.100">  2  5  1 -1</clus>
<clus scale="  142.112">  2  3  1 -1</clus>
<clus scale="   67.100">  2  3  1 -1</clus>
</clustering>
</event>
<event>
 6    0  0.1230761E+002  0.2182143E+03  0.7546771E-02  0.1135221E+00
          2   -1    0    0  503    0 -0.00000000000E+00  0.00000000000E+00  0.26295445538E+04  0.26295445538E+04  0.00000000000E+00 0. -1.
         21   -1    0    0  505  502  0.00000000000E+00 -0.00000000000E+00 -0.47143095265E+03  0.47143095265E+03  0.00000000000E+00 0. -1.
         21    1    1    2  503  504  0.29702465433E+02  0.18037173457E+02  0.35058028118E+03  0.35229832477E+03  0.00000000000E+00 0. -1.
         21    1    1    2  504  502 -0.75101481243E+02  0.78002574096E+02 -0.49116782197E+02  0.11889950523E+03  0.00000000000E+00 0.  1.
         21    1    1    2  505  501  0.21073851719E+03  0.91953579820E+02 -0.34463913604E+03  0.41429737817E+03  0.00000000000E+00 0. -1.
          2    1    1    2  501    0 -0.16533950138E+03 -0.18799332737E+03  0.22012892382E+04  0.22154802983E+04  0.00000000000E+00 0. -1.
<scales pt_clust_3="34.75020" pt_clust_4="108.16508" pt_clust_5="14000.00000" pt_clust_6="218.21427"></scales>
<clustering>
<clus scale="   34.750">  1  3  2 -1</clus>
<clus scale="  108.165">  2  4  1 -1</clus>
<clus scale="  218.214">  1  6  2 -1</clus>
<clus scale="  108.165">  2  3  1 -1</clus>
</clustering>
</event>
<event>
 6    0  0.1230761E+002  0.9262385E+02  0.7546771E-02  0.1296619E+00
          1   -1    0    0  504    0 -0.00000000000E+00  0.00000000000E+00  0.62797200803E+03  0.62797200803E+03  0.00000000000E+00 0.  1.
         21   -1    0    0  503  502  0.00000000000E+00 -0.00000000000E+00 -0.97596458082E+03  0.97596458082E+03  0.00000000000E+00 0.  1.
         21    1    1    2  503  501 -0.55898915924E+02  0.17860256076E+02 -0.83811897609E+03  0.84017087287E+03  0.00000000000E+00 0.  1.
         21    1    1    2  504  505  0.18079356133E+02 -0.10653194087E+03  0.27611216387E+03  0.29650268899E+03  0.00000000000E+00 0. -1.
         21    1    1    2  505  502 -0.22209619924E+02  0.33893501131E+02 -0.11835672087E+03  0.12510135895E+03  0.00000000000E+00 0.  1.
          1    1    1    2  501    0  0.60029179715E+02  0.54778183665E+02  0.33237096030E+03  0.34216166803E+03  0.00000000000E+00 0.  1.
<scales pt_clust_3="92.62385" pt_clust_4="14000.00000" pt_clust_5="40.52205" pt_clust_6="81.30316"></scales>
<clustering>
<clus scale="   40.522">  2  5  1 -1</clus>
<clus scale="   81.303">  1  6  2 -1</clus>
<clus scale="   92.624">  2  3  1 -1</clus>
<clus scale="   40.522">  2  3  1 -1</clus>
</clustering>
</event>
<event>
 6    0  0.1230761E+002  0.1214965E+03  0.7546771E-02  0.1240648E+00
          1   -1    0    0  503    0 -0.00000000000E+00  0.00000000000E+00  0.28444384810E+04  0.28444384810E+04  0.00000000000E+00 0.  1.
         21   -1    0    0  504  502  0.00000000000E+00 -0.00000000000E+00 -0.20132777541E+03  0.20132777541E+03  0.00000000000E+00 0. -1.
         21    1    1    2  503  505  0.42987677345E+02  0.90872804136E+01  0.49553563480E+03  0.49747973268E+03  0.00000000000E+00 0. -1.
         21    1    1    2  504  501 -0.32354312992E+02 -0.17845964766E+03 -0.12898575926E+03  0.22255779812E+03  0.00000000000E+00 0. -1.
         21    1    1    2  505  502 -0.13103158930E+02  0.65683308687E+02  0.24556621715E+02  0.71337349853E+02  0.00000000000E+00 0.  1.
          1    1    1    2  501    0  0.24697945770E+01  0.10368905856E+03  0.22520042083E+04  0.22543913757E+04  0.00000000000E+00 0.  1.
<scales pt_clust_3="43.93767" pt_clust_4="14000.00000" pt_clust_5="66.99379" pt_clust_6="121.49654"></scales>
<clustering>
<clus scale="   43.938">  1  3  2 -1</clus>
<clus scale="   66.994">  2  5  1 -1</clus>
<clus scale="  121.497">  1  6  2 -1</clus>
<clus scale="   66.994">  2  3  1 -1</clus>
</clustering>
</event>
<event>
 6    0  0.1230761E+002  0.1491878E+03  0.7546771E-02  0.1201475E+00
          2   -1    0    0  505    0 -0.00000000000E+00  0.00000000000E+00  0.52566991159E+03  0.52566991159E+03  0.00000000000E+00 0. -1.
         21   -1    0    0  501  502  0.00000000000E+00 -0.00000000000E+00 -0.16456609718E+03  0.16456609718E+03  0.00000000000E+00 0.  1.
         21    1    1    2  503  502  0.14438788457E+03  0.15846606457E+01 -0.77944633585E+02  0.16409064039E+03  0.00000000000E+00 0.  1.
         21    1    1    2  504  503  0.48846504851E+01 -0.42517403398E+02  0.20300719038E+03  0.20746929591E+03  0.00000000000E+00 0.  1.
         21    1    1    2  505  504  0.25766811498E+02 -0.15425698209E+02  0.28732762077E+02  0.41562631733E+02  0.00000000000E+00 0.  1.
          2    1    1    2  501    0 -0.17503934655E+03  0.56358440962E+02  0.20730849554E+03  0.27711344073E+03  0.00000000000E+00 0. -1.
<scales pt_clust_3="149.18783" pt_clust_4="51.41629" pt_clust_5="30.03133" pt_clust_6="14000.00000"></scales>
<clustering>
<clus scale="   30.031">  1  5  2 -1</clus>
<clus scale="   51.416">  1  4  2 -1</clus>
<clus scale="  149.188">  2  3  1 -1</clus>
<clus scale="  149.188">  2  3  1 -1</clus>
</clustering>
</event>
<event>
 6    0  0.1230761E+002  0.1534185E+03  0.7546771E-02  0.1196334E+00
          1   -1    0    0  504    0 -0.00000000000E+00  0.00000000000E+00  0.24594563094E+03  0.24594563094E+03  0.00000000000E+00 0.  1.
         21   -1    0    0  501  502  0.00000000000E+00 -0.00000000000E+00 -0.58028366354E+03  0.58028366354E+03  0.00000000000E+00 0.  1.
         21    1    1    2  503  502  0.21445296836E+02  0.10058641538E+03 -0.44830674746E+03  0.45995267966E+03  0.00000000000E+00 0.  1.
         21    1    1    2  504  505  0.17993962680E+02  0.38203067855E+02  0.13150500976E+01  0.42249099910E+02  0.00000000000E+00 0.  1.
         21    1    1    2  505  503  0.10837825614E+01  0.37383380510E+02 -0.62166923655E+02  0.72549418466E+02  0.00000000000E+00 0.  1.
          1    1    1    2  501    0 -0.40523042078E+02 -0.17617286374E+03  0.17482058841E+03  0.25147809644E+03  0.00000000000E+00 0.  1.
<scales pt_clust_3="35.32655" pt_clust_4="42.22863" pt_clust_5="35.32655" pt_clust_6="141.79327"></scales>
<clustering>
<clus scale="   35.327">  3  5 -1 -1</clus>
<clus scale="   42.229">  1  4  2 -1</clus>
<clus scale="  141.793">  1  6  2 -1</clus>
<clus scale="  153.418">  2  3  1 -1</clus>
</clustering>
</event>
<event>
 6    0  0.1230761E+002  0.5415554E+02  0.7546771E-02  0.1424135E+00
          1   -1    0    0  503    0 -0.00000000000E+00  0.00000000000E+00  0.14270971196E+03  0.14270971196E+03  0.00000000000E+00 0. -1.
         21   -1    0    0  505  502  0.00000000000E+00 -0.00000000000E+00 -0.71558852174E+03  0.71558852174E+03  0.00000000000E+00 0. -1.
         21    1    1    2  503  504 -0.25168979897E+02  0.38972233298E+02 -0.52885841827E+01  0.46693486055E+02  0.00000000000E+00 0.  1.
         21    1    1    2  504  502  0.46500011446E+02  0.19530618005E+02 -0.79660470065E+02  0.94284073921E+02  0.00000000000E+00 0. -1.
         21    1    1    2  505  501 -0.76011698636E+02 -0.63898340401E+02 -0.59166064243E+03  0.59993590661E+03  0.00000000000E+00 0. -1.
          1    1    1    2  501    0  0.54680667087E+02  0.53954890978E+01  0.10373088690E+03  0.11738476712E+03  0.00000000000E+00 0. -1.
<scales pt_clust_3="46.39302" pt_clust_4="50.02379" pt_clust_5="54.15554" pt_clust_6="14000.00000"></scales>
<clustering>
<clus scale="   46.393">  1  3  2 -1</clus>
<clus scale="   50.024">  2  4  1 -1</clus>
<clus scale="   54.156">  2  5  1 -1</clus>
<clus scale="   50.024">  2  3  1 -1</clus>
</clustering>
</event>
<event>
 6    0  0.1230761E+002  0.4211977E+03  0.7546771E-02  0.1036677E+00
         21   -1    0    0  501  502  0.00000000000E+00  0.00000000000E+00  0.22619295901E+03  0.22619295901E+03  0.00000000000E+00 0. -1.
          1   -1    0    0  503    0 -0.00000000000E+00 -0.00000000000E+00 -0.32310556229E+04  0.32310556229E+04  0.00000000000E+00 0.  1.
         21    1    1    2  503  504  0.32677028304E+02 -0.42514369606E+01 -0.15735403655E+03  0.16076739630E+03  0.00000000000E+00 0.  1.
         21    1    1    2  504  505  0.45782943630E+03  0.97014782379E+01 -0.10134254342E+03  0.46901196417E+03  0.00000000000E+00 0. -1.
         21    1    1    2  505  502 -0.45202454970E+02  0.26975160073E+02 -0.81239921548E+01  0.53262749130E+02  0.00000000000E+00 0.  1.
          1    1    1    2  501    0 -0.44530400964E+03 -0.32425201350E+02 -0.27380420918E+04  0.27742064723E+04  0.00000000000E+00 0.  1.
<scales pt_clust_3="32.95243" pt_clust_4="421.19769" pt_clust_5="52.33758" pt_clust_6="14000.00000"></scales>
<clustering>
<clus scale="   32.952">  2  3  1 -1</clus>
<clus scale="   52.338">  1  5  2 -1</clus>
<clus scale="  421.198">  1  4  2 -1</clus>
<clus scale="   52.338">  1  3  2 -1</clus>
</clustering>
</event>
<event>
 6    0  0.1230761E+002  0.2086652E+03  0.7546771E-02  0.1142627E+00
         21   -1    0    0  505  502  0.00000000000E+00  0.00000000000E+00  0.10461804045E+03  0.10461804045E+03  0.00000000000E+00 0.  1.
          2   -1    0    0  502    0 -0.00000000000E+00 -0.00000000000E+00 -0.13731463945E+04  0.13731463945E+04  0.00000000000E+00 0.  1.
         21    1    1    2  503  504  0.78032555926E+02 -0.60402193133E+02 -0.15913833961E+02  0.99953763466E+02  0.00000000000E+00 0.  1.
         21    1    1    2  504  501 -0.45230233913E+02  0.37190693351E+02 -0.52574860872E+03  0.52899954755E+03  0.00000000000E+00 0.  1.
         21    1    1    2  505  503  0.99475975782E+02 -0.32392847975E+02  0.33102479674E+01  0.10466959491E+03  0.00000000000E+00 0.  1.
          2    1    1    2  501    0 -0.13227829780E+03  0.55604347757E+02 -0.73017615929E+03  0.74414152898E+03  0.00000000000E+00 0.  1.
<scales pt_clust_3="38.74689" pt_clust_4="37.36403" pt_clust_5="204.23484" pt_clust_6="37.36403"></scales>
<clustering>
<clus scale="   37.364">  4  6 -1 -1</clus>
<clus scale="   38.747">  3  5 -1 -1</clus>
<clus scale="  204.235">  1  3  2 -1</clus>
<clus scale="  204.235">  1  3  2 -1</clus>
</clustering>
</event>
<event>
 6    0  0.1230761E+002  0.2043167E+03  0.7546771E-02  0.1146147E+00
         21   -1    0    0  504  502  0.00000000000E+00  0.00000000000E+00  0.16112217188E+04  0.16112217188E+04  0.00000000000E+00 0.  1.
          2   -1    0    0  505    0 -0.00000000000E+00 -0.00000000000E+00 -0.42539660044E+03  0.42539660044E+03  0.00000000000E+00 0. -1.
         21    1    1    2  503  501 -0.14013638820E+02  0.13295610655E+03  0.79671114083E+03  0.80785045043E+03  0.00000000000E+00 0.  1.
         21    1    1    2  504  503 -0.51713163184E+01  0.63373964719E+02  0.73225715256E+03  0.73501261173E+03  0.00000000000E+00 0.  1.
         21    1    1    2  505  502 -0.40622548358E+02 -0.39976076711E+02 -0.31967519783E+03  0.32471604558E+03  0.00000000000E+00 0. -1.
          2    1    1    2  501    0  0.59807503497E+02 -0.15635399456E+03 -0.23467977155E+02  0.16903921155E+03  0.00000000000E+00 0. -1.
<scales pt_clust_3="42.33752" pt_clust_4="42.33752" pt_clust_5="56.99367" pt_clust_6="194.87561"></scales>
<clustering>
<clus scale="   42.338">  3  4 -1 -1</clus>
<clus scale="   56.994">  2  5  1 -1</clus>
<clus scale="  194.876">  2  6  1 -1</clus>
<clus scale="  204.317">  1  3  2 -1</clus>
</clustering>
</event>
<event>
 6    0  0.1230761E+002  0.7764518E+02  0.7546771E-02  0.1335870E+00
         21   -1    0    0  503  502  0.00000000000E+00  0.00000000000E+00  0.19254150390E+03  0.19254150390E+03  0.00000000000E+00 0.  1.
          2   -1    0    0  504    0 -0.00000000000E+00 -0.00000000000E+00 -0.65946341042E+03  0.65946341042E+03  0.00000000000E+00 0.  1.
         21    1    1    2  503  505 -0.50180928551E+02  0.32977777798E+02  0.60406030582E+02  0.85173634121E+02  0.00000000000E+00 0.  1.
         21    1    1    2  504  502  0.13011104061E+03 -0.28941210072E+02  0.65171152992E+02  0.14837033299E+03  0.00000000000E+00 0.  1.
         21    1    1    2  505  501 -0.43410475034E+02  0.47416808128E+02 -0.82580708757E+02  0.10465369795E+03  0.00000000000E+00 0.  1.
          2    1    1    2  501    0 -0.36519637025E+02 -0.51453375855E+02 -0.50991838133E+03  0.51380724926E+03  0.00000000000E+00 0.  1.
<scales pt_clust_3="60.04714" pt_clust_4="77.64518" pt_clust_5="14000.00000" pt_clust_6="63.13868"></scales>
<clustering>
<clus scale="   60.047">  1  3  2 -1</clus>
<clus scale="   63.139">  2  6  1 -1</clus>
<clus scale="   77.645">  1  4  2 -1</clus>
<clus scale="   60.047">  1  3  2 -1</clus>
</clustering>
</event>
<event>
 6    0  0.1230761E+002  0.9994404E+02  0.7546771E-02  0.1280414E+00
         21   -1    0    0  503  502  0.00000000000E+00  0.00000000000E+00  0.75157238068E+03  0.75157238068E+03  0.00000000000E+00 0.  1.
          2   -1    0    0  504    0 -0.00000000000E+00 -0.00000000000E+00 -0.41549625377E+03  0.41549625377E+03  0.00000000000E+00 0. -1.
         21    1    1    2  503  501  0.37516096120E+02 -0.25633968356E+02  0.39555731424E+03  0.39815844415E+03  0.00000000000E+00 0.  1.
         21    1    1    2  504  505  0.43711837189E+02 -0.38547659799E+02  0.25065276270E+02  0.63442216709E+02  0.00000000000E+00 0.  1.
         21    1    1    2  505  502 -0.29891007517E+02 -0.30127778046E+02  0.30165060234E+03  0.30462147205E+03  0.00000000000E+00 0.  1.
          2    1    1    2  501    0 -0.51336925792E+02  0.94309406202E+02 -0.38619706594E+03  0.40084650153E+03  0.00000000000E+00 0. -1.
<scales pt_clust_3="53.45387" pt_clust_4="99.94404" pt_clust_5="42.44002" pt_clust_6="14000.00000"></scales>
<clustering>
<clus scale="   42.440">  1  5  2 -1</clus>
<clus scale="   53.454">  1  3  2 -1</clus>
<clus scale="   99.944">  1  4  2 -1</clus>
<clus scale="   42.440">  1  3  2 -1</clus>
</clustering>
</event>
<event>
 6    0  0.1230761E+002  0.1161863E+03  0.7546771E-02  0.1249524E+00
         21   -1    0    0  503  502  0.00000000000E+00  0.00000000000E+00  0.44718188606E+02  0.44718188606E+02  0.00000000000E+00 0. -1.
         -3   -1    0    0    0  501 -0.00000000000E+00 -0.00000000000E+00 -0.67933811535E+03  0.67933811535E+03  0.00000000000E+00 0. -1.
         21    1    1    2  503  501 -0.48074437780E+02 -0.12703052283E+02 -0.25885737138E+02  0.56058812798E+02  0.00000000000E+00 0. -1.
         21    1    1    2  504  505 -0.91995440752E+02  0.53522770044E+02 -0.21645137608E+03  0.24120332966E+03  0.00000000000E+00 0. -1.
         21    1    1    2  505  502  0.28328860587E+02  0.14081608703E+02 -0.29549077074E+02  0.43289305859E+02  0.00000000000E+00 0. -1.
         -3    1    1    2    0  504  0.11174101794E+03 -0.54901326464E+02 -0.36273373645E+03  0.38350485564E+03  0.00000000000E+00 0. -1.
<scales pt_clust_3="37.45942" pt_clust_4="116.18632" pt_clust_5="31.63568" pt_clust_6="14000.00000"></scales>
<clustering>
<clus scale="   31.636">  1  5  2 -1</clus>
<clus scale="   37.459">  1  3  2 -1</clus>
<clus scale="  116.186">  1  4  2 -1</clus>
<clus scale="   31.636">  1  3  2 -1</clus>
</clustering>
</event>
<event>
 6    0  0.1230761E+002  0.9234717E+02  0.7546771E-02  0.1297265E+00
         21   -1    0    0  503  502  0.00000000000E+00  0.00000000000E+00  0.29057436370E+03  0.29057436370E+03  0.00000000000E+00 0.  1.
          2   -1    0    0  504    0 -0.00000000000E+00 -0.00000000000E+00 -0.51957369608E+03  0.51957369608E+03  0.00000000000E+00 0.  1.
         21    1    1    2  503  501 -0.10075461853E+02 -0.58983866428E+02  0.31660371282E+01  0.59921909361E+02  0.00000000000E+00 0.  1.
         21    1    1    2  504  505 -0.28352724381E+02  0.11081849743E+02 -0.14112558368E+03  0.14437144711E+03  0.00000000000E+00 0. -1.
         21    1    1    2  505  502  0.17583472086E+02  0.10316952528E+03  0.24407880117E+03  0.26557031200E+03  0.00000000000E+00 0.  1.
          2    1    1    2  501    0  0.20844714148E+02 -0.55267508593E+02 -0.33511858700E+03  0.34028439130E+03  0.00000000000E+00 0.  1.
<scales pt_clust_3="14000.00000" pt_clust_4="30.44149" pt_clust_5="92.34717" pt_clust_6="45.56541"></scales>
<clustering>
<clus scale="   30.441">  2  4  1 -1</clus>
<clus scale="   45.565">  2  6  1 -1</clus>
<clus scale="   92.347">  1  5  2 -1</clus>
<clus scale="   92.347">  1  3  2 -1</clus>
</clustering>
</event>
<event>
 6    0  0.1230761E+002  0.1103489E+03  0.7546771E-02  0.1259925E+00
         -1   -1    0    0    0  501 -0.00000000000E+00  0.00000000000E+00  0.91582234313E+03  0.91582234313E+03  0.00000000000E+00 0.  1.
         21   -1    0    0  505  502  0.00000000000E+00 -0.00000000000E+00 -0.10787944736E+03  0.10787944736E+03  0.00000000000E+00 0.  1.
         21    1    1    2  503  501  0.34741778405E+02  0.12006153184E+02  0.38840472709E+03  0.39014019391E+03  0.00000000000E+00 0.  1.
         21    1    1    2  504  502  0.10347165455E+03 -0.58320654381E+02  0.12131650085E+03  0.16978037402E+03  0.00000000000E+00 0.  1.
         21    1    1    2  505  503 -0.66205974269E+02  0.88071764077E+02 -0.38661192578E+02  0.11676709497E+03  0.00000000000E+00 0.  1.
         -1    1    1    2    0  504 -0.72007458685E+02 -0.41757262881E+02  0.33688286041E+03  0.34701412759E+03  0.00000000000E+00 0.  1.
<scales pt_clust_3="36.75784" pt_clust_4="110.34894" pt_clust_5="14000.00000" pt_clust_6="59.98482"></scales>
<clustering>
<clus scale="   36.758">  1  3  2 -1</clus>
<clus scale="   59.985">  1  6  2 -1</clus>
<clus scale="  110.349">  1  4  2 -1</clus>
<clus scale="  110.349">  2  3  1 -1</clus>
</clustering>
</event>
<event>
 6    0  0.1230761E+002  0.1446164E+03  0.7546771E-02  0.1207249E+00
         21   -1    0    0  505  502  0.00000000000E+00  0.00000000000E+00  0.40610783069E+02  0.40610783069E+02  0.00000000000E+00 0. -1.
          2   -1    0    0  503    0 -0.00000000000E+00 -0.00000000000E+00 -0.15627550388E+04  0.15627550388E+04  0.00000000000E+00 0.  1.
         21    1    1    2  503  502 -0.27760194372E+02 -0.21743803978E+02 -0.71785492865E+02  0.79978612071E+02  0.00000000000E+00 0. -1.
         21    1    1    2  504  501 -0.14760854975E+03  0.49135629053E+02 -0.19887310472E+03  0.25249377375E+03  0.00000000000E+00 0. -1.
         21    1    1    2  505  504  0.34954840539E+02 -0.24633112776E-01 -0.50498033331E+02  0.61415737838E+02  0.00000000000E+00 0. -1.
          2    1    1    2  501    0  0.14041390358E+03 -0.27367191962E+02 -0.12009876248E+04  0.12094776982E+04  0.00000000000E+00 0.  1.
<scales pt_clust_3="32.15545" pt_clust_4="144.61638" pt_clust_5="34.95485" pt_clust_6="14000.00000"></scales>
<clustering>
<clus scale="   34.955">  1  5  2 -1</clus>
<clus scale="   32.155">  1  3  2 -1</clus>
<clus scale="  144.616">  1  4  2 -1</clus>
<clus scale="   34.955">  1  3  2 -1</clus>
</clustering>
</event>
<event>
 6    0  0.1230761E+002  0.9144595E+02  0.7546771E-02  0.1299387E+00
         21   -1    0    0  504  502  0.00000000000E+00  0.00000000000E+00  0.93020294709E+02  0.93020294709E+02  0.00000000000E+00 0. -1.
          2   -1    0    0  503    0 -0.00000000000E+00 -0.00000000000E+00 -0.92554134164E+03  0.92554134164E+03  0.00000000000E+00 0. -1.
         21    1    1    2  503  505  0.99539605647E+01  0.49673036173E+02 -0.28060422866E+03  0.28514071087E+03  0.00000000000E+00 0. -1.
         21    1    1    2  504  501 -0.12496603560E+03 -0.69616610249E+02  0.10449395055E+02  0.14343002591E+03  0.00000000000E+00 0. -1.
         21    1    1    2  505  502  0.43007975509E+02  0.25564807444E+02 -0.44030814290E+02  0.66648015305E+02  0.00000000000E+00 0.  1.
          2    1    1    2  501    0  0.72004099527E+02 -0.56212333682E+01 -0.51833539903E+03  0.52334288426E+03  0.00000000000E+00 0. -1.
<scales pt_clust_3="51.60126" pt_clust_4="91.44595" pt_clust_5="50.03244" pt_clust_6="14000.00000"></scales>
<clustering>
<clus scale="   50.032">  1  5  2 -1</clus>
<clus scale="   51.601">  2  3  1 -1</clus>
<clus scale="   91.446">  1  4  2 -1</clus>
<clus scale="   50.032">  1  3  2 -1</clus>
</clustering>
</event>
<event>
 6    0  0.1230761E+002  0.1171907E+03  0.7546771E-02  0.1247805E+00
         -2   -1    0    0    0  501 -0.00000000000E+00  0.00000000000E+00  0.73622918430E+02  0.73622918430E+02  0.00000000000E+00 0.  1.
         21   -1    0    0  503  502  0.00000000000E+00 -0.00000000000E+00 -0.14568128625E+04  0.14568128625E+04  0.00000000000E+00 0. -1.
         21    1    1    2  503  505 -0.18988810305E+02 -0.23235499777E+02 -0.18139129459E+03  0.18385664285E+03  0.00000000000E+00 0. -1.
         21    1    1    2  504  502  0.10018727118E+02 -0.95387272606E+02 -0.11634884909E+04  0.11674350411E+04  0.00000000000E+00 0. -1.
         21    1    1    2  505  501  0.41654909780E+02 -0.61061495882E+01 -0.26313470686E+02  0.49646906360E+02  0.00000000000E+00 0.  1.
         -2    1    1    2    0  504 -0.32684826594E+02  0.12472892197E+03 -0.11996687896E+02  0.12949719065E+03  0.00000000000E+00 0.  1.
<scales pt_clust_3="30.00772" pt_clust_4="117.19075" pt_clust_5="41.64758" pt_clust_6="14000.00000"></scales>
<clustering>
<clus scale="   30.008">  2  3  1 -1</clus>
<clus scale="   41.648">  1  5  2 -1</clus>
<clus scale="  117.191">  2  4  1 -1</clus>
<clus scale="   30.008">  2  3  1 -1</clus>
</clustering>
</event>
<event>
 6    0  0.1230761E+002  0.1067779E+03  0.7546771E-02  0.1266656E+00
         21   -1    0    0  505  502  0.00000000000E+00  0.00000000000E+00  0.29860907102E+03  0.29860907102E+03  0.00000000000E+00 0.  1.
         -2   -1    0    0    0  501 -0.00000000000E+00 -0.00000000000E+00 -0.11306375490E+03  0.11306375490E+03  0.00000000000E+00 0.  1.
         21    1    1    2  503  501  0.18059474166E+02  0.29084435706E+02 -0.50594175953E+01  0.34607032723E+02  0.00000000000E+00 0.  1.
         21    1    1    2  504  503  0.32702131954E+02  0.46863842830E+02  0.50612728803E+02  0.76336737656E+02  0.00000000000E+00 0.  1.
         21    1    1    2  505  504  0.89184666747E+02 -0.51780154924E+02  0.11850661655E+03  0.15709521760E+03  0.00000000000E+00 0.  1.
         -2    1    1    2    0  502 -0.13994627287E+03 -0.24168123612E+02  0.21485388363E+02  0.14363383794E+03  0.00000000000E+00 0.  1.
<scales pt_clust_3="33.63617" pt_clust_4="101.16035" pt_clust_5="106.77787" pt_clust_6="14000.00000"></scales>
<clustering>
<clus scale="   33.636">  3  4 -1 -1</clus>
<clus scale="  101.160">  2  3  1 -1</clus>
<clus scale="  106.778">  1  5  2 -1</clus>
<clus scale="  106.778">  1  3  2 -1</clus>
</clustering>
</event>
<event>
 6    0  0.1230761E+002  0.1156247E+03  0.7546771E-02  0.1250495E+00
         21   -1    0    0  501  502  0.00000000000E+00  0.00000000000E+00  0.16197783159E+03  0.16197783159E+03  0.00000000000E+00 0.  1.
          2   -1    0    0  504    0 -0.00000000000E+00 -0.00000000000E+00 -0.30832349756E+03  0.30832349756E+03  0.00000000000E+00 0. -1.
         21    1    1    2  503  502  0.14773626857E+02 -0.49133656760E+02  0.63322415829E+02  0.81499108115E+02  0.00000000000E+00 0.  1.
         21    1    1    2  504  505 -0.90349264235E+00 -0.57570575284E+02 -0.73512270428E+02  0.93376877978E+02  0.00000000000E+00 0.  1.
         21    1    1    2  505  503  0.40576341815E+02 -0.38857594560E+02  0.33449243762E+02  0.65385044760E+02  0.00000000000E+00 0.  1.
          2    1    1    2  501    0 -0.54446476030E+02  0.14556182660E+03 -0.16960505513E+03  0.23004029830E+03  0.00000000000E+00 0. -1.
<scales pt_clust_3="35.80906" pt_clust_4="57.57766" pt_clust_5="35.80906" pt_clust_6="109.38439"></scales>
<clustering>
<clus scale="   35.809">  3  5 -1 -1</clus>
<clus scale="   57.578">  2  4  1 -1</clus>
<clus scale="  109.384">  2  6  1 -1</clus>
<clus scale="  115.625">  1  3  2 -1</clus>
</clustering>
</event>
<event>
 6    0  0.1230761E+002  0.1023648E+03  0.7546771E-02  0.1275400E+00
         21   -1    0    0  503  502  0.00000000000E+00  0.00000000000E+00  0.89812975500E+03  0.89812975500E+03  0.00000000000E+00 0.  1.
          1   -1    0    0  504    0 -0.00000000000E+00 -0.00000000000E+00 -0.29771591235E+03  0.29771591235E+03  0.00000000000E+00 0.  1.
         21    1    1    2  503  505 -0.42235789965E+02 -0.14964886361E+02  0.31300309887E+03  0.31619416453E+03  0.00000000000E+00 0. -1.
         21    1    1    2  504  502 -0.33362941196E+02 -0.11109217540E+02  0.12202921531E+02  0.37221121068E+02  0.00000000000E+00 0. -1.
         21    1    1    2  505  501 -0.28956375338E+02 -0.47819608000E+02  0.54286077286E+03  0.54573162387E+03  0.00000000000E+00 0.  1.
          1    1    1    2  501    0  0.10455510650E+03  0.73893711901E+02 -0.26765295062E+03  0.29669875788E+03  0.00000000000E+00 0.  1.
<scales pt_clust_3="33.53297" pt_clust_4="35.16391" pt_clust_5="33.53297" pt_clust_6="95.26628"></scales>
<clustering>
<clus scale="   33.533">  3  5 -1 -1</clus>
<clus scale="   35.164">  2  4  1 -1</clus>
<clus scale="   95.266">  2  6  1 -1</clus>
<clus scale="  102.365">  1  3  2 -1</clus>
</clustering>
</event>
<event>
 6    0  0.1230761E+002  0.9949615E+02  0.7546771E-02  0.1281359E+00
         21   -1    0    0  504  502  0.00000000000E+00  0.00000000000E+00  0.21113961363E+03  0.21113961363E+03  0.00000000000E+00 0. -1.
         -3   -1    0    0    0  501 -0.00000000000E+00 -0.00000000000E+00 -0.12633918976E+03  0.12633918976E+03  0.00000000000E+00 0.  1.
         21    1    1    2  503  505  0.45624684070E+02  0.10388741162E+02  0.42813604634E+02  0.63423516783E+02  0.00000000000E+00 0. -1.
         21    1    1    2  504  503  0.43245501149E+02  0.88735611478E+01  0.93219739112E+02  0.10314471977E+03  0.00000000000E+00 0. -1.
         21    1    1    2  505  501  0.30183490353E+02 -0.28799499454E+02 -0.21222997391E+01  0.41772699397E+02  0.00000000000E+00 0. -1.
         -3    1    1    2    0  502 -0.11905367557E+03  0.95371971450E+01 -0.49110620129E+02  0.12913786744E+03  0.00000000000E+00 0.  1.
<scales pt_clust_3="30.26641" pt_clust_4="30.26641" pt_clust_5="41.71875" pt_clust_6="94.49086"></scales>
<clustering>
<clus scale="   30.266">  3  4 -1 -1</clus>
<clus scale="   41.719">  2  5  1 -1</clus>
<clus scale="   94.491">  2  6  1 -1</clus>
<clus scale="   99.496">  1  3  2 -1</clus>
</clustering>
</event>
<event>
 6    0  0.1230761E+002  0.2767556E+03  0.7546771E-02  0.1097474E+00
         21   -1    0    0  501  502  0.00000000000E+00  0.00000000000E+00  0.72434593518E+03  0.72434593518E+03  0.00000000000E+00 0. -1.
          1   -1    0    0  504    0 -0.00000000000E+00 -0.00000000000E+00 -0.10750805682E+04  0.10750805682E+04  0.00000000000E+00 0. -1.
         21    1    1    2  503  505  0.52317108684E+02  0.11792061756E+03  0.23409608567E+03  0.26728884981E+03  0.00000000000E+00 0. -1.
         21    1    1    2  504  503  0.47785139446E+00  0.40788532740E+02 -0.93199549865E+03  0.93288774365E+03  0.00000000000E+00 0. -1.
         21    1    1    2  505  502  0.75984348562E+01  0.13791473783E+03  0.24227612304E+03  0.27888336436E+03  0.00000000000E+00 0. -1.
          1    1    1    2  501    0 -0.60393394934E+02 -0.29662388813E+03  0.10488865692E+03  0.32036654555E+03  0.00000000000E+00 0. -1.
<scales pt_clust_3="46.58051" pt_clust_4="40.79133" pt_clust_5="46.58051" pt_clust_6="272.50988"></scales>
<clustering>
<clus scale="   40.791">  2  4  1 -1</clus>
<clus scale="   46.581">  3  5 -1 -1</clus>
<clus scale="  272.510">  2  6  1 -1</clus>
<clus scale="  276.756">  1  3  2 -1</clus>
</clustering>
</event>
<event>
 6    0  0.1230761E+002  0.1078372E+03  0.7546771E-02  0.1264628E+00
         21   -1    0    0  501  502  0.00000000000E+00  0.00000000000E+00  0.78865723641E+02  0.78865723641E+02  0.00000000000E+00 0. -1.
          1   -1    0    0  504    0 -0.00000000000E+00 -0.00000000000E+00 -0.10016849986E+04  0.10016849986E+04  0.00000000000E+00 0.  1.
         21    1    1    2  503  502  0.33480534884E+02  0.28979188463E+02  0.27088810189E+02  0.51908989756E+02  0.00000000000E+00 0. -1.
         21    1    1    2  504  505  0.35706437923E+02  0.38460795819E+02 -0.15866713118E+03  0.16712103710E+03  0.00000000000E+00 0.  1.
         21    1    1    2  505  503 -0.87496591289E+02  0.64092053939E+02 -0.72139449949E+02  0.13025952980E+03  0.00000000000E+00 0. -1.
          1    1    1    2  501    0  0.18309618482E+02 -0.13153203822E+03 -0.71910150405E+03  0.73126116562E+03  0.00000000000E+00 0.  1.
<scales pt_clust_3="44.28024" pt_clust_4="57.20892" pt_clust_5="14000.00000" pt_clust_6="107.83721"></scales>
<clustering>
<clus scale="   44.280">  1  3  2 -1</clus>
<clus scale="   57.209">  2  4  1 -1</clus>
<clus scale="  107.837">  2  6  1 -1</clus>
<clus scale="   44.280">  1  3  2 -1</clus>
</clustering>
</event>
<event>
 6    0  0.1230761E+002  0.1213595E+03  0.7546771E-02  0.1240871E+00
          4   -1    0    0  503    0 -0.00000000000E+00  0.00000000000E+00  0.21155744058E+03  0.21155744058E+03  0.00000000000E+00 0.  1.
         21   -1    0    0  504  502  0.00000000000E+00 -0.00000000000E+00 -0.13728412651E+03  0.13728412651E+03  0.00000000000E+00 0. -1.
         21    1    1    2  503  505 -0.50228989115E+02  0.29239023370E+02 -0.29202657728E+02  0.65043578111E+02  0.00000000000E+00 0. -1.
         21    1    1    2  504  501 -0.33983911169E+01 -0.31241054993E+02  0.55881997468E+01  0.31918341994E+02  0.00000000000E+00 0. -1.
         21    1    1    2  505  502 -0.53773968644E+02 -0.23116989165E+02 -0.43233059249E+02  0.72767659738E+02  0.00000000000E+00 0. -1.
          4    1    1    2  501    0  0.10740134888E+03  0.25119020788E+02  0.14112083131E+03  0.17911198724E+03  0.00000000000E+00 0.  1.
<scales pt_clust_3="48.43977" pt_clust_4="31.42535" pt_clust_5="48.43977" pt_clust_6="108.79902"></scales>
<clustering>
<clus scale="   31.425">  2  4  1 -1</clus>
<clus scale="   48.440">  3  5 -1 -1</clus>
<clus scale="  108.799">  1  6  2 -1</clus>
<clus scale="   31.425">  2  3  1 -1</clus>
</clustering>
</event>
<event>
 6    0  0.1230761E+002  0.1236554E+03  0.7546771E-02  0.1237186E+00
         21   -1    0    0  504  502  0.00000000000E+00  0.00000000000E+00  0.17069922134E+03  0.17069922134E+03  0.00000000000E+00 0.  1.
          2   -1    0    0  503    0 -0.00000000000E+00 -0.00000000000E+00 -0.21827489983E+03  0.21827489983E+03  0.00000000000E+00 0.  1.
         21    1    1    2  503  505  0.21978315155E+02  0.95429516320E+02 -0.30066937107E+02  0.10243954134E+03  0.00000000000E+00 0.  1.
         21    1    1    2  504  501  0.36711970832E+02 -0.73790754234E+02  0.49744555466E+02  0.96267154375E+02  0.00000000000E+00 0.  1.
         21    1    1    2  505  502  0.23700350623E+02  0.48338215710E+02  0.13303321487E+02  0.55455099678E+02  0.00000000000E+00 0.  1.
          2    1    1    2  501    0 -0.82390636611E+02 -0.69976977796E+02 -0.80556618338E+02  0.13481232577E+03  0.00000000000E+00 0.  1.
<scales pt_clust_3="32.26802" pt_clust_4="82.41871" pt_clust_5="32.26802" pt_clust_6="115.74399"></scales>
<clustering>
<clus scale="   32.268">  3  5 -1 -1</clus>
<clus scale="   82.419">  1  4  2 -1</clus>
<clus scale="  115.744">  2  6  1 -1</clus>
<clus scale="   82.419">  1  3  2 -1</clus>
</clustering>
</event>
<event>
 6    0  0.1230761E+002  0.1546161E+03  0.7546771E-02  0.1194913E+00
         21   -1    0    0  504  502  0.00000000000E+00  0.00000000000E+00  0.16605493918E+03  0.16605493918E+03  0.00000000000E+00 0.  1.
          2   -1    0    0  503    0 -0.00000000000E+00 -0.00000000000E+00 -0.27695695863E+04  0.27695695863E+04  0.00000000000E+00 0.  1.
         21    1    1    2  503  502  0.53604812889E+02  0.48006527479E+02 -0.18254872057E+03  0.19621961683E+03  0.00000000000E+00 0.  1.
         21    1    1    2  504  505  0.25259565968E+02 -0.66915140374E+02 -0.43729401987E+01  0.71657548731E+02  0.00000000000E+00 0.  1.
         21    1    1    2  505  501 -0.13597159825E+03 -0.47020762731E+02  0.83357330739E+02  0.16627589196E+03  0.00000000000E+00 0.  1.
          2    1    1    2  501    0  0.57107219398E+02  0.65929375627E+02 -0.24999503171E+04  0.25014714680E+04  0.00000000000E+00 0.  1.
<scales pt_clust_3="70.70978" pt_clust_4="71.52399" pt_clust_5="154.61613" pt_clust_6="14000.00000"></scales>
<clustering>
<clus scale="   71.524">  1  4  2 -1</clus>
<clus scale="   70.710">  2  3  1 -1</clus>
<clus scale="  154.616">  1  5  2 -1</clus>
<clus scale="   71.524">  1  3  2 -1</clus>
</clustering>
</event>
<event>
 6    0  0.1230761E+002  0.9822206E+02  0.7546771E-02  0.1284080E+00
         21   -1    0    0  501  502  0.00000000000E+00  0.00000000000E+00  0.60192464346E+02  0.60192464346E+02  0.00000000000E+00 0. -1.
          1   -1    0    0  503    0 -0.00000000000E+00 -0.00000000000E+00 -0.98946745520E+03  0.98946745520E+03  0.00000000000E+00 0. -1.
         21    1    1    2  503  504 -0.25883670853E+02 -0.17270705571E+02 -0.28988423254E+03  0.29154949831E+03  0.00000000000E+00 0. -1.
         21    1    1    2  504  505 -0.67191731260E+02  0.27118618316E+02 -0.23792169299E+02  0.76264116917E+02  0.00000000000E+00 0. -1.
         21    1    1    2  505  502 -0.19882192754E+02  0.25715267247E+02  0.18081414818E+02  0.37195619636E+02  0.00000000000E+00 0. -1.
          1    1    1    2  501    0  0.11295759487E+03 -0.35563179992E+02 -0.63368000383E+03  0.64465068469E+03  0.00000000000E+00 0. -1.
<scales pt_clust_3="31.11658" pt_clust_4="14000.00000" pt_clust_5="32.53746" pt_clust_6="98.22206"></scales>
<clustering>
<clus scale="   31.117">  2  3  1 -1</clus>
<clus scale="   32.537">  1  5  2 -1</clus>
<clus scale="   98.222">  2  6  1 -1</clus>
<clus scale="   32.537">  1  3  2 -1</clus>
</clustering>
</event>
<event>
 6    0  0.1230761E+002  0.1641340E+03  0.7546771E-02  0.1184107E+00
         21   -1    0    0  501  502  0.00000000000E+00  0.00000000000E+00  0.26599592652E+03  0.26599592652E+03  0.00000000000E+00 0. -1.
          2   -1    0    0  505    0 -0.00000000000E+00 -0.00000000000E+00 -0.60071212805E+03  0.60071212805E+03  0.00000000000E+00 0. -1.
         21    1    1    2  503  504  0.95459042643E+01  0.48452920624E+02  0.63071579677E+02  0.80105143206E+02  0.00000000000E+00 0. -1.
         21    1    1    2  504  502 -0.65361627802E+02  0.95560384733E+02  0.14691595010E+03  0.18705139912E+03  0.00000000000E+00 0.  1.
         21    1    1    2  505  503  0.73159784398E+02  0.61937050295E+01 -0.70362924247E+02  0.10169393858E+03  0.00000000000E+00 0. -1.
          2    1    1    2  501    0 -0.17344060861E+02 -0.15020701039E+03 -0.47434080705E+03  0.49785757366E+03  0.00000000000E+00 0. -1.
<scales pt_clust_3="38.20906" pt_clust_4="38.20906" pt_clust_5="73.42150" pt_clust_6="153.35370"></scales>
<clustering>
<clus scale="   38.209">  3  4 -1 -1</clus>
<clus scale="   73.421">  2  5  1 -1</clus>
<clus scale="  153.354">  2  6  1 -1</clus>
<clus scale="  164.134">  1  3  2 -1</clus>
</clustering>
</event>
<event>
 6    0  0.1230761E+002  0.8579836E+02  0.7546771E-02  0.1313358E+00
          2   -1    0    0  505    0 -0.00000000000E+00  0.00000000000E+00  0.93394940232E+03  0.93394940232E+03  0.00000000000E+00 0. -1.
         21   -1    0    0  503  502  0.00000000000E+00 -0.00000000000E+00 -0.45109098426E+03  0.45109098426E+03  0.00000000000E+00 0. -1.
         21    1    1    2  503  504 -0.53902083287E+02  0.23333135069E+02 -0.13905041449E+03  0.15094663807E+03  0.00000000000E+00 0. -1.
         21    1    1    2  504  501 -0.53637190611E+02  0.43568054469E+02  0.17139212179E+03  0.18479822239E+03  0.00000000000E+00 0.  1.
         21    1    1    2  505  502  0.62356505341E+02  0.16860611911E+02 -0.29283567723E+03  0.29987555394E+03  0.00000000000E+00 0. -1.
          2    1    1    2  501    0  0.45182768557E+02 -0.83761801449E+02  0.74335238799E+03  0.74941997217E+03  0.00000000000E+00 0. -1.
<scales pt_clust_3="58.73559" pt_clust_4="14000.00000" pt_clust_5="40.74103" pt_clust_6="85.79836"></scales>
<clustering>
<clus scale="   58.736">  2  3  1 -1</clus>
<clus scale="   40.741">  2  5  1 -1</clus>
<clus scale="   85.798">  1  6  2 -1</clus>
<clus scale="   58.736">  2  3  1 -1</clus>
</clustering>
</event>
<event>
 6    0  0.1230761E+002  0.9269980E+02  0.7546771E-02  0.1296442E+00
         21   -1    0    0  505  502  0.00000000000E+00  0.00000000000E+00  0.84528283016E+03  0.84528283016E+03  0.00000000000E+00 0.  1.
          2   -1    0    0  503    0 -0.00000000000E+00 -0.00000000000E+00 -0.22129401836E+03  0.22129401836E+03  0.00000000000E+00 0. -1.
         21    1    1    2  503  504  0.77740257246E+01 -0.31990189780E+02 -0.98496258670E+02  0.10385239858E+03  0.00000000000E+00 0. -1.
         21    1    1    2  504  502 -0.12304878153E+03 -0.30808442912E+02  0.45062188077E+03  0.46813485473E+03  0.00000000000E+00 0.  1.
         21    1    1    2  505  501  0.34168923083E+02  0.11357053693E+02  0.36145630876E+03  0.36324531809E+03  0.00000000000E+00 0.  1.
          2    1    1    2  501    0  0.81105832721E+02  0.51441578999E+02 -0.89593119058E+02  0.13134427713E+03  0.00000000000E+00 0. -1.
<scales pt_clust_3="32.92124" pt_clust_4="92.69980" pt_clust_5="35.98754" pt_clust_6="14000.00000"></scales>
<clustering>
<clus scale="   32.921">  2  3  1 -1</clus>
<clus scale="   35.988">  1  5  2 -1</clus>
<clus scale="   92.700">  1  4  2 -1</clus>
<clus scale="   35.988">  1  3  2 -1</clus>
</clustering>
</event>
<event>
 6    0  0.1230761E+002  0.9474641E+02  0.7546771E-02  0.1291748E+00
          2   -1    0    0  505    0 -0.00000000000E+00  0.00000000000E+00  0.27309162608E+04  0.27309162608E+04  0.00000000000E+00 0.  1.
         21   -1    0    0  504  502  0.00000000000E+00 -0.00000000000E+00 -0.23546805877E+02  0.23546805877E+02  0.00000000000E+00 0. -1.
         21    1    1    2  503  502 -0.24111779780E+02 -0.40046384016E+02  0.12353142889E+03  0.13207991793E+03  0.00000000000E+00 0. -1.
         21    1    1    2  504  501 -0.50216804195E+02 -0.31263552184E+02  0.36044207494E+02  0.69269921413E+02  0.00000000000E+00 0. -1.
         21    1    1    2  505  503  0.52482144433E+02 -0.25569101726E+02  0.61342052698E+03  0.61619225683E+03  0.00000000000E+00 0. -1.
          2    1    1    2  501    0  0.21846439542E+02  0.96879037925E+02  0.19343732916E+04  0.19369209705E+04  0.00000000000E+00 0.  1.
<scales pt_clust_3="46.74495" pt_clust_4="14000.00000" pt_clust_5="58.17837" pt_clust_6="94.74641"></scales>
<clustering>
<clus scale="   46.745">  2  3  1 -1</clus>
<clus scale="   58.178">  1  5  2 -1</clus>
<clus scale="   94.746">  1  6  2 -1</clus>
<clus scale="   46.745">  2  3  1 -1</clus>
</clustering>
</event>
<event>
 6    0  0.1230761E+002  0.1020197E+03  0.7546771E-02  0.1276105E+00
         21   -1    0    0  505  502  0.00000000000E+00  0.00000000000E+00  0.51726403890E+02  0.51726403890E+02  0.00000000000E+00 0. -1.
          2   -1    0    0  504    0 -0.00000000000E+00 -0.00000000000E+00 -0.19464102235E+04  0.19464102235E+04  0.00000000000E+00 0.  1.
         21    1    1    2  503  502 -0.25333390336E+02 -0.45460132346E+02 -0.88042390227E+01  0.52781804853E+02  0.00000000000E+00 0. -1.
         21    1    1    2  504  503  0.26686226595E+02 -0.37901675374E+02 -0.27211530499E+03  0.27603519866E+03  0.00000000000E+00 0. -1.
         21    1    1    2  505  501 -0.77494515976E+02  0.13434449448E+02 -0.33187577907E+02  0.85365682600E+02  0.00000000000E+00 0. -1.
          2    1    1    2  501    0  0.76141679717E+02  0.69927358272E+02 -0.15805766977E+04  0.15839539413E+04  0.00000000000E+00 0.  1.
<scales pt_clust_3="52.41840" pt_clust_4="46.35398" pt_clust_5="14000.00000" pt_clust_6="102.01971"></scales>
<clustering>
<clus scale="   46.354">  2  4  1 -1</clus>
<clus scale="   52.418">  1  3  2 -1</clus>
<clus scale="  102.020">  2  6  1 -1</clus>
<clus scale="   52.418">  1  3  2 -1</clus>
</clustering>
</event>
<event>
 6    0  0.1230761E+002  0.1593282E+03  0.7546771E-02  0.1189457E+00
          1   -1    0    0  504    0 -0.00000000000E+00  0.00000000000E+00  0.89100530228E+03  0.89100530228E+03  0.00000000000E+00 0. -1.
         21   -1    0    0  503  502  0.00000000000E+00 -0.00000000000E+00 -0.21214593359E+03  0.21214593359E+03  0.00000000000E+00 0. -1.
         21    1    1    2  503  501 -0.12640612126E+03  0.11331407165E+03 -0.36669198521E+02  0.17367560694E+03  0.00000000000E+00 0. -1.
         21    1    1    2  504  505  0.20825373994E+02 -0.35019946308E+02  0.64926655189E+02  0.76652223682E+02  0.00000000000E+00 0. -1.
         21    1    1    2  505  502  0.25567650228E+02 -0.16667716973E+03 -0.21713623027E+02  0.17001901386E+03  0.00000000000E+00 0. -1.
          1    1    1    2  501    0  0.80013097034E+02  0.88383044391E+02  0.67231553505E+03  0.68280439139E+03  0.00000000000E+00 0. -1.
<scales pt_clust_3="159.32821" pt_clust_4="40.74424" pt_clust_5="14000.00000" pt_clust_6="113.95527"></scales>
<clustering>
<clus scale="   40.744">  1  4  2 -1</clus>
<clus scale="  113.955">  1  6  2 -1</clus>
<clus scale="  159.328">  2  3  1 -1</clus>
<clus scale="  159.328">  2  3  1 -1</clus>
</clustering>
</event>
<event>
 6    0  0.1230761E+002  0.1644567E+03  0.7546771E-02  0.1183755E+00
         21   -1    0    0  501  502  0.00000000000E+00  0.00000000000E+00  0.51618932691E+03  0.51618932691E+03  0.00000000000E+00 0.  1.
          2   -1    0    0  505    0 -0.00000000000E+00 -0.00000000000E+00 -0.83826790586E+03  0.83826790586E+03  0.00000000000E+00 0. -1.
         21    1    1    2  503  502 -0.16230834731E+03  0.46396874683E+02  0.40601694341E+03  0.43971175550E+03  0.00000000000E+00 0.  1.
         21    1    1    2  504  503  0.14878328431E+03 -0.15645845682E+02  0.22085648461E+02  0.15122511049E+03  0.00000000000E+00 0.  1.
         21    1    1    2  505  504 -0.25871255223E+02  0.15795526645E+02 -0.37426688964E+02  0.48161992853E+02  0.00000000000E+00 0.  1.
          2    1    1    2  501    0  0.39396318231E+02 -0.46546555647E+02 -0.71275448186E+03  0.71535837392E+03  0.00000000000E+00 0. -1.
<scales pt_clust_3="14000.00000" pt_clust_4="164.45674" pt_clust_5="30.31205" pt_clust_6="36.18335"></scales>
<clustering>
<clus scale="   30.312">  2  5  1 -1</clus>
<clus scale="   36.183">  2  6  1 -1</clus>
<clus scale="  164.457">  2  4  1 -1</clus>
<clus scale="  164.457">  1  3  2 -1</clus>
</clustering>
</event>
<event>
 6    0  0.1230761E+002  0.9050490E+02  0.7546771E-02  0.1301634E+00
          2   -1    0    0  503    0 -0.00000000000E+00  0.00000000000E+00  0.26151052154E+04  0.26151052154E+04  0.00000000000E+00 0. -1.
         21   -1    0    0  505  502  0.00000000000E+00 -0.00000000000E+00 -0.12815782255E+02  0.12815782255E+02  0.00000000000E+00 0. -1.
         21    1    1    2  503  504 -0.11095840476E+02  0.48571391697E+02  0.96187546751E+03  0.96316494577E+03  0.00000000000E+00 0. -1.
         21    1    1    2  504  502 -0.90539095758E+02  0.13385265087E+02  0.70272310571E+03  0.70865806739E+03  0.00000000000E+00 0. -1.
         21    1    1    2  505  501  0.90122250021E+02  0.15603741000E+02  0.30078528290E+03  0.31438397397E+03  0.00000000000E+00 0. -1.
          2    1    1    2  501    0  0.11512686214E+02 -0.77560397784E+02  0.63690557703E+03  0.64171401052E+03  0.00000000000E+00 0. -1.
<scales pt_clust_3="49.82266" pt_clust_4="14000.00000" pt_clust_5="90.50490" pt_clust_6="59.21220"></scales>
<clustering>
<clus scale="   49.823">  1  3  2 -1</clus>
<clus scale="   59.212">  1  6  2 -1</clus>
<clus scale="   90.505">  2  5  1 -1</clus>
<clus scale="   90.505">  2  3  1 -1</clus>
</clustering>
</event>
<event>
 6    0  0.1230761E+002  0.1380355E+03  0.7546771E-02  0.1215997E+00
          2   -1    0    0  504    0 -0.00000000000E+00  0.00000000000E+00  0.20461212709E+04  0.20461212709E+04  0.00000000000E+00 0.  1.
         21   -1    0    0  501  502  0.00000000000E+00 -0.00000000000E+00 -0.27187260632E+02  0.27187260632E+02  0.00000000000E+00 0.  1.
         21    1    1    2  503  502  0.19385874687E+02  0.52781809001E+02  0.61877251612E+02  0.83609364104E+02  0.00000000000E+00 0.  1.
         21    1    1    2  504  505  0.55421907429E+02  0.25847090148E+02  0.46347675143E+03  0.46749369943E+03  0.00000000000E+00 0.  1.
         21    1    1    2  505  503  0.47813739850E+02  0.52425232761E+02  0.14178475099E+03  0.15854801911E+03  0.00000000000E+00 0.  1.
          2    1    1    2  501    0 -0.12262152197E+03 -0.13105413191E+03  0.13517952562E+04  0.13636574489E+04  0.00000000000E+00 0.  1.
<scales pt_clust_3="35.35900" pt_clust_4="61.15276" pt_clust_5="35.35900" pt_clust_6="132.19725"></scales>
<clustering>
<clus scale="   35.359">  3  5 -1 -1</clus>
<clus scale="   61.153">  1  4  2 -1</clus>
<clus scale="  132.197">  1  6  2 -1</clus>
<clus scale="  138.035">  2  3  1 -1</clus>
</clustering>
</event>
<event>
 6    0  0.1230761E+002  0.1108410E+03  0.7546771E-02  0.1259020E+00
          2   -1    0    0  505    0 -0.00000000000E+00  0.00000000000E+00  0.25513824498E+03  0.25513824498E+03  0.00000000000E+00 0.  1.
         21   -1    0    0  504  502  0.00000000000E+00 -0.00000000000E+00 -0.11189010870E+04  0.11189010870E+04  0.00000000000E+00 0.  1.
         21    1    1    2  503  502  0.40286752215E+02  0.87436974724E+01 -0.97262677959E+02  0.10563854966E+03  0.00000000000E+00 0.  1.
         21    1    1    2  504  501  0.69684363642E+02 -0.21939416318E+02 -0.97478568791E+03  0.97751950665E+03  0.00000000000E+00 0.  1.
         21    1    1    2  505  503  0.39217616295E+02 -0.28097836688E+02  0.50527430138E+02  0.69860797668E+02  0.00000000000E+00 0. -1.
          2    1    1    2  501    0 -0.14918873215E+03  0.41293555534E+02  0.15775809376E+03  0.22102047796E+03  0.00000000000E+00 0.  1.
<scales pt_clust_3="41.22468" pt_clust_4="110.84101" pt_clust_5="48.50790" pt_clust_6="14000.00000"></scales>
<clustering>
<clus scale="   41.225">  2  3  1 -1</clus>
<clus scale="   48.508">  1  5  2 -1</clus>
<clus scale="  110.841">  2  4  1 -1</clus>
<clus scale="   41.225">  2  3  1 -1</clus>
</clustering>
</event>
<event>
 6    0  0.1230761E+002  0.1302719E+03  0.7546771E-02  0.1227053E+00
         21   -1    0    0  503  502  0.00000000000E+00  0.00000000000E+00  0.10110505408E+03  0.10110505408E+03  0.00000000000E+00 0. -1.
          2   -1    0    0  504    0 -0.00000000000E+00 -0.00000000000E+00 -0.32734737439E+04  0.32734737439E+04  0.00000000000E+00 0. -1.
         21    1    1    2  503  505  0.20895117951E+02 -0.12371620875E+03  0.28918156642E+02  0.12875778053E+03  0.00000000000E+00 0. -1.
         21    1    1    2  504  502  0.28282898218E+02 -0.41757021003E+02 -0.32007933407E+03  0.32402831857E+03  0.00000000000E+00 0. -1.
         21    1    1    2  505  501  0.19123503311E+02  0.17055721129E+03 -0.35153789688E+03  0.39119606803E+03  0.00000000000E+00 0. -1.
          2    1    1    2  501    0 -0.68301519480E+02 -0.50839815295E+01 -0.25296696155E+04  0.25305966308E+04  0.00000000000E+00 0. -1.
<scales pt_clust_3="130.27191" pt_clust_4="50.43383" pt_clust_5="14000.00000" pt_clust_6="60.10100"></scales>
<clustering>
<clus scale="   50.434">  2  4  1 -1</clus>
<clus scale="   60.101">  2  6  1 -1</clus>
<clus scale="  130.272">  1  3  2 -1</clus>
<clus scale="  130.272">  1  3  2 -1</clus>
</clustering>
</event>
<event>
 6    0  0.1230761E+002  0.4099164E+03  0.7546771E-02  0.1040399E+00
         21   -1    0    0  503  502  0.00000000000E+00  0.00000000000E+00  0.21946557552E+03  0.21946557552E+03  0.00000000000E+00 0. -1.
          2   -1    0    0  505    0 -0.00000000000E+00 -0.00000000000E+00 -0.80775758975E+03  0.80775758975E+03  0.00000000000E+00 0. -1.
         21    1    1    2  503  504 -0.21156115016E+02  0.29826032713E+02 -0.17652891649E+02  0.40605393897E+02  0.00000000000E+00 0.  1.
         21    1    1    2  504  501  0.28151748148E+02  0.84531286298E+02 -0.36255497185E+02  0.96190022160E+02  0.00000000000E+00 0.  1.
         21    1    1    2  505  502 -0.26544516168E+03 -0.22342626284E+03 -0.49887943328E+03  0.60766859203E+03  0.00000000000E+00 0. -1.
          2    1    1    2  501    0  0.25844952855E+03  0.10906894383E+03 -0.35504192118E+02  0.28275915718E+03  0.00000000000E+00 0. -1.
<scales pt_clust_3="33.16752" pt_clust_4="124.64448" pt_clust_5="346.95883" pt_clust_6="124.64448"></scales>
<clustering>
<clus scale="   33.168">  3  4 -1 -1</clus>
<clus scale="  124.644">  3  6 -1 -1</clus>
<clus scale="  346.959">  2  5  1 -1</clus>
<clus scale="  409.916">  1  3  2 -1</clus>
</clustering>
</event>
<event>
 6    0  0.1230761E+002  0.1553342E+03  0.7546771E-02  0.1194067E+00
         21   -1    0    0  505  502  0.00000000000E+00  0.00000000000E+00  0.50758127219E+02  0.50758127219E+02  0.00000000000E+00 0. -1.
          1   -1    0    0  502    0 -0.00000000000E+00 -0.00000000000E+00 -0.12870602034E+04  0.12870602034E+04  0.00000000000E+00 0. -1.
         21    1    1    2  503  504  0.90998067742E+02  0.27529345013E+01 -0.13344515992E+03  0.16154206166E+03  0.00000000000E+00 0.  1.
         21    1    1    2  504  501 -0.37203359039E+02 -0.22843053027E+02 -0.20439828947E+03  0.20900850636E+03  0.00000000000E+00 0. -1.
         21    1    1    2  505  503  0.72832773454E+02 -0.20453431365E+02 -0.19248048791E+02  0.78060509388E+02  0.00000000000E+00 0. -1.
          1    1    1    2  501    0 -0.12662748216E+03  0.40543549891E+02 -0.87921057806E+03  0.88920725326E+03  0.00000000000E+00 0. -1.
<scales pt_clust_3="139.33009" pt_clust_4="39.34988" pt_clust_5="75.65022" pt_clust_6="39.34988"></scales>
<clustering>
<clus scale="   39.350">  4  6 -1 -1</clus>
<clus scale="   75.650">  1  5  2 -1</clus>
<clus scale="  139.330">  1  3  2 -1</clus>
<clus scale="   75.650">  1  3  2 -1</clus>
</clustering>
</event>
<event>
 6    0  0.1230761E+002  0.1334905E+03  0.7546771E-02  0.1222366E+00
          1   -1    0    0  504    0 -0.00000000000E+00  0.00000000000E+00  0.46473597846E+03  0.46473597846E+03  0.00000000000E+00 0. -1.
         21   -1    0    0  505  502  0.00000000000E+00 -0.00000000000E+00 -0.11639223959E+03  0.11639223959E+03  0.00000000000E+00 0.  1.
         21    1    1    2  503  501 -0.89610358299E+02  0.18926086982E+02 -0.23912226025E+02  0.94657316867E+02  0.00000000000E+00 0.  1.
         21    1    1    2  504  502 -0.22648125980E+02 -0.20474170051E+02  0.81430787493E+02  0.86966099151E+02  0.00000000000E+00 0.  1.
         21    1    1    2  505  503 -0.21246863515E+02  0.30082081298E+02 -0.32133461486E+02  0.48876581013E+02  0.00000000000E+00 0. -1.
          1    1    1    2  501    0  0.13350534779E+03 -0.28533998229E+02  0.32295863889E+03  0.35062822102E+03  0.00000000000E+00 0. -1.
<scales pt_clust_3="33.03505" pt_clust_4="30.53079" pt_clust_5="33.03505" pt_clust_6="122.67837"></scales>
<clustering>
<clus scale="   30.531">  1  4  2 -1</clus>
<clus scale="   33.035">  3  5 -1 -1</clus>
<clus scale="  122.678">  1  6  2 -1</clus>
<clus scale="  133.491">  2  3  1 -1</clus>
</clustering>
</event>
<event>
 6    0  0.1230761E+002  0.1791025E+03  0.7546771E-02  0.1168674E+00
         21   -1    0    0  504  502  0.00000000000E+00  0.00000000000E+00  0.54643170504E+02  0.54643170504E+02  0.00000000000E+00 0.  1.
          2   -1    0    0  505    0 -0.00000000000E+00 -0.00000000000E+00 -0.23558282196E+04  0.23558282196E+04  0.00000000000E+00 0.  1.
         21    1    1    2  503  501 -0.13415862062E+03 -0.54221153560E+02 -0.17233546234E+03  0.22502884384E+03  0.00000000000E+00 0.  1.
         21    1    1    2  504  503 -0.40086987224E+02 -0.54149331556E+01  0.10639037924E+01  0.40465045867E+02  0.00000000000E+00 0.  1.
         21    1    1    2  505  502 -0.58001818090E+01 -0.43785013034E+02 -0.48608452215E+03  0.48808701289E+03  0.00000000000E+00 0.  1.
          2    1    1    2  501    0  0.18004578966E+03  0.10342109975E+03 -0.16438289684E+04  0.16568904875E+04  0.00000000000E+00 0.  1.
<scales pt_clust_3="14000.00000" pt_clust_4="40.45106" pt_clust_5="44.49670" pt_clust_6="179.10250"></scales>
<clustering>
<clus scale="   40.451">  1  4  2 -1</clus>
<clus scale="   44.497">  2  5  1 -1</clus>
<clus scale="  179.102">  2  6  1 -1</clus>
<clus scale="   40.451">  1  3  2 -1</clus>
</clustering>
</event>
<event>
 6    0  0.1230761E+002  0.7913141E+02  0.7546771E-02  0.1331535E+00
         21   -1    0    0  503  502  0.00000000000E+00  0.00000000000E+00  0.30217324390E+03  0.30217324390E+03  0.00000000000E+00 0. -1.
          2   -1    0    0  505    0 -0.00000000000E+00 -0.00000000000E+00 -0.31064205650E+03  0.31064205650E+03  0.00000000000E+00 0. -1.
         21    1    1    2  503  504 -0.52460441285E+02 -0.26262283470E+02  0.12545089185E+03  0.13849090836E+03  0.00000000000E+00 0. -1.
         21    1    1    2  504  501  0.49190542634E+02 -0.87119689849E+02 -0.37024683973E+02  0.10667885014E+03  0.00000000000E+00 0. -1.
         21    1    1    2  505  502  0.14176760696E+02  0.37845500148E+02  0.12585456337E+03  0.13218408961E+03  0.00000000000E+00 0. -1.
          2    1    1    2  501    0 -0.10906862046E+02  0.75536473171E+02 -0.22274958384E+03  0.23546145230E+03  0.00000000000E+00 0. -1.
<scales pt_clust_3="41.73544" pt_clust_4="14000.00000" pt_clust_5="40.41364" pt_clust_6="79.13141"></scales>
<clustering>
<clus scale="   40.414">  1  5  2 -1</clus>
<clus scale="   41.735">  1  3  2 -1</clus>
<clus scale="   79.131">  2  6  1 -1</clus>
<clus scale="   40.414">  1  3  2 -1</clus>
</clustering>
</event>
<event>
 6    0  0.1230761E+002  0.1998361E+03  0.7546771E-02  0.1149877E+00
         21   -1    0    0  504  502  0.00000000000E+00  0.00000000000E+00  0.84640723269E+03  0.84640723269E+03  0.00000000000E+00 0.  1.
         -1   -1    0    0    0  501 -0.00000000000E+00 -0.00000000000E+00 -0.31879718923E+03  0.31879718923E+03  0.00000000000E+00 0.  1.
         21    1    1    2  503  501  0.21263500274E+02 -0.24712724539E+02 -0.19676901345E+03  0.19945149750E+03  0.00000000000E+00 0.  1.
         21    1    1    2  504  503 -0.12540216585E+03 -0.18940932720E+03  0.60184434454E+03  0.64328703663E+03  0.00000000000E+00 0.  1.
         21    1    1    2  505  502  0.12742696882E+03  0.90829919561E+02  0.11960475257E+03  0.19695939558E+03  0.00000000000E+00 0.  1.
         -1    1    1    2    0  505 -0.23288303235E+02  0.12329213218E+03  0.29299597894E+01  0.12550649222E+03  0.00000000000E+00 0.  1.
<scales pt_clust_3="32.60146" pt_clust_4="14000.00000" pt_clust_5="199.83610" pt_clust_6="111.44443"></scales>
<clustering>
<clus scale="   32.601">  2  3  1 -1</clus>
<clus scale="  111.444">  2  6  1 -1</clus>
<clus scale="  199.836">  2  5  1 -1</clus>
<clus scale="  199.836">  1  3  2 -1</clus>
</clustering>
</event>
<event>
 6    0  0.1230761E+002  0.1267573E+03  0.7546771E-02  0.1232348E+00
          2   -1    0    0  504    0 -0.00000000000E+00  0.00000000000E+00  0.25519605177E+03  0.25519605177E+03  0.00000000000E+00 0. -1.
         21   -1    0    0  501  502  0.00000000000E+00 -0.00000000000E+00 -0.14482897387E+03  0.14482897387E+03  0.00000000000E+00 0. -1.
         21    1    1    2  503  502 -0.42731147952E+01  0.58170134786E+02 -0.55142325665E+02  0.80266432403E+02  0.00000000000E+00 0. -1.
         21    1    1    2  504  505  0.35289765607E+02  0.35984118226E+01  0.26775283114E+02  0.44443581202E+02  0.00000000000E+00 0. -1.
         21    1    1    2  505  503 -0.32718537776E+02  0.57607277830E+02 -0.26592098242E+02  0.71387960204E+02  0.00000000000E+00 0. -1.
          2    1    1    2  501    0  0.17018869645E+01 -0.11937582444E+03  0.16532621869E+03  0.20392705183E+03  0.00000000000E+00 0. -1.
<scales pt_clust_3="37.30827" pt_clust_4="35.47275" pt_clust_5="37.30827" pt_clust_6="120.50591"></scales>
<clustering>
<clus scale="   35.473">  1  4  2 -1</clus>
<clus scale="   37.308">  3  5 -1 -1</clus>
<clus scale="  120.506">  1  6  2 -1</clus>
<clus scale="  126.757">  2  3  1 -1</clus>
</clustering>
</event>
<event>
 6    0  0.1230761E+002  0.6834527E+02  0.7546771E-02  0.1365812E+00
         21   -1    0    0  505  502  0.00000000000E+00  0.00000000000E+00  0.47109548884E+03  0.47109548884E+03  0.00000000000E+00 0. -1.
          2   -1    0    0  504    0 -0.00000000000E+00 -0.00000000000E+00 -0.98400194892E+03  0.98400194892E+03  0.00000000000E+00 0. -1.
         21    1    1    2  503  502 -0.34293964546E+02  0.48770777949E+02  0.43944779802E+03  0.44347382332E+03  0.00000000000E+00 0. -1.
         21    1    1    2  504  503 -0.45131902891E+02 -0.31362920764E+02 -0.32905739930E+03  0.33361548749E+03  0.00000000000E+00 0. -1.
         21    1    1    2  505  501 -0.11763408973E+01 -0.50535206461E+02 -0.19568250110E+01  0.50586757497E+02  0.00000000000E+00 0. -1.
          2    1    1    2  501    0  0.80602208334E+02  0.33127349276E+02 -0.62134003378E+03  0.62742136945E+03  0.00000000000E+00 0. -1.
<scales pt_clust_3="35.47536" pt_clust_4="68.34527" pt_clust_5="50.54890" pt_clust_6="14000.00000"></scales>
<clustering>
<clus scale="   50.549">  1  5  2 -1</clus>
<clus scale="   35.475">  1  3  2 -1</clus>
<clus scale="   68.345">  2  4  1 -1</clus>
<clus scale="   50.549">  1  3  2 -1</clus>
</clustering>
</event>
<event>
 6    0  0.1230761E+002  0.1418592E+03  0.7546771E-02  0.1210849E+00
         21   -1    0    0  503  502  0.00000000000E+00  0.00000000000E+00  0.43393577686E+03  0.43393577686E+03  0.00000000000E+00 0.  1.
         -1   -1    0    0    0  501 -0.00000000000E+00 -0.00000000000E+00 -0.14477318649E+03  0.14477318649E+03  0.00000000000E+00 0.  1.
         21    1    1    2  503  505 -0.45567700477E+02 -0.47437922798E+02  0.11698003025E+03  0.13420543701E+03  0.00000000000E+00 0.  1.
         21    1    1    2  504  501 -0.61104103916E+02 -0.23135831744E+02 -0.68832700606E+02  0.94904788596E+02  0.00000000000E+00 0.  1.
         21    1    1    2  505  504 -0.53718241299E+00 -0.64586072951E+02  0.12796413879E+03  0.14334039975E+03  0.00000000000E+00 0.  1.
         -1    1    1    2    0  502  0.10720898681E+03  0.13515982749E+03  0.11305112193E+03  0.20625833799E+03  0.00000000000E+00 0.  1.
<scales pt_clust_3="48.12833" pt_clust_4="65.33742" pt_clust_5="48.12833" pt_clust_6="133.28550"></scales>
<clustering>
<clus scale="   48.128">  3  5 -1 -1</clus>
<clus scale="   65.337">  2  4  1 -1</clus>
<clus scale="  133.286">  2  6  1 -1</clus>
<clus scale="  141.859">  1  3  2 -1</clus>
</clustering>
</event>
<event>
 6    0  0.1230761E+002  0.1121749E+03  0.7546771E-02  0.1256594E+00
          2   -1    0    0  503    0 -0.00000000000E+00  0.00000000000E+00  0.12726950075E+04  0.12726950075E+04  0.00000000000E+00 0.  1.
         21   -1    0    0  504  502  0.00000000000E+00 -0.00000000000E+00 -0.27298270520E+02  0.27298270520E+02  0.00000000000E+00 0. -1.
         21    1    1    2  503  502 -0.75155596530E+01 -0.44564465212E+02  0.32559792575E+03  0.32871946163E+03  0.00000000000E+00 0. -1.
         21    1    1    2  504  505 -0.54792667290E+02 -0.23879936769E+02  0.69887924857E+02  0.91960914576E+02  0.00000000000E+00 0. -1.
         21    1    1    2  505  501 -0.47070598208E+02  0.18959220018E+02  0.52874025637E+02  0.73285440754E+02  0.00000000000E+00 0. -1.
          2    1    1    2  501    0  0.10937882515E+03  0.49485181964E+02  0.79703686073E+03  0.80602746106E+03  0.00000000000E+00 0.  1.
<scales pt_clust_3="45.19375" pt_clust_4="39.47621" pt_clust_5="39.47621" pt_clust_6="103.67110"></scales>
<clustering>
<clus scale="   39.476">  4  5 -1 -1</clus>
<clus scale="   45.194">  1  3  2 -1</clus>
<clus scale="  103.671">  1  6  2 -1</clus>
<clus scale="  112.175">  2  3  1 -1</clus>
</clustering>
</event>
<event>
 6    0  0.1230761E+002  0.2918450E+03  0.7546771E-02  0.1089390E+00
         21   -1    0    0  501  502  0.00000000000E+00  0.00000000000E+00  0.15564129381E+03  0.15564129381E+03  0.00000000000E+00 0.  1.
          4   -1    0    0  504    0 -0.00000000000E+00 -0.00000000000E+00 -0.83808064495E+03  0.83808064495E+03  0.00000000000E+00 0.  1.
         21    1    1    2  503  502  0.72390213497E+02 -0.42074248246E+02 -0.22305813428E+03  0.23825515030E+03  0.00000000000E+00 0.  1.
         21    1    1    2  504  505  0.14874779511E+02 -0.55233063184E+02 -0.19578411500E+03  0.20396904182E+03  0.00000000000E+00 0. -1.
         21    1    1    2  505  503  0.95119818068E+02 -0.10416624531E+03 -0.24041931955E+03  0.27874690252E+03  0.00000000000E+00 0.  1.
          4    1    1    2  501    0 -0.18238481108E+03  0.20147355674E+03 -0.23177782324E+02  0.27275084413E+03  0.00000000000E+00 0.  1.
<scales pt_clust_3="42.43589" pt_clust_4="43.07062" pt_clust_5="43.07062" pt_clust_6="271.76426"></scales>
<clustering>
<clus scale="   42.436">  3  5 -1 -1</clus>
<clus scale="   43.071">  3  4 -1 -1</clus>
<clus scale="  271.764">  1  6  2 -1</clus>
<clus scale="  271.764">  1  3  2 -1</clus>
</clustering>
</event>
<event>
 6    0  0.1230761E+002  0.1956202E+03  0.7546771E-02  0.1153488E+00
          1   -1    0    0  504    0 -0.00000000000E+00  0.00000000000E+00  0.70981612075E+03  0.70981612075E+03  0.00000000000E+00 0. -1.
         21   -1    0    0  501  502  0.00000000000E+00 -0.00000000000E+00 -0.85429618339E+02  0.85429618339E+02  0.00000000000E+00 0.  1.
         21    1    1    2  503  502  0.78301808837E+02  0.87809727946E+02  0.39041891064E+02  0.12395963394E+03  0.00000000000E+00 0.  1.
         21    1    1    2  504  505 -0.15520275506E+02  0.54649328986E+02  0.83645544319E+02  0.10111382297E+03  0.00000000000E+00 0. -1.
         21    1    1    2  505  503  0.42537849986E+02  0.39456580941E+02  0.78176184416E+02  0.97354025448E+02  0.00000000000E+00 0. -1.
          1    1    1    2  501    0 -0.10531938332E+03 -0.18191563787E+03  0.42352288262E+03  0.47281825674E+03  0.00000000000E+00 0. -1.
<scales pt_clust_3="46.79691" pt_clust_4="56.81046" pt_clust_5="46.79691" pt_clust_6="183.91993"></scales>
<clustering>
<clus scale="   46.797">  3  5 -1 -1</clus>
<clus scale="   56.810">  1  4  2 -1</clus>
<clus scale="  183.920">  1  6  2 -1</clus>
<clus scale="  195.620">  2  3  1 -1</clus>
</clustering>
</event>
<event>
 6    0  0.1230761E+002  0.1388700E+03  0.7546771E-02  0.1214858E+00
         21   -1    0    0  505  502  0.00000000000E+00  0.00000000000E+00  0.18170438159E+03  0.18170438159E+03  0.00000000000E+00 0.  1.
          2   -1    0    0  503    0 -0.00000000000E+00 -0.00000000000E+00 -0.19019953526E+04  0.19019953526E+04  0.00000000000E+00 0.  1.
         21    1    1    2  503  502 -0.39179557823E+02 -0.12598531609E+02 -0.37378980344E+03  0.37604863769E+03  0.00000000000E+00 0. -1.
         21    1    1    2  504  501  0.35811303825E+02  0.60466543832E+02  0.93941158333E+02  0.11731834312E+03  0.00000000000E+00 0.  1.
         21    1    1    2  505  504 -0.23448119044E+02  0.62799653941E+02  0.57349337604E+02  0.88218803809E+02  0.00000000000E+00 0.  1.
          2    1    1    2  501    0  0.26816373041E+02 -0.11066766616E+03 -0.14977916635E+04  0.15021139496E+04  0.00000000000E+00 0.  1.
<scales pt_clust_3="41.15532" pt_clust_4="61.95500" pt_clust_5="61.95500" pt_clust_6="123.59436"></scales>
<clustering>
<clus scale="   41.155">  2  3  1 -1</clus>
<clus scale="   61.955">  4  5 -1 -1</clus>
<clus scale="  123.594">  2  6  1 -1</clus>
<clus scale="  138.870">  1  3  2 -1</clus>
</clustering>
</event>
<event>
 6    0  0.1230761E+002  0.1341185E+03  0.7546771E-02  0.1221469E+00
          2   -1    0    0  505    0 -0.00000000000E+00  0.00000000000E+00  0.20604290044E+03  0.20604290044E+03  0.00000000000E+00 0. -1.
         21   -1    0    0  504  502  0.00000000000E+00 -0.00000000000E+00 -0.18313997867E+04  0.18313997867E+04  0.00000000000E+00 0. -1.
         21    1    1    2  503  502 -0.11937308717E+03 -0.10104872697E+03 -0.17070559898E+04  0.17142056269E+04  0.00000000000E+00 0. -1.
         21    1    1    2  504  501  0.32315830865E+02 -0.23112603596E+01 -0.43998246031E+02  0.54639733737E+02  0.00000000000E+00 0. -1.
         21    1    1    2  505  503  0.11133174573E+02  0.47953491051E+02 -0.49479585731E+02  0.69797666753E+02  0.00000000000E+00 0.  1.
          2    1    1    2  501    0  0.75924081729E+02  0.55406496276E+02  0.17517693532E+03  0.19879965967E+03  0.00000000000E+00 0. -1.
<scales pt_clust_3="134.11854" pt_clust_4="32.39838" pt_clust_5="49.40974" pt_clust_6="14000.00000"></scales>
<clustering>
<clus scale="   32.398">  2  4  1 -1</clus>
<clus scale="   49.410">  1  5  2 -1</clus>
<clus scale="  134.119">  2  3  1 -1</clus>
<clus scale="   32.398">  2  3  1 -1</clus>
</clustering>
</event>
<event>
 6    0  0.1230761E+002  0.6860797E+02  0.7546771E-02  0.1364892E+00
         -2   -1    0    0    0  501 -0.00000000000E+00  0.00000000000E+00  0.22715688320E+02  0.22715688320E+02  0.00000000000E+00 0. -1.
         21   -1    0    0  504  502  0.00000000000E+00 -0.00000000000E+00 -0.26242555287E+04  0.26242555287E+04  0.00000000000E+00 0. -1.
         21    1    1    2  503  502  0.67557087699E+02  0.43044913856E+02 -0.18668325064E+04  0.18685503557E+04  0.00000000000E+00 0. -1.
         21    1    1    2  504  505 -0.29066263988E+02 -0.13791793196E+02 -0.48199497608E+03  0.48306750898E+03  0.00000000000E+00 0. -1.
         21    1    1    2  505  501 -0.50443975259E+02  0.44541585116E+02 -0.17513391235E+03  0.18761778887E+03  0.00000000000E+00 0. -1.
         -2    1    1    2    0  503  0.11953151548E+02 -0.73794705776E+02 -0.77578445579E+02  0.10773556354E+03  0.00000000000E+00 0. -1.
<scales pt_clust_3="52.38104" pt_clust_4="32.17237" pt_clust_5="68.60797" pt_clust_6="14000.00000"></scales>
<clustering>
<clus scale="   32.172">  2  4  1 -1</clus>
<clus scale="   52.381">  2  3  1 -1</clus>
<clus scale="   68.608">  2  5  1 -1</clus>
<clus scale="   32.172">  2  3  1 -1</clus>
</clustering>
</event>
<event>
 6    0  0.1230761E+002  0.1190791E+03  0.7546771E-02  0.1244624E+00
         21   -1    0    0  503  502  0.00000000000E+00  0.00000000000E+00  0.99223404352E+03  0.99223404352E+03  0.00000000000E+00 0.  1.
          2   -1    0    0  504    0 -0.00000000000E+00 -0.00000000000E+00 -0.45851388943E+04  0.45851388943E+04  0.00000000000E+00 0.  1.
         21    1    1    2  503  501 -0.11836819303E+03 -0.14037589449E+03  0.35373738106E+03  0.39855558663E+03  0.00000000000E+00 0.  1.
         21    1    1    2  504  505 -0.43221455592E+02 -0.78116904090E+01 -0.18852254979E+03  0.19357135250E+03  0.00000000000E+00 0. -1.
         21    1    1    2  505  502  0.75812883176E+02  0.74090862646E+02  0.60824356145E+03  0.61741175825E+03  0.00000000000E+00 0.  1.
          2    1    1    2  501    0  0.85776765449E+02  0.74096722254E+02 -0.43663632435E+04  0.43678342404E+04  0.00000000000E+00 0.  1.
<scales pt_clust_3="14000.00000" pt_clust_4="43.92171" pt_clust_5="119.07910" pt_clust_6="78.95374"></scales>
<clustering>
<clus scale="   43.922">  2  4  1 -1</clus>
<clus scale="   78.954">  2  6  1 -1</clus>
<clus scale="  119.079">  1  5  2 -1</clus>
<clus scale="  119.079">  1  3  2 -1</clus>
</clustering>
</event>
<event>
 6    0  0.1230761E+002  0.1167073E+03  0.7546771E-02  0.1248630E+00
          2   -1    0    0  505    0 -0.00000000000E+00  0.00000000000E+00  0.13531088794E+04  0.13531088794E+04  0.00000000000E+00 0.  1.
         21   -1    0    0  504  502  0.00000000000E+00 -0.00000000000E+00 -0.17685779661E+03  0.17685779661E+03  0.00000000000E+00 0.  1.
         21    1    1    2  503  502  0.58379708528E+02  0.15435090653E+02 -0.42177588804E+02  0.73657188302E+02  0.00000000000E+00 0. -1.
         21    1    1    2  504  501 -0.64371375316E+02  0.46043741324E+02  0.23255003397E+03  0.24564856681E+03  0.00000000000E+00 0. -1.
         21    1    1    2  505  503  0.82430779328E+01 -0.12559114410E+03 -0.75880337167E+02  0.14696567415E+03  0.00000000000E+00 0.  1.
          2    1    1    2  501    0 -0.22514111452E+01  0.64112312125E+02  0.10617589748E+04  0.10636952468E+04  0.00000000000E+00 0.  1.
<scales pt_clust_3="60.38570" pt_clust_4="116.70728" pt_clust_5="14000.00000" pt_clust_6="64.26250"></scales>
<clustering>
<clus scale="   60.386">  2  3  1 -1</clus>
<clus scale="   64.263">  1  6  2 -1</clus>
<clus scale="  116.707">  1  4  2 -1</clus>
<clus scale="   60.386">  2  3  1 -1</clus>
</clustering>
</event>
<event>
 6    0  0.1230761E+002  0.1508924E+03  0.7546771E-02  0.1199381E+00
         21   -1    0    0  503  502  0.00000000000E+00  0.00000000000E+00  0.16138260846E+03  0.16138260846E+03  0.00000000000E+00 0. -1.
         -3   -1    0    0    0  501 -0.00000000000E+00 -0.00000000000E+00 -0.25900894816E+03  0.25900894816E+03  0.00000000000E+00 0. -1.
         21    1    1    2  503  501  0.61308491490E+02 -0.62569747264E+01 -0.71769115979E+01  0.62043443825E+02  0.00000000000E+00 0. -1.
         21    1    1    2  504  505 -0.23314791964E+02  0.89717660479E+02  0.23114819661E+02  0.95536029926E+02  0.00000000000E+00 0. -1.
         21    1    1    2  505  502  0.17427052953E+02  0.54227786935E+02  0.22707523986E+02  0.61318730385E+02  0.00000000000E+00 0. -1.
         -3    1    1    2    0  504 -0.55420752480E+02 -0.13768847269E+03 -0.13627177175E+03  0.20149335248E+03  0.00000000000E+00 0. -1.
<scales pt_clust_3="61.62695" pt_clust_4="32.78042" pt_clust_5="32.78042" pt_clust_6="144.98189"></scales>
<clustering>
<clus scale="   32.780">  4  5 -1 -1</clus>
<clus scale="   61.627">  1  3  2 -1</clus>
<clus scale="  144.982">  2  6  1 -1</clus>
<clus scale="   61.627">  1  3  2 -1</clus>
</clustering>
</event>
<event>
 6    0  0.1230761E+002  0.1238142E+03  0.7546771E-02  0.1236934E+00
         21   -1    0    0  505  502  0.00000000000E+00  0.00000000000E+00  0.58899399993E+03  0.58899399993E+03  0.00000000000E+00 0.  1.
          4   -1    0    0  503    0 -0.00000000000E+00 -0.00000000000E+00 -0.10501759822E+04  0.10501759822E+04  0.00000000000E+00 0.  1.
         21    1    1    2  503  504 -0.39781375220E+02 -0.17549725438E+02 -0.11805396098E+03  0.12580655142E+03  0.00000000000E+00 0.  1.
         21    1    1    2  504  502  0.28365087003E+02 -0.16105515034E+02  0.22298427034E+03  0.22535738416E+03  0.00000000000E+00 0. -1.
         21    1    1    2  505  501 -0.94032931973E+02 -0.88221605536E+02  0.34210684246E+03  0.36559859907E+03  0.00000000000E+00 0.  1.
          4    1    1    2  501    0  0.10544922019E+03  0.12187684601E+03 -0.90821913412E+03  0.92240744751E+03  0.00000000000E+00 0.  1.
<scales pt_clust_3="43.27468" pt_clust_4="32.61849" pt_clust_5="14000.00000" pt_clust_6="123.81417"></scales>
<clustering>
<clus scale="   32.618">  1  4  2 -1</clus>
<clus scale="   43.275">  2  3  1 -1</clus>
<clus scale="  123.814">  2  6  1 -1</clus>
<clus scale="   32.618">  1  3  2 -1</clus>
</clustering>
</event>
<event>
 6    0  0.1230761E+002  0.1913060E+03  0.7546771E-02  0.1157289E+00
         21   -1    0    0  503  502  0.00000000000E+00  0.00000000000E+00  0.27589238737E+02  0.27589238737E+02  0.00000000000E+00 0. -1.
          1   -1    0    0  504    0 -0.00000000000E+00 -0.00000000000E+00 -0.35302275708E+04  0.35302275708E+04  0.00000000000E+00 0. -1.
         21    1    1    2  503  501  0.33064072771E+02 -0.61473413477E+02 -0.77142443471E+03  0.77457593039E+03  0.00000000000E+00 0. -1.
         21    1    1    2  504  505 -0.52530828315E+02  0.50928149683E+02 -0.16112920789E+03  0.17696266835E+03  0.00000000000E+00 0. -1.
         21    1    1    2  505  502 -0.20651396903E+02  0.11441013413E+03 -0.18435473120E+03  0.21795143014E+03  0.00000000000E+00 0. -1.
          1    1    1    2  501    0  0.40118152447E+02 -0.10386487033E+03 -0.23857299583E+04  0.23883267807E+04  0.00000000000E+00 0. -1.
<scales pt_clust_3="47.75176" pt_clust_4="49.57738" pt_clust_5="49.57738" pt_clust_6="190.60351"></scales>
<clustering>
<clus scale="   47.752">  3  6 -1 -1</clus>
<clus scale="   49.577">  4  5 -1 -1</clus>
<clus scale="  190.604">  2  3  1 -1</clus>
<clus scale="  191.306">  1  3  2 -1</clus>
</clustering>
</event>
<event>
 6    0  0.1230761E+002  0.1949077E+03  0.7546771E-02  0.1154108E+00
          1   -1    0    0  504    0 -0.00000000000E+00  0.00000000000E+00  0.24205544979E+04  0.24205544979E+04  0.00000000000E+00 0.  1.
         21   -1    0    0  505  502  0.00000000000E+00 -0.00000000000E+00 -0.40364593934E+03  0.40364593934E+03  0.00000000000E+00 0.  1.
         21    1    1    2  503  502  0.47032044943E+02  0.88481629397E+02  0.10653993897E+03  0.14625925813E+03  0.00000000000E+00 0.  1.
         21    1    1    2  504  503 -0.20356369680E+02 -0.31451248793E+02  0.90523536520E+02  0.97969758095E+02  0.00000000000E+00 0.  1.
         21    1    1    2  505  501 -0.25246577313E+02 -0.19396167597E+03 -0.35259788466E+03  0.40321680232E+03  0.00000000000E+00 0.  1.
          1    1    1    2  501    0 -0.14290979509E+01  0.13693129536E+03  0.21724429677E+04  0.21767546187E+04  0.00000000000E+00 0.  1.
<scales pt_clust_3="98.17690" pt_clust_4="37.46415" pt_clust_5="14000.00000" pt_clust_6="194.90773"></scales>
<clustering>
<clus scale="   37.464">  1  4  2 -1</clus>
<clus scale="   98.177">  1  3  2 -1</clus>
<clus scale="  194.908">  1  6  2 -1</clus>
<clus scale="  194.908">  2  3  1 -1</clus>
</clustering>
</event>
<event>
 6    0  0.1230761E+002  0.2461068E+03  0.7546771E-02  0.1115790E+00
         21   -1    0    0  505  502  0.00000000000E+00  0.00000000000E+00  0.15615917517E+04  0.15615917517E+04  0.00000000000E+00 0.  1.
          2   -1    0    0  503    0 -0.00000000000E+00 -0.00000000000E+00 -0.58645875668E+03  0.58645875668E+03  0.00000000000E+00 0. -1.
         21    1    1    2  503  504  0.30021046322E+02 -0.17110983282E+03  0.23050445436E+02  0.17524600179E+03  0.00000000000E+00 0.  1.
         21    1    1    2  504  502  0.38530426004E+02  0.61974145902E+02  0.57071914688E+03  0.57536573856E+03  0.00000000000E+00 0.  1.
         21    1    1    2  505  501  0.19327139140E+02 -0.15046636521E+03  0.84518605999E+03  0.85869269320E+03  0.00000000000E+00 0.  1.
          2    1    1    2  501    0 -0.87878611466E+02  0.25960205212E+03 -0.46382265724E+03  0.53874607487E+03  0.00000000000E+00 0. -1.
<scales pt_clust_3="246.10681" pt_clust_4="72.97526" pt_clust_5="110.36163" pt_clust_6="14000.00000"></scales>
<clustering>
<clus scale="   72.975">  1  4  2 -1</clus>
<clus scale="  110.362">  1  5  2 -1</clus>
<clus scale="  246.107">  1  3  2 -1</clus>
<clus scale="   72.975">  1  3  2 -1</clus>
</clustering>
</event>
<event>
 6    0  0.1230761E+002  0.1261022E+03  0.7546771E-02  0.1233357E+00
         -4   -1    0    0    0  501 -0.00000000000E+00  0.00000000000E+00  0.29501947846E+03  0.29501947846E+03  0.00000000000E+00 0.  1.
         21   -1    0    0  503  502  0.00000000000E+00 -0.00000000000E+00 -0.75301379914E+03  0.75301379914E+03  0.00000000000E+00 0.  1.
         21    1    1    2  503  505  0.16381529879E+02  0.10273361667E+03 -0.64001393088E+03  0.64841374310E+03  0.00000000000E+00 0.  1.
         21    1    1    2  504  502 -0.22081734911E+02  0.21235743233E+02 -0.37754878038E+02  0.48620886695E+02  0.00000000000E+00 0. -1.
         21    1    1    2  505  501 -0.40543725876E+02  0.56794690608E+02  0.12150411617E+03  0.14011666866E+03  0.00000000000E+00 0.  1.
         -4    1    1    2    0  504  0.46243930909E+02 -0.18076405051E+03  0.98270372078E+02  0.21088197915E+03  0.00000000000E+00 0.  1.
<scales pt_clust_3="14000.00000" pt_clust_4="30.63592" pt_clust_5="70.17615" pt_clust_6="126.10218"></scales>
<clustering>
<clus scale="   30.636">  2  4  1 -1</clus>
<clus scale="   70.176">  1  5  2 -1</clus>
<clus scale="  126.102">  1  6  2 -1</clus>
<clus scale="   30.636">  2  3  1 -1</clus>
</clustering>
</event>
<event>
 6    0  0.1230761E+002  0.8288814E+02  0.7546771E-02  0.1321050E+00
          2   -1    0    0  505    0 -0.00000000000E+00  0.00000000000E+00  0.15206703367E+04  0.15206703367E+04  0.00000000000E+00 0. -1.
         21   -1    0    0  504  502  0.00000000000E+00 -0.00000000000E+00 -0.66769855186E+02  0.66769855186E+02  0.00000000000E+00 0.  1.
         21    1    1    2  503  502  0.18225968368E+02  0.73815575069E+02  0.15194847602E+03  0.16990957716E+03  0.00000000000E+00 0.  1.
         21    1    1    2  504  501 -0.84201423343E+02 -0.10300110362E+02 -0.15605286596E+02  0.86252518434E+02  0.00000000000E+00 0.  1.
         21    1    1    2  505  503  0.63287155639E+02  0.36213226313E+02  0.29549578210E+03  0.30435902988E+03  0.00000000000E+00 0.  1.
          2    1    1    2  501    0  0.26882993365E+01 -0.99728691020E+02  0.10220615100E+04  0.10269190665E+04  0.00000000000E+00 0. -1.
<scales pt_clust_3="77.34247" pt_clust_4="82.88814" pt_clust_5="72.91544" pt_clust_6="14000.00000"></scales>
<clustering>
<clus scale="   72.915">  1  5  2 -1</clus>
<clus scale="   82.888">  2  4  1 -1</clus>
<clus scale="   77.342">  2  3  1 -1</clus>
<clus scale="   82.888">  2  3  1 -1</clus>
</clustering>
</event>
<event>
 6    0  0.1230761E+002  0.8160052E+02  0.7546771E-02  0.1324570E+00
          1   -1    0    0  505    0 -0.00000000000E+00  0.00000000000E+00  0.82279380286E+03  0.82279380286E+03  0.00000000000E+00 0. -1.
         21   -1    0    0  503  502  0.00000000000E+00 -0.00000000000E+00 -0.35171149162E+03  0.35171149162E+03  0.00000000000E+00 0. -1.
         21    1    1    2  503  504  0.62294577842E+02 -0.72375590551E+01 -0.29844626820E+03  0.30496421379E+03  0.00000000000E+00 0. -1.
         21    1    1    2  504  501 -0.50235574204E+02 -0.73529710734E+02  0.22884677891E+01  0.89081245844E+02  0.00000000000E+00 0.  1.
         21    1    1    2  505  502 -0.32775387097E+02 -0.15274759410E+02  0.34739025168E+03  0.34926713449E+03  0.00000000000E+00 0.  1.
          1    1    1    2  501    0  0.20716383459E+02  0.96042029199E+02  0.41984985997E+03  0.43119270035E+03  0.00000000000E+00 0. -1.
<scales pt_clust_3="62.50223" pt_clust_4="14000.00000" pt_clust_5="36.15998" pt_clust_6="81.60052"></scales>
<clustering>
<clus scale="   36.160">  1  5  2 -1</clus>
<clus scale="   62.502">  2  3  1 -1</clus>
<clus scale="   81.601">  1  6  2 -1</clus>
<clus scale="   62.502">  2  3  1 -1</clus>
</clustering>
</event>
<event>
 6    0  0.1230761E+002  0.1301402E+03  0.7546771E-02  0.1227248E+00
          2   -1    0    0  504    0 -0.00000000000E+00  0.00000000000E+00  0.21898406493E+04  0.21898406493E+04  0.00000000000E+00 0. -1.
         21   -1    0    0  505  502  0.00000000000E+00 -0.00000000000E+00 -0.18324401449E+03  0.18324401449E+03  0.00000000000E+00 0.  1.
         21    1    1    2  503  502 -0.39755329094E+02  0.32791959733E+01 -0.49655745346E+02  0.63694052811E+02  0.00000000000E+00 0.  1.
         21    1    1    2  504  503 -0.40119055417E+02 -0.13441061084E+02  0.90836895755E+03  0.90935381660E+03  0.00000000000E+00 0. -1.
         21    1    1    2  505  501 -0.42497450563E+02 -0.10392482959E+03 -0.94307519891E+02  0.14662984627E+03  0.00000000000E+00 0.  1.
          2    1    1    2  501    0  0.12237183507E+03  0.11408669470E+03  0.12421909425E+04  0.12534069481E+04  0.00000000000E+00 0. -1.
<scales pt_clust_3="39.89034" pt_clust_4="42.45341" pt_clust_5="130.14022" pt_clust_6="14000.00000"></scales>
<clustering>
<clus scale="   39.890">  2  3  1 -1</clus>
<clus scale="   42.453">  1  4  2 -1</clus>
<clus scale="  130.140">  2  5  1 -1</clus>
<clus scale="   39.890">  2  3  1 -1</clus>
</clustering>
</event>
<event>
 6    0  0.1230761E+002  0.8578819E+02  0.7546771E-02  0.1313384E+00
          2   -1    0    0  504    0 -0.00000000000E+00  0.00000000000E+00  0.32065258234E+04  0.32065258234E+04  0.00000000000E+00 0. -1.
         21   -1    0    0  505  502  0.00000000000E+00 -0.00000000000E+00 -0.20439155810E+03  0.20439155810E+03  0.00000000000E+00 0. -1.
         21    1    1    2  503  502 -0.62259889112E+02 -0.76553680565E+02 -0.16449613411E+03  0.19182215184E+03  0.00000000000E+00 0. -1.
         21    1    1    2  504  503  0.20019016460E+02 -0.42720584297E+02  0.16461680196E+03  0.17124398042E+03  0.00000000000E+00 0.  1.
         21    1    1    2  505  501  0.42418463729E+02  0.34816721096E+02  0.11404635756E+02  0.56049940675E+02  0.00000000000E+00 0.  1.
          2    1    1    2  501    0 -0.17759107653E+00  0.84457543766E+02  0.29906089617E+04  0.29918013086E+04  0.00000000000E+00 0. -1.
<scales pt_clust_3="85.78819" pt_clust_4="47.17848" pt_clust_5="14000.00000" pt_clust_6="46.68430"></scales>
<clustering>
<clus scale="   47.178">  1  4  2 -1</clus>
<clus scale="   46.684">  1  6  2 -1</clus>
<clus scale="   85.788">  2  3  1 -1</clus>
<clus scale="   85.788">  2  3  1 -1</clus>
</clustering>
</event>
<event>
 6    0  0.1230761E+002  0.1864020E+03  0.7546771E-02  0.1161747E+00
         21   -1    0    0  503  502  0.00000000000E+00  0.00000000000E+00  0.87087625860E+03  0.87087625860E+03  0.00000000000E+00 0.  1.
         -2   -1    0    0    0  501 -0.00000000000E+00 -0.00000000000E+00 -0.13735863326E+03  0.13735863326E+03  0.00000000000E+00 0. -1.
         21    1    1    2  503  504 -0.74660189153E+02 -0.69480769041E+02  0.59310431160E+03  0.60180930995E+03  0.00000000000E+00 0.  1.
         21    1    1    2  504  505 -0.51543242037E+02 -0.41421099900E+02  0.15386433366E+03  0.16747133035E+03  0.00000000000E+00 0.  1.
         21    1    1    2  505  501 -0.85983375254E+01 -0.35528391120E+02  0.11605764911E+02  0.38352206754E+02  0.00000000000E+00 0. -1.
         -2    1    1    2    0  502  0.13480176872E+03  0.14643026006E+03 -0.25056784829E+02  0.20060204480E+03  0.00000000000E+00 0. -1.
<scales pt_clust_3="60.68382" pt_clust_4="60.68382" pt_clust_5="36.55404" pt_clust_6="170.70936"></scales>
<clustering>
<clus scale="   36.554">  2  5  1 -1</clus>
<clus scale="   60.684">  3  4 -1 -1</clus>
<clus scale="  170.709">  2  6  1 -1</clus>
<clus scale="  186.402">  1  3  2 -1</clus>
</clustering>
</event>
<event>
 6    0  0.1230761E+002  0.1529798E+03  0.7546771E-02  0.1196859E+00
          2   -1    0    0  505    0 -0.00000000000E+00  0.00000000000E+00  0.64040646680E+03  0.64040646680E+03  0.00000000000E+00 0. -1.
         21   -1    0    0  504  502  0.00000000000E+00 -0.00000000000E+00 -0.17683087407E+03  0.17683087407E+03  0.00000000000E+00 0.  1.
         21    1    1    2  503  502 -0.12822722712E+03  0.44392664790E+02 -0.28341332367E+02  0.13862237043E+03  0.00000000000E+00 0.  1.
         21    1    1    2  504  501  0.20516860055E+03  0.31617777004E+02  0.42806047090E+02  0.21195800561E+03  0.00000000000E+00 0.  1.
         21    1    1    2  505  503 -0.30663293018E+02  0.30791651202E+01  0.67560205059E+02  0.74256986904E+02  0.00000000000E+00 0. -1.
          2    1    1    2  501    0 -0.46278080414E+02 -0.79089606914E+02  0.38155067295E+03  0.39239997792E+03  0.00000000000E+00 0. -1.
<scales pt_clust_3="152.97980" pt_clust_4="14000.00000" pt_clust_5="30.81751" pt_clust_6="102.14136"></scales>
<clustering>
<clus scale="   30.818">  1  5  2 -1</clus>
<clus scale="  102.141">  1  6  2 -1</clus>
<clus scale="  152.980">  2  3  1 -1</clus>
<clus scale="  152.980">  2  3  1 -1</clus>
</clustering>
</event>
<event>
 6    0  0.1230761E+002  0.1143850E+03  0.7546771E-02  0.1252658E+00
          1   -1    0    0  505    0 -0.00000000000E+00  0.00000000000E+00  0.12668829791E+04  0.12668829791E+04  0.00000000000E+00 0.  1.
         21   -1    0    0  503  502  0.00000000000E+00 -0.00000000000E+00 -0.88396021159E+03  0.88396021159E+03  0.00000000000E+00 0.  1.
         21    1    1    2  503  501  0.36292508474E+02 -0.22829915811E+02 -0.14361048305E+03  0.14987435427E+03  0.00000000000E+00 0.  1.
         21    1    1    2  504  502  0.58059379632E+02 -0.42742397285E+02 -0.72945276987E+03  0.73300692191E+03  0.00000000000E+00 0.  1.
         21    1    1    2  505  504 -0.39112144713E+02 -0.14532589454E+02  0.10676165046E+03  0.11462550340E+03  0.00000000000E+00 0.  1.
          1    1    1    2  501    0 -0.55239743393E+02  0.80104902550E+02  0.11492243699E+04  0.11533364111E+04  0.00000000000E+00 0.  1.
<scales pt_clust_3="42.80737" pt_clust_4="14000.00000" pt_clust_5="41.72477" pt_clust_6="114.38504"></scales>
<clustering>
<clus scale="   41.725">  1  5  2 -1</clus>
<clus scale="   42.807">  2  3  1 -1</clus>
<clus scale="  114.385">  1  6  2 -1</clus>
<clus scale="   42.807">  2  3  1 -1</clus>
</clustering>
</event>
<event>
 6    0  0.1230761E+002  0.7139850E+02  0.7546771E-02  0.1355401E+00
          2   -1    0    0  505    0 -0.00000000000E+00  0.00000000000E+00  0.44977694046E+03  0.44977694046E+03  0.00000000000E+00 0. -1.
         21   -1    0    0  503  502  0.00000000000E+00 -0.00000000000E+00 -0.11609748326E+03  0.11609748326E+03  0.00000000000E+00 0.  1.
         21    1    1    2  503  501  0.14832457775E+00 -0.10756647952E+03  0.24683190865E+02  0.11036226451E+03  0.00000000000E+00 0.  1.
         21    1    1    2  504  502  0.39184873213E+02  0.45618408975E+02 -0.49641429602E+02  0.77979260442E+02  0.00000000000E+00 0.  1.
         21    1    1    2  505  504  0.18774501356E+02  0.43569558260E+02  0.86517484068E+02  0.98671492122E+02  0.00000000000E+00 0. -1.
          2    1    1    2  501    0 -0.58107699146E+02  0.18378512286E+02  0.27212021186E+03  0.27886140665E+03  0.00000000000E+00 0. -1.
<scales pt_clust_3="14000.00000" pt_clust_4="61.93618" pt_clust_5="47.44247" pt_clust_6="71.39850"></scales>
<clustering>
<clus scale="   47.442">  1  5  2 -1</clus>
<clus scale="   61.936">  2  4  1 -1</clus>
<clus scale="   71.398">  1  6  2 -1</clus>
<clus scale="   61.936">  2  3  1 -1</clus>
</clustering>
</event>
<event>
 6    0  0.1230761E+002  0.3707958E+03  0.7546771E-02  0.1054389E+00
          2   -1    0    0  505    0 -0.00000000000E+00  0.00000000000E+00  0.14596019118E+04  0.14596019118E+04  0.00000000000E+00 0.  1.
         21   -1    0    0  501  502  0.00000000000E+00 -0.00000000000E+00 -0.31198398172E+03  0.31198398172E+03  0.00000000000E+00 0. -1.
         21    1    1    2  503  502  0.21223866784E+03 -0.21300108109E+02 -0.99045034610E+02  0.23517836978E+03  0.00000000000E+00 0. -1.
         21    1    1    2  504  503  0.14020188004E+03 -0.63500674525E+02 -0.55759349048E+02  0.16370097079E+03  0.00000000000E+00 0. -1.
         21    1    1    2  505  504  0.33277748322E+02 -0.11985411163E+02  0.12705681241E+03  0.13188818065E+03  0.00000000000E+00 0.  1.
          2    1    1    2  501    0 -0.38571829620E+03  0.96786193798E+02  0.11753655014E+04  0.12408183723E+04  0.00000000000E+00 0.  1.
<scales pt_clust_3="51.93969" pt_clust_4="51.93969" pt_clust_5="35.37031" pt_clust_6="365.72487"></scales>
<clustering>
<clus scale="   35.370">  1  5  2 -1</clus>
<clus scale="   51.940">  3  4 -1 -1</clus>
<clus scale="  365.725">  1  6  2 -1</clus>
<clus scale="  370.796">  2  3  1 -1</clus>
</clustering>
</event>
<event>
 6    0  0.1230761E+002  0.1102426E+03  0.7546771E-02  0.1260121E+00
          2   -1    0    0  504    0 -0.00000000000E+00  0.00000000000E+00  0.38969261132E+03  0.38969261132E+03  0.00000000000E+00 0. -1.
         21   -1    0    0  505  502  0.00000000000E+00 -0.00000000000E+00 -0.11491450462E+04  0.11491450462E+04  0.00000000000E+00 0.  1.
         21    1    1    2  503  502 -0.44043076668E+02  0.67784520281E+02 -0.68696192121E+03  0.69170168062E+03  0.00000000000E+00 0.  1.
         21    1    1    2  504  503  0.13050087899E+01  0.92478764410E+02 -0.14597212069E+02  0.93632812170E+02  0.00000000000E+00 0. -1.
         21    1    1    2  505  501 -0.36756930098E+02 -0.73459178184E+02 -0.39135236798E+03  0.39987998036E+03  0.00000000000E+00 0.  1.
          2    1    1    2  501    0  0.79494997976E+02 -0.86804106507E+02  0.33345906635E+03  0.35362318440E+03  0.00000000000E+00 0. -1.
<scales pt_clust_3="80.83646" pt_clust_4="14000.00000" pt_clust_5="76.17040" pt_clust_6="110.24263"></scales>
<clustering>
<clus scale="   80.836">  2  3  1 -1</clus>
<clus scale="   76.170">  2  5  1 -1</clus>
<clus scale="  110.243">  1  6  2 -1</clus>
<clus scale="   80.836">  2  3  1 -1</clus>
</clustering>
</event>
<event>
 6    0  0.1230761E+002  0.1377995E+04  0.7546771E-02  0.8969903E-01
         21   -1    0    0  505  502  0.00000000000E+00  0.00000000000E+00  0.96191670432E+03  0.96191670432E+03  0.00000000000E+00 0.  1.
         -4   -1    0    0    0  501 -0.00000000000E+00 -0.00000000000E+00 -0.26952684904E+04  0.26952684904E+04  0.00000000000E+00 0. -1.
         21    1    1    2  503  501  0.83863518687E+02  0.16526164471E+03 -0.64288281801E+03  0.66906114718E+03  0.00000000000E+00 0. -1.
         21    1    1    2  504  503 -0.11214158066E+03 -0.54897078515E+03  0.27658122056E+03  0.62485344572E+03  0.00000000000E+00 0.  1.
         21    1    1    2  505  504 -0.14177591138E+02 -0.74960687004E+03 -0.30464355687E+03  0.80927075842E+03  0.00000000000E+00 0.  1.
         -4    1    1    2    0  502  0.42455653109E+02  0.11333160105E+04 -0.10624066318E+04  0.15539998434E+04  0.00000000000E+00 0. -1.
<scales pt_clust_3="185.32269" pt_clust_4="523.08345" pt_clust_5="523.08345" pt_clust_6="1243.06312"></scales>
<clustering>
<clus scale="  185.323">  2  3  1 -1</clus>
<clus scale="  523.083">  4  5 -1 -1</clus>
<clus scale=" 1243.063">  2  6  1 -1</clus>
<clus scale=" 1377.995">  1  3  2 -1</clus>
</clustering>
</event>
<event>
 6    0  0.1230761E+002  0.9983261E+02  0.7546771E-02  0.1280648E+00
         21   -1    0    0  504  502  0.00000000000E+00  0.00000000000E+00  0.10264721833E+04  0.10264721833E+04  0.00000000000E+00 0.  1.
          4   -1    0    0  505    0 -0.00000000000E+00 -0.00000000000E+00 -0.77241341312E+02  0.77241341312E+02  0.00000000000E+00 0.  1.
         21    1    1    2  503  501  0.20297982408E+02  0.30072604512E+02 -0.21133565692E+02  0.41988060575E+02  0.00000000000E+00 0.  1.
         21    1    1    2  504  503  0.28127367950E+02 -0.11151148909E+03  0.78541368321E+03  0.79378877215E+03  0.00000000000E+00 0.  1.
         21    1    1    2  505  502 -0.16685268408E+02  0.74110720458E+02  0.21225017525E+03  0.22543498833E+03  0.00000000000E+00 0. -1.
          4    1    1    2  501    0 -0.31740081950E+02  0.73281641178E+01 -0.27299450785E+02  0.42501703550E+02  0.00000000000E+00 0.  1.
<scales pt_clust_3="35.69362" pt_clust_4="99.83261" pt_clust_5="14000.00000" pt_clust_6="32.57506"></scales>
<clustering>
<clus scale="   32.575">  2  6  1 -1</clus>
<clus scale="   35.694">  2  3  1 -1</clus>
<clus scale="   99.833">  1  4  2 -1</clus>
<clus scale="   99.833">  1  3  2 -1</clus>
</clustering>
</event>
<event>
 6    0  0.1230761E+002  0.3109595E+03  0.7546771E-02  0.1079887E+00
         21   -1    0    0  504  502  0.00000000000E+00  0.00000000000E+00  0.16457109796E+04  0.16457109796E+04  0.00000000000E+00 0. -1.
         -3   -1    0    0    0  501 -0.00000000000E+00 -0.00000000000E+00 -0.24638018962E+03  0.24638018962E+03  0.00000000000E+00 0. -1.
         21    1    1    2  503  502  0.57351228751E+02 -0.26118552874E+02 -0.72158066949E+01  0.63430356374E+02  0.00000000000E+00 0.  1.
         21    1    1    2  504  505 -0.11418841583E+03  0.14978673869E+03  0.12496983059E+04  0.12638120577E+04  0.00000000000E+00 0. -1.
         21    1    1    2  505  501 -0.60068869613E+02  0.79661689567E+02  0.28191200365E+03  0.29904620326E+03  0.00000000000E+00 0. -1.
         -3    1    1    2    0  503  0.11690605669E+03 -0.20332987538E+03 -0.12506371288E+03  0.26580255189E+03  0.00000000000E+00 0. -1.
<scales pt_clust_3="46.02609" pt_clust_4="85.13770" pt_clust_5="85.13770" pt_clust_6="301.49036"></scales>
<clustering>
<clus scale="   46.026">  3  6 -1 -1</clus>
<clus scale="   85.138">  4  5 -1 -1</clus>
<clus scale="  301.490">  2  3  1 -1</clus>
<clus scale="  310.959">  1  3  2 -1</clus>
</clustering>
</event>
<event>
 6    0  0.1230761E+002  0.8711466E+02  0.7546771E-02  0.1309993E+00
          1   -1    0    0  504    0 -0.00000000000E+00  0.00000000000E+00  0.20740569936E+03  0.20740569936E+03  0.00000000000E+00 0. -1.
         21   -1    0    0  503  502  0.00000000000E+00 -0.00000000000E+00 -0.63655226171E+03  0.63655226171E+03  0.00000000000E+00 0.  1.
         21    1    1    2  503  501  0.78216136910E+02  0.28664717418E+02 -0.24032230499E+03  0.25435062488E+03  0.00000000000E+00 0. -1.
         21    1    1    2  504  505 -0.62783449503E+02 -0.55964284778E+02 -0.38333269523E+02  0.92429444738E+02  0.00000000000E+00 0. -1.
         21    1    1    2  505  502  0.23002758152E+02 -0.37693885256E+02 -0.31399280805E+03  0.31708270116E+03  0.00000000000E+00 0.  1.
          1    1    1    2  501    0 -0.38435445559E+02  0.64993452616E+02  0.16350182021E+03  0.18009519030E+03  0.00000000000E+00 0. -1.
<scales pt_clust_3="87.11466" pt_clust_4="14000.00000" pt_clust_5="44.15830" pt_clust_6="74.36666"></scales>
<clustering>
<clus scale="   44.158">  2  5  1 -1</clus>
<clus scale="   74.367">  1  6  2 -1</clus>
<clus scale="   87.115">  2  3  1 -1</clus>
<clus scale="   44.158">  2  3  1 -1</clus>
</clustering>
</event>
<event>
 6    0  0.1230761E+002  0.1315093E+03  0.7546771E-02  0.1225233E+00
         21   -1    0    0  503  502  0.00000000000E+00  0.00000000000E+00  0.59835905010E+03  0.59835905010E+03  0.00000000000E+00 0. -1.
          2   -1    0    0  505    0 -0.00000000000E+00 -0.00000000000E+00 -0.17573756810E+04  0.17573756810E+04  0.00000000000E+00 0. -1.
         21    1    1    2  503  501  0.42152558572E+02 -0.26679646137E+01  0.43861801464E+02  0.60891820937E+02  0.00000000000E+00 0. -1.
         21    1    1    2  504  502 -0.53752405479E+02  0.13279931653E+03  0.52450987097E+03  0.54372381253E+03  0.00000000000E+00 0. -1.
         21    1    1    2  505  504  0.44066205721E+02  0.65120455643E+02 -0.30263393018E+03  0.31268162710E+03  0.00000000000E+00 0. -1.
          2    1    1    2  501    0 -0.32466358814E+02 -0.19525180756E+03 -0.14247543731E+04  0.14384374705E+04  0.00000000000E+00 0. -1.
<scales pt_clust_3="42.23691" pt_clust_4="131.50933" pt_clust_5="78.82666" pt_clust_6="14000.00000"></scales>
<clustering>
<clus scale="   42.237">  1  3  2 -1</clus>
<clus scale="   78.827">  2  5  1 -1</clus>
<clus scale="  131.509">  1  4  2 -1</clus>
<clus scale="   42.237">  1  3  2 -1</clus>
</clustering>
</event>
<event>
 6    0  0.1230761E+002  0.8982892E+02  0.7546771E-02  0.1303267E+00
         21   -1    0    0  504  502  0.00000000000E+00  0.00000000000E+00  0.98168259864E+03  0.98168259864E+03  0.00000000000E+00 0. -1.
          1   -1    0    0  503    0 -0.00000000000E+00 -0.00000000000E+00 -0.35521734719E+02  0.35521734719E+02  0.00000000000E+00 0. -1.
         21    1    1    2  503  505  0.95906915407E+01  0.37512832182E+02  0.45004413852E+02  0.59368267692E+02  0.00000000000E+00 0. -1.
         21    1    1    2  504  501  0.70525127627E+02 -0.47023078804E+02  0.68843999853E+03  0.69363866324E+03  0.00000000000E+00 0. -1.
         21    1    1    2  505  502 -0.96600473767E+01  0.52526549250E+02  0.15371895977E+03  0.16273252128E+03  0.00000000000E+00 0. -1.
          1    1    1    2  501    0 -0.70455771791E+02 -0.43016302628E+02  0.58997491778E+02  0.10146488115E+03  0.00000000000E+00 0. -1.
<scales pt_clust_3="35.42197" pt_clust_4="79.61500" pt_clust_5="35.42197" pt_clust_6="82.54949"></scales>
<clustering>
<clus scale="   35.422">  3  5 -1 -1</clus>
<clus scale="   82.549">  2  6  1 -1</clus>
<clus scale="   79.615">  1  4  2 -1</clus>
<clus scale="   79.615">  1  3  2 -1</clus>
</clustering>
</event>
<event>
 6    0  0.1230761E+002  0.1713528E+03  0.7546771E-02  0.1176444E+00
         21   -1    0    0  501  502  0.00000000000E+00  0.00000000000E+00  0.32808234724E+03  0.32808234724E+03  0.00000000000E+00 0. -1.
          1   -1    0    0  503    0 -0.00000000000E+00 -0.00000000000E+00 -0.12301556025E+04  0.12301556025E+04  0.00000000000E+00 0.  1.
         21    1    1    2  503  505 -0.20900081351E+02 -0.69878765403E+02 -0.33647163545E+03  0.34428624241E+03  0.00000000000E+00 0. -1.
         21    1    1    2  504  502 -0.10773477458E+03 -0.12225910953E+03  0.14267753916E+03  0.21658936192E+03  0.00000000000E+00 0. -1.
         21    1    1    2  505  504  0.79845233952E+02  0.17287815359E+03  0.80571196888E+02  0.20677000542E+03  0.00000000000E+00 0. -1.
          1    1    1    2  501    0  0.48789621980E+02  0.19259721344E+02 -0.78885035586E+03  0.79059233997E+03  0.00000000000E+00 0.  1.
<scales pt_clust_3="57.50490" pt_clust_4="14000.00000" pt_clust_5="171.35275" pt_clust_6="52.45345"></scales>
<clustering>
<clus scale="   52.453">  2  6  1 -1</clus>
<clus scale="   57.505">  2  3  1 -1</clus>
<clus scale="  171.353">  2  5  1 -1</clus>
<clus scale="  171.353">  1  3  2 -1</clus>
</clustering>
</event>
<event>
 6    0  0.1230761E+002  0.8953072E+02  0.7546771E-02  0.1303992E+00
          2   -1    0    0  505    0 -0.00000000000E+00  0.00000000000E+00  0.24863138070E+04  0.24863138070E+04  0.00000000000E+00 0.  1.
         21   -1    0    0  501  502  0.00000000000E+00 -0.00000000000E+00 -0.33496803434E+02  0.33496803434E+02  0.00000000000E+00 0.  1.
         21    1    1    2  503  504  0.45610808739E+01  0.95594431338E+02  0.73241469369E+02  0.12051311795E+03  0.00000000000E+00 0.  1.
         21    1    1    2  504  502  0.55801807240E+02 -0.31361495515E+02  0.12943534631E+03  0.14439838630E+03  0.00000000000E+00 0.  1.
         21    1    1    2  505  503 -0.11716624557E+02  0.33554421107E+02  0.71168725493E+03  0.71257415565E+03  0.00000000000E+00 0.  1.
          2    1    1    2  501    0 -0.48646263557E+02 -0.97787356930E+02  0.15384529329E+04  0.15423249505E+04  0.00000000000E+00 0.  1.
<scales pt_clust_3="89.53072" pt_clust_4="61.98047" pt_clust_5="35.54122" pt_clust_6="14000.00000"></scales>
<clustering>
<clus scale="   35.541">  1  5  2 -1</clus>
<clus scale="   61.980">  2  4  1 -1</clus>
<clus scale="   89.531">  2  3  1 -1</clus>
<clus scale="   61.980">  2  3  1 -1</clus>
</clustering>
</event>
<event>
 6    0  0.1230761E+002  0.7171165E+02  0.7546771E-02  0.1354367E+00
          2   -1    0    0  504    0 -0.00000000000E+00  0.00000000000E+00  0.33607706468E+04  0.33607706468E+04  0.00000000000E+00 0. -1.
         21   -1    0    0  505  502  0.00000000000E+00 -0.00000000000E+00 -0.39445548963E+02  0.39445548963E+02  0.00000000000E+00 0. -1.
         21    1    1    2  503  502 -0.73821942661E+02  0.77116571604E+02  0.46329888630E+02  0.11637484013E+03  0.00000000000E+00 0. -1.
         21    1    1    2  504  503 -0.29357289983E+01  0.31091198954E+02  0.29563440883E+03  0.29727930443E+03  0.00000000000E+00 0.  1.
         21    1    1    2  505  501  0.23599342936E+02 -0.30101009141E+02  0.12695013738E+03  0.13258709258E+03  0.00000000000E+00 0. -1.
          2    1    1    2  501    0  0.53158328723E+02 -0.78106761417E+02  0.28524106630E+04  0.28539749586E+04  0.00000000000E+00 0. -1.
<scales pt_clust_3="71.71165" pt_clust_4="31.22949" pt_clust_5="37.14317" pt_clust_6="14000.00000"></scales>
<clustering>
<clus scale="   31.229">  1  4  2 -1</clus>
<clus scale="   37.143">  2  5  1 -1</clus>
<clus scale="   71.712">  2  3  1 -1</clus>
<clus scale="   37.143">  2  3  1 -1</clus>
</clustering>
</event>
<event>
 6    0  0.1230761E+002  0.1480226E+03  0.7546771E-02  0.1202924E+00
         -1   -1    0    0    0  501 -0.00000000000E+00  0.00000000000E+00  0.25676723271E+04  0.25676723271E+04  0.00000000000E+00 0.  1.
         21   -1    0    0  504  502  0.00000000000E+00 -0.00000000000E+00 -0.89515839370E+02  0.89515839370E+02  0.00000000000E+00 0. -1.
         21    1    1    2  503  505  0.36816939020E+02  0.65759187050E+02  0.12412086265E+02  0.76379431562E+02  0.00000000000E+00 0. -1.
         21    1    1    2  504  501 -0.21608124314E+02  0.52490702205E+02  0.34330822217E+03  0.34796942433E+03  0.00000000000E+00 0. -1.
         21    1    1    2  505  502  0.59249399722E+02  0.26645164395E+02 -0.31884754811E+02  0.72367767289E+02  0.00000000000E+00 0. -1.
         -1    1    1    2    0  503 -0.74458214428E+02 -0.14489505365E+03  0.21543209341E+04  0.21604715433E+04  0.00000000000E+00 0.  1.
<scales pt_clust_3="58.30225" pt_clust_4="56.76429" pt_clust_5="58.30225" pt_clust_6="133.90837"></scales>
<clustering>
<clus scale="   56.764">  1  4  2 -1</clus>
<clus scale="   58.302">  3  5 -1 -1</clus>
<clus scale="  133.908">  1  6  2 -1</clus>
<clus scale="  148.023">  2  3  1 -1</clus>
</clustering>
</event>
<event>
 6    0  0.1230761E+002  0.1764009E+03  0.7546771E-02  0.1171332E+00
          2   -1    0    0  503    0 -0.00000000000E+00  0.00000000000E+00  0.55822831332E+03  0.55822831332E+03  0.00000000000E+00 0. -1.
         21   -1    0    0  505  502  0.00000000000E+00 -0.00000000000E+00 -0.20450422752E+03  0.20450422752E+03  0.00000000000E+00 0.  1.
         21    1    1    2  503  502 -0.50952609520E+02  0.76587651249E+01  0.18945507972E+03  0.19633657920E+03  0.00000000000E+00 0. -1.
         21    1    1    2  504  501 -0.18384668872E+02 -0.12403722329E+03 -0.11062361229E+03  0.16721486898E+03  0.00000000000E+00 0.  1.
         21    1    1    2  505  504  0.44996259766E+02 -0.67106328309E+02  0.18376559439E+02  0.82859040719E+02  0.00000000000E+00 0.  1.
          2    1    1    2  501    0  0.24341018626E+02  0.18348478647E+03  0.25651605893E+03  0.31632205194E+03  0.00000000000E+00 0. -1.
<scales pt_clust_3="51.52499" pt_clust_4="176.40091" pt_clust_5="76.16531" pt_clust_6="14000.00000"></scales>
<clustering>
<clus scale="   51.525">  1  3  2 -1</clus>
<clus scale="   76.165">  2  5  1 -1</clus>
<clus scale="  176.401">  2  4  1 -1</clus>
<clus scale="   76.165">  2  3  1 -1</clus>
</clustering>
</event>
<event>
 6    0  0.1230761E+002  0.1357246E+03  0.7546771E-02  0.1219200E+00
         21   -1    0    0  503  502  0.00000000000E+00  0.00000000000E+00  0.44660581905E+03  0.44660581905E+03  0.00000000000E+00 0.  1.
          1   -1    0    0  505    0 -0.00000000000E+00 -0.00000000000E+00 -0.85784662018E+03  0.85784662018E+03  0.00000000000E+00 0. -1.
         21    1    1    2  503  501 -0.67496308226E+02  0.15303091400E+03  0.26483067254E+02  0.16933861083E+03  0.00000000000E+00 0.  1.
         21    1    1    2  504  502  0.11108563064E+03 -0.74633846516E+02  0.32574691368E+03  0.35216655172E+03  0.00000000000E+00 0.  1.
         21    1    1    2  505  504 -0.24636990986E+02 -0.21113132957E+02 -0.22407014886E+02  0.39431206223E+02  0.00000000000E+00 0.  1.
          1    1    1    2  501    0 -0.18952331432E+02 -0.57283934531E+02 -0.74106376717E+03  0.74351607047E+03  0.00000000000E+00 0. -1.
<scales pt_clust_3="14000.00000" pt_clust_4="135.72459" pt_clust_5="32.44604" pt_clust_6="86.59386"></scales>
<clustering>
<clus scale="   32.446">  2  5  1 -1</clus>
<clus scale="   86.594">  2  6  1 -1</clus>
<clus scale="  135.725">  1  4  2 -1</clus>
<clus scale="  135.725">  1  3  2 -1</clus>
</clustering>
</event>
<event>
 6    0  0.1230761E+002  0.2847314E+03  0.7546771E-02  0.1093132E+00
         21   -1    0    0  504  502  0.00000000000E+00  0.00000000000E+00  0.48703244730E+03  0.48703244730E+03  0.00000000000E+00 0.  1.
          1   -1    0    0  503    0 -0.00000000000E+00 -0.00000000000E+00 -0.99929916452E+03  0.99929916452E+03  0.00000000000E+00 0.  1.
         21    1    1    2  503  502  0.30216284443E+02  0.46822827454E+02 -0.26392106063E+02  0.61659908197E+02  0.00000000000E+00 0. -1.
         21    1    1    2  504  505 -0.22594344130E+03 -0.65056421755E+01  0.33791583825E+03  0.40654627755E+03  0.00000000000E+00 0.  1.
         21    1    1    2  505  501 -0.41009213503E+02 -0.43268364779E+02  0.70904356527E+02  0.92635494047E+02  0.00000000000E+00 0.  1.
          1    1    1    2  501    0  0.23673637035E+03  0.29511795003E+01 -0.89469480594E+03  0.92548993202E+03  0.00000000000E+00 0.  1.
<scales pt_clust_3="55.72613" pt_clust_4="46.80768" pt_clust_5="46.80768" pt_clust_6="269.74924"></scales>
<clustering>
<clus scale="   46.808">  4  5 -1 -1</clus>
<clus scale="   55.726">  2  3  1 -1</clus>
<clus scale="  269.749">  2  6  1 -1</clus>
<clus scale="  284.731">  1  3  2 -1</clus>
</clustering>
</event>
<event>
 6    0  0.1230761E+002  0.7588616E+02  0.7546771E-02  0.1341149E+00
         -4   -1    0    0    0  501 -0.00000000000E+00  0.00000000000E+00  0.25824106277E+03  0.25824106277E+03  0.00000000000E+00 0.  1.
         21   -1    0    0  503  502  0.00000000000E+00 -0.00000000000E+00 -0.27531261747E+03  0.27531261747E+03  0.00000000000E+00 0.  1.
         21    1    1    2  503  501  0.23980753102E+02 -0.65415530383E+02  0.44264303465E+02  0.82544513421E+02  0.00000000000E+00 0.  1.
         21    1    1    2  504  505 -0.45666457872E+02  0.24489033503E+02 -0.44565140589E+02  0.68346103709E+02  0.00000000000E+00 0.  1.
         21    1    1    2  505  502 -0.48320284699E+02 -0.49152831635E+01 -0.18687867603E+03  0.19308715513E+03  0.00000000000E+00 0.  1.
         -4    1    1    2    0  504  0.70005989468E+02  0.45841780044E+02  0.17010795845E+03  0.18957590798E+03  0.00000000000E+00 0.  1.
<scales pt_clust_3="67.80390" pt_clust_4="75.88616" pt_clust_5="48.56964" pt_clust_6="14000.00000"></scales>
<clustering>
<clus scale="   48.570">  2  5  1 -1</clus>
<clus scale="   67.804">  1  3  2 -1</clus>
<clus scale="   75.886">  2  4  1 -1</clus>
<clus scale="   48.570">  2  3  1 -1</clus>
</clustering>
</event>
<event>
 6    0  0.1230761E+002  0.8018903E+02  0.7546771E-02  0.1328516E+00
          2   -1    0    0  505    0 -0.00000000000E+00  0.00000000000E+00  0.63171822778E+03  0.63171822778E+03  0.00000000000E+00 0. -1.
         21   -1    0    0  501  502  0.00000000000E+00 -0.00000000000E+00 -0.31413062607E+03  0.31413062607E+03  0.00000000000E+00 0. -1.
         21    1    1    2  503  502 -0.13439701885E+02 -0.62094783485E+02 -0.12304684748E+03  0.13848073656E+03  0.00000000000E+00 0. -1.
         21    1    1    2  504  503  0.76070478003E+02  0.10300013171E+03 -0.14177600854E+03  0.19103973763E+03  0.00000000000E+00 0. -1.
         21    1    1    2  505  504  0.45009309417E+02 -0.67999246128E+01  0.35071188809E+02  0.57463598856E+02  0.00000000000E+00 0.  1.
          2    1    1    2  501    0 -0.10764008553E+03 -0.34105423611E+02  0.54733926892E+03  0.55886478081E+03  0.00000000000E+00 0. -1.
<scales pt_clust_3="63.49750" pt_clust_4="80.18903" pt_clust_5="45.52007" pt_clust_6="14000.00000"></scales>
<clustering>
<clus scale="   45.520">  1  5  2 -1</clus>
<clus scale="   63.497">  2  3  1 -1</clus>
<clus scale="   80.189">  2  4  1 -1</clus>
<clus scale="   63.497">  2  3  1 -1</clus>
</clustering>
</event>
<event>
 6    0  0.1230761E+002  0.9014739E+02  0.7546771E-02  0.1302495E+00
          1   -1    0    0  504    0 -0.00000000000E+00  0.00000000000E+00  0.10528107732E+04  0.10528107732E+04  0.00000000000E+00 0. -1.
         21   -1    0    0  503  502  0.00000000000E+00 -0.00000000000E+00 -0.13406520792E+03  0.13406520792E+03  0.00000000000E+00 0.  1.
         21    1    1    2  503  505  0.20758070648E+02 -0.24752642156E+02 -0.66019977627E+02  0.73499851950E+02  0.00000000000E+00 0.  1.
         21    1    1    2  504  502  0.34478422629E+02  0.63338772620E+02  0.40895699287E+03  0.41526664177E+03  0.00000000000E+00 0.  1.
         21    1    1    2  505  501 -0.74933758770E+01  0.10507975083E+03  0.27411121246E+01  0.10538224904E+03  0.00000000000E+00 0.  1.
          1    1    1    2  501    0 -0.47743117400E+02 -0.14366588129E+03  0.57306743794E+03  0.59272723839E+03  0.00000000000E+00 0. -1.
<scales pt_clust_3="32.30466" pt_clust_4="71.55044" pt_clust_5="90.14739" pt_clust_6="14000.00000"></scales>
<clustering>
<clus scale="   32.305">  2  3  1 -1</clus>
<clus scale="   71.550">  1  4  2 -1</clus>
<clus scale="   90.147">  2  5  1 -1</clus>
<clus scale="   32.305">  2  3  1 -1</clus>
</clustering>
</event>
<event>
 6    0  0.1230761E+002  0.1177593E+03  0.7546771E-02  0.1246840E+00
         21   -1    0    0  503  502  0.00000000000E+00  0.00000000000E+00  0.33528700557E+03  0.33528700557E+03  0.00000000000E+00 0. -1.
          2   -1    0    0  504    0 -0.00000000000E+00 -0.00000000000E+00 -0.13223320211E+04  0.13223320211E+04  0.00000000000E+00 0. -1.
         21    1    1    2  503  501 -0.75339139394E+02  0.67777930515E+02  0.29563708761E+03  0.31252379327E+03  0.00000000000E+00 0. -1.
         21    1    1    2  504  505  0.58271374013E+02 -0.36481412689E+02 -0.29749783603E+03  0.30533818782E+03  0.00000000000E+00 0. -1.
         21    1    1    2  505  502 -0.48091784571E+02 -0.70731223848E+02 -0.45291668209E+02  0.96783578046E+02  0.00000000000E+00 0. -1.
          2    1    1    2  501    0  0.65159549952E+02  0.39434706023E+02 -0.93989259893E+03  0.94297346756E+03  0.00000000000E+00 0. -1.
<scales pt_clust_3="14000.00000" pt_clust_4="68.74916" pt_clust_5="85.48518" pt_clust_6="117.75931"></scales>
<clustering>
<clus scale="   68.749">  2  4  1 -1</clus>
<clus scale="   85.485">  1  5  2 -1</clus>
<clus scale="  117.759">  2  6  1 -1</clus>
<clus scale="   85.485">  1  3  2 -1</clus>
</clustering>
</event>
<event>
 6    0  0.1230761E+002  0.6279457E+02  0.7546771E-02  0.1386465E+00
         21   -1    0    0  503  502  0.00000000000E+00  0.00000000000E+00  0.29261202941E+03  0.29261202941E+03  0.00000000000E+00 0. -1.
         -2   -1    0    0    0  501 -0.00000000000E+00 -0.00000000000E+00 -0.54822955479E+03  0.54822955479E+03  0.00000000000E+00 0.  1.
         21    1    1    2  503  505 -0.30929581673E+02 -0.46814939088E+02  0.83342082251E+02  0.10046979754E+03  0.00000000000E+00 0. -1.
         21    1    1    2  504  502 -0.20156201279E+01  0.81802803347E+02  0.17550382049E+03  0.19364233103E+03  0.00000000000E+00 0. -1.
         21    1    1    2  505  501  0.53420127187E+02  0.27564812675E+02 -0.51635306340E+02  0.79244771104E+02  0.00000000000E+00 0.  1.
         -2    1    1    2    0  504 -0.20474925386E+02 -0.62552676933E+02 -0.46282812177E+03  0.46748468453E+03  0.00000000000E+00 0.  1.
<scales pt_clust_3="56.10951" pt_clust_4="49.28880" pt_clust_5="14000.00000" pt_clust_6="62.79457"></scales>
<clustering>
<clus scale="   56.110">  1  3  2 -1</clus>
<clus scale="   49.289">  1  4  2 -1</clus>
<clus scale="   62.795">  2  6  1 -1</clus>
<clus scale="   56.110">  1  3  2 -1</clus>
</clustering>
</event>
<event>
 6    0  0.1230761E+002  0.1463531E+03  0.7546771E-02  0.1205027E+00
         21   -1    0    0  501  502  0.00000000000E+00  0.00000000000E+00  0.72783435791E+02  0.72783435791E+02  0.00000000000E+00 0.  1.
          2   -1    0    0  503    0 -0.00000000000E+00 -0.00000000000E+00 -0.23214991327E+04  0.23214991327E+04  0.00000000000E+00 0. -1.
         21    1    1    2  503  505 -0.28308436105E+02  0.13522878880E+02 -0.50097652638E+03  0.50195788248E+03  0.00000000000E+00 0.  1.
         21    1    1    2  504  502 -0.58542826787E+02  0.18473307352E+02  0.18680488768E+02  0.64167642261E+02  0.00000000000E+00 0.  1.
         21    1    1    2  505  504 -0.57920297662E+02  0.49896545162E+02 -0.27414463396E+02  0.81215632138E+02  0.00000000000E+00 0.  1.
          2    1    1    2  501    0  0.14477156055E+03 -0.81892731394E+02 -0.17390051959E+04  0.17469414116E+04  0.00000000000E+00 0. -1.
<scales pt_clust_3="31.37253" pt_clust_4="47.47296" pt_clust_5="47.47296" pt_clust_6="136.37201"></scales>
<clustering>
<clus scale="   31.373">  2  3  1 -1</clus>
<clus scale="   47.473">  4  5 -1 -1</clus>
<clus scale="  136.372">  2  6  1 -1</clus>
<clus scale="  146.353">  1  3  2 -1</clus>
</clustering>
</event>
<event>
 6    0  0.1230761E+002  0.2559222E+03  0.7546771E-02  0.1109618E+00
         21   -1    0    0  501  502  0.00000000000E+00  0.00000000000E+00  0.59730450318E+02  0.59730450318E+02  0.00000000000E+00 0.  1.
          2   -1    0    0  503    0 -0.00000000000E+00 -0.00000000000E+00 -0.19601959943E+04  0.19601959943E+04  0.00000000000E+00 0. -1.
         21    1    1    2  503  505 -0.79114754691E+01  0.60571721337E+02 -0.72542182754E+03  0.72798925318E+03  0.00000000000E+00 0. -1.
         21    1    1    2  504  502  0.79405905527E+02  0.12939082452E+03 -0.22327164360E+03  0.26999538911E+03  0.00000000000E+00 0.  1.
         21    1    1    2  505  504  0.79073212100E+02  0.42362469764E+02 -0.16388343882E+03  0.18682861996E+03  0.00000000000E+00 0.  1.
          2    1    1    2  501    0 -0.15056764216E+03 -0.23232501563E+03 -0.78788863399E+03  0.83511318234E+03  0.00000000000E+00 0. -1.
<scales pt_clust_3="61.08621" pt_clust_4="49.72407" pt_clust_5="49.72407" pt_clust_6="247.61239"></scales>
<clustering>
<clus scale="   49.724">  4  5 -1 -1</clus>
<clus scale="   61.086">  2  3  1 -1</clus>
<clus scale="  247.612">  2  6  1 -1</clus>
<clus scale="  255.922">  1  3  2 -1</clus>
</clustering>
</event>
<event>
 6    0  0.2204610E+002  0.1025781E+03  0.7546771E-02  0.1274966E+00
          1   -1    0    0  504    0 -0.00000000000E+00  0.00000000000E+00  0.87272460170E+03  0.87272460170E+03  0.00000000000E+00 0.  1.
         21   -1    0    0  505  502  0.00000000000E+00 -0.00000000000E+00 -0.11879208611E+04  0.11879208611E+04  0.00000000000E+00 0.  1.
         21    1    1    2  503  502 -0.74276231732E+02  0.44088177328E+02 -0.11339161510E+04  0.11372011974E+04  0.00000000000E+00 0.  1.
         21    1    1    2  504  503 -0.30711479043E+02 -0.11643466440E+02  0.41111597485E+02  0.52620611014E+02  0.00000000000E+00 0. -1.
         21    1    1    2  505  501 -0.25936836573E+02 -0.22794813685E+02 -0.34122529455E+02  0.48545546024E+02  0.00000000000E+00 0.  1.
          1    1    1    2  501    0  0.13092454735E+03 -0.96498972030E+01  0.81173082353E+03  0.82227810835E+03  0.00000000000E+00 0.  1.
<scales pt_clust_3="14000.00000" pt_clust_4="32.84456" pt_clust_5="34.79873" pt_clust_6="102.57813"></scales>
<clustering>
<clus scale="   32.845">  1  4  2 -1</clus>
<clus scale="   34.799">  2  5  1 -1</clus>
<clus scale="  102.578">  1  6  2 -1</clus>
<clus scale="   34.799">  2  3  1 -1</clus>
</clustering>
</event>
<event>
 6    0  0.1230761E+002  0.9020681E+02  0.7546771E-02  0.1302352E+00
         -3   -1    0    0    0  501 -0.00000000000E+00  0.00000000000E+00  0.54791466185E+03  0.54791466185E+03  0.00000000000E+00 0.  1.
         21   -1    0    0  505  502  0.00000000000E+00 -0.00000000000E+00 -0.22779850812E+03  0.22779850812E+03  0.00000000000E+00 0.  1.
         21    1    1    2  503  501  0.12193698999E+02  0.37157327578E+02  0.48023032678E+03  0.48182000793E+03  0.00000000000E+00 0.  1.
         21    1    1    2  504  503 -0.41603752086E+02  0.71326506039E+02 -0.68016201024E+02  0.10697918607E+03  0.00000000000E+00 0.  1.
         21    1    1    2  505  504 -0.42641246342E+02 -0.35053046864E+02 -0.53970879930E+02  0.77200050935E+02  0.00000000000E+00 0.  1.
         -3    1    1    2    0  502  0.72051299430E+02 -0.73430786753E+02 -0.38127092096E+02  0.10971392502E+03  0.00000000000E+00 0.  1.
<scales pt_clust_3="39.10695" pt_clust_4="14000.00000" pt_clust_5="49.60054" pt_clust_6="90.20681"></scales>
<clustering>
<clus scale="   39.107">  1  3  2 -1</clus>
<clus scale="   49.601">  2  5  1 -1</clus>
<clus scale="   90.207">  1  6  2 -1</clus>
<clus scale="   49.601">  2  3  1 -1</clus>
</clustering>
</event>
<event>
 6    0  0.1230761E+002  0.8074450E+02  0.7546771E-02  0.1326952E+00
         21   -1    0    0  503  502  0.00000000000E+00  0.00000000000E+00  0.24739329402E+02  0.24739329402E+02  0.00000000000E+00 0.  1.
          2   -1    0    0  505    0 -0.00000000000E+00 -0.00000000000E+00 -0.12110462654E+04  0.12110462654E+04  0.00000000000E+00 0. -1.
         21    1    1    2  503  501 -0.35394066949E+02  0.77764952197E+01 -0.16207581345E+02  0.39697601265E+02  0.00000000000E+00 0.  1.
         21    1    1    2  504  502  0.70201661056E+01  0.34285272292E+02 -0.52829663793E+02  0.63369835133E+02  0.00000000000E+00 0.  1.
         21    1    1    2  505  504  0.27892573536E+02  0.66387063099E+02 -0.59247844709E+03  0.59683829307E+03  0.00000000000E+00 0.  1.
          2    1    1    2  501    0  0.48132730736E+00 -0.10844883061E+03 -0.52479124376E+03  0.53587986533E+03  0.00000000000E+00 0. -1.
<scales pt_clust_3="42.19985" pt_clust_4="34.99661" pt_clust_5="80.74450" pt_clust_6="14000.00000"></scales>
<clustering>
<clus scale="   34.997">  1  4  2 -1</clus>
<clus scale="   42.200">  1  3  2 -1</clus>
<clus scale="   80.745">  2  5  1 -1</clus>
<clus scale="   34.997">  1  3  2 -1</clus>
</clustering>
</event>
<event>
 6    0  0.1230761E+002  0.1224150E+03  0.7546771E-02  0.1239165E+00
         21   -1    0    0  505  502  0.00000000000E+00  0.00000000000E+00  0.24032903469E+03  0.24032903469E+03  0.00000000000E+00 0.  1.
          2   -1    0    0  503    0 -0.00000000000E+00 -0.00000000000E+00 -0.12044157540E+04  0.12044157540E+04  0.00000000000E+00 0. -1.
         21    1    1    2  503  504 -0.26417525272E+02  0.15931065582E+02 -0.93162498413E+03  0.93213561006E+03  0.00000000000E+00 0. -1.
         21    1    1    2  504  502 -0.39974887088E+02 -0.36982463835E+02  0.13227101545E+03  0.14304305560E+03  0.00000000000E+00 0.  1.
         21    1    1    2  505  501 -0.74838750941E+01 -0.85968531250E+02  0.63326156178E+02  0.10703643682E+03  0.00000000000E+00 0.  1.
          2    1    1    2  501    0  0.73876287454E+02  0.10701992950E+03 -0.22805890676E+03  0.26252968616E+03  0.00000000000E+00 0. -1.
<scales pt_clust_3="30.84938" pt_clust_4="54.63075" pt_clust_5="122.41496" pt_clust_6="14000.00000"></scales>
<clustering>
<clus scale="   30.849">  2  3  1 -1</clus>
<clus scale="   54.631">  1  4  2 -1</clus>
<clus scale="  122.415">  1  5  2 -1</clus>
<clus scale="   54.631">  1  3  2 -1</clus>
</clustering>
</event>
<event>
 6    0  0.1230761E+002  0.1113415E+03  0.7546771E-02  0.1258106E+00
          1   -1    0    0  503    0 -0.00000000000E+00  0.00000000000E+00  0.53410548197E+03  0.53410548197E+03  0.00000000000E+00 0. -1.
         21   -1    0    0  504  502  0.00000000000E+00 -0.00000000000E+00 -0.77527804925E+03  0.77527804925E+03  0.00000000000E+00 0. -1.
         21    1    1    2  503  505  0.33246627608E+02 -0.45675200550E+02  0.15196761138E+03  0.16212870536E+03  0.00000000000E+00 0. -1.
         21    1    1    2  504  501  0.29762300691E+02 -0.97761900644E+01 -0.22794176896E+03  0.23008437250E+03  0.00000000000E+00 0.  1.
         21    1    1    2  505  502 -0.33421874436E+02  0.12180207725E+03 -0.53018603610E+03  0.54502293583E+03  0.00000000000E+00 0. -1.
          1    1    1    2  501    0 -0.29587053864E+02 -0.66350686638E+02  0.36498762640E+03  0.37214751752E+03  0.00000000000E+00 0. -1.
<scales pt_clust_3="56.73058" pt_clust_4="31.32680" pt_clust_5="14000.00000" pt_clust_6="111.34146"></scales>
<clustering>
<clus scale="   31.327">  2  4  1 -1</clus>
<clus scale="   56.731">  1  3  2 -1</clus>
<clus scale="  111.341">  1  6  2 -1</clus>
<clus scale="   31.327">  2  3  1 -1</clus>
</clustering>
</event>
<event>
 6    0  0.1230761E+002  0.1337411E+03  0.7546771E-02  0.1222008E+00
          1   -1    0    0  503    0 -0.00000000000E+00  0.00000000000E+00  0.14675922112E+03  0.14675922112E+03  0.00000000000E+00 0.  1.
         21   -1    0    0  501  502  0.00000000000E+00 -0.00000000000E+00 -0.10321683823E+04  0.10321683823E+04  0.00000000000E+00 0.  1.
         21    1    1    2  503  504 -0.54460833899E+01 -0.29696425085E+02  0.26202232289E+02  0.39976173705E+02  0.00000000000E+00 0.  1.
         21    1    1    2  504  505 -0.38018220546E+02  0.35459892197E+02 -0.54231168777E+03  0.54479790357E+03  0.00000000000E+00 0.  1.
         21    1    1    2  505  502 -0.64746091118E+02  0.41620194926E+02 -0.44646664854E+03  0.45305271791E+03  0.00000000000E+00 0.  1.
          1    1    1    2  501    0  0.10821039505E+03 -0.47383662038E+02  0.77166942825E+02  0.14110080826E+03  0.00000000000E+00 0.  1.
<scales pt_clust_3="30.19168" pt_clust_4="32.07045" pt_clust_5="32.07045" pt_clust_6="127.92682"></scales>
<clustering>
<clus scale="   30.192">  1  3  2 -1</clus>
<clus scale="   32.070">  4  5 -1 -1</clus>
<clus scale="  127.927">  1  6  2 -1</clus>
<clus scale="  133.741">  2  3  1 -1</clus>
</clustering>
</event>
<event>
 6    0  0.1230761E+002  0.8498641E+02  0.7546771E-02  0.1315468E+00
         21   -1    0    0  504  502  0.00000000000E+00  0.00000000000E+00  0.40384424183E+03  0.40384424183E+03  0.00000000000E+00 0. -1.
          2   -1    0    0  505    0 -0.00000000000E+00 -0.00000000000E+00 -0.93540757145E+03  0.93540757145E+03  0.00000000000E+00 0. -1.
         21    1    1    2  503  502 -0.74063323572E+02 -0.10420227186E+02  0.13714267518E+03  0.15621162053E+03  0.00000000000E+00 0. -1.
         21    1    1    2  504  501  0.10808391917E+03 -0.70498076554E+02  0.23731425083E+03  0.27012990584E+03  0.00000000000E+00 0. -1.
         21    1    1    2  505  503 -0.90591736699E+01  0.34801484886E+02 -0.67736951585E+03  0.67832342800E+03  0.00000000000E+00 0. -1.
          2    1    1    2  501    0 -0.24961421928E+02  0.46116818855E+02 -0.22865073979E+03  0.23458685891E+03  0.00000000000E+00 0. -1.
<scales pt_clust_3="74.95703" pt_clust_4="14000.00000" pt_clust_5="35.96126" pt_clust_6="84.98641"></scales>
<clustering>
<clus scale="   35.961">  2  5  1 -1</clus>
<clus scale="   74.957">  1  3  2 -1</clus>
<clus scale="   84.986">  2  6  1 -1</clus>
<clus scale="   74.957">  1  3  2 -1</clus>
</clustering>
</event>
<event>
 6    0  0.1230761E+002  0.1144396E+03  0.7546771E-02  0.1252562E+00
          1   -1    0    0  505    0 -0.00000000000E+00  0.00000000000E+00  0.10666331939E+04  0.10666331939E+04  0.00000000000E+00 0.  1.
         21   -1    0    0  504  502  0.00000000000E+00 -0.00000000000E+00 -0.73815871818E+02  0.73815871818E+02  0.00000000000E+00 0.  1.
         21    1    1    2  503  501  0.16548804503E+02 -0.31326340650E+02  0.64067781423E+03  0.64165665600E+03  0.00000000000E+00 0.  1.
         21    1    1    2  504  503 -0.15876712490E+02  0.12371527450E+03  0.10558192141E+03  0.16341689409E+03  0.00000000000E+00 0.  1.
         21    1    1    2  505  502 -0.27173791047E+02 -0.10846986871E+03  0.28865521185E+02  0.11548742637E+03  0.00000000000E+00 0.  1.
          1    1    1    2  501    0  0.26501699035E+02  0.16080934854E+02  0.21769206527E+03  0.21988808926E+03  0.00000000000E+00 0.  1.
<scales pt_clust_3="41.30570" pt_clust_4="114.43963" pt_clust_5="14000.00000" pt_clust_6="30.99898"></scales>
<clustering>
<clus scale="   30.999">  1  6  2 -1</clus>
<clus scale="   41.306">  1  3  2 -1</clus>
<clus scale="  114.440">  1  4  2 -1</clus>
<clus scale="  114.440">  2  3  1 -1</clus>
</clustering>
</event>
<event>
 6    0  0.1230761E+002  0.1401593E+03  0.7546771E-02  0.1213115E+00
         21   -1    0    0  505  502  0.00000000000E+00  0.00000000000E+00  0.13263148991E+03  0.13263148991E+03  0.00000000000E+00 0. -1.
          2   -1    0    0  503    0 -0.00000000000E+00 -0.00000000000E+00 -0.28448647793E+04  0.28448647793E+04  0.00000000000E+00 0.  1.
         21    1    1    2  503  504  0.10513240007E+02 -0.40294016182E+02 -0.58899288770E+03  0.59046317220E+03  0.00000000000E+00 0. -1.
         21    1    1    2  504  502  0.33875490676E+02 -0.47102740274E+01 -0.17280770581E+02  0.38319193387E+02  0.00000000000E+00 0. -1.
         21    1    1    2  505  501  0.10651052406E+03 -0.52305437303E+01  0.94517376434E+02  0.14249696408E+03  0.00000000000E+00 0. -1.
          2    1    1    2  501    0 -0.15089925474E+03  0.50234833939E+02 -0.22004770076E+04  0.22062169396E+04  0.00000000000E+00 0.  1.
<scales pt_clust_3="41.72232" pt_clust_4="34.20140" pt_clust_5="140.15927" pt_clust_6="14000.00000"></scales>
<clustering>
<clus scale="   34.201">  1  4  2 -1</clus>
<clus scale="   41.722">  2  3  1 -1</clus>
<clus scale="  140.159">  1  5  2 -1</clus>
<clus scale="   34.201">  1  3  2 -1</clus>
</clustering>
</event>
<event>
 6    0  0.1230761E+002  0.1419324E+03  0.7546771E-02  0.1210752E+00
         21   -1    0    0  505  502  0.00000000000E+00  0.00000000000E+00  0.17194646623E+03  0.17194646623E+03  0.00000000000E+00 0. -1.
          1   -1    0    0  504    0 -0.00000000000E+00 -0.00000000000E+00 -0.15516229240E+04  0.15516229240E+04  0.00000000000E+00 0.  1.
         21    1    1    2  503  501 -0.26248997368E+02 -0.24514037697E+02 -0.43592932481E+02  0.56482666981E+02  0.00000000000E+00 0. -1.
         21    1    1    2  504  502 -0.31443408005E+02 -0.96077914730E+02  0.13118491484E+03  0.16561743715E+03  0.00000000000E+00 0. -1.
         21    1    1    2  505  503  0.25398103492E+02 -0.18610831513E+02 -0.45814938484E+01  0.31818497709E+02  0.00000000000E+00 0.  1.
          1    1    1    2  501    0  0.32294301881E+02  0.13920278394E+03 -0.14626869463E+04  0.14696507884E+04  0.00000000000E+00 0.  1.
<scales pt_clust_3="35.69955" pt_clust_4="141.93242" pt_clust_5="31.48693" pt_clust_6="14000.00000"></scales>
<clustering>
<clus scale="   31.487">  1  5  2 -1</clus>
<clus scale="   35.700">  1  3  2 -1</clus>
<clus scale="  141.932">  1  4  2 -1</clus>
<clus scale="   31.487">  1  3  2 -1</clus>
</clustering>
</event>
<event>
 6    0  0.1230761E+002  0.1360006E+03  0.7546771E-02  0.1218814E+00
         21   -1    0    0  501  502  0.00000000000E+00  0.00000000000E+00  0.57205260707E+02  0.57205260707E+02  0.00000000000E+00 0. -1.
          2   -1    0    0  505    0 -0.00000000000E+00 -0.00000000000E+00 -0.19503029274E+04  0.19503029274E+04  0.00000000000E+00 0. -1.
         21    1    1    2  503  502  0.40189403713E+01  0.45700238606E+02 -0.49620260882E+02  0.67578354377E+02  0.00000000000E+00 0. -1.
         21    1    1    2  504  503 -0.38106694208E+02  0.66287645455E+02 -0.22741825669E+02  0.79770688339E+02  0.00000000000E+00 0. -1.
         21    1    1    2  505  504  0.56277746075E+01  0.12466595478E+03 -0.38353048645E+03  0.40332233531E+03  0.00000000000E+00 0. -1.
          2    1    1    2  501    0  0.28459979229E+02 -0.23665383884E+03 -0.14372050937E+04  0.14568368101E+04  0.00000000000E+00 0. -1.
<scales pt_clust_3="40.78408" pt_clust_4="40.78408" pt_clust_5="124.79292" pt_clust_6="125.39520"></scales>
<clustering>
<clus scale="   40.784">  3  4 -1 -1</clus>
<clus scale="  124.793">  2  5  1 -1</clus>
<clus scale="  125.395">  2  6  1 -1</clus>
<clus scale="  136.001">  1  3  2 -1</clus>
</clustering>
</event>
<event>
 6    0  0.1230761E+002  0.8328791E+02  0.7546771E-02  0.1319972E+00
          2   -1    0    0  503    0 -0.00000000000E+00  0.00000000000E+00  0.63031640579E+03  0.63031640579E+03  0.00000000000E+00 0.  1.
         21   -1    0    0  504  502  0.00000000000E+00 -0.00000000000E+00 -0.11889259628E+04  0.11889259628E+04  0.00000000000E+00 0. -1.
         21    1    1    2  503  505 -0.30136293881E+02 -0.56353229215E+01  0.19513701114E+02  0.36341953779E+02  0.00000000000E+00 0.  1.
         21    1    1    2  504  501 -0.11804253798E+02 -0.45171615253E+02 -0.60973470781E+03  0.61151960651E+03  0.00000000000E+00 0. -1.
         21    1    1    2  505  502 -0.62305100900E+02  0.60652978645E+01 -0.56278505242E+03  0.56625588621E+03  0.00000000000E+00 0. -1.
          2    1    1    2  501    0  0.10424564858E+03  0.44741640310E+02  0.59439650210E+03  0.60512492209E+03  0.00000000000E+00 0.  1.
<scales pt_clust_3="30.65865" pt_clust_4="46.70788" pt_clust_5="14000.00000" pt_clust_6="83.28791"></scales>
<clustering>
<clus scale="   30.659">  1  3  2 -1</clus>
<clus scale="   46.708">  2  4  1 -1</clus>
<clus scale="   83.288">  1  6  2 -1</clus>
<clus scale="   46.708">  2  3  1 -1</clus>
</clustering>
</event>
<event>
 6    0  0.1230761E+002  0.1285471E+03  0.7546771E-02  0.1229628E+00
         -2   -1    0    0    0  501 -0.00000000000E+00  0.00000000000E+00  0.20504573702E+04  0.20504573702E+04  0.00000000000E+00 0.  1.
         21   -1    0    0  505  502  0.00000000000E+00 -0.00000000000E+00 -0.43099533288E+03  0.43099533288E+03  0.00000000000E+00 0.  1.
         21    1    1    2  503  501 -0.20410060314E+02  0.51208976923E+02  0.22467181288E+03  0.23133601834E+03  0.00000000000E+00 0.  1.
         21    1    1    2  504  502  0.44738598792E+02 -0.10743057772E+03 -0.37134849750E+03  0.38915623835E+03  0.00000000000E+00 0.  1.
         21    1    1    2  505  503 -0.25463516837E+02 -0.20353133197E+02 -0.40898933947E+02  0.52300702850E+02  0.00000000000E+00 0. -1.
         -2    1    1    2    0  504  0.11349783588E+01  0.76574733997E+02  0.18070376559E+04  0.18086597435E+04  0.00000000000E+00 0.  1.
<scales pt_clust_3="55.04498" pt_clust_4="128.54708" pt_clust_5="32.59817" pt_clust_6="14000.00000"></scales>
<clustering>
<clus scale="   32.598">  2  5  1 -1</clus>
<clus scale="   55.045">  1  3  2 -1</clus>
<clus scale="  128.547">  2  4  1 -1</clus>
<clus scale="   32.598">  2  3  1 -1</clus>
</clustering>
</event>
<event>
 6    0  0.1230761E+002  0.2702570E+03  0.7546771E-02  0.1101133E+00
          2   -1    0    0  504    0 -0.00000000000E+00  0.00000000000E+00  0.25335584974E+04  0.25335584974E+04  0.00000000000E+00 0.  1.
         21   -1    0    0  505  502  0.00000000000E+00 -0.00000000000E+00 -0.94460000294E+03  0.94460000294E+03  0.00000000000E+00 0.  1.
         21    1    1    2  503  502 -0.14720939630E+03  0.12846797240E+03 -0.46551356376E+02  0.20085232155E+03  0.00000000000E+00 0. -1.
         21    1    1    2  504  503  0.22833929921E+02  0.23992478646E+02  0.18769674664E+03  0.19059668435E+03  0.00000000000E+00 0.  1.
         21    1    1    2  505  501  0.16122897550E+03 -0.25183810177E+03 -0.79087284854E+03  0.84551586301E+03  0.00000000000E+00 0.  1.
          2    1    1    2  501    0 -0.36853509129E+02  0.99377650725E+02  0.22386859528E+04  0.22411936315E+04  0.00000000000E+00 0.  1.
<scales pt_clust_3="270.25703" pt_clust_4="33.12140" pt_clust_5="14000.00000" pt_clust_6="123.22192"></scales>
<clustering>
<clus scale="   33.121">  1  4  2 -1</clus>
<clus scale="  123.222">  1  6  2 -1</clus>
<clus scale="  270.257">  1  3  2 -1</clus>
<clus scale="  270.257">  2  3  1 -1</clus>
</clustering>
</event>
<event>
 6    0  0.1230761E+002  0.1411412E+03  0.7546771E-02  0.1211802E+00
          2   -1    0    0  504    0 -0.00000000000E+00  0.00000000000E+00  0.69055774833E+03  0.69055774833E+03  0.00000000000E+00 0. -1.
         21   -1    0    0  503  502  0.00000000000E+00 -0.00000000000E+00 -0.16386679933E+03  0.16386679933E+03  0.00000000000E+00 0. -1.
         21    1    1    2  503  501  0.46582548406E+02 -0.74375673347E+02 -0.82691060689E+02  0.12057979151E+03  0.00000000000E+00 0. -1.
         21    1    1    2  504  505 -0.42717856213E+02 -0.74108746113E+02  0.19174179260E+03  0.20995674916E+03  0.00000000000E+00 0. -1.
         21    1    1    2  505  502  0.59991333168E+02 -0.31707509991E+02  0.37247035284E+01  0.67957337069E+02  0.00000000000E+00 0.  1.
          2    1    1    2  501    0 -0.63856025361E+02  0.18019192945E+03  0.41391551356E+03  0.45593066993E+03  0.00000000000E+00 0. -1.
<scales pt_clust_3="141.14117" pt_clust_4="85.49555" pt_clust_5="67.85519" pt_clust_6="14000.00000"></scales>
<clustering>
<clus scale="   67.855">  2  5  1 -1</clus>
<clus scale="   85.496">  1  4  2 -1</clus>
<clus scale="  141.141">  2  3  1 -1</clus>
<clus scale="   67.855">  2  3  1 -1</clus>
</clustering>
</event>
<event>
 6    0  0.1230761E+002  0.1402382E+03  0.7546771E-02  0.1213009E+00
          2   -1    0    0  504    0 -0.00000000000E+00  0.00000000000E+00  0.32731663042E+04  0.32731663042E+04  0.00000000000E+00 0. -1.
         21   -1    0    0  505  502  0.00000000000E+00 -0.00000000000E+00 -0.36727890471E+02  0.36727890471E+02  0.00000000000E+00 0. -1.
         21    1    1    2  503  502  0.92969550898E+02 -0.48843984335E+02  0.24576071930E+03  0.26725905663E+03  0.00000000000E+00 0. -1.
         21    1    1    2  504  503  0.10538520588E+03 -0.39169811472E+02  0.10989507807E+04  0.11046868942E+04  0.00000000000E+00 0. -1.
         21    1    1    2  505  501 -0.23558299345E+02  0.32461862496E+02  0.28749366738E+01  0.40212327036E+02  0.00000000000E+00 0. -1.
          2    1    1    2  501    0 -0.17479645743E+03  0.55551933310E+02  0.18888519771E+04  0.18977359169E+04  0.00000000000E+00 0. -1.
<scales pt_clust_3="84.28651" pt_clust_4="14000.00000" pt_clust_5="40.10943" pt_clust_6="140.23820"></scales>
<clustering>
<clus scale="   40.109">  2  5  1 -1</clus>
<clus scale="   84.287">  2  3  1 -1</clus>
<clus scale="  140.238">  2  6  1 -1</clus>
<clus scale="   40.109">  2  3  1 -1</clus>
</clustering>
</event>
<event>
 6    0  0.1230761E+002  0.1067932E+03  0.7546771E-02  0.1266626E+00
         21   -1    0    0  505  502  0.00000000000E+00  0.00000000000E+00  0.24698903379E+04  0.24698903379E+04  0.00000000000E+00 0. -1.
         -1   -1    0    0    0  501 -0.00000000000E+00 -0.00000000000E+00 -0.13219373755E+04  0.13219373755E+04  0.00000000000E+00 0. -1.
         21    1    1    2  503  504  0.68663649623E+02  0.29683172205E+02  0.22751533900E+03  0.23949742582E+03  0.00000000000E+00 0. -1.
         21    1    1    2  504  502 -0.11566760779E+03 -0.63039511817E+01  0.22259238050E+04  0.22289359616E+04  0.00000000000E+00 0. -1.
         21    1    1    2  505  501 -0.24078042145E+02  0.36584413731E+02 -0.59181402391E+02  0.73624790869E+02  0.00000000000E+00 0. -1.
         -1    1    1    2    0  503  0.71082000314E+02 -0.59963634754E+02 -0.12463047792E+04  0.12497695351E+04  0.00000000000E+00 0. -1.
<scales pt_clust_3="14000.00000" pt_clust_4="106.79318" pt_clust_5="43.79693" pt_clust_6="52.72342"></scales>
<clustering>
<clus scale="   43.797">  2  5  1 -1</clus>
<clus scale="   52.723">  2  6  1 -1</clus>
<clus scale="  106.793">  1  4  2 -1</clus>
<clus scale="  106.793">  1  3  2 -1</clus>
</clustering>
</event>
<event>
 6    0  0.1230761E+002  0.2342275E+03  0.7546771E-02  0.1123699E+00
         -1   -1    0    0    0  501 -0.00000000000E+00  0.00000000000E+00  0.25627680634E+04  0.25627680634E+04  0.00000000000E+00 0.  1.
         21   -1    0    0  504  502  0.00000000000E+00 -0.00000000000E+00 -0.55395122483E+03  0.55395122483E+03  0.00000000000E+00 0.  1.
         21    1    1    2  503  502  0.77240256675E+02 -0.21844286684E+03 -0.20576832796E+03  0.30987731139E+03  0.00000000000E+00 0.  1.
         21    1    1    2  504  505 -0.73431274901E+02  0.64071544225E+02  0.58821250120E+02  0.11382993621E+03  0.00000000000E+00 0. -1.
         21    1    1    2  505  501 -0.23521360223E+03  0.11529465761E+03 -0.19750840354E+03  0.32806686241E+03  0.00000000000E+00 0.  1.
         -1    1    1    2    0  503  0.23140462045E+03  0.39076665000E+02  0.23532723200E+04  0.23649451782E+04  0.00000000000E+00 0.  1.
<scales pt_clust_3="191.56448" pt_clust_4="97.45417" pt_clust_5="14000.00000" pt_clust_6="234.22748"></scales>
<clustering>
<clus scale="   97.454">  2  4  1 -1</clus>
<clus scale="  191.564">  2  3  1 -1</clus>
<clus scale="  234.227">  1  6  2 -1</clus>
<clus scale="   97.454">  2  3  1 -1</clus>
</clustering>
</event>
<event>
 6    0  0.1230761E+002  0.1173883E+03  0.7546771E-02  0.1247469E+00
         21   -1    0    0  504  502  0.00000000000E+00  0.00000000000E+00  0.11916866257E+04  0.11916866257E+04  0.00000000000E+00 0.  1.
          4   -1    0    0  505    0 -0.00000000000E+00 -0.00000000000E+00 -0.41568743011E+03  0.41568743011E+03  0.00000000000E+00 0. -1.
         21    1    1    2  503  501  0.42584126799E+02 -0.53162032705E+02  0.95696827674E+03  0.95938933299E+03  0.00000000000E+00 0.  1.
         21    1    1    2  504  503  0.39752417539E+02 -0.30945722573E+02  0.18173524479E+03  0.18858841864E+03  0.00000000000E+00 0.  1.
         21    1    1    2  505  502  0.71440932790E+02 -0.22294600142E+01 -0.22370727813E+03  0.23484829925E+03  0.00000000000E+00 0.  1.
          4    1    1    2  501    0 -0.15377747713E+03  0.86337215292E+02 -0.13899704780E+03  0.22454800492E+03  0.00000000000E+00 0. -1.
<scales pt_clust_3="117.38833" pt_clust_4="50.37750" pt_clust_5="71.70114" pt_clust_6="14000.00000"></scales>
<clustering>
<clus scale="   50.377">  1  4  2 -1</clus>
<clus scale="   71.701">  2  5  1 -1</clus>
<clus scale="  117.388">  1  3  2 -1</clus>
<clus scale="   50.377">  1  3  2 -1</clus>
</clustering>
</event>
<event>
 6    0  0.1230761E+002  0.2218513E+03  0.7546771E-02  0.1132510E+00
          2   -1    0    0  503    0 -0.00000000000E+00  0.00000000000E+00  0.11112297254E+04  0.11112297254E+04  0.00000000000E+00 0. -1.
         21   -1    0    0  504  502  0.00000000000E+00 -0.00000000000E+00 -0.57876526509E+03  0.57876526509E+03  0.00000000000E+00 0.  1.
         21    1    1    2  503  505 -0.46970283853E+02 -0.65728630426E+01  0.59180255985E+02  0.75840047417E+02  0.00000000000E+00 0. -1.
         21    1    1    2  504  501 -0.18371586182E+03  0.70082864741E+02 -0.48615213491E+03  0.52441112125E+03  0.00000000000E+00 0.  1.
         21    1    1    2  505  502 -0.35395895619E+02 -0.36999846168E+02 -0.33660484692E+02  0.61277126832E+02  0.00000000000E+00 0. -1.
          2    1    1    2  501    0  0.26608204129E+03 -0.26510155531E+02  0.99309682393E+03  0.10284666950E+04  0.00000000000E+00 0. -1.
<scales pt_clust_3="47.42795" pt_clust_4="221.85134" pt_clust_5="51.69795" pt_clust_6="14000.00000"></scales>
<clustering>
<clus scale="   47.428">  1  3  2 -1</clus>
<clus scale="   51.698">  2  5  1 -1</clus>
<clus scale="  221.851">  2  4  1 -1</clus>
<clus scale="   51.698">  2  3  1 -1</clus>
</clustering>
</event>
<event>
 6    0  0.1230761E+002  0.1152865E+03  0.7546771E-02  0.1251082E+00
          2   -1    0    0  505    0 -0.00000000000E+00  0.00000000000E+00  0.36691868090E+04  0.36691868090E+04  0.00000000000E+00 0. -1.
         21   -1    0    0  504  502  0.00000000000E+00 -0.00000000000E+00 -0.76711053987E+02  0.76711053987E+02  0.00000000000E+00 0. -1.
         21    1    1    2  503  502  0.47529072860E+02  0.13744142131E+03  0.25402381323E+02  0.14762939421E+03  0.00000000000E+00 0. -1.
         21    1    1    2  504  501 -0.41458560811E+02 -0.25161265180E+02  0.36430245854E+02  0.60655291138E+02  0.00000000000E+00 0. -1.
         21    1    1    2  505  503 -0.57998659386E+01  0.43236579830E+02  0.29223905335E+03  0.29547707962E+03  0.00000000000E+00 0. -1.
          2    1    1    2  501    0 -0.27064611034E+00 -0.15551673596E+03  0.32384040745E+04  0.32421360980E+04  0.00000000000E+00 0. -1.
<scales pt_clust_3="14000.00000" pt_clust_4="48.24853" pt_clust_5="43.62385" pt_clust_6="115.28649"></scales>
<clustering>
<clus scale="   43.624">  1  5  2 -1</clus>
<clus scale="   48.249">  2  4  1 -1</clus>
<clus scale="  115.286">  1  6  2 -1</clus>
<clus scale="   48.249">  2  3  1 -1</clus>
</clustering>
</event>
<event>
 6    0  0.1230761E+002  0.2613074E+03  0.7546771E-02  0.1106360E+00
          1   -1    0    0  503    0 -0.00000000000E+00  0.00000000000E+00  0.48006085275E+02  0.48006085275E+02  0.00000000000E+00 0. -1.
         21   -1    0    0  501  502  0.00000000000E+00 -0.00000000000E+00 -0.22031571224E+04  0.22031571224E+04  0.00000000000E+00 0.  1.
         21    1    1    2  503  504  0.14341853564E+02 -0.30711529438E+02 -0.27549906316E+02  0.43679333124E+02  0.00000000000E+00 0. -1.
         21    1    1    2  504  505  0.81690449618E+02  0.80578410521E+01 -0.40255763106E+03  0.41084170271E+03  0.00000000000E+00 0.  1.
         21    1    1    2  505  502  0.14213439178E+03  0.10394609556E+03 -0.12171307430E+04  0.12298025132E+04  0.00000000000E+00 0.  1.
          1    1    1    2  501    0 -0.23816669497E+03 -0.81292407174E+02 -0.50791275679E+03  0.56683965860E+03  0.00000000000E+00 0. -1.
<scales pt_clust_3="33.89523" pt_clust_4="51.98689" pt_clust_5="51.98689" pt_clust_6="250.20185"></scales>
<clustering>
<clus scale="   33.895">  1  3  2 -1</clus>
<clus scale="   51.987">  4  5 -1 -1</clus>
<clus scale="  250.202">  1  6  2 -1</clus>
<clus scale="  261.307">  2  3  1 -1</clus>
</clustering>
</event>
<event>
 6    0  0.1230761E+002  0.7642651E+02  0.7546771E-02  0.1339510E+00
          1   -1    0    0  505    0 -0.00000000000E+00  0.00000000000E+00  0.19352944466E+04  0.19352944466E+04  0.00000000000E+00 0.  1.
         21   -1    0    0  504  502  0.00000000000E+00 -0.00000000000E+00 -0.90648040939E+03  0.90648040939E+03  0.00000000000E+00 0. -1.
         21    1    1    2  503  502 -0.52019099384E+02 -0.63412968086E+02 -0.69898079523E+03  0.70377648676E+03  0.00000000000E+00 0. -1.
         21    1    1    2  504  501 -0.27161678053E+02  0.83241337944E+02 -0.19373196079E+03  0.21260044621E+03  0.00000000000E+00 0.  1.
         21    1    1    2  505  503  0.25124628484E+02  0.33067289412E+02  0.44441826234E+03  0.44635443819E+03  0.00000000000E+00 0.  1.
          1    1    1    2  501    0  0.54056148952E+02 -0.52895659271E+02  0.14771085309E+04  0.14790434848E+04  0.00000000000E+00 0.  1.
<scales pt_clust_3="76.42651" pt_clust_4="14000.00000" pt_clust_5="41.52942" pt_clust_6="81.49653"></scales>
<clustering>
<clus scale="   41.529">  1  5  2 -1</clus>
<clus scale="   81.497">  1  6  2 -1</clus>
<clus scale="   76.427">  2  3  1 -1</clus>
<clus scale="   76.427">  2  3  1 -1</clus>
</clustering>
</event>
<event>
 6    0  0.1230761E+002  0.1013707E+03  0.7546771E-02  0.1277440E+00
         21   -1    0    0  503  502  0.00000000000E+00  0.00000000000E+00  0.56694886265E+02  0.56694886265E+02  0.00000000000E+00 0. -1.
          2   -1    0    0  504    0 -0.00000000000E+00 -0.00000000000E+00 -0.28810286055E+04  0.28810286055E+04  0.00000000000E+00 0. -1.
         21    1    1    2  503  505  0.39376119832E+02 -0.31135337218E+02 -0.49334149131E+00  0.50200910575E+02  0.00000000000E+00 0. -1.
         21    1    1    2  504  502 -0.19768313418E+01 -0.34947728718E+02 -0.22494221593E+03  0.22764940614E+03  0.00000000000E+00 0.  1.
         21    1    1    2  505  501  0.10480079683E+02 -0.49309113745E+02  0.70772256489E+01  0.50904890642E+02  0.00000000000E+00 0. -1.
          2    1    1    2  501    0 -0.47879368173E+02  0.11539217968E+03 -0.26059753875E+04  0.26089682844E+04  0.00000000000E+00 0. -1.
<scales pt_clust_3="34.88474" pt_clust_4="35.00359" pt_clust_5="34.88474" pt_clust_6="95.15213"></scales>
<clustering>
<clus scale="   34.885">  3  5 -1 -1</clus>
<clus scale="   35.004">  2  4  1 -1</clus>
<clus scale="   95.152">  2  6  1 -1</clus>
<clus scale="  101.371">  1  3  2 -1</clus>
</clustering>
</event>
<event>
 6    0  0.1230761E+002  0.1470169E+03  0.7546771E-02  0.1204187E+00
         21   -1    0    0  504  502  0.00000000000E+00  0.00000000000E+00  0.45540526691E+03  0.45540526691E+03  0.00000000000E+00 0. -1.
          2   -1    0    0  503    0 -0.00000000000E+00 -0.00000000000E+00 -0.24670658936E+03  0.24670658936E+03  0.00000000000E+00 0.  1.
         21    1    1    2  503  505  0.30409850649E+02  0.51607801126E+01 -0.10046298894E+02  0.32439494283E+02  0.00000000000E+00 0. -1.
         21    1    1    2  504  501  0.78420865434E+02 -0.12755735093E+03  0.37530151812E+03  0.40406922602E+03  0.00000000000E+00 0. -1.
         21    1    1    2  505  502 -0.43650426449E+02  0.32471378651E+02  0.19203233679E+02  0.57693278156E+02  0.00000000000E+00 0. -1.
          2    1    1    2  501    0 -0.65180289633E+02  0.89925192166E+02 -0.17575977536E+03  0.20790985781E+03  0.00000000000E+00 0.  1.
<scales pt_clust_3="30.84465" pt_clust_4="14000.00000" pt_clust_5="52.61827" pt_clust_6="147.01688"></scales>
<clustering>
<clus scale="   30.845">  2  3  1 -1</clus>
<clus scale="   52.618">  2  5  1 -1</clus>
<clus scale="  147.017">  2  6  1 -1</clus>
<clus scale="  147.017">  1  3  2 -1</clus>
</clustering>
</event>
<event>
 6    0  0.1230761E+002  0.5320129E+03  0.7546771E-02  0.1005745E+00
         21   -1    0    0  505  502  0.00000000000E+00  0.00000000000E+00  0.47676234719E+03  0.47676234719E+03  0.00000000000E+00 0.  1.
          2   -1    0    0  502    0 -0.00000000000E+00 -0.00000000000E+00 -0.56445014484E+03  0.56445014484E+03  0.00000000000E+00 0.  1.
         21    1    1    2  503  501  0.10068952243E+03  0.32629015581E+03 -0.39042799424E+02  0.34369752093E+03  0.00000000000E+00 0.  1.
         21    1    1    2  504  503 -0.48350094454E+02 -0.27883445816E+03  0.48560703211E+02  0.28713155275E+03  0.00000000000E+00 0.  1.
         21    1    1    2  505  504  0.44701991789E+02 -0.19755675467E+03  0.84962952186E+01  0.20272919479E+03  0.00000000000E+00 0.  1.
          2    1    1    2  501    0 -0.97041419762E+02  0.15010105702E+03 -0.10570199665E+03  0.20765422357E+03  0.00000000000E+00 0.  1.
<scales pt_clust_3="171.32409" pt_clust_4="486.52652" pt_clust_5="83.52072" pt_clust_6="171.32409"></scales>
<clustering>
<clus scale="   83.521">  4  5 -1 -1</clus>
<clus scale="  171.324">  3  6 -1 -1</clus>
<clus scale="  486.527">  1  4  2 -1</clus>
<clus scale="  486.527">  1  3  2 -1</clus>
</clustering>
</event>
<event>
 6    0  0.1230761E+002  0.1222034E+03  0.7546771E-02  0.1239506E+00
         21   -1    0    0  503  502  0.00000000000E+00  0.00000000000E+00  0.72528467357E+03  0.72528467357E+03  0.00000000000E+00 0. -1.
          2   -1    0    0  504    0 -0.00000000000E+00 -0.00000000000E+00 -0.16061773024E+04  0.16061773024E+04  0.00000000000E+00 0. -1.
         21    1    1    2  503  501  0.10772020420E+03 -0.40070819947E+02 -0.17760955813E+02  0.11629602123E+03  0.00000000000E+00 0. -1.
         21    1    1    2  504  505  0.55504698105E+02 -0.17830366347E+01 -0.21272280598E+03  0.21985209327E+03  0.00000000000E+00 0. -1.
         21    1    1    2  505  502 -0.23151111551E+03  0.25849422835E+02  0.65130556819E+03  0.69171130713E+03  0.00000000000E+00 0. -1.
          2    1    1    2  501    0  0.68286213208E+02  0.16004433747E+02 -0.13017144352E+04  0.13036025543E+04  0.00000000000E+00 0. -1.
<scales pt_clust_3="117.47365" pt_clust_4="55.53333" pt_clust_5="14000.00000" pt_clust_6="122.20337"></scales>
<clustering>
<clus scale="   55.533">  2  4  1 -1</clus>
<clus scale="  117.474">  1  3  2 -1</clus>
<clus scale="  122.203">  2  6  1 -1</clus>
<clus scale="  117.474">  1  3  2 -1</clus>
</clustering>
</event>
<event>
 6    0  0.1230761E+002  0.1822553E+03  0.7546771E-02  0.1165638E+00
         21   -1    0    0  505  502  0.00000000000E+00  0.00000000000E+00  0.13808633503E+04  0.13808633503E+04  0.00000000000E+00 0.  1.
         -3   -1    0    0    0  501 -0.00000000000E+00 -0.00000000000E+00 -0.12878167211E+04  0.12878167211E+04  0.00000000000E+00 0.  1.
         21    1    1    2  503  504 -0.13671996492E+03 -0.40816616662E+02  0.10009856936E+04  0.10111037058E+04  0.00000000000E+00 0.  1.
         21    1    1    2  504  501 -0.63235204905E+02 -0.62427176590E+02 -0.75198326923E+02  0.11640718143E+03  0.00000000000E+00 0.  1.
         21    1    1    2  505  503 -0.61170024813E+00 -0.80172223582E+02  0.33384728142E+03  0.34333943398E+03  0.00000000000E+00 0. -1.
         -3    1    1    2    0  502  0.20056687007E+03  0.18341601683E+03 -0.11665880189E+04  0.11978297502E+04  0.00000000000E+00 0.  1.
<scales pt_clust_3="182.25528" pt_clust_4="89.98760" pt_clust_5="80.17456" pt_clust_6="14000.00000"></scales>
<clustering>
<clus scale="   80.175">  1  5  2 -1</clus>
<clus scale="   89.988">  2  4  1 -1</clus>
<clus scale="  182.255">  1  3  2 -1</clus>
<clus scale="   80.175">  1  3  2 -1</clus>
</clustering>
</event>
<event>
 6    0  0.1230761E+002  0.1210817E+03  0.7546771E-02  0.1241323E+00
         21   -1    0    0  503  502  0.00000000000E+00  0.00000000000E+00  0.12612294502E+03  0.12612294502E+03  0.00000000000E+00 0.  1.
          2   -1    0    0  505    0 -0.00000000000E+00 -0.00000000000E+00 -0.22257748541E+04  0.22257748541E+04  0.00000000000E+00 0.  1.
         21    1    1    2  503  504  0.98184744671E+01 -0.12735705221E+03  0.74990947611E+02  0.14812111062E+03  0.00000000000E+00 0.  1.
         21    1    1    2  504  501 -0.45539940385E+02  0.42082150533E+02 -0.67658384998E+02  0.91773910369E+02  0.00000000000E+00 0. -1.
         21    1    1    2  505  502  0.29875759408E+02  0.52478502794E+02 -0.38591982194E+03  0.39061574881E+03  0.00000000000E+00 0. -1.
          2    1    1    2  501    0  0.58457065100E+01  0.32796398880E+02 -0.17210646498E+04  0.17213870293E+04  0.00000000000E+00 0.  1.
<scales pt_clust_3="121.08167" pt_clust_4="64.99605" pt_clust_5="14000.00000" pt_clust_6="33.31330"></scales>
<clustering>
<clus scale="   33.313">  2  6  1 -1</clus>
<clus scale="   64.996">  2  4  1 -1</clus>
<clus scale="  121.082">  1  3  2 -1</clus>
<clus scale="  121.082">  1  3  2 -1</clus>
</clustering>
</event>
<event>
 6    0  0.1230761E+002  0.8007499E+02  0.7546771E-02  0.1328839E+00
          1   -1    0    0  504    0 -0.00000000000E+00  0.00000000000E+00  0.39703132394E+04  0.39703132394E+04  0.00000000000E+00 0.  1.
         21   -1    0    0  501  502  0.00000000000E+00 -0.00000000000E+00 -0.16132337884E+02  0.16132337884E+02  0.00000000000E+00 0. -1.
         21    1    1    2  503  505 -0.82376160918E+02 -0.59748090164E+02  0.50728329273E+03  0.51738960683E+03  0.00000000000E+00 0.  1.
         21    1    1    2  504  503  0.45117726587E+02  0.64111601581E+02  0.30438382829E+04  0.30448476808E+04  0.00000000000E+00 0.  1.
         21    1    1    2  505  502 -0.45142449245E+02 -0.27852852365E+01  0.93482840142E+02  0.10384912103E+03  0.00000000000E+00 0. -1.
          1    1    1    2  501    0  0.82400883575E+02 -0.15782261801E+01  0.30957648568E+03  0.32035916859E+03  0.00000000000E+00 0.  1.
<scales pt_clust_3="14000.00000" pt_clust_4="80.07499" pt_clust_5="45.22829" pt_clust_6="60.24517"></scales>
<clustering>
<clus scale="   45.228">  2  5  1 -1</clus>
<clus scale="   60.245">  2  6  1 -1</clus>
<clus scale="   80.075">  1  4  2 -1</clus>
<clus scale="   45.228">  2  3  1 -1</clus>
</clustering>
</event>
<event>
 6    0  0.1230761E+002  0.1549463E+03  0.7546771E-02  0.1194523E+00
         21   -1    0    0  505  502  0.00000000000E+00  0.00000000000E+00  0.14235508077E+04  0.14235508077E+04  0.00000000000E+00 0. -1.
          2   -1    0    0  503    0 -0.00000000000E+00 -0.00000000000E+00 -0.54065658472E+03  0.54065658472E+03  0.00000000000E+00 0. -1.
         21    1    1    2  503  504 -0.71069938304E+02 -0.73888928557E+01 -0.36819237080E+02  0.80381515831E+02  0.00000000000E+00 0. -1.
         21    1    1    2  504  502  0.26511898227E+02 -0.17051872365E+02  0.10299836300E+03  0.10771401896E+03  0.00000000000E+00 0. -1.
         21    1    1    2  505  501  0.86374916415E+02 -0.91079642560E+02  0.12854397487E+04  0.12915538994E+04  0.00000000000E+00 0. -1.
          2    1    1    2  501    0 -0.41816876338E+02  0.11552040778E+03 -0.46872465168E+03  0.48455795820E+03  0.00000000000E+00 0. -1.
<scales pt_clust_3="71.04717" pt_clust_4="31.52217" pt_clust_5="14000.00000" pt_clust_6="154.94630"></scales>
<clustering>
<clus scale="   31.522">  1  4  2 -1</clus>
<clus scale="   71.047">  2  3  1 -1</clus>
<clus scale="  154.946">  2  6  1 -1</clus>
<clus scale="   31.522">  1  3  2 -1</clus>
</clustering>
</event>
<event>
 6    0  0.1230761E+002  0.1184011E+03  0.7546771E-02  0.1245758E+00
          2   -1    0    0  504    0 -0.00000000000E+00  0.00000000000E+00  0.20735953632E+04  0.20735953632E+04  0.00000000000E+00 0. -1.
         21   -1    0    0  505  502  0.00000000000E+00 -0.00000000000E+00 -0.48515373894E+03  0.48515373894E+03  0.00000000000E+00 0.  1.
         21    1    1    2  503  502 -0.80329389346E+02 -0.35009870428E+02 -0.24544277044E+03  0.26061591544E+03  0.00000000000E+00 0.  1.
         21    1    1    2  504  503  0.28329247151E+02  0.17997020176E+02  0.11483938369E+03  0.11964331584E+03  0.00000000000E+00 0.  1.
         21    1    1    2  505  501 -0.10667311771E+02 -0.41921993413E+02 -0.22672716775E+03  0.23081692674E+03  0.00000000000E+00 0.  1.
          2    1    1    2  501    0  0.62667453965E+02  0.58934843666E+02  0.19457721787E+04  0.19476729441E+04  0.00000000000E+00 0. -1.
<scales pt_clust_3="14000.00000" pt_clust_4="33.56246" pt_clust_5="43.23236" pt_clust_6="118.40113"></scales>
<clustering>
<clus scale="   33.562">  1  4  2 -1</clus>
<clus scale="   43.232">  2  5  1 -1</clus>
<clus scale="  118.401">  1  6  2 -1</clus>
<clus scale="   43.232">  2  3  1 -1</clus>
</clustering>
</event>
<event>
 6    0  0.1230761E+002  0.2155663E+03  0.7546771E-02  0.1137232E+00
          2   -1    0    0  505    0 -0.00000000000E+00  0.00000000000E+00  0.19127924348E+04  0.19127924348E+04  0.00000000000E+00 0.  1.
         21   -1    0    0  503  502  0.00000000000E+00 -0.00000000000E+00 -0.11114273849E+04  0.11114273849E+04  0.00000000000E+00 0.  1.
         21    1    1    2  503  501 -0.13986985670E+03 -0.10483319454E+03 -0.68977919896E+03  0.71158198319E+03  0.00000000000E+00 0.  1.
         21    1    1    2  504  502  0.31611320822E+03 -0.19174197380E+02 -0.34000279510E+03  0.46464729735E+03  0.00000000000E+00 0.  1.
         21    1    1    2  505  504 -0.14514055745E+02  0.36948391978E+02  0.10768400148E+03  0.11476796443E+03  0.00000000000E+00 0. -1.
          2    1    1    2  501    0 -0.16172929578E+03  0.87058999945E+02  0.17234630425E+04  0.17332225747E+04  0.00000000000E+00 0.  1.
<scales pt_clust_3="174.73215" pt_clust_4="14000.00000" pt_clust_5="39.69687" pt_clust_6="215.56630"></scales>
<clustering>
<clus scale="   39.697">  1  5  2 -1</clus>
<clus scale="  174.732">  2  3  1 -1</clus>
<clus scale="  215.566">  1  6  2 -1</clus>
<clus scale="  174.732">  2  3  1 -1</clus>
</clustering>
</event>
<event>
 6    0  0.1230761E+002  0.7571249E+02  0.7546771E-02  0.1341679E+00
         21   -1    0    0  505  502  0.00000000000E+00  0.00000000000E+00  0.37467407040E+03  0.37467407040E+03  0.00000000000E+00 0.  1.
          2   -1    0    0  504    0 -0.00000000000E+00 -0.00000000000E+00 -0.17784680523E+04  0.17784680523E+04  0.00000000000E+00 0.  1.
         21    1    1    2  503  502  0.53651197196E+02 -0.11907690753E+03  0.19374688253E+03  0.23365704646E+03  0.00000000000E+00 0.  1.
         21    1    1    2  504  503 -0.10279828762E+02 -0.45098939984E+02 -0.43486866960E+03  0.43732179121E+03  0.00000000000E+00 0.  1.
         21    1    1    2  505  501 -0.44313550458E+02  0.45425771807E+02  0.15065651111E+03  0.16347652993E+03  0.00000000000E+00 0. -1.
          2    1    1    2  501    0  0.94218202472E+00  0.11875007571E+03 -0.13133287060E+04  0.13186867551E+04  0.00000000000E+00 0.  1.
<scales pt_clust_3="14000.00000" pt_clust_4="46.25569" pt_clust_5="63.34055" pt_clust_6="75.71249"></scales>
<clustering>
<clus scale="   46.256">  2  4  1 -1</clus>
<clus scale="   63.341">  1  5  2 -1</clus>
<clus scale="   75.712">  2  6  1 -1</clus>
<clus scale="   63.341">  1  3  2 -1</clus>
</clustering>
</event>
<event>
 6    0  0.1230761E+002  0.8162606E+02  0.7546771E-02  0.1324499E+00
         21   -1    0    0  505  502  0.00000000000E+00  0.00000000000E+00  0.60246414648E+03  0.60246414648E+03  0.00000000000E+00 0. -1.
          2   -1    0    0  504    0 -0.00000000000E+00 -0.00000000000E+00 -0.14875942170E+04  0.14875942170E+04  0.00000000000E+00 0.  1.
         21    1    1    2  503  501  0.84874529981E+02 -0.18219707200E+02  0.11847075535E+03  0.14687056697E+03  0.00000000000E+00 0. -1.
         21    1    1    2  504  502 -0.39216930808E+02 -0.10484004500E+02 -0.16438151621E+03  0.16931971204E+03  0.00000000000E+00 0.  1.
         21    1    1    2  505  503 -0.65528780925E+02 -0.60007079991E+02  0.46150005119E+03  0.46997571004E+03  0.00000000000E+00 0. -1.
          2    1    1    2  501    0  0.19871181752E+02  0.88710791692E+02 -0.13007193609E+04  0.13038923745E+04  0.00000000000E+00 0.  1.
<scales pt_clust_3="81.62606" pt_clust_4="40.59411" pt_clust_5="14000.00000" pt_clust_6="80.59606"></scales>
<clustering>
<clus scale="   40.594">  2  4  1 -1</clus>
<clus scale="   80.596">  2  6  1 -1</clus>
<clus scale="   81.626">  2  3  1 -1</clus>
<clus scale="   81.626">  1  3  2 -1</clus>
</clustering>
</event>
<event>
 6    0  0.1230761E+002  0.9967412E+02  0.7546771E-02  0.1280983E+00
         21   -1    0    0  505  502  0.00000000000E+00  0.00000000000E+00  0.72775698461E+03  0.72775698461E+03  0.00000000000E+00 0. -1.
          2   -1    0    0  504    0 -0.00000000000E+00 -0.00000000000E+00 -0.29933612244E+04  0.29933612244E+04  0.00000000000E+00 0. -1.
         21    1    1    2  503  501  0.36148407037E+02  0.44663869232E+02  0.16894229119E+03  0.17844625605E+03  0.00000000000E+00 0.  1.
         21    1    1    2  504  502  0.38472607575E+00  0.64712129413E+02 -0.85273228623E+03  0.85518428405E+03  0.00000000000E+00 0. -1.
         21    1    1    2  505  503 -0.63706887560E+01  0.51076244800E+02  0.54850839350E+03  0.55091816652E+03  0.00000000000E+00 0. -1.
          2    1    1    2  501    0 -0.30162444357E+02 -0.16045224345E+03 -0.21303226383E+04  0.21365695024E+04  0.00000000000E+00 0. -1.
<scales pt_clust_3="99.67412" pt_clust_4="65.06473" pt_clust_5="51.47202" pt_clust_6="14000.00000"></scales>
<clustering>
<clus scale="   51.472">  1  5  2 -1</clus>
<clus scale="   65.065">  2  4  1 -1</clus>
<clus scale="   99.674">  1  3  2 -1</clus>
<clus scale="   51.472">  1  3  2 -1</clus>
</clustering>
</event>
<event>
 6    0  0.1230761E+002  0.1370606E+03  0.7546771E-02  0.1217340E+00
         -2   -1    0    0    0  501 -0.00000000000E+00  0.00000000000E+00  0.24597252352E+03  0.24597252352E+03  0.00000000000E+00 0. -1.
         21   -1    0    0  505  502  0.00000000000E+00 -0.00000000000E+00 -0.40214448885E+03  0.40214448885E+03  0.00000000000E+00 0. -1.
         21    1    1    2  503  501 -0.10766951626E+02 -0.29122384388E+02  0.10129314010E+03  0.10594498927E+03  0.00000000000E+00 0.  1.
         21    1    1    2  504  503  0.39448376912E+02  0.60843691809E+02 -0.23767175748E+03  0.24848741131E+03  0.00000000000E+00 0. -1.
         21    1    1    2  505  504  0.53212106466E+02  0.34643866120E+02 -0.12783839961E+03  0.14273885998E+03  0.00000000000E+00 0. -1.
         -2    1    1    2    0  502 -0.81893531753E+02 -0.66365173541E+02  0.10804505166E+03  0.15094575181E+03  0.00000000000E+00 0. -1.
<scales pt_clust_3="31.04900" pt_clust_4="39.12733" pt_clust_5="39.12733" pt_clust_6="130.49567"></scales>
<clustering>
<clus scale="   31.049">  1  3  2 -1</clus>
<clus scale="   39.127">  4  5 -1 -1</clus>
<clus scale="  130.496">  1  6  2 -1</clus>
<clus scale="  137.061">  2  3  1 -1</clus>
</clustering>
</event>
<event>
 6    0  0.1230761E+002  0.6988226E+02  0.7546771E-02  0.1360494E+00
         -1   -1    0    0    0  501 -0.00000000000E+00  0.00000000000E+00  0.39134506184E+03  0.39134506184E+03  0.00000000000E+00 0.  1.
         21   -1    0    0  503  502  0.00000000000E+00 -0.00000000000E+00 -0.30047794223E+03  0.30047794223E+03  0.00000000000E+00 0. -1.
         21    1    1    2  503  501  0.15364469079E+02 -0.50993626900E+02  0.11568002734E+03  0.12735103306E+03  0.00000000000E+00 0.  1.
         21    1    1    2  504  505 -0.70064789149E+02  0.74715843233E+02 -0.72753973450E+02  0.12563706683E+03  0.00000000000E+00 0. -1.
         21    1    1    2  505  502 -0.11193556685E+01 -0.67490435884E+02 -0.18415798787E+03  0.19613866623E+03  0.00000000000E+00 0. -1.
         -1    1    1    2    0  504  0.55819675738E+02  0.43768219550E+02  0.23209905359E+03  0.24269623796E+03  0.00000000000E+00 0.  1.
<scales pt_clust_3="53.25802" pt_clust_4="69.88226" pt_clust_5="68.62693" pt_clust_6="14000.00000"></scales>
<clustering>
<clus scale="   53.258">  1  3  2 -1</clus>
<clus scale="   68.627">  2  5  1 -1</clus>
<clus scale="   69.882">  2  4  1 -1</clus>
<clus scale="   68.627">  2  3  1 -1</clus>
</clustering>
</event>
<event>
 6    0  0.1230761E+002  0.1272344E+03  0.7546771E-02  0.1231618E+00
          2   -1    0    0  503    0 -0.00000000000E+00  0.00000000000E+00  0.12544678961E+04  0.12544678961E+04  0.00000000000E+00 0. -1.
         21   -1    0    0  501  502  0.00000000000E+00 -0.00000000000E+00 -0.63831632247E+03  0.63831632247E+03  0.00000000000E+00 0.  1.
         21    1    1    2  503  504  0.49476737260E+02  0.43421658458E+01  0.55618249841E+02  0.74566692628E+02  0.00000000000E+00 0. -1.
         21    1    1    2  504  505 -0.63687825143E+02  0.60244217191E+02 -0.11166892352E+02  0.88375360034E+02  0.00000000000E+00 0.  1.
         21    1    1    2  505  502  0.81660664445E+02 -0.10827180249E+03 -0.56969886399E+03  0.58561765937E+03  0.00000000000E+00 0.  1.
          2    1    1    2  501    0 -0.67449576562E+02  0.43685419455E+02  0.11413990802E+04  0.11442245066E+04  0.00000000000E+00 0. -1.
<scales pt_clust_3="49.66691" pt_clust_4="127.23436" pt_clust_5="14000.00000" pt_clust_6="51.83388"></scales>
<clustering>
<clus scale="   49.667">  1  3  2 -1</clus>
<clus scale="   51.834">  1  6  2 -1</clus>
<clus scale="  127.234">  1  4  2 -1</clus>
<clus scale="  127.234">  2  3  1 -1</clus>
</clustering>
</event>
<event>
 6    0  0.1230761E+002  0.2744340E+03  0.7546771E-02  0.1098768E+00
          2   -1    0    0  503    0 -0.00000000000E+00  0.00000000000E+00  0.30765098605E+04  0.30765098605E+04  0.00000000000E+00 0.  1.
         21   -1    0    0  501  502  0.00000000000E+00 -0.00000000000E+00 -0.26732001579E+03  0.26732001579E+03  0.00000000000E+00 0.  1.
         21    1    1    2  503  504 -0.76899504170E+02 -0.77951726025E+00  0.30031055873E+03  0.31000092431E+03  0.00000000000E+00 0.  1.
         21    1    1    2  504  505 -0.15787899339E+03  0.67457588697E+01 -0.12626289142E+03  0.20227110413E+03  0.00000000000E+00 0.  1.
         21    1    1    2  505  502 -0.92386658408E+02  0.63214041525E+02 -0.52181844938E+02  0.12350811568E+03  0.00000000000E+00 0.  1.
          2    1    1    2  501    0  0.32716515597E+03 -0.69180283134E+02  0.26873240223E+04  0.27080497321E+04  0.00000000000E+00 0.  1.
<scales pt_clust_3="76.90345" pt_clust_4="69.21278" pt_clust_5="69.21278" pt_clust_6="261.82379"></scales>
<clustering>
<clus scale="   69.213">  4  5 -1 -1</clus>
<clus scale="   76.903">  1  3  2 -1</clus>
<clus scale="  261.824">  1  6  2 -1</clus>
<clus scale="  274.434">  2  3  1 -1</clus>
</clustering>
</event>
<event>
 6    0  0.1230761E+002  0.1027213E+03  0.7546771E-02  0.1274675E+00
          2   -1    0    0  503    0 -0.00000000000E+00  0.00000000000E+00  0.16554118757E+04  0.16554118757E+04  0.00000000000E+00 0.  1.
         21   -1    0    0  501  502  0.00000000000E+00 -0.00000000000E+00 -0.10833110998E+03  0.10833110998E+03  0.00000000000E+00 0. -1.
         21    1    1    2  503  504 -0.13728341212E+02 -0.40035380704E+02  0.41772433235E+03  0.41986297396E+03  0.00000000000E+00 0.  1.
         21    1    1    2  504  505  0.41737041123E+02 -0.46171193879E+02 -0.32137511501E+02  0.70046979888E+02  0.00000000000E+00 0. -1.
         21    1    1    2  505  502  0.61128789845E+00 -0.36049712533E+02 -0.46774689526E+02  0.59057827820E+02  0.00000000000E+00 0. -1.
          2    1    1    2  501    0 -0.28619987809E+02  0.12225628712E+03  0.12082686344E+04  0.12147752040E+04  0.00000000000E+00 0.  1.
<scales pt_clust_3="42.32374" pt_clust_4="33.06470" pt_clust_5="33.06470" pt_clust_6="93.08279"></scales>
<clustering>
<clus scale="   33.065">  4  5 -1 -1</clus>
<clus scale="   42.324">  1  3  2 -1</clus>
<clus scale="   93.083">  1  6  2 -1</clus>
<clus scale="  102.721">  2  3  1 -1</clus>
</clustering>
</event>
<event>
 6    0  0.1230761E+002  0.9925365E+02  0.7546771E-02  0.1281873E+00
          1   -1    0    0  503    0 -0.00000000000E+00  0.00000000000E+00  0.63132449905E+03  0.63132449905E+03  0.00000000000E+00 0. -1.
         21   -1    0    0  504  502  0.00000000000E+00 -0.00000000000E+00 -0.13686360100E+04  0.13686360100E+04  0.00000000000E+00 0. -1.
         21    1    1    2  503  502  0.11804216300E+03 -0.72156075868E+02 -0.94053643253E+03  0.95065726339E+03  0.00000000000E+00 0. -1.
         21    1    1    2  504  505 -0.30179722812E+02  0.23718711106E+02 -0.41462371036E+03  0.41639670281E+03  0.00000000000E+00 0.  1.
         21    1    1    2  505  501 -0.55574169174E+02  0.10858121942E+02  0.12100440168E+03  0.13359809997E+03  0.00000000000E+00 0. -1.
          1    1    1    2  501    0 -0.32288271011E+02  0.37579242820E+02  0.49684423028E+03  0.49930844284E+03  0.00000000000E+00 0. -1.
<scales pt_clust_3="99.25365" pt_clust_4="38.38480" pt_clust_5="14000.00000" pt_clust_6="49.59393"></scales>
<clustering>
<clus scale="   38.385">  2  4  1 -1</clus>
<clus scale="   49.594">  1  6  2 -1</clus>
<clus scale="   99.254">  2  3  1 -1</clus>
<clus scale="   38.385">  2  3  1 -1</clus>
</clustering>
</event>
<event>
 6    0  0.1230761E+002  0.1911222E+03  0.7546771E-02  0.1157453E+00
         21   -1    0    0  504  502  0.00000000000E+00  0.00000000000E+00  0.23077966551E+04  0.23077966551E+04  0.00000000000E+00 0. -1.
         -3   -1    0    0    0  501 -0.00000000000E+00 -0.00000000000E+00 -0.67282840195E+02  0.67282840195E+02  0.00000000000E+00 0. -1.
         21    1    1    2  503  502  0.26367712266E+02  0.55829127196E+02  0.15287060171E+04  0.15299523634E+04  0.00000000000E+00 0. -1.
         21    1    1    2  504  505 -0.24982328940E+02  0.20778413978E+02  0.19025831344E+03  0.19301317333E+03  0.00000000000E+00 0. -1.
         21    1    1    2  505  501 -0.18890236480E+03 -0.82424643452E+01  0.29263130589E+03  0.34840367798E+03  0.00000000000E+00 0. -1.
         -3    1    1    2    0  503  0.18751698147E+03 -0.68365076829E+02  0.22891817851E+03  0.30371028057E+03  0.00000000000E+00 0. -1.
<scales pt_clust_3="71.33157" pt_clust_4="32.49399" pt_clust_5="14000.00000" pt_clust_6="191.12224"></scales>
<clustering>
<clus scale="   32.494">  1  4  2 -1</clus>
<clus scale="   71.332">  1  3  2 -1</clus>
<clus scale="  191.122">  2  6  1 -1</clus>
<clus scale="   32.494">  1  3  2 -1</clus>
</clustering>
</event>
<event>
 6    0  0.1230761E+002  0.1430872E+03  0.7546771E-02  0.1209234E+00
         21   -1    0    0  501  502  0.00000000000E+00  0.00000000000E+00  0.22436250810E+03  0.22436250810E+03  0.00000000000E+00 0. -1.
          2   -1    0    0  503    0 -0.00000000000E+00 -0.00000000000E+00 -0.29886921207E+04  0.29886921207E+04  0.00000000000E+00 0. -1.
         21    1    1    2  503  505 -0.38043936689E+02  0.13671050480E+02 -0.11800460789E+03  0.12473702828E+03  0.00000000000E+00 0.  1.
         21    1    1    2  504  502  0.10560343048E+02  0.63314075742E+02  0.10348024299E+03  0.12177172792E+03  0.00000000000E+00 0. -1.
         21    1    1    2  505  504 -0.44234564368E+02  0.63799443975E+02  0.91984642737E+02  0.12036710612E+03  0.00000000000E+00 0. -1.
          2    1    1    2  501    0  0.71718158008E+02 -0.14078457020E+03 -0.28417898904E+04  0.28461787664E+04  0.00000000000E+00 0. -1.
<scales pt_clust_3="40.42572" pt_clust_4="50.85091" pt_clust_5="50.85091" pt_clust_6="131.68542"></scales>
<clustering>
<clus scale="   40.426">  2  3  1 -1</clus>
<clus scale="   50.851">  4  5 -1 -1</clus>
<clus scale="  131.685">  2  6  1 -1</clus>
<clus scale="  143.087">  1  3  2 -1</clus>
</clustering>
</event>
<event>
 6    0  0.1230761E+002  0.1654196E+03  0.7546771E-02  0.1182710E+00
         21   -1    0    0  503  502  0.00000000000E+00  0.00000000000E+00  0.56517023226E+02  0.56517023226E+02  0.00000000000E+00 0. -1.
          2   -1    0    0  505    0 -0.00000000000E+00 -0.00000000000E+00 -0.15120645664E+04  0.15120645664E+04  0.00000000000E+00 0. -1.
         21    1    1    2  503  501  0.39629665860E+02  0.10811792074E+02 -0.67506948992E+02  0.79022739931E+02  0.00000000000E+00 0. -1.
         21    1    1    2  504  502  0.11768092039E+03 -0.79868812340E+02 -0.76385832710E+02  0.16143921967E+03  0.00000000000E+00 0. -1.
         21    1    1    2  505  504  0.69970696140E+01  0.36913105702E+02 -0.15956163128E+03  0.16392513698E+03  0.00000000000E+00 0.  1.
          2    1    1    2  501    0 -0.16430765586E+03  0.32143914564E+02 -0.11520931302E+04  0.11641944931E+04  0.00000000000E+00 0. -1.
<scales pt_clust_3="42.01141" pt_clust_4="165.41961" pt_clust_5="37.57042" pt_clust_6="14000.00000"></scales>
<clustering>
<clus scale="   37.570">  2  5  1 -1</clus>
<clus scale="   42.011">  1  3  2 -1</clus>
<clus scale="  165.420">  1  4  2 -1</clus>
<clus scale="   42.011">  1  3  2 -1</clus>
</clustering>
</event>
<event>
 6    0  0.1862766E+002  0.2180702E+03  0.7546771E-02  0.1135330E+00
          2   -1    0    0  504    0 -0.00000000000E+00  0.00000000000E+00  0.16152252812E+04  0.16152252812E+04  0.00000000000E+00 0.  1.
         21   -1    0    0  505  502  0.00000000000E+00 -0.00000000000E+00 -0.54540769257E+03  0.54540769257E+03  0.00000000000E+00 0.  1.
         21    1    1    2  503  502 -0.23102124948E+02  0.54375569691E+02 -0.40020350497E+02  0.71358525841E+02  0.00000000000E+00 0. -1.
         21    1    1    2  504  503  0.32944884307E+02 -0.12358385264E+02  0.34304211181E+02  0.49141367431E+02  0.00000000000E+00 0.  1.
         21    1    1    2  505  501 -0.19365075916E+02 -0.26653100423E+03 -0.43632925953E+03  0.51166102558E+03  0.00000000000E+00 0.  1.
          2    1    1    2  501    0  0.95223165574E+01  0.22451381980E+03  0.15118629875E+04  0.15284720549E+04  0.00000000000E+00 0.  1.
<scales pt_clust_3="58.83869" pt_clust_4="35.18658" pt_clust_5="218.07018" pt_clust_6="14000.00000"></scales>
<clustering>
<clus scale="   35.187">  1  4  2 -1</clus>
<clus scale="   58.839">  2  3  1 -1</clus>
<clus scale="  218.070">  2  5  1 -1</clus>
<clus scale="   58.839">  2  3  1 -1</clus>
</clustering>
</event>
<event>
 6    0  0.1230761E+002  0.1339655E+03  0.7546771E-02  0.1221687E+00
         21   -1    0    0  504  502  0.00000000000E+00  0.00000000000E+00  0.29092221767E+03  0.29092221767E+03  0.00000000000E+00 0.  1.
          4   -1    0    0  503    0 -0.00000000000E+00 -0.00000000000E+00 -0.89448198808E+03  0.89448198808E+03  0.00000000000E+00 0.  1.
         21    1    1    2  503  502 -0.11782194580E+02  0.99969262165E+02 -0.92557699475E+02  0.13674648522E+03  0.00000000000E+00 0.  1.
         21    1    1    2  504  505  0.50779085712E+02  0.14210475256E+02  0.85082884710E+02  0.10009770439E+03  0.00000000000E+00 0.  1.
         21    1    1    2  505  501  0.77269741796E+02 -0.24861876799E+02  0.15945493521E+03  0.17892624816E+03  0.00000000000E+00 0.  1.
          4    1    1    2  501    0 -0.11626663293E+03 -0.89317860621E+02 -0.75553989086E+03  0.76963376799E+03  0.00000000000E+00 0.  1.
<scales pt_clust_3="100.66118" pt_clust_4="31.68738" pt_clust_5="31.68738" pt_clust_6="128.06678"></scales>
<clustering>
<clus scale="   31.687">  4  5 -1 -1</clus>
<clus scale="  100.661">  2  3  1 -1</clus>
<clus scale="  128.067">  2  6  1 -1</clus>
<clus scale="  133.966">  1  3  2 -1</clus>
</clustering>
</event>
<event>
 6    0  0.1230761E+002  0.1424143E+03  0.7546771E-02  0.1210117E+00
          1   -1    0    0  503    0 -0.00000000000E+00  0.00000000000E+00  0.10751897352E+04  0.10751897352E+04  0.00000000000E+00 0.  1.
         21   -1    0    0  504  502  0.00000000000E+00 -0.00000000000E+00 -0.16463195261E+04  0.16463195261E+04  0.00000000000E+00 0.  1.
         21    1    1    2  503  502  0.10588602853E+03  0.96692593406E+02 -0.28347088863E+03  0.31767444556E+03  0.00000000000E+00 0.  1.
         21    1    1    2  504  505 -0.19557643510E+03  0.25467497561E+02 -0.13263755321E+04  0.13409589060E+04  0.00000000000E+00 0.  1.
         21    1    1    2  505  501  0.62182595914E+02 -0.55819718118E+02  0.15366740675E+03  0.17491766081E+03  0.00000000000E+00 0.  1.
          1    1    1    2  501    0  0.27507810656E+02 -0.66340372849E+02  0.88504922308E+03  0.88795824901E+03  0.00000000000E+00 0.  1.
<scales pt_clust_3="141.31127" pt_clust_4="142.41427" pt_clust_5="14000.00000" pt_clust_6="71.81730"></scales>
<clustering>
<clus scale="   71.817">  1  6  2 -1</clus>
<clus scale="  141.311">  2  3  1 -1</clus>
<clus scale="  142.414">  2  4  1 -1</clus>
<clus scale="  141.311">  2  3  1 -1</clus>
</clustering>
</event>
<event>
 6    0  0.1230761E+002  0.1441943E+03  0.7546771E-02  0.1207794E+00
          2   -1    0    0  503    0 -0.00000000000E+00  0.00000000000E+00  0.18830005313E+03  0.18830005313E+03  0.00000000000E+00 0. -1.
         21   -1    0    0  505  502  0.00000000000E+00 -0.00000000000E+00 -0.18240972761E+03  0.18240972761E+03  0.00000000000E+00 0. -1.
         21    1    1    2  503  504 -0.25823970173E+02  0.90367047735E+02 -0.94817230702E+02  0.13350426207E+03  0.00000000000E+00 0. -1.
         21    1    1    2  504  502  0.23377045418E+02  0.41033706107E+02 -0.22131944967E+02  0.52154331338E+02  0.00000000000E+00 0. -1.
         21    1    1    2  505  501 -0.13264796118E+02 -0.66961002058E+02  0.40697026260E+02  0.79473131051E+02  0.00000000000E+00 0. -1.
          2    1    1    2  501    0  0.15711720873E+02 -0.64439751784E+02  0.82142474930E+02  0.10557805629E+03  0.00000000000E+00 0. -1.
<scales pt_clust_3="42.05552" pt_clust_4="42.05552" pt_clust_5="42.76571" pt_clust_6="138.39942"></scales>
<clustering>
<clus scale="   42.056">  3  4 -1 -1</clus>
<clus scale="   42.766">  5  6 -1 -1</clus>
<clus scale="  138.399">  1  5  2 -1</clus>
<clus scale="  144.194">  2  3  1 -1</clus>
</clustering>
</event>
<event>
 6    0  0.1230761E+002  0.1686767E+03  0.7546771E-02  0.1179235E+00
         21   -1    0    0  505  502  0.00000000000E+00  0.00000000000E+00  0.23324140916E+03  0.23324140916E+03  0.00000000000E+00 0.  1.
          1   -1    0    0  504    0 -0.00000000000E+00 -0.00000000000E+00 -0.55291648610E+03  0.55291648610E+03  0.00000000000E+00 0.  1.
         21    1    1    2  503  501 -0.98903921996E+02  0.18603082823E+02  0.94338351859E+02  0.13794123788E+03  0.00000000000E+00 0.  1.
         21    1    1    2  504  502 -0.63574571294E+02  0.48061444848E+02 -0.22659896201E+02  0.82855895939E+02  0.00000000000E+00 0. -1.
         21    1    1    2  505  503  0.16260670018E+02  0.38355490969E+02  0.63630850172E+02  0.76055494019E+02  0.00000000000E+00 0.  1.
          1    1    1    2  501    0  0.14621782327E+03 -0.10502001864E+03 -0.45498438278E+03  0.48930526742E+03  0.00000000000E+00 0.  1.
<scales pt_clust_3="14000.00000" pt_clust_4="81.90722" pt_clust_5="41.65997" pt_clust_6="168.67669"></scales>
<clustering>
<clus scale="   41.660">  1  5  2 -1</clus>
<clus scale="   81.907">  1  4  2 -1</clus>
<clus scale="  168.677">  2  6  1 -1</clus>
<clus scale="   41.660">  1  3  2 -1</clus>
</clustering>
</event>
<event>
 6    0  0.1230761E+002  0.6779935E+02  0.7546771E-02  0.1367740E+00
          2   -1    0    0  505    0 -0.00000000000E+00  0.00000000000E+00  0.20338265493E+04  0.20338265493E+04  0.00000000000E+00 0. -1.
         21   -1    0    0  503  502  0.00000000000E+00 -0.00000000000E+00 -0.82041892820E+02  0.82041892820E+02  0.00000000000E+00 0. -1.
         21    1    1    2  503  501 -0.38314829303E+02 -0.40992534714E+02  0.28154105543E+02  0.62777923713E+02  0.00000000000E+00 0. -1.
         21    1    1    2  504  502  0.26446974657E+01  0.80223674521E+02 -0.36247481111E+02  0.88072199162E+02  0.00000000000E+00 0. -1.
         21    1    1    2  505  504 -0.36542655165E+02  0.40284563550E+01  0.11870724442E+04  0.11876416050E+04  0.00000000000E+00 0. -1.
          2    1    1    2  501    0  0.72212787002E+02 -0.43259596162E+02  0.77280558781E+03  0.77737671423E+03  0.00000000000E+00 0. -1.
<scales pt_clust_3="67.79935" pt_clust_4="14000.00000" pt_clust_5="36.76403" pt_clust_6="55.38535"></scales>
<clustering>
<clus scale="   36.764">  1  5  2 -1</clus>
<clus scale="   55.385">  1  6  2 -1</clus>
<clus scale="   67.799">  1  3  2 -1</clus>
<clus scale="   67.799">  2  3  1 -1</clus>
</clustering>
</event>
<event>
 6    0  0.1230761E+002  0.2013222E+03  0.7546771E-02  0.1148628E+00
          1   -1    0    0  503    0 -0.00000000000E+00  0.00000000000E+00  0.92715141698E+03  0.92715141698E+03  0.00000000000E+00 0.  1.
         21   -1    0    0  505  502  0.00000000000E+00 -0.00000000000E+00 -0.92052896525E+03  0.92052896525E+03  0.00000000000E+00 0.  1.
         21    1    1    2  503  502 -0.16037705359E+02  0.30211944498E+02  0.56643684165E+03  0.56746864685E+03  0.00000000000E+00 0.  1.
         21    1    1    2  504  501 -0.10101518370E+03  0.49451583232E+02 -0.41966758350E+03  0.43447716518E+03  0.00000000000E+00 0.  1.
         21    1    1    2  505  504 -0.73106391122E+02  0.43518897653E+02 -0.45218274855E+03  0.46011702529E+03  0.00000000000E+00 0.  1.
          1    1    1    2  501    0  0.19015928018E+03 -0.12318242538E+03  0.31203594213E+03  0.38561754491E+03  0.00000000000E+00 0.  1.
<scales pt_clust_3="34.20482" pt_clust_4="30.30328" pt_clust_5="30.30328" pt_clust_6="198.28434"></scales>
<clustering>
<clus scale="   30.303">  4  5 -1 -1</clus>
<clus scale="   34.205">  1  3  2 -1</clus>
<clus scale="  198.284">  1  6  2 -1</clus>
<clus scale="  201.322">  2  3  1 -1</clus>
</clustering>
</event>
<event>
 6    0  0.1230761E+002  0.1192595E+03  0.7546771E-02  0.1244324E+00
         21   -1    0    0  503  502  0.00000000000E+00  0.00000000000E+00  0.37065932552E+03  0.37065932552E+03  0.00000000000E+00 0.  1.
          1   -1    0    0  505    0 -0.00000000000E+00 -0.00000000000E+00 -0.21887911363E+03  0.21887911363E+03  0.00000000000E+00 0.  1.
         21    1    1    2  503  501 -0.93395986676E+02  0.27843359311E+02  0.25429747782E+03  0.27233301345E+03  0.00000000000E+00 0.  1.
         21    1    1    2  504  502 -0.75651973208E+01  0.35805568600E+02  0.47624392004E+02  0.60061249296E+02  0.00000000000E+00 0.  1.
         21    1    1    2  505  504 -0.12548244948E+02  0.47958000633E+02 -0.35823132460E+02  0.61161467406E+02  0.00000000000E+00 0.  1.
          1    1    1    2  501    0  0.11350942894E+03 -0.11160692854E+03 -0.11431852549E+03  0.19598270900E+03  0.00000000000E+00 0.  1.
<scales pt_clust_3="14000.00000" pt_clust_4="36.59605" pt_clust_5="51.03428" pt_clust_6="119.25947"></scales>
<clustering>
<clus scale="   36.596">  1  4  2 -1</clus>
<clus scale="   51.034">  2  5  1 -1</clus>
<clus scale="  119.259">  2  6  1 -1</clus>
<clus scale="   36.596">  1  3  2 -1</clus>
</clustering>
</event>
<event>
 6    0  0.1230761E+002  0.1602271E+03  0.7546771E-02  0.1188441E+00
          1   -1    0    0  503    0 -0.00000000000E+00  0.00000000000E+00  0.10180917666E+04  0.10180917666E+04  0.00000000000E+00 0. -1.
         21   -1    0    0  501  502  0.00000000000E+00 -0.00000000000E+00 -0.81496511188E+03  0.81496511188E+03  0.00000000000E+00 0. -1.
         21    1    1    2  503  504 -0.13521044573E+03 -0.88589717215E+02 -0.93615460370E+01  0.16191862516E+03  0.00000000000E+00 0. -1.
         21    1    1    2  504  505  0.58200054702E+02 -0.11111393272E+02 -0.24052382815E+03  0.24771439469E+03  0.00000000000E+00 0.  1.
         21    1    1    2  505  502 -0.11173678611E+02 -0.35149821993E+02 -0.47757191292E+03  0.47899404285E+03  0.00000000000E+00 0. -1.
          1    1    1    2  501    0  0.88184069639E+02  0.13485093248E+03  0.93058394180E+03  0.94442981574E+03  0.00000000000E+00 0. -1.
<scales pt_clust_3="14000.00000" pt_clust_4="62.04212" pt_clust_5="36.88307" pt_clust_6="160.22705"></scales>
<clustering>
<clus scale="   36.883">  2  5  1 -1</clus>
<clus scale="   62.042">  2  4  1 -1</clus>
<clus scale="  160.227">  1  6  2 -1</clus>
<clus scale="   36.883">  2  3  1 -1</clus>
</clustering>
</event>
<event>
 6    0  0.1230761E+002  0.1849873E+03  0.7546771E-02  0.1163062E+00
         21   -1    0    0  501  502  0.00000000000E+00  0.00000000000E+00  0.21382169112E+03  0.21382169112E+03  0.00000000000E+00 0.  1.
          2   -1    0    0  503    0 -0.00000000000E+00 -0.00000000000E+00 -0.63712133449E+03  0.63712133449E+03  0.00000000000E+00 0.  1.
         21    1    1    2  503  504 -0.46737415145E+02 -0.24153582799E+02 -0.12893458448E+03  0.13925483335E+03  0.00000000000E+00 0.  1.
         21    1    1    2  504  505 -0.15952804290E+03 -0.21253524828E+02 -0.27907981188E+02  0.16333941412E+03  0.00000000000E+00 0.  1.
         21    1    1    2  505  502 -0.22079601355E+02  0.27437823923E+02  0.10566676855E+03  0.11138136717E+03  0.00000000000E+00 0.  1.
          2    1    1    2  501    0  0.22834505940E+03  0.17969283704E+02 -0.37212384624E+03  0.43696741097E+03  0.00000000000E+00 0.  1.
<scales pt_clust_3="52.98064" pt_clust_4="14000.00000" pt_clust_5="35.21850" pt_clust_6="184.98733"></scales>
<clustering>
<clus scale="   35.219">  1  5  2 -1</clus>
<clus scale="   52.981">  2  3  1 -1</clus>
<clus scale="  184.987">  2  6  1 -1</clus>
<clus scale="   35.219">  1  3  2 -1</clus>
</clustering>
</event>
<event>
 6    0  0.1230761E+002  0.1318716E+03  0.7546771E-02  0.1224705E+00
         21   -1    0    0  503  502  0.00000000000E+00  0.00000000000E+00  0.15132720590E+04  0.15132720590E+04  0.00000000000E+00 0. -1.
         -3   -1    0    0    0  501 -0.00000000000E+00 -0.00000000000E+00 -0.12456286414E+03  0.12456286414E+03  0.00000000000E+00 0. -1.
         21    1    1    2  503  504 -0.74678694860E+02 -0.25840822732E+02  0.13416617744E+03  0.15570876261E+03  0.00000000000E+00 0. -1.
         21    1    1    2  504  501 -0.31073566551E+02 -0.12124935106E+03 -0.23913443702E+02  0.12743164623E+03  0.00000000000E+00 0.  1.
         21    1    1    2  505  502  0.11733804674E+03 -0.14974368496E+02  0.11250070782E+04  0.11312088114E+04  0.00000000000E+00 0. -1.
         -3    1    1    2    0  505 -0.11585785330E+02  0.16206454229E+03  0.15344938293E+03  0.22348570292E+03  0.00000000000E+00 0. -1.
<scales pt_clust_3="79.02313" pt_clust_4="14000.00000" pt_clust_5="66.53142" pt_clust_6="131.87156"></scales>
<clustering>
<clus scale="   79.023">  1  3  2 -1</clus>
<clus scale="   66.531">  1  5  2 -1</clus>
<clus scale="  131.872">  1  6  2 -1</clus>
<clus scale="   79.023">  1  3  2 -1</clus>
</clustering>
</event>
<event>
 6    0  0.1230761E+002  0.2344530E+03  0.7546771E-02  0.1123544E+00
         -2   -1    0    0    0  501 -0.00000000000E+00  0.00000000000E+00  0.19982883460E+02  0.19982883460E+02  0.00000000000E+00 0. -1.
         21   -1    0    0  505  502  0.00000000000E+00 -0.00000000000E+00 -0.38899346155E+04  0.38899346155E+04  0.00000000000E+00 0. -1.
         21    1    1    2  503  504  0.13774401082E+03 -0.25638002532E+02 -0.12698632724E+04  0.12775693524E+04  0.00000000000E+00 0. -1.
         21    1    1    2  504  502  0.77895140232E+02  0.21122286513E+02 -0.90728660388E+03  0.91086924717E+03  0.00000000000E+00 0.  1.
         21    1    1    2  505  501  0.37260446925E+02 -0.41541047862E+02 -0.29083189145E+03  0.29613711123E+03  0.00000000000E+00 0.  1.
         -2    1    1    2    0  503 -0.25289959798E+03  0.46056763881E+02 -0.14019699643E+04  0.14253417882E+04  0.00000000000E+00 0. -1.
<scales pt_clust_3="39.88231" pt_clust_4="39.88231" pt_clust_5="55.80322" pt_clust_6="228.48835"></scales>
<clustering>
<clus scale="   39.882">  3  4 -1 -1</clus>
<clus scale="   55.803">  1  5  2 -1</clus>
<clus scale="  228.488">  1  6  2 -1</clus>
<clus scale="  234.453">  2  3  1 -1</clus>
</clustering>
</event>
<event>
 6    0  0.1230761E+002  0.1085910E+03  0.7546771E-02  0.1263202E+00
          1   -1    0    0  504    0 -0.00000000000E+00  0.00000000000E+00  0.88807838668E+03  0.88807838668E+03  0.00000000000E+00 0.  1.
         21   -1    0    0  501  502  0.00000000000E+00 -0.00000000000E+00 -0.11615332146E+03  0.11615332146E+03  0.00000000000E+00 0. -1.
         21    1    1    2  503  505  0.18969465176E+02 -0.31269867040E+02  0.11277181471E+03  0.11855432251E+03  0.00000000000E+00 0. -1.
         21    1    1    2  504  503  0.24177975771E+01  0.35195381010E+02  0.54437418558E+02  0.64869045999E+02  0.00000000000E+00 0. -1.
         21    1    1    2  505  502 -0.99648096472E+02 -0.45231627637E+02 -0.76722111583E+02  0.13364851542E+03  0.00000000000E+00 0. -1.
          1    1    1    2  501    0  0.78260833719E+02  0.41306113667E+02  0.68143794354E+03  0.68715982421E+03  0.00000000000E+00 0.  1.
<scales pt_clust_3="32.67106" pt_clust_4="35.27833" pt_clust_5="14000.00000" pt_clust_6="108.59099"></scales>
<clustering>
<clus scale="   35.278">  1  4  2 -1</clus>
<clus scale="   32.671">  1  3  2 -1</clus>
<clus scale="  108.591">  1  6  2 -1</clus>
<clus scale="  108.591">  2  3  1 -1</clus>
</clustering>
</event>
<event>
 6    0  0.1230761E+002  0.1101518E+03  0.7546771E-02  0.1260289E+00
         21   -1    0    0  504  502  0.00000000000E+00  0.00000000000E+00  0.10855583383E+04  0.10855583383E+04  0.00000000000E+00 0.  1.
          3   -1    0    0  505    0 -0.00000000000E+00 -0.00000000000E+00 -0.74154007409E+02  0.74154007409E+02  0.00000000000E+00 0.  1.
         21    1    1    2  503  502  0.29700824591E+02 -0.92272792406E+02  0.66857554534E+03  0.67556618257E+03  0.00000000000E+00 0.  1.
         21    1    1    2  504  501 -0.77501406623E+02 -0.57907154909E+01  0.20057625243E+03  0.21510656302E+03  0.00000000000E+00 0.  1.
         21    1    1    2  505  503  0.56761007054E+01 -0.53657236842E+02  0.86600626478E+02  0.10203423784E+03  0.00000000000E+00 0.  1.
          3    1    1    2  501    0  0.42124481327E+02  0.15172074474E+03  0.55651906602E+02  0.16700536225E+03  0.00000000000E+00 0.  1.
<scales pt_clust_3="110.15177" pt_clust_4="77.75963" pt_clust_5="53.95662" pt_clust_6="14000.00000"></scales>
<clustering>
<clus scale="   53.957">  2  5  1 -1</clus>
<clus scale="   77.760">  1  4  2 -1</clus>
<clus scale="  110.152">  1  3  2 -1</clus>
<clus scale="   77.760">  1  3  2 -1</clus>
</clustering>
</event>
<event>
 6    0  0.1230761E+002  0.8830835E+02  0.7546771E-02  0.1307001E+00
         21   -1    0    0  504  502  0.00000000000E+00  0.00000000000E+00  0.15461444929E+03  0.15461444929E+03  0.00000000000E+00 0.  1.
          2   -1    0    0  503    0 -0.00000000000E+00 -0.00000000000E+00 -0.83130641301E+03  0.83130641301E+03  0.00000000000E+00 0. -1.
         21    1    1    2  503  505  0.22934936766E+02  0.60217871203E+02 -0.19307459584E+03  0.20354361424E+03  0.00000000000E+00 0.  1.
         21    1    1    2  504  501 -0.19732099968E+02 -0.26020843473E+02 -0.95824552687E+01  0.34033270680E+02  0.00000000000E+00 0. -1.
         21    1    1    2  505  502  0.71471433164E+02  0.55625371597E+02  0.11582483400E+03  0.14702972452E+03  0.00000000000E+00 0.  1.
          2    1    1    2  501    0 -0.74674269962E+02 -0.89822399328E+02 -0.58985974661E+03  0.60131425286E+03  0.00000000000E+00 0. -1.
<scales pt_clust_3="88.30835" pt_clust_4="32.65639" pt_clust_5="61.93146" pt_clust_6="14000.00000"></scales>
<clustering>
<clus scale="   32.656">  1  4  2 -1</clus>
<clus scale="   61.931">  1  5  2 -1</clus>
<clus scale="   88.308">  2  3  1 -1</clus>
<clus scale="   32.656">  1  3  2 -1</clus>
</clustering>
</event>
<event>
 6    0  0.1230761E+002  0.1155950E+03  0.7546771E-02  0.1250546E+00
          2   -1    0    0  503    0 -0.00000000000E+00  0.00000000000E+00  0.87001856543E+03  0.87001856543E+03  0.00000000000E+00 0. -1.
         21   -1    0    0  505  502  0.00000000000E+00 -0.00000000000E+00 -0.84387149835E+02  0.84387149835E+02  0.00000000000E+00 0.  1.
         21    1    1    2  503  504 -0.29991740449E+02 -0.38135427737E+02  0.12879051093E+03  0.13762561917E+03  0.00000000000E+00 0.  1.
         21    1    1    2  504  502 -0.43264223069E+02 -0.70439398833E+02  0.30368803928E+02  0.88066827794E+02  0.00000000000E+00 0.  1.
         21    1    1    2  505  501  0.37089704334E+02 -0.52314633046E+02 -0.15437450829E+02  0.65960456991E+02  0.00000000000E+00 0.  1.
          2    1    1    2  501    0  0.36166259184E+02  0.16088945962E+03  0.64190955157E+03  0.66275281132E+03  0.00000000000E+00 0. -1.
<scales pt_clust_3="48.51613" pt_clust_4="14000.00000" pt_clust_5="64.62010" pt_clust_6="115.59498"></scales>
<clustering>
<clus scale="   48.516">  1  3  2 -1</clus>
<clus scale="   64.620">  2  5  1 -1</clus>
<clus scale="  115.595">  1  6  2 -1</clus>
<clus scale="   64.620">  2  3  1 -1</clus>
</clustering>
</event>
<event>
 6    0  0.1230761E+002  0.8652178E+02  0.7546771E-02  0.1311500E+00
         21   -1    0    0  505  502  0.00000000000E+00  0.00000000000E+00  0.32548071466E+02  0.32548071466E+02  0.00000000000E+00 0. -1.
          2   -1    0    0  503    0 -0.00000000000E+00 -0.00000000000E+00 -0.24214316695E+04  0.24214316695E+04  0.00000000000E+00 0. -1.
         21    1    1    2  503  502  0.28249083283E+02  0.14873802063E+02 -0.37172080031E+03  0.37308925752E+03  0.00000000000E+00 0.  1.
         21    1    1    2  504  501  0.16191721245E+02  0.69080045978E+02 -0.11266402683E+03  0.13314431092E+03  0.00000000000E+00 0. -1.
         21    1    1    2  505  504 -0.65195036160E+02  0.91450619480E+01 -0.32679399142E+02  0.73498081786E+02  0.00000000000E+00 0. -1.
          2    1    1    2  501    0  0.20754231631E+02 -0.93098909990E+02 -0.18718193717E+04  0.18742480907E+04  0.00000000000E+00 0. -1.
<scales pt_clust_3="31.92555" pt_clust_4="86.52178" pt_clust_5="65.16382" pt_clust_6="14000.00000"></scales>
<clustering>
<clus scale="   31.926">  2  3  1 -1</clus>
<clus scale="   65.164">  1  5  2 -1</clus>
<clus scale="   86.522">  1  4  2 -1</clus>
<clus scale="   65.164">  1  3  2 -1</clus>
</clustering>
</event>
<event>
 6    0  0.1230761E+002  0.1051750E+03  0.7546771E-02  0.1269775E+00
         21   -1    0    0  504  502  0.00000000000E+00  0.00000000000E+00  0.15631799560E+03  0.15631799560E+03  0.00000000000E+00 0. -1.
         -3   -1    0    0    0  501 -0.00000000000E+00 -0.00000000000E+00 -0.10174357796E+04  0.10174357796E+04  0.00000000000E+00 0. -1.
         21    1    1    2  503  505  0.46361784027E+02 -0.34341097442E+02 -0.16649140802E+03  0.17620475287E+03  0.00000000000E+00 0. -1.
         21    1    1    2  504  501 -0.14893567322E+01 -0.82757802962E+02  0.23746943155E+02  0.86110332967E+02  0.00000000000E+00 0. -1.
         21    1    1    2  505  502 -0.29730654353E+02  0.14471936630E+03  0.39484247329E+02  0.15292682099E+03  0.00000000000E+00 0. -1.
         -3    1    1    2    0  503 -0.15141772942E+02 -0.27620465895E+02 -0.75785756643E+03  0.75851186834E+03  0.00000000000E+00 0. -1.
<scales pt_clust_3="63.93748" pt_clust_4="105.17503" pt_clust_5="14000.00000" pt_clust_6="31.49863"></scales>
<clustering>
<clus scale="   31.499">  2  6  1 -1</clus>
<clus scale="   63.937">  2  3  1 -1</clus>
<clus scale="  105.175">  1  4  2 -1</clus>
<clus scale="  105.175">  1  3  2 -1</clus>
</clustering>
</event>
<event>
 6    0  0.1230761E+002  0.9831721E+02  0.7546771E-02  0.1283875E+00
          1   -1    0    0  504    0 -0.00000000000E+00  0.00000000000E+00  0.28484024827E+03  0.28484024827E+03  0.00000000000E+00 0.  1.
         21   -1    0    0  505  502  0.00000000000E+00 -0.00000000000E+00 -0.12941027988E+03  0.12941027988E+03  0.00000000000E+00 0.  1.
         21    1    1    2  503  502  0.14191631840E+02 -0.12079335023E+03 -0.10260730384E+02  0.12205621025E+03  0.00000000000E+00 0.  1.
         21    1    1    2  504  503 -0.42458207592E+02 -0.29798495554E+02  0.63665577960E+02  0.82121590012E+02  0.00000000000E+00 0.  1.
         21    1    1    2  505  501 -0.11425644455E+02  0.42379989973E+02 -0.14447298919E+02  0.46209667250E+02  0.00000000000E+00 0.  1.
          1    1    1    2  501    0  0.39692220206E+02  0.10821185581E+03  0.11647241973E+03  0.16386306064E+03  0.00000000000E+00 0.  1.
<scales pt_clust_3="98.31721" pt_clust_4="50.62104" pt_clust_5="43.89315" pt_clust_6="14000.00000"></scales>
<clustering>
<clus scale="   43.893">  2  5  1 -1</clus>
<clus scale="   50.621">  1  4  2 -1</clus>
<clus scale="   98.317">  2  3  1 -1</clus>
<clus scale="   43.893">  2  3  1 -1</clus>
</clustering>
</event>
<event>
 6    0  0.1230761E+002  0.1404751E+03  0.7546771E-02  0.1212691E+00
          2   -1    0    0  503    0 -0.00000000000E+00  0.00000000000E+00  0.35087944542E+04  0.35087944542E+04  0.00000000000E+00 0. -1.
         21   -1    0    0  504  502  0.00000000000E+00 -0.00000000000E+00 -0.63937735571E+03  0.63937735571E+03  0.00000000000E+00 0. -1.
         21    1    1    2  503  502 -0.82318176927E+00  0.55728563710E+02 -0.26623440572E+03  0.27200571544E+03  0.00000000000E+00 0. -1.
         21    1    1    2  504  505 -0.21770003964E+02 -0.21809928386E+02 -0.35367602336E+03  0.35501596520E+03  0.00000000000E+00 0. -1.
         21    1    1    2  505  501 -0.54603651701E+01  0.10751780125E+03  0.18774992028E+03  0.21642533525E+03  0.00000000000E+00 0. -1.
          2    1    1    2  501    0  0.28053550903E+02 -0.14143643658E+03  0.33015776073E+04  0.33047247940E+04  0.00000000000E+00 0. -1.
<scales pt_clust_3="41.12862" pt_clust_4="30.81568" pt_clust_5="140.47510" pt_clust_6="14000.00000"></scales>
<clustering>
<clus scale="   30.816">  2  4  1 -1</clus>
<clus scale="   41.129">  2  3  1 -1</clus>
<clus scale="  140.475">  2  5  1 -1</clus>
<clus scale="   30.816">  2  3  1 -1</clus>
</clustering>
</event>
<event>
 6    0  0.1230761E+002  0.1492379E+03  0.7546771E-02  0.1201413E+00
         21   -1    0    0  501  502  0.00000000000E+00  0.00000000000E+00  0.36280332023E+02  0.36280332023E+02  0.00000000000E+00 0.  1.
          1   -1    0    0  504    0 -0.00000000000E+00 -0.00000000000E+00 -0.13645149753E+04  0.13645149753E+04  0.00000000000E+00 0. -1.
         21    1    1    2  503  505  0.50029115173E+02 -0.22691595093E+01 -0.97094212070E+02  0.10924901586E+03  0.00000000000E+00 0.  1.
         21    1    1    2  504  503  0.35686830251E+02  0.30960309338E+02 -0.15653841409E+03  0.16351258573E+03  0.00000000000E+00 0.  1.
         21    1    1    2  505  502  0.85002784383E+02  0.20296054251E+02 -0.82575783472E+02  0.12023378555E+03  0.00000000000E+00 0.  1.
          1    1    1    2  501    0 -0.17071872981E+03 -0.48987204079E+02 -0.99202623364E+03  0.10077999202E+04  0.00000000000E+00 0. -1.
<scales pt_clust_3="32.31676" pt_clust_4="47.24501" pt_clust_5="32.31676" pt_clust_6="143.00167"></scales>
<clustering>
<clus scale="   32.317">  3  5 -1 -1</clus>
<clus scale="   47.245">  2  4  1 -1</clus>
<clus scale="  143.002">  2  6  1 -1</clus>
<clus scale="  149.238">  1  3  2 -1</clus>
</clustering>
</event>
<event>
 6    0  0.1230761E+002  0.1245956E+03  0.7546771E-02  0.1235703E+00
         21   -1    0    0  504  502  0.00000000000E+00  0.00000000000E+00  0.15836729459E+03  0.15836729459E+03  0.00000000000E+00 0.  1.
         -3   -1    0    0    0  501 -0.00000000000E+00 -0.00000000000E+00 -0.16090915837E+03  0.16090915837E+03  0.00000000000E+00 0.  1.
         21    1    1    2  503  505 -0.20821421546E+02 -0.35161755658E+02 -0.15127918561E+01  0.40892165452E+02  0.00000000000E+00 0.  1.
         21    1    1    2  504  503 -0.26253800449E+01 -0.67365968951E+02  0.50933598031E+02  0.84494365501E+02  0.00000000000E+00 0.  1.
         21    1    1    2  505  501 -0.33081858013E+02 -0.22395446630E+02 -0.39543603530E+02  0.56210870297E+02  0.00000000000E+00 0.  1.
         -3    1    1    2    0  502  0.56528659604E+02  0.12492317124E+03 -0.12419066417E+02  0.13767905171E+03  0.00000000000E+00 0.  1.
<scales pt_clust_3="36.66365" pt_clust_4="36.66365" pt_clust_5="39.94954" pt_clust_6="115.35333"></scales>
<clustering>
<clus scale="   36.664">  3  4 -1 -1</clus>
<clus scale="   39.950">  2  5  1 -1</clus>
<clus scale="  115.353">  2  6  1 -1</clus>
<clus scale="  124.596">  1  3  2 -1</clus>
</clustering>
</event>
<event>
 6    0  0.1230761E+002  0.9475169E+02  0.7546771E-02  0.1291736E+00
          2   -1    0    0  504    0 -0.00000000000E+00  0.00000000000E+00  0.11545806365E+04  0.11545806365E+04  0.00000000000E+00 0.  1.
         21   -1    0    0  505  502  0.00000000000E+00 -0.00000000000E+00 -0.17533953436E+03  0.17533953436E+03  0.00000000000E+00 0.  1.
         21    1    1    2  503  501 -0.60160856591E+01 -0.82736537773E+02  0.60196356487E+02  0.10249453304E+03  0.00000000000E+00 0. -1.
         21    1    1    2  504  502  0.17758529184E+02  0.25854865235E+02  0.15320925199E+02  0.34908024350E+02  0.00000000000E+00 0. -1.
         21    1    1    2  505  503 -0.64903111018E+02  0.71969976855E+02 -0.12731233123E+03  0.16000162834E+03  0.00000000000E+00 0.  1.
          2    1    1    2  501    0  0.53160667493E+02 -0.15088304317E+02  0.10310361517E+04  0.10325159851E+04  0.00000000000E+00 0.  1.
<scales pt_clust_3="94.75169" pt_clust_4="31.36621" pt_clust_5="14000.00000" pt_clust_6="55.30538"></scales>
<clustering>
<clus scale="   31.366">  2  4  1 -1</clus>
<clus scale="   55.305">  1  6  2 -1</clus>
<clus scale="   94.752">  1  3  2 -1</clus>
<clus scale="   31.366">  2  3  1 -1</clus>
</clustering>
</event>
<event>
 6    0  0.1230761E+002  0.1425175E+03  0.7546771E-02  0.1209981E+00
         21   -1    0    0  504  502  0.00000000000E+00  0.00000000000E+00  0.22498732344E+03  0.22498732344E+03  0.00000000000E+00 0.  1.
         -1   -1    0    0    0  501 -0.00000000000E+00 -0.00000000000E+00 -0.47292528105E+03  0.47292528105E+03  0.00000000000E+00 0.  1.
         21    1    1    2  503  502 -0.23984228930E+02 -0.28687193973E+02  0.89733143280E+02  0.97212320918E+02  0.00000000000E+00 0.  1.
         21    1    1    2  504  501  0.49049236782E+02  0.24633022403E+02 -0.12527721576E+03  0.13677351428E+03  0.00000000000E+00 0. -1.
         21    1    1    2  505  503  0.44836681513E+02 -0.11855476156E+03  0.72478607733E+02  0.14600927394E+03  0.00000000000E+00 0.  1.
         -1    1    1    2    0  505 -0.69901689365E+02  0.12260893313E+03 -0.28487249287E+03  0.31791749535E+03  0.00000000000E+00 0.  1.
<scales pt_clust_3="37.39249" pt_clust_4="53.39174" pt_clust_5="14000.00000" pt_clust_6="142.51753"></scales>
<clustering>
<clus scale="   37.392">  1  3  2 -1</clus>
<clus scale="   53.392">  2  4  1 -1</clus>
<clus scale="  142.518">  2  6  1 -1</clus>
<clus scale="   37.392">  1  3  2 -1</clus>
</clustering>
</event>
<event>
 6    0  0.1230761E+002  0.8132412E+02  0.7546771E-02  0.1325335E+00
         21   -1    0    0  504  502  0.00000000000E+00  0.00000000000E+00  0.23227958175E+03  0.23227958175E+03  0.00000000000E+00 0. -1.
          2   -1    0    0  503    0 -0.00000000000E+00 -0.00000000000E+00 -0.11618244419E+04  0.11618244419E+04  0.00000000000E+00 0. -1.
         21    1    1    2  503  502  0.59784421800E+01 -0.49686951690E+02 -0.33597419789E+02  0.60277040037E+02  0.00000000000E+00 0. -1.
         21    1    1    2  504  505  0.48219939379E+02  0.49322472309E+02  0.18611108128E+03  0.19848224960E+03  0.00000000000E+00 0. -1.
         21    1    1    2  505  501 -0.31357815427E+02  0.79287171161E+02 -0.47642213011E+02  0.97670612569E+02  0.00000000000E+00 0. -1.
          2    1    1    2  501    0 -0.22840566132E+02 -0.78922691780E+02 -0.10344163086E+04  0.10376741214E+04  0.00000000000E+00 0. -1.
<scales pt_clust_3="50.04533" pt_clust_4="53.77190" pt_clust_5="81.32412" pt_clust_6="14000.00000"></scales>
<clustering>
<clus scale="   50.045">  1  3  2 -1</clus>
<clus scale="   53.772">  1  4  2 -1</clus>
<clus scale="   81.324">  1  5  2 -1</clus>
<clus scale="   50.045">  1  3  2 -1</clus>
</clustering>
</event>
<event>
 6    0  0.1230761E+002  0.2420509E+03  0.7546771E-02  0.1118434E+00
          2   -1    0    0  505    0 -0.00000000000E+00  0.00000000000E+00  0.13671055300E+04  0.13671055300E+04  0.00000000000E+00 0. -1.
         21   -1    0    0  501  502  0.00000000000E+00 -0.00000000000E+00 -0.16347253447E+03  0.16347253447E+03  0.00000000000E+00 0. -1.
         21    1    1    2  503  504  0.33711675286E+02  0.25271036856E+02  0.25139948601E+02  0.49062402815E+02  0.00000000000E+00 0.  1.
         21    1    1    2  504  502  0.17118174525E+03  0.31833116092E+02 -0.60998809568E+01  0.17422326405E+03  0.00000000000E+00 0. -1.
         21    1    1    2  505  503  0.94689967591E+02 -0.25509108673E+02  0.85565326001E+03  0.86125455352E+03  0.00000000000E+00 0. -1.
          2    1    1    2  501    0 -0.29958338813E+03 -0.31595044275E+02  0.32893966791E+03  0.44603784413E+03  0.00000000000E+00 0. -1.
<scales pt_clust_3="32.07530" pt_clust_4="32.07530" pt_clust_5="98.06582" pt_clust_6="233.10268"></scales>
<clustering>
<clus scale="   32.075">  3  4 -1 -1</clus>
<clus scale="   98.066">  1  5  2 -1</clus>
<clus scale="  233.103">  1  6  2 -1</clus>
<clus scale="  242.051">  2  3  1 -1</clus>
</clustering>
</event>
<event>
 6    0  0.1230761E+002  0.8015171E+02  0.7546771E-02  0.1328621E+00
          1   -1    0    0  503    0 -0.00000000000E+00  0.00000000000E+00  0.10986610113E+04  0.10986610113E+04  0.00000000000E+00 0. -1.
         21   -1    0    0  505  502  0.00000000000E+00 -0.00000000000E+00 -0.48458036680E+02  0.48458036680E+02  0.00000000000E+00 0.  1.
         21    1    1    2  503  502 -0.38296911515E+02 -0.23639125321E+02  0.35754611878E+03  0.36036743573E+03  0.00000000000E+00 0.  1.
         21    1    1    2  504  501 -0.25140990110E+02  0.11270649776E+03  0.95178865682E+02  0.14964571659E+03  0.00000000000E+00 0.  1.
         21    1    1    2  505  504  0.41327294639E+02 -0.32087706629E+02  0.19394895203E+02  0.55800789948E+02  0.00000000000E+00 0.  1.
          1    1    1    2  501    0  0.22110606985E+02 -0.56979665813E+02  0.57808309496E+03  0.58130510572E+03  0.00000000000E+00 0. -1.
<scales pt_clust_3="45.00513" pt_clust_4="14000.00000" pt_clust_5="51.56564" pt_clust_6="80.15171"></scales>
<clustering>
<clus scale="   45.005">  1  3  2 -1</clus>
<clus scale="   51.566">  2  5  1 -1</clus>
<clus scale="   80.152">  1  6  2 -1</clus>
<clus scale="   51.566">  2  3  1 -1</clus>
</clustering>
</event>
<event>
 6    0  0.1230761E+002  0.8916903E+02  0.7546771E-02  0.1304877E+00
          2   -1    0    0  503    0 -0.00000000000E+00  0.00000000000E+00  0.12810621117E+03  0.12810621117E+03  0.00000000000E+00 0.  1.
         21   -1    0    0  501  502  0.00000000000E+00 -0.00000000000E+00 -0.32620050494E+03  0.32620050494E+03  0.00000000000E+00 0.  1.
         21    1    1    2  503  505  0.17927829072E+02  0.35771109592E+02  0.27028433925E+02  0.48285769924E+02  0.00000000000E+00 0.  1.
         21    1    1    2  504  502 -0.32930556548E+01  0.49849380858E+02 -0.13330790222E+03  0.14236151791E+03  0.00000000000E+00 0.  1.
         21    1    1    2  505  504 -0.57540640791E+02  0.25647389081E+02 -0.12491121217E+03  0.13989826602E+03  0.00000000000E+00 0.  1.
          2    1    1    2  501    0  0.42905867374E+02 -0.11126787953E+03  0.33096386701E+02  0.12376116226E+03  0.00000000000E+00 0.  1.
<scales pt_clust_3="40.01224" pt_clust_4="51.69520" pt_clust_5="14000.00000" pt_clust_6="89.16903"></scales>
<clustering>
<clus scale="   40.012">  1  3  2 -1</clus>
<clus scale="   51.695">  2  4  1 -1</clus>
<clus scale="   89.169">  1  6  2 -1</clus>
<clus scale="   51.695">  2  3  1 -1</clus>
</clustering>
</event>
<event>
 6    0  0.1230761E+002  0.1090059E+03  0.7546771E-02  0.1262422E+00
         21   -1    0    0  505  502  0.00000000000E+00  0.00000000000E+00  0.60997430571E+02  0.60997430571E+02  0.00000000000E+00 0.  1.
          1   -1    0    0  504    0 -0.00000000000E+00 -0.00000000000E+00 -0.82667492275E+03  0.82667492275E+03  0.00000000000E+00 0.  1.
         21    1    1    2  503  502 -0.24982148515E+02 -0.91266494145E+02 -0.36202496812E+02  0.10131288898E+03  0.00000000000E+00 0.  1.
         21    1    1    2  504  503  0.27794358105E+02 -0.23659000631E+02 -0.14352597820E+03  0.14809450048E+03  0.00000000000E+00 0.  1.
         21    1    1    2  505  501 -0.30033916293E+02 -0.57248475879E+01  0.79763261996E+01  0.31597971256E+02  0.00000000000E+00 0.  1.
          1    1    1    2  501    0  0.27221706704E+02  0.12065034236E+03 -0.59392534336E+03  0.60666699261E+03  0.00000000000E+00 0.  1.
<scales pt_clust_3="109.00591" pt_clust_4="35.46294" pt_clust_5="30.57466" pt_clust_6="14000.00000"></scales>
<clustering>
<clus scale="   30.575">  1  5  2 -1</clus>
<clus scale="   35.463">  2  4  1 -1</clus>
<clus scale="  109.006">  1  3  2 -1</clus>
<clus scale="   30.575">  1  3  2 -1</clus>
</clustering>
</event>
<event>
 6    0  0.1230761E+002  0.1420741E+03  0.7546771E-02  0.1210565E+00
         21   -1    0    0  505  502  0.00000000000E+00  0.00000000000E+00  0.14322706311E+04  0.14322706311E+04  0.00000000000E+00 0.  1.
          2   -1    0    0  504    0 -0.00000000000E+00 -0.00000000000E+00 -0.39525655241E+03  0.39525655241E+03  0.00000000000E+00 0.  1.
         21    1    1    2  503  502 -0.10671863686E+03  0.93226467685E+02  0.10274706674E+04  0.10371962274E+04  0.00000000000E+00 0.  1.
         21    1    1    2  504  503 -0.36853503924E+02 -0.49600254340E+01 -0.68151852062E+02  0.77636702295E+02  0.00000000000E+00 0.  1.
         21    1    1    2  505  501 -0.27546520741E+02 -0.13946694417E+03  0.35524736781E+03  0.38263629161E+03  0.00000000000E+00 0.  1.
          2    1    1    2  501    0  0.17111866152E+03  0.51200501919E+02 -0.27755210447E+03  0.33005796220E+03  0.00000000000E+00 0.  1.
<scales pt_clust_3="142.07414" pt_clust_4="37.18578" pt_clust_5="14000.00000" pt_clust_6="140.22669"></scales>
<clustering>
<clus scale="   37.186">  2  4  1 -1</clus>
<clus scale="  142.074">  1  3  2 -1</clus>
<clus scale="  140.227">  2  6  1 -1</clus>
<clus scale="  142.074">  1  3  2 -1</clus>
</clustering>
</event>
<event>
 6    0  0.1230761E+002  0.1025949E+03  0.7546771E-02  0.1274932E+00
         21   -1    0    0  503  502  0.00000000000E+00  0.00000000000E+00  0.16261475764E+03  0.16261475764E+03  0.00000000000E+00 0.  1.
          2   -1    0    0  505    0 -0.00000000000E+00 -0.00000000000E+00 -0.19626478212E+04  0.19626478212E+04  0.00000000000E+00 0. -1.
         21    1    1    2  503  501  0.85392911615E+02 -0.37747194994E+02 -0.65149606290E+03  0.65815189740E+03  0.00000000000E+00 0.  1.
         21    1    1    2  504  502  0.83473047123E+01 -0.67269481501E+02  0.14451264748E+03  0.15962069389E+03  0.00000000000E+00 0.  1.
         21    1    1    2  505  504 -0.32937545756E+02  0.21542011474E+01 -0.58487507946E+02  0.67158849668E+02  0.00000000000E+00 0. -1.
          2    1    1    2  501    0 -0.60802670572E+02  0.10286247535E+03 -0.12345621402E+04  0.12403311379E+04  0.00000000000E+00 0. -1.
<scales pt_clust_3="102.59489" pt_clust_4="67.76090" pt_clust_5="33.00792" pt_clust_6="14000.00000"></scales>
<clustering>
<clus scale="   33.008">  2  5  1 -1</clus>
<clus scale="   67.761">  1  4  2 -1</clus>
<clus scale="  102.595">  1  3  2 -1</clus>
<clus scale="   67.761">  1  3  2 -1</clus>
</clustering>
</event>
<event>
 6    0  0.1230761E+002  0.6404991E+02  0.7546771E-02  0.1381581E+00
         21   -1    0    0  505  502  0.00000000000E+00  0.00000000000E+00  0.52310032337E+03  0.52310032337E+03  0.00000000000E+00 0. -1.
          4   -1    0    0  503    0 -0.00000000000E+00 -0.00000000000E+00 -0.28174715747E+03  0.28174715747E+03  0.00000000000E+00 0.  1.
         21    1    1    2  503  504 -0.44683350884E+02  0.28020892191E+02 -0.63471854638E+02  0.82525441996E+02  0.00000000000E+00 0. -1.
         21    1    1    2  504  502 -0.41412906319E+02 -0.10681582920E+02  0.42049197600E+02  0.59977162673E+02  0.00000000000E+00 0.  1.
         21    1    1    2  505  501  0.92018031977E+02  0.49580152730E+02  0.45075821400E+03  0.46271857240E+03  0.00000000000E+00 0. -1.
          4    1    1    2  501    0 -0.59217747747E+01 -0.66919462002E+02 -0.18798239106E+03  0.19962630378E+03  0.00000000000E+00 0.  1.
<scales pt_clust_3="53.33969" pt_clust_4="42.76827" pt_clust_5="14000.00000" pt_clust_6="64.04991"></scales>
<clustering>
<clus scale="   42.768">  1  4  2 -1</clus>
<clus scale="   53.340">  2  3  1 -1</clus>
<clus scale="   64.050">  2  6  1 -1</clus>
<clus scale="   42.768">  1  3  2 -1</clus>
</clustering>
</event>
<event>
 6    0  0.1230761E+002  0.1109822E+03  0.7546771E-02  0.1258762E+00
         21   -1    0    0  501  502  0.00000000000E+00  0.00000000000E+00  0.31493092792E+03  0.31493092792E+03  0.00000000000E+00 0. -1.
          2   -1    0    0  503    0 -0.00000000000E+00 -0.00000000000E+00 -0.97730445306E+02  0.97730445306E+02  0.00000000000E+00 0. -1.
         21    1    1    2  503  504  0.26834976374E+02  0.31293842888E+02  0.31445291591E+01  0.41343785788E+02  0.00000000000E+00 0. -1.
         21    1    1    2  504  505 -0.14886353523E+02  0.59703476329E+02 -0.22062479098E+02  0.65367129285E+02  0.00000000000E+00 0. -1.
         21    1    1    2  505  502  0.35779779288E+02  0.17205831596E+02  0.16105770097E+03  0.16587892056E+03  0.00000000000E+00 0. -1.
          2    1    1    2  501    0 -0.47728402139E+02 -0.10820315081E+03  0.75060731590E+02  0.14007153759E+03  0.00000000000E+00 0. -1.
<scales pt_clust_3="43.94091" pt_clust_4="43.94091" pt_clust_5="39.70180" pt_clust_6="98.54443"></scales>
<clustering>
<clus scale="   39.702">  1  5  2 -1</clus>
<clus scale="   43.941">  3  4 -1 -1</clus>
<clus scale="   98.544">  1  6  2 -1</clus>
<clus scale="   39.702">  1  3  2 -1</clus>
</clustering>
</event>
<event>
 6    0  0.1230761E+002  0.7506811E+02  0.7546771E-02  0.1343660E+00
         -3   -1    0    0    0  501 -0.00000000000E+00  0.00000000000E+00  0.19167505881E+02  0.19167505881E+02  0.00000000000E+00 0. -1.
         21   -1    0    0  503  502  0.00000000000E+00 -0.00000000000E+00 -0.16741275686E+04  0.16741275686E+04  0.00000000000E+00 0. -1.
         21    1    1    2  503  505 -0.44153781317E+02  0.81875510129E+01 -0.56934468807E+03  0.57111291898E+03  0.00000000000E+00 0. -1.
         21    1    1    2  504  501 -0.14256195991E+02 -0.39248108720E+02 -0.12816460193E+03  0.13479546859E+03  0.00000000000E+00 0.  1.
         21    1    1    2  505  504 -0.20288480822E+02 -0.52199354985E+02 -0.73533498907E+03  0.73746453560E+03  0.00000000000E+00 0. -1.
         -3    1    1    2    0  502  0.78698458130E+02  0.83259912692E+02 -0.22211578365E+03  0.24992215132E+03  0.00000000000E+00 0. -1.
<scales pt_clust_3="45.34739" pt_clust_4="41.75707" pt_clust_5="75.06811" pt_clust_6="14000.00000"></scales>
<clustering>
<clus scale="   41.757">  1  4  2 -1</clus>
<clus scale="   45.347">  2  3  1 -1</clus>
<clus scale="   75.068">  2  5  1 -1</clus>
<clus scale="   45.347">  2  3  1 -1</clus>
</clustering>
</event>
<event>
 6    0  0.1230761E+002  0.1174362E+03  0.7546771E-02  0.1247387E+00
         21   -1    0    0  503  502  0.00000000000E+00  0.00000000000E+00  0.82322174715E+02  0.82322174715E+02  0.00000000000E+00 0.  1.
          2   -1    0    0  505    0 -0.00000000000E+00 -0.00000000000E+00 -0.46151083194E+03  0.46151083194E+03  0.00000000000E+00 0. -1.
         21    1    1    2  503  501 -0.50628014201E+02 -0.72991436481E+02 -0.39987018521E+01  0.88920949376E+02  0.00000000000E+00 0.  1.
         21    1    1    2  504  502  0.89197562005E+02  0.27568493637E+02 -0.93396845375E+02  0.13205755425E+03  0.00000000000E+00 0. -1.
         21    1    1    2  505  504  0.50349155839E+02 -0.10709670706E+02 -0.76645468261E+02  0.92326931853E+02  0.00000000000E+00 0.  1.
          2    1    1    2  501    0 -0.88918703643E+02  0.56132613550E+02 -0.20514764174E+03  0.23052757118E+03  0.00000000000E+00 0. -1.
<scales pt_clust_3="88.83099" pt_clust_4="30.40329" pt_clust_5="30.40329" pt_clust_6="110.06703"></scales>
<clustering>
<clus scale="   30.403">  4  5 -1 -1</clus>
<clus scale="   88.831">  1  3  2 -1</clus>
<clus scale="  110.067">  2  6  1 -1</clus>
<clus scale="   88.831">  1  3  2 -1</clus>
</clustering>
</event>
<event>
 6    0  0.1230761E+002  0.7144894E+02  0.7546771E-02  0.1355234E+00
          2   -1    0    0  503    0 -0.00000000000E+00  0.00000000000E+00  0.27793147507E+03  0.27793147507E+03  0.00000000000E+00 0.  1.
         21   -1    0    0  504  502  0.00000000000E+00 -0.00000000000E+00 -0.10663108063E+03  0.10663108063E+03  0.00000000000E+00 0.  1.
         21    1    1    2  503  505  0.40326863320E+02  0.42784901650E+00  0.76153011621E+02  0.86172618267E+02  0.00000000000E+00 0.  1.
         21    1    1    2  504  501  0.12847093161E+02 -0.62289876112E+02 -0.26452199722E+02  0.68882474831E+02  0.00000000000E+00 0.  1.
         21    1    1    2  505  502  0.14912754434E+02  0.93834898892E+02  0.10851912484E+02  0.95630238416E+02  0.00000000000E+00 0.  1.
          2    1    1    2  501    0 -0.68086710914E+02 -0.31972871797E+02  0.11074767006E+03  0.13387722419E+03  0.00000000000E+00 0.  1.
<scales pt_clust_3="40.32913" pt_clust_4="14000.00000" pt_clust_5="71.44894" pt_clust_6="53.44147"></scales>
<clustering>
<clus scale="   40.329">  1  3  2 -1</clus>
<clus scale="   53.441">  1  6  2 -1</clus>
<clus scale="   71.449">  1  5  2 -1</clus>
<clus scale="   71.449">  2  3  1 -1</clus>
</clustering>
</event>
<event>
 6    0  0.1230761E+002  0.2006260E+03  0.7546771E-02  0.1149212E+00
          1   -1    0    0  505    0 -0.00000000000E+00  0.00000000000E+00  0.21667661572E+04  0.21667661572E+04  0.00000000000E+00 0. -1.
         21   -1    0    0  503  502  0.00000000000E+00 -0.00000000000E+00 -0.10560844968E+03  0.10560844968E+03  0.00000000000E+00 0. -1.
         21    1    1    2  503  504  0.38898718513E+02  0.67514075410E+02 -0.21485030111E+02  0.80826154179E+02  0.00000000000E+00 0. -1.
         21    1    1    2  504  501  0.80769784717E+02  0.68469472133E+02  0.21203194405E+02  0.10798797243E+03  0.00000000000E+00 0. -1.
         21    1    1    2  505  502 -0.36455304083E+02  0.39697756021E+02  0.11032877566E+03  0.12278981948E+03  0.00000000000E+00 0.  1.
          1    1    1    2  501    0 -0.83213199147E+02 -0.17568130356E+03  0.19511107675E+04  0.19607706608E+04  0.00000000000E+00 0. -1.
<scales pt_clust_3="45.70400" pt_clust_4="45.70400" pt_clust_5="53.89713" pt_clust_6="193.42228"></scales>
<clustering>
<clus scale="   45.704">  3  4 -1 -1</clus>
<clus scale="   53.897">  2  5  1 -1</clus>
<clus scale="  193.422">  1  6  2 -1</clus>
<clus scale="   53.897">  2  3  1 -1</clus>
</clustering>
</event>
<event>
 6    0  0.1230761E+002  0.9016664E+02  0.7546771E-02  0.1302449E+00
         21   -1    0    0  503  502  0.00000000000E+00  0.00000000000E+00  0.21144931599E+04  0.21144931599E+04  0.00000000000E+00 0. -1.
          1   -1    0    0  504    0 -0.00000000000E+00 -0.00000000000E+00 -0.14848745304E+03  0.14848745304E+03  0.00000000000E+00 0. -1.
         21    1    1    2  503  505 -0.57696862794E+02 -0.45352630567E+02  0.18586892184E+04  0.18601374680E+04  0.00000000000E+00 0. -1.
         21    1    1    2  504  502  0.31530050636E+02 -0.31620377876E+01  0.17084353379E+03  0.17375746204E+03  0.00000000000E+00 0.  1.
         21    1    1    2  505  501 -0.69121621710E+02  0.50516368684E+02  0.34554111402E+02  0.92323825244E+02  0.00000000000E+00 0. -1.
          1    1    1    2  501    0  0.95288433868E+02 -0.20017003296E+01 -0.98081156695E+02  0.13676185774E+03  0.00000000000E+00 0. -1.
<scales pt_clust_3="55.65475" pt_clust_4="31.68821" pt_clust_5="90.16664" pt_clust_6="14000.00000"></scales>
<clustering>
<clus scale="   31.688">  1  4  2 -1</clus>
<clus scale="   55.655">  1  3  2 -1</clus>
<clus scale="   90.167">  1  5  2 -1</clus>
<clus scale="   31.688">  1  3  2 -1</clus>
</clustering>
</event>
<event>
 6    0  0.1230761E+002  0.3252775E+03  0.7546771E-02  0.1073246E+00
         21   -1    0    0  501  502  0.00000000000E+00  0.00000000000E+00  0.24305390221E+03  0.24305390221E+03  0.00000000000E+00 0. -1.
          2   -1    0    0  505    0 -0.00000000000E+00 -0.00000000000E+00 -0.51411091501E+03  0.51411091501E+03  0.00000000000E+00 0. -1.
         21    1    1    2  503  504  0.27175595894E+02  0.38890936040E+02 -0.36740586936E+02  0.60007404931E+02  0.00000000000E+00 0.  1.
         21    1    1    2  504  502  0.22210714322E+03  0.14943916220E+03 -0.19237002446E+02  0.26839096208E+03  0.00000000000E+00 0. -1.
         21    1    1    2  505  503  0.28315032861E+02 -0.32914583479E+02 -0.62053369130E+02  0.75734612377E+02  0.00000000000E+00 0. -1.
          2    1    1    2  501    0 -0.27759777197E+03 -0.15541551476E+03 -0.15302605429E+03  0.35303183783E+03  0.00000000000E+00 0. -1.
<scales pt_clust_3="35.47782" pt_clust_4="35.47782" pt_clust_5="43.41786" pt_clust_6="314.17121"></scales>
<clustering>
<clus scale="   35.478">  3  4 -1 -1</clus>
<clus scale="   43.418">  2  5  1 -1</clus>
<clus scale="  314.171">  2  6  1 -1</clus>
<clus scale="  325.277">  1  3  2 -1</clus>
</clustering>
</event>
<event>
 6    0  0.1230761E+002  0.2350153E+03  0.7546771E-02  0.1123159E+00
         21   -1    0    0  505  502  0.00000000000E+00  0.00000000000E+00  0.94678808313E+02  0.94678808313E+02  0.00000000000E+00 0. -1.
          2   -1    0    0  502    0 -0.00000000000E+00 -0.00000000000E+00 -0.32925813886E+04  0.32925813886E+04  0.00000000000E+00 0. -1.
         21    1    1    2  503  504  0.32891339591E+02 -0.10242983497E+03 -0.75464286475E+02  0.13140993054E+03  0.00000000000E+00 0. -1.
         21    1    1    2  504  501  0.35731060772E+02 -0.67864067638E+02 -0.18135174691E+03  0.19690275896E+03  0.00000000000E+00 0. -1.
         21    1    1    2  505  503  0.52909868315E+02 -0.14590046303E+02  0.41098161619E+02  0.68566628214E+02  0.00000000000E+00 0. -1.
          2    1    1    2  501    0 -0.12153226868E+03  0.18488394891E+03 -0.29821847086E+04  0.29903808792E+04  0.00000000000E+00 0. -1.
<scales pt_clust_3="71.89370" pt_clust_4="71.89370" pt_clust_5="54.88464" pt_clust_6="217.04035"></scales>
<clustering>
<clus scale="   54.885">  1  5  2 -1</clus>
<clus scale="   71.894">  3  4 -1 -1</clus>
<clus scale="  217.040">  2  6  1 -1</clus>
<clus scale="   54.885">  1  3  2 -1</clus>
</clustering>
</event>
<event>
 6    0  0.1230761E+002  0.1229119E+03  0.7546771E-02  0.1238369E+00
         21   -1    0    0  503  502  0.00000000000E+00  0.00000000000E+00  0.10060062299E+03  0.10060062299E+03  0.00000000000E+00 0.  1.
          2   -1    0    0  504    0 -0.00000000000E+00 -0.00000000000E+00 -0.27359524988E+04  0.27359524988E+04  0.00000000000E+00 0. -1.
         21    1    1    2  503  501 -0.36435319247E+02 -0.15804814953E+02 -0.74085108572E+03  0.74191485757E+03  0.00000000000E+00 0. -1.
         21    1    1    2  504  505 -0.41308855018E+02 -0.32552028257E+02 -0.15073830825E+03  0.15964990956E+03  0.00000000000E+00 0. -1.
         21    1    1    2  505  502  0.10796039920E+03  0.68270484042E+02  0.52686852529E+02  0.13817456791E+03  0.00000000000E+00 0.  1.
          2    1    1    2  501    0 -0.30216224938E+02 -0.19913640832E+02 -0.17964493344E+04  0.17968137868E+04  0.00000000000E+00 0. -1.
<scales pt_clust_3="14000.00000" pt_clust_4="58.55303" pt_clust_5="122.91185" pt_clust_6="36.18803"></scales>
<clustering>
<clus scale="   36.188">  2  6  1 -1</clus>
<clus scale="   58.553">  2  4  1 -1</clus>
<clus scale="  122.912">  1  5  2 -1</clus>
<clus scale="  122.912">  1  3  2 -1</clus>
</clustering>
</event>
<event>
 6    0  0.1230761E+002  0.1258628E+03  0.7546771E-02  0.1233727E+00
          2   -1    0    0  503    0 -0.00000000000E+00  0.00000000000E+00  0.30650397043E+04  0.30650397043E+04  0.00000000000E+00 0.  1.
         21   -1    0    0  504  502  0.00000000000E+00 -0.00000000000E+00 -0.11024163674E+03  0.11024163674E+03  0.00000000000E+00 0. -1.
         21    1    1    2  503  505  0.47617837807E+02  0.31054372720E+02  0.19719079864E+03  0.20522193745E+03  0.00000000000E+00 0.  1.
         21    1    1    2  504  501  0.86546873244E+02  0.28542757153E+02 -0.41363303882E+02  0.10007983394E+03  0.00000000000E+00 0. -1.
         21    1    1    2  505  502 -0.71255522131E+01 -0.13102710749E+03  0.94795296069E+02  0.16187966070E+03  0.00000000000E+00 0. -1.
          2    1    1    2  501    0 -0.12703915884E+03  0.71429977614E+02  0.27041752768E+04  0.27080999090E+04  0.00000000000E+00 0.  1.
<scales pt_clust_3="56.84921" pt_clust_4="91.69547" pt_clust_5="125.86278" pt_clust_6="14000.00000"></scales>
<clustering>
<clus scale="   56.849">  1  3  2 -1</clus>
<clus scale="   91.695">  2  4  1 -1</clus>
<clus scale="  125.863">  2  5  1 -1</clus>
<clus scale="   91.695">  2  3  1 -1</clus>
</clustering>
</event>
<event>
 6    0  0.1230761E+002  0.1133333E+03  0.7546771E-02  0.1254519E+00
         21   -1    0    0  504  502  0.00000000000E+00  0.00000000000E+00  0.97885716832E+02  0.97885716832E+02  0.00000000000E+00 0.  1.
          2   -1    0    0  505    0 -0.00000000000E+00 -0.00000000000E+00 -0.20502363041E+04  0.20502363041E+04  0.00000000000E+00 0. -1.
         21    1    1    2  503  502 -0.13589426837E+02  0.12587742009E+03  0.10177971844E+02  0.12701727647E+03  0.00000000000E+00 0.  1.
         21    1    1    2  504  501  0.32942110794E+02 -0.14322074639E+02  0.13452651157E+02  0.38357245843E+02  0.00000000000E+00 0. -1.
         21    1    1    2  505  503  0.27470009812E+02 -0.13420070199E+02 -0.12919528076E+03  0.13276339968E+03  0.00000000000E+00 0.  1.
          2    1    1    2  501    0 -0.46822693769E+02 -0.98135275255E+02 -0.18467859295E+04  0.18499840990E+04  0.00000000000E+00 0. -1.
<scales pt_clust_3="14000.00000" pt_clust_4="36.11897" pt_clust_5="30.57286" pt_clust_6="113.33333"></scales>
<clustering>
<clus scale="   30.573">  2  5  1 -1</clus>
<clus scale="   36.119">  1  4  2 -1</clus>
<clus scale="  113.333">  2  6  1 -1</clus>
<clus scale="   36.119">  1  3  2 -1</clus>
</clustering>
</event>
<event>
 6    0  0.1230761E+002  0.1041843E+03  0.7546771E-02  0.1271735E+00
         21   -1    0    0  501  502  0.00000000000E+00  0.00000000000E+00  0.15946345857E+03  0.15946345857E+03  0.00000000000E+00 0.  1.
          2   -1    0    0  503    0 -0.00000000000E+00 -0.00000000000E+00 -0.10782419656E+04  0.10782419656E+04  0.00000000000E+00 0. -1.
         21    1    1    2  503  505 -0.53002182827E+02  0.24192461329E+02 -0.67366527932E+03  0.67618001681E+03  0.00000000000E+00 0. -1.
         21    1    1    2  504  502  0.89879660639E+02  0.48710386958E+02  0.99492472645E+02  0.14265275079E+03  0.00000000000E+00 0.  1.
         21    1    1    2  505  504  0.57051944671E+02  0.33917303035E+02 -0.28491109675E+02  0.72229157315E+02  0.00000000000E+00 0.  1.
          2    1    1    2  501    0 -0.93929422483E+02 -0.10682015132E+03 -0.31611459067E+03  0.34664349925E+03  0.00000000000E+00 0. -1.
<scales pt_clust_3="58.26239" pt_clust_4="104.18432" pt_clust_5="62.51397" pt_clust_6="14000.00000"></scales>
<clustering>
<clus scale="   58.262">  2  3  1 -1</clus>
<clus scale="   62.514">  2  5  1 -1</clus>
<clus scale="  104.184">  1  4  2 -1</clus>
<clus scale="  104.184">  1  3  2 -1</clus>
</clustering>
</event>
<event>
 6    0  0.1230761E+002  0.1007213E+03  0.7546771E-02  0.1278786E+00
          2   -1    0    0  502    0 -0.00000000000E+00  0.00000000000E+00  0.53221934048E+03  0.53221934048E+03  0.00000000000E+00 0.  1.
         21   -1    0    0  503  502  0.00000000000E+00 -0.00000000000E+00 -0.41350555631E+02  0.41350555631E+02  0.00000000000E+00 0.  1.
         21    1    1    2  503  504  0.62758783423E+01  0.54742807144E+02  0.79872199473E+02  0.97034683653E+02  0.00000000000E+00 0.  1.
         21    1    1    2  504  505  0.40887733550E+02  0.32598435273E+02  0.37632005887E+02  0.64425403407E+02  0.00000000000E+00 0.  1.
         21    1    1    2  505  501 -0.87475583702E+02 -0.25258068189E+02  0.13758516971E+03  0.16498371640E+03  0.00000000000E+00 0.  1.
          2    1    1    2  501    0  0.40311971810E+02 -0.62083174228E+02  0.23577940979E+03  0.24712609266E+03  0.00000000000E+00 0.  1.
<scales pt_clust_3="47.81623" pt_clust_4="47.81623" pt_clust_5="87.95201" pt_clust_6="74.02280"></scales>
<clustering>
<clus scale="   47.816">  3  4 -1 -1</clus>
<clus scale="   74.023">  1  6  2 -1</clus>
<clus scale="   87.952">  1  5  2 -1</clus>
<clus scale="  100.721">  2  3  1 -1</clus>
</clustering>
</event>
<event>
 6    0  0.1230761E+002  0.9077675E+02  0.7546771E-02  0.1300982E+00
          2   -1    0    0  505    0 -0.00000000000E+00  0.00000000000E+00  0.11366318751E+04  0.11366318751E+04  0.00000000000E+00 0. -1.
         21   -1    0    0  504  502  0.00000000000E+00 -0.00000000000E+00 -0.96122630866E+02  0.96122630866E+02  0.00000000000E+00 0.  1.
         21    1    1    2  503  502  0.42428251440E+02  0.20298725675E+02  0.20758305079E+02  0.51411107886E+02  0.00000000000E+00 0. -1.
         21    1    1    2  504  501  0.14568166859E+02 -0.47229728260E+02 -0.50298964127E+02  0.70518540182E+02  0.00000000000E+00 0.  1.
         21    1    1    2  505  503 -0.41945210726E+02 -0.66345036380E+02  0.66609383290E+02  0.10294597854E+03  0.00000000000E+00 0.  1.
          2    1    1    2  501    0 -0.15051207572E+02  0.93276038965E+02  0.10034405200E+04  0.10078788793E+04  0.00000000000E+00 0. -1.
<scales pt_clust_3="47.03397" pt_clust_4="56.30451" pt_clust_5="14000.00000" pt_clust_6="90.77675"></scales>
<clustering>
<clus scale="   47.034">  2  3  1 -1</clus>
<clus scale="   56.305">  2  4  1 -1</clus>
<clus scale="   90.777">  1  6  2 -1</clus>
<clus scale="   47.034">  2  3  1 -1</clus>
</clustering>
</event>
<event>
 6    0  0.1230761E+002  0.1446913E+03  0.7546771E-02  0.1207152E+00
          3   -1    0    0  504    0 -0.00000000000E+00  0.00000000000E+00  0.23060660117E+03  0.23060660117E+03  0.00000000000E+00 0. -1.
         21   -1    0    0  505  502  0.00000000000E+00 -0.00000000000E+00 -0.84253653289E+03  0.84253653289E+03  0.00000000000E+00 0.  1.
         21    1    1    2  503  502 -0.10826517687E+03  0.74545370207E+02 -0.74365671715E+03  0.75518452957E+03  0.00000000000E+00 0.  1.
         21    1    1    2  504  503  0.28543390022E+02 -0.34815116034E+02  0.36751553277E+01  0.45169947809E+02  0.00000000000E+00 0. -1.
         21    1    1    2  505  501  0.89493558193E+01  0.35722582956E+02 -0.52838965913E+02  0.64406134967E+02  0.00000000000E+00 0. -1.
          3    1    1    2  501    0  0.70772431025E+02 -0.75452837130E+02  0.18089059602E+03  0.20838252171E+03  0.00000000000E+00 0. -1.
<scales pt_clust_3="144.69132" pt_clust_4="44.44611" pt_clust_5="36.82654" pt_clust_6="14000.00000"></scales>
<clustering>
<clus scale="   36.827">  2  5  1 -1</clus>
<clus scale="   44.446">  1  4  2 -1</clus>
<clus scale="  144.691">  2  3  1 -1</clus>
<clus scale="   36.827">  2  3  1 -1</clus>
</clustering>
</event>
<event>
 6    0  0.1230761E+002  0.1383197E+03  0.7546771E-02  0.1215608E+00
         21   -1    0    0  505  502  0.00000000000E+00  0.00000000000E+00  0.23365934108E+02  0.23365934108E+02  0.00000000000E+00 0. -1.
          1   -1    0    0  503    0 -0.00000000000E+00 -0.00000000000E+00 -0.12916638154E+04  0.12916638154E+04  0.00000000000E+00 0.  1.
         21    1    1    2  503  502 -0.15184427140E+02 -0.34521608387E+02 -0.31938732903E+03  0.32160624095E+03  0.00000000000E+00 0.  1.
         21    1    1    2  504  501  0.87542418381E+02 -0.44155010582E+02 -0.23603434022E+03  0.25558863382E+03  0.00000000000E+00 0. -1.
         21    1    1    2  505  504  0.36906583537E+02  0.89488886429E+01 -0.52133545025E+02  0.64498721175E+02  0.00000000000E+00 0. -1.
          1    1    1    2  501    0 -0.10926457478E+03  0.69727730326E+02 -0.66074266703E+03  0.67333615358E+03  0.00000000000E+00 0.  1.
<scales pt_clust_3="37.71350" pt_clust_4="32.26738" pt_clust_5="32.26738" pt_clust_6="128.23484"></scales>
<clustering>
<clus scale="   32.267">  4  5 -1 -1</clus>
<clus scale="   37.714">  2  3  1 -1</clus>
<clus scale="  128.235">  2  6  1 -1</clus>
<clus scale="  138.320">  1  3  2 -1</clus>
</clustering>
</event>
<event>
 6    0  0.1230761E+002  0.4227128E+03  0.7546771E-02  0.1036187E+00
         -2   -1    0    0    0  501 -0.00000000000E+00  0.00000000000E+00  0.67921853893E+03  0.67921853893E+03  0.00000000000E+00 0. -1.
         21   -1    0    0  503  502  0.00000000000E+00 -0.00000000000E+00 -0.41023951153E+03  0.41023951153E+03  0.00000000000E+00 0. -1.
         21    1    1    2  503  504  0.10414485952E+03  0.12961328803E+03  0.15470151019E+02  0.16698826836E+03  0.00000000000E+00 0. -1.
         21    1    1    2  504  505  0.74459516089E+02  0.24975614807E+03 -0.92249012340E+02  0.27646380109E+03  0.00000000000E+00 0. -1.
         21    1    1    2  505  501  0.10007326753E+03 -0.10040247153E+03  0.14779091363E+03  0.20478639924E+03  0.00000000000E+00 0. -1.
         -2    1    1    2    0  502 -0.27867764314E+03 -0.27896696457E+03  0.19796697509E+03  0.44121958177E+03  0.00000000000E+00 0. -1.
<scales pt_clust_3="97.60965" pt_clust_4="97.60965" pt_clust_5="141.75795" pt_clust_6="404.66290"></scales>
<clustering>
<clus scale="   97.610">  3  4 -1 -1</clus>
<clus scale="  141.758">  1  5  2 -1</clus>
<clus scale="  404.663">  1  6  2 -1</clus>
<clus scale="  422.713">  2  3  1 -1</clus>
</clustering>
</event>
<event>
 6    0  0.1230761E+002  0.6987951E+02  0.7546771E-02  0.1360503E+00
         21   -1    0    0  503  502  0.00000000000E+00  0.00000000000E+00  0.19430852377E+03  0.19430852377E+03  0.00000000000E+00 0. -1.
          2   -1    0    0  504    0 -0.00000000000E+00 -0.00000000000E+00 -0.74695688059E+03  0.74695688059E+03  0.00000000000E+00 0. -1.
         21    1    1    2  503  501  0.37006183314E+02 -0.69096690777E+01  0.11267872074E+02  0.39295878554E+02  0.00000000000E+00 0. -1.
         21    1    1    2  504  505 -0.65581558842E+02  0.38207707738E+01 -0.51221946228E+03  0.51641486877E+03  0.00000000000E+00 0. -1.
         21    1    1    2  505  502 -0.69986524862E+02 -0.42278033668E+02  0.14181624343E+03  0.16369909191E+03  0.00000000000E+00 0. -1.
          2    1    1    2  501    0  0.98561900389E+02  0.45366931972E+02 -0.19351301004E+03  0.22185556513E+03  0.00000000000E+00 0. -1.
<scales pt_clust_3="37.64573" pt_clust_4="14000.00000" pt_clust_5="60.74356" pt_clust_6="69.87951"></scales>
<clustering>
<clus scale="   37.646">  1  3  2 -1</clus>
<clus scale="   60.744">  1  5  2 -1</clus>
<clus scale="   69.880">  1  6  2 -1</clus>
<clus scale="   37.646">  1  3  2 -1</clus>
</clustering>
</event>
<event>
 6    0  0.1230761E+002  0.1586802E+03  0.7546771E-02  0.1190195E+00
         21   -1    0    0  503  502  0.00000000000E+00  0.00000000000E+00  0.21401347649E+03  0.21401347649E+03  0.00000000000E+00 0. -1.
         -2   -1    0    0    0  501 -0.00000000000E+00 -0.00000000000E+00 -0.32334566241E+03  0.32334566241E+03  0.00000000000E+00 0. -1.
         21    1    1    2  503  505  0.24538457656E+02  0.75387659366E+02  0.12024866111E+03  0.14403185616E+03  0.00000000000E+00 0. -1.
         21    1    1    2  504  501  0.27524301353E+02  0.22789685262E+02 -0.45837736072E+02  0.58121037220E+02  0.00000000000E+00 0. -1.
         21    1    1    2  505  504  0.62290582204E+02  0.50669391218E+02 -0.12763249131E+02  0.81304393276E+02  0.00000000000E+00 0. -1.
         -2    1    1    2    0  502 -0.11435334121E+03 -0.14884673585E+03 -0.17097986183E+03  0.25390185224E+03  0.00000000000E+00 0. -1.
<scales pt_clust_3="79.28074" pt_clust_4="33.63724" pt_clust_5="33.63724" pt_clust_6="150.45586"></scales>
<clustering>
<clus scale="   33.637">  4  5 -1 -1</clus>
<clus scale="   79.281">  1  3  2 -1</clus>
<clus scale="  150.456">  1  6  2 -1</clus>
<clus scale="   79.281">  1  3  2 -1</clus>
</clustering>
</event>
<event>
 6    0  0.1230761E+002  0.2004995E+03  0.7546771E-02  0.1149318E+00
         21   -1    0    0  505  502  0.00000000000E+00  0.00000000000E+00  0.56303097558E+03  0.56303097558E+03  0.00000000000E+00 0. -1.
          2   -1    0    0  503    0 -0.00000000000E+00 -0.00000000000E+00 -0.11385469045E+04  0.11385469045E+04  0.00000000000E+00 0. -1.
         21    1    1    2  503  504 -0.51347178971E+02 -0.20727232081E+02 -0.35796858192E+03  0.36222597447E+03  0.00000000000E+00 0. -1.
         21    1    1    2  504  502  0.16573627695E+03 -0.51548868221E+02  0.43899449133E+02  0.17903340734E+03  0.00000000000E+00 0. -1.
         21    1    1    2  505  501 -0.18243304968E+03  0.10762819421E+03  0.42221624498E+03  0.47236871544E+03  0.00000000000E+00 0. -1.
          2    1    1    2  501    0  0.68043951704E+02 -0.35352093907E+02 -0.68366304106E+03  0.68794978278E+03  0.00000000000E+00 0. -1.
<scales pt_clust_3="55.37284" pt_clust_4="200.49954" pt_clust_5="14000.00000" pt_clust_6="58.26230"></scales>
<clustering>
<clus scale="   55.373">  2  3  1 -1</clus>
<clus scale="   58.262">  2  6  1 -1</clus>
<clus scale="  200.500">  2  4  1 -1</clus>
<clus scale="  200.500">  1  3  2 -1</clus>
</clustering>
</event>
<event>
 6    0  0.1230761E+002  0.8764438E+02  0.7546771E-02  0.1308659E+00
         -3   -1    0    0    0  501 -0.00000000000E+00  0.00000000000E+00  0.45573849848E+03  0.45573849848E+03  0.00000000000E+00 0. -1.
         21   -1    0    0  503  502  0.00000000000E+00 -0.00000000000E+00 -0.89326363390E+02  0.89326363390E+02  0.00000000000E+00 0.  1.
         21    1    1    2  503  505 -0.38202013232E+02 -0.38230944833E+01 -0.20498369927E+02  0.43522328018E+02  0.00000000000E+00 0.  1.
         21    1    1    2  504  501  0.50200937525E+02 -0.71698928415E+02  0.31724853713E+03  0.32910105557E+03  0.00000000000E+00 0.  1.
         21    1    1    2  505  504 -0.63726461837E+02  0.63164322287E+02  0.66306341340E+01  0.89970877829E+02  0.00000000000E+00 0.  1.
         -3    1    1    2    0  502  0.51727537544E+02  0.12357700611E+02  0.63031333747E+02  0.82470600451E+02  0.00000000000E+00 0. -1.
<scales pt_clust_3="38.39284" pt_clust_4="14000.00000" pt_clust_5="87.64438" pt_clust_6="46.73975"></scales>
<clustering>
<clus scale="   38.393">  2  3  1 -1</clus>
<clus scale="   46.740">  2  6  1 -1</clus>
<clus scale="   87.644">  2  5  1 -1</clus>
<clus scale="   38.393">  2  3  1 -1</clus>
</clustering>
</event>
<event>
 6    0  0.1230761E+002  0.7506516E+02  0.7546771E-02  0.1343669E+00
          1   -1    0    0  503    0 -0.00000000000E+00  0.00000000000E+00  0.53719351893E+03  0.53719351893E+03  0.00000000000E+00 0.  1.
         21   -1    0    0  505  502  0.00000000000E+00 -0.00000000000E+00 -0.75140001629E+03  0.75140001629E+03  0.00000000000E+00 0.  1.
         21    1    1    2  503  504 -0.37357625716E+02 -0.43698589616E+02  0.11620788024E+03  0.12965118728E+03  0.00000000000E+00 0. -1.
         21    1    1    2  504  502  0.20639991706E+02 -0.45582438036E+02 -0.31583020475E+03  0.31976942653E+03  0.00000000000E+00 0.  1.
         21    1    1    2  505  501 -0.68883690663E+02  0.10164008172E+03 -0.41331642352E+03  0.43116833720E+03  0.00000000000E+00 0.  1.
          1    1    1    2  501    0  0.85601324673E+02 -0.12359054073E+02  0.39873225067E+03  0.40800458420E+03  0.00000000000E+00 0.  1.
<scales pt_clust_3="57.82397" pt_clust_4="50.03766" pt_clust_5="75.06516" pt_clust_6="14000.00000"></scales>
<clustering>
<clus scale="   50.038">  2  4  1 -1</clus>
<clus scale="   57.824">  1  3  2 -1</clus>
<clus scale="   75.065">  2  5  1 -1</clus>
<clus scale="   50.038">  2  3  1 -1</clus>
</clustering>
</event>
<event>
 6    0  0.1230761E+002  0.7971703E+02  0.7546771E-02  0.1329856E+00
          2   -1    0    0  505    0 -0.00000000000E+00  0.00000000000E+00  0.12862927509E+02  0.12862927509E+02  0.00000000000E+00 0. -1.
         21   -1    0    0  503  502  0.00000000000E+00 -0.00000000000E+00 -0.24375419166E+04  0.24375419166E+04  0.00000000000E+00 0. -1.
         21    1    1    2  503  501  0.19479729302E+02 -0.10774861918E+03 -0.10258619806E+04  0.10316889202E+04  0.00000000000E+00 0. -1.
         21    1    1    2  504  502  0.98941240583E+01  0.51420617542E+02 -0.99921437472E+03  0.10005854987E+04  0.00000000000E+00 0. -1.
         21    1    1    2  505  504  0.26078907015E+02 -0.15154943586E+02 -0.14008694484E+03  0.14329736153E+03  0.00000000000E+00 0.  1.
          2    1    1    2  501    0 -0.55452760375E+02  0.71482945227E+02 -0.25951568898E+03  0.27483306373E+03  0.00000000000E+00 0. -1.
<scales pt_clust_3="79.71703" pt_clust_4="51.78670" pt_clust_5="30.16259" pt_clust_6="14000.00000"></scales>
<clustering>
<clus scale="   30.163">  1  5  2 -1</clus>
<clus scale="   51.787">  2  4  1 -1</clus>
<clus scale="   79.717">  2  3  1 -1</clus>
<clus scale="   51.787">  2  3  1 -1</clus>
</clustering>
</event>
<event>
 6    0  0.1230761E+002  0.1114443E+03  0.7546771E-02  0.1257918E+00
         21   -1    0    0  504  502  0.00000000000E+00  0.00000000000E+00  0.13351674766E+04  0.13351674766E+04  0.00000000000E+00 0. -1.
         -2   -1    0    0    0  501 -0.00000000000E+00 -0.00000000000E+00 -0.38358613309E+02  0.38358613309E+02  0.00000000000E+00 0.  1.
         21    1    1    2  503  502  0.14501129422E+01 -0.32435764005E+02  0.56072898609E+03  0.56166820940E+03  0.00000000000E+00 0. -1.
         21    1    1    2  504  501 -0.58406339458E+01 -0.31542579966E+02  0.28219986135E+02  0.42724875345E+02  0.00000000000E+00 0.  1.
         21    1    1    2  505  503  0.55260888875E+02 -0.67238995272E+02  0.55328903780E+03  0.56009249922E+03  0.00000000000E+00 0. -1.
         -2    1    1    2    0  505 -0.50870367871E+02  0.13121733924E+03  0.15457085325E+03  0.20904050593E+03  0.00000000000E+00 0.  1.
<scales pt_clust_3="32.94013" pt_clust_4="32.07877" pt_clust_5="111.44433" pt_clust_6="14000.00000"></scales>
<clustering>
<clus scale="   32.079">  2  4  1 -1</clus>
<clus scale="   32.940">  1  3  2 -1</clus>
<clus scale="  111.444">  1  5  2 -1</clus>
<clus scale="   32.940">  1  3  2 -1</clus>
</clustering>
</event>
<event>
 6    0  0.1230761E+002  0.1135481E+03  0.7546771E-02  0.1254137E+00
         21   -1    0    0  503  502  0.00000000000E+00  0.00000000000E+00  0.36136329557E+03  0.36136329557E+03  0.00000000000E+00 0.  1.
          2   -1    0    0  504    0 -0.00000000000E+00 -0.00000000000E+00 -0.26162471844E+04  0.26162471844E+04  0.00000000000E+00 0.  1.
         21    1    1    2  503  501 -0.12995915004E+02 -0.43015717664E+02 -0.64255121741E+01  0.45393093964E+02  0.00000000000E+00 0. -1.
         21    1    1    2  504  505  0.85928387827E+02 -0.85443346968E+01 -0.68024596917E+03  0.68570494534E+03  0.00000000000E+00 0.  1.
         21    1    1    2  505  502  0.66851578133E+02  0.73680504721E+02  0.32916136493E+03  0.34386793168E+03  0.00000000000E+00 0.  1.
          2    1    1    2  501    0 -0.13978405096E+03 -0.22120452361E+02 -0.18973737724E+04  0.19026445090E+04  0.00000000000E+00 0.  1.
<scales pt_clust_3="44.93602" pt_clust_4="113.54815" pt_clust_5="62.48698" pt_clust_6="14000.00000"></scales>
<clustering>
<clus scale="   44.936">  1  3  2 -1</clus>
<clus scale="   62.487">  1  5  2 -1</clus>
<clus scale="  113.548">  1  4  2 -1</clus>
<clus scale="   44.936">  1  3  2 -1</clus>
</clustering>
</event>
<event>
 6    0  0.1230761E+002  0.1819724E+03  0.7546771E-02  0.1165908E+00
          2   -1    0    0  504    0 -0.00000000000E+00  0.00000000000E+00  0.38083602558E+03  0.38083602558E+03  0.00000000000E+00 0. -1.
         21   -1    0    0  503  502  0.00000000000E+00 -0.00000000000E+00 -0.22557574203E+04  0.22557574203E+04  0.00000000000E+00 0.  1.
         21    1    1    2  503  501 -0.18500897830E+02  0.53629217604E+02 -0.29354311427E+03  0.29897480853E+03  0.00000000000E+00 0. -1.
         21    1    1    2  504  505  0.32740331943E+02  0.54947764272E+01  0.25415345024E+03  0.25631250101E+03  0.00000000000E+00 0.  1.
         21    1    1    2  505  502 -0.71352543194E+02  0.10749406472E+03 -0.18919592289E+04  0.18963533118E+04  0.00000000000E+00 0.  1.
          2    1    1    2  501    0  0.57113109081E+02 -0.16661805875E+03  0.56427498252E+02  0.18495282450E+03  0.00000000000E+00 0. -1.
<scales pt_clust_3="56.61661" pt_clust_4="33.19822" pt_clust_5="14000.00000" pt_clust_6="181.97238"></scales>
<clustering>
<clus scale="   33.198">  1  4  2 -1</clus>
<clus scale="   56.617">  2  3  1 -1</clus>
<clus scale="  181.972">  1  6  2 -1</clus>
<clus scale="   56.617">  2  3  1 -1</clus>
</clustering>
</event>
<event>
 6    0  0.1230761E+002  0.1604475E+03  0.7546771E-02  0.1188192E+00
         21   -1    0    0  503  502  0.00000000000E+00  0.00000000000E+00  0.21165190099E+03  0.21165190099E+03  0.00000000000E+00 0.  1.
          1   -1    0    0  505    0 -0.00000000000E+00 -0.00000000000E+00 -0.15546577309E+03  0.15546577309E+03  0.00000000000E+00 0.  1.
         21    1    1    2  503  501  0.97067540778E+01 -0.35239484622E+02  0.16428973836E+02  0.40074350057E+02  0.00000000000E+00 0.  1.
         21    1    1    2  504  502 -0.71148434848E+02 -0.40874142007E+02  0.95703461621E+01  0.82609846821E+02  0.00000000000E+00 0.  1.
         21    1    1    2  505  504 -0.43085798881E+02 -0.55248589658E+02 -0.12611523458E+02  0.71188785973E+02  0.00000000000E+00 0.  1.
          1    1    1    2  501    0  0.10452747965E+03  0.13136221629E+03  0.42798331365E+02  0.17324469123E+03  0.00000000000E+00 0.  1.
<scales pt_clust_3="36.55191" pt_clust_4="34.02370" pt_clust_5="34.02370" pt_clust_6="156.16551"></scales>
<clustering>
<clus scale="   34.024">  4  5 -1 -1</clus>
<clus scale="   36.552">  1  3  2 -1</clus>
<clus scale="  156.166">  1  6  2 -1</clus>
<clus scale="   36.552">  1  3  2 -1</clus>
</clustering>
</event>
<event>
 6    0  0.1230761E+002  0.1109088E+03  0.7546771E-02  0.1258896E+00
          2   -1    0    0  503    0 -0.00000000000E+00  0.00000000000E+00  0.97056885961E+03  0.97056885961E+03  0.00000000000E+00 0. -1.
         21   -1    0    0  505  502  0.00000000000E+00 -0.00000000000E+00 -0.41364061360E+02  0.41364061360E+02  0.00000000000E+00 0. -1.
         21    1    1    2  503  502 -0.27992324133E+02  0.13829971091E+02  0.28373689812E+03  0.28544958515E+03  0.00000000000E+00 0.  1.
         21    1    1    2  504  501 -0.59793308787E+02 -0.29326723939E+02  0.33830596032E+02  0.74698097303E+02  0.00000000000E+00 0. -1.
         21    1    1    2  505  504 -0.10444383323E+02 -0.41685969235E+02  0.16728186946E+02  0.46115479100E+02  0.00000000000E+00 0. -1.
          2    1    1    2  501    0  0.98230016243E+02  0.57182722084E+02  0.59490911715E+03  0.60566975941E+03  0.00000000000E+00 0. -1.
<scales pt_clust_3="31.22240" pt_clust_4="35.96010" pt_clust_5="35.96010" pt_clust_6="101.17893"></scales>
<clustering>
<clus scale="   31.222">  1  3  2 -1</clus>
<clus scale="   35.960">  4  5 -1 -1</clus>
<clus scale="  101.179">  1  6  2 -1</clus>
<clus scale="  110.909">  2  3  1 -1</clus>
</clustering>
</event>
<event>
 6    0  0.1230761E+002  0.1373804E+03  0.7546771E-02  0.1216898E+00
         21   -1    0    0  503  502  0.00000000000E+00  0.00000000000E+00  0.20419273431E+03  0.20419273431E+03  0.00000000000E+00 0.  1.
          1   -1    0    0  505    0 -0.00000000000E+00 -0.00000000000E+00 -0.16094659293E+04  0.16094659293E+04  0.00000000000E+00 0.  1.
         21    1    1    2  503  501 -0.66757859501E+02  0.10487968513E+03 -0.67934688742E+02  0.14167385819E+03  0.00000000000E+00 0.  1.
         21    1    1    2  504  502  0.18903712187E+02 -0.23519968239E+03  0.76690270438E+02  0.24810811859E+03  0.00000000000E+00 0.  1.
         21    1    1    2  505  504 -0.26157414154E+02  0.41212509352E+02 -0.31487970206E+03  0.31864071933E+03  0.00000000000E+00 0. -1.
          1    1    1    2  501    0  0.74011561468E+02  0.89107487901E+02 -0.10991490746E+04  0.11052359675E+04  0.00000000000E+00 0.  1.
<scales pt_clust_3="128.28103" pt_clust_4="137.38043" pt_clust_5="48.81272" pt_clust_6="14000.00000"></scales>
<clustering>
<clus scale="   48.813">  2  5  1 -1</clus>
<clus scale="  128.281">  1  3  2 -1</clus>
<clus scale="  137.380">  1  4  2 -1</clus>
<clus scale="  128.281">  1  3  2 -1</clus>
</clustering>
</event>
<event>
 6    0  0.1230761E+002  0.7499775E+02  0.7546771E-02  0.1343878E+00
          1   -1    0    0  503    0 -0.00000000000E+00  0.00000000000E+00  0.17471747059E+04  0.17471747059E+04  0.00000000000E+00 0. -1.
         21   -1    0    0  504  502  0.00000000000E+00 -0.00000000000E+00 -0.25391656998E+02  0.25391656998E+02  0.00000000000E+00 0. -1.
         21    1    1    2  503  505 -0.69246622896E+01  0.47773594053E+02  0.48192826523E+03  0.48433988073E+03  0.00000000000E+00 0. -1.
         21    1    1    2  504  501  0.53209801612E+02  0.23996489765E+02  0.76365055153E+02  0.96118344540E+02  0.00000000000E+00 0. -1.
         21    1    1    2  505  502 -0.48753093578E+01  0.36661116962E+02  0.18687724491E+02  0.41437147403E+02  0.00000000000E+00 0. -1.
          1    1    1    2  501    0 -0.41409829964E+02 -0.10843120078E+03  0.11448020040E+04  0.11506709902E+04  0.00000000000E+00 0. -1.
<scales pt_clust_3="51.45417" pt_clust_4="74.99775" pt_clust_5="36.98386" pt_clust_6="14000.00000"></scales>
<clustering>
<clus scale="   36.984">  2  5  1 -1</clus>
<clus scale="   51.454">  1  3  2 -1</clus>
<clus scale="   74.998">  2  4  1 -1</clus>
<clus scale="   36.984">  2  3  1 -1</clus>
</clustering>
</event>
<event>
 6    0  0.1230761E+002  0.1272877E+03  0.7546771E-02  0.1231537E+00
          1   -1    0    0  505    0 -0.00000000000E+00  0.00000000000E+00  0.88096796719E+02  0.88096796719E+02  0.00000000000E+00 0. -1.
         21   -1    0    0  504  502  0.00000000000E+00 -0.00000000000E+00 -0.34896791932E+03  0.34896791932E+03  0.00000000000E+00 0. -1.
         21    1    1    2  503  502  0.20466527571E+02  0.47093873358E+02 -0.98679107108E+02  0.11123973138E+03  0.00000000000E+00 0. -1.
         21    1    1    2  504  501  0.76859689129E+02 -0.36502768625E+01 -0.10565262143E+03  0.13070276489E+03  0.00000000000E+00 0. -1.
         21    1    1    2  505  503  0.76316080883E+01  0.46225610094E+02 -0.26567987672E+02  0.53860063493E+02  0.00000000000E+00 0. -1.
          1    1    1    2  501    0 -0.10495782479E+03 -0.89669206589E+02 -0.29971406394E+02  0.14126215628E+03  0.00000000000E+00 0. -1.
<scales pt_clust_3="43.49136" pt_clust_4="76.94632" pt_clust_5="43.49136" pt_clust_6="118.86585"></scales>
<clustering>
<clus scale="   43.491">  3  5 -1 -1</clus>
<clus scale="   76.946">  2  4  1 -1</clus>
<clus scale="  118.866">  1  6  2 -1</clus>
<clus scale="   76.946">  2  3  1 -1</clus>
</clustering>
</event>
<event>
 6    0  0.1230761E+002  0.1331302E+03  0.7546771E-02  0.1222884E+00
          2   -1    0    0  504    0 -0.00000000000E+00  0.00000000000E+00  0.25110150505E+04  0.25110150505E+04  0.00000000000E+00 0.  1.
         21   -1    0    0  501  502  0.00000000000E+00 -0.00000000000E+00 -0.38530442557E+02  0.38530442557E+02  0.00000000000E+00 0. -1.
         21    1    1    2  503  505  0.16246838751E+02 -0.67762646616E+02  0.85956731729E+02  0.11065394604E+03  0.00000000000E+00 0. -1.
         21    1    1    2  504  503  0.62628356847E+01 -0.47220650323E+02  0.18996752463E+04  0.19002723632E+04  0.00000000000E+00 0.  1.
         21    1    1    2  505  502 -0.26609263289E+02 -0.44083798557E+02  0.42929741559E+02  0.67040263263E+02  0.00000000000E+00 0. -1.
          2    1    1    2  501    0  0.40995888533E+01  0.15906709550E+03  0.44392288828E+03  0.47157892048E+03  0.00000000000E+00 0.  1.
<scales pt_clust_3="41.64059" pt_clust_4="47.63416" pt_clust_5="41.64059" pt_clust_6="124.00459"></scales>
<clustering>
<clus scale="   41.641">  3  5 -1 -1</clus>
<clus scale="   47.634">  1  4  2 -1</clus>
<clus scale="  124.005">  1  6  2 -1</clus>
<clus scale="  133.130">  2  3  1 -1</clus>
</clustering>
</event>
<event>
 6    0  0.1230761E+002  0.1876446E+03  0.7546771E-02  0.1160603E+00
         -4   -1    0    0    0  501 -0.00000000000E+00  0.00000000000E+00  0.15842029813E+03  0.15842029813E+03  0.00000000000E+00 0. -1.
         21   -1    0    0  503  502  0.00000000000E+00 -0.00000000000E+00 -0.19204080218E+04  0.19204080218E+04  0.00000000000E+00 0. -1.
         21    1    1    2  503  504  0.87654790097E+02  0.16377436576E+03 -0.13880785580E+04  0.14004526012E+04  0.00000000000E+00 0. -1.
         21    1    1    2  504  505 -0.15571091120E+02  0.45951177773E+02 -0.95498548980E+02  0.10711649021E+03  0.00000000000E+00 0. -1.
         21    1    1    2  505  501 -0.33886766108E+02 -0.11178129877E+02  0.11961500568E+03  0.12482392835E+03  0.00000000000E+00 0. -1.
         -4    1    1    2    0  502 -0.38196932868E+02 -0.19854741366E+03 -0.39802562239E+03  0.44643530016E+03  0.00000000000E+00 0. -1.
<scales pt_clust_3="187.64460" pt_clust_4="48.90041" pt_clust_5="35.68282" pt_clust_6="14000.00000"></scales>
<clustering>
<clus scale="   35.683">  1  5  2 -1</clus>
<clus scale="   48.900">  1  4  2 -1</clus>
<clus scale="  187.645">  2  3  1 -1</clus>
<clus scale="  187.645">  2  3  1 -1</clus>
</clustering>
</event>
<event>
 6    0  0.1230761E+002  0.1956656E+03  0.7546771E-02  0.1153448E+00
          2   -1    0    0  504    0 -0.00000000000E+00  0.00000000000E+00  0.92760823798E+03  0.92760823798E+03  0.00000000000E+00 0. -1.
         21   -1    0    0  501  502  0.00000000000E+00 -0.00000000000E+00 -0.17650871151E+03  0.17650871151E+03  0.00000000000E+00 0.  1.
         21    1    1    2  503  502  0.43309849070E+02 -0.20321353115E+02 -0.63949414200E+02  0.79863809046E+02  0.00000000000E+00 0.  1.
         21    1    1    2  504  505  0.41650537040E+02  0.51251353698E+01  0.91633724258E+02  0.10078578109E+03  0.00000000000E+00 0. -1.
         21    1    1    2  505  503  0.11812288765E+03 -0.59784830352E+02 -0.33201066101E+02  0.13649012169E+03  0.00000000000E+00 0.  1.
          2    1    1    2  501    0 -0.20308327376E+03  0.74981048097E+02  0.75661628251E+03  0.78697723767E+03  0.00000000000E+00 0. -1.
<scales pt_clust_3="41.85762" pt_clust_4="41.96468" pt_clust_5="41.85762" pt_clust_6="182.73409"></scales>
<clustering>
<clus scale="   41.965">  1  4  2 -1</clus>
<clus scale="   41.858">  3  5 -1 -1</clus>
<clus scale="  182.734">  1  6  2 -1</clus>
<clus scale="  195.666">  2  3  1 -1</clus>
</clustering>
</event>
<event>
 6    0  0.1230761E+002  0.1711609E+03  0.7546771E-02  0.1176643E+00
          2   -1    0    0  504    0 -0.00000000000E+00  0.00000000000E+00  0.59491236672E+03  0.59491236672E+03  0.00000000000E+00 0. -1.
         21   -1    0    0  505  502  0.00000000000E+00 -0.00000000000E+00 -0.25305634780E+03  0.25305634780E+03  0.00000000000E+00 0. -1.
         21    1    1    2  503  502 -0.68687406219E+02 -0.90893829278E+01 -0.12025403534E+02  0.70322023472E+02  0.00000000000E+00 0. -1.
         21    1    1    2  504  503 -0.40199345413E+02  0.14341008879E+02  0.30897363635E+03  0.31190761432E+03  0.00000000000E+00 0. -1.
         21    1    1    2  505  501 -0.91040095580E+02 -0.70995147093E+02 -0.14287078538E+03  0.18368633925E+03  0.00000000000E+00 0. -1.
          2    1    1    2  501    0  0.19992684721E+03  0.65743521142E+02  0.18777857148E+03  0.28205273747E+03  0.00000000000E+00 0. -1.
<scales pt_clust_3="73.20409" pt_clust_4="42.68081" pt_clust_5="14000.00000" pt_clust_6="171.16091"></scales>
<clustering>
<clus scale="   42.681">  1  4  2 -1</clus>
<clus scale="   73.204">  2  3  1 -1</clus>
<clus scale="  171.161">  1  6  2 -1</clus>
<clus scale="   73.204">  2  3  1 -1</clus>
</clustering>
</event>
<event>
 6    0  0.1230761E+002  0.7846091E+02  0.7546771E-02  0.1333477E+00
         21   -1    0    0  503  502  0.00000000000E+00  0.00000000000E+00  0.37612101176E+03  0.37612101176E+03  0.00000000000E+00 0. -1.
          2   -1    0    0  504    0 -0.00000000000E+00 -0.00000000000E+00 -0.42881439062E+03  0.42881439062E+03  0.00000000000E+00 0. -1.
         21    1    1    2  503  501 -0.35304607165E+01 -0.40796074005E+02  0.75682398365E+02  0.86050039102E+02  0.00000000000E+00 0. -1.
         21    1    1    2  504  505 -0.14689035452E+02  0.98381212646E+02 -0.24492076427E+03  0.26434979012E+03  0.00000000000E+00 0. -1.
         21    1    1    2  505  502 -0.46578808953E+02 -0.22897159917E+02  0.27500485847E+03  0.27985985342E+03  0.00000000000E+00 0. -1.
          2    1    1    2  501    0  0.64798305122E+02 -0.34687978723E+02 -0.15845987142E+03  0.17467571973E+03  0.00000000000E+00 0. -1.
<scales pt_clust_3="40.94855" pt_clust_4="14000.00000" pt_clust_5="78.46091" pt_clust_6="73.94929"></scales>
<clustering>
<clus scale="   40.949">  1  3  2 -1</clus>
<clus scale="   73.949">  2  6  1 -1</clus>
<clus scale="   78.461">  1  5  2 -1</clus>
<clus scale="   40.949">  1  3  2 -1</clus>
</clustering>
</event>
<event>
 6    0  0.1230761E+002  0.2596892E+03  0.7546771E-02  0.1107330E+00
          1   -1    0    0  505    0 -0.00000000000E+00  0.00000000000E+00  0.23902212944E+03  0.23902212944E+03  0.00000000000E+00 0. -1.
         21   -1    0    0  503  502  0.00000000000E+00 -0.00000000000E+00 -0.15147651986E+04  0.15147651986E+04  0.00000000000E+00 0.  1.
         21    1    1    2  503  504 -0.18197994337E+03 -0.15427646736E+02 -0.11456211240E+04  0.11600872691E+04  0.00000000000E+00 0.  1.
         21    1    1    2  504  501 -0.69346699008E+02  0.15741745980E+02 -0.25959100643E+03  0.26915470988E+03  0.00000000000E+00 0.  1.
         21    1    1    2  505  502  0.20634730040E+02  0.53909315094E+02  0.44163826269E+02  0.72680464284E+02  0.00000000000E+00 0. -1.
          1    1    1    2  501    0  0.23069191233E+03 -0.54223414338E+02  0.85305235011E+02  0.25186488481E+03  0.00000000000E+00 0. -1.
<scales pt_clust_3="43.88541" pt_clust_4="43.88541" pt_clust_5="57.72353" pt_clust_6="249.98429"></scales>
<clustering>
<clus scale="   43.885">  3  4 -1 -1</clus>
<clus scale="   57.724">  1  5  2 -1</clus>
<clus scale="  249.984">  1  6  2 -1</clus>
<clus scale="  259.689">  2  3  1 -1</clus>
</clustering>
</event>
<event>
 6    0  0.1230761E+002  0.1019312E+03  0.7546771E-02  0.1276287E+00
          2   -1    0    0  503    0 -0.00000000000E+00  0.00000000000E+00  0.10503349114E+04  0.10503349114E+04  0.00000000000E+00 0. -1.
         21   -1    0    0  504  502  0.00000000000E+00 -0.00000000000E+00 -0.61509624396E+02  0.61509624396E+02  0.00000000000E+00 0. -1.
         21    1    1    2  503  505 -0.27694843371E+01  0.38632494556E+02  0.12069662146E+03  0.12675888179E+03  0.00000000000E+00 0.  1.
         21    1    1    2  504  501  0.67732451619E+02  0.12790370488E+02 -0.54980566712E+01  0.69148443270E+02  0.00000000000E+00 0. -1.
         21    1    1    2  505  502  0.15621826119E+02  0.54036092748E+02  0.33663624830E+02  0.65552882526E+02  0.00000000000E+00 0. -1.
          2    1    1    2  501    0 -0.80584793401E+02 -0.10545895779E+03  0.83996309736E+03  0.85038432819E+03  0.00000000000E+00 0. -1.
<scales pt_clust_3="38.73164" pt_clust_4="14000.00000" pt_clust_5="58.19908" pt_clust_6="101.93121"></scales>
<clustering>
<clus scale="   38.732">  1  3  2 -1</clus>
<clus scale="   58.199">  2  5  1 -1</clus>
<clus scale="  101.931">  1  6  2 -1</clus>
<clus scale="   58.199">  2  3  1 -1</clus>
</clustering>
</event>
<event>
 6    0  0.1230761E+002  0.9564023E+02  0.7546771E-02  0.1289741E+00
         21   -1    0    0  505  502  0.00000000000E+00  0.00000000000E+00  0.22981062835E+03  0.22981062835E+03  0.00000000000E+00 0.  1.
         -2   -1    0    0    0  501 -0.00000000000E+00 -0.00000000000E+00 -0.14332143067E+03  0.14332143067E+03  0.00000000000E+00 0.  1.
         21    1    1    2  503  502 -0.16010802748E+02 -0.27435570492E+02  0.32693022558E+02  0.45583879353E+02  0.00000000000E+00 0.  1.
         21    1    1    2  504  501 -0.34768752773E+02  0.23041404203E+01 -0.69800925200E+02  0.78015026702E+02  0.00000000000E+00 0.  1.
         21    1    1    2  505  504  0.11552012896E+03 -0.10513270240E+02  0.13133282007E+03  0.17522482322E+03  0.00000000000E+00 0.  1.
         -2    1    1    2    0  503 -0.64740573435E+02  0.35644700312E+02 -0.77357197516E+01  0.74308329743E+02  0.00000000000E+00 0.  1.
<scales pt_clust_3="31.76565" pt_clust_4="35.15539" pt_clust_5="95.64023" pt_clust_6="14000.00000"></scales>
<clustering>
<clus scale="   31.766">  1  3  2 -1</clus>
<clus scale="   35.155">  2  4  1 -1</clus>
<clus scale="   95.640">  1  5  2 -1</clus>
<clus scale="   31.766">  1  3  2 -1</clus>
</clustering>
</event>
<event>
 6    0  0.1230761E+002  0.6924825E+02  0.7546771E-02  0.1362668E+00
         21   -1    0    0  504  502  0.00000000000E+00  0.00000000000E+00  0.55804992889E+02  0.55804992889E+02  0.00000000000E+00 0. -1.
          2   -1    0    0  505    0 -0.00000000000E+00 -0.00000000000E+00 -0.22508474302E+04  0.22508474302E+04  0.00000000000E+00 0. -1.
         21    1    1    2  503  501  0.34956091564E+02  0.16830859608E+02 -0.16344810016E+03  0.16798954616E+03  0.00000000000E+00 0. -1.
         21    1    1    2  504  503  0.29812190674E+02 -0.77615507731E+01  0.32928419743E+02  0.45092008271E+02  0.00000000000E+00 0. -1.
         21    1    1    2  505  502 -0.90684549134E+02 -0.71699276732E+02 -0.22647927408E+03  0.25427806693E+03  0.00000000000E+00 0. -1.
          2    1    1    2  501    0  0.25916266896E+02  0.62629967897E+02 -0.18380434828E+04  0.18392928017E+04  0.00000000000E+00 0. -1.
<scales pt_clust_3="42.05980" pt_clust_4="30.80598" pt_clust_5="69.24825" pt_clust_6="14000.00000"></scales>
<clustering>
<clus scale="   30.806">  1  4  2 -1</clus>
<clus scale="   42.060">  1  3  2 -1</clus>
<clus scale="   69.248">  1  5  2 -1</clus>
<clus scale="   30.806">  1  3  2 -1</clus>
</clustering>
</event>
<event>
 6    0  0.1230761E+002  0.9946346E+02  0.7546771E-02  0.1281428E+00
          1   -1    0    0  505    0 -0.00000000000E+00  0.00000000000E+00  0.40689338803E+03  0.40689338803E+03  0.00000000000E+00 0.  1.
         21   -1    0    0  504  502  0.00000000000E+00 -0.00000000000E+00 -0.20390906776E+03  0.20390906776E+03  0.00000000000E+00 0.  1.
         21    1    1    2  503  502 -0.73125138465E+02  0.85730145736E+02 -0.12159522922E+03  0.16577799472E+03  0.00000000000E+00 0.  1.
         21    1    1    2  504  501 -0.56645727747E+01 -0.47133070299E+02 -0.75358205195E+01  0.48066644271E+02  0.00000000000E+00 0.  1.
         21    1    1    2  505  503 -0.91977991698E+01 -0.10611477786E+03  0.16101180054E+03  0.19305373735E+03  0.00000000000E+00 0.  1.
          1    1    1    2  501    0  0.87987510409E+02  0.67517702426E+02  0.17110356947E+03  0.20390407945E+03  0.00000000000E+00 0.  1.
<scales pt_clust_3="90.99136" pt_clust_4="47.47224" pt_clust_5="99.46346" pt_clust_6="14000.00000"></scales>
<clustering>
<clus scale="   47.472">  2  4  1 -1</clus>
<clus scale="   90.991">  2  3  1 -1</clus>
<clus scale="   99.463">  1  5  2 -1</clus>
<clus scale="   47.472">  2  3  1 -1</clus>
</clustering>
</event>
<event>
 6    0  0.1230761E+002  0.2656257E+03  0.7546771E-02  0.1103810E+00
         -1   -1    0    0    0  501 -0.00000000000E+00  0.00000000000E+00  0.37235757928E+03  0.37235757928E+03  0.00000000000E+00 0. -1.
         21   -1    0    0  503  502  0.00000000000E+00 -0.00000000000E+00 -0.37745671600E+03  0.37745671600E+03  0.00000000000E+00 0. -1.
         21    1    1    2  503  501 -0.30675361515E+02 -0.92213309428E+01  0.13369931275E+03  0.13748278793E+03  0.00000000000E+00 0. -1.
         21    1    1    2  504  505  0.14242186626E+02 -0.43001365720E+02 -0.25884185191E+01  0.45372428237E+02  0.00000000000E+00 0. -1.
         21    1    1    2  505  502  0.56443989544E+02 -0.19768850423E+03 -0.21927802285E+03  0.30058196879E+03  0.00000000000E+00 0. -1.
         -1    1    1    2    0  504 -0.40010814655E+02  0.24991120089E+03  0.83067991902E+02  0.26637711031E+03  0.00000000000E+00 0. -1.
<scales pt_clust_3="32.03140" pt_clust_4="40.72720" pt_clust_5="40.72720" pt_clust_6="251.04863"></scales>
<clustering>
<clus scale="   32.031">  1  3  2 -1</clus>
<clus scale="   40.727">  4  5 -1 -1</clus>
<clus scale="  251.049">  1  6  2 -1</clus>
<clus scale="  265.626">  2  3  1 -1</clus>
</clustering>
</event>
<event>
 6    0  0.1230761E+002  0.1294207E+03  0.7546771E-02  0.1228318E+00
         21   -1    0    0  501  502  0.00000000000E+00  0.00000000000E+00  0.78694882488E+03  0.78694882488E+03  0.00000000000E+00 0.  1.
          2   -1    0    0  505    0 -0.00000000000E+00 -0.00000000000E+00 -0.21516672639E+04  0.21516672639E+04  0.00000000000E+00 0.  1.
         21    1    1    2  503  502  0.69214795004E+02 -0.19744828613E+02  0.49039575897E+03  0.49564962072E+03  0.00000000000E+00 0.  1.
         21    1    1    2  504  503  0.49501122958E+02  0.25720783400E+02  0.28172207241E+03  0.28719200190E+03  0.00000000000E+00 0.  1.
         21    1    1    2  505  504  0.82033264362E+02  0.18881642599E+01 -0.74691337785E+03  0.75140709049E+03  0.00000000000E+00 0. -1.
          2    1    1    2  501    0 -0.20074918232E+03 -0.78641190476E+01 -0.13899228926E+04  0.14043673757E+04  0.00000000000E+00 0.  1.
<scales pt_clust_3="44.42037" pt_clust_4="44.42037" pt_clust_5="82.05499" pt_clust_6="119.17982"></scales>
<clustering>
<clus scale="   44.420">  3  4 -1 -1</clus>
<clus scale="   82.055">  2  5  1 -1</clus>
<clus scale="  119.180">  2  6  1 -1</clus>
<clus scale="  129.421">  1  3  2 -1</clus>
</clustering>
</event>
<event>
 6    0  0.1230761E+002  0.7675300E+02  0.7546771E-02  0.1338527E+00
         21   -1    0    0  501  502  0.00000000000E+00  0.00000000000E+00  0.33781356012E+02  0.33781356012E+02  0.00000000000E+00 0.  1.
          2   -1    0    0  503    0 -0.00000000000E+00 -0.00000000000E+00 -0.34810158359E+04  0.34810158359E+04  0.00000000000E+00 0. -1.
         21    1    1    2  503  505 -0.24453437033E+02  0.53261621571E+02 -0.68907642087E+03  0.69156423036E+03  0.00000000000E+00 0. -1.
         21    1    1    2  504  502  0.57153375401E+02 -0.61908364474E+02 -0.34812806144E+02  0.91165154435E+02  0.00000000000E+00 0.  1.
         21    1    1    2  505  504 -0.77337433021E+01  0.59221324959E+02 -0.21646190682E+03  0.22455006840E+03  0.00000000000E+00 0. -1.
          2    1    1    2  501    0 -0.24966195066E+02 -0.50574582056E+02 -0.25068833461E+04  0.25075177387E+04  0.00000000000E+00 0. -1.
<scales pt_clust_3="45.60555" pt_clust_4="76.75300" pt_clust_5="14000.00000" pt_clust_6="56.40123"></scales>
<clustering>
<clus scale="   56.401">  2  6  1 -1</clus>
<clus scale="   45.606">  2  3  1 -1</clus>
<clus scale="   76.753">  1  4  2 -1</clus>
<clus scale="   76.753">  1  3  2 -1</clus>
</clustering>
</event>
<event>
 6    0  0.1230761E+002  0.1872392E+03  0.7546771E-02  0.1160975E+00
          1   -1    0    0  503    0 -0.00000000000E+00  0.00000000000E+00  0.13996223295E+04  0.13996223295E+04  0.00000000000E+00 0. -1.
         21   -1    0    0  501  502  0.00000000000E+00 -0.00000000000E+00 -0.64745701857E+02  0.64745701857E+02  0.00000000000E+00 0.  1.
         21    1    1    2  503  505  0.29914580968E+02  0.26082886940E+02  0.29808481466E+03  0.30071540679E+03  0.00000000000E+00 0.  1.
         21    1    1    2  504  502  0.97707212383E+00 -0.88808418059E+02  0.26654863194E+02  0.92727404363E+02  0.00000000000E+00 0.  1.
         21    1    1    2  505  504  0.17357026430E+02 -0.95455324027E+02  0.78715904847E+02  0.12493669968E+03  0.00000000000E+00 0.  1.
          1    1    1    2  501    0 -0.48248679521E+02  0.15818085515E+03  0.93142104494E+03  0.94598852052E+03  0.00000000000E+00 0. -1.
<scales pt_clust_3="39.68878" pt_clust_4="42.70278" pt_clust_5="42.70278" pt_clust_6="181.86018"></scales>
<clustering>
<clus scale="   39.689">  1  3  2 -1</clus>
<clus scale="   42.703">  4  5 -1 -1</clus>
<clus scale="  181.860">  1  6  2 -1</clus>
<clus scale="  187.239">  2  3  1 -1</clus>
</clustering>
</event>
<event>
 6    0  0.1230761E+002  0.1248048E+03  0.7546771E-02  0.1235375E+00
         21   -1    0    0  505  502  0.00000000000E+00  0.00000000000E+00  0.13701442692E+03  0.13701442692E+03  0.00000000000E+00 0. -1.
          2   -1    0    0  503    0 -0.00000000000E+00 -0.00000000000E+00 -0.11955513978E+04  0.11955513978E+04  0.00000000000E+00 0.  1.
         21    1    1    2  503  504 -0.19560431480E+02 -0.27928162679E+02 -0.14640394170E+03  0.15032201068E+03  0.00000000000E+00 0. -1.
         21    1    1    2  504  502 -0.14932328138E+01  0.30160560825E+02  0.76642734709E+02  0.82377168907E+02  0.00000000000E+00 0. -1.
         21    1    1    2  505  501 -0.12014644608E+03 -0.30926697331E+01 -0.21199636033E+02  0.12204162273E+03  0.00000000000E+00 0.  1.
          2    1    1    2  501    0  0.14120011037E+03  0.86027158730E+00 -0.96757612789E+03  0.97782502244E+03  0.00000000000E+00 0.  1.
<scales pt_clust_3="33.29038" pt_clust_4="30.19750" pt_clust_5="14000.00000" pt_clust_6="124.80482"></scales>
<clustering>
<clus scale="   30.198">  1  4  2 -1</clus>
<clus scale="   33.290">  2  3  1 -1</clus>
<clus scale="  124.805">  2  6  1 -1</clus>
<clus scale="   30.198">  1  3  2 -1</clus>
</clustering>
</event>
<event>
 6    0  0.1230761E+002  0.8715234E+02  0.7546771E-02  0.1309898E+00
         21   -1    0    0  505  502  0.00000000000E+00  0.00000000000E+00  0.41167118049E+02  0.41167118049E+02  0.00000000000E+00 0. -1.
         -1   -1    0    0    0  501 -0.00000000000E+00 -0.00000000000E+00 -0.10689070394E+04  0.10689070394E+04  0.00000000000E+00 0. -1.
         21    1    1    2  503  501  0.15770153743E+02 -0.26835483938E+02 -0.86547121887E+02  0.91974155360E+02  0.00000000000E+00 0.  1.
         21    1    1    2  504  502  0.49941743032E+02  0.36062400535E+02 -0.16699079270E+03  0.17799044714E+03  0.00000000000E+00 0. -1.
         21    1    1    2  505  503 -0.67763984152E+02 -0.72245662586E+02 -0.46051627106E+02  0.10923436121E+03  0.00000000000E+00 0. -1.
         -1    1    1    2    0  504  0.20520873767E+01  0.63018745989E+02 -0.72815037965E+03  0.73087519372E+03  0.00000000000E+00 0. -1.
<scales pt_clust_3="31.12621" pt_clust_4="87.15234" pt_clust_5="14000.00000" pt_clust_6="45.19233"></scales>
<clustering>
<clus scale="   31.126">  2  3  1 -1</clus>
<clus scale="   45.192">  2  6  1 -1</clus>
<clus scale="   87.152">  2  4  1 -1</clus>
<clus scale="   87.152">  1  3  2 -1</clus>
</clustering>
</event>
<event>
 6    0  0.1230761E+002  0.4277344E+03  0.7546771E-02  0.1034578E+00
          2   -1    0    0  504    0 -0.00000000000E+00  0.00000000000E+00  0.19095906371E+03  0.19095906371E+03  0.00000000000E+00 0. -1.
         21   -1    0    0  503  502  0.00000000000E+00 -0.00000000000E+00 -0.23552994769E+04  0.23552994769E+04  0.00000000000E+00 0. -1.
         21    1    1    2  503  505  0.20258121455E+03 -0.20014206019E+03 -0.13585221007E+04  0.13880483748E+04  0.00000000000E+00 0. -1.
         21    1    1    2  504  502 -0.20749166411E+02 -0.21699372177E+02 -0.53081771332E+01  0.30488807849E+02  0.00000000000E+00 0.  1.
         21    1    1    2  505  501  0.14215258305E+03 -0.20480985427E+02 -0.69489532625E+03  0.70958180788E+03  0.00000000000E+00 0. -1.
          2    1    1    2  501    0 -0.32398463119E+03  0.24232241779E+03 -0.10561480908E+03  0.41813955004E+03  0.00000000000E+00 0. -1.
<scales pt_clust_3="89.63485" pt_clust_4="30.02317" pt_clust_5="89.63485" pt_clust_6="408.58709"></scales>
<clustering>
<clus scale="   30.023">  1  4  2 -1</clus>
<clus scale="   89.635">  3  5 -1 -1</clus>
<clus scale="  408.587">  1  6  2 -1</clus>
<clus scale="  427.734">  2  3  1 -1</clus>
</clustering>
</event>
<event>
 6    0  0.1575835E+002  0.1501796E+03  0.7546771E-02  0.1200252E+00
         21   -1    0    0  503  502  0.00000000000E+00  0.00000000000E+00  0.41712531289E+03  0.41712531289E+03  0.00000000000E+00 0. -1.
          2   -1    0    0  504    0 -0.00000000000E+00 -0.00000000000E+00 -0.32758411085E+04  0.32758411085E+04  0.00000000000E+00 0. -1.
         21    1    1    2  503  501  0.11489022570E+03 -0.27235441441E+02  0.38741476339E+03  0.40500831118E+03  0.00000000000E+00 0. -1.
         21    1    1    2  504  505  0.15991078559E+02 -0.34605271806E+02 -0.14661421611E+03  0.15148916726E+03  0.00000000000E+00 0. -1.
         21    1    1    2  505  502  0.21530301080E+02 -0.35658971729E+02 -0.11576978976E+02  0.43233581526E+02  0.00000000000E+00 0. -1.
          2    1    1    2  501    0 -0.15241160534E+03  0.97499684976E+02 -0.30879393639E+04  0.30932353614E+04  0.00000000000E+00 0. -1.
<scales pt_clust_3="14000.00000" pt_clust_4="38.12138" pt_clust_5="41.98683" pt_clust_6="150.17962"></scales>
<clustering>
<clus scale="   38.121">  2  4  1 -1</clus>
<clus scale="   41.987">  1  5  2 -1</clus>
<clus scale="  150.180">  2  6  1 -1</clus>
<clus scale="   41.987">  1  3  2 -1</clus>
</clustering>
</event>
<event>
 6    0  0.1230761E+002  0.8743780E+02  0.7546771E-02  0.1309178E+00
         21   -1    0    0  505  502  0.00000000000E+00  0.00000000000E+00  0.18517236942E+03  0.18517236942E+03  0.00000000000E+00 0. -1.
          1   -1    0    0  503    0 -0.00000000000E+00 -0.00000000000E+00 -0.36990474171E+04  0.36990474171E+04  0.00000000000E+00 0.  1.
         21    1    1    2  503  504  0.25875103773E+02  0.50942520041E+02 -0.20689706506E+03  0.21464169417E+03  0.00000000000E+00 0. -1.
         21    1    1    2  504  502 -0.34421063530E+02 -0.30989037911E+02  0.32105439072E+02  0.56355029085E+02  0.00000000000E+00 0. -1.
         21    1    1    2  505  501  0.40189795381E+02  0.66760959984E+02  0.12533006300E+03  0.14758004649E+03  0.00000000000E+00 0. -1.
          1    1    1    2  501    0 -0.31643835623E+02 -0.86714442115E+02 -0.34644134846E+04  0.34656430167E+04  0.00000000000E+00 0.  1.
<scales pt_clust_3="14000.00000" pt_clust_4="46.31555" pt_clust_5="37.39398" pt_clust_6="87.43780"></scales>
<clustering>
<clus scale="   46.316">  1  4  2 -1</clus>
<clus scale="   37.394">  1  5  2 -1</clus>
<clus scale="   87.438">  2  6  1 -1</clus>
<clus scale="   46.316">  1  3  2 -1</clus>
</clustering>
</event>
<event>
 6    0  0.1230761E+002  0.1784571E+03  0.7546771E-02  0.1169305E+00
         21   -1    0    0  505  502  0.00000000000E+00  0.00000000000E+00  0.37242911381E+03  0.37242911381E+03  0.00000000000E+00 0. -1.
         -2   -1    0    0    0  501 -0.00000000000E+00 -0.00000000000E+00 -0.38304765169E+03  0.38304765169E+03  0.00000000000E+00 0. -1.
         21    1    1    2  503  502 -0.30768206295E+02 -0.78753058585E+02  0.14338190940E+03  0.16645449438E+03  0.00000000000E+00 0. -1.
         21    1    1    2  504  501 -0.42874608055E+02  0.19551301395E+01 -0.69059347552E+02  0.81309581441E+02  0.00000000000E+00 0.  1.
         21    1    1    2  505  504  0.85543317668E+02 -0.10553799994E+03  0.15500538686E+03  0.20611307233E+03  0.00000000000E+00 0. -1.
         -2    1    1    2    0  503 -0.11900503318E+02  0.18233592838E+03 -0.23994648659E+03  0.30159961735E+03  0.00000000000E+00 0. -1.
<scales pt_clust_3="85.08019" pt_clust_4="42.91916" pt_clust_5="178.45710" pt_clust_6="14000.00000"></scales>
<clustering>
<clus scale="   42.919">  2  4  1 -1</clus>
<clus scale="   85.080">  1  3  2 -1</clus>
<clus scale="  178.457">  1  5  2 -1</clus>
<clus scale="   85.080">  1  3  2 -1</clus>
</clustering>
</event>
<event>
 6    0  0.1230761E+002  0.1221426E+03  0.7546771E-02  0.1239604E+00
          2   -1    0    0  505    0 -0.00000000000E+00  0.00000000000E+00  0.19898281682E+04  0.19898281682E+04  0.00000000000E+00 0. -1.
         21   -1    0    0  503  502  0.00000000000E+00 -0.00000000000E+00 -0.19208457869E+03  0.19208457869E+03  0.00000000000E+00 0. -1.
         21    1    1    2  503  501  0.39530003367E+02 -0.15826703005E+02 -0.59498124044E+02  0.73165104107E+02  0.00000000000E+00 0.  1.
         21    1    1    2  504  502  0.88792964356E+00  0.30983549209E+02 -0.10735568247E+03  0.11174082199E+03  0.00000000000E+00 0. -1.
         21    1    1    2  505  504  0.34525486580E+01 -0.12905256687E+03  0.28379646064E+03  0.31178023699E+03  0.00000000000E+00 0.  1.
          2    1    1    2  501    0 -0.43870481669E+02  0.11389572066E+03  0.16808009354E+04  0.16852265838E+04  0.00000000000E+00 0. -1.
<scales pt_clust_3="41.25385" pt_clust_4="30.99627" pt_clust_5="14000.00000" pt_clust_6="122.14256"></scales>
<clustering>
<clus scale="   30.996">  2  4  1 -1</clus>
<clus scale="   41.254">  2  3  1 -1</clus>
<clus scale="  122.143">  1  6  2 -1</clus>
<clus scale="   30.996">  2  3  1 -1</clus>
</clustering>
</event>
<event>
 6    0  0.1230761E+002  0.1258090E+03  0.7546771E-02  0.1233810E+00
          1   -1    0    0  505    0 -0.00000000000E+00  0.00000000000E+00  0.11832204271E+04  0.11832204271E+04  0.00000000000E+00 0.  1.
         21   -1    0    0  503  502  0.00000000000E+00 -0.00000000000E+00 -0.44548023737E+02  0.44548023737E+02  0.00000000000E+00 0.  1.
         21    1    1    2  503  501 -0.42292187139E-01 -0.31486176376E+02  0.23348719941E+02  0.39198773122E+02  0.00000000000E+00 0.  1.
         21    1    1    2  504  502 -0.99205747555E+02 -0.40955219996E+02  0.87724602069E+02  0.13861715695E+03  0.00000000000E+00 0.  1.
         21    1    1    2  505  504 -0.26661560854E+02 -0.36100166138E+02  0.31742175351E+03  0.32057858697E+03  0.00000000000E+00 0.  1.
          1    1    1    2  501    0  0.12590960060E+03  0.10854156251E+03  0.71017732781E+03  0.72937393377E+03  0.00000000000E+00 0.  1.
<scales pt_clust_3="31.48620" pt_clust_4="125.80895" pt_clust_5="45.97801" pt_clust_6="14000.00000"></scales>
<clustering>
<clus scale="   31.486">  2  3  1 -1</clus>
<clus scale="   45.978">  1  5  2 -1</clus>
<clus scale="  125.809">  2  4  1 -1</clus>
<clus scale="   31.486">  2  3  1 -1</clus>
</clustering>
</event>
<event>
 6    0  0.1230761E+002  0.1172789E+03  0.7546771E-02  0.1247655E+00
         21   -1    0    0  505  502  0.00000000000E+00  0.00000000000E+00  0.25865243640E+03  0.25865243640E+03  0.00000000000E+00 0. -1.
          1   -1    0    0  503    0 -0.00000000000E+00 -0.00000000000E+00 -0.43597347472E+03  0.43597347472E+03  0.00000000000E+00 0.  1.
         21    1    1    2  503  502  0.19263691697E+02  0.26529480440E+02 -0.81409031552E+02  0.87762939607E+02  0.00000000000E+00 0. -1.
         21    1    1    2  504  501  0.43802855855E+02 -0.36840070402E+02  0.14302665558E+03  0.15405357891E+03  0.00000000000E+00 0. -1.
         21    1    1    2  505  504  0.54027139390E+02 -0.18755733065E+02  0.87644881475E+02  0.10465340206E+03  0.00000000000E+00 0. -1.
          1    1    1    2  501    0 -0.11709368694E+03  0.29066323027E+02 -0.32658354383E+03  0.34815599055E+03  0.00000000000E+00 0.  1.
<scales pt_clust_3="32.78572" pt_clust_4="32.51933" pt_clust_5="32.51933" pt_clust_6="112.67651"></scales>
<clustering>
<clus scale="   32.519">  4  5 -1 -1</clus>
<clus scale="   32.786">  2  3  1 -1</clus>
<clus scale="  112.677">  2  6  1 -1</clus>
<clus scale="  117.279">  1  3  2 -1</clus>
</clustering>
</event>
<event>
 6    0  0.1230761E+002  0.2150765E+03  0.7546771E-02  0.1137608E+00
         21   -1    0    0  505  502  0.00000000000E+00  0.00000000000E+00  0.53146335234E+02  0.53146335234E+02  0.00000000000E+00 0. -1.
          2   -1    0    0  504    0 -0.00000000000E+00 -0.00000000000E+00 -0.12913786770E+04  0.12913786770E+04  0.00000000000E+00 0. -1.
         21    1    1    2  503  501  0.20819829407E+02  0.48582844502E+02 -0.48465954491E+02  0.71712668485E+02  0.00000000000E+00 0. -1.
         21    1    1    2  504  502 -0.11401538305E+03 -0.17345032198E+03 -0.80265931874E+03  0.82906363068E+03  0.00000000000E+00 0. -1.
         21    1    1    2  505  503  0.23892482301E+02  0.22474846967E+02  0.44793676050E+01  0.33106407097E+02  0.00000000000E+00 0. -1.
          2    1    1    2  501    0  0.69303071341E+02  0.10239263051E+03 -0.39158643612E+03  0.41064230595E+03  0.00000000000E+00 0. -1.
<scales pt_clust_3="62.15988" pt_clust_4="195.32901" pt_clust_5="32.80197" pt_clust_6="62.15988"></scales>
<clustering>
<clus scale="   32.802">  1  5  2 -1</clus>
<clus scale="   62.160">  3  6 -1 -1</clus>
<clus scale="  195.329">  2  4  1 -1</clus>
<clus scale="   32.802">  1  3  2 -1</clus>
</clustering>
</event>
<event>
 6    0  0.1230761E+002  0.1529350E+03  0.7546771E-02  0.1196912E+00
          2   -1    0    0  505    0 -0.00000000000E+00  0.00000000000E+00  0.32983070372E+04  0.32983070372E+04  0.00000000000E+00 0. -1.
         21   -1    0    0  504  502  0.00000000000E+00 -0.00000000000E+00 -0.21119282936E+03  0.21119282936E+03  0.00000000000E+00 0.  1.
         21    1    1    2  503  501  0.30044186950E+02 -0.67625495531E+02 -0.20356263640E+02  0.76747887819E+02  0.00000000000E+00 0. -1.
         21    1    1    2  504  503 -0.30877998879E+01 -0.43810381546E+02 -0.42839389152E+02  0.61352239586E+02  0.00000000000E+00 0. -1.
         21    1    1    2  505  502  0.21164290717E+02 -0.27476360213E+02 -0.10612482419E+03  0.11164835817E+03  0.00000000000E+00 0.  1.
          2    1    1    2  501    0 -0.48120677779E+02  0.13891223729E+03  0.32564346848E+04  0.32597513810E+04  0.00000000000E+00 0. -1.
<scales pt_clust_3="33.87420" pt_clust_4="33.87420" pt_clust_5="34.68253" pt_clust_6="146.47788"></scales>
<clustering>
<clus scale="   33.874">  3  4 -1 -1</clus>
<clus scale="   34.683">  2  5  1 -1</clus>
<clus scale="  146.478">  1  6  2 -1</clus>
<clus scale="   34.683">  2  3  1 -1</clus>
</clustering>
</event>
<event>
 6    0  0.1230761E+002  0.1819307E+03  0.7546771E-02  0.1165947E+00
          2   -1    0    0  504    0 -0.00000000000E+00  0.00000000000E+00  0.92355898505E+03  0.92355898505E+03  0.00000000000E+00 0.  1.
         21   -1    0    0  503  502  0.00000000000E+00 -0.00000000000E+00 -0.24292673467E+03  0.24292673467E+03  0.00000000000E+00 0.  1.
         21    1    1    2  503  501 -0.10007954724E+03 -0.10462538850E+03  0.28619818192E+03  0.32073632010E+03  0.00000000000E+00 0.  1.
         21    1    1    2  504  505  0.45406395053E+02  0.74320324824E+02 -0.64528278969E+02  0.10839349695E+03  0.00000000000E+00 0.  1.
         21    1    1    2  505  502  0.50387049669E+00  0.97566097330E+02 -0.11848487011E+03  0.15348635666E+03  0.00000000000E+00 0.  1.
          2    1    1    2  501    0  0.54169281689E+02 -0.67261033653E+02  0.57744721754E+03  0.58386954602E+03  0.00000000000E+00 0.  1.
<scales pt_clust_3="172.23311" pt_clust_4="55.37007" pt_clust_5="55.37007" pt_clust_6="86.36178"></scales>
<clustering>
<clus scale="   55.370">  4  5 -1 -1</clus>
<clus scale="   86.362">  1  6  2 -1</clus>
<clus scale="  172.233">  1  3  2 -1</clus>
<clus scale="  181.931">  2  3  1 -1</clus>
</clustering>
</event>
<event>
 6    0  0.1230761E+002  0.1104011E+03  0.7546771E-02  0.1259829E+00
          2   -1    0    0  505    0 -0.00000000000E+00  0.00000000000E+00  0.32444868722E+03  0.32444868722E+03  0.00000000000E+00 0.  1.
         21   -1    0    0  504  502  0.00000000000E+00 -0.00000000000E+00 -0.16423971752E+03  0.16423971752E+03  0.00000000000E+00 0.  1.
         21    1    1    2  503  502  0.38300881749E+02  0.66735376788E+01 -0.43742010247E+02  0.58522278735E+02  0.00000000000E+00 0.  1.
         21    1    1    2  504  501  0.29315804447E+01  0.10370803643E+03 -0.61052730317E+02  0.12038017637E+03  0.00000000000E+00 0.  1.
         21    1    1    2  505  503 -0.46250760199E+02 -0.14060906112E+02  0.32996521629E+02  0.58528730888E+02  0.00000000000E+00 0.  1.
          2    1    1    2  501    0  0.50182980058E+01 -0.96320667995E+02  0.23200718863E+03  0.25125721875E+03  0.00000000000E+00 0.  1.
<scales pt_clust_3="38.87793" pt_clust_4="110.40109" pt_clust_5="43.98909" pt_clust_6="14000.00000"></scales>
<clustering>
<clus scale="   38.878">  2  3  1 -1</clus>
<clus scale="   43.989">  1  5  2 -1</clus>
<clus scale="  110.401">  2  4  1 -1</clus>
<clus scale="   38.878">  2  3  1 -1</clus>
</clustering>
</event>
<event>
 6    0  0.1230761E+002  0.1441264E+03  0.7546771E-02  0.1207882E+00
         21   -1    0    0  504  502  0.00000000000E+00  0.00000000000E+00  0.44505847926E+03  0.44505847926E+03  0.00000000000E+00 0. -1.
          2   -1    0    0  503    0 -0.00000000000E+00 -0.00000000000E+00 -0.31260441120E+04  0.31260441120E+04  0.00000000000E+00 0. -1.
         21    1    1    2  503  505  0.54894172898E+02 -0.14176370895E+02 -0.13019744903E+04  0.13032083153E+04  0.00000000000E+00 0. -1.
         21    1    1    2  504  501  0.10040384453E+03 -0.16257605579E+03  0.38310086722E+03  0.42811000967E+03  0.00000000000E+00 0. -1.
         21    1    1    2  505  502 -0.27797136324E+02  0.39622375210E+02  0.16657266910E+02  0.51186696963E+02  0.00000000000E+00 0.  1.
          2    1    1    2  501    0 -0.12750088111E+03  0.13713005147E+03 -0.17787692766E+04  0.17885975693E+04  0.00000000000E+00 0. -1.
<scales pt_clust_3="56.63992" pt_clust_4="14000.00000" pt_clust_5="48.40055" pt_clust_6="144.12637"></scales>
<clustering>
<clus scale="   48.401">  1  5  2 -1</clus>
<clus scale="   56.640">  2  3  1 -1</clus>
<clus scale="  144.126">  2  6  1 -1</clus>
<clus scale="   48.401">  1  3  2 -1</clus>
</clustering>
</event>
<event>
 6    0  0.1230761E+002  0.1651488E+03  0.7546771E-02  0.1183003E+00
         21   -1    0    0  504  502  0.00000000000E+00  0.00000000000E+00  0.80477559148E+03  0.80477559148E+03  0.00000000000E+00 0. -1.
         -3   -1    0    0    0  501 -0.00000000000E+00 -0.00000000000E+00 -0.20549758769E+03  0.20549758769E+03  0.00000000000E+00 0. -1.
         21    1    1    2  503  505 -0.44476914807E+02  0.48976662674E+02  0.26481349165E+03  0.27295255045E+03  0.00000000000E+00 0.  1.
         21    1    1    2  504  503  0.29499322235E+02  0.17077082961E+02  0.22111273266E+03  0.22372455681E+03  0.00000000000E+00 0. -1.
         21    1    1    2  505  501  0.73384819867E+02  0.96065503750E+02  0.26038107459E+03  0.28707528072E+03  0.00000000000E+00 0.  1.
         -3    1    1    2    0  502 -0.58407227295E+02 -0.16211924938E+03 -0.14702929511E+03  0.22652079119E+03  0.00000000000E+00 0. -1.
<scales pt_clust_3="64.69429" pt_clust_4="34.08573" pt_clust_5="165.14880" pt_clust_6="14000.00000"></scales>
<clustering>
<clus scale="   34.086">  1  4  2 -1</clus>
<clus scale="   64.694">  1  3  2 -1</clus>
<clus scale="  165.149">  1  5  2 -1</clus>
<clus scale="   34.086">  1  3  2 -1</clus>
</clustering>
</event>
<event>
 6    0  0.1230761E+002  0.1166298E+03  0.7546771E-02  0.1248763E+00
          1   -1    0    0  505    0 -0.00000000000E+00  0.00000000000E+00  0.17797309201E+04  0.17797309201E+04  0.00000000000E+00 0. -1.
         21   -1    0    0  503  502  0.00000000000E+00 -0.00000000000E+00 -0.14146194212E+03  0.14146194212E+03  0.00000000000E+00 0. -1.
         21    1    1    2  503  501  0.29207637383E+02 -0.19403970620E+02 -0.66257166659E+02  0.74964073335E+02  0.00000000000E+00 0. -1.
         21    1    1    2  504  502 -0.33577111900E+02 -0.35224205878E+02 -0.47272271722E+02  0.67844195014E+02  0.00000000000E+00 0. -1.
         21    1    1    2  505  504  0.10762097063E+03 -0.80707377270E+01  0.25736936109E+03  0.27908134684E+03  0.00000000000E+00 0. -1.
          1    1    1    2  501    0 -0.10325149611E+03  0.62698914225E+02  0.14944290553E+04  0.14993032470E+04  0.00000000000E+00 0. -1.
<scales pt_clust_3="35.06565" pt_clust_4="51.93022" pt_clust_5="116.62977" pt_clust_6="14000.00000"></scales>
<clustering>
<clus scale="   35.066">  2  3  1 -1</clus>
<clus scale="   51.930">  2  4  1 -1</clus>
<clus scale="  116.630">  2  5  1 -1</clus>
<clus scale="   35.066">  2  3  1 -1</clus>
</clustering>
</event>
<event>
 6    0  0.1230761E+002  0.2565205E+03  0.7546771E-02  0.1109252E+00
          2   -1    0    0  505    0 -0.00000000000E+00  0.00000000000E+00  0.13788908173E+04  0.13788908173E+04  0.00000000000E+00 0.  1.
         21   -1    0    0  504  502  0.00000000000E+00 -0.00000000000E+00 -0.50876005036E+03  0.50876005036E+03  0.00000000000E+00 0.  1.
         21    1    1    2  503  502  0.93884933143E+02  0.14152575197E+02  0.46484928063E+02  0.10571435377E+03  0.00000000000E+00 0.  1.
         21    1    1    2  504  501 -0.40290018725E+01 -0.25768889430E+03 -0.42645142093E+03  0.49827764701E+03  0.00000000000E+00 0.  1.
         21    1    1    2  505  503 -0.62360935764E+02  0.18916565115E+02  0.29688034544E+03  0.30394845328E+03  0.00000000000E+00 0.  1.
          2    1    1    2  501    0 -0.27494995507E+02  0.22461975399E+03  0.95321691432E+03  0.97971041355E+03  0.00000000000E+00 0.  1.
<scales pt_clust_3="90.81494" pt_clust_4="256.52048" pt_clust_5="65.16688" pt_clust_6="14000.00000"></scales>
<clustering>
<clus scale="   65.167">  1  5  2 -1</clus>
<clus scale="   90.815">  1  3  2 -1</clus>
<clus scale="  256.520">  2  4  1 -1</clus>
<clus scale="  256.520">  2  3  1 -1</clus>
</clustering>
</event>
<event>
 6    0  0.1230761E+002  0.2689671E+03  0.7546771E-02  0.1101872E+00
          1   -1    0    0  503    0 -0.00000000000E+00  0.00000000000E+00  0.90647287296E+03  0.90647287296E+03  0.00000000000E+00 0. -1.
         21   -1    0    0  501  502  0.00000000000E+00 -0.00000000000E+00 -0.32723224160E+03  0.32723224160E+03  0.00000000000E+00 0.  1.
         21    1    1    2  503  505 -0.51382329160E+02  0.41493208098E+02  0.10117168989E+03  0.12082028350E+03  0.00000000000E+00 0. -1.
         21    1    1    2  504  502  0.25335523752E+02 -0.53302158862E+02 -0.14984766601E+02  0.60889671811E+02  0.00000000000E+00 0.  1.
         21    1    1    2  505  504 -0.21896297661E+02 -0.19997740215E+03 -0.22500367997E+03  0.30182290374E+03  0.00000000000E+00 0.  1.
          1    1    1    2  501    0  0.47943103069E+02  0.21178635292E+03  0.71805738804E+03  0.75017225550E+03  0.00000000000E+00 0. -1.
<scales pt_clust_3="66.04415" pt_clust_4="53.62865" pt_clust_5="53.62865" pt_clust_6="250.07938"></scales>
<clustering>
<clus scale="   53.629">  4  5 -1 -1</clus>
<clus scale="   66.044">  1  3  2 -1</clus>
<clus scale="  250.079">  1  6  2 -1</clus>
<clus scale="  268.967">  2  3  1 -1</clus>
</clustering>
</event>
<event>
 6    0  0.1230761E+002  0.1512746E+03  0.7546771E-02  0.1198915E+00
         21   -1    0    0  503  502  0.00000000000E+00  0.00000000000E+00  0.85612841024E+02  0.85612841024E+02  0.00000000000E+00 0.  1.
          2   -1    0    0  504    0 -0.00000000000E+00 -0.00000000000E+00 -0.19554972547E+04  0.19554972547E+04  0.00000000000E+00 0.  1.
         21    1    1    2  503  501  0.82711466843E+02 -0.49095432727E+02 -0.32825888769E+02  0.10163211714E+03  0.00000000000E+00 0. -1.
         21    1    1    2  504  505  0.52120780442E+02  0.86655967773E+02 -0.37126736359E+03  0.38479252562E+03  0.00000000000E+00 0. -1.
         21    1    1    2  505  502 -0.17071136762E+03 -0.11133477380E+03 -0.19769526476E+03  0.28393876206E+03  0.00000000000E+00 0.  1.
          2    1    1    2  501    0  0.35879120331E+02  0.73774238754E+02 -0.12680958966E+04  0.12707466909E+04  0.00000000000E+00 0.  1.
<scales pt_clust_3="95.85368" pt_clust_4="151.27460" pt_clust_5="14000.00000" pt_clust_6="82.03627"></scales>
<clustering>
<clus scale="   82.036">  2  6  1 -1</clus>
<clus scale="   95.854">  1  3  2 -1</clus>
<clus scale="  151.275">  2  4  1 -1</clus>
<clus scale="   95.854">  1  3  2 -1</clus>
</clustering>
</event>
<event>
 6    0  0.1230761E+002  0.1358173E+03  0.7546771E-02  0.1219071E+00
         21   -1    0    0  503  502  0.00000000000E+00  0.00000000000E+00  0.46288581145E+03  0.46288581145E+03  0.00000000000E+00 0. -1.
          2   -1    0    0  505    0 -0.00000000000E+00 -0.00000000000E+00 -0.39776482298E+03  0.39776482298E+03  0.00000000000E+00 0.  1.
         21    1    1    2  503  501 -0.64645389238E+02  0.48144377706E+02  0.32773247474E+03  0.33749886289E+03  0.00000000000E+00 0. -1.
         21    1    1    2  504  502  0.21805299309E+02  0.23426476021E+02  0.63001193050E+02  0.70664143541E+02  0.00000000000E+00 0.  1.
         21    1    1    2  505  504 -0.40189204446E+02  0.38727188629E+02  0.35322551563E+02  0.66050359136E+02  0.00000000000E+00 0. -1.
          2    1    1    2  501    0  0.83029294375E+02 -0.11029804236E+03 -0.36093523088E+03  0.38643726886E+03  0.00000000000E+00 0.  1.
<scales pt_clust_3="14000.00000" pt_clust_4="32.00423" pt_clust_5="56.03261" pt_clust_6="135.81727"></scales>
<clustering>
<clus scale="   32.004">  1  4  2 -1</clus>
<clus scale="   56.033">  1  5  2 -1</clus>
<clus scale="  135.817">  2  6  1 -1</clus>
<clus scale="   32.004">  1  3  2 -1</clus>
</clustering>
</event>
<event>
 6    0  0.1230761E+002  0.3259340E+03  0.7546771E-02  0.1072950E+00
         21   -1    0    0  504  502  0.00000000000E+00  0.00000000000E+00  0.16260373656E+03  0.16260373656E+03  0.00000000000E+00 0.  1.
          2   -1    0    0  505    0 -0.00000000000E+00 -0.00000000000E+00 -0.22886161614E+04  0.22886161614E+04  0.00000000000E+00 0. -1.
         21    1    1    2  503  501  0.13966411442E+02 -0.81896428199E+02 -0.24898824411E+03  0.26248282097E+03  0.00000000000E+00 0. -1.
         21    1    1    2  504  503  0.78370167590E+02  0.29127981612E+03 -0.32591822368E+03  0.44408163999E+03  0.00000000000E+00 0.  1.
         21    1    1    2  505  502 -0.13086062121E+03  0.14892839378E+02  0.39776027872E+02  0.13758063542E+03  0.00000000000E+00 0.  1.
          2    1    1    2  501    0  0.38524042180E+02 -0.22427622730E+03 -0.15908819849E+04  0.16070748016E+04  0.00000000000E+00 0. -1.
<scales pt_clust_3="70.53186" pt_clust_4="304.31349" pt_clust_5="131.70535" pt_clust_6="70.53186"></scales>
<clustering>
<clus scale="   70.532">  3  6 -1 -1</clus>
<clus scale="  131.705">  1  5  2 -1</clus>
<clus scale="  304.313">  1  4  2 -1</clus>
<clus scale="  131.705">  1  3  2 -1</clus>
</clustering>
</event>
<event>
 6    0  0.1230761E+002  0.1147795E+03  0.7546771E-02  0.1251967E+00
          2   -1    0    0  504    0 -0.00000000000E+00  0.00000000000E+00  0.54162476273E+02  0.54162476273E+02  0.00000000000E+00 0. -1.
         21   -1    0    0  501  502  0.00000000000E+00 -0.00000000000E+00 -0.79869125208E+03  0.79869125208E+03  0.00000000000E+00 0.  1.
         21    1    1    2  503  502  0.57664538542E+02 -0.39302246347E+00 -0.34819687587E+03  0.35293968016E+03  0.00000000000E+00 0.  1.
         21    1    1    2  504  505 -0.53836422255E+02 -0.13976899247E+02 -0.83628133449E+02  0.10043594365E+03  0.00000000000E+00 0.  1.
         21    1    1    2  505  503  0.25460512041E+02 -0.10152235324E+03 -0.23404741145E+03  0.25638489949E+03  0.00000000000E+00 0.  1.
          2    1    1    2  501    0 -0.29288628329E+02  0.11589227495E+03 -0.78656355047E+02  0.14309320505E+03  0.00000000000E+00 0. -1.
<scales pt_clust_3="54.88588" pt_clust_4="55.62117" pt_clust_5="114.77949" pt_clust_6="14000.00000"></scales>
<clustering>
<clus scale="   55.621">  1  4  2 -1</clus>
<clus scale="   54.886">  2  3  1 -1</clus>
<clus scale="  114.779">  2  5  1 -1</clus>
<clus scale="   54.886">  2  3  1 -1</clus>
</clustering>
</event>
<event>
 6    0  0.1230761E+002  0.1457241E+03  0.7546771E-02  0.1205828E+00
          1   -1    0    0  503    0 -0.00000000000E+00  0.00000000000E+00  0.24977359703E+04  0.24977359703E+04  0.00000000000E+00 0. -1.
         21   -1    0    0  501  502  0.00000000000E+00 -0.00000000000E+00 -0.36822223567E+02  0.36822223567E+02  0.00000000000E+00 0.  1.
         21    1    1    2  503  505 -0.59480628965E+02 -0.10642077528E+02  0.48998423864E+03  0.49369601289E+03  0.00000000000E+00 0. -1.
         21    1    1    2  504  502  0.71200337628E+02  0.56746823962E+02  0.49977815354E+02  0.10386275625E+03  0.00000000000E+00 0.  1.
         21    1    1    2  505  504  0.41983992651E+02  0.26448163491E+02  0.82075406452E+02  0.95908984643E+02  0.00000000000E+00 0.  1.
          1    1    1    2  501    0 -0.53703701315E+02 -0.72552909924E+02  0.18388762863E+04  0.18410904401E+04  0.00000000000E+00 0. -1.
<scales pt_clust_3="60.42515" pt_clust_4="38.63301" pt_clust_5="38.63301" pt_clust_6="136.00342"></scales>
<clustering>
<clus scale="   38.633">  4  5 -1 -1</clus>
<clus scale="   60.425">  1  3  2 -1</clus>
<clus scale="  136.003">  1  6  2 -1</clus>
<clus scale="  145.724">  2  3  1 -1</clus>
</clustering>
</event>
<event>
 6    0  0.1230761E+002  0.7088848E+02  0.7546771E-02  0.1357098E+00
          1   -1    0    0  503    0 -0.00000000000E+00  0.00000000000E+00  0.37917981433E+04  0.37917981433E+04  0.00000000000E+00 0.  1.
         21   -1    0    0  505  502  0.00000000000E+00 -0.00000000000E+00 -0.28648341940E+02  0.28648341940E+02  0.00000000000E+00 0. -1.
         21    1    1    2  503  502  0.21807453039E+02 -0.39157422683E+02  0.13937613755E+04  0.13944818538E+04  0.00000000000E+00 0. -1.
         21    1    1    2  504  501 -0.15355897658E+02 -0.94255284780E+02  0.36615909088E+03  0.37840764017E+03  0.00000000000E+00 0. -1.
         21    1    1    2  505  504 -0.29480621969E+02  0.62716365680E+02  0.34479055257E+02  0.77403196622E+02  0.00000000000E+00 0. -1.
          1    1    1    2  501    0  0.23029066587E+02  0.70696341782E+02  0.19687502798E+04  0.19701537947E+04  0.00000000000E+00 0.  1.
<scales pt_clust_3="44.82041" pt_clust_4="14000.00000" pt_clust_5="70.88848" pt_clust_6="56.22252"></scales>
<clustering>
<clus scale="   44.820">  1  3  2 -1</clus>
<clus scale="   56.223">  1  6  2 -1</clus>
<clus scale="   70.888">  2  5  1 -1</clus>
<clus scale="   70.888">  2  3  1 -1</clus>
</clustering>
</event>
<event>
 6    0  0.1230761E+002  0.1159637E+03  0.7546771E-02  0.1249908E+00
         -1   -1    0    0    0  501 -0.00000000000E+00  0.00000000000E+00  0.26762436922E+03  0.26762436922E+03  0.00000000000E+00 0. -1.
         21   -1    0    0  503  502  0.00000000000E+00 -0.00000000000E+00 -0.57264977302E+03  0.57264977302E+03  0.00000000000E+00 0.  1.
         21    1    1    2  503  504  0.28875539113E+02 -0.95931964189E+02 -0.98039518549E+02  0.14017305629E+03  0.00000000000E+00 0. -1.
         21    1    1    2  504  501  0.21499341119E+02 -0.52939380344E+02  0.38189785840E+02  0.68725973273E+02  0.00000000000E+00 0. -1.
         21    1    1    2  505  502  0.86451827354E+02  0.93382495469E+02 -0.39861382431E+03  0.41843421209E+03  0.00000000000E+00 0.  1.
         -1    1    1    2    0  505 -0.13682670759E+03  0.55488849065E+02  0.15343815322E+03  0.21294090059E+03  0.00000000000E+00 0. -1.
<scales pt_clust_3="105.78083" pt_clust_4="57.13843" pt_clust_5="115.96370" pt_clust_6="14000.00000"></scales>
<clustering>
<clus scale="   57.138">  1  4  2 -1</clus>
<clus scale="  105.781">  2  3  1 -1</clus>
<clus scale="  115.964">  2  5  1 -1</clus>
<clus scale="  105.781">  2  3  1 -1</clus>
</clustering>
</event>
<event>
 6    0  0.1230761E+002  0.2270306E+03  0.7546771E-02  0.1128747E+00
          1   -1    0    0  503    0 -0.00000000000E+00  0.00000000000E+00  0.69045913233E+03  0.69045913233E+03  0.00000000000E+00 0. -1.
         21   -1    0    0  505  502  0.00000000000E+00 -0.00000000000E+00 -0.88547481640E+03  0.88547481640E+03  0.00000000000E+00 0. -1.
         21    1    1    2  503  504  0.53086172560E+02 -0.93581521703E+02  0.19277580783E+03  0.22076719640E+03  0.00000000000E+00 0. -1.
         21    1    1    2  504  502 -0.18732538576E+03 -0.11862785875E+03 -0.57218919099E+03  0.61364797670E+03  0.00000000000E+00 0. -1.
         21    1    1    2  505  501 -0.20546444487E+02  0.24992102234E+02 -0.24556110130E+03  0.24768329783E+03  0.00000000000E+00 0. -1.
          1    1    1    2  501    0  0.15478565769E+03  0.18721727822E+03  0.42995880040E+03  0.49383547780E+03  0.00000000000E+00 0. -1.
<scales pt_clust_3="106.89191" pt_clust_4="227.03063" pt_clust_5="32.35369" pt_clust_6="14000.00000"></scales>
<clustering>
<clus scale="   32.354">  2  5  1 -1</clus>
<clus scale="  106.892">  1  3  2 -1</clus>
<clus scale="  227.031">  2  4  1 -1</clus>
<clus scale="   32.354">  2  3  1 -1</clus>
</clustering>
</event>
<event>
 6    0  0.1230761E+002  0.9207621E+02  0.7546771E-02  0.1297900E+00
         21   -1    0    0  504  502  0.00000000000E+00  0.00000000000E+00  0.20828293660E+04  0.20828293660E+04  0.00000000000E+00 0.  1.
         -1   -1    0    0    0  501 -0.00000000000E+00 -0.00000000000E+00 -0.62977616407E+02  0.62977616407E+02  0.00000000000E+00 0.  1.
         21    1    1    2  503  505 -0.98543929407E+02  0.12157595770E+02  0.79189827660E+03  0.79809873677E+03  0.00000000000E+00 0.  1.
         21    1    1    2  504  501 -0.20982697308E+02  0.36104047841E+02  0.63718294064E+02  0.76182654556E+02  0.00000000000E+00 0. -1.
         21    1    1    2  505  502  0.20909341097E+02  0.32639429869E+02  0.11412594989E+04  0.11419175875E+04  0.00000000000E+00 0.  1.
         -1    1    1    2    0  503  0.98617285618E+02 -0.80901073479E+02  0.22975680064E+02  0.12960800356E+03  0.00000000000E+00 0.  1.
<scales pt_clust_3="92.07621" pt_clust_4="43.15109" pt_clust_5="38.76252" pt_clust_6="14000.00000"></scales>
<clustering>
<clus scale="   38.763">  1  5  2 -1</clus>
<clus scale="   43.151">  2  4  1 -1</clus>
<clus scale="   92.076">  1  3  2 -1</clus>
<clus scale="   38.763">  1  3  2 -1</clus>
</clustering>
</event>
<event>
 6    0  0.1230761E+002  0.8407603E+02  0.7546771E-02  0.1317867E+00
         21   -1    0    0  505  502  0.00000000000E+00  0.00000000000E+00  0.87846744665E+03  0.87846744665E+03  0.00000000000E+00 0.  1.
          1   -1    0    0  504    0 -0.00000000000E+00 -0.00000000000E+00 -0.32213844450E+03  0.32213844450E+03  0.00000000000E+00 0. -1.
         21    1    1    2  503  502 -0.37354331889E+02 -0.54967584387E+02  0.98212161336E+02  0.11858503311E+03  0.00000000000E+00 0.  1.
         21    1    1    2  504  503 -0.36208822991E+02  0.26503020285E+02 -0.21172988040E+02  0.49616371987E+02  0.00000000000E+00 0. -1.
         21    1    1    2  505  501  0.22545104948E+02  0.13451264497E+03  0.73677939929E+03  0.74929688150E+03  0.00000000000E+00 0.  1.
          1    1    1    2  501    0  0.51018049932E+02 -0.10604808087E+03 -0.25748957043E+03  0.28310760455E+03  0.00000000000E+00 0. -1.
<scales pt_clust_3="66.42225" pt_clust_4="44.87192" pt_clust_5="14000.00000" pt_clust_6="84.07603"></scales>
<clustering>
<clus scale="   44.872">  2  4  1 -1</clus>
<clus scale="   66.422">  1  3  2 -1</clus>
<clus scale="   84.076">  2  6  1 -1</clus>
<clus scale="   66.422">  1  3  2 -1</clus>
</clustering>
</event>
<event>
 6    0  0.1230761E+002  0.8031951E+02  0.7546771E-02  0.1328147E+00
         -1   -1    0    0    0  501 -0.00000000000E+00  0.00000000000E+00  0.51673363882E+02  0.51673363882E+02  0.00000000000E+00 0.  1.
         21   -1    0    0  503  502  0.00000000000E+00 -0.00000000000E+00 -0.86616629353E+03  0.86616629353E+03  0.00000000000E+00 0.  1.
         21    1    1    2  503  505 -0.48689257430E+02  0.24432311362E+02 -0.57790118357E+03  0.58046305619E+03  0.00000000000E+00 0.  1.
         21    1    1    2  504  502 -0.25750498524E+02  0.21225996075E+02 -0.91371888617E+02  0.97275141290E+02  0.00000000000E+00 0.  1.
         21    1    1    2  505  501  0.37503632329E+02  0.62757541404E+02 -0.79687539870E+02  0.10814404954E+03  0.00000000000E+00 0.  1.
         -1    1    1    2    0  504  0.36936123625E+02 -0.10841584884E+03 -0.65532317593E+02  0.13195741039E+03  0.00000000000E+00 0.  1.
<scales pt_clust_3="80.31951" pt_clust_4="33.37111" pt_clust_5="73.82867" pt_clust_6="14000.00000"></scales>
<clustering>
<clus scale="   33.371">  2  4  1 -1</clus>
<clus scale="   73.829">  1  5  2 -1</clus>
<clus scale="   80.320">  2  3  1 -1</clus>
<clus scale="   33.371">  2  3  1 -1</clus>
</clustering>
</event>
<event>
 6    0  0.1230761E+002  0.1679969E+03  0.7546771E-02  0.1179953E+00
         21   -1    0    0  501  502  0.00000000000E+00  0.00000000000E+00  0.53797596075E+03  0.53797596075E+03  0.00000000000E+00 0. -1.
          2   -1    0    0  503    0 -0.00000000000E+00 -0.00000000000E+00 -0.14418610309E+03  0.14418610309E+03  0.00000000000E+00 0.  1.
         21    1    1    2  503  505  0.33615395367E+02  0.30846097545E+02 -0.53138682086E+02  0.70037104975E+02  0.00000000000E+00 0. -1.
         21    1    1    2  504  502  0.73623328476E+02  0.53281738282E+01  0.22388247084E+03  0.23573744862E+03  0.00000000000E+00 0. -1.
         21    1    1    2  505  504  0.81188817161E+02  0.12176017086E+02  0.14531169047E+03  0.16689927145E+03  0.00000000000E+00 0.  1.
          2    1    1    2  501    0 -0.18842754100E+03 -0.48350288458E+02  0.77734378447E+02  0.20948823880E+03  0.00000000000E+00 0.  1.
<scales pt_clust_3="45.62320" pt_clust_4="37.19660" pt_clust_5="37.19660" pt_clust_6="163.35283"></scales>
<clustering>
<clus scale="   37.197">  4  5 -1 -1</clus>
<clus scale="   45.623">  2  3  1 -1</clus>
<clus scale="  163.353">  2  6  1 -1</clus>
<clus scale="  167.997">  1  3  2 -1</clus>
</clustering>
</event>
<event>
 6    0  0.1230761E+002  0.9339495E+02  0.7546771E-02  0.1294833E+00
          2   -1    0    0  505    0 -0.00000000000E+00  0.00000000000E+00  0.54510253017E+03  0.54510253017E+03  0.00000000000E+00 0. -1.
         21   -1    0    0  504  502  0.00000000000E+00 -0.00000000000E+00 -0.11992323527E+04  0.11992323527E+04  0.00000000000E+00 0.  1.
         21    1    1    2  503  501 -0.19110716263E+02  0.96819642132E+02 -0.37414248797E+02  0.10554188075E+03  0.00000000000E+00 0. -1.
         21    1    1    2  504  503  0.64033051596E+02 -0.13681120486E+02 -0.22596626933E+02  0.69267685851E+02  0.00000000000E+00 0. -1.
         21    1    1    2  505  502 -0.87311281381E+02 -0.42850022677E+02 -0.10778715688E+04  0.10822506656E+04  0.00000000000E+00 0.  1.
          2    1    1    2  501    0  0.42388946047E+02 -0.40288498968E+02  0.48375262201E+03  0.48727465068E+03  0.00000000000E+00 0. -1.
<scales pt_clust_3="73.96631" pt_clust_4="14000.00000" pt_clust_5="93.39495" pt_clust_6="58.48065"></scales>
<clustering>
<clus scale="   58.481">  1  6  2 -1</clus>
<clus scale="   73.966">  1  3  2 -1</clus>
<clus scale="   93.395">  2  5  1 -1</clus>
<clus scale="   93.395">  2  3  1 -1</clus>
</clustering>
</event>
<event>
 6    0  0.1230761E+002  0.6918818E+02  0.7546771E-02  0.1362876E+00
         -1   -1    0    0    0  501 -0.00000000000E+00  0.00000000000E+00  0.17803518149E+04  0.17803518149E+04  0.00000000000E+00 0.  1.
         21   -1    0    0  503  502  0.00000000000E+00 -0.00000000000E+00 -0.33545663412E+03  0.33545663412E+03  0.00000000000E+00 0. -1.
         21    1    1    2  503  505  0.89217778037E+02 -0.58567717437E+02 -0.31054255878E+03  0.32836971581E+03  0.00000000000E+00 0. -1.
         21    1    1    2  504  502 -0.24350809952E+02  0.37883274460E+02  0.29820666984E+02  0.54012744871E+02  0.00000000000E+00 0. -1.
         21    1    1    2  505  501 -0.92728352463E+02 -0.29703603916E+02  0.77938112507E+03  0.78543987010E+03  0.00000000000E+00 0.  1.
         -1    1    1    2    0  504  0.27861384378E+02  0.50388046893E+02  0.94623594755E+03  0.94798611828E+03  0.00000000000E+00 0.  1.
<scales pt_clust_3="14000.00000" pt_clust_4="45.03448" pt_clust_5="69.18818" pt_clust_6="57.63581"></scales>
<clustering>
<clus scale="   45.034">  2  4  1 -1</clus>
<clus scale="   57.636">  1  6  2 -1</clus>
<clus scale="   69.188">  1  5  2 -1</clus>
<clus scale="   45.034">  2  3  1 -1</clus>
</clustering>
</event>
<event>
 6    0  0.1230761E+002  0.1681881E+03  0.7546771E-02  0.1179751E+00
         21   -1    0    0  503  502  0.00000000000E+00  0.00000000000E+00  0.95497508615E+02  0.95497508615E+02  0.00000000000E+00 0.  1.
          1   -1    0    0  505    0 -0.00000000000E+00 -0.00000000000E+00 -0.85134279270E+03  0.85134279270E+03  0.00000000000E+00 0.  1.
         21    1    1    2  503  501  0.12384577897E+02 -0.11078210171E+03 -0.69258186726E+02  0.13123546874E+03  0.00000000000E+00 0.  1.
         21    1    1    2  504  502 -0.82700433126E+02  0.18417155523E+03 -0.15517504256E+03  0.25463271045E+03  0.00000000000E+00 0.  1.
         21    1    1    2  505  504 -0.65476601351E+01  0.39365224885E+02 -0.80254445246E+02  0.89628504200E+02  0.00000000000E+00 0. -1.
          1    1    1    2  501    0  0.76863515365E+02 -0.11275467841E+03 -0.45115760955E+03  0.47134361792E+03  0.00000000000E+00 0.  1.
<scales pt_clust_3="111.47220" pt_clust_4="31.92065" pt_clust_5="31.92065" pt_clust_6="152.09339"></scales>
<clustering>
<clus scale="   31.921">  4  5 -1 -1</clus>
<clus scale="  111.472">  1  3  2 -1</clus>
<clus scale="  152.093">  2  6  1 -1</clus>
<clus scale="  111.472">  1  3  2 -1</clus>
</clustering>
</event>
<event>
 6    0  0.1230761E+002  0.8099960E+02  0.7546771E-02  0.1326238E+00
          1   -1    0    0  503    0 -0.00000000000E+00  0.00000000000E+00  0.17302492976E+03  0.17302492976E+03  0.00000000000E+00 0. -1.
         21   -1    0    0  505  502  0.00000000000E+00 -0.00000000000E+00 -0.19510804763E+04  0.19510804763E+04  0.00000000000E+00 0. -1.
         21    1    1    2  503  502  0.64108457151E+01  0.34927297802E+02 -0.25559585138E+02  0.43752799533E+02  0.00000000000E+00 0.  1.
         21    1    1    2  504  501 -0.15303394946E+02  0.10135663621E+03 -0.45239160922E+03  0.46385938569E+03  0.00000000000E+00 0.  1.
         21    1    1    2  505  504 -0.72287300815E+01 -0.77219263998E+02 -0.14513004151E+04  0.14533712410E+04  0.00000000000E+00 0. -1.
          1    1    1    2  501    0  0.16121279312E+02 -0.59064670010E+02  0.15119606288E+03  0.16312197989E+03  0.00000000000E+00 0. -1.
<scales pt_clust_3="35.51077" pt_clust_4="14000.00000" pt_clust_5="80.99960" pt_clust_6="33.91395"></scales>
<clustering>
<clus scale="   35.511">  1  3  2 -1</clus>
<clus scale="   33.914">  1  6  2 -1</clus>
<clus scale="   81.000">  2  5  1 -1</clus>
<clus scale="   81.000">  2  3  1 -1</clus>
</clustering>
</event>
<event>
 6    0  0.1230761E+002  0.1012093E+03  0.7546771E-02  0.1277773E+00
         21   -1    0    0  505  502  0.00000000000E+00  0.00000000000E+00  0.11847694939E+03  0.11847694939E+03  0.00000000000E+00 0.  1.
          1   -1    0    0  503    0 -0.00000000000E+00 -0.00000000000E+00 -0.22503788800E+04  0.22503788800E+04  0.00000000000E+00 0.  1.
         21    1    1    2  503  504  0.81239825952E+02  0.27417039823E+01 -0.38776884365E+03  0.39619704992E+03  0.00000000000E+00 0. -1.
         21    1    1    2  504  502 -0.45134471720E+01 -0.60989700177E+02 -0.14365765971E+02  0.62821094905E+02  0.00000000000E+00 0.  1.
         21    1    1    2  505  501 -0.60267614345E+02 -0.22914901617E+02  0.77420572416E+02  0.10075327830E+03  0.00000000000E+00 0.  1.
          1    1    1    2  501    0 -0.16458764435E+02  0.81162897812E+02 -0.18071878934E+04  0.18090844062E+04  0.00000000000E+00 0.  1.
<scales pt_clust_3="81.03802" pt_clust_4="61.15648" pt_clust_5="14000.00000" pt_clust_6="101.20935"></scales>
<clustering>
<clus scale="   61.156">  1  4  2 -1</clus>
<clus scale="   81.038">  2  3  1 -1</clus>
<clus scale="  101.209">  2  6  1 -1</clus>
<clus scale="   61.156">  1  3  2 -1</clus>
</clustering>
</event>
<event>
 6    0  0.1230761E+002  0.1134481E+03  0.7546771E-02  0.1254315E+00
          2   -1    0    0  504    0 -0.00000000000E+00  0.00000000000E+00  0.75884143587E+03  0.75884143587E+03  0.00000000000E+00 0. -1.
         21   -1    0    0  501  502  0.00000000000E+00 -0.00000000000E+00 -0.13098629701E+04  0.13098629701E+04  0.00000000000E+00 0.  1.
         21    1    1    2  503  505 -0.17371473297E+02  0.47654778393E+02 -0.40548192350E+03  0.40864206376E+03  0.00000000000E+00 0.  1.
         21    1    1    2  504  503 -0.14795820384E+02 -0.59460115466E+02  0.73483538695E+03  0.73738556234E+03  0.00000000000E+00 0. -1.
         21    1    1    2  505  502 -0.43640379532E+02  0.47956890977E+02 -0.81142858220E+03  0.81401516578E+03  0.00000000000E+00 0.  1.
          2    1    1    2  501    0  0.75807673213E+02 -0.36151553903E+02 -0.68946415473E+02  0.10866161408E+03  0.00000000000E+00 0. -1.
<scales pt_clust_3="30.06469" pt_clust_4="61.27334" pt_clust_5="30.06469" pt_clust_6="108.23575"></scales>
<clustering>
<clus scale="   30.065">  3  5 -1 -1</clus>
<clus scale="   61.273">  1  4  2 -1</clus>
<clus scale="  108.236">  1  6  2 -1</clus>
<clus scale="  113.448">  2  3  1 -1</clus>
</clustering>
</event>
<event>
 6    0  0.1230761E+002  0.1086040E+03  0.7546771E-02  0.1263177E+00
          2   -1    0    0  505    0 -0.00000000000E+00  0.00000000000E+00  0.31880518455E+04  0.31880518455E+04  0.00000000000E+00 0.  1.
         21   -1    0    0  504  502  0.00000000000E+00 -0.00000000000E+00 -0.34557861380E+03  0.34557861380E+03  0.00000000000E+00 0. -1.
         21    1    1    2  503  502  0.48612100705E+01 -0.48773674682E+02 -0.32366824528E+03  0.32735857359E+03  0.00000000000E+00 0. -1.
         21    1    1    2  504  501 -0.26007143089E+02  0.23136723850E+02  0.26654626397E+01  0.34911089545E+02  0.00000000000E+00 0.  1.
         21    1    1    2  505  503 -0.79362338890E+02  0.73077506963E+02  0.12436994757E+04  0.12483697724E+04  0.00000000000E+00 0.  1.
          2    1    1    2  501    0  0.10050827191E+03 -0.47440556131E+02  0.19197765386E+04  0.19229910237E+04  0.00000000000E+00 0.  1.
<scales pt_clust_3="33.25073" pt_clust_4="34.80919" pt_clust_5="108.60396" pt_clust_6="14000.00000"></scales>
<clustering>
<clus scale="   34.809">  2  4  1 -1</clus>
<clus scale="   33.251">  2  3  1 -1</clus>
<clus scale="  108.604">  2  5  1 -1</clus>
<clus scale="   34.809">  2  3  1 -1</clus>
</clustering>
</event>
<event>
 6    0  0.1230761E+002  0.1154980E+03  0.7546771E-02  0.1250714E+00
          2   -1    0    0  503    0 -0.00000000000E+00  0.00000000000E+00  0.51895383153E+03  0.51895383153E+03  0.00000000000E+00 0. -1.
         21   -1    0    0  504  502  0.00000000000E+00 -0.00000000000E+00 -0.22789030698E+03  0.22789030698E+03  0.00000000000E+00 0. -1.
         21    1    1    2  503  502  0.89854366026E+02  0.12148619433E+02  0.10486595694E+03  0.13862995699E+03  0.00000000000E+00 0. -1.
         21    1    1    2  504  505 -0.26450433877E+02 -0.56468165598E+02 -0.78012798514E+02  0.99871296729E+02  0.00000000000E+00 0. -1.
         21    1    1    2  505  501 -0.45485995171E+02 -0.34199662350E+02 -0.11091870313E+03  0.12466575860E+03  0.00000000000E+00 0. -1.
          2    1    1    2  501    0 -0.17917936978E+02  0.78519208515E+02  0.37512906925E+03  0.38367712620E+03  0.00000000000E+00 0. -1.
<scales pt_clust_3="109.60622" pt_clust_4="34.79093" pt_clust_5="34.79093" pt_clust_6="80.53768"></scales>
<clustering>
<clus scale="   34.791">  4  5 -1 -1</clus>
<clus scale="   80.538">  1  6  2 -1</clus>
<clus scale="  109.606">  1  3  2 -1</clus>
<clus scale="  115.498">  2  3  1 -1</clus>
</clustering>
</event>
<event>
 6    0  0.1230761E+002  0.6932288E+02  0.7546771E-02  0.1362411E+00
         21   -1    0    0  504  502  0.00000000000E+00  0.00000000000E+00  0.58267459714E+03  0.58267459714E+03  0.00000000000E+00 0.  1.
          2   -1    0    0  503    0 -0.00000000000E+00 -0.00000000000E+00 -0.13615103982E+04  0.13615103982E+04  0.00000000000E+00 0. -1.
         21    1    1    2  503  505  0.37663034840E+02  0.54725473147E+02 -0.72839298904E+03  0.73141624817E+03  0.00000000000E+00 0. -1.
         21    1    1    2  504  501  0.54531045750E+02  0.20946679638E+02  0.51802329047E+03  0.52130655838E+03  0.00000000000E+00 0.  1.
         21    1    1    2  505  502  0.13479347613E+02 -0.33659790649E+02  0.50482116484E+02  0.62153989440E+02  0.00000000000E+00 0.  1.
          2    1    1    2  501    0 -0.10567342820E+03 -0.42012362135E+02 -0.61894821893E+03  0.62930819931E+03  0.00000000000E+00 0. -1.
<scales pt_clust_3="66.37566" pt_clust_4="14000.00000" pt_clust_5="36.25844" pt_clust_6="69.32288"></scales>
<clustering>
<clus scale="   36.258">  1  5  2 -1</clus>
<clus scale="   66.376">  2  3  1 -1</clus>
<clus scale="   69.323">  2  6  1 -1</clus>
<clus scale="   36.258">  1  3  2 -1</clus>
</clustering>
</event>
<event>
 6    0  0.1230761E+002  0.9894167E+02  0.7546771E-02  0.1282537E+00
         21   -1    0    0  504  502  0.00000000000E+00  0.00000000000E+00  0.33371657997E+02  0.33371657997E+02  0.00000000000E+00 0.  1.
         -4   -1    0    0    0  501 -0.00000000000E+00 -0.00000000000E+00 -0.98915892648E+03  0.98915892648E+03  0.00000000000E+00 0.  1.
         21    1    1    2  503  501 -0.62725091619E+02 -0.59777290105E+02 -0.29314007506E+03  0.30567771449E+03  0.00000000000E+00 0.  1.
         21    1    1    2  504  505  0.10914814651E+02 -0.29606683137E+02 -0.63441646294E+02  0.70855707954E+02  0.00000000000E+00 0.  1.
         21    1    1    2  505  503  0.37079161642E+02 -0.34064048887E+02 -0.20962904724E+02  0.54540508149E+02  0.00000000000E+00 0.  1.
         -4    1    1    2    0  502  0.14731115325E+02  0.12344802213E+03 -0.57824264240E+03  0.59145665388E+03  0.00000000000E+00 0.  1.
<scales pt_clust_3="14000.00000" pt_clust_4="31.55454" pt_clust_5="66.73678" pt_clust_6="98.94167"></scales>
<clustering>
<clus scale="   31.555">  1  4  2 -1</clus>
<clus scale="   66.737">  1  5  2 -1</clus>
<clus scale="   98.942">  1  6  2 -1</clus>
<clus scale="   31.555">  1  3  2 -1</clus>
</clustering>
</event>
<event>
 6    0  0.4328263E+002  0.1160439E+03  0.7546771E-02  0.1249770E+00
         21   -1    0    0  505  502  0.00000000000E+00  0.00000000000E+00  0.32054815727E+03  0.32054815727E+03  0.00000000000E+00 0. -1.
          2   -1    0    0  503    0 -0.00000000000E+00 -0.00000000000E+00 -0.39654830033E+04  0.39654830033E+04  0.00000000000E+00 0.  1.
         21    1    1    2  503  504 -0.32265280483E+02 -0.13660705794E+01 -0.80204391595E+02  0.86461892788E+02  0.00000000000E+00 0. -1.
         21    1    1    2  504  502 -0.41120774723E+02  0.38259978135E+02 -0.59713289556E+02  0.81978173865E+02  0.00000000000E+00 0. -1.
         21    1    1    2  505  501 -0.19829645561E+02  0.60965858839E+02  0.30171985335E+03  0.30845570296E+03  0.00000000000E+00 0. -1.
          2    1    1    2  501    0  0.93215700766E+02 -0.97859766395E+02 -0.38067370182E+04  0.38091353910E+04  0.00000000000E+00 0.  1.
<scales pt_clust_3="32.29419" pt_clust_4="56.58276" pt_clust_5="116.04392" pt_clust_6="14000.00000"></scales>
<clustering>
<clus scale="   32.294">  2  3  1 -1</clus>
<clus scale="   56.583">  1  4  2 -1</clus>
<clus scale="  116.044">  1  5  2 -1</clus>
<clus scale="   56.583">  1  3  2 -1</clus>
</clustering>
</event>
<event>
 6    0  0.1230761E+002  0.1331166E+03  0.7546771E-02  0.1222903E+00
          2   -1    0    0  504    0 -0.00000000000E+00  0.00000000000E+00  0.29031542047E+04  0.29031542047E+04  0.00000000000E+00 0.  1.
         21   -1    0    0  501  502  0.00000000000E+00 -0.00000000000E+00 -0.34979748144E+02  0.34979748144E+02  0.00000000000E+00 0.  1.
         21    1    1    2  503  505 -0.45792472179E+02 -0.43755421703E+02  0.75868214954E+02  0.98830529074E+02  0.00000000000E+00 0. -1.
         21    1    1    2  504  503  0.32008553373E+02 -0.10113511058E+02  0.11383509999E+04  0.11388458323E+04  0.00000000000E+00 0.  1.
         21    1    1    2  505  502 -0.49360592590E+02 -0.43224280286E+02  0.29600798555E+02  0.71979259389E+02  0.00000000000E+00 0.  1.
          2    1    1    2  501    0  0.63144511396E+02  0.97093213048E+02  0.16243544431E+04  0.16284783321E+04  0.00000000000E+00 0.  1.
<scales pt_clust_3="37.09905" pt_clust_4="33.56830" pt_clust_5="37.09905" pt_clust_6="127.62186"></scales>
<clustering>
<clus scale="   33.568">  1  4  2 -1</clus>
<clus scale="   37.099">  3  5 -1 -1</clus>
<clus scale="  127.622">  1  6  2 -1</clus>
<clus scale="  133.117">  2  3  1 -1</clus>
</clustering>
</event>
<event>
 6    0  0.1230761E+002  0.6998141E+02  0.7546771E-02  0.1360156E+00
          2   -1    0    0  505    0 -0.00000000000E+00  0.00000000000E+00  0.11424405194E+04  0.11424405194E+04  0.00000000000E+00 0. -1.
         21   -1    0    0  504  502  0.00000000000E+00 -0.00000000000E+00 -0.84230842376E+02  0.84230842376E+02  0.00000000000E+00 0. -1.
         21    1    1    2  503  502 -0.52236703194E+02  0.70780940338E+01 -0.47693479241E+02  0.71087555436E+02  0.00000000000E+00 0. -1.
         21    1    1    2  504  501  0.46028427294E+02 -0.42291113773E+02  0.16242852270E+03  0.17404074066E+03  0.00000000000E+00 0. -1.
         21    1    1    2  505  503 -0.64208507478E+02  0.30941321378E+02  0.54371937348E+02  0.89646000313E+02  0.00000000000E+00 0. -1.
          2    1    1    2  501    0  0.70416783378E+02  0.42716983613E+01  0.88910269622E+03  0.89189706537E+03  0.00000000000E+00 0. -1.
<scales pt_clust_3="52.71406" pt_clust_4="52.86823" pt_clust_5="69.98141" pt_clust_6="14000.00000"></scales>
<clustering>
<clus scale="   52.714">  2  3  1 -1</clus>
<clus scale="   52.868">  2  4  1 -1</clus>
<clus scale="   69.981">  2  5  1 -1</clus>
<clus scale="   52.714">  2  3  1 -1</clus>
</clustering>
</event>
<event>
 6    0  0.1230761E+002  0.8182161E+02  0.7546771E-02  0.1323960E+00
          1   -1    0    0  503    0 -0.00000000000E+00  0.00000000000E+00  0.21110344792E+04  0.21110344792E+04  0.00000000000E+00 0.  1.
         21   -1    0    0  504  502  0.00000000000E+00 -0.00000000000E+00 -0.25895141813E+03  0.25895141813E+03  0.00000000000E+00 0. -1.
         21    1    1    2  503  502 -0.65867650123E+02  0.43400941925E+02  0.11027189870E+04  0.11055366811E+04  0.00000000000E+00 0.  1.
         21    1    1    2  504  505 -0.67619141950E+02 -0.50740665903E+02 -0.22832224001E+03  0.24347075557E+03  0.00000000000E+00 0. -1.
         21    1    1    2  505  501  0.76948422093E+02 -0.13423593945E+02  0.53141080802E+02  0.94473419573E+02  0.00000000000E+00 0.  1.
          1    1    1    2  501    0  0.56538369980E+02  0.20763317923E+02  0.92454523332E+03  0.92650504106E+03  0.00000000000E+00 0.  1.
<scales pt_clust_3="64.11465" pt_clust_4="81.82161" pt_clust_5="14000.00000" pt_clust_6="60.23041"></scales>
<clustering>
<clus scale="   60.230">  1  6  2 -1</clus>
<clus scale="   64.115">  1  3  2 -1</clus>
<clus scale="   81.822">  2  4  1 -1</clus>
<clus scale="   81.822">  2  3  1 -1</clus>
</clustering>
</event>
<event>
 6    0  0.1230761E+002  0.1436298E+03  0.7546771E-02  0.1208527E+00
         21   -1    0    0  501  502  0.00000000000E+00  0.00000000000E+00  0.50614611704E+03  0.50614611704E+03  0.00000000000E+00 0. -1.
          1   -1    0    0  503    0 -0.00000000000E+00 -0.00000000000E+00 -0.14809197622E+03  0.14809197622E+03  0.00000000000E+00 0.  1.
         21    1    1    2  503  505  0.74914015308E+02 -0.22989598393E+02  0.18042201142E+02  0.80412389256E+02  0.00000000000E+00 0. -1.
         21    1    1    2  504  502  0.53379529324E+02  0.55924921603E+02  0.18009556197E+03  0.19598822017E+03  0.00000000000E+00 0. -1.
         21    1    1    2  505  504  0.57812375852E+02  0.16332459469E+02  0.17471292214E+03  0.18475287602E+03  0.00000000000E+00 0. -1.
          1    1    1    2  501    0 -0.18610592048E+03 -0.49267782679E+02 -0.14796544427E+02  0.19308460782E+03  0.00000000000E+00 0.  1.
<scales pt_clust_3="78.36218" pt_clust_4="34.02619" pt_clust_5="34.02619" pt_clust_6="138.34583"></scales>
<clustering>
<clus scale="   34.026">  4  5 -1 -1</clus>
<clus scale="   78.362">  2  3  1 -1</clus>
<clus scale="  138.346">  2  6  1 -1</clus>
<clus scale="  143.630">  1  3  2 -1</clus>
</clustering>
</event>
<event>
 6    0  0.1230761E+002  0.9215034E+02  0.7546771E-02  0.1297726E+00
         21   -1    0    0  505  502  0.00000000000E+00  0.00000000000E+00  0.36909787936E+03  0.36909787936E+03  0.00000000000E+00 0.  1.
         -1   -1    0    0    0  501 -0.00000000000E+00 -0.00000000000E+00 -0.81680536061E+02  0.81680536061E+02  0.00000000000E+00 0.  1.
         21    1    1    2  503  502 -0.10851389618E+03  0.32923715389E+02  0.22168193940E+03  0.24900224689E+03  0.00000000000E+00 0.  1.
         21    1    1    2  504  501  0.28586755728E+02 -0.13389712687E+02 -0.31668264803E+02  0.44714270704E+02  0.00000000000E+00 0.  1.
         21    1    1    2  505  504  0.12032599314E+02 -0.47456524433E+02  0.48078201003E+02  0.68617917261E+02  0.00000000000E+00 0.  1.
         -1    1    1    2    0  503  0.67894541135E+02  0.27922521732E+02  0.49325467704E+02  0.88443980575E+02  0.00000000000E+00 0.  1.
<scales pt_clust_3="92.15034" pt_clust_4="31.56718" pt_clust_5="53.99111" pt_clust_6="14000.00000"></scales>
<clustering>
<clus scale="   31.567">  2  4  1 -1</clus>
<clus scale="   53.991">  2  5  1 -1</clus>
<clus scale="   92.150">  1  3  2 -1</clus>
<clus scale="   92.150">  1  3  2 -1</clus>
</clustering>
</event>
<event>
 6    0  0.1230761E+002  0.9499097E+02  0.7546771E-02  0.1291196E+00
         21   -1    0    0  504  502  0.00000000000E+00  0.00000000000E+00  0.52289285565E+02  0.52289285565E+02  0.00000000000E+00 0. -1.
          2   -1    0    0  503    0 -0.00000000000E+00 -0.00000000000E+00 -0.12935914996E+04  0.12935914996E+04  0.00000000000E+00 0. -1.
         21    1    1    2  503  505  0.27035655921E+02  0.10030987682E+03 -0.27884737763E+03  0.29757160162E+03  0.00000000000E+00 0. -1.
         21    1    1    2  504  501 -0.19038712034E+02 -0.50752403965E+02 -0.79797053105E+02  0.96466827191E+02  0.00000000000E+00 0.  1.
         21    1    1    2  505  502  0.63061604373E+02  0.15097236459E+02 -0.88310850673E+00  0.64849613533E+02  0.00000000000E+00 0. -1.
          2    1    1    2  501    0 -0.71058548259E+02 -0.64654709310E+02 -0.88177467480E+03  0.88699274283E+03  0.00000000000E+00 0. -1.
<scales pt_clust_3="14000.00000" pt_clust_4="54.20590" pt_clust_5="53.83404" pt_clust_6="94.99097"></scales>
<clustering>
<clus scale="   54.206">  1  4  2 -1</clus>
<clus scale="   53.834">  1  5  2 -1</clus>
<clus scale="   94.991">  2  6  1 -1</clus>
<clus scale="   54.206">  1  3  2 -1</clus>
</clustering>
</event>
<event>
 6    0  0.1230761E+002  0.1424995E+03  0.7546771E-02  0.1210005E+00
         21   -1    0    0  504  502  0.00000000000E+00  0.00000000000E+00  0.40156539159E+03  0.40156539159E+03  0.00000000000E+00 0. -1.
          2   -1    0    0  503    0 -0.00000000000E+00 -0.00000000000E+00 -0.69413793675E+03  0.69413793675E+03  0.00000000000E+00 0. -1.
         21    1    1    2  503  505  0.84977100679E+02 -0.26132989488E+02  0.91594817584E+02  0.12764658784E+03  0.00000000000E+00 0. -1.
         21    1    1    2  504  501 -0.56709930050E+02  0.27676827876E+02 -0.20591966884E+03  0.21537161601E+03  0.00000000000E+00 0. -1.
         21    1    1    2  505  502  0.35644073569E+02 -0.43901322158E+02  0.28122745531E+03  0.28685659777E+03  0.00000000000E+00 0. -1.
          2    1    1    2  501    0 -0.63911244198E+02  0.42357483770E+02 -0.45947514920E+03  0.46582852672E+03  0.00000000000E+00 0. -1.
<scales pt_clust_3="135.93022" pt_clust_4="38.79915" pt_clust_5="56.54932" pt_clust_6="38.79915"></scales>
<clustering>
<clus scale="   38.799">  4  6 -1 -1</clus>
<clus scale="   56.549">  1  5  2 -1</clus>
<clus scale="  135.930">  1  3  2 -1</clus>
<clus scale="   56.549">  1  3  2 -1</clus>
</clustering>
</event>
<event>
 6    0  0.1230761E+002  0.1844027E+03  0.7546771E-02  0.1163609E+00
          1   -1    0    0  504    0 -0.00000000000E+00  0.00000000000E+00  0.52708458734E+03  0.52708458734E+03  0.00000000000E+00 0. -1.
         21   -1    0    0  503  502  0.00000000000E+00 -0.00000000000E+00 -0.14849600960E+03  0.14849600960E+03  0.00000000000E+00 0. -1.
         21    1    1    2  503  505 -0.13364616699E+03  0.47547282072E+02  0.12370830494E+03  0.18821739212E+03  0.00000000000E+00 0. -1.
         21    1    1    2  504  502  0.20955737951E+03 -0.41304172135E+02 -0.49034687736E+01  0.21364543981E+03  0.00000000000E+00 0. -1.
         21    1    1    2  505  501 -0.37100180258E+02  0.17164085415E+02  0.12600400265E+03  0.13246900727E+03  0.00000000000E+00 0. -1.
          1    1    1    2  501    0 -0.38811032264E+02 -0.23407195351E+02  0.13377973892E+03  0.14124875775E+03  0.00000000000E+00 0. -1.
<scales pt_clust_3="184.40268" pt_clust_4="14000.00000" pt_clust_5="38.36986" pt_clust_6="86.21962"></scales>
<clustering>
<clus scale="   38.370">  5  6 -1 -1</clus>
<clus scale="   86.220">  1  5  2 -1</clus>
<clus scale="  184.403">  1  3  2 -1</clus>
<clus scale="  184.403">  2  3  1 -1</clus>
</clustering>
</event>
<event>
 6    0  0.1230761E+002  0.4016658E+03  0.7546771E-02  0.1043204E+00
          2   -1    0    0  504    0 -0.00000000000E+00  0.00000000000E+00  0.15059408742E+04  0.15059408742E+04  0.00000000000E+00 0. -1.
         21   -1    0    0  505  502  0.00000000000E+00 -0.00000000000E+00 -0.39423024487E+03  0.39423024487E+03  0.00000000000E+00 0. -1.
         21    1    1    2  503  501  0.11226066242E+03 -0.94981724043E+02 -0.12061430573E+03  0.19018884030E+03  0.00000000000E+00 0.  1.
         21    1    1    2  504  502 -0.24237487971E+02 -0.47442917978E+02  0.27858087818E+03  0.28362932143E+03  0.00000000000E+00 0. -1.
         21    1    1    2  505  503  0.14348765123E+03 -0.20340532551E+03 -0.11885835898E+03  0.27584369125E+03  0.00000000000E+00 0. -1.
          2    1    1    2  501    0 -0.23151082568E+03  0.34582996753E+03  0.10726024159E+04  0.11505092661E+04  0.00000000000E+00 0. -1.
<scales pt_clust_3="56.35146" pt_clust_4="53.27557" pt_clust_5="56.35146" pt_clust_6="394.89017"></scales>
<clustering>
<clus scale="   53.276">  1  4  2 -1</clus>
<clus scale="   56.351">  3  5 -1 -1</clus>
<clus scale="  394.890">  1  6  2 -1</clus>
<clus scale="  401.666">  2  3  1 -1</clus>
</clustering>
</event>
<event>
 6    0  0.1230761E+002  0.1519097E+03  0.7546771E-02  0.1198146E+00
          2   -1    0    0  505    0 -0.00000000000E+00  0.00000000000E+00  0.15703236496E+04  0.15703236496E+04  0.00000000000E+00 0. -1.
         21   -1    0    0  501  502  0.00000000000E+00 -0.00000000000E+00 -0.66972234390E+03  0.66972234390E+03  0.00000000000E+00 0. -1.
         21    1    1    2  503  504  0.19151817379E+01  0.10393292165E+03 -0.44648615705E+03  0.45842732091E+03  0.00000000000E+00 0. -1.
         21    1    1    2  504  502 -0.38186421542E+02  0.29810329861E+02 -0.20659808841E+03  0.21220185836E+03  0.00000000000E+00 0. -1.
         21    1    1    2  505  503 -0.56014630232E+02 -0.84236022514E+02  0.47460116874E+03  0.48526241938E+03  0.00000000000E+00 0.  1.
          2    1    1    2  501    0  0.92285870036E+02 -0.49507229001E+02  0.10790843824E+04  0.10841543948E+04  0.00000000000E+00 0. -1.
<scales pt_clust_3="43.29203" pt_clust_4="43.29203" pt_clust_5="101.16000" pt_clust_6="138.03963"></scales>
<clustering>
<clus scale="   43.292">  3  4 -1 -1</clus>
<clus scale="  101.160">  1  5  2 -1</clus>
<clus scale="  138.040">  1  6  2 -1</clus>
<clus scale="  151.910">  2  3  1 -1</clus>
</clustering>
</event>
<event>
 6    0  0.1230761E+002  0.6712131E+02  0.7546771E-02  0.1370165E+00
          2   -1    0    0  503    0 -0.00000000000E+00  0.00000000000E+00  0.25024056783E+04  0.25024056783E+04  0.00000000000E+00 0.  1.
         21   -1    0    0  505  502  0.00000000000E+00 -0.00000000000E+00 -0.53288452327E+02  0.53288452327E+02  0.00000000000E+00 0.  1.
         21    1    1    2  503  502  0.51515307932E+01 -0.34662299190E+02  0.78339717544E+03  0.78418055812E+03  0.00000000000E+00 0.  1.
         21    1    1    2  504  501 -0.63409281494E+02  0.14779650326E+02  0.90863828873E+02  0.11178287186E+03  0.00000000000E+00 0. -1.
         21    1    1    2  505  504  0.40358606146E+02 -0.59668877797E+02 -0.10045246620E+02  0.72733067083E+02  0.00000000000E+00 0.  1.
          2    1    1    2  501    0  0.17899144555E+02  0.79551526662E+02  0.15849014682E+04  0.15869976335E+04  0.00000000000E+00 0.  1.
<scales pt_clust_3="35.04302" pt_clust_4="67.12131" pt_clust_5="14000.00000" pt_clust_6="52.68381"></scales>
<clustering>
<clus scale="   35.043">  1  3  2 -1</clus>
<clus scale="   52.684">  1  6  2 -1</clus>
<clus scale="   67.121">  1  4  2 -1</clus>
<clus scale="   67.121">  2  3  1 -1</clus>
</clustering>
</event>
<event>
 6    0  0.1230761E+002  0.8876985E+02  0.7546771E-02  0.1305858E+00
         21   -1    0    0  505  502  0.00000000000E+00  0.00000000000E+00  0.52703385033E+03  0.52703385033E+03  0.00000000000E+00 0. -1.
          1   -1    0    0  503    0 -0.00000000000E+00 -0.00000000000E+00 -0.17209708656E+03  0.17209708656E+03  0.00000000000E+00 0. -1.
         21    1    1    2  503  504  0.14817699573E+02 -0.32465832183E+02 -0.18736758824E+02  0.40307078922E+02  0.00000000000E+00 0.  1.
         21    1    1    2  504  502 -0.40645180805E+00 -0.69708408842E+02  0.36695054878E+03  0.37351322964E+03  0.00000000000E+00 0. -1.
         21    1    1    2  505  501  0.33938689170E+02 -0.12651148952E+02  0.11479897307E+03  0.12037728361E+03  0.00000000000E+00 0. -1.
          1    1    1    2  501    0 -0.48349936934E+02  0.11482538998E+03 -0.10807599926E+03  0.16493334472E+03  0.00000000000E+00 0. -1.
<scales pt_clust_3="35.68746" pt_clust_4="88.76985" pt_clust_5="36.71675" pt_clust_6="14000.00000"></scales>
<clustering>
<clus scale="   35.687">  2  3  1 -1</clus>
<clus scale="   36.717">  1  5  2 -1</clus>
<clus scale="   88.770">  1  4  2 -1</clus>
<clus scale="   36.717">  1  3  2 -1</clus>
</clustering>
</event>
<event>
 6    0  0.1230761E+002  0.1296505E+03  0.7546771E-02  0.1227975E+00
         21   -1    0    0  505  502  0.00000000000E+00  0.00000000000E+00  0.17306771554E+04  0.17306771554E+04  0.00000000000E+00 0.  1.
         -1   -1    0    0    0  501 -0.00000000000E+00 -0.00000000000E+00 -0.10511718116E+03  0.10511718116E+03  0.00000000000E+00 0. -1.
         21    1    1    2  503  501  0.11655070304E+03 -0.29879539209E+02 -0.27177648672E+02  0.12335103498E+03  0.00000000000E+00 0. -1.
         21    1    1    2  504  502  0.47102278842E+02  0.65248929538E+01  0.11166911362E+04  0.11177031326E+04  0.00000000000E+00 0.  1.
         21    1    1    2  505  503  0.28374743030E+02 -0.16360319571E+02  0.22269125258E+03  0.22508704999E+03  0.00000000000E+00 0. -1.
         -1    1    1    2    0  504 -0.19202772491E+03  0.39714965826E+02  0.31335523413E+03  0.36965311902E+03  0.00000000000E+00 0. -1.
<scales pt_clust_3="129.65046" pt_clust_4="68.37069" pt_clust_5="32.75341" pt_clust_6="14000.00000"></scales>
<clustering>
<clus scale="   32.753">  1  5  2 -1</clus>
<clus scale="   68.371">  1  4  2 -1</clus>
<clus scale="  129.650">  2  3  1 -1</clus>
<clus scale="   32.753">  1  3  2 -1</clus>
</clustering>
</event>
<event>
 6    0  0.1230761E+002  0.1323433E+03  0.7546771E-02  0.1224019E+00
          2   -1    0    0  504    0 -0.00000000000E+00  0.00000000000E+00  0.25335847386E+04  0.25335847386E+04  0.00000000000E+00 0.  1.
         21   -1    0    0  501  502  0.00000000000E+00 -0.00000000000E+00 -0.12767771456E+03  0.12767771456E+03  0.00000000000E+00 0.  1.
         21    1    1    2  503  505  0.33040273930E+02  0.33822912805E+02  0.46268241001E+02  0.66154359322E+02  0.00000000000E+00 0. -1.
         21    1    1    2  504  503 -0.70249407718E+01 -0.43264363624E+02  0.22453363335E+04  0.22457641028E+04  0.00000000000E+00 0.  1.
         21    1    1    2  505  502  0.64117095743E+02  0.11460414342E+03 -0.44474279913E+02  0.13864729795E+03  0.00000000000E+00 0.  1.
          2    1    1    2  501    0 -0.90132428902E+02 -0.10516269260E+03  0.15877672949E+03  0.21069669310E+03  0.00000000000E+00 0.  1.
<scales pt_clust_3="40.58415" pt_clust_4="43.83098" pt_clust_5="132.34334" pt_clust_6="14000.00000"></scales>
<clustering>
<clus scale="   43.831">  1  4  2 -1</clus>
<clus scale="   40.584">  1  3  2 -1</clus>
<clus scale="  132.343">  2  5  1 -1</clus>
<clus scale="  132.343">  2  3  1 -1</clus>
</clustering>
</event>
<event>
 6    0  0.1230761E+002  0.1156213E+03  0.7546771E-02  0.1250500E+00
          2   -1    0    0  504    0 -0.00000000000E+00  0.00000000000E+00  0.44236070781E+03  0.44236070781E+03  0.00000000000E+00 0.  1.
         21   -1    0    0  505  502  0.00000000000E+00 -0.00000000000E+00 -0.16798381439E+03  0.16798381439E+03  0.00000000000E+00 0.  1.
         21    1    1    2  503  502 -0.10390295176E+02  0.41979057274E+02 -0.50178305526E+02  0.66242447335E+02  0.00000000000E+00 0.  1.
         21    1    1    2  504  503  0.19906316302E+02 -0.28830459249E+02  0.11017287806E+03  0.11560934161E+03  0.00000000000E+00 0.  1.
         21    1    1    2  505  501  0.10458669005E+03  0.28521765631E+02 -0.63207911723E+02  0.12548747728E+03  0.00000000000E+00 0.  1.
          2    1    1    2  501    0 -0.11410271118E+03 -0.41670363656E+02  0.27759023261E+03  0.30300525597E+03  0.00000000000E+00 0.  1.
<scales pt_clust_3="42.44802" pt_clust_4="35.03508" pt_clust_5="115.62130" pt_clust_6="14000.00000"></scales>
<clustering>
<clus scale="   35.035">  1  4  2 -1</clus>
<clus scale="   42.448">  2  3  1 -1</clus>
<clus scale="  115.621">  2  5  1 -1</clus>
<clus scale="   42.448">  2  3  1 -1</clus>
</clustering>
</event>
<event>
 6    0  0.1230761E+002  0.1087827E+03  0.7546771E-02  0.1262841E+00
          2   -1    0    0  505    0 -0.00000000000E+00  0.00000000000E+00  0.95805236905E+03  0.95805236905E+03  0.00000000000E+00 0. -1.
         21   -1    0    0  504  502  0.00000000000E+00 -0.00000000000E+00 -0.63455941413E+03  0.63455941413E+03  0.00000000000E+00 0.  1.
         21    1    1    2  503  501  0.61357829246E+02 -0.27370158566E+02 -0.54008850673E+02  0.86202463658E+02  0.00000000000E+00 0.  1.
         21    1    1    2  504  503  0.23774005478E+00 -0.67244961053E+02 -0.55315400075E+03  0.55722642602E+03  0.00000000000E+00 0.  1.
         21    1    1    2  505  502  0.22932642409E+02 -0.25858012815E+02  0.10583281895E+03  0.11133341134E+03  0.00000000000E+00 0.  1.
          2    1    1    2  501    0 -0.84528211710E+02  0.12047313243E+03  0.82482298740E+03  0.83784948216E+03  0.00000000000E+00 0. -1.
<scales pt_clust_3="108.78273" pt_clust_4="67.30758" pt_clust_5="34.56216" pt_clust_6="14000.00000"></scales>
<clustering>
<clus scale="   34.562">  1  5  2 -1</clus>
<clus scale="   67.308">  2  4  1 -1</clus>
<clus scale="  108.783">  2  3  1 -1</clus>
<clus scale="   67.308">  2  3  1 -1</clus>
</clustering>
</event>
<event>
 6    0  0.1230761E+002  0.1506978E+03  0.7546771E-02  0.1199618E+00
          2   -1    0    0  504    0 -0.00000000000E+00  0.00000000000E+00  0.89263616207E+03  0.89263616207E+03  0.00000000000E+00 0. -1.
         21   -1    0    0  503  502  0.00000000000E+00 -0.00000000000E+00 -0.40213402609E+03  0.40213402609E+03  0.00000000000E+00 0. -1.
         21    1    1    2  503  501 -0.17292318442E+02 -0.25344351172E+02 -0.49958337137E+01  0.31085668208E+02  0.00000000000E+00 0. -1.
         21    1    1    2  504  505 -0.29439725958E+02  0.30414984346E+02  0.46027337698E+03  0.46221569672E+03  0.00000000000E+00 0.  1.
         21    1    1    2  505  502 -0.85549552364E+02 -0.86683546964E+02 -0.35826126347E+03  0.37839648006E+03  0.00000000000E+00 0. -1.
          2    1    1    2  501    0  0.13228159676E+03  0.81612913790E+02  0.39348585617E+03  0.42307234316E+03  0.00000000000E+00 0. -1.
<scales pt_clust_3="30.68160" pt_clust_4="42.31372" pt_clust_5="14000.00000" pt_clust_6="150.69780"></scales>
<clustering>
<clus scale="   30.682">  2  3  1 -1</clus>
<clus scale="   42.314">  1  4  2 -1</clus>
<clus scale="  150.698">  1  6  2 -1</clus>
<clus scale="   30.682">  2  3  1 -1</clus>
</clustering>
</event>
<event>
 6    0  0.1230761E+002  0.2000643E+03  0.7546771E-02  0.1149685E+00
          1   -1    0    0  505    0 -0.00000000000E+00  0.00000000000E+00  0.32592579349E+03  0.32592579349E+03  0.00000000000E+00 0.  1.
         21   -1    0    0  503  502  0.00000000000E+00 -0.00000000000E+00 -0.43038294385E+03  0.43038294385E+03  0.00000000000E+00 0. -1.
         21    1    1    2  503  501  0.35375036877E+02 -0.95334880332E+01 -0.15681620615E+03  0.16103913543E+03  0.00000000000E+00 0. -1.
         21    1    1    2  504  502  0.25985095633E+02  0.36321389530E+02 -0.70247543035E+02  0.83241731331E+02  0.00000000000E+00 0. -1.
         21    1    1    2  505  504 -0.17201159618E+03  0.13623927859E+03 -0.76047304345E+02  0.23223333686E+03  0.00000000000E+00 0. -1.
          1    1    1    2  501    0  0.11065146367E+03 -0.16302718008E+03  0.19865390317E+03  0.27979453372E+03  0.00000000000E+00 0.  1.
<scales pt_clust_3="36.63715" pt_clust_4="49.25161" pt_clust_5="200.06426" pt_clust_6="14000.00000"></scales>
<clustering>
<clus scale="   36.637">  2  3  1 -1</clus>
<clus scale="   49.252">  2  4  1 -1</clus>
<clus scale="  200.064">  2  5  1 -1</clus>
<clus scale="   36.637">  2  3  1 -1</clus>
</clustering>
</event>
<event>
 6    0  0.1230761E+002  0.1538798E+03  0.7546771E-02  0.1195785E+00
         21   -1    0    0  503  502  0.00000000000E+00  0.00000000000E+00  0.26982413616E+03  0.26982413616E+03  0.00000000000E+00 0.  1.
          1   -1    0    0  505    0 -0.00000000000E+00 -0.00000000000E+00 -0.68128549665E+03  0.68128549665E+03  0.00000000000E+00 0.  1.
         21    1    1    2  503  504 -0.11715723108E+03 -0.76416603069E+02  0.23276017306E+03  0.27155590986E+03  0.00000000000E+00 0.  1.
         21    1    1    2  504  501  0.18376335431E+02  0.30671742545E+02 -0.65459689823E+02  0.74588313336E+02  0.00000000000E+00 0. -1.
         21    1    1    2  505  502 -0.31149663723E+02 -0.10489665152E+02 -0.79735659759E+02  0.86244478445E+02  0.00000000000E+00 0.  1.
          1    1    1    2  501    0  0.12993055937E+03  0.56234525676E+02 -0.49902618397E+03  0.51872093116E+03  0.00000000000E+00 0.  1.
<scales pt_clust_3="140.90802" pt_clust_4="31.07618" pt_clust_5="32.86844" pt_clust_6="31.07618"></scales>
<clustering>
<clus scale="   31.076">  4  6 -1 -1</clus>
<clus scale="   32.868">  2  5  1 -1</clus>
<clus scale="  140.908">  1  3  2 -1</clus>
<clus scale="  140.908">  1  3  2 -1</clus>
</clustering>
</event>
<event>
 6    0  0.1230761E+002  0.8880814E+02  0.7546771E-02  0.1305764E+00
          2   -1    0    0  504    0 -0.00000000000E+00  0.00000000000E+00  0.30772408017E+04  0.30772408017E+04  0.00000000000E+00 0. -1.
         21   -1    0    0  505  502  0.00000000000E+00 -0.00000000000E+00 -0.38196254294E+02  0.38196254294E+02  0.00000000000E+00 0. -1.
         21    1    1    2  503  501  0.59084421358E+02 -0.40075416890E+02  0.35625170372E+03  0.36333494779E+03  0.00000000000E+00 0.  1.
         21    1    1    2  504  502  0.43152595648E+02 -0.24359323071E+02  0.19460841813E+01  0.49591434495E+02  0.00000000000E+00 0. -1.
         21    1    1    2  505  503 -0.72495663316E+01  0.58589135484E+02  0.77496318570E+02  0.97421365216E+02  0.00000000000E+00 0. -1.
          2    1    1    2  501    0 -0.94987450675E+02  0.58456044774E+01  0.26033504409E+04  0.26050893084E+04  0.00000000000E+00 0. -1.
<scales pt_clust_3="88.80814" pt_clust_4="49.55324" pt_clust_5="47.46384" pt_clust_6="14000.00000"></scales>
<clustering>
<clus scale="   49.553">  2  4  1 -1</clus>
<clus scale="   47.464">  2  5  1 -1</clus>
<clus scale="   88.808">  2  3  1 -1</clus>
<clus scale="   49.553">  2  3  1 -1</clus>
</clustering>
</event>
<event>
 6    0  0.1230761E+002  0.1962413E+03  0.7546771E-02  0.1152950E+00
          1   -1    0    0  505    0 -0.00000000000E+00  0.00000000000E+00  0.17399692106E+04  0.17399692106E+04  0.00000000000E+00 0.  1.
         21   -1    0    0  503  502  0.00000000000E+00 -0.00000000000E+00 -0.27943979851E+03  0.27943979851E+03  0.00000000000E+00 0. -1.
         21    1    1    2  503  504 -0.46623053224E+02 -0.41514354608E+01 -0.14877675470E+02  0.49115056100E+02  0.00000000000E+00 0.  1.
         21    1    1    2  504  501  0.30511854241E+02  0.16710339130E+03 -0.12275244061E+03  0.20957738024E+03  0.00000000000E+00 0. -1.
         21    1    1    2  505  502 -0.79900274050E+02  0.16550623083E+03  0.12810778513E+04  0.12941935046E+04  0.00000000000E+00 0.  1.
          1    1    1    2  501    0  0.96011473034E+02 -0.32845818667E+03  0.31708167687E+03  0.46652306818E+03  0.00000000000E+00 0.  1.
<scales pt_clust_3="46.80752" pt_clust_4="164.31752" pt_clust_5="14000.00000" pt_clust_6="196.24126"></scales>
<clustering>
<clus scale="   46.808">  2  3  1 -1</clus>
<clus scale="  164.318">  2  4  1 -1</clus>
<clus scale="  196.241">  2  6  1 -1</clus>
<clus scale="   46.808">  2  3  1 -1</clus>
</clustering>
</event>
<event>
 6    0  0.1230761E+002  0.8083591E+02  0.7546771E-02  0.1326696E+00
         21   -1    0    0  504  502  0.00000000000E+00  0.00000000000E+00  0.38986038353E+02  0.38986038353E+02  0.00000000000E+00 0. -1.
          1   -1    0    0  505    0 -0.00000000000E+00 -0.00000000000E+00 -0.22809168337E+04  0.22809168337E+04  0.00000000000E+00 0.  1.
         21    1    1    2  503  502  0.28480523928E+02 -0.25641007292E+02 -0.17804152106E+02  0.42256234219E+02  0.00000000000E+00 0. -1.
         21    1    1    2  504  501 -0.96512515102E+02 -0.12958595378E+02 -0.77558233292E+02  0.12449044267E+03  0.00000000000E+00 0. -1.
         21    1    1    2  505  503 -0.34807891392E+02  0.25572934027E+02 -0.24600817553E+03  0.24977106855E+03  0.00000000000E+00 0. -1.
          1    1    1    2  501    0  0.10283988257E+03  0.13026668643E+02 -0.19005602344E+04  0.19033851266E+04  0.00000000000E+00 0.  1.
<scales pt_clust_3="38.32234" pt_clust_4="80.83591" pt_clust_5="40.51197" pt_clust_6="14000.00000"></scales>
<clustering>
<clus scale="   38.322">  1  3  2 -1</clus>
<clus scale="   40.512">  2  5  1 -1</clus>
<clus scale="   80.836">  1  4  2 -1</clus>
<clus scale="   38.322">  1  3  2 -1</clus>
</clustering>
</event>
<event>
 6    0  0.1230761E+002  0.2689192E+03  0.7546771E-02  0.1101900E+00
         21   -1    0    0  501  502  0.00000000000E+00  0.00000000000E+00  0.75155704546E+03  0.75155704546E+03  0.00000000000E+00 0. -1.
          1   -1    0    0  504    0 -0.00000000000E+00 -0.00000000000E+00 -0.29705877244E+03  0.29705877244E+03  0.00000000000E+00 0. -1.
         21    1    1    2  503  505 -0.19789467871E+03 -0.55201996521E+02  0.43929963732E+03  0.48496776762E+03  0.00000000000E+00 0. -1.
         21    1    1    2  504  503 -0.14903296198E+02 -0.61879444396E+02 -0.80280355000E+02  0.10245052111E+03  0.00000000000E+00 0.  1.
         21    1    1    2  505  502 -0.31600104060E+02 -0.48047836758E+02  0.15053770849E+03  0.16114826363E+03  0.00000000000E+00 0.  1.
          1    1    1    2  501    0  0.24439807897E+03  0.16512927767E+03 -0.55058717791E+02  0.30004926555E+03  0.00000000000E+00 0. -1.
<scales pt_clust_3="41.75764" pt_clust_4="63.64883" pt_clust_5="41.75764" pt_clust_6="257.07599"></scales>
<clustering>
<clus scale="   41.758">  3  5 -1 -1</clus>
<clus scale="   63.649">  2  4  1 -1</clus>
<clus scale="  257.076">  2  6  1 -1</clus>
<clus scale="  268.919">  1  3  2 -1</clus>
</clustering>
</event>
<event>
 6    0  0.1230761E+002  0.1695247E+03  0.7546771E-02  0.1178344E+00
          2   -1    0    0  505    0 -0.00000000000E+00  0.00000000000E+00  0.14620843203E+04  0.14620843203E+04  0.00000000000E+00 0.  1.
         21   -1    0    0  504  502  0.00000000000E+00 -0.00000000000E+00 -0.27029299715E+03  0.27029299715E+03  0.00000000000E+00 0.  1.
         21    1    1    2  503  502  0.28378781251E+01  0.37302039732E+02 -0.11242132017E+02  0.39062530035E+02  0.00000000000E+00 0. -1.
         21    1    1    2  504  501  0.38349400175E+02  0.39162618763E+02 -0.21626007260E+03  0.22309819857E+03  0.00000000000E+00 0.  1.
         21    1    1    2  505  503 -0.91881847131E+02 -0.21182544993E+03  0.71910007795E+03  0.75525970180E+03  0.00000000000E+00 0.  1.
          2    1    1    2  501    0  0.50694568831E+02  0.13536079143E+03  0.70019344981E+03  0.71495688704E+03  0.00000000000E+00 0.  1.
<scales pt_clust_3="37.40983" pt_clust_4="83.31595" pt_clust_5="14000.00000" pt_clust_6="169.52473"></scales>
<clustering>
<clus scale="   37.410">  2  3  1 -1</clus>
<clus scale="   83.316">  2  4  1 -1</clus>
<clus scale="  169.525">  1  6  2 -1</clus>
<clus scale="   37.410">  2  3  1 -1</clus>
</clustering>
</event>
<event>
 6    0  0.1230761E+002  0.9717118E+02  0.7546771E-02  0.1286360E+00
          2   -1    0    0  505    0 -0.00000000000E+00  0.00000000000E+00  0.40285057459E+04  0.40285057459E+04  0.00000000000E+00 0. -1.
         21   -1    0    0  503  502  0.00000000000E+00 -0.00000000000E+00 -0.24615456098E+03  0.24615456098E+03  0.00000000000E+00 0.  1.
         21    1    1    2  503  501  0.52662184104E+02  0.41245034493E+02 -0.44847897660E+02  0.80534417670E+02  0.00000000000E+00 0.  1.
         21    1    1    2  504  502 -0.25261251742E+02  0.52686649641E+02 -0.17713600277E+03  0.18652393242E+03  0.00000000000E+00 0.  1.
         21    1    1    2  505  504  0.33540084084E+02  0.15099127142E+02  0.85447384845E+03  0.85526515103E+03  0.00000000000E+00 0. -1.
          2    1    1    2  501    0 -0.60941016446E+02 -0.10903081127E+03  0.31498612369E+04  0.31523368057E+04  0.00000000000E+00 0. -1.
<scales pt_clust_3="14000.00000" pt_clust_4="58.42828" pt_clust_5="36.78207" pt_clust_6="97.17118"></scales>
<clustering>
<clus scale="   36.782">  1  5  2 -1</clus>
<clus scale="   58.428">  2  4  1 -1</clus>
<clus scale="   97.171">  1  6  2 -1</clus>
<clus scale="   58.428">  2  3  1 -1</clus>
</clustering>
</event>
<event>
 6    0  0.1230761E+002  0.1497040E+03  0.7546771E-02  0.1200837E+00
          2   -1    0    0  502    0 -0.00000000000E+00  0.00000000000E+00  0.46120038631E+03  0.46120038631E+03  0.00000000000E+00 0.  1.
         21   -1    0    0  505  502  0.00000000000E+00 -0.00000000000E+00 -0.65215868316E+03  0.65215868316E+03  0.00000000000E+00 0.  1.
         21    1    1    2  503  504 -0.16801899240E+02  0.83932707762E+02 -0.25570642988E+02  0.89335664956E+02  0.00000000000E+00 0. -1.
         21    1    1    2  504  501  0.10949682042E+03 -0.70512546464E+00 -0.36462555699E+03  0.38071228992E+03  0.00000000000E+00 0.  1.
         21    1    1    2  505  503 -0.25015331904E+02  0.54579982168E+02 -0.20356835871E+03  0.21223764499E+03  0.00000000000E+00 0. -1.
          2    1    1    2  501    0 -0.67679589279E+02 -0.13780756447E+03  0.40280626183E+03  0.43107346961E+03  0.00000000000E+00 0.  1.
<scales pt_clust_3="93.17128" pt_clust_4="149.70400" pt_clust_5="60.03950" pt_clust_6="14000.00000"></scales>
<clustering>
<clus scale="   60.039">  2  5  1 -1</clus>
<clus scale="   93.171">  2  3  1 -1</clus>
<clus scale="  149.704">  2  4  1 -1</clus>
<clus scale="   60.039">  2  3  1 -1</clus>
</clustering>
</event>
<event>
 6    0  0.1230761E+002  0.7058398E+02  0.7546771E-02  0.1358118E+00
         21   -1    0    0  503  502  0.00000000000E+00  0.00000000000E+00  0.61382323289E+02  0.61382323289E+02  0.00000000000E+00 0.  1.
          2   -1    0    0  505    0 -0.00000000000E+00 -0.00000000000E+00 -0.32525036731E+04  0.32525036731E+04  0.00000000000E+00 0. -1.
         21    1    1    2  503  501 -0.34748914172E+02  0.11685158372E+02 -0.82009169871E+02  0.89830584465E+02  0.00000000000E+00 0.  1.
         21    1    1    2  504  502 -0.13147532477E+02  0.40579454704E+02  0.46159611655E+02  0.62851089906E+02  0.00000000000E+00 0.  1.
         21    1    1    2  505  504  0.15436253691E+02  0.56750472209E+02 -0.49167375973E+03  0.49517873544E+03  0.00000000000E+00 0.  1.
          2    1    1    2  501    0  0.32460192958E+02 -0.10901508528E+03 -0.26635980319E+04  0.26660255866E+04  0.00000000000E+00 0. -1.
<scales pt_clust_3="36.66101" pt_clust_4="70.58398" pt_clust_5="58.88865" pt_clust_6="14000.00000"></scales>
<clustering>
<clus scale="   36.661">  1  3  2 -1</clus>
<clus scale="   58.889">  2  5  1 -1</clus>
<clus scale="   70.584">  1  4  2 -1</clus>
<clus scale="   36.661">  1  3  2 -1</clus>
</clustering>
</event>
<event>
 6    0  0.1230761E+002  0.1657217E+03  0.7546771E-02  0.1182384E+00
         -1   -1    0    0    0  501 -0.00000000000E+00  0.00000000000E+00  0.87292859765E+03  0.87292859765E+03  0.00000000000E+00 0.  1.
         21   -1    0    0  504  502  0.00000000000E+00 -0.00000000000E+00 -0.23475849780E+03  0.23475849780E+03  0.00000000000E+00 0. -1.
         21    1    1    2  503  501  0.61978270682E+01 -0.42207703721E+02  0.85297599153E+02  0.95370769814E+02  0.00000000000E+00 0.  1.
         21    1    1    2  504  503  0.25945515288E+02 -0.50768223065E+02 -0.11497622829E+03  0.12833594706E+03  0.00000000000E+00 0. -1.
         21    1    1    2  505  502 -0.11877509681E+03 -0.87836944808E+02 -0.36069742462E+02  0.15206537678E+03  0.00000000000E+00 0. -1.
         -1    1    1    2    0  505  0.86631754454E+02  0.18081287159E+03  0.70391847145E+03  0.73191500180E+03  0.00000000000E+00 0.  1.
<scales pt_clust_3="42.66032" pt_clust_4="57.35887" pt_clust_5="165.72165" pt_clust_6="14000.00000"></scales>
<clustering>
<clus scale="   42.660">  1  3  2 -1</clus>
<clus scale="   57.359">  2  4  1 -1</clus>
<clus scale="  165.722">  2  5  1 -1</clus>
<clus scale="   57.359">  2  3  1 -1</clus>
</clustering>
</event>
<event>
 6    0  0.1230761E+002  0.7253671E+02  0.7546771E-02  0.1351673E+00
          1   -1    0    0  505    0 -0.00000000000E+00  0.00000000000E+00  0.92869344727E+02  0.92869344727E+02  0.00000000000E+00 0. -1.
         21   -1    0    0  503  502  0.00000000000E+00 -0.00000000000E+00 -0.16818716297E+04  0.16818716297E+04  0.00000000000E+00 0.  1.
         21    1    1    2  503  501 -0.33237522734E+02 -0.98647842242E+02 -0.10208332353E+04  0.10261270019E+04  0.00000000000E+00 0.  1.
         21    1    1    2  504  502  0.35958336075E+02  0.26828678494E+02 -0.62308535089E+03  0.62469843478E+03  0.00000000000E+00 0.  1.
         21    1    1    2  505  504 -0.30977198910E+02  0.45373946607E+01 -0.19973144131E+01  0.31371389314E+02  0.00000000000E+00 0. -1.
          1    1    1    2  501    0  0.28256385569E+02  0.67281769086E+02  0.56913615602E+02  0.92544148479E+02  0.00000000000E+00 0. -1.
<scales pt_clust_3="72.53671" pt_clust_4="44.63646" pt_clust_5="31.30774" pt_clust_6="14000.00000"></scales>
<clustering>
<clus scale="   31.308">  1  5  2 -1</clus>
<clus scale="   44.636">  2  4  1 -1</clus>
<clus scale="   72.537">  2  3  1 -1</clus>
<clus scale="   44.636">  2  3  1 -1</clus>
</clustering>
</event>
<event>
 6    0  0.1230761E+002  0.9320352E+02  0.7546771E-02  0.1295274E+00
          2   -1    0    0  503    0 -0.00000000000E+00  0.00000000000E+00  0.24415149825E+04  0.24415149825E+04  0.00000000000E+00 0.  1.
         21   -1    0    0  505  502  0.00000000000E+00 -0.00000000000E+00 -0.23936222330E+03  0.23936222330E+03  0.00000000000E+00 0. -1.
         21    1    1    2  503  504 -0.73996103309E+02 -0.32463480881E+02  0.12836448969E+04  0.12861856485E+04  0.00000000000E+00 0.  1.
         21    1    1    2  504  502 -0.92568074727E+02 -0.18332486101E+02 -0.18906104602E+03  0.21130311788E+03  0.00000000000E+00 0. -1.
         21    1    1    2  505  501  0.56921997898E+02 -0.28050200052E+02 -0.40585066119E+01  0.63587727146E+02  0.00000000000E+00 0.  1.
          2    1    1    2  501    0  0.10964218014E+03  0.78846167035E+02  0.11116274149E+04  0.11198007123E+04  0.00000000000E+00 0.  1.
<scales pt_clust_3="14000.00000" pt_clust_4="58.84454" pt_clust_5="63.45808" pt_clust_6="93.20352"></scales>
<clustering>
<clus scale="   63.458">  2  5  1 -1</clus>
<clus scale="   58.845">  2  4  1 -1</clus>
<clus scale="   93.204">  2  6  1 -1</clus>
<clus scale="   63.458">  2  3  1 -1</clus>
</clustering>
</event>
<event>
 6    0  0.1230761E+002  0.8314376E+02  0.7546771E-02  0.1320359E+00
         21   -1    0    0  505  502  0.00000000000E+00  0.00000000000E+00  0.28678257885E+02  0.28678257885E+02  0.00000000000E+00 0. -1.
         -3   -1    0    0    0  501 -0.00000000000E+00 -0.00000000000E+00 -0.28195825026E+04  0.28195825026E+04  0.00000000000E+00 0. -1.
         21    1    1    2  503  502  0.91038042949E+00  0.69623698460E+02 -0.99960401999E+02  0.12182105790E+03  0.00000000000E+00 0. -1.
         21    1    1    2  504  501 -0.16388557325E+02  0.35841555747E+02 -0.25900709680E+03  0.26198831677E+03  0.00000000000E+00 0. -1.
         21    1    1    2  505  504 -0.40754790238E+02 -0.10244810653E+03 -0.17516196835E+03  0.20697411098E+03  0.00000000000E+00 0. -1.
         -3    1    1    2    0  503  0.56232967134E+02 -0.30171476770E+01 -0.22567747776E+04  0.22574772748E+04  0.00000000000E+00 0. -1.
<scales pt_clust_3="83.14376" pt_clust_4="39.41068" pt_clust_5="14000.00000" pt_clust_6="50.62713"></scales>
<clustering>
<clus scale="   39.411">  2  4  1 -1</clus>
<clus scale="   50.627">  2  6  1 -1</clus>
<clus scale="   83.144">  1  3  2 -1</clus>
<clus scale="   83.144">  1  3  2 -1</clus>
</clustering>
</event>
<event>
 6    0  0.1230761E+002  0.9030662E+02  0.7546771E-02  0.1302111E+00
         21   -1    0    0  505  502  0.00000000000E+00  0.00000000000E+00  0.12058345973E+03  0.12058345973E+03  0.00000000000E+00 0. -1.
         -3   -1    0    0    0  501 -0.00000000000E+00 -0.00000000000E+00 -0.88989714646E+03  0.88989714646E+03  0.00000000000E+00 0. -1.
         21    1    1    2  503  504  0.43846524142E+02  0.52812110969E+02  0.34931000226E+02  0.77018254467E+02  0.00000000000E+00 0. -1.
         21    1    1    2  504  501  0.10565389439E+02  0.41759275424E+02 -0.13497159575E+03  0.14167849589E+03  0.00000000000E+00 0.  1.
         21    1    1    2  505  503  0.38040647227E+02 -0.10451171838E+02  0.48891594308E+02  0.62822812960E+02  0.00000000000E+00 0. -1.
         -3    1    1    2    0  502 -0.92452560808E+02 -0.84120214555E+02 -0.71816468552E+03  0.72896104287E+03  0.00000000000E+00 0. -1.
<scales pt_clust_3="90.30662" pt_clust_4="43.08208" pt_clust_5="39.45019" pt_clust_6="14000.00000"></scales>
<clustering>
<clus scale="   39.450">  1  5  2 -1</clus>
<clus scale="   43.082">  2  4  1 -1</clus>
<clus scale="   90.307">  1  3  2 -1</clus>
<clus scale="   39.450">  1  3  2 -1</clus>
</clustering>
</event>
<event>
 6    0  0.1230761E+002  0.1508747E+03  0.7546771E-02  0.1199402E+00
         21   -1    0    0  505  502  0.00000000000E+00  0.00000000000E+00  0.56789447499E+03  0.56789447499E+03  0.00000000000E+00 0. -1.
          2   -1    0    0  503    0 -0.00000000000E+00 -0.00000000000E+00 -0.38267053412E+04  0.38267053412E+04  0.00000000000E+00 0. -1.
         21    1    1    2  503  504 -0.45764290452E+01  0.12659043609E+03  0.31233555159E+01  0.12671163152E+03  0.00000000000E+00 0.  1.
         21    1    1    2  504  502  0.14679958218E+03 -0.41163193214E+02  0.48537943340E+03  0.50876096565E+03  0.00000000000E+00 0. -1.
         21    1    1    2  505  501 -0.97149595369E+02 -0.13677233502E+02 -0.44326563618E+03  0.45399287969E+03  0.00000000000E+00 0. -1.
          2    1    1    2  501    0 -0.45073557763E+02 -0.71750009378E+02 -0.33040480189E+04  0.33051343393E+04  0.00000000000E+00 0. -1.
<scales pt_clust_3="118.51370" pt_clust_4="14000.00000" pt_clust_5="150.87470" pt_clust_6="84.73305"></scales>
<clustering>
<clus scale="   84.733">  2  6  1 -1</clus>
<clus scale="  118.514">  2  3  1 -1</clus>
<clus scale="  150.875">  2  5  1 -1</clus>
<clus scale="  150.875">  1  3  2 -1</clus>
</clustering>
</event>
<event>
 6    0  0.1230761E+002  0.8429998E+02  0.7546771E-02  0.1317273E+00
          2   -1    0    0  505    0 -0.00000000000E+00  0.00000000000E+00  0.36764254160E+03  0.36764254160E+03  0.00000000000E+00 0. -1.
         21   -1    0    0  501  502  0.00000000000E+00 -0.00000000000E+00 -0.16556941324E+03  0.16556941324E+03  0.00000000000E+00 0. -1.
         21    1    1    2  503  502 -0.74463497546E+02  0.52535378148E+02 -0.10104686303E+03  0.13607074246E+03  0.00000000000E+00 0. -1.
         21    1    1    2  504  503  0.36416004476E+01 -0.90568500814E+02  0.18673038433E+02  0.92545107693E+02  0.00000000000E+00 0. -1.
         21    1    1    2  505  504  0.35055264536E+02 -0.15400855352E+02  0.60475528835E+02  0.71577562861E+02  0.00000000000E+00 0. -1.
          2    1    1    2  501    0  0.35766632562E+02  0.53433978019E+02  0.22397142413E+03  0.23301854183E+03  0.00000000000E+00 0. -1.
<scales pt_clust_3="14000.00000" pt_clust_4="84.29998" pt_clust_5="38.28914" pt_clust_6="75.02447"></scales>
<clustering>
<clus scale="   38.289">  1  5  2 -1</clus>
<clus scale="   75.024">  1  6  2 -1</clus>
<clus scale="   84.300">  1  4  2 -1</clus>
<clus scale="   84.300">  2  3  1 -1</clus>
</clustering>
</event>
<event>
 6    0  0.1230761E+002  0.1602320E+03  0.7546771E-02  0.1188435E+00
         21   -1    0    0  505  502  0.00000000000E+00  0.00000000000E+00  0.24161908721E+03  0.24161908721E+03  0.00000000000E+00 0.  1.
          2   -1    0    0  503    0 -0.00000000000E+00 -0.00000000000E+00 -0.55121808243E+03  0.55121808243E+03  0.00000000000E+00 0.  1.
         21    1    1    2  503  504  0.25715187485E+02 -0.25846275873E+02 -0.21962805727E+03  0.22263374494E+03  0.00000000000E+00 0.  1.
         21    1    1    2  504  502  0.20011968375E+02 -0.22624546463E+02  0.64356602536E+02  0.71092343265E+02  0.00000000000E+00 0.  1.
         21    1    1    2  505  501 -0.16664960140E+03 -0.43715157952E+02  0.10262685456E+03  0.20053771704E+03  0.00000000000E+00 0.  1.
          2    1    1    2  501    0  0.12092244554E+03  0.92185980288E+02 -0.25695439505E+03  0.29857336440E+03  0.00000000000E+00 0.  1.
<scales pt_clust_3="36.72017" pt_clust_4="30.20512" pt_clust_5="14000.00000" pt_clust_6="160.23204"></scales>
<clustering>
<clus scale="   30.205">  1  4  2 -1</clus>
<clus scale="   36.720">  2  3  1 -1</clus>
<clus scale="  160.232">  2  6  1 -1</clus>
<clus scale="   30.205">  1  3  2 -1</clus>
</clustering>
</event>
<event>
 6    0  0.1230761E+002  0.1842554E+03  0.7546771E-02  0.1163747E+00
         21   -1    0    0  503  502  0.00000000000E+00  0.00000000000E+00  0.53409372532E+03  0.53409372532E+03  0.00000000000E+00 0.  1.
          1   -1    0    0  505    0 -0.00000000000E+00 -0.00000000000E+00 -0.85722975886E+03  0.85722975886E+03  0.00000000000E+00 0.  1.
         21    1    1    2  503  504 -0.87206873494E+02 -0.28091361485E+02  0.31903072396E+03  0.33192584444E+03  0.00000000000E+00 0.  1.
         21    1    1    2  504  501 -0.39494278275E+02 -0.78079120833E+02  0.17853190999E+03  0.19882099993E+03  0.00000000000E+00 0.  1.
         21    1    1    2  505  502  0.43426583442E+02 -0.11233549828E+02 -0.23792252987E+02  0.50775309880E+02  0.00000000000E+00 0. -1.
          1    1    1    2  501    0  0.83274568327E+02  0.11740403215E+03 -0.79690641450E+03  0.80980132994E+03  0.00000000000E+00 0.  1.
<scales pt_clust_3="80.65377" pt_clust_4="80.65377" pt_clust_5="44.85600" pt_clust_6="164.77793"></scales>
<clustering>
<clus scale="   44.856">  2  5  1 -1</clus>
<clus scale="   80.654">  3  4 -1 -1</clus>
<clus scale="  164.778">  2  6  1 -1</clus>
<clus scale="  184.255">  1  3  2 -1</clus>
</clustering>
</event>
<event>
 6    0  0.1230761E+002  0.1405662E+03  0.7546771E-02  0.1212569E+00
         21   -1    0    0  503  502  0.00000000000E+00  0.00000000000E+00  0.18371123801E+03  0.18371123801E+03  0.00000000000E+00 0. -1.
          2   -1    0    0  505    0 -0.00000000000E+00 -0.00000000000E+00 -0.73252938929E+03  0.73252938929E+03  0.00000000000E+00 0. -1.
         21    1    1    2  503  504 -0.45167727037E+02 -0.18386931609E+02  0.18253105533E+02  0.52070900523E+02  0.00000000000E+00 0. -1.
         21    1    1    2  504  501 -0.22797334804E+02 -0.51024544080E+02 -0.40218447577E+02  0.68853076171E+02  0.00000000000E+00 0.  1.
         21    1    1    2  505  502  0.73396626629E+02 -0.75055309307E+02  0.10420220069E+03  0.14791370080E+03  0.00000000000E+00 0. -1.
          2    1    1    2  501    0 -0.54315647882E+01  0.14446678500E+03 -0.63105500993E+03  0.64740294981E+03  0.00000000000E+00 0. -1.
<scales pt_clust_3="48.76682" pt_clust_4="59.36875" pt_clust_5="140.56618" pt_clust_6="14000.00000"></scales>
<clustering>
<clus scale="   48.767">  1  3  2 -1</clus>
<clus scale="   59.369">  1  4  2 -1</clus>
<clus scale="  140.566">  1  5  2 -1</clus>
<clus scale="   48.767">  1  3  2 -1</clus>
</clustering>
</event>
<event>
 6    0  0.1230761E+002  0.2170822E+03  0.7546771E-02  0.1136077E+00
          1   -1    0    0  505    0 -0.00000000000E+00  0.00000000000E+00  0.32678107367E+04  0.32678107367E+04  0.00000000000E+00 0.  1.
         21   -1    0    0  503  502  0.00000000000E+00 -0.00000000000E+00 -0.15964989130E+03  0.15964989130E+03  0.00000000000E+00 0. -1.
         21    1    1    2  503  504  0.72137341167E+02 -0.13207706959E+03 -0.69762939086E+02  0.16587650820E+03  0.00000000000E+00 0. -1.
         21    1    1    2  504  501  0.10931654792E+03 -0.15878136609E+03  0.66373293010E+03  0.69116064150E+03  0.00000000000E+00 0. -1.
         21    1    1    2  505  502 -0.58226466832E+02  0.10068037626E+03  0.12587459489E+03  0.17138049260E+03  0.00000000000E+00 0. -1.
          1    1    1    2  501    0 -0.12322742226E+03  0.19017805943E+03  0.23883162594E+04  0.23990429857E+04  0.00000000000E+00 0.  1.
<scales pt_clust_3="50.48475" pt_clust_4="217.08222" pt_clust_5="116.30503" pt_clust_6="14000.00000"></scales>
<clustering>
<clus scale="  116.305">  2  5  1 -1</clus>
<clus scale="   50.485">  2  3  1 -1</clus>
<clus scale="  217.082">  2  4  1 -1</clus>
<clus scale="  116.305">  2  3  1 -1</clus>
</clustering>
</event>
<event>
 6    0  0.1230761E+002  0.1051112E+03  0.7546771E-02  0.1269901E+00
          2   -1    0    0  504    0 -0.00000000000E+00  0.00000000000E+00  0.36530994808E+03  0.36530994808E+03  0.00000000000E+00 0.  1.
         21   -1    0    0  501  502  0.00000000000E+00 -0.00000000000E+00 -0.91786634720E+03  0.91786634720E+03  0.00000000000E+00 0. -1.
         21    1    1    2  503  505  0.38395505177E+02 -0.69606483900E+02 -0.85235936352E+02  0.11655231557E+03  0.00000000000E+00 0.  1.
         21    1    1    2  504  503  0.14689346254E+02  0.29123519463E+02 -0.13636613367E+02  0.35354115792E+02  0.00000000000E+00 0. -1.
         21    1    1    2  505  502 -0.19027424367E+02 -0.44876384721E+02 -0.78547493258E+03  0.78698589726E+03  0.00000000000E+00 0. -1.
          2    1    1    2  501    0 -0.34057427064E+02  0.85359349158E+02  0.33179108317E+03  0.34428396666E+03  0.00000000000E+00 0.  1.
<scales pt_clust_3="105.11120" pt_clust_4="32.61834" pt_clust_5="48.67417" pt_clust_6="14000.00000"></scales>
<clustering>
<clus scale="   32.618">  1  4  2 -1</clus>
<clus scale="   48.674">  2  5  1 -1</clus>
<clus scale="  105.111">  2  3  1 -1</clus>
<clus scale="   48.674">  2  3  1 -1</clus>
</clustering>
</event>
<event>
 6    0  0.1230761E+002  0.8085117E+02  0.7546771E-02  0.1326653E+00
         21   -1    0    0  501  502  0.00000000000E+00  0.00000000000E+00  0.19907907984E+04  0.19907907984E+04  0.00000000000E+00 0.  1.
          2   -1    0    0  503    0 -0.00000000000E+00 -0.00000000000E+00 -0.61245050395E+02  0.61245050395E+02  0.00000000000E+00 0.  1.
         21    1    1    2  503  504 -0.15799388394E+02  0.28834529183E+02  0.10671265157E+02  0.34567711045E+02  0.00000000000E+00 0.  1.
         21    1    1    2  504  505 -0.51941237576E+02  0.14875404890E+02  0.69567614216E+03  0.69777106891E+03  0.00000000000E+00 0.  1.
         21    1    1    2  505  502  0.61910027834E+00  0.50353408180E+02  0.12009665262E+04  0.12020218160E+04  0.00000000000E+00 0.  1.
          2    1    1    2  501    0  0.67121525691E+02 -0.94063342253E+02  0.22231814498E+02  0.11767525289E+03  0.00000000000E+00 0.  1.
<scales pt_clust_3="32.87934" pt_clust_4="80.85117" pt_clust_5="50.66403" pt_clust_6="14000.00000"></scales>
<clustering>
<clus scale="   32.879">  2  3  1 -1</clus>
<clus scale="   50.664">  1  5  2 -1</clus>
<clus scale="   80.851">  1  4  2 -1</clus>
<clus scale="   50.664">  1  3  2 -1</clus>
</clustering>
</event>
<event>
 6    0  0.1230761E+002  0.1363608E+03  0.7546771E-02  0.1218311E+00
         21   -1    0    0  503  502  0.00000000000E+00  0.00000000000E+00  0.99613511717E+03  0.99613511717E+03  0.00000000000E+00 0. -1.
          2   -1    0    0  505    0 -0.00000000000E+00 -0.00000000000E+00 -0.46704722867E+03  0.46704722867E+03  0.00000000000E+00 0. -1.
         21    1    1    2  503  504 -0.83845141792E+02  0.19369368003E+01  0.75068347213E+03  0.75535384745E+03  0.00000000000E+00 0. -1.
         21    1    1    2  504  501 -0.41629030559E+02  0.18187231493E+02  0.20387222480E+03  0.20887229500E+03  0.00000000000E+00 0.  1.
         21    1    1    2  505  502 -0.22297804295E+02 -0.54239663169E+02 -0.13806608203E+02  0.60247452786E+02  0.00000000000E+00 0.  1.
          2    1    1    2  501    0  0.14777197665E+03  0.34115494877E+02 -0.41166120023E+03  0.43870875060E+03  0.00000000000E+00 0. -1.
<scales pt_clust_3="36.10611" pt_clust_4="36.10611" pt_clust_5="58.64412" pt_clust_6="127.23033"></scales>
<clustering>
<clus scale="   36.106">  3  4 -1 -1</clus>
<clus scale="   58.644">  2  5  1 -1</clus>
<clus scale="  127.230">  2  6  1 -1</clus>
<clus scale="  136.361">  1  3  2 -1</clus>
</clustering>
</event>
<event>
 6    0  0.1230761E+002  0.1532616E+03  0.7546771E-02  0.1196522E+00
         21   -1    0    0  503  502  0.00000000000E+00  0.00000000000E+00  0.11791040820E+04  0.11791040820E+04  0.00000000000E+00 0. -1.
          2   -1    0    0  505    0 -0.00000000000E+00 -0.00000000000E+00 -0.51383661740E+03  0.51383661740E+03  0.00000000000E+00 0.  1.
         21    1    1    2  503  504  0.52370553430E+02  0.49136709467E+02  0.60887010347E+03  0.61309044519E+03  0.00000000000E+00 0. -1.
         21    1    1    2  504  501  0.78965189952E+02  0.21110462945E+02  0.51612558197E+03  0.52255790993E+03  0.00000000000E+00 0. -1.
         21    1    1    2  505  502 -0.27694629120E+02  0.33974242513E+02  0.25212898087E+02  0.50566113815E+02  0.00000000000E+00 0. -1.
          2    1    1    2  501    0 -0.10364111426E+03 -0.10422141492E+03 -0.48494111888E+03  0.50672623050E+03  0.00000000000E+00 0.  1.
<scales pt_clust_3="40.83700" pt_clust_4="40.83700" pt_clust_5="43.83197" pt_clust_6="146.93862"></scales>
<clustering>
<clus scale="   40.837">  3  4 -1 -1</clus>
<clus scale="   43.832">  1  5  2 -1</clus>
<clus scale="  146.939">  2  6  1 -1</clus>
<clus scale="   43.832">  1  3  2 -1</clus>
</clustering>
</event>
<event>
 6    0  0.1230761E+002  0.2577177E+03  0.7546771E-02  0.1108522E+00
         21   -1    0    0  504  502  0.00000000000E+00  0.00000000000E+00  0.76463211010E+02  0.76463211010E+02  0.00000000000E+00 0. -1.
          2   -1    0    0  503    0 -0.00000000000E+00 -0.00000000000E+00 -0.14840189988E+04  0.14840189988E+04  0.00000000000E+00 0. -1.
         21    1    1    2  503  502  0.29861047718E+02  0.12552516954E+02 -0.46872743999E+03  0.46984535844E+03  0.00000000000E+00 0. -1.
         21    1    1    2  504  505  0.43450618385E+02  0.67532789801E+00 -0.26014801277E+02  0.50647627697E+02  0.00000000000E+00 0.  1.
         21    1    1    2  505  501  0.13650399114E+03 -0.15657204435E+03 -0.22249822116E+03  0.30439054369E+03  0.00000000000E+00 0. -1.
          2    1    1    2  501    0 -0.20981565724E+03  0.14334419950E+03 -0.69031532532E+03  0.73559867994E+03  0.00000000000E+00 0. -1.
<scales pt_clust_3="32.39210" pt_clust_4="40.13972" pt_clust_5="40.13972" pt_clust_6="242.51285"></scales>
<clustering>
<clus scale="   32.392">  2  3  1 -1</clus>
<clus scale="   40.140">  4  5 -1 -1</clus>
<clus scale="  242.513">  2  6  1 -1</clus>
<clus scale="  257.718">  1  3  2 -1</clus>
</clustering>
</event>
<event>
 6    0  0.1230761E+002  0.8212955E+02  0.7546771E-02  0.1323114E+00
         21   -1    0    0  501  502  0.00000000000E+00  0.00000000000E+00  0.11076345633E+03  0.11076345633E+03  0.00000000000E+00 0.  1.
          2   -1    0    0  505    0 -0.00000000000E+00 -0.00000000000E+00 -0.11831211129E+04  0.11831211129E+04  0.00000000000E+00 0.  1.
         21    1    1    2  503  502 -0.14007878463E+02 -0.35271540618E+02  0.45572602006E+02  0.59305685142E+02  0.00000000000E+00 0.  1.
         21    1    1    2  504  503  0.26568920036E+02 -0.51704052167E+02 -0.59077309196E+01  0.58430452736E+02  0.00000000000E+00 0.  1.
         21    1    1    2  505  504 -0.32297003988E+02 -0.38066145531E+02 -0.10160890122E+04  0.10173146065E+04  0.00000000000E+00 0.  1.
          2    1    1    2  501    0  0.19735962414E+02  0.12504173832E+03 -0.95933515500E+02  0.15883382489E+03  0.00000000000E+00 0.  1.
<scales pt_clust_3="37.95131" pt_clust_4="14000.00000" pt_clust_5="50.29918" pt_clust_6="82.12955"></scales>
<clustering>
<clus scale="   37.951">  1  3  2 -1</clus>
<clus scale="   50.299">  2  5  1 -1</clus>
<clus scale="   82.130">  2  6  1 -1</clus>
<clus scale="   37.951">  1  3  2 -1</clus>
</clustering>
</event>
<event>
 6    0  0.1230761E+002  0.2281892E+03  0.7546771E-02  0.1127921E+00
         21   -1    0    0  501  502  0.00000000000E+00  0.00000000000E+00  0.32439663789E+03  0.32439663789E+03  0.00000000000E+00 0.  1.
          1   -1    0    0  504    0 -0.00000000000E+00 -0.00000000000E+00 -0.43383191939E+03  0.43383191939E+03  0.00000000000E+00 0.  1.
         21    1    1    2  503  502  0.12249372056E+03 -0.34663244710E+01  0.10914021646E+03  0.16409848821E+03  0.00000000000E+00 0.  1.
         21    1    1    2  504  505 -0.52249177219E+01  0.32661184421E+02 -0.24802882096E+03  0.25022459663E+03  0.00000000000E+00 0. -1.
         21    1    1    2  505  503  0.94991635473E+02  0.40678518791E+02  0.58201720784E+02  0.11859845279E+03  0.00000000000E+00 0.  1.
          1    1    1    2  501    0 -0.21226043831E+03 -0.69873378741E+02 -0.28748397797E+02  0.22530701965E+03  0.00000000000E+00 0.  1.
<scales pt_clust_3="52.72691" pt_clust_4="33.07647" pt_clust_5="52.72691" pt_clust_6="220.99928"></scales>
<clustering>
<clus scale="   33.076">  2  4  1 -1</clus>
<clus scale="   52.727">  3  5 -1 -1</clus>
<clus scale="  220.999">  2  6  1 -1</clus>
<clus scale="  228.189">  1  3  2 -1</clus>
</clustering>
</event>
<event>
 6    0  0.1230761E+002  0.1901752E+03  0.7546771E-02  0.1158303E+00
          2   -1    0    0  505    0 -0.00000000000E+00  0.00000000000E+00  0.89374244542E+03  0.89374244542E+03  0.00000000000E+00 0. -1.
         21   -1    0    0  503  502  0.00000000000E+00 -0.00000000000E+00 -0.22109132289E+03  0.22109132289E+03  0.00000000000E+00 0. -1.
         21    1    1    2  503  504 -0.52515414901E+02  0.19684383083E+03 -0.12843244339E+03  0.24083242110E+03  0.00000000000E+00 0. -1.
         21    1    1    2  504  501  0.40496712375E+02 -0.14241423718E+03  0.14332720472E+03  0.20606912985E+03  0.00000000000E+00 0. -1.
         21    1    1    2  505  502 -0.31775773366E+02  0.59354357893E+01  0.34037031519E+03  0.34190185819E+03  0.00000000000E+00 0. -1.
          2    1    1    2  501    0  0.43794475892E+02 -0.60365029441E+02  0.31738604601E+03  0.32603035917E+03  0.00000000000E+00 0. -1.
<scales pt_clust_3="14000.00000" pt_clust_4="190.17518" pt_clust_5="32.32536" pt_clust_6="62.27824"></scales>
<clustering>
<clus scale="   32.325">  1  5  2 -1</clus>
<clus scale="   62.278">  1  6  2 -1</clus>
<clus scale="  190.175">  1  4  2 -1</clus>
<clus scale="  190.175">  2  3  1 -1</clus>
</clustering>
</event>
<event>
 6    0  0.1230761E+002  0.8735342E+02  0.7546771E-02  0.1309390E+00
          2   -1    0    0  505    0 -0.00000000000E+00  0.00000000000E+00  0.31573042433E+03  0.31573042433E+03  0.00000000000E+00 0. -1.
         21   -1    0    0  503  502  0.00000000000E+00 -0.00000000000E+00 -0.81882735499E+02  0.81882735499E+02  0.00000000000E+00 0. -1.
         21    1    1    2  503  504 -0.52307467127E+02  0.20177761273E+02 -0.25059062610E+02  0.61409850888E+02  0.00000000000E+00 0. -1.
         21    1    1    2  504  501 -0.26494786298E+02  0.60160550790E+02  0.35529485109E+02  0.74723556423E+02  0.00000000000E+00 0. -1.
         21    1    1    2  505  502  0.29607184301E+02  0.11382406350E+02  0.56916028570E+02  0.65158106516E+02  0.00000000000E+00 0. -1.
          2    1    1    2  501    0  0.49195069124E+02 -0.91720718414E+02  0.16646123777E+03  0.19632164601E+03  0.00000000000E+00 0. -1.
<scales pt_clust_3="54.40665" pt_clust_4="14000.00000" pt_clust_5="31.71978" pt_clust_6="87.35342"></scales>
<clustering>
<clus scale="   31.720">  1  5  2 -1</clus>
<clus scale="   54.407">  2  3  1 -1</clus>
<clus scale="   87.353">  1  6  2 -1</clus>
<clus scale="   54.407">  2  3  1 -1</clus>
</clustering>
</event>
<event>
 6    0  0.1230761E+002  0.9689541E+02  0.7546771E-02  0.1286963E+00
          2   -1    0    0  502    0 -0.00000000000E+00  0.00000000000E+00  0.94218260159E+03  0.94218260159E+03  0.00000000000E+00 0.  1.
         21   -1    0    0  505  502  0.00000000000E+00 -0.00000000000E+00 -0.71995130129E+02  0.71995130129E+02  0.00000000000E+00 0. -1.
         21    1    1    2  503  501 -0.35808148846E+02  0.39346130671E+02  0.33447500425E+03  0.33867959783E+03  0.00000000000E+00 0. -1.
         21    1    1    2  504  503  0.34799377475E+01 -0.15534996261E+03  0.10158151799E+03  0.18564623790E+03  0.00000000000E+00 0. -1.
         21    1    1    2  505  504  0.28808659230E+02  0.79229901159E+02  0.38810858579E+02  0.92809475960E+02  0.00000000000E+00 0. -1.
          2    1    1    2  501    0  0.35195518684E+01  0.36773930781E+02  0.39532009064E+03  0.39704242002E+03  0.00000000000E+00 0.  1.
<scales pt_clust_3="35.83365" pt_clust_4="86.83047" pt_clust_5="84.30490" pt_clust_6="35.83365"></scales>
<clustering>
<clus scale="   35.834">  3  6 -1 -1</clus>
<clus scale="   84.305">  2  5  1 -1</clus>
<clus scale="   86.830">  2  4  1 -1</clus>
<clus scale="   84.305">  2  3  1 -1</clus>
</clustering>
</event>
<event>
 6    0  0.1230761E+002  0.7059102E+02  0.7546771E-02  0.1358095E+00
         21   -1    0    0  503  502  0.00000000000E+00  0.00000000000E+00  0.60694638254E+02  0.60694638254E+02  0.00000000000E+00 0.  1.
          1   -1    0    0  504    0 -0.00000000000E+00 -0.00000000000E+00 -0.92759723383E+03  0.92759723383E+03  0.00000000000E+00 0. -1.
         21    1    1    2  503  501 -0.26962338931E+02  0.14671435330E+02 -0.95918075172E+01  0.32159314463E+02  0.00000000000E+00 0.  1.
         21    1    1    2  504  505 -0.43607359497E+02 -0.35147911858E+02 -0.27268346553E+03  0.27837609431E+03  0.00000000000E+00 0.  1.
         21    1    1    2  505  502  0.63206279416E+02 -0.70644048648E+02 -0.93406347676E+01  0.95251576495E+02  0.00000000000E+00 0.  1.
          1    1    1    2  501    0  0.73634190119E+01  0.91120525175E+02 -0.57528668777E+03  0.58250488682E+03  0.00000000000E+00 0. -1.
<scales pt_clust_3="30.69558" pt_clust_4="56.71113" pt_clust_5="14000.00000" pt_clust_6="70.59102"></scales>
<clustering>
<clus scale="   30.696">  1  3  2 -1</clus>
<clus scale="   56.711">  2  4  1 -1</clus>
<clus scale="   70.591">  2  6  1 -1</clus>
<clus scale="   30.696">  1  3  2 -1</clus>
</clustering>
</event>
<event>
 6    0  0.1230761E+002  0.6928410E+02  0.7546771E-02  0.1362545E+00
         21   -1    0    0  501  502  0.00000000000E+00  0.00000000000E+00  0.36442883762E+03  0.36442883762E+03  0.00000000000E+00 0. -1.
          1   -1    0    0  504    0 -0.00000000000E+00 -0.00000000000E+00 -0.89502868522E+03  0.89502868522E+03  0.00000000000E+00 0. -1.
         21    1    1    2  503  502 -0.12314794928E+02  0.68728597288E+02  0.32864680196E+03  0.33598213449E+03  0.00000000000E+00 0. -1.
         21    1    1    2  504  505  0.27176517552E+02 -0.14269539990E+02 -0.41893770939E+03  0.42006069470E+03  0.00000000000E+00 0. -1.
         21    1    1    2  505  503  0.58970397925E+02 -0.50703857051E+02 -0.25167555155E+02  0.81742246016E+02  0.00000000000E+00 0.  1.
          1    1    1    2  501    0 -0.73832120548E+02 -0.37552002470E+01 -0.41514138500E+03  0.42167244764E+03  0.00000000000E+00 0. -1.
<scales pt_clust_3="14000.00000" pt_clust_4="30.69500" pt_clust_5="69.28410" pt_clust_6="52.51722"></scales>
<clustering>
<clus scale="   30.695">  2  4  1 -1</clus>
<clus scale="   52.517">  2  6  1 -1</clus>
<clus scale="   69.284">  2  5  1 -1</clus>
<clus scale="   69.284">  1  3  2 -1</clus>
</clustering>
</event>
<event>
 6    0  0.1230761E+002  0.1182859E+03  0.7546771E-02  0.1245952E+00
          1   -1    0    0  505    0 -0.00000000000E+00  0.00000000000E+00  0.19738484537E+04  0.19738484537E+04  0.00000000000E+00 0.  1.
         21   -1    0    0  504  502  0.00000000000E+00 -0.00000000000E+00 -0.67853770616E+03  0.67853770616E+03  0.00000000000E+00 0. -1.
         21    1    1    2  503  502  0.41381863015E+02 -0.73431768266E+02 -0.18804273121E+03  0.20606977444E+03  0.00000000000E+00 0. -1.
         21    1    1    2  504  501 -0.48377094961E+02  0.19089381589E+03 -0.45407451696E+03  0.49493884391E+03  0.00000000000E+00 0. -1.
         21    1    1    2  505  503 -0.26000144627E+02 -0.45888297904E+02  0.10738387851E+03  0.11963712120E+03  0.00000000000E+00 0.  1.
          1    1    1    2  501    0  0.32995376574E+02 -0.71573749717E+02  0.18300441172E+04  0.18317404203E+04  0.00000000000E+00 0.  1.
<scales pt_clust_3="84.42141" pt_clust_4="14000.00000" pt_clust_5="52.74224" pt_clust_6="118.28586"></scales>
<clustering>
<clus scale="   52.742">  1  5  2 -1</clus>
<clus scale="   84.421">  2  3  1 -1</clus>
<clus scale="  118.286">  1  6  2 -1</clus>
<clus scale="   84.421">  2  3  1 -1</clus>
</clustering>
</event>
<event>
 6    0  0.1230761E+002  0.9059328E+02  0.7546771E-02  0.1301421E+00
          2   -1    0    0  505    0 -0.00000000000E+00  0.00000000000E+00  0.10808082272E+04  0.10808082272E+04  0.00000000000E+00 0. -1.
         21   -1    0    0  503  502  0.00000000000E+00 -0.00000000000E+00 -0.87871707065E+02  0.87871707065E+02  0.00000000000E+00 0.  1.
         21    1    1    2  503  504 -0.21382038503E+02 -0.70086579357E+02  0.72202848161E+02  0.10287162611E+03  0.00000000000E+00 0.  1.
         21    1    1    2  504  501 -0.57047354828E+00  0.94775918933E+02  0.38188483292E+03  0.39347023504E+03  0.00000000000E+00 0. -1.
         21    1    1    2  505  502 -0.62051900095E+02  0.39229166023E+02 -0.40233012659E+02  0.83714162958E+02  0.00000000000E+00 0.  1.
          2    1    1    2  501    0  0.84004412145E+02 -0.63918505599E+02  0.57908185169E+03  0.58862391013E+03  0.00000000000E+00 0. -1.
<scales pt_clust_3="73.27565" pt_clust_4="90.59328" pt_clust_5="82.93223" pt_clust_6="14000.00000"></scales>
<clustering>
<clus scale="   73.276">  2  3  1 -1</clus>
<clus scale="   82.932">  2  5  1 -1</clus>
<clus scale="   90.593">  2  4  1 -1</clus>
<clus scale="   73.276">  2  3  1 -1</clus>
</clustering>
</event>
<event>
 6    0  0.1230761E+002  0.1198084E+03  0.7546771E-02  0.1243413E+00
          1   -1    0    0  505    0 -0.00000000000E+00  0.00000000000E+00  0.17978103567E+04  0.17978103567E+04  0.00000000000E+00 0. -1.
         21   -1    0    0  501  502  0.00000000000E+00 -0.00000000000E+00 -0.18621341083E+03  0.18621341083E+03  0.00000000000E+00 0.  1.
         21    1    1    2  503  502 -0.44897811015E+02  0.28342330173E+02 -0.14509155828E+03  0.15450133138E+03  0.00000000000E+00 0.  1.
         21    1    1    2  504  503 -0.76328328605E+02 -0.27731514244E+01  0.15553306794E+02  0.77946195986E+02  0.00000000000E+00 0.  1.
         21    1    1    2  505  504 -0.33573757660E+02  0.13324283768E+01  0.27439588376E+03  0.27644542606E+03  0.00000000000E+00 0.  1.
          1    1    1    2  501    0  0.15479989728E+03 -0.26901607125E+02  0.14667393136E+04  0.14751308141E+04  0.00000000000E+00 0. -1.
<scales pt_clust_3="53.18517" pt_clust_4="119.80840" pt_clust_5="33.60019" pt_clust_6="14000.00000"></scales>
<clustering>
<clus scale="   33.600">  1  5  2 -1</clus>
<clus scale="   53.185">  2  3  1 -1</clus>
<clus scale="  119.808">  2  4  1 -1</clus>
<clus scale="   53.185">  2  3  1 -1</clus>
</clustering>
</event>
<event>
 6    0  0.1230761E+002  0.4408960E+03  0.7546771E-02  0.1030472E+00
          2   -1    0    0  505    0 -0.00000000000E+00  0.00000000000E+00  0.40452985554E+03  0.40452985554E+03  0.00000000000E+00 0.  1.
         21   -1    0    0  501  502  0.00000000000E+00 -0.00000000000E+00 -0.14856113008E+04  0.14856113008E+04  0.00000000000E+00 0.  1.
         21    1    1    2  503  502 -0.19037145370E+03 -0.31135856100E+03 -0.11032616223E+04  0.11620549260E+04  0.00000000000E+00 0.  1.
         21    1    1    2  504  503  0.11951505651E+02 -0.71708851322E+02 -0.18325552624E+03  0.19714863871E+03  0.00000000000E+00 0. -1.
         21    1    1    2  505  504 -0.38658578227E+02 -0.10103918350E+02  0.10326606131E+02  0.41270008853E+02  0.00000000000E+00 0.  1.
          2    1    1    2  501    0  0.21707852627E+03  0.39317133067E+03  0.19510909713E+03  0.48966758277E+03  0.00000000000E+00 0.  1.
<scales pt_clust_3="52.16982" pt_clust_4="52.16982" pt_clust_5="39.95716" pt_clust_6="425.03601"></scales>
<clustering>
<clus scale="   39.957">  1  5  2 -1</clus>
<clus scale="   52.170">  3  4 -1 -1</clus>
<clus scale="  425.036">  1  6  2 -1</clus>
<clus scale="  440.896">  2  3  1 -1</clus>
</clustering>
</event>
<event>
 6    0  0.1230761E+002  0.6834496E+02  0.7546771E-02  0.1365813E+00
          1   -1    0    0  503    0 -0.00000000000E+00  0.00000000000E+00  0.15616518677E+03  0.15616518677E+03  0.00000000000E+00 0. -1.
         21   -1    0    0  505  502  0.00000000000E+00 -0.00000000000E+00 -0.11704387237E+03  0.11704387237E+03  0.00000000000E+00 0.  1.
         21    1    1    2  503  502  0.52759956064E+02 -0.33548532895E+01  0.16286018387E+02  0.55318192300E+02  0.00000000000E+00 0.  1.
         21    1    1    2  504  501 -0.61592502454E+02  0.32150499999E+02 -0.63202875897E+01  0.69765586387E+02  0.00000000000E+00 0.  1.
         21    1    1    2  505  504  0.85817158416E+01  0.52754721435E+02 -0.14831606360E+02  0.55467855806E+02  0.00000000000E+00 0.  1.
          1    1    1    2  501    0  0.25083054843E+00 -0.81550368145E+02  0.43987189968E+02  0.92657424645E+02  0.00000000000E+00 0. -1.
<scales pt_clust_3="52.86651" pt_clust_4="68.34496" pt_clust_5="55.04051" pt_clust_6="14000.00000"></scales>
<clustering>
<clus scale="   52.867">  1  3  2 -1</clus>
<clus scale="   55.041">  2  5  1 -1</clus>
<clus scale="   68.345">  2  4  1 -1</clus>
<clus scale="   55.041">  2  3  1 -1</clus>
</clustering>
</event>
<event>
 6    0  0.1230761E+002  0.1692284E+03  0.7546771E-02  0.1178655E+00
          3   -1    0    0  505    0 -0.00000000000E+00  0.00000000000E+00  0.13145775283E+04  0.13145775283E+04  0.00000000000E+00 0. -1.
         21   -1    0    0  501  502  0.00000000000E+00 -0.00000000000E+00 -0.34239766023E+02  0.34239766023E+02  0.00000000000E+00 0.  1.
         21    1    1    2  503  504  0.16524690776E+02  0.80407105837E+02  0.25496588470E+03  0.26785438289E+03  0.00000000000E+00 0.  1.
         21    1    1    2  504  502  0.52769128810E+02  0.46200353991E+02  0.14353918790E+03  0.15975779207E+03  0.00000000000E+00 0.  1.
         21    1    1    2  505  503 -0.16468169913E+02  0.41492409169E+02  0.48452471886E+03  0.48657684267E+03  0.00000000000E+00 0.  1.
          3    1    1    2  501    0 -0.52825649673E+02 -0.16809986900E+03  0.39730797080E+03  0.43462827667E+03  0.00000000000E+00 0. -1.
<scales pt_clust_3="50.01327" pt_clust_4="50.01327" pt_clust_5="44.64102" pt_clust_6="159.44739"></scales>
<clustering>
<clus scale="   44.641">  1  5  2 -1</clus>
<clus scale="   50.013">  3  4 -1 -1</clus>
<clus scale="  159.447">  1  6  2 -1</clus>
<clus scale="  169.228">  2  3  1 -1</clus>
</clustering>
</event>
<event>
 6    0  0.1230761E+002  0.1779920E+03  0.7546771E-02  0.1169761E+00
         -4   -1    0    0    0  501 -0.00000000000E+00  0.00000000000E+00  0.16449069340E+03  0.16449069340E+03  0.00000000000E+00 0. -1.
         21   -1    0    0  505  502  0.00000000000E+00 -0.00000000000E+00 -0.58370381415E+03  0.58370381415E+03  0.00000000000E+00 0.  1.
         21    1    1    2  503  501  0.24145120974E+02 -0.40995253320E+02  0.78054105491E+02  0.91411383567E+02  0.00000000000E+00 0. -1.
         21    1    1    2  504  503  0.74192677640E+02 -0.11941166031E+03 -0.96499030340E+02  0.17051616020E+03  0.00000000000E+00 0.  1.
         21    1    1    2  505  504 -0.11288865771E+01 -0.40742561636E+02 -0.12432482398E+03  0.13083536438E+03  0.00000000000E+00 0. -1.
         -4    1    1    2    0  502 -0.97208912037E+02  0.20114947526E+03 -0.27644337192E+03  0.35543159941E+03  0.00000000000E+00 0. -1.
<scales pt_clust_3="48.08397" pt_clust_4="177.99196" pt_clust_5="40.75820" pt_clust_6="14000.00000"></scales>
<clustering>
<clus scale="   40.758">  2  5  1 -1</clus>
<clus scale="   48.084">  1  3  2 -1</clus>
<clus scale="  177.992">  1  4  2 -1</clus>
<clus scale="   40.758">  2  3  1 -1</clus>
</clustering>
</event>
<event>
 6    0  0.1230761E+002  0.1449267E+03  0.7546771E-02  0.1206849E+00
         -2   -1    0    0    0  501 -0.00000000000E+00  0.00000000000E+00  0.21567222599E+03  0.21567222599E+03  0.00000000000E+00 0. -1.
         21   -1    0    0  503  502  0.00000000000E+00 -0.00000000000E+00 -0.91738334919E+03  0.91738334919E+03  0.00000000000E+00 0. -1.
         21    1    1    2  503  504  0.79024135921E+02  0.53759207512E+02 -0.72071067870E+03  0.72702045972E+03  0.00000000000E+00 0. -1.
         21    1    1    2  504  505  0.13879937366E+02  0.37540438143E+02 -0.13599188787E+03  0.14175941141E+03  0.00000000000E+00 0.  1.
         21    1    1    2  505  501 -0.76386992643E+00  0.31352732821E+02 -0.15452704700E+02  0.34962314500E+02  0.00000000000E+00 0.  1.
         -2    1    1    2    0  502 -0.92140203361E+02 -0.12265237848E+03  0.17044414807E+03  0.22931338956E+03  0.00000000000E+00 0. -1.
<scales pt_clust_3="40.41912" pt_clust_4="40.41912" pt_clust_5="31.36204" pt_clust_6="130.88684"></scales>
<clustering>
<clus scale="   31.362">  1  5  2 -1</clus>
<clus scale="   40.419">  3  4 -1 -1</clus>
<clus scale="  130.887">  1  6  2 -1</clus>
<clus scale="  144.927">  2  3  1 -1</clus>
</clustering>
</event>
<event>
 6    0  0.1230761E+002  0.2996354E+03  0.7546771E-02  0.1085423E+00
         -1   -1    0    0    0  501 -0.00000000000E+00  0.00000000000E+00  0.91448361781E+03  0.91448361781E+03  0.00000000000E+00 0. -1.
         21   -1    0    0  505  502  0.00000000000E+00 -0.00000000000E+00 -0.44673631384E+03  0.44673631384E+03  0.00000000000E+00 0. -1.
         21    1    1    2  503  504  0.20155229482E+03  0.36599482897E+02 -0.31001214329E+03  0.37157822686E+03  0.00000000000E+00 0. -1.
         21    1    1    2  504  501  0.26424471288E+02 -0.26886995041E+02  0.44259793592E+03  0.44420051336E+03  0.00000000000E+00 0.  1.
         21    1    1    2  505  503  0.72078297430E+02  0.89156493117E+00 -0.25228745736E+02  0.76371234505E+02  0.00000000000E+00 0.  1.
         -1    1    1    2    0  502 -0.30005506354E+03 -0.10604052788E+02  0.36039025708E+03  0.46906995692E+03  0.00000000000E+00 0. -1.
<scales pt_clust_3="65.38244" pt_clust_4="37.69832" pt_clust_5="65.38244" pt_clust_6="278.90568"></scales>
<clustering>
<clus scale="   37.698">  1  4  2 -1</clus>
<clus scale="   65.382">  3  5 -1 -1</clus>
<clus scale="  278.906">  1  6  2 -1</clus>
<clus scale="  299.635">  2  3  1 -1</clus>
</clustering>
</event>
<event>
 6    0  0.1230761E+002  0.1183781E+03  0.7546771E-02  0.1245797E+00
          2   -1    0    0  505    0 -0.00000000000E+00  0.00000000000E+00  0.14664782676E+04  0.14664782676E+04  0.00000000000E+00 0.  1.
         21   -1    0    0  504  502  0.00000000000E+00 -0.00000000000E+00 -0.63875396207E+02  0.63875396207E+02  0.00000000000E+00 0.  1.
         21    1    1    2  503  502 -0.36902850373E+02  0.17863631275E+02 -0.45286307132E+00  0.41001643540E+02  0.00000000000E+00 0.  1.
         21    1    1    2  504  501 -0.80228118933E+02 -0.58196317469E+02  0.25301146350E+02  0.10229130188E+03  0.00000000000E+00 0.  1.
         21    1    1    2  505  503  0.34682450713E+02 -0.92785514332E+01  0.11110941373E+03  0.11676585855E+03  0.00000000000E+00 0.  1.
          2    1    1    2  501    0  0.82448518594E+02  0.49611237627E+02  0.12666451744E+04  0.12702948599E+04  0.00000000000E+00 0.  1.
<scales pt_clust_3="40.47073" pt_clust_4="14000.00000" pt_clust_5="35.90214" pt_clust_6="118.37806"></scales>
<clustering>
<clus scale="   35.902">  1  5  2 -1</clus>
<clus scale="   40.471">  2  3  1 -1</clus>
<clus scale="  118.378">  1  6  2 -1</clus>
<clus scale="   40.471">  2  3  1 -1</clus>
</clustering>
</event>
<event>
 6    0  0.1230761E+002  0.9196286E+02  0.7546771E-02  0.1298167E+00
         21   -1    0    0  503  502  0.00000000000E+00  0.00000000000E+00  0.12578589962E+03  0.12578589962E+03  0.00000000000E+00 0. -1.
          2   -1    0    0  505    0 -0.00000000000E+00 -0.00000000000E+00 -0.41616983001E+04  0.41616983001E+04  0.00000000000E+00 0.  1.
         21    1    1    2  503  501  0.28274591529E+02 -0.32799094248E+02  0.45247705140E+02  0.62630567058E+02  0.00000000000E+00 0. -1.
         21    1    1    2  504  502 -0.98012820847E+02 -0.26430977812E+02  0.33752412775E+02  0.10697819874E+03  0.00000000000E+00 0. -1.
         21    1    1    2  505  504 -0.15993183377E+02 -0.26007445959E+02 -0.13146724279E+04  0.13150269053E+04  0.00000000000E+00 0.  1.
          2    1    1    2  501    0  0.85731412695E+02  0.85237518019E+02 -0.28002400905E+04  0.28028485286E+04  0.00000000000E+00 0.  1.
<scales pt_clust_3="43.33231" pt_clust_4="14000.00000" pt_clust_5="30.53145" pt_clust_6="91.96286"></scales>
<clustering>
<clus scale="   30.531">  2  5  1 -1</clus>
<clus scale="   43.332">  1  3  2 -1</clus>
<clus scale="   91.963">  2  6  1 -1</clus>
<clus scale="   43.332">  1  3  2 -1</clus>
</clustering>
</event>
<event>
 6    0  0.1745005E+002  0.2392594E+03  0.7546771E-02  0.1120287E+00
          2   -1    0    0  503    0 -0.00000000000E+00  0.00000000000E+00  0.37926873830E+04  0.37926873830E+04  0.00000000000E+00 0. -1.
         21   -1    0    0  504  502  0.00000000000E+00 -0.00000000000E+00 -0.89933052227E+03  0.89933052227E+03  0.00000000000E+00 0.  1.
         21    1    1    2  503  505 -0.32180067725E+01 -0.34205882985E+02  0.63560985544E+02  0.72252314024E+02  0.00000000000E+00 0.  1.
         21    1    1    2  504  501  0.22267633403E+03  0.13061779932E+03 -0.76909205760E+03  0.81126342966E+03  0.00000000000E+00 0.  1.
         21    1    1    2  505  502 -0.13287384515E+03 -0.11463489713E+03 -0.30427792064E+02  0.17810802592E+03  0.00000000000E+00 0.  1.
          2    1    1    2  501    0 -0.86584482104E+02  0.18222980801E+02  0.36293157249E+04  0.36303941357E+04  0.00000000000E+00 0. -1.
<scales pt_clust_3="34.35692" pt_clust_4="239.25944" pt_clust_5="14000.00000" pt_clust_6="90.98413"></scales>
<clustering>
<clus scale="   34.357">  1  3  2 -1</clus>
<clus scale="   90.984">  1  6  2 -1</clus>
<clus scale="  239.259">  2  4  1 -1</clus>
<clus scale="  239.259">  2  3  1 -1</clus>
</clustering>
</event>
<event>
 6    0  0.1230761E+002  0.1339440E+03  0.7546771E-02  0.1221718E+00
          1   -1    0    0  505    0 -0.00000000000E+00  0.00000000000E+00  0.68397685340E+03  0.68397685340E+03  0.00000000000E+00 0. -1.
         21   -1    0    0  501  502  0.00000000000E+00 -0.00000000000E+00 -0.14966689930E+03  0.14966689930E+03  0.00000000000E+00 0.  1.
         21    1    1    2  503  504  0.27960753743E+02  0.39243144408E+02 -0.12846886808E+02  0.49868533501E+02  0.00000000000E+00 0.  1.
         21    1    1    2  504  502  0.51129664210E+02  0.55554433727E+02 -0.86348703166E+02  0.11470238100E+03  0.00000000000E+00 0.  1.
         21    1    1    2  505  503  0.36863005303E+02  0.18235223746E+02  0.24087525819E+03  0.24436099229E+03  0.00000000000E+00 0. -1.
          1    1    1    2  501    0 -0.11595342326E+03 -0.11303280188E+03  0.39263028589E+03  0.42471184592E+03  0.00000000000E+00 0. -1.
<scales pt_clust_3="35.74413" pt_clust_4="35.74413" pt_clust_5="41.12669" pt_clust_6="126.24999"></scales>
<clustering>
<clus scale="   35.744">  3  4 -1 -1</clus>
<clus scale="   41.127">  1  5  2 -1</clus>
<clus scale="  126.250">  1  6  2 -1</clus>
<clus scale="  133.944">  2  3  1 -1</clus>
</clustering>
</event>
<event>
 6    0  0.1230761E+002  0.9472545E+02  0.7546771E-02  0.1291796E+00
          1   -1    0    0  504    0 -0.00000000000E+00  0.00000000000E+00  0.36404342703E+04  0.36404342703E+04  0.00000000000E+00 0. -1.
         21   -1    0    0  503  502  0.00000000000E+00 -0.00000000000E+00 -0.13485961018E+03  0.13485961018E+03  0.00000000000E+00 0. -1.
         21    1    1    2  503  505 -0.64830605541E+01  0.56260329560E+02 -0.11058673117E+03  0.12424443596E+03  0.00000000000E+00 0. -1.
         21    1    1    2  504  502 -0.26496400221E+02 -0.25031739781E+02  0.15762842620E+02  0.39712900027E+02  0.00000000000E+00 0.  1.
         21    1    1    2  505  501  0.82246680362E+02 -0.10503052739E+03  0.93576773302E+03  0.94522863809E+03  0.00000000000E+00 0.  1.
          1    1    1    2  501    0 -0.49267219587E+02  0.73801937611E+02  0.26646308156E+04  0.26661079064E+04  0.00000000000E+00 0. -1.
<scales pt_clust_3="45.35748" pt_clust_4="36.45061" pt_clust_5="14000.00000" pt_clust_6="94.72545"></scales>
<clustering>
<clus scale="   36.451">  2  4  1 -1</clus>
<clus scale="   45.357">  2  3  1 -1</clus>
<clus scale="   94.725">  1  6  2 -1</clus>
<clus scale="   36.451">  2  3  1 -1</clus>
</clustering>
</event>
<event>
 6    0  0.1230761E+002  0.1916421E+03  0.7546771E-02  0.1156989E+00
          4   -1    0    0  505    0 -0.00000000000E+00  0.00000000000E+00  0.10683486847E+03  0.10683486847E+03  0.00000000000E+00 0. -1.
         21   -1    0    0  501  502  0.00000000000E+00 -0.00000000000E+00 -0.67269163302E+03  0.67269163302E+03  0.00000000000E+00 0. -1.
         21    1    1    2  503  502  0.66755245788E+02 -0.16357137895E+02 -0.14980651417E+03  0.16482054025E+03  0.00000000000E+00 0. -1.
         21    1    1    2  504  503  0.10874595079E+03 -0.85498452425E+02 -0.35296334445E+03  0.37910261105E+03  0.00000000000E+00 0. -1.
         21    1    1    2  505  504 -0.44195305226E+02  0.24436869225E+02  0.28287378773E+02  0.57884033890E+02  0.00000000000E+00 0. -1.
          4    1    1    2  501    0 -0.13130589135E+03  0.77418721095E+02 -0.91374284710E+02  0.17771931630E+03  0.00000000000E+00 0. -1.
<scales pt_clust_3="30.72184" pt_clust_4="30.72184" pt_clust_5="50.50134" pt_clust_6="186.62005"></scales>
<clustering>
<clus scale="   30.722">  3  4 -1 -1</clus>
<clus scale="   50.501">  1  5  2 -1</clus>
<clus scale="  186.620">  1  6  2 -1</clus>
<clus scale="  191.642">  2  3  1 -1</clus>
</clustering>
</event>
<event>
 6    0  0.1230761E+002  0.8734616E+02  0.7546771E-02  0.1309409E+00
          2   -1    0    0  505    0 -0.00000000000E+00  0.00000000000E+00  0.21772617533E+04  0.21772617533E+04  0.00000000000E+00 0. -1.
         21   -1    0    0  504  502  0.00000000000E+00 -0.00000000000E+00 -0.62004439674E+02  0.62004439674E+02  0.00000000000E+00 0.  1.
         21    1    1    2  503  502 -0.66387831697E+02 -0.36098928140E+02  0.40939924372E+02  0.85945065116E+02  0.00000000000E+00 0. -1.
         21    1    1    2  504  501 -0.19615808081E+02  0.71445563614E+02  0.36816240920E+01  0.74180879226E+02  0.00000000000E+00 0.  1.
         21    1    1    2  505  503  0.41138022244E+02  0.50923013318E+02  0.37145395346E+03  0.37717837916E+03  0.00000000000E+00 0. -1.
          2    1    1    2  501    0  0.44865617533E+02 -0.86269648792E+02  0.16991818117E+04  0.17019618695E+04  0.00000000000E+00 0. -1.
<scales pt_clust_3="73.44528" pt_clust_4="14000.00000" pt_clust_5="65.46366" pt_clust_6="87.34616"></scales>
<clustering>
<clus scale="   65.464">  1  5  2 -1</clus>
<clus scale="   73.445">  2  3  1 -1</clus>
<clus scale="   87.346">  1  6  2 -1</clus>
<clus scale="   73.445">  2  3  1 -1</clus>
</clustering>
</event>
<event>
 6    0  0.1230761E+002  0.1853837E+03  0.7546771E-02  0.1162692E+00
         21   -1    0    0  503  502  0.00000000000E+00  0.00000000000E+00  0.20798477029E+03  0.20798477029E+03  0.00000000000E+00 0. -1.
          1   -1    0    0  504    0 -0.00000000000E+00 -0.00000000000E+00 -0.17818020166E+04  0.17818020166E+04  0.00000000000E+00 0. -1.
         21    1    1    2  503  505 -0.10007203640E+03  0.56568676345E+02  0.13093688979E+03  0.17423804614E+03  0.00000000000E+00 0. -1.
         21    1    1    2  504  502 -0.21472353835E+02  0.55852913282E+02 -0.12842841913E+03  0.14168439837E+03  0.00000000000E+00 0. -1.
         21    1    1    2  505  501 -0.56644521705E+02  0.20845294700E+02  0.18858534479E+02  0.63235848006E+02  0.00000000000E+00 0. -1.
          1    1    1    2  501    0  0.17818891194E+03 -0.13326688433E+03 -0.15951842515E+04  0.16106284944E+04  0.00000000000E+00 0. -1.
<scales pt_clust_3="42.26541" pt_clust_4="59.83820" pt_clust_5="42.26541" pt_clust_6="175.96853"></scales>
<clustering>
<clus scale="   42.265">  3  5 -1 -1</clus>
<clus scale="   59.838">  2  4  1 -1</clus>
<clus scale="  175.969">  2  6  1 -1</clus>
<clus scale="  185.384">  1  3  2 -1</clus>
</clustering>
</event>
<event>
 6    0  0.1230761E+002  0.1651149E+03  0.7546771E-02  0.1183040E+00
          2   -1    0    0  502    0 -0.00000000000E+00  0.00000000000E+00  0.30233578299E+04  0.30233578299E+04  0.00000000000E+00 0.  1.
         21   -1    0    0  504  502  0.00000000000E+00 -0.00000000000E+00 -0.13286004117E+03  0.13286004117E+03  0.00000000000E+00 0.  1.
         21    1    1    2  503  501 -0.21122569708E+02 -0.35392738711E+02  0.40351823823E+03  0.40561777265E+03  0.00000000000E+00 0. -1.
         21    1    1    2  504  505  0.33398291508E+02  0.52307370295E+02 -0.15376332523E+02  0.63936988236E+02  0.00000000000E+00 0. -1.
         21    1    1    2  505  503  0.68645514363E+02  0.61902024329E+02 -0.67417608640E+02  0.11440804698E+03  0.00000000000E+00 0.  1.
          2    1    1    2  501    0 -0.80921236162E+02 -0.78816655912E+02  0.25697734917E+04  0.25722550632E+04  0.00000000000E+00 0.  1.
<scales pt_clust_3="37.26629" pt_clust_4="31.68610" pt_clust_5="157.96238" pt_clust_6="37.26629"></scales>
<clustering>
<clus scale="   31.686">  4  5 -1 -1</clus>
<clus scale="   37.266">  3  6 -1 -1</clus>
<clus scale="  157.962">  2  4  1 -1</clus>
<clus scale="  157.962">  2  3  1 -1</clus>
</clustering>
</event>
<event>
 6    0  0.1230761E+002  0.1042235E+03  0.7546771E-02  0.1271657E+00
          2   -1    0    0  504    0 -0.00000000000E+00  0.00000000000E+00  0.16575898553E+04  0.16575898553E+04  0.00000000000E+00 0. -1.
         21   -1    0    0  505  502  0.00000000000E+00 -0.00000000000E+00 -0.13853637953E+03  0.13853637953E+03  0.00000000000E+00 0. -1.
         21    1    1    2  503  502  0.44326433621E+02  0.14424832126E+02  0.66539186207E+02  0.81242672288E+02  0.00000000000E+00 0. -1.
         21    1    1    2  504  503 -0.68262482509E+02  0.64703210204E+02  0.64282767181E+03  0.64967198460E+03  0.00000000000E+00 0.  1.
         21    1    1    2  505  501 -0.38924460466E+02 -0.12321785979E+03 -0.93037171554E+02  0.15922835767E+03  0.00000000000E+00 0. -1.
          2    1    1    2  501    0  0.62860509353E+02  0.44089817462E+02  0.90272378926E+03  0.90598322023E+03  0.00000000000E+00 0. -1.
<scales pt_clust_3="46.61447" pt_clust_4="14000.00000" pt_clust_5="104.22353" pt_clust_6="77.33514"></scales>
<clustering>
<clus scale="   46.614">  2  3  1 -1</clus>
<clus scale="   77.335">  1  6  2 -1</clus>
<clus scale="  104.224">  2  5  1 -1</clus>
<clus scale="   46.614">  2  3  1 -1</clus>
</clustering>
</event>
<event>
 6    0  0.1230761E+002  0.8788767E+02  0.7546771E-02  0.1308049E+00
          1   -1    0    0  503    0 -0.00000000000E+00  0.00000000000E+00  0.94629052339E+02  0.94629052339E+02  0.00000000000E+00 0. -1.
         21   -1    0    0  505  502  0.00000000000E+00 -0.00000000000E+00 -0.94547494296E+03  0.94547494296E+03  0.00000000000E+00 0. -1.
         21    1    1    2  503  504  0.49043968520E+00  0.40689600936E+02 -0.23976141223E+02  0.47230705091E+02  0.00000000000E+00 0.  1.
         21    1    1    2  504  502  0.20050078778E+02  0.29738746395E+02 -0.13248354854E+03  0.13725264780E+03  0.00000000000E+00 0. -1.
         21    1    1    2  505  501  0.45265428126E+02  0.31551125635E+02 -0.72767985545E+03  0.72976873360E+03  0.00000000000E+00 0. -1.
          1    1    1    2  501    0 -0.65805946589E+02 -0.10197947297E+03  0.33293654592E+02  0.12585190880E+03  0.00000000000E+00 0. -1.
<scales pt_clust_3="42.01816" pt_clust_4="35.86640" pt_clust_5="87.88767" pt_clust_6="14000.00000"></scales>
<clustering>
<clus scale="   35.866">  2  4  1 -1</clus>
<clus scale="   42.018">  1  3  2 -1</clus>
<clus scale="   87.888">  2  5  1 -1</clus>
<clus scale="   35.866">  2  3  1 -1</clus>
</clustering>
</event>
<event>
 6    0  0.1230761E+002  0.1533867E+03  0.7546771E-02  0.1196372E+00
          2   -1    0    0  505    0 -0.00000000000E+00  0.00000000000E+00  0.36412787531E+04  0.36412787531E+04  0.00000000000E+00 0. -1.
         21   -1    0    0  504  502  0.00000000000E+00 -0.00000000000E+00 -0.50245073486E+02  0.50245073486E+02  0.00000000000E+00 0. -1.
         21    1    1    2  503  502 -0.74567507744E+02 -0.52059851776E+02  0.19279044657E+03  0.21316354676E+03  0.00000000000E+00 0. -1.
         21    1    1    2  504  501 -0.51451047655E+02 -0.74863744686E+02  0.24300970544E+02  0.94033652181E+02  0.00000000000E+00 0. -1.
         21    1    1    2  505  503  0.10552859052E+02 -0.29289754491E+02  0.15038799572E+04  0.15042021733E+04  0.00000000000E+00 0.  1.
          2    1    1    2  501    0  0.11546569635E+03  0.15621335095E+03  0.18700623053E+04  0.18801244544E+04  0.00000000000E+00 0. -1.
<scales pt_clust_3="14000.00000" pt_clust_4="91.34483" pt_clust_5="31.13282" pt_clust_6="153.38669"></scales>
<clustering>
<clus scale="   31.133">  1  5  2 -1</clus>
<clus scale="   91.345">  2  4  1 -1</clus>
<clus scale="  153.387">  1  6  2 -1</clus>
<clus scale="   91.345">  2  3  1 -1</clus>
</clustering>
</event>
<event>
 6    0  0.1230761E+002  0.1198928E+03  0.7546771E-02  0.1243274E+00
         21   -1    0    0  503  502  0.00000000000E+00  0.00000000000E+00  0.69339003390E+03  0.69339003390E+03  0.00000000000E+00 0. -1.
          1   -1    0    0  504    0 -0.00000000000E+00 -0.00000000000E+00 -0.12490928169E+04  0.12490928169E+04  0.00000000000E+00 0. -1.
         21    1    1    2  503  501 -0.49848702374E+01 -0.37473006973E+02  0.32945141525E+02  0.50144366912E+02  0.00000000000E+00 0. -1.
         21    1    1    2  504  505  0.26833639808E+02  0.15379325121E+02 -0.10177228271E+04  0.10181926737E+04  0.00000000000E+00 0. -1.
         21    1    1    2  505  502 -0.61540911152E+02 -0.65020931905E+02  0.63804309391E+03  0.64429340756E+03  0.00000000000E+00 0. -1.
          1    1    1    2  501    0  0.39692141582E+02  0.87114613757E+02 -0.20896819138E+03  0.22985240273E+03  0.00000000000E+00 0. -1.
<scales pt_clust_3="37.11552" pt_clust_4="30.92843" pt_clust_5="119.89276" pt_clust_6="14000.00000"></scales>
<clustering>
<clus scale="   30.928">  2  4  1 -1</clus>
<clus scale="   37.116">  1  3  2 -1</clus>
<clus scale="  119.893">  1  5  2 -1</clus>
<clus scale="   37.116">  1  3  2 -1</clus>
</clustering>
</event>
<event>
 6    0  0.1230761E+002  0.8049913E+02  0.7546771E-02  0.1327641E+00
         -1   -1    0    0    0  501 -0.00000000000E+00  0.00000000000E+00  0.19949758870E+04  0.19949758870E+04  0.00000000000E+00 0. -1.
         21   -1    0    0  503  502  0.00000000000E+00 -0.00000000000E+00 -0.42325500078E+03  0.42325500078E+03  0.00000000000E+00 0. -1.
         21    1    1    2  503  505 -0.54182631332E+02  0.11485761981E+03 -0.29211927004E+03  0.31853052961E+03  0.00000000000E+00 0. -1.
         21    1    1    2  504  502 -0.13216350251E+02 -0.70342609097E+02 -0.10585798113E+03  0.12778367164E+03  0.00000000000E+00 0.  1.
         21    1    1    2  505  501  0.13393691382E+02 -0.30364870170E+02  0.46478263593E+03  0.46596600195E+03  0.00000000000E+00 0.  1.
         -1    1    1    2    0  504  0.54005290202E+02 -0.14150140540E+02  0.15049155014E+04  0.15059506845E+04  0.00000000000E+00 0. -1.
<scales pt_clust_3="14000.00000" pt_clust_4="71.76971" pt_clust_5="33.18759" pt_clust_6="80.49913"></scales>
<clustering>
<clus scale="   33.188">  1  5  2 -1</clus>
<clus scale="   71.770">  2  4  1 -1</clus>
<clus scale="   80.499">  1  6  2 -1</clus>
<clus scale="   71.770">  2  3  1 -1</clus>
</clustering>
</event>
<event>
 6    0  0.1230761E+002  0.1385978E+03  0.7546771E-02  0.1215228E+00
         21   -1    0    0  505  502  0.00000000000E+00  0.00000000000E+00  0.34785277140E+02  0.34785277140E+02  0.00000000000E+00 0.  1.
          2   -1    0    0  504    0 -0.00000000000E+00 -0.00000000000E+00 -0.32381334595E+04  0.32381334595E+04  0.00000000000E+00 0.  1.
         21    1    1    2  503  501 -0.37563029551E+02 -0.51148499738E+01 -0.61634959204E+02  0.72360286590E+02  0.00000000000E+00 0. -1.
         21    1    1    2  504  502  0.94253270335E+01 -0.30344940918E+02 -0.40976186210E+03  0.41099201435E+03  0.00000000000E+00 0. -1.
         21    1    1    2  505  503 -0.77801991950E+02 -0.51679447212E+02 -0.53568286232E+02  0.10767300732E+03  0.00000000000E+00 0.  1.
          2    1    1    2  501    0  0.10593969447E+03  0.87139238104E+02 -0.26783830748E+04  0.26818934284E+04  0.00000000000E+00 0.  1.
<scales pt_clust_3="32.42441" pt_clust_4="31.77503" pt_clust_5="32.42441" pt_clust_6="128.85589"></scales>
<clustering>
<clus scale="   31.775">  2  4  1 -1</clus>
<clus scale="   32.424">  3  5 -1 -1</clus>
<clus scale="  128.856">  2  6  1 -1</clus>
<clus scale="  138.598">  1  3  2 -1</clus>
</clustering>
</event>
<event>
 6    0  0.1230761E+002  0.9165374E+02  0.7546771E-02  0.1298896E+00
         21   -1    0    0  505  502  0.00000000000E+00  0.00000000000E+00  0.33943055264E+02  0.33943055264E+02  0.00000000000E+00 0. -1.
          1   -1    0    0  504    0 -0.00000000000E+00 -0.00000000000E+00 -0.31234545461E+04  0.31234545461E+04  0.00000000000E+00 0. -1.
         21    1    1    2  503  502 -0.19837691543E+02  0.29086166922E+02 -0.63188212194E+02  0.72334564852E+02  0.00000000000E+00 0. -1.
         21    1    1    2  504  503  0.14433038107E+02  0.34155853626E+02 -0.25174695972E+04  0.25177426611E+04  0.00000000000E+00 0. -1.
         21    1    1    2  505  501  0.46140258403E+01  0.61945284559E+02 -0.24043998592E+02  0.66607967855E+02  0.00000000000E+00 0. -1.
          1    1    1    2  501    0  0.79062759565E+00 -0.12518730511E+03 -0.48480968287E+03  0.50071240753E+03  0.00000000000E+00 0. -1.
<scales pt_clust_3="35.20709" pt_clust_4="37.16902" pt_clust_5="14000.00000" pt_clust_6="91.65374"></scales>
<clustering>
<clus scale="   35.207">  1  3  2 -1</clus>
<clus scale="   37.169">  2  4  1 -1</clus>
<clus scale="   91.654">  2  6  1 -1</clus>
<clus scale="   35.207">  1  3  2 -1</clus>
</clustering>
</event>
<event>
 6    0  0.1230761E+002  0.1173508E+03  0.7546771E-02  0.1247532E+00
         21   -1    0    0  503  502  0.00000000000E+00  0.00000000000E+00  0.42574461035E+03  0.42574461035E+03  0.00000000000E+00 0.  1.
          4   -1    0    0  505    0 -0.00000000000E+00 -0.00000000000E+00 -0.13429037918E+04  0.13429037918E+04  0.00000000000E+00 0.  1.
         21    1    1    2  503  501  0.70537560978E+02  0.10833031720E+03  0.35706152628E+03  0.37974193695E+03  0.00000000000E+00 0.  1.
         21    1    1    2  504  502 -0.11378327603E+02 -0.86901572609E+02  0.19793534560E+02  0.89850618648E+02  0.00000000000E+00 0.  1.
         21    1    1    2  505  504  0.59268026339E+01 -0.43324916018E+02 -0.39200741115E+03  0.39443882382E+03  0.00000000000E+00 0. -1.
          4    1    1    2  501    0 -0.65086036009E+02  0.21896171430E+02 -0.90200683108E+03  0.90461702268E+03  0.00000000000E+00 0.  1.
<scales pt_clust_3="14000.00000" pt_clust_4="117.35085" pt_clust_5="43.72843" pt_clust_6="62.50715"></scales>
<clustering>
<clus scale="   43.728">  2  5  1 -1</clus>
<clus scale="   62.507">  2  6  1 -1</clus>
<clus scale="  117.351">  2  4  1 -1</clus>
<clus scale="  117.351">  1  3  2 -1</clus>
</clustering>
</event>
<event>
 6    0  0.1230761E+002  0.1252442E+03  0.7546771E-02  0.1234688E+00
         21   -1    0    0  504  502  0.00000000000E+00  0.00000000000E+00  0.83383497966E+02  0.83383497966E+02  0.00000000000E+00 0. -1.
          2   -1    0    0  503    0 -0.00000000000E+00 -0.00000000000E+00 -0.89380290678E+03  0.89380290678E+03  0.00000000000E+00 0.  1.
         21    1    1    2  503  505  0.28855017236E+02 -0.24101292221E+02 -0.47146622048E+03  0.47296287525E+03  0.00000000000E+00 0. -1.
         21    1    1    2  504  501  0.43352566284E+01  0.67231777394E+02 -0.50645123881E+02  0.84284250691E+02  0.00000000000E+00 0.  1.
         21    1    1    2  505  502  0.87588115436E+02  0.32827588933E+02  0.51030198479E+01  0.93676941519E+02  0.00000000000E+00 0. -1.
          2    1    1    2  501    0 -0.12077838930E+03 -0.75958074106E+02 -0.29341108430E+03  0.32626233729E+03  0.00000000000E+00 0.  1.
<scales pt_clust_3="37.59633" pt_clust_4="64.00421" pt_clust_5="14000.00000" pt_clust_6="125.24417"></scales>
<clustering>
<clus scale="   37.596">  2  3  1 -1</clus>
<clus scale="   64.004">  1  4  2 -1</clus>
<clus scale="  125.244">  2  6  1 -1</clus>
<clus scale="   64.004">  1  3  2 -1</clus>
</clustering>
</event>
<event>
 6    0  0.1230761E+002  0.2366818E+03  0.7546771E-02  0.1122023E+00
         -1   -1    0    0    0  501 -0.00000000000E+00  0.00000000000E+00  0.14914690644E+03  0.14914690644E+03  0.00000000000E+00 0.  1.
         21   -1    0    0  505  502  0.00000000000E+00 -0.00000000000E+00 -0.61560487780E+03  0.61560487780E+03  0.00000000000E+00 0.  1.
         21    1    1    2  503  501  0.16372615819E+02 -0.93330682754E+02  0.55203437685E+01  0.94916558553E+02  0.00000000000E+00 0.  1.
         21    1    1    2  504  503 -0.90701780826E+02 -0.10167670022E+03 -0.47790833344E+02  0.14439157927E+03  0.00000000000E+00 0.  1.
         21    1    1    2  505  504  0.67453890023E+02 -0.25272931329E+02 -0.19317026093E+03  0.20616376511E+03  0.00000000000E+00 0.  1.
         -1    1    1    2    0  502  0.68752749832E+01  0.22028031431E+03 -0.23101722086E+03  0.31927988131E+03  0.00000000000E+00 0.  1.
<scales pt_clust_3="94.84629" pt_clust_4="94.84629" pt_clust_5="72.03297" pt_clust_6="209.97474"></scales>
<clustering>
<clus scale="   72.033">  2  5  1 -1</clus>
<clus scale="   94.846">  3  4 -1 -1</clus>
<clus scale="  209.975">  2  6  1 -1</clus>
<clus scale="   72.033">  2  3  1 -1</clus>
</clustering>
</event>
<event>
 6    0  0.1230761E+002  0.3352124E+03  0.7546771E-02  0.1068854E+00
          1   -1    0    0  505    0 -0.00000000000E+00  0.00000000000E+00  0.92726127114E+03  0.92726127114E+03  0.00000000000E+00 0.  1.
         21   -1    0    0  501  502  0.00000000000E+00 -0.00000000000E+00 -0.14338509360E+03  0.14338509360E+03  0.00000000000E+00 0.  1.
         21    1    1    2  503  502 -0.71388058482E+02 -0.27124737008E+03  0.17556157261E+03  0.33089765252E+03  0.00000000000E+00 0.  1.
         21    1    1    2  504  503 -0.28471749929E+02 -0.25802238126E+02  0.56958696787E+02  0.68707271638E+02  0.00000000000E+00 0.  1.
         21    1    1    2  505  504  0.44760526338E+01 -0.30388123845E+02  0.10442412392E+03  0.10884792499E+03  0.00000000000E+00 0. -1.
          1    1    1    2  501    0  0.95383755777E+02  0.32743773205E+03  0.44693178421E+03  0.56219351559E+03  0.00000000000E+00 0.  1.
<scales pt_clust_3="31.92025" pt_clust_4="31.92025" pt_clust_5="30.71601" pt_clust_6="323.97438"></scales>
<clustering>
<clus scale="   30.716">  1  5  2 -1</clus>
<clus scale="   31.920">  3  4 -1 -1</clus>
<clus scale="  323.974">  1  6  2 -1</clus>
<clus scale="  335.212">  2  3  1 -1</clus>
</clustering>
</event>
<event>
 6    0  0.1230761E+002  0.1490628E+03  0.7546771E-02  0.1201629E+00
         21   -1    0    0  505  502  0.00000000000E+00  0.00000000000E+00  0.52640092261E+03  0.52640092261E+03  0.00000000000E+00 0. -1.
          2   -1    0    0  503    0 -0.00000000000E+00 -0.00000000000E+00 -0.19679114511E+04  0.19679114511E+04  0.00000000000E+00 0. -1.
         21    1    1    2  503  502  0.41476358298E+02  0.21029534232E+02 -0.14191389518E+04  0.14199006635E+04  0.00000000000E+00 0. -1.
         21    1    1    2  504  501  0.59428735214E+02  0.34121343006E+02  0.21678886535E+03  0.22736194219E+03  0.00000000000E+00 0. -1.
         21    1    1    2  505  504  0.35279843699E+02  0.71235388621E+02  0.28240502409E+03  0.29337986569E+03  0.00000000000E+00 0. -1.
          2    1    1    2  501    0 -0.13618493721E+03 -0.12638626586E+03 -0.52156546605E+03  0.55366990228E+03  0.00000000000E+00 0. -1.
<scales pt_clust_3="46.50301" pt_clust_4="40.55341" pt_clust_5="40.55341" pt_clust_6="142.52016"></scales>
<clustering>
<clus scale="   40.553">  4  5 -1 -1</clus>
<clus scale="   46.503">  2  3  1 -1</clus>
<clus scale="  142.520">  2  6  1 -1</clus>
<clus scale="  149.063">  1  3  2 -1</clus>
</clustering>
</event>
<event>
 6    0  0.1230761E+002  0.7621459E+02  0.7546771E-02  0.1340151E+00
         21   -1    0    0  503  502  0.00000000000E+00  0.00000000000E+00  0.82554242716E+03  0.82554242716E+03  0.00000000000E+00 0. -1.
          2   -1    0    0  505    0 -0.00000000000E+00 -0.00000000000E+00 -0.10280327553E+04  0.10280327553E+04  0.00000000000E+00 0.  1.
         21    1    1    2  503  501  0.42827872976E+02  0.29589847765E+02  0.71797517489E+03  0.71985980410E+03  0.00000000000E+00 0. -1.
         21    1    1    2  504  502 -0.33943022926E+02  0.22216749856E+02  0.93427760907E+02  0.10185508965E+03  0.00000000000E+00 0. -1.
         21    1    1    2  505  504 -0.70917301959E+02 -0.81897810067E+02 -0.41102509631E+03  0.42506251871E+03  0.00000000000E+00 0.  1.
          2    1    1    2  501    0  0.62032451908E+02  0.30091212446E+02 -0.60286816757E+03  0.60679776996E+03  0.00000000000E+00 0.  1.
<scales pt_clust_3="52.36553" pt_clust_4="40.56739" pt_clust_5="76.21459" pt_clust_6="14000.00000"></scales>
<clustering>
<clus scale="   40.567">  1  4  2 -1</clus>
<clus scale="   52.366">  1  3  2 -1</clus>
<clus scale="   76.215">  1  5  2 -1</clus>
<clus scale="   40.567">  1  3  2 -1</clus>
</clustering>
</event>
<event>
 6    0  0.1230761E+002  0.2516330E+03  0.7546771E-02  0.1112277E+00
         21   -1    0    0  504  502  0.00000000000E+00  0.00000000000E+00  0.85981872278E+02  0.85981872278E+02  0.00000000000E+00 0. -1.
          2   -1    0    0  503    0 -0.00000000000E+00 -0.00000000000E+00 -0.15172278555E+04  0.15172278555E+04  0.00000000000E+00 0. -1.
         21    1    1    2  503  505  0.14786838990E+03 -0.63231803168E+02 -0.13772377734E+03  0.21173370188E+03  0.00000000000E+00 0. -1.
         21    1    1    2  504  501 -0.30174241799E+02  0.43551289741E+02 -0.47524997334E+03  0.47819424596E+03  0.00000000000E+00 0. -1.
         21    1    1    2  505  502  0.48792311180E+02 -0.57696820268E+02 -0.92283942873E+00  0.75567614306E+02  0.00000000000E+00 0. -1.
          2    1    1    2  501    0 -0.16648645928E+03  0.77377333695E+02 -0.81734939313E+03  0.83771416566E+03  0.00000000000E+00 0. -1.
<scales pt_clust_3="68.61427" pt_clust_4="46.53208" pt_clust_5="68.61427" pt_clust_6="246.58026"></scales>
<clustering>
<clus scale="   46.532">  4  6 -1 -1</clus>
<clus scale="   68.614">  3  5 -1 -1</clus>
<clus scale="  246.580">  2  4  1 -1</clus>
<clus scale="  251.633">  1  3  2 -1</clus>
</clustering>
</event>
<event>
 6    0  0.1230761E+002  0.1208986E+03  0.7546771E-02  0.1241622E+00
          4   -1    0    0  504    0 -0.00000000000E+00  0.00000000000E+00  0.40318735158E+02  0.40318735158E+02  0.00000000000E+00 0. -1.
         21   -1    0    0  501  502  0.00000000000E+00 -0.00000000000E+00 -0.94312729940E+03  0.94312729940E+03  0.00000000000E+00 0. -1.
         21    1    1    2  503  505  0.67907184525E+02  0.13190759302E+02 -0.30230856954E+03  0.31012231951E+03  0.00000000000E+00 0. -1.
         21    1    1    2  504  503 -0.11090817886E+02 -0.34397727329E+02  0.42374659044E+01  0.36389091828E+02  0.00000000000E+00 0.  1.
         21    1    1    2  505  502  0.48375658281E+02  0.52986636857E+01 -0.42718747717E+03  0.42995048646E+03  0.00000000000E+00 0. -1.
          4    1    1    2  501    0 -0.10519202492E+03  0.15908304341E+02 -0.17754998343E+03  0.20698413676E+03  0.00000000000E+00 0. -1.
<scales pt_clust_3="34.37536" pt_clust_4="36.14153" pt_clust_5="34.37536" pt_clust_6="113.73982"></scales>
<clustering>
<clus scale="   34.375">  3  5 -1 -1</clus>
<clus scale="   36.142">  1  4  2 -1</clus>
<clus scale="  113.740">  1  6  2 -1</clus>
<clus scale="  120.899">  2  3  1 -1</clus>
</clustering>
</event>
<event>
 6    0  0.1230761E+002  0.1404864E+03  0.7546771E-02  0.1212676E+00
          1   -1    0    0  505    0 -0.00000000000E+00  0.00000000000E+00  0.12108247075E+04  0.12108247075E+04  0.00000000000E+00 0. -1.
         21   -1    0    0  501  502  0.00000000000E+00 -0.00000000000E+00 -0.51870494999E+02  0.51870494999E+02  0.00000000000E+00 0.  1.
         21    1    1    2  503  502  0.62149282094E+02 -0.75276243166E+02  0.72210529971E+02  0.12142243075E+03  0.00000000000E+00 0.  1.
         21    1    1    2  504  503  0.67331169461E+01 -0.33296693977E+02 -0.15410697516E+01  0.34005581742E+02  0.00000000000E+00 0.  1.
         21    1    1    2  505  504 -0.30726664213E+02 -0.40164709375E+02  0.26212987565E+03  0.26696329988E+03  0.00000000000E+00 0.  1.
          1    1    1    2  501    0 -0.38155734828E+02  0.14873764652E+03  0.82615487664E+03  0.84030389014E+03  0.00000000000E+00 0. -1.
<scales pt_clust_3="30.25768" pt_clust_4="30.25768" pt_clust_5="50.57007" pt_clust_6="130.78837"></scales>
<clustering>
<clus scale="   30.258">  3  4 -1 -1</clus>
<clus scale="   50.570">  1  5  2 -1</clus>
<clus scale="  130.788">  1  6  2 -1</clus>
<clus scale="  140.486">  2  3  1 -1</clus>
</clustering>
</event>
<event>
 6    0  0.1747474E+002  0.8640875E+02  0.7546771E-02  0.1311789E+00
         21   -1    0    0  503  502  0.00000000000E+00  0.00000000000E+00  0.10126308306E+03  0.10126308306E+03  0.00000000000E+00 0. -1.
          2   -1    0    0  505    0 -0.00000000000E+00 -0.00000000000E+00 -0.13338233697E+04  0.13338233697E+04  0.00000000000E+00 0. -1.
         21    1    1    2  503  501  0.69472032498E+01 -0.31194569719E+02 -0.29728301588E+02  0.43647871979E+02  0.00000000000E+00 0. -1.
         21    1    1    2  504  502  0.40860189803E+02  0.99842936251E+02  0.54046922751E+02  0.12066166288E+03  0.00000000000E+00 0. -1.
         21    1    1    2  505  504  0.32134077101E+02  0.98156820346E+01 -0.60817769708E+02  0.69481995058E+02  0.00000000000E+00 0.  1.
          2    1    1    2  501    0 -0.79941470154E+02 -0.78464048567E+02 -0.11960611381E+04  0.12012949228E+04  0.00000000000E+00 0. -1.
<scales pt_clust_3="31.95880" pt_clust_4="86.40875" pt_clust_5="33.51836" pt_clust_6="14000.00000"></scales>
<clustering>
<clus scale="   31.959">  1  3  2 -1</clus>
<clus scale="   33.518">  2  5  1 -1</clus>
<clus scale="   86.409">  1  4  2 -1</clus>
<clus scale="   31.959">  1  3  2 -1</clus>
</clustering>
</event>
<event>
 6    0  0.1230761E+002  0.2571069E+03  0.7546771E-02  0.1108894E+00
          2   -1    0    0  505    0 -0.00000000000E+00  0.00000000000E+00  0.14965798238E+04  0.14965798238E+04  0.00000000000E+00 0.  1.
         21   -1    0    0  501  502  0.00000000000E+00 -0.00000000000E+00 -0.22091681081E+03  0.22091681081E+03  0.00000000000E+00 0.  1.
         21    1    1    2  503  504  0.20590660791E+03  0.65785558128E+02 -0.33381153686E+02  0.21872259203E+03  0.00000000000E+00 0.  1.
         21    1    1    2  504  502  0.35566276933E+02  0.29147662587E+02 -0.63387714828E+02  0.78310591112E+02  0.00000000000E+00 0.  1.
         21    1    1    2  505  503  0.19416358624E+02  0.54451318742E+02  0.35027802972E+03  0.35501639286E+03  0.00000000000E+00 0.  1.
          2    1    1    2  501    0 -0.26088924347E+03 -0.14938453946E+03  0.10221538518E+04  0.10654470586E+04  0.00000000000E+00 0.  1.
<scales pt_clust_3="257.10695" pt_clust_4="45.98420" pt_clust_5="58.43275" pt_clust_6="14000.00000"></scales>
<clustering>
<clus scale="   45.984">  2  4  1 -1</clus>
<clus scale="   58.433">  1  5  2 -1</clus>
<clus scale="  257.107">  2  3  1 -1</clus>
<clus scale="   45.984">  2  3  1 -1</clus>
</clustering>
</event>
<event>
 6    0  0.1230761E+002  0.1499083E+03  0.7546771E-02  0.1200586E+00
         21   -1    0    0  505  502  0.00000000000E+00  0.00000000000E+00  0.15701150980E+03  0.15701150980E+03  0.00000000000E+00 0.  1.
          1   -1    0    0  504    0 -0.00000000000E+00 -0.00000000000E+00 -0.12917734670E+04  0.12917734670E+04  0.00000000000E+00 0.  1.
         21    1    1    2  503  501 -0.39320921098E+02  0.12504533217E+03 -0.30652558146E+03  0.33337726681E+03  0.00000000000E+00 0.  1.
         21    1    1    2  504  502 -0.53496289824E+02  0.31639741554E+02  0.88065828534E+02  0.10778922222E+03  0.00000000000E+00 0.  1.
         21    1    1    2  505  503  0.40046628838E+02 -0.63989380226E+01  0.28446495736E+02  0.49536673372E+02  0.00000000000E+00 0.  1.
          1    1    1    2  501    0  0.52770582084E+02 -0.15028613570E+03 -0.94474870005E+03  0.95808181444E+03  0.00000000000E+00 0.  1.
<scales pt_clust_3="149.90832" pt_clust_4="33.22722" pt_clust_5="40.55464" pt_clust_6="14000.00000"></scales>
<clustering>
<clus scale="   40.555">  1  5  2 -1</clus>
<clus scale="   33.227">  1  4  2 -1</clus>
<clus scale="  149.908">  1  3  2 -1</clus>
<clus scale="   40.555">  1  3  2 -1</clus>
</clustering>
</event>
<event>
 6    0  0.1230761E+002  0.1656599E+03  0.7546771E-02  0.1182451E+00
          2   -1    0    0  505    0 -0.00000000000E+00  0.00000000000E+00  0.13660255272E+04  0.13660255272E+04  0.00000000000E+00 0.  1.
         21   -1    0    0  503  502  0.00000000000E+00 -0.00000000000E+00 -0.45297198254E+02  0.45297198254E+02  0.00000000000E+00 0.  1.
         21    1    1    2  503  501  0.61519407057E+02 -0.35541414123E+02  0.16268526980E+03  0.17752274945E+03  0.00000000000E+00 0. -1.
         21    1    1    2  504  502  0.24632155535E+02  0.34272823210E+02  0.71567021480E+02  0.83085546641E+02  0.00000000000E+00 0. -1.
         21    1    1    2  505  504 -0.93338828101E+02  0.16359740565E+03  0.36007916227E+03  0.40636590786E+03  0.00000000000E+00 0.  1.
          2    1    1    2  501    0  0.71872655098E+01 -0.16232881474E+03  0.72639687535E+03  0.74434852146E+03  0.00000000000E+00 0.  1.
<scales pt_clust_3="72.26408" pt_clust_4="42.20627" pt_clust_5="165.65994" pt_clust_6="14000.00000"></scales>
<clustering>
<clus scale="   42.206">  2  4  1 -1</clus>
<clus scale="   72.264">  2  3  1 -1</clus>
<clus scale="  165.660">  2  5  1 -1</clus>
<clus scale="   42.206">  2  3  1 -1</clus>
</clustering>
</event>
<event>
 6    0  0.1230761E+002  0.1449967E+03  0.7546771E-02  0.1206759E+00
         21   -1    0    0  504  502  0.00000000000E+00  0.00000000000E+00  0.15331060973E+03  0.15331060973E+03  0.00000000000E+00 0.  1.
          4   -1    0    0  503    0 -0.00000000000E+00 -0.00000000000E+00 -0.72332213188E+03  0.72332213188E+03  0.00000000000E+00 0.  1.
         21    1    1    2  503  502  0.11043534396E+02  0.34441756320E+02 -0.15788206453E+03  0.16197203626E+03  0.00000000000E+00 0.  1.
         21    1    1    2  504  505 -0.33707247476E+02  0.11365685315E+02  0.75906681592E+02  0.83828286667E+02  0.00000000000E+00 0.  1.
         21    1    1    2  505  501 -0.10486360497E+03  0.48912995926E+02  0.19623823851E+01  0.11572686707E+03  0.00000000000E+00 0.  1.
          4    1    1    2  501    0  0.12752731805E+03 -0.94720437560E+02 -0.48999852159E+03  0.51510555161E+03  0.00000000000E+00 0.  1.
<scales pt_clust_3="36.19731" pt_clust_4="35.57186" pt_clust_5="14000.00000" pt_clust_6="144.99673"></scales>
<clustering>
<clus scale="   35.572">  1  4  2 -1</clus>
<clus scale="   36.197">  2  3  1 -1</clus>
<clus scale="  144.997">  2  6  1 -1</clus>
<clus scale="   35.572">  1  3  2 -1</clus>
</clustering>
</event>
<event>
 6    0  0.1230761E+002  0.1741997E+03  0.7546771E-02  0.1173538E+00
         21   -1    0    0  505  502  0.00000000000E+00  0.00000000000E+00  0.56200656398E+03  0.56200656398E+03  0.00000000000E+00 0.  1.
          2   -1    0    0  504    0 -0.00000000000E+00 -0.00000000000E+00 -0.83932779191E+02  0.83932779191E+02  0.00000000000E+00 0. -1.
         21    1    1    2  503  502  0.57022183485E+02 -0.65548008954E+02  0.11757293423E+03  0.14618982780E+03  0.00000000000E+00 0.  1.
         21    1    1    2  504  503  0.41052017849E+01 -0.98495625478E+02  0.19598218939E+03  0.21937925945E+03  0.00000000000E+00 0.  1.
         21    1    1    2  505  501 -0.54167729096E+02  0.71395551104E+01  0.92851009314E+02  0.10773312422E+03  0.00000000000E+00 0. -1.
          2    1    1    2  501    0 -0.69596561733E+01  0.15690407932E+03  0.71667651853E+02  0.17263713171E+03  0.00000000000E+00 0. -1.
<scales pt_clust_3="60.36384" pt_clust_4="60.36384" pt_clust_5="54.63622" pt_clust_6="160.21385"></scales>
<clustering>
<clus scale="   54.636">  1  5  2 -1</clus>
<clus scale="   60.364">  3  4 -1 -1</clus>
<clus scale="  160.214">  2  6  1 -1</clus>
<clus scale="   54.636">  1  3  2 -1</clus>
</clustering>
</event>
<event>
 6    0  0.1230761E+002  0.1257684E+03  0.7546771E-02  0.1233873E+00
         21   -1    0    0  505  502  0.00000000000E+00  0.00000000000E+00  0.13464044809E+04  0.13464044809E+04  0.00000000000E+00 0.  1.
          1   -1    0    0  504    0 -0.00000000000E+00 -0.00000000000E+00 -0.83478408334E+02  0.83478408334E+02  0.00000000000E+00 0. -1.
         21    1    1    2  503  502  0.84185485782E+02 -0.78596474518E+01  0.33450050980E+03  0.34502110244E+03  0.00000000000E+00 0.  1.
         21    1    1    2  504  503 -0.21595771329E+02  0.76231806140E+02  0.20661892110E+02  0.81881496031E+02  0.00000000000E+00 0. -1.
         21    1    1    2  505  501  0.25616272876E+02  0.81171084827E+02  0.78676914867E+03  0.79135998872E+03  0.00000000000E+00 0.  1.
          1    1    1    2  501    0 -0.88205987329E+02 -0.14954324352E+03  0.12099452197E+03  0.21162030202E+03  0.00000000000E+00 0. -1.
<scales pt_clust_3="82.03722" pt_clust_4="79.23172" pt_clust_5="14000.00000" pt_clust_6="125.76837"></scales>
<clustering>
<clus scale="   79.232">  2  4  1 -1</clus>
<clus scale="   82.037">  1  3  2 -1</clus>
<clus scale="  125.768">  2  6  1 -1</clus>
<clus scale="   82.037">  1  3  2 -1</clus>
</clustering>
</event>
<event>
 6    0  0.1230761E+002  0.1026988E+03  0.7546771E-02  0.1274721E+00
         21   -1    0    0  505  502  0.00000000000E+00  0.00000000000E+00  0.51111311121E+02  0.51111311121E+02  0.00000000000E+00 0. -1.
          1   -1    0    0  504    0 -0.00000000000E+00 -0.00000000000E+00 -0.17364175029E+04  0.17364175029E+04  0.00000000000E+00 0. -1.
         21    1    1    2  503  502 -0.33030171280E+02 -0.17645232238E+02 -0.33211906862E+02  0.50053743046E+02  0.00000000000E+00 0. -1.
         21    1    1    2  504  503  0.31491835992E+02 -0.82109844215E+02 -0.27599646765E+03  0.28966845256E+03  0.00000000000E+00 0. -1.
         21    1    1    2  505  501 -0.34835068476E+02 -0.73473394132E+01  0.24135974070E+02  0.43011749981E+02  0.00000000000E+00 0. -1.
          1    1    1    2  501    0  0.36373403764E+02  0.10710241587E+03 -0.14002337914E+04  0.14047948685E+04  0.00000000000E+00 0. -1.
<scales pt_clust_3="54.07447" pt_clust_4="14000.00000" pt_clust_5="35.60148" pt_clust_6="102.69876"></scales>
<clustering>
<clus scale="   35.601">  1  5  2 -1</clus>
<clus scale="   54.074">  1  3  2 -1</clus>
<clus scale="  102.699">  2  6  1 -1</clus>
<clus scale="   35.601">  1  3  2 -1</clus>
</clustering>
</event>
<event>
 6    0  0.1230761E+002  0.1221160E+03  0.7546771E-02  0.1239647E+00
         21   -1    0    0  501  502  0.00000000000E+00  0.00000000000E+00  0.31217213112E+03  0.31217213112E+03  0.00000000000E+00 0. -1.
          2   -1    0    0  504    0 -0.00000000000E+00 -0.00000000000E+00 -0.52316208149E+03  0.52316208149E+03  0.00000000000E+00 0. -1.
         21    1    1    2  503  502 -0.64337138776E+00  0.68250835690E+02  0.16274514939E+03  0.17647825404E+03  0.00000000000E+00 0. -1.
         21    1    1    2  504  505 -0.24569111279E+02  0.18797213357E+02 -0.15291472835E+03  0.15601246939E+03  0.00000000000E+00 0.  1.
         21    1    1    2  505  503 -0.34468046024E+02  0.40308787570E+02  0.12160039713E+03  0.13266311143E+03  0.00000000000E+00 0. -1.
          2    1    1    2  501    0  0.59680528690E+02 -0.12735683662E+03 -0.34242076854E+03  0.37018037774E+03  0.00000000000E+00 0. -1.
<scales pt_clust_3="36.38413" pt_clust_4="30.93504" pt_clust_5="36.38413" pt_clust_6="114.95363"></scales>
<clustering>
<clus scale="   30.935">  2  4  1 -1</clus>
<clus scale="   36.384">  3  5 -1 -1</clus>
<clus scale="  114.954">  2  6  1 -1</clus>
<clus scale="  122.116">  1  3  2 -1</clus>
</clustering>
</event>
<event>
 6    0  0.1230761E+002  0.1557596E+03  0.7546771E-02  0.1193569E+00
         -1   -1    0    0    0  501 -0.00000000000E+00  0.00000000000E+00  0.14488294286E+03  0.14488294286E+03  0.00000000000E+00 0. -1.
         21   -1    0    0  504  502  0.00000000000E+00 -0.00000000000E+00 -0.58778465068E+03  0.58778465068E+03  0.00000000000E+00 0. -1.
         21    1    1    2  503  501  0.30348944995E+02 -0.82805094226E-01  0.23954301977E+02  0.38663599188E+02  0.00000000000E+00 0.  1.
         21    1    1    2  504  503  0.17006967317E+03  0.37540396580E+02 -0.23511618293E+03  0.29259629967E+03  0.00000000000E+00 0. -1.
         21    1    1    2  505  502 -0.13291434511E+03 -0.59544903401E+02 -0.27994749529E+03  0.31556682141E+03  0.00000000000E+00 0. -1.
         -1    1    1    2    0  505 -0.67504273059E+02  0.22087311915E+02  0.48207668423E+02  0.85840873269E+02  0.00000000000E+00 0. -1.
<scales pt_clust_3="30.34906" pt_clust_4="155.75958" pt_clust_5="14000.00000" pt_clust_6="54.27043"></scales>
<clustering>
<clus scale="   30.349">  1  3  2 -1</clus>
<clus scale="   54.270">  1  6  2 -1</clus>
<clus scale="  155.760">  1  4  2 -1</clus>
<clus scale="  155.760">  2  3  1 -1</clus>
</clustering>
</event>
<event>
 6    0  0.1230761E+002  0.1210880E+03  0.7546771E-02  0.1241313E+00
         21   -1    0    0  501  502  0.00000000000E+00  0.00000000000E+00  0.13075205423E+03  0.13075205423E+03  0.00000000000E+00 0. -1.
          1   -1    0    0  503    0 -0.00000000000E+00 -0.00000000000E+00 -0.57937754739E+03  0.57937754739E+03  0.00000000000E+00 0.  1.
         21    1    1    2  503  505 -0.41208183302E+02  0.86714472239E+02 -0.13594198733E+03  0.16642637407E+03  0.00000000000E+00 0.  1.
         21    1    1    2  504  502  0.19256325544E+02  0.42614094391E+02  0.31720227986E+02  0.56506105668E+02  0.00000000000E+00 0. -1.
         21    1    1    2  505  504 -0.27797023438E+02  0.80743077478E+02 -0.57514900955E+01  0.85587374717E+02  0.00000000000E+00 0. -1.
          1    1    1    2  501    0  0.49748881195E+02 -0.21007164411E+03 -0.33865224373E+03  0.40160974717E+03  0.00000000000E+00 0.  1.
<scales pt_clust_3="101.51941" pt_clust_4="46.76288" pt_clust_5="121.08804" pt_clust_6="14000.00000"></scales>
<clustering>
<clus scale="   46.763">  1  4  2 -1</clus>
<clus scale="  101.519">  2  3  1 -1</clus>
<clus scale="  121.088">  1  5  2 -1</clus>
<clus scale="   46.763">  1  3  2 -1</clus>
</clustering>
</event>
<event>
 6    0  0.1230761E+002  0.1445118E+03  0.7546771E-02  0.1207384E+00
          2   -1    0    0  504    0 -0.00000000000E+00  0.00000000000E+00  0.93831573378E+03  0.93831573378E+03  0.00000000000E+00 0.  1.
         21   -1    0    0  503  502  0.00000000000E+00 -0.00000000000E+00 -0.10792191266E+03  0.10792191266E+03  0.00000000000E+00 0.  1.
         21    1    1    2  503  501  0.68216542531E+00  0.12061429160E+03 -0.12871555679E+02  0.12130107020E+03  0.00000000000E+00 0.  1.
         21    1    1    2  504  505  0.21664671798E+02 -0.24548769866E+02  0.14248104848E+03  0.14619455968E+03  0.00000000000E+00 0. -1.
         21    1    1    2  505  502  0.67295007150E+02  0.14743727505E+02  0.56234852409E+01  0.69120323165E+02  0.00000000000E+00 0.  1.
          2    1    1    2  501    0 -0.89641844374E+02 -0.11080924924E+03  0.69516084307E+03  0.70962169338E+03  0.00000000000E+00 0.  1.
<scales pt_clust_3="144.51182" pt_clust_4="32.74141" pt_clust_5="69.65303" pt_clust_6="14000.00000"></scales>
<clustering>
<clus scale="   32.741">  1  4  2 -1</clus>
<clus scale="   69.653">  2  5  1 -1</clus>
<clus scale="  144.512">  2  3  1 -1</clus>
<clus scale="   69.653">  2  3  1 -1</clus>
</clustering>
</event>
<event>
 6    0  0.1230761E+002  0.7457669E+02  0.7546771E-02  0.1345187E+00
          1   -1    0    0  503    0 -0.00000000000E+00  0.00000000000E+00  0.80395126843E+02  0.80395126843E+02  0.00000000000E+00 0. -1.
         21   -1    0    0  501  502  0.00000000000E+00 -0.00000000000E+00 -0.16317656957E+04  0.16317656957E+04  0.00000000000E+00 0. -1.
         21    1    1    2  503  505 -0.31787058653E+02  0.19056988107E+02  0.27674575723E+02  0.46254383954E+02  0.00000000000E+00 0. -1.
         21    1    1    2  504  502  0.32977120611E+02 -0.10703556208E+02 -0.20929828228E+03  0.21215048330E+03  0.00000000000E+00 0. -1.
         21    1    1    2  505  504 -0.10231197420E+03 -0.67727602750E+01 -0.13459626426E+04  0.13498626025E+04  0.00000000000E+00 0. -1.
          1    1    1    2  501    0  0.10112191224E+03 -0.15806716240E+01 -0.23784219763E+02  0.10389335286E+03  0.00000000000E+00 0. -1.
<scales pt_clust_3="36.84107" pt_clust_4="34.67069" pt_clust_5="14000.00000" pt_clust_6="74.57669"></scales>
<clustering>
<clus scale="   34.671">  2  4  1 -1</clus>
<clus scale="   36.841">  1  3  2 -1</clus>
<clus scale="   74.577">  1  6  2 -1</clus>
<clus scale="   34.671">  2  3  1 -1</clus>
</clustering>
</event>
<event>
 6    0  0.1230761E+002  0.2561799E+03  0.7546771E-02  0.1109460E+00
         21   -1    0    0  503  502  0.00000000000E+00  0.00000000000E+00  0.46932707682E+03  0.46932707682E+03  0.00000000000E+00 0.  1.
         -1   -1    0    0    0  501 -0.00000000000E+00 -0.00000000000E+00 -0.18506987129E+04  0.18506987129E+04  0.00000000000E+00 0.  1.
         21    1    1    2  503  501 -0.34926639722E+02 -0.22572740853E+02  0.13292464912E+02  0.43658772490E+02  0.00000000000E+00 0. -1.
         21    1    1    2  504  505 -0.37602776378E+02  0.11904984275E+03 -0.62658270851E+03  0.63889962001E+03  0.00000000000E+00 0.  1.
         21    1    1    2  505  502  0.15458367599E+03 -0.18043093891E+03  0.39906084769E+03  0.46443621387E+03  0.00000000000E+00 0.  1.
         -1    1    1    2    0  504 -0.82054259890E+02  0.83953837014E+02 -0.11671422402E+04  0.11730311833E+04  0.00000000000E+00 0.  1.
<scales pt_clust_3="41.58604" pt_clust_4="97.61103" pt_clust_5="235.61067" pt_clust_6="97.61103"></scales>
<clustering>
<clus scale="   41.586">  1  3  2 -1</clus>
<clus scale="   97.611">  4  6 -1 -1</clus>
<clus scale="  235.611">  1  5  2 -1</clus>
<clus scale="   41.586">  1  3  2 -1</clus>
</clustering>
</event>
<event>
 6    0  0.1230761E+002  0.1155615E+03  0.7546771E-02  0.1250604E+00
         21   -1    0    0  501  502  0.00000000000E+00  0.00000000000E+00  0.60215210118E+02  0.60215210118E+02  0.00000000000E+00 0. -1.
          2   -1    0    0  504    0 -0.00000000000E+00 -0.00000000000E+00 -0.71664751713E+03  0.71664751713E+03  0.00000000000E+00 0. -1.
         21    1    1    2  503  502  0.59169607106E+02 -0.11333256011E+02 -0.28645555440E+02  0.66708717147E+02  0.00000000000E+00 0. -1.
         21    1    1    2  504  505 -0.11629487229E+02 -0.32639393720E+02 -0.43468598958E+03  0.43606477103E+03  0.00000000000E+00 0. -1.
         21    1    1    2  505  503  0.26424873452E+02 -0.43024473948E+02 -0.86823210913E+00  0.50498842783E+02  0.00000000000E+00 0. -1.
          2    1    1    2  501    0 -0.73964993330E+02  0.86997123679E+02 -0.19223252988E+03  0.22359039628E+03  0.00000000000E+00 0. -1.
<scales pt_clust_3="47.72371" pt_clust_4="34.64931" pt_clust_5="47.72371" pt_clust_6="103.77422"></scales>
<clustering>
<clus scale="   34.649">  2  4  1 -1</clus>
<clus scale="   47.724">  3  5 -1 -1</clus>
<clus scale="  103.774">  2  6  1 -1</clus>
<clus scale="  115.561">  1  3  2 -1</clus>
</clustering>
</event>
<event>
 6    0  0.1230761E+002  0.1373113E+03  0.7546771E-02  0.1216993E+00
          4   -1    0    0  504    0 -0.00000000000E+00  0.00000000000E+00  0.11157917516E+03  0.11157917516E+03  0.00000000000E+00 0. -1.
         21   -1    0    0  501  502  0.00000000000E+00 -0.00000000000E+00 -0.42044640413E+03  0.42044640413E+03  0.00000000000E+00 0.  1.
         21    1    1    2  503  505 -0.17895728495E+02 -0.68635870574E+02 -0.17987207377E+03  0.19335227630E+03  0.00000000000E+00 0.  1.
         21    1    1    2  504  503  0.50118088148E+02 -0.33655854427E+02 -0.28085071184E+02  0.66583109872E+02  0.00000000000E+00 0.  1.
         21    1    1    2  505  502  0.67254638965E+01 -0.57870042882E+02 -0.89597295203E+02  0.10687305103E+03  0.00000000000E+00 0.  1.
          4    1    1    2  501    0 -0.38947823549E+02  0.16016176788E+03 -0.11312788813E+02  0.16521714209E+03  0.00000000000E+00 0. -1.
<scales pt_clust_3="33.82519" pt_clust_4="60.37002" pt_clust_5="33.82519" pt_clust_6="132.14159"></scales>
<clustering>
<clus scale="   33.825">  3  5 -1 -1</clus>
<clus scale="   60.370">  1  4  2 -1</clus>
<clus scale="  132.142">  1  6  2 -1</clus>
<clus scale="  137.311">  2  3  1 -1</clus>
</clustering>
</event>
<event>
 6    0  0.1230761E+002  0.9756106E+02  0.7546771E-02  0.1285510E+00
         21   -1    0    0  503  502  0.00000000000E+00  0.00000000000E+00  0.21696498213E+02  0.21696498213E+02  0.00000000000E+00 0.  1.
          1   -1    0    0  502    0 -0.00000000000E+00 -0.00000000000E+00 -0.12826555550E+04  0.12826555550E+04  0.00000000000E+00 0. -1.
         21    1    1    2  503  505 -0.27427759588E+02 -0.28452124250E+02 -0.37388150927E+02  0.54402933745E+02  0.00000000000E+00 0.  1.
         21    1    1    2  504  501 -0.79409410249E+02  0.13568811072E+02 -0.34193680215E+03  0.35129865319E+03  0.00000000000E+00 0.  1.
         21    1    1    2  505  504 -0.53299789489E+01 -0.34763604808E+02 -0.76141620383E+02  0.83871707085E+02  0.00000000000E+00 0.  1.
          1    1    1    2  501    0  0.11216714879E+03  0.49646917986E+02 -0.80549248337E+03  0.81477875923E+03  0.00000000000E+00 0. -1.
<scales pt_clust_3="78.93584" pt_clust_4="97.56106" pt_clust_5="32.15148" pt_clust_6="14000.00000"></scales>
<clustering>
<clus scale="   32.151">  3  5 -1 -1</clus>
<clus scale="   78.936">  1  3  2 -1</clus>
<clus scale="   97.561">  1  4  2 -1</clus>
<clus scale="   78.936">  1  3  2 -1</clus>
</clustering>
</event>
<event>
 6    0  0.1230761E+002  0.7646758E+02  0.7546771E-02  0.1339386E+00
          1   -1    0    0  504    0 -0.00000000000E+00  0.00000000000E+00  0.74346141420E+03  0.74346141420E+03  0.00000000000E+00 0.  1.
         21   -1    0    0  503  502  0.00000000000E+00 -0.00000000000E+00 -0.12455336539E+03  0.12455336539E+03  0.00000000000E+00 0.  1.
         21    1    1    2  503  505  0.49135440231E+02  0.36300891632E+02 -0.20131321890E+02  0.64321974013E+02  0.00000000000E+00 0.  1.
         21    1    1    2  504  502  0.39589506117E+02 -0.46892059634E+02 -0.59390057610E+02  0.85401248200E+02  0.00000000000E+00 0.  1.
         21    1    1    2  505  501 -0.43532912968E+02  0.55592427590E+02  0.14583776646E+03  0.16203174579E+03  0.00000000000E+00 0.  1.
          1    1    1    2  501    0 -0.45192033379E+02 -0.45001259588E+02  0.55259166185E+03  0.55625981159E+03  0.00000000000E+00 0.  1.
<scales pt_clust_3="61.09048" pt_clust_4="76.46758" pt_clust_5="14000.00000" pt_clust_6="62.43045"></scales>
<clustering>
<clus scale="   61.090">  2  3  1 -1</clus>
<clus scale="   62.430">  1  6  2 -1</clus>
<clus scale="   76.468">  2  4  1 -1</clus>
<clus scale="   61.090">  2  3  1 -1</clus>
</clustering>
</event>
<event>
 6    0  0.1230761E+002  0.8512316E+02  0.7546771E-02  0.1315111E+00
         21   -1    0    0  505  502  0.00000000000E+00  0.00000000000E+00  0.13253631297E+03  0.13253631297E+03  0.00000000000E+00 0. -1.
          2   -1    0    0  504    0 -0.00000000000E+00 -0.00000000000E+00 -0.20448045833E+04  0.20448045833E+04  0.00000000000E+00 0. -1.
         21    1    1    2  503  502 -0.36037037821E+02  0.40296997592E+02  0.95044264450E+02  0.10934316766E+03  0.00000000000E+00 0. -1.
         21    1    1    2  504  503 -0.57026414488E+02 -0.34006741554E+02 -0.79476245310E+03  0.79753108233E+03  0.00000000000E+00 0. -1.
         21    1    1    2  505  501  0.88944846652E+02  0.30480953031E+02 -0.48437341569E+02  0.10576601676E+03  0.00000000000E+00 0. -1.
          2    1    1    2  501    0  0.41186056563E+01 -0.36771209069E+02 -0.11641127401E+04  0.11647006296E+04  0.00000000000E+00 0. -1.
<scales pt_clust_3="53.81570" pt_clust_4="14000.00000" pt_clust_5="85.12316" pt_clust_6="37.00114"></scales>
<clustering>
<clus scale="   37.001">  2  6  1 -1</clus>
<clus scale="   53.816">  1  3  2 -1</clus>
<clus scale="   85.123">  1  5  2 -1</clus>
<clus scale="   53.816">  1  3  2 -1</clus>
</clustering>
</event>
<event>
 6    0  0.1230761E+002  0.1268200E+03  0.7546771E-02  0.1232252E+00
         21   -1    0    0  505  502  0.00000000000E+00  0.00000000000E+00  0.10308137693E+03  0.10308137693E+03  0.00000000000E+00 0. -1.
          1   -1    0    0  504    0 -0.00000000000E+00 -0.00000000000E+00 -0.51050386739E+03  0.51050386739E+03  0.00000000000E+00 0. -1.
         21    1    1    2  503  502 -0.49892785238E+02 -0.58620006222E+01 -0.37093235170E+02  0.62446466397E+02  0.00000000000E+00 0. -1.
         21    1    1    2  504  503 -0.28233514811E+02 -0.10761616648E+02 -0.26171966616E+03  0.26345801829E+03  0.00000000000E+00 0. -1.
         21    1    1    2  505  501  0.10592018117E+03 -0.98422791594E+02 -0.36636280279E+02  0.14915880033E+03  0.00000000000E+00 0. -1.
          1    1    1    2  501    0 -0.27793881120E+02  0.11504640886E+03 -0.71973308853E+02  0.13852195930E+03  0.00000000000E+00 0. -1.
<scales pt_clust_3="56.13696" pt_clust_4="30.21496" pt_clust_5="126.81996" pt_clust_6="14000.00000"></scales>
<clustering>
<clus scale="   30.215">  2  4  1 -1</clus>
<clus scale="   56.137">  2  3  1 -1</clus>
<clus scale="  126.820">  1  5  2 -1</clus>
<clus scale="  126.820">  1  3  2 -1</clus>
</clustering>
</event>
<event>
 6    0  0.1230761E+002  0.1339839E+03  0.7546771E-02  0.1221661E+00
         21   -1    0    0  501  502  0.00000000000E+00  0.00000000000E+00  0.35263939918E+02  0.35263939918E+02  0.00000000000E+00 0.  1.
          2   -1    0    0  503    0 -0.00000000000E+00 -0.00000000000E+00 -0.76763911356E+03  0.76763911356E+03  0.00000000000E+00 0.  1.
         21    1    1    2  503  504  0.72517368143E+01  0.63465436098E+02 -0.23816825141E+03  0.24658581720E+03  0.00000000000E+00 0.  1.
         21    1    1    2  504  505  0.19027459603E+02  0.53242942317E+02 -0.12206571926E+03  0.13452470013E+03  0.00000000000E+00 0.  1.
         21    1    1    2  505  502  0.34562170044E+02  0.15026407734E+02 -0.24153196381E+02  0.44762857628E+02  0.00000000000E+00 0.  1.
          2    1    1    2  501    0 -0.60841366462E+02 -0.13173478615E+03 -0.34798800659E+03  0.37702967852E+03  0.00000000000E+00 0.  1.
<scales pt_clust_3="32.11569" pt_clust_4="32.11569" pt_clust_5="37.68735" pt_clust_6="129.56241"></scales>
<clustering>
<clus scale="   32.116">  3  4 -1 -1</clus>
<clus scale="   37.687">  1  5  2 -1</clus>
<clus scale="  129.562">  1  6  2 -1</clus>
<clus scale="   37.687">  1  3  2 -1</clus>
</clustering>
</event>
<event>
 6    0  0.1230761E+002  0.9773229E+02  0.7546771E-02  0.1285138E+00
          2   -1    0    0  504    0 -0.00000000000E+00  0.00000000000E+00  0.13637055058E+04  0.13637055058E+04  0.00000000000E+00 0.  1.
         21   -1    0    0  503  502  0.00000000000E+00 -0.00000000000E+00 -0.30290368285E+02  0.30290368285E+02  0.00000000000E+00 0.  1.
         21    1    1    2  503  501 -0.92286922656E+02 -0.15719063895E+01  0.87803626979E+02  0.12739240124E+03  0.00000000000E+00 0.  1.
         21    1    1    2  504  505 -0.37634597197E+02  0.20768052489E+02  0.16911162634E+03  0.17448901705E+03  0.00000000000E+00 0.  1.
         21    1    1    2  505  502 -0.77896770672E+01 -0.43357071776E+02  0.27721707991E+03  0.28069525136E+03  0.00000000000E+00 0. -1.
          2    1    1    2  501    0  0.13771119692E+03  0.24160925676E+02  0.79928280427E+03  0.81141920441E+03  0.00000000000E+00 0.  1.
<scales pt_clust_3="97.73229" pt_clust_4="42.98459" pt_clust_5="41.92212" pt_clust_6="14000.00000"></scales>
<clustering>
<clus scale="   42.985">  1  4  2 -1</clus>
<clus scale="   41.922">  1  5  2 -1</clus>
<clus scale="   97.732">  2  3  1 -1</clus>
<clus scale="   97.732">  2  3  1 -1</clus>
</clustering>
</event>
<event>
 6    0  0.1230761E+002  0.1091697E+03  0.7546771E-02  0.1262115E+00
          2   -1    0    0  504    0 -0.00000000000E+00  0.00000000000E+00  0.35281511441E+04  0.35281511441E+04  0.00000000000E+00 0.  1.
         21   -1    0    0  501  502  0.00000000000E+00 -0.00000000000E+00 -0.12933208579E+02  0.12933208579E+02  0.00000000000E+00 0.  1.
         21    1    1    2  503  505  0.18618523852E+02 -0.33227108204E+02  0.27978355159E+03  0.28236417246E+03  0.00000000000E+00 0.  1.
         21    1    1    2  504  503 -0.33852590042E+02  0.22414189664E+01  0.21854934529E+04  0.21857567693E+04  0.00000000000E+00 0.  1.
         21    1    1    2  505  502  0.10871108920E+03 -0.25666202528E+02  0.51698014849E+03  0.52890956580E+03  0.00000000000E+00 0.  1.
          2    1    1    2  501    0 -0.93477023005E+02  0.56651891766E+02  0.53296078256E+03  0.54405384515E+03  0.00000000000E+00 0.  1.
<scales pt_clust_3="34.72811" pt_clust_4="33.92671" pt_clust_5="14000.00000" pt_clust_6="109.16969"></scales>
<clustering>
<clus scale="   33.927">  1  4  2 -1</clus>
<clus scale="   34.728">  1  3  2 -1</clus>
<clus scale="  109.170">  1  6  2 -1</clus>
<clus scale="  109.170">  2  3  1 -1</clus>
</clustering>
</event>
<event>
 6    0  0.1230761E+002  0.1993498E+03  0.7546771E-02  0.1150289E+00
         21   -1    0    0  501  502  0.00000000000E+00  0.00000000000E+00  0.66843887411E+03  0.66843887411E+03  0.00000000000E+00 0. -1.
          2   -1    0    0  503    0 -0.00000000000E+00 -0.00000000000E+00 -0.23168138604E+03  0.23168138604E+03  0.00000000000E+00 0. -1.
         21    1    1    2  503  504  0.31210822506E+02 -0.29225314165E+02 -0.14369230473E+02  0.45107751151E+02  0.00000000000E+00 0.  1.
         21    1    1    2  504  505  0.24474420646E+02 -0.11080741243E+03  0.51924555009E+02  0.12479358689E+03  0.00000000000E+00 0. -1.
         21    1    1    2  505  502 -0.17583507647E+03  0.10619570467E+03  0.51840571258E+03  0.55761992848E+03  0.00000000000E+00 0. -1.
          2    1    1    2  501    0  0.12014983331E+03  0.33837021918E+02 -0.11920354904E+03  0.17259899363E+03  0.00000000000E+00 0. -1.
<scales pt_clust_3="42.28810" pt_clust_4="42.28810" pt_clust_5="187.06756" pt_clust_6="124.82358"></scales>
<clustering>
<clus scale="   42.288">  3  4 -1 -1</clus>
<clus scale="  124.824">  2  6  1 -1</clus>
<clus scale="  187.068">  1  5  2 -1</clus>
<clus scale="  187.068">  1  3  2 -1</clus>
</clustering>
</event>
<event>
 6    0  0.1230761E+002  0.1097357E+03  0.7546771E-02  0.1261060E+00
         21   -1    0    0  505  502  0.00000000000E+00  0.00000000000E+00  0.51003328382E+02  0.51003328382E+02  0.00000000000E+00 0.  1.
          2   -1    0    0  504    0 -0.00000000000E+00 -0.00000000000E+00 -0.19509691256E+04  0.19509691256E+04  0.00000000000E+00 0.  1.
         21    1    1    2  503  502  0.78601098564E+02  0.34838099233E+02 -0.21475281259E+01  0.86002544908E+02  0.00000000000E+00 0.  1.
         21    1    1    2  504  503  0.74986981538E+01 -0.41797951877E+02 -0.40348804866E+03  0.40571653240E+03  0.00000000000E+00 0. -1.
         21    1    1    2  505  501  0.11572985776E+02  0.33315869859E+02 -0.43960313143E+02  0.56359474055E+02  0.00000000000E+00 0.  1.
          2    1    1    2  501    0 -0.97672782494E+02 -0.26356017214E+02 -0.14503699073E+04  0.14538939026E+04  0.00000000000E+00 0.  1.
<scales pt_clust_3="14000.00000" pt_clust_4="41.70278" pt_clust_5="35.26870" pt_clust_6="109.73567"></scales>
<clustering>
<clus scale="   35.269">  1  5  2 -1</clus>
<clus scale="   41.703">  2  4  1 -1</clus>
<clus scale="  109.736">  2  6  1 -1</clus>
<clus scale="   35.269">  1  3  2 -1</clus>
</clustering>
</event>
<event>
 6    0  0.1230761E+002  0.2760356E+03  0.7546771E-02  0.1097874E+00
         21   -1    0    0  501  502  0.00000000000E+00  0.00000000000E+00  0.55329397580E+02  0.55329397580E+02  0.00000000000E+00 0.  1.
          2   -1    0    0  504    0 -0.00000000000E+00 -0.00000000000E+00 -0.29745451849E+04  0.29745451849E+04  0.00000000000E+00 0. -1.
         21    1    1    2  503  505  0.38642215907E+01  0.40586704309E+02  0.38961316017E+01  0.40955983892E+02  0.00000000000E+00 0.  1.
         21    1    1    2  504  503 -0.29517953675E+02  0.24091836896E+03 -0.11594583821E+04  0.11845913684E+04  0.00000000000E+00 0.  1.
         21    1    1    2  505  502 -0.11682271199E+02  0.29629870828E+02 -0.34283249164E+02  0.46794720630E+02  0.00000000000E+00 0. -1.
          2    1    1    2  501    0  0.37336003283E+02 -0.31113494410E+03 -0.17293702877E+04  0.17575325096E+04  0.00000000000E+00 0. -1.
<scales pt_clust_3="54.14727" pt_clust_4="276.03555" pt_clust_5="31.84972" pt_clust_6="14000.00000"></scales>
<clustering>
<clus scale="   31.850">  1  5  2 -1</clus>
<clus scale="   54.147">  1  3  2 -1</clus>
<clus scale="  276.036">  2  4  1 -1</clus>
<clus scale="   31.850">  1  3  2 -1</clus>
</clustering>
</event>
<event>
 6    0  0.1230761E+002  0.1207989E+03  0.7546771E-02  0.1241785E+00
          1   -1    0    0  505    0 -0.00000000000E+00  0.00000000000E+00  0.11833757240E+03  0.11833757240E+03  0.00000000000E+00 0. -1.
         21   -1    0    0  503  502  0.00000000000E+00 -0.00000000000E+00 -0.88296405146E+03  0.88296405146E+03  0.00000000000E+00 0.  1.
         21    1    1    2  503  501  0.95313023328E+02 -0.68156451908E+02 -0.55045503825E+03  0.56278825813E+03  0.00000000000E+00 0.  1.
         21    1    1    2  504  502 -0.16120044572E+02 -0.26999676242E+02 -0.26504151625E+03  0.26690043779E+03  0.00000000000E+00 0.  1.
         21    1    1    2  505  504  0.15358631693E+02  0.36757191545E+02  0.45323088314E+02  0.60342033708E+02  0.00000000000E+00 0.  1.
          1    1    1    2  501    0 -0.94551610449E+02  0.58398936605E+02  0.55469871333E+01  0.11127089422E+03  0.00000000000E+00 0. -1.
<scales pt_clust_3="14000.00000" pt_clust_4="31.44580" pt_clust_5="39.45809" pt_clust_6="120.79887"></scales>
<clustering>
<clus scale="   31.446">  2  4  1 -1</clus>
<clus scale="   39.458">  1  5  2 -1</clus>
<clus scale="  120.799">  1  6  2 -1</clus>
<clus scale="   31.446">  2  3  1 -1</clus>
</clustering>
</event>
<event>
 6    0  0.1230761E+002  0.1853199E+03  0.7546771E-02  0.1162751E+00
         21   -1    0    0  503  502  0.00000000000E+00  0.00000000000E+00  0.39278648498E+03  0.39278648498E+03  0.00000000000E+00 0. -1.
          2   -1    0    0  505    0 -0.00000000000E+00 -0.00000000000E+00 -0.30546618692E+03  0.30546618692E+03  0.00000000000E+00 0. -1.
         21    1    1    2  503  501 -0.23215369177E+02 -0.34446838993E+02  0.30015789235E+02  0.51249250590E+02  0.00000000000E+00 0. -1.
         21    1    1    2  504  502 -0.16792763937E+03  0.71336228051E+02  0.27213571785E+03  0.32763760228E+03  0.00000000000E+00 0. -1.
         21    1    1    2  505  504  0.40486063927E+02 -0.43668327058E+02 -0.33798187994E+01  0.59644508008E+02  0.00000000000E+00 0. -1.
          2    1    1    2  501    0  0.15065694462E+03  0.67789380001E+01 -0.21145139023E+03  0.25972131101E+03  0.00000000000E+00 0. -1.
<scales pt_clust_3="41.53960" pt_clust_4="185.31992" pt_clust_5="60.39224" pt_clust_6="14000.00000"></scales>
<clustering>
<clus scale="   41.540">  1  3  2 -1</clus>
<clus scale="   60.392">  2  5  1 -1</clus>
<clus scale="  185.320">  1  4  2 -1</clus>
<clus scale="   41.540">  1  3  2 -1</clus>
</clustering>
</event>
<event>
 6    0  0.1230761E+002  0.3786803E+03  0.7546771E-02  0.1051423E+00
         21   -1    0    0  504  502  0.00000000000E+00  0.00000000000E+00  0.15861690807E+03  0.15861690807E+03  0.00000000000E+00 0. -1.
          2   -1    0    0  505    0 -0.00000000000E+00 -0.00000000000E+00 -0.35098938270E+04  0.35098938270E+04  0.00000000000E+00 0. -1.
         21    1    1    2  503  502  0.32413988833E+03 -0.79805159442E+02 -0.85656112576E+02  0.34463386413E+03  0.00000000000E+00 0. -1.
         21    1    1    2  504  501  0.39514546963E+02 -0.27918102619E+02 -0.75275527049E+02  0.89483098114E+02  0.00000000000E+00 0. -1.
         21    1    1    2  505  503  0.51714610422E+02  0.28642599896E+02 -0.11067794835E+04  0.11083571737E+04  0.00000000000E+00 0. -1.
          2    1    1    2  501    0 -0.41536904572E+03  0.79080662165E+02 -0.20835657958E+04  0.21260365991E+04  0.00000000000E+00 0. -1.
<scales pt_clust_3="378.68032" pt_clust_4="48.38202" pt_clust_5="59.22681" pt_clust_6="14000.00000"></scales>
<clustering>
<clus scale="   48.382">  1  4  2 -1</clus>
<clus scale="   59.227">  2  5  1 -1</clus>
<clus scale="  378.680">  1  3  2 -1</clus>
<clus scale="   48.382">  1  3  2 -1</clus>
</clustering>
</event>
<event>
 6    0  0.1230761E+002  0.6679742E+02  0.7546771E-02  0.1371335E+00
         21   -1    0    0  503  502  0.00000000000E+00  0.00000000000E+00  0.18216842627E+03  0.18216842627E+03  0.00000000000E+00 0.  1.
          2   -1    0    0  504    0 -0.00000000000E+00 -0.00000000000E+00 -0.84742540428E+03  0.84742540428E+03  0.00000000000E+00 0. -1.
         21    1    1    2  503  501  0.58181946578E+02 -0.21549280670E+02  0.11345445199E+03  0.12931134166E+03  0.00000000000E+00 0.  1.
         21    1    1    2  504  505 -0.57837487288E+02 -0.35322313747E+02 -0.20907767001E+03  0.21978697159E+03  0.00000000000E+00 0. -1.
         21    1    1    2  505  502 -0.56164045457E+02  0.87738913053E+02  0.30992655346E+01  0.10422150600E+03  0.00000000000E+00 0.  1.
          2    1    1    2  501    0  0.55819586167E+02 -0.30867318636E+02 -0.57273302554E+03  0.57627401130E+03  0.00000000000E+00 0. -1.
<scales pt_clust_3="62.04442" pt_clust_4="64.52866" pt_clust_5="14000.00000" pt_clust_6="66.79742"></scales>
<clustering>
<clus scale="   62.044">  1  3  2 -1</clus>
<clus scale="   64.529">  2  4  1 -1</clus>
<clus scale="   66.797">  2  6  1 -1</clus>
<clus scale="   62.044">  1  3  2 -1</clus>
</clustering>
</event>
<event>
 6    0  0.1230761E+002  0.1007577E+03  0.7546771E-02  0.1278711E+00
         21   -1    0    0  501  502  0.00000000000E+00  0.00000000000E+00  0.21554992348E+03  0.21554992348E+03  0.00000000000E+00 0. -1.
          2   -1    0    0  504    0 -0.00000000000E+00 -0.00000000000E+00 -0.32291610130E+03  0.32291610130E+03  0.00000000000E+00 0. -1.
         21    1    1    2  503  505  0.60389070304E+02 -0.75429514697E+01  0.30089335941E+02  0.67890382724E+02  0.00000000000E+00 0. -1.
         21    1    1    2  504  503 -0.23776331883E+01 -0.34288353778E+02 -0.31412696944E+02  0.46562880857E+02  0.00000000000E+00 0. -1.
         21    1    1    2  505  502  0.56225856027E+02  0.13121394368E+02  0.13988496588E+03  0.15133182598E+03  0.00000000000E+00 0. -1.
          2    1    1    2  501    0 -0.11423729314E+03  0.28709910879E+02 -0.24592778270E+03  0.27268093522E+03  0.00000000000E+00 0. -1.
<scales pt_clust_3="14000.00000" pt_clust_4="34.37069" pt_clust_5="57.53668" pt_clust_6="100.75771"></scales>
<clustering>
<clus scale="   34.371">  2  4  1 -1</clus>
<clus scale="   57.537">  1  5  2 -1</clus>
<clus scale="  100.758">  2  6  1 -1</clus>
<clus scale="   57.537">  1  3  2 -1</clus>
</clustering>
</event>
<event>
 6    0  0.1230761E+002  0.5764347E+02  0.7546771E-02  0.1407996E+00
          1   -1    0    0  505    0 -0.00000000000E+00  0.00000000000E+00  0.11690574626E+03  0.11690574626E+03  0.00000000000E+00 0. -1.
         21   -1    0    0  504  502  0.00000000000E+00 -0.00000000000E+00 -0.29888048646E+03  0.29888048646E+03  0.00000000000E+00 0. -1.
         21    1    1    2  503  502 -0.40171710653E+02 -0.32819257367E+02 -0.12587523466E+03  0.13614494002E+03  0.00000000000E+00 0.  1.
         21    1    1    2  504  501  0.36646009381E+02  0.61729611523E+02 -0.11505158782E+03  0.13561099809E+03  0.00000000000E+00 0. -1.
         21    1    1    2  505  503 -0.37104289269E+02  0.34876150763E+02  0.50756310451E+01  0.51174565994E+02  0.00000000000E+00 0. -1.
          1    1    1    2  501    0  0.40629990540E+02 -0.63786504919E+02  0.53876451236E+02  0.92855728627E+02  0.00000000000E+00 0. -1.
<scales pt_clust_3="57.64347" pt_clust_4="14000.00000" pt_clust_5="50.92224" pt_clust_6="36.35880"></scales>
<clustering>
<clus scale="   50.922">  1  5  2 -1</clus>
<clus scale="   36.359">  1  6  2 -1</clus>
<clus scale="   57.643">  2  3  1 -1</clus>
<clus scale="   57.643">  2  3  1 -1</clus>
</clustering>
</event>
<event>
 6    0  0.1230761E+002  0.2332843E+03  0.7546771E-02  0.1124349E+00
         21   -1    0    0  503  502  0.00000000000E+00  0.00000000000E+00  0.96386304498E+03  0.96386304498E+03  0.00000000000E+00 0.  1.
          2   -1    0    0  505    0 -0.00000000000E+00 -0.00000000000E+00 -0.31883255280E+03  0.31883255280E+03  0.00000000000E+00 0.  1.
         21    1    1    2  503  501 -0.23488589160E+02 -0.69283701658E+02 -0.36277533358E+02  0.81657850589E+02  0.00000000000E+00 0. -1.
         21    1    1    2  504  502 -0.39101107295E+02  0.25694161112E+01  0.32170733838E+03  0.32408503523E+03  0.00000000000E+00 0.  1.
         21    1    1    2  505  504  0.22204418657E+02  0.20955732405E+03  0.57667780294E+03  0.61397442673E+03  0.00000000000E+00 0.  1.
          2    1    1    2  501    0  0.40385277798E+02 -0.14284303850E+03 -0.21707711578E+03  0.26297828524E+03  0.00000000000E+00 0.  1.
<scales pt_clust_3="67.98590" pt_clust_4="39.18544" pt_clust_5="212.41311" pt_clust_6="67.98590"></scales>
<clustering>
<clus scale="   39.185">  1  4  2 -1</clus>
<clus scale="   67.986">  3  6 -1 -1</clus>
<clus scale="  212.413">  1  5  2 -1</clus>
<clus scale="   39.185">  1  3  2 -1</clus>
</clustering>
</event>
<event>
 6    0  0.1230761E+002  0.1561334E+03  0.7546771E-02  0.1193133E+00
          2   -1    0    0  503    0 -0.00000000000E+00  0.00000000000E+00  0.11945591442E+04  0.11945591442E+04  0.00000000000E+00 0.  1.
         21   -1    0    0  501  502  0.00000000000E+00 -0.00000000000E+00 -0.31319112433E+03  0.31319112433E+03  0.00000000000E+00 0.  1.
         21    1    1    2  503  504  0.81863449451E+02  0.22340591881E+00  0.11492658608E+03  0.14110207105E+03  0.00000000000E+00 0.  1.
         21    1    1    2  504  505 -0.16204395084E+02 -0.66565819247E+02 -0.77027100498E+02  0.10308620142E+03  0.00000000000E+00 0.  1.
         21    1    1    2  505  502  0.27133202124E+02 -0.74420609634E+02 -0.19553395048E+03  0.21096957976E+03  0.00000000000E+00 0.  1.
          2    1    1    2  501    0 -0.92792256491E+02  0.14076302296E+03  0.10390024848E+04  0.10525924163E+04  0.00000000000E+00 0.  1.
<scales pt_clust_3="81.86375" pt_clust_4="61.30117" pt_clust_5="61.30117" pt_clust_6="141.53703"></scales>
<clustering>
<clus scale="   61.301">  4  5 -1 -1</clus>
<clus scale="   81.864">  1  3  2 -1</clus>
<clus scale="  141.537">  1  6  2 -1</clus>
<clus scale="  156.133">  2  3  1 -1</clus>
</clustering>
</event>
<event>
 6    0  0.1230761E+002  0.1102260E+03  0.7546771E-02  0.1260152E+00
         21   -1    0    0  505  502  0.00000000000E+00  0.00000000000E+00  0.33333803579E+03  0.33333803579E+03  0.00000000000E+00 0. -1.
          2   -1    0    0  503    0 -0.00000000000E+00 -0.00000000000E+00 -0.41038755776E+04  0.41038755776E+04  0.00000000000E+00 0.  1.
         21    1    1    2  503  502 -0.52276022174E+02  0.64611778618E+02 -0.26574108269E+03  0.27843452993E+03  0.00000000000E+00 0.  1.
         21    1    1    2  504  501 -0.84490308864E+01 -0.62017712629E+02  0.16593318867E+03  0.17734544230E+03  0.00000000000E+00 0. -1.
         21    1    1    2  505  504 -0.43147519810E+02 -0.19313298439E+02  0.15101500638E+03  0.15824109490E+03  0.00000000000E+00 0. -1.
          2    1    1    2  501    0  0.10387257287E+03  0.16719232450E+02 -0.38217446542E+04  0.38231925463E+04  0.00000000000E+00 0.  1.
<scales pt_clust_3="83.11116" pt_clust_4="46.68108" pt_clust_5="46.68108" pt_clust_6="96.25247"></scales>
<clustering>
<clus scale="   46.681">  4  5 -1 -1</clus>
<clus scale="   83.111">  2  3  1 -1</clus>
<clus scale="   96.252">  2  6  1 -1</clus>
<clus scale="  110.226">  1  3  2 -1</clus>
</clustering>
</event>
<event>
 6    0  0.1230761E+002  0.1150110E+03  0.7546771E-02  0.1251562E+00
          2   -1    0    0  503    0 -0.00000000000E+00  0.00000000000E+00  0.94905436325E+03  0.94905436325E+03  0.00000000000E+00 0.  1.
         21   -1    0    0  501  502  0.00000000000E+00 -0.00000000000E+00 -0.13010361860E+03  0.13010361860E+03  0.00000000000E+00 0.  1.
         21    1    1    2  503  505  0.30680070882E+02 -0.72306904008E+02  0.29194832221E+03  0.30232991575E+03  0.00000000000E+00 0.  1.
         21    1    1    2  504  502  0.63427293238E+02  0.10244795713E+02 -0.64371636704E+02  0.90948804163E+02  0.00000000000E+00 0.  1.
         21    1    1    2  505  504  0.43165441413E+02  0.66167534153E+02  0.24103015704E+00  0.79002886047E+02  0.00000000000E+00 0.  1.
          2    1    1    2  501    0 -0.13727280553E+03 -0.41054258574E+01  0.59113302898E+03  0.60687637589E+03  0.00000000000E+00 0.  1.
<scales pt_clust_3="80.30300" pt_clust_4="64.24934" pt_clust_5="14000.00000" pt_clust_6="115.01099"></scales>
<clustering>
<clus scale="   64.249">  2  4  1 -1</clus>
<clus scale="   80.303">  1  3  2 -1</clus>
<clus scale="  115.011">  1  6  2 -1</clus>
<clus scale="   64.249">  2  3  1 -1</clus>
</clustering>
</event>
<event>
 6    0  0.1230761E+002  0.1402652E+03  0.7546771E-02  0.1212973E+00
         -1   -1    0    0    0  501 -0.00000000000E+00  0.00000000000E+00  0.84962960377E+03  0.84962960377E+03  0.00000000000E+00 0. -1.
         21   -1    0    0  501  502  0.00000000000E+00 -0.00000000000E+00 -0.33495068025E+02  0.33495068025E+02  0.00000000000E+00 0. -1.
         21    1    1    2  503  505  0.89057021295E+02 -0.14611016993E+01  0.14043289088E+03  0.16629697742E+03  0.00000000000E+00 0. -1.
         21    1    1    2  504  502 -0.28072314941E+02 -0.41288471541E+02  0.91442485118E+02  0.10418503171E+03  0.00000000000E+00 0. -1.
         21    1    1    2  505  504  0.37173572278E+02 -0.38938074852E+02  0.12826110588E+03  0.13910053714E+03  0.00000000000E+00 0. -1.
         -1    1    1    2    0  503 -0.98158278632E+02  0.81687648093E+02  0.45599805387E+03  0.47354212552E+03  0.00000000000E+00 0. -1.
<scales pt_clust_3="46.02590" pt_clust_4="49.92788" pt_clust_5="46.02590" pt_clust_6="127.15901"></scales>
<clustering>
<clus scale="   46.026">  3  5 -1 -1</clus>
<clus scale="   49.928">  2  4  1 -1</clus>
<clus scale="  127.159">  1  6  2 -1</clus>
<clus scale="   49.928">  2  3  1 -1</clus>
</clustering>
</event>
<event>
 6    0  0.1230761E+002  0.2160056E+03  0.7546771E-02  0.1136897E+00
         21   -1    0    0  503  502  0.00000000000E+00  0.00000000000E+00  0.35534507183E+03  0.35534507183E+03  0.00000000000E+00 0. -1.
          2   -1    0    0  504    0 -0.00000000000E+00 -0.00000000000E+00 -0.27149124483E+04  0.27149124483E+04  0.00000000000E+00 0. -1.
         21    1    1    2  503  501 -0.12175085896E+03 -0.28709594684E+02 -0.12967551275E+03  0.18017561181E+03  0.00000000000E+00 0.  1.
         21    1    1    2  504  505 -0.68553950918E+02  0.15810411124E+02 -0.69405440807E+03  0.69761101959E+03  0.00000000000E+00 0. -1.
         21    1    1    2  505  502  0.54022848362E+02  0.23038378269E+03  0.27542359107E+03  0.36311611089E+03  0.00000000000E+00 0. -1.
          2    1    1    2  501    0  0.13628196151E+03 -0.21748459913E+03 -0.18112610467E+04  0.18293547779E+04  0.00000000000E+00 0. -1.
<scales pt_clust_3="129.95331" pt_clust_4="70.35349" pt_clust_5="216.00558" pt_clust_6="14000.00000"></scales>
<clustering>
<clus scale="   70.353">  2  4  1 -1</clus>
<clus scale="  129.953">  1  3  2 -1</clus>
<clus scale="  216.006">  1  5  2 -1</clus>
<clus scale="  129.953">  1  3  2 -1</clus>
</clustering>
</event>
<event>
 6    0  0.1230761E+002  0.2300706E+03  0.7546771E-02  0.1126590E+00
         21   -1    0    0  501  502  0.00000000000E+00  0.00000000000E+00  0.43081317767E+03  0.43081317767E+03  0.00000000000E+00 0. -1.
          2   -1    0    0  505    0 -0.00000000000E+00 -0.00000000000E+00 -0.55312499531E+03  0.55312499531E+03  0.00000000000E+00 0. -1.
         21    1    1    2  503  504 -0.15721120492E+03 -0.16178639196E+02  0.73623705225E+02  0.17434896412E+03  0.00000000000E+00 0. -1.
         21    1    1    2  504  502 -0.64719411279E+02 -0.53296099458E+02  0.49777701786E+02  0.97503312809E+02  0.00000000000E+00 0. -1.
         21    1    1    2  505  503  0.32343773025E+02 -0.27102836004E+02 -0.42911369623E+03  0.43118354290E+03  0.00000000000E+00 0. -1.
          2    1    1    2  501    0  0.18958684317E+03  0.96577574657E+02  0.18340047158E+03  0.28090235316E+03  0.00000000000E+00 0. -1.
<scales pt_clust_3="50.93958" pt_clust_4="50.93958" pt_clust_5="42.19814" pt_clust_6="219.85599"></scales>
<clustering>
<clus scale="   42.198">  2  5  1 -1</clus>
<clus scale="   50.940">  3  4 -1 -1</clus>
<clus scale="  219.856">  1  6  2 -1</clus>
<clus scale="  219.856">  1  3  2 -1</clus>
</clustering>
</event>
<event>
 6    0  0.1230761E+002  0.1170938E+03  0.7546771E-02  0.1247970E+00
          2   -1    0    0  505    0 -0.00000000000E+00  0.00000000000E+00  0.10266527663E+04  0.10266527663E+04  0.00000000000E+00 0.  1.
         21   -1    0    0  503  502  0.00000000000E+00 -0.00000000000E+00 -0.10374105999E+03  0.10374105999E+03  0.00000000000E+00 0.  1.
         21    1    1    2  503  501 -0.13554294795E+02 -0.43698626032E+02  0.27048832212E+02  0.53150053137E+02  0.00000000000E+00 0.  1.
         21    1    1    2  504  502 -0.10441190193E+03  0.26561277593E+02 -0.45329051129E+02  0.11688485620E+03  0.00000000000E+00 0.  1.
         21    1    1    2  505  504  0.87247640858E+01 -0.51106549311E+02  0.14896972239E+03  0.15773388691E+03  0.00000000000E+00 0.  1.
          2    1    1    2  501    0  0.10924143264E+03  0.68243897749E+02  0.79222220285E+03  0.80262503006E+03  0.00000000000E+00 0.  1.
<scales pt_clust_3="45.75247" pt_clust_4="14000.00000" pt_clust_5="53.82639" pt_clust_6="117.09382"></scales>
<clustering>
<clus scale="   45.752">  2  3  1 -1</clus>
<clus scale="   53.826">  1  5  2 -1</clus>
<clus scale="  117.094">  1  6  2 -1</clus>
<clus scale="   45.752">  2  3  1 -1</clus>
</clustering>
</event>
<event>
 6    0  0.1230761E+002  0.1340356E+03  0.7546771E-02  0.1221588E+00
          2   -1    0    0  504    0 -0.00000000000E+00  0.00000000000E+00  0.11039839954E+04  0.11039839954E+04  0.00000000000E+00 0.  1.
         21   -1    0    0  503  502  0.00000000000E+00 -0.00000000000E+00 -0.20924796749E+03  0.20924796749E+03  0.00000000000E+00 0.  1.
         21    1    1    2  503  501  0.13655925834E+03  0.96338823876E+02 -0.11406535267E+02  0.16751032527E+03  0.00000000000E+00 0.  1.
         21    1    1    2  504  505 -0.29653894477E+02 -0.24098578131E+02  0.69059481177E+02  0.78925958125E+02  0.00000000000E+00 0.  1.
         21    1    1    2  505  502 -0.11594865338E+03 -0.38421535308E+02 -0.81952532215E+02  0.14709358291E+03  0.00000000000E+00 0.  1.
          2    1    1    2  501    0  0.90432895182E+01 -0.33818710438E+02  0.91903561418E+03  0.91970209655E+03  0.00000000000E+00 0.  1.
<scales pt_clust_3="14000.00000" pt_clust_4="45.77415" pt_clust_5="134.03556" pt_clust_6="35.00695"></scales>
<clustering>
<clus scale="   35.007">  1  6  2 -1</clus>
<clus scale="   45.774">  1  4  2 -1</clus>
<clus scale="  134.036">  2  5  1 -1</clus>
<clus scale="  134.036">  2  3  1 -1</clus>
</clustering>
</event>
<event>
 6    0  0.1230761E+002  0.1083097E+03  0.7546771E-02  0.1263732E+00
         -3   -1    0    0    0  501 -0.00000000000E+00  0.00000000000E+00  0.98806676814E+03  0.98806676814E+03  0.00000000000E+00 0. -1.
         21   -1    0    0  505  502  0.00000000000E+00 -0.00000000000E+00 -0.13545509791E+04  0.13545509791E+04  0.00000000000E+00 0. -1.
         21    1    1    2  503  501  0.40415798023E+02 -0.55011876727E+02  0.14650228209E+02  0.69816706435E+02  0.00000000000E+00 0.  1.
         21    1    1    2  504  503 -0.73393447753E+00 -0.57966046415E+02 -0.96162541831E+03  0.96337118825E+03  0.00000000000E+00 0. -1.
         21    1    1    2  505  504 -0.67575599303E+01 -0.43326494131E+02 -0.35636565654E+03  0.35905338164E+03  0.00000000000E+00 0.  1.
         -3    1    1    2    0  502 -0.32924303615E+02  0.15630441727E+03  0.93685663569E+03  0.95037647091E+03  0.00000000000E+00 0. -1.
<scales pt_clust_3="68.26231" pt_clust_4="32.42534" pt_clust_5="32.42534" pt_clust_6="101.69084"></scales>
<clustering>
<clus scale="   32.425">  4  5 -1 -1</clus>
<clus scale="   68.262">  1  3  2 -1</clus>
<clus scale="  101.691">  1  6  2 -1</clus>
<clus scale="  108.310">  2  3  1 -1</clus>
</clustering>
</event>
<event>
 6    0  0.1230761E+002  0.1222165E+03  0.7546771E-02  0.1239485E+00
          1   -1    0    0  504    0 -0.00000000000E+00  0.00000000000E+00  0.14082858108E+04  0.14082858108E+04  0.00000000000E+00 0. -1.
         21   -1    0    0  503  502  0.00000000000E+00 -0.00000000000E+00 -0.14061236212E+04  0.14061236212E+04  0.00000000000E+00 0. -1.
         21    1    1    2  503  501 -0.45917200052E+02  0.66973011285E+02 -0.52104834214E+03  0.52733779340E+03  0.00000000000E+00 0. -1.
         21    1    1    2  504  505  0.39422775852E+00  0.52653089040E+02  0.58481739897E+02  0.78693183328E+02  0.00000000000E+00 0.  1.
         21    1    1    2  505  502 -0.50434827591E+02  0.98885808170E+01 -0.86620048348E+03  0.86772388088E+03  0.00000000000E+00 0. -1.
          1    1    1    2  501    0  0.95957799884E+02 -0.12951468114E+03  0.13309292753E+04  0.13406545744E+04  0.00000000000E+00 0. -1.
<scales pt_clust_3="122.21646" pt_clust_4="52.84131" pt_clust_5="51.39510" pt_clust_6="14000.00000"></scales>
<clustering>
<clus scale="   51.395">  2  5  1 -1</clus>
<clus scale="   52.841">  1  4  2 -1</clus>
<clus scale="  122.216">  2  3  1 -1</clus>
<clus scale="   51.395">  2  3  1 -1</clus>
</clustering>
</event>
<event>
 6    0  0.1230761E+002  0.1885688E+03  0.7546771E-02  0.1159759E+00
          3   -1    0    0  505    0 -0.00000000000E+00  0.00000000000E+00  0.49513537850E+03  0.49513537850E+03  0.00000000000E+00 0.  1.
         21   -1    0    0  503  502  0.00000000000E+00 -0.00000000000E+00 -0.25797732035E+03  0.25797732035E+03  0.00000000000E+00 0.  1.
         21    1    1    2  503  504  0.21942660091E+02  0.28031569369E+02 -0.47104522441E+02  0.59043079590E+02  0.00000000000E+00 0.  1.
         21    1    1    2  504  501  0.14938069267E+03  0.74333876565E+01 -0.13639257617E+03  0.20241734469E+03  0.00000000000E+00 0.  1.
         21    1    1    2  505  502  0.25844334272E+02 -0.23694496602E+02  0.16446183942E+03  0.16815782886E+03  0.00000000000E+00 0.  1.
          3    1    1    2  501    0 -0.19716768704E+03 -0.11770460423E+02  0.25619331734E+03  0.32349444570E+03  0.00000000000E+00 0.  1.
<scales pt_clust_3="31.16581" pt_clust_4="31.16581" pt_clust_5="35.06221" pt_clust_6="177.41841"></scales>
<clustering>
<clus scale="   31.166">  3  4 -1 -1</clus>
<clus scale="   35.062">  1  5  2 -1</clus>
<clus scale="  177.418">  1  6  2 -1</clus>
<clus scale="  188.569">  2  3  1 -1</clus>
</clustering>
</event>
<event>
 6    0  0.1230761E+002  0.1648501E+03  0.7546771E-02  0.1183327E+00
         21   -1    0    0  505  502  0.00000000000E+00  0.00000000000E+00  0.38041814894E+02  0.38041814894E+02  0.00000000000E+00 0.  1.
          2   -1    0    0  504    0 -0.00000000000E+00 -0.00000000000E+00 -0.26619137451E+04  0.26619137451E+04  0.00000000000E+00 0. -1.
         21    1    1    2  503  502  0.14518748383E+03  0.27503743615E+01 -0.27779616540E+03  0.31346081020E+03  0.00000000000E+00 0.  1.
         21    1    1    2  504  503 -0.14782962675E+02  0.26411867074E+02 -0.10430837672E+04  0.10435228163E+04  0.00000000000E+00 0. -1.
         21    1    1    2  505  501  0.27635824335E+02 -0.49514661961E+02 -0.38640106129E+02  0.68618498507E+02  0.00000000000E+00 0.  1.
          2    1    1    2  501    0 -0.15804034549E+03  0.20352420525E+02 -0.12643518914E+04  0.12743534350E+04  0.00000000000E+00 0. -1.
<scales pt_clust_3="14000.00000" pt_clust_4="30.26752" pt_clust_5="55.70200" pt_clust_6="164.85007"></scales>
<clustering>
<clus scale="   30.268">  2  4  1 -1</clus>
<clus scale="   55.702">  1  5  2 -1</clus>
<clus scale="  164.850">  2  6  1 -1</clus>
<clus scale="   55.702">  1  3  2 -1</clus>
</clustering>
</event>
<event>
 6    0  0.1230761E+002  0.9891608E+02  0.7546771E-02  0.1282592E+00
         21   -1    0    0  504  502  0.00000000000E+00  0.00000000000E+00  0.45710715885E+03  0.45710715885E+03  0.00000000000E+00 0. -1.
         -4   -1    0    0    0  501 -0.00000000000E+00 -0.00000000000E+00 -0.76009683005E+02  0.76009683005E+02  0.00000000000E+00 0. -1.
         21    1    1    2  503  501  0.42609975479E+01  0.33442087373E+02  0.86771616030E+01  0.34811240160E+02  0.00000000000E+00 0.  1.
         21    1    1    2  504  505  0.45373264919E+02  0.53352414969E+02  0.11724527111E+03  0.13657110584E+03  0.00000000000E+00 0. -1.
         21    1    1    2  505  503 -0.58430748995E+02  0.49571901493E+02  0.20033837427E+03  0.21449240092E+03  0.00000000000E+00 0.  1.
         -4    1    1    2    0  502  0.87964865284E+01 -0.13636640383E+03  0.54836668861E+02  0.14724209494E+03  0.00000000000E+00 0. -1.
<scales pt_clust_3="33.71245" pt_clust_4="74.42570" pt_clust_5="98.91608" pt_clust_6="14000.00000"></scales>
<clustering>
<clus scale="   33.712">  2  3  1 -1</clus>
<clus scale="   74.426">  1  4  2 -1</clus>
<clus scale="   98.916">  1  5  2 -1</clus>
<clus scale="   74.426">  1  3  2 -1</clus>
</clustering>
</event>
<event>
 6    0  0.1230761E+002  0.6004437E+02  0.7546771E-02  0.1397646E+00
         -1   -1    0    0    0  501 -0.00000000000E+00  0.00000000000E+00  0.98403093882E+02  0.98403093882E+02  0.00000000000E+00 0.  1.
         21   -1    0    0  504  502  0.00000000000E+00 -0.00000000000E+00 -0.38421728842E+03  0.38421728842E+03  0.00000000000E+00 0.  1.
         21    1    1    2  503  501 -0.22862035602E+02 -0.27699636311E+02  0.58383759705E+00  0.35920514890E+02  0.00000000000E+00 0. -1.
         21    1    1    2  504  503  0.51309537620E+02 -0.15594734325E+02 -0.17537908787E+03  0.18339489865E+03  0.00000000000E+00 0.  1.
         21    1    1    2  505  502 -0.98605856863E+02  0.17958188301E+02 -0.14901998641E+03  0.17958999940E+03  0.00000000000E+00 0.  1.
         -1    1    1    2    0  505  0.70158354846E+02  0.25336182335E+02  0.38001042148E+02  0.83714969357E+02  0.00000000000E+00 0.  1.
<scales pt_clust_3="35.91577" pt_clust_4="52.96202" pt_clust_5="60.04437" pt_clust_6="14000.00000"></scales>
<clustering>
<clus scale="   35.916">  1  3  2 -1</clus>
<clus scale="   52.962">  2  4  1 -1</clus>
<clus scale="   60.044">  2  5  1 -1</clus>
<clus scale="   52.962">  2  3  1 -1</clus>
</clustering>
</event>
<event>
 6    0  0.1230761E+002  0.2274752E+03  0.7546771E-02  0.1128430E+00
         21   -1    0    0  504  502  0.00000000000E+00  0.00000000000E+00  0.20924042124E+04  0.20924042124E+04  0.00000000000E+00 0. -1.
         -4   -1    0    0    0  501 -0.00000000000E+00 -0.00000000000E+00 -0.41863357695E+02  0.41863357695E+02  0.00000000000E+00 0. -1.
         21    1    1    2  503  502  0.11021758902E+03  0.17524949544E+03  0.13864519509E+04  0.14018235677E+04  0.00000000000E+00 0. -1.
         21    1    1    2  504  501  0.37222102710E+02 -0.16475453188E+02  0.29289356865E+03  0.29570858635E+03  0.00000000000E+00 0.  1.
         21    1    1    2  505  503 -0.45254383831E+02 -0.81683510506E+01  0.53014610856E+02  0.70179984177E+02  0.00000000000E+00 0. -1.
         -4    1    1    2    0  505 -0.10218530790E+03 -0.15060569120E+03  0.31818072429E+03  0.36655543194E+03  0.00000000000E+00 0. -1.
<scales pt_clust_3="213.87091" pt_clust_4="40.70535" pt_clust_5="38.94960" pt_clust_6="38.94960"></scales>
<clustering>
<clus scale="   38.950">  5  6 -1 -1</clus>
<clus scale="   40.705">  1  4  2 -1</clus>
<clus scale="  213.871">  1  3  2 -1</clus>
<clus scale="   40.705">  1  3  2 -1</clus>
</clustering>
</event>
<event>
 6    0  0.1230761E+002  0.1413236E+03  0.7546771E-02  0.1211559E+00
          1   -1    0    0  504    0 -0.00000000000E+00  0.00000000000E+00  0.75384185670E+03  0.75384185670E+03  0.00000000000E+00 0.  1.
         21   -1    0    0  505  502  0.00000000000E+00 -0.00000000000E+00 -0.75979366422E+02  0.75979366422E+02  0.00000000000E+00 0.  1.
         21    1    1    2  503  501 -0.20314048520E+02  0.46736044879E+02  0.28484371547E+02  0.58380458037E+02  0.00000000000E+00 0.  1.
         21    1    1    2  504  502  0.14214047656E+03 -0.13230206796E+03  0.41828242575E+03  0.46115934335E+03  0.00000000000E+00 0.  1.
         21    1    1    2  505  503 -0.15890534822E+02  0.44514444978E+02 -0.57324347333E+01  0.47612033317E+02  0.00000000000E+00 0.  1.
          1    1    1    2  501    0 -0.10593589322E+03  0.41051578108E+02  0.23682812771E+03  0.26266938842E+03  0.00000000000E+00 0.  1.
<scales pt_clust_3="103.52177" pt_clust_4="141.32362" pt_clust_5="31.63999" pt_clust_6="14000.00000"></scales>
<clustering>
<clus scale="   31.640">  3  5 -1 -1</clus>
<clus scale="  103.522">  2  3  1 -1</clus>
<clus scale="  141.324">  2  4  1 -1</clus>
<clus scale="  103.522">  2  3  1 -1</clus>
</clustering>
</event>
<event>
 6    0  0.1230761E+002  0.1474268E+03  0.7546771E-02  0.1203671E+00
         21   -1    0    0  504  502  0.00000000000E+00  0.00000000000E+00  0.79684677311E+03  0.79684677311E+03  0.00000000000E+00 0. -1.
         -2   -1    0    0    0  501 -0.00000000000E+00 -0.00000000000E+00 -0.14555404756E+03  0.14555404756E+03  0.00000000000E+00 0. -1.
         21    1    1    2  503  505 -0.21936991058E+02 -0.90940749739E+02  0.35269411093E+03  0.36488982916E+03  0.00000000000E+00 0. -1.
         21    1    1    2  504  503 -0.28627149952E+02 -0.34153724131E+02  0.36103892898E+03  0.36377891476E+03  0.00000000000E+00 0. -1.
         21    1    1    2  505  501  0.31405473410E+02 -0.25768198922E+02  0.14712401792E+02  0.43206001924E+02  0.00000000000E+00 0. -1.
         -2    1    1    2    0  502  0.19158667600E+02  0.15086267279E+03 -0.77152716146E+02  0.17052607482E+03  0.00000000000E+00 0. -1.
<scales pt_clust_3="39.87610" pt_clust_4="39.87610" pt_clust_5="40.62393" pt_clust_6="135.63453"></scales>
<clustering>
<clus scale="   39.876">  3  4 -1 -1</clus>
<clus scale="   40.624">  2  5  1 -1</clus>
<clus scale="  135.635">  2  6  1 -1</clus>
<clus scale="  147.427">  1  3  2 -1</clus>
</clustering>
</event>
<event>
 6    0  0.1230761E+002  0.2248801E+03  0.7546771E-02  0.1130296E+00
          2   -1    0    0  503    0 -0.00000000000E+00  0.00000000000E+00  0.20965550425E+04  0.20965550425E+04  0.00000000000E+00 0.  1.
         21   -1    0    0  501  502  0.00000000000E+00 -0.00000000000E+00 -0.26506589736E+03  0.26506589736E+03  0.00000000000E+00 0.  1.
         21    1    1    2  503  505  0.49817768150E+02 -0.52280321396E+02  0.21266384181E+03  0.22459063125E+03  0.00000000000E+00 0. -1.
         21    1    1    2  504  502  0.88422789495E+02  0.11661558023E+02 -0.10605643618E+03  0.13857326327E+03  0.00000000000E+00 0.  1.
         21    1    1    2  505  504  0.10532622319E+03 -0.13317151299E+03 -0.66434469982E+02  0.18232335003E+03  0.00000000000E+00 0.  1.
          2    1    1    2  501    0 -0.24356678083E+03  0.17379027637E+03  0.17913162095E+04  0.18161336953E+04  0.00000000000E+00 0.  1.
<scales pt_clust_3="72.21525" pt_clust_4="89.55831" pt_clust_5="14000.00000" pt_clust_6="224.88005"></scales>
<clustering>
<clus scale="   72.215">  1  3  2 -1</clus>
<clus scale="   89.558">  2  4  1 -1</clus>
<clus scale="  224.880">  1  6  2 -1</clus>
<clus scale="   89.558">  2  3  1 -1</clus>
</clustering>
</event>
<event>
 6    0  0.1230761E+002  0.7338185E+02  0.7546771E-02  0.1348956E+00
         21   -1    0    0  504  502  0.00000000000E+00  0.00000000000E+00  0.41577924089E+02  0.41577924089E+02  0.00000000000E+00 0. -1.
          2   -1    0    0  503    0 -0.00000000000E+00 -0.00000000000E+00 -0.31394189827E+04  0.31394189827E+04  0.00000000000E+00 0. -1.
         21    1    1    2  503  502 -0.73406682400E+02  0.57760746485E+01 -0.93566850219E+00  0.73639524271E+02  0.00000000000E+00 0. -1.
         21    1    1    2  504  505  0.23063599768E+02 -0.21600355291E+02 -0.77071867848E+02  0.83298126008E+02  0.00000000000E+00 0. -1.
         21    1    1    2  505  501  0.54012832603E+02 -0.59935654357E+02 -0.12499872182E+04  0.12525884058E+04  0.00000000000E+00 0. -1.
          2    1    1    2  501    0 -0.36697499705E+01  0.75759934999E+02 -0.17698463041E+04  0.17714708507E+04  0.00000000000E+00 0. -1.
<scales pt_clust_3="53.64562" pt_clust_4="31.59913" pt_clust_5="73.38185" pt_clust_6="14000.00000"></scales>
<clustering>
<clus scale="   31.599">  1  4  2 -1</clus>
<clus scale="   53.646">  1  3  2 -1</clus>
<clus scale="   73.382">  1  5  2 -1</clus>
<clus scale="   31.599">  1  3  2 -1</clus>
</clustering>
</event>
<event>
 6    0  0.1230761E+002  0.1519807E+03  0.7546771E-02  0.1198060E+00
          2   -1    0    0  503    0 -0.00000000000E+00  0.00000000000E+00  0.44723205880E+03  0.44723205880E+03  0.00000000000E+00 0.  1.
         21   -1    0    0  504  502  0.00000000000E+00 -0.00000000000E+00 -0.14218348785E+03  0.14218348785E+03  0.00000000000E+00 0.  1.
         21    1    1    2  503  505  0.54465053762E+01  0.31857353559E+02  0.75201020188E+02  0.81851993463E+02  0.00000000000E+00 0.  1.
         21    1    1    2  504  501 -0.14545588105E+03  0.32267404149E+02 -0.13054101108E+02  0.14956272349E+03  0.00000000000E+00 0.  1.
         21    1    1    2  505  502 -0.27699348889E+02 -0.80501411143E+02  0.39453567645E+02  0.93831312070E+02  0.00000000000E+00 0.  1.
          2    1    1    2  501    0  0.16770872456E+03  0.16376653435E+02  0.20344808422E+03  0.26416951763E+03  0.00000000000E+00 0.  1.
<scales pt_clust_3="32.31958" pt_clust_4="14000.00000" pt_clust_5="79.37409" pt_clust_6="151.98071"></scales>
<clustering>
<clus scale="   32.320">  1  3  2 -1</clus>
<clus scale="   79.374">  1  5  2 -1</clus>
<clus scale="  151.981">  1  6  2 -1</clus>
<clus scale="  151.981">  2  3  1 -1</clus>
</clustering>
</event>
<event>
 6    0  0.1230761E+002  0.7376330E+02  0.7546771E-02  0.1347744E+00
          2   -1    0    0  503    0 -0.00000000000E+00  0.00000000000E+00  0.50533419518E+03  0.50533419518E+03  0.00000000000E+00 0. -1.
         21   -1    0    0  505  502  0.00000000000E+00 -0.00000000000E+00 -0.64960583970E+02  0.64960583970E+02  0.00000000000E+00 0.  1.
         21    1    1    2  503  504 -0.45910771772E+02 -0.35793280075E+02  0.20014020132E+03  0.20843478128E+03  0.00000000000E+00 0. -1.
         21    1    1    2  504  502 -0.75676692908E+02  0.22397166371E+02  0.11835287242E+02  0.79803940599E+02  0.00000000000E+00 0.  1.
         21    1    1    2  505  501  0.15962026275E+02 -0.31270029275E+02  0.11919010794E+02  0.37076459270E+02  0.00000000000E+00 0. -1.
          2    1    1    2  501    0  0.10562543841E+03  0.44666142980E+02  0.21647911185E+03  0.24497959800E+03  0.00000000000E+00 0. -1.
<scales pt_clust_3="58.80370" pt_clust_4="73.76330" pt_clust_5="35.10842" pt_clust_6="14000.00000"></scales>
<clustering>
<clus scale="   35.108">  2  5  1 -1</clus>
<clus scale="   58.804">  1  3  2 -1</clus>
<clus scale="   73.763">  2  4  1 -1</clus>
<clus scale="   35.108">  2  3  1 -1</clus>
</clustering>
</event>
<event>
 6    0  0.1230761E+002  0.1251913E+03  0.7546771E-02  0.1234771E+00
          2   -1    0    0  503    0 -0.00000000000E+00  0.00000000000E+00  0.71517552684E+03  0.71517552684E+03  0.00000000000E+00 0.  1.
         21   -1    0    0  501  502  0.00000000000E+00 -0.00000000000E+00 -0.16099442720E+03  0.16099442720E+03  0.00000000000E+00 0.  1.
         21    1    1    2  503  504 -0.31180535372E+02  0.58791333538E+01  0.37852974978E+03  0.37985729092E+03  0.00000000000E+00 0.  1.
         21    1    1    2  504  505  0.64207831184E+01  0.59436064105E+02 -0.84256383098E+02  0.10331026215E+03  0.00000000000E+00 0.  1.
         21    1    1    2  505  502  0.15963007403E+02  0.58442404621E+02 -0.37156519194E+02  0.71069959771E+02  0.00000000000E+00 0.  1.
          2    1    1    2  501    0  0.87967448511E+01 -0.12375760208E+03  0.29706425216E+03  0.32193244121E+03  0.00000000000E+00 0.  1.
<scales pt_clust_3="31.72995" pt_clust_4="35.46891" pt_clust_5="35.46891" pt_clust_6="120.00770"></scales>
<clustering>
<clus scale="   31.730">  1  3  2 -1</clus>
<clus scale="   35.469">  4  5 -1 -1</clus>
<clus scale="  120.008">  1  6  2 -1</clus>
<clus scale="  125.191">  2  3  1 -1</clus>
</clustering>
</event>
<event>
 6    0  0.1230761E+002  0.8824813E+02  0.7546771E-02  0.1307150E+00
         21   -1    0    0  503  502  0.00000000000E+00  0.00000000000E+00  0.21272052174E+03  0.21272052174E+03  0.00000000000E+00 0. -1.
          2   -1    0    0  504    0 -0.00000000000E+00 -0.00000000000E+00 -0.70320876831E+03  0.70320876831E+03  0.00000000000E+00 0. -1.
         21    1    1    2  503  501 -0.73950201055E+02  0.18483734181E+01  0.57289952436E+02  0.93563814429E+02  0.00000000000E+00 0. -1.
         21    1    1    2  504  505  0.15832259693E+02  0.66796787985E+02 -0.20605587512E+03  0.21718999748E+03  0.00000000000E+00 0. -1.
         21    1    1    2  505  502  0.10552619778E+03  0.14139661078E+02  0.10431233857E+03  0.14905291816E+03  0.00000000000E+00 0. -1.
          2    1    1    2  501    0 -0.47408256416E+02 -0.82784822482E+02 -0.44603466246E+03  0.45612255999E+03  0.00000000000E+00 0. -1.
<scales pt_clust_3="88.24813" pt_clust_4="68.64744" pt_clust_5="14000.00000" pt_clust_6="39.28163"></scales>
<clustering>
<clus scale="   68.647">  2  4  1 -1</clus>
<clus scale="   39.282">  2  6  1 -1</clus>
<clus scale="   88.248">  1  3  2 -1</clus>
<clus scale="   88.248">  1  3  2 -1</clus>
</clustering>
</event>
<event>
 6    0  0.1230761E+002  0.1169551E+03  0.7546771E-02  0.1248206E+00
          1   -1    0    0  505    0 -0.00000000000E+00  0.00000000000E+00  0.44388096011E+04  0.44388096011E+04  0.00000000000E+00 0. -1.
         21   -1    0    0  503  502  0.00000000000E+00 -0.00000000000E+00 -0.72208097084E+02  0.72208097084E+02  0.00000000000E+00 0. -1.
         21    1    1    2  503  501 -0.92199973600E+01  0.15854647309E+03  0.37301978124E+02  0.16313623157E+03  0.00000000000E+00 0. -1.
         21    1    1    2  504  502 -0.48128269517E+02 -0.54703064407E+02  0.17033514808E+03  0.18526418503E+03  0.00000000000E+00 0.  1.
         21    1    1    2  505  504  0.21583853048E+02 -0.33138275159E+02  0.27343954996E+03  0.27628462765E+03  0.00000000000E+00 0. -1.
          1    1    1    2  501    0  0.35764413829E+02 -0.70705133520E+02  0.38855248278E+04  0.38863326539E+04  0.00000000000E+00 0. -1.
<scales pt_clust_3="14000.00000" pt_clust_4="73.33283" pt_clust_5="39.54754" pt_clust_6="116.95509"></scales>
<clustering>
<clus scale="   39.548">  1  5  2 -1</clus>
<clus scale="   73.333">  2  4  1 -1</clus>
<clus scale="  116.955">  1  6  2 -1</clus>
<clus scale="   73.333">  2  3  1 -1</clus>
</clustering>
</event>
<event>
 6    0  0.1230761E+002  0.1924925E+03  0.7546771E-02  0.1156232E+00
         21   -1    0    0  505  502  0.00000000000E+00  0.00000000000E+00  0.15077775831E+03  0.15077775831E+03  0.00000000000E+00 0. -1.
          2   -1    0    0  504    0 -0.00000000000E+00 -0.00000000000E+00 -0.14333749118E+04  0.14333749118E+04  0.00000000000E+00 0.  1.
         21    1    1    2  503  502  0.94717917785E+01 -0.74378781428E+02 -0.29784694858E+02  0.80678658975E+02  0.00000000000E+00 0.  1.
         21    1    1    2  504  503  0.32006766355E+02 -0.10473484202E+02 -0.16676307877E+03  0.17012951362E+03  0.00000000000E+00 0.  1.
         21    1    1    2  505  501  0.16051017921E+03 -0.17180201303E+02  0.54640877743E+02  0.17042389054E+03  0.00000000000E+00 0. -1.
          2    1    1    2  501    0 -0.20198873734E+03  0.10203246693E+03 -0.11406902576E+04  0.11629206069E+04  0.00000000000E+00 0.  1.
<scales pt_clust_3="75.62132" pt_clust_4="33.67680" pt_clust_5="192.49247" pt_clust_6="14000.00000"></scales>
<clustering>
<clus scale="   33.677">  2  4  1 -1</clus>
<clus scale="   75.621">  1  3  2 -1</clus>
<clus scale="  192.492">  1  5  2 -1</clus>
<clus scale="   75.621">  1  3  2 -1</clus>
</clustering>
</event>
<event>
 6    0  0.1230761E+002  0.2276408E+03  0.7546771E-02  0.1128311E+00
         -1   -1    0    0    0  501 -0.00000000000E+00  0.00000000000E+00  0.11307978746E+03  0.11307978746E+03  0.00000000000E+00 0. -1.
         21   -1    0    0  504  502  0.00000000000E+00 -0.00000000000E+00 -0.74506465369E+03  0.74506465369E+03  0.00000000000E+00 0. -1.
         21    1    1    2  503  505 -0.37293730566E+02  0.11665786053E+03 -0.41329079565E+03  0.43105586706E+03  0.00000000000E+00 0. -1.
         21    1    1    2  504  503  0.20595176790E+02  0.32778558750E+02 -0.13629105768E+03  0.14168220645E+03  0.00000000000E+00 0.  1.
         21    1    1    2  505  501 -0.20769772734E+02  0.47195146580E+02 -0.67140430296E+02  0.84655789527E+02  0.00000000000E+00 0. -1.
         -1    1    1    2    0  502  0.37468326510E+02 -0.19663156586E+03 -0.15262582609E+02  0.20075057811E+03  0.00000000000E+00 0. -1.
<scales pt_clust_3="51.23764" pt_clust_4="32.67892" pt_clust_5="51.23764" pt_clust_6="200.16955"></scales>
<clustering>
<clus scale="   32.679">  3  4 -1 -1</clus>
<clus scale="   51.238">  3  5 -1 -1</clus>
<clus scale="  200.170">  1  6  2 -1</clus>
<clus scale="  227.641">  2  3  1 -1</clus>
</clustering>
</event>
<event>
 6    0  0.1230761E+002  0.6429622E+02  0.7546771E-02  0.1380639E+00
         21   -1    0    0  504  502  0.00000000000E+00  0.00000000000E+00  0.13043879327E+03  0.13043879327E+03  0.00000000000E+00 0. -1.
          2   -1    0    0  503    0 -0.00000000000E+00 -0.00000000000E+00 -0.18860308800E+04  0.18860308800E+04  0.00000000000E+00 0.  1.
         21    1    1    2  503  502  0.42972086745E+02  0.68353706490E+02 -0.62486209158E+03  0.63005671406E+03  0.00000000000E+00 0.  1.
         21    1    1    2  504  505 -0.78524366129E+01 -0.51147559010E+02  0.10366345229E+03  0.11586131751E+03  0.00000000000E+00 0. -1.
         21    1    1    2  505  501 -0.58041552010E+02  0.40936257835E+02 -0.55854259712E+02  0.90356501112E+02  0.00000000000E+00 0. -1.
          2    1    1    2  501    0  0.22921901878E+02 -0.58142405314E+02 -0.11785391877E+04  0.11801951406E+04  0.00000000000E+00 0.  1.
<scales pt_clust_3="62.21655" pt_clust_4="51.74682" pt_clust_5="14000.00000" pt_clust_6="64.29622"></scales>
<clustering>
<clus scale="   51.747">  1  4  2 -1</clus>
<clus scale="   64.296">  2  6  1 -1</clus>
<clus scale="   62.217">  2  3  1 -1</clus>
<clus scale="   51.747">  1  3  2 -1</clus>
</clustering>
</event>
<event>
 6    0  0.1230761E+002  0.1332195E+03  0.7546771E-02  0.1222755E+00
         21   -1    0    0  505  502  0.00000000000E+00  0.00000000000E+00  0.36998957005E+02  0.36998957005E+02  0.00000000000E+00 0.  1.
          1   -1    0    0  503    0 -0.00000000000E+00 -0.00000000000E+00 -0.12424676229E+04  0.12424676229E+04  0.00000000000E+00 0.  1.
         21    1    1    2  503  504  0.30698976236E+02  0.15914283752E+02 -0.28398863680E+03  0.28608606642E+03  0.00000000000E+00 0.  1.
         21    1    1    2  504  502  0.12655881911E+03 -0.43488637816E+02 -0.18354562048E+03  0.22715059126E+03  0.00000000000E+00 0.  1.
         21    1    1    2  505  501 -0.26351234713E+02 -0.36826148234E+02 -0.76503200732E+02  0.88900463930E+02  0.00000000000E+00 0.  1.
          1    1    1    2  501    0 -0.13090656063E+03  0.64400502298E+02 -0.66143120793E+03  0.67732945834E+03  0.00000000000E+00 0.  1.
<scales pt_clust_3="34.57877" pt_clust_4="133.21952" pt_clust_5="42.64357" pt_clust_6="14000.00000"></scales>
<clustering>
<clus scale="   34.579">  2  3  1 -1</clus>
<clus scale="   42.644">  1  5  2 -1</clus>
<clus scale="  133.220">  1  4  2 -1</clus>
<clus scale="   42.644">  1  3  2 -1</clus>
</clustering>
</event>
<event>
 6    0  0.1230761E+002  0.1887579E+03  0.7546771E-02  0.1159586E+00
          2   -1    0    0  503    0 -0.00000000000E+00  0.00000000000E+00  0.23189745391E+04  0.23189745391E+04  0.00000000000E+00 0. -1.
         21   -1    0    0  504  502  0.00000000000E+00 -0.00000000000E+00 -0.49026286076E+03  0.49026286076E+03  0.00000000000E+00 0.  1.
         21    1    1    2  503  505  0.36205352924E+02 -0.32030488952E+02  0.22166277420E+03  0.22687257496E+03  0.00000000000E+00 0. -1.
         21    1    1    2  504  501 -0.14150020575E+02  0.38473096853E+02 -0.34546213454E+02  0.53608237499E+02  0.00000000000E+00 0. -1.
         21    1    1    2  505  502  0.19957585681E+03 -0.64459024726E+01 -0.41484899796E+03  0.46040391331E+03  0.00000000000E+00 0.  1.
          2    1    1    2  501    0 -0.22163118916E+03  0.32945718776E-02  0.20564441156E+04  0.20683526741E+04  0.00000000000E+00 0. -1.
<scales pt_clust_3="48.12968" pt_clust_4="40.99271" pt_clust_5="14000.00000" pt_clust_6="188.75787"></scales>
<clustering>
<clus scale="   40.993">  2  4  1 -1</clus>
<clus scale="   48.130">  1  3  2 -1</clus>
<clus scale="  188.758">  1  6  2 -1</clus>
<clus scale="   40.993">  2  3  1 -1</clus>
</clustering>
</event>
<event>
 6    0  0.1230761E+002  0.1310907E+03  0.7546771E-02  0.1225846E+00
         -1   -1    0    0    0  501 -0.00000000000E+00  0.00000000000E+00  0.11405946796E+04  0.11405946796E+04  0.00000000000E+00 0.  1.
         21   -1    0    0  504  502  0.00000000000E+00 -0.00000000000E+00 -0.15069056964E+03  0.15069056964E+03  0.00000000000E+00 0. -1.
         21    1    1    2  503  501  0.10811536820E+02  0.40692231801E+02  0.80520161321E+03  0.80630167119E+03  0.00000000000E+00 0.  1.
         21    1    1    2  504  505 -0.60854200667E+02 -0.16426391051E+02 -0.48468166558E+02  0.79512409291E+02  0.00000000000E+00 0. -1.
         21    1    1    2  505  503  0.17390118057E+03 -0.19986688114E+02  0.45999782801E+02  0.18098913869E+03  0.00000000000E+00 0. -1.
         -1    1    1    2    0  502 -0.12385851673E+03 -0.42791526363E+01  0.18717088052E+03  0.22448203008E+03  0.00000000000E+00 0.  1.
<scales pt_clust_3="42.10400" pt_clust_4="62.07978" pt_clust_5="14000.00000" pt_clust_6="131.09071"></scales>
<clustering>
<clus scale="   42.104">  1  3  2 -1</clus>
<clus scale="   62.080">  2  4  1 -1</clus>
<clus scale="  131.091">  1  6  2 -1</clus>
<clus scale="   62.080">  2  3  1 -1</clus>
</clustering>
</event>
<event>
 6    0  0.1230761E+002  0.1172520E+03  0.7546771E-02  0.1247700E+00
         21   -1    0    0  503  502  0.00000000000E+00  0.00000000000E+00  0.39276765399E+03  0.39276765399E+03  0.00000000000E+00 0.  1.
          4   -1    0    0  504    0 -0.00000000000E+00 -0.00000000000E+00 -0.13138606987E+03  0.13138606987E+03  0.00000000000E+00 0.  1.
         21    1    1    2  503  505  0.39610158511E+01  0.34025392193E+02  0.14712401694E+03  0.15105923779E+03  0.00000000000E+00 0.  1.
         21    1    1    2  504  502 -0.16872769388E+02  0.80030629218E+02  0.26303274613E+02  0.85915389862E+02  0.00000000000E+00 0.  1.
         21    1    1    2  505  501 -0.42361479328E+02  0.40241139975E+02  0.10726592323E+03  0.12214672556E+03  0.00000000000E+00 0.  1.
          4    1    1    2  501    0  0.55273232865E+02 -0.15429716139E+03 -0.19311630664E+02  0.16503237065E+03  0.00000000000E+00 0.  1.
<scales pt_clust_3="34.25517" pt_clust_4="117.25204" pt_clust_5="69.31784" pt_clust_6="14000.00000"></scales>
<clustering>
<clus scale="   34.255">  1  3  2 -1</clus>
<clus scale="   69.318">  1  5  2 -1</clus>
<clus scale="  117.252">  2  4  1 -1</clus>
<clus scale="   34.255">  1  3  2 -1</clus>
</clustering>
</event>
<event>
 6    0  0.1230761E+002  0.1498711E+03  0.7546771E-02  0.1200631E+00
         21   -1    0    0  501  502  0.00000000000E+00  0.00000000000E+00  0.29483462361E+03  0.29483462361E+03  0.00000000000E+00 0. -1.
          2   -1    0    0  503    0 -0.00000000000E+00 -0.00000000000E+00 -0.63248968075E+03  0.63248968075E+03  0.00000000000E+00 0.  1.
         21    1    1    2  503  505  0.44050164181E+02 -0.51941808152E+02 -0.14317366213E+03  0.15854673105E+03  0.00000000000E+00 0.  1.
         21    1    1    2  504  502 -0.45418526850E+02 -0.63407600230E+02  0.19332969863E+03  0.20846999478E+03  0.00000000000E+00 0. -1.
         21    1    1    2  505  504 -0.15004508782E+02 -0.58060074693E+02  0.56922179315E+02  0.82681570226E+02  0.00000000000E+00 0. -1.
          2    1    1    2  501    0  0.16372871451E+02  0.17340948307E+03 -0.44473327295E+03  0.47762600831E+03  0.00000000000E+00 0.  1.
<scales pt_clust_3="68.10557" pt_clust_4="53.60873" pt_clust_5="53.60873" pt_clust_6="136.83367"></scales>
<clustering>
<clus scale="   53.609">  4  5 -1 -1</clus>
<clus scale="   68.106">  2  3  1 -1</clus>
<clus scale="  136.834">  2  6  1 -1</clus>
<clus scale="  149.871">  1  3  2 -1</clus>
</clustering>
</event>
<event>
 6    0  0.1230761E+002  0.9326533E+02  0.7546771E-02  0.1295131E+00
         21   -1    0    0  505  502  0.00000000000E+00  0.00000000000E+00  0.96798238813E+02  0.96798238813E+02  0.00000000000E+00 0.  1.
          2   -1    0    0  504    0 -0.00000000000E+00 -0.00000000000E+00 -0.68838514595E+03  0.68838514595E+03  0.00000000000E+00 0.  1.
         21    1    1    2  503  502  0.47889726115E+01 -0.53147901125E+02  0.47813782611E+02  0.71650481229E+02  0.00000000000E+00 0.  1.
         21    1    1    2  504  503  0.79755919713E+02 -0.15128146246E+02 -0.34505863738E+03  0.35447895674E+03  0.00000000000E+00 0.  1.
         21    1    1    2  505  501  0.35468370238E+02  0.10084435950E+02 -0.10842805356E+01  0.36890063703E+02  0.00000000000E+00 0. -1.
          2    1    1    2  501    0 -0.12001326256E+03  0.58191611421E+02 -0.29325777183E+03  0.32216388309E+03  0.00000000000E+00 0.  1.
<scales pt_clust_3="55.43158" pt_clust_4="14000.00000" pt_clust_5="36.87413" pt_clust_6="93.26533"></scales>
<clustering>
<clus scale="   36.874">  1  5  2 -1</clus>
<clus scale="   55.432">  1  3  2 -1</clus>
<clus scale="   93.265">  1  6  2 -1</clus>
<clus scale="   36.874">  1  3  2 -1</clus>
</clustering>
</event>
<event>
 6    0  0.1230761E+002  0.1353655E+03  0.7546771E-02  0.1219705E+00
         21   -1    0    0  501  502  0.00000000000E+00  0.00000000000E+00  0.19611229850E+02  0.19611229850E+02  0.00000000000E+00 0. -1.
          2   -1    0    0  504    0 -0.00000000000E+00 -0.00000000000E+00 -0.32420386162E+04  0.32420386162E+04  0.00000000000E+00 0.  1.
         21    1    1    2  503  505 -0.61896927004E+02 -0.62795324104E+02 -0.22380549360E+03  0.24054808515E+03  0.00000000000E+00 0. -1.
         21    1    1    2  504  503  0.28799919489E+01 -0.53432761926E+02 -0.61701266664E+03  0.61932865685E+03  0.00000000000E+00 0. -1.
         21    1    1    2  505  502 -0.35115384295E+02 -0.10328252309E+02 -0.37638227955E+02  0.52501421062E+02  0.00000000000E+00 0. -1.
          2    1    1    2  501    0  0.94132319350E+02  0.12655633834E+03 -0.23439709981E+04  0.23492716830E+04  0.00000000000E+00 0.  1.
<scales pt_clust_3="33.89018" pt_clust_4="53.51032" pt_clust_5="33.89018" pt_clust_6="124.72797"></scales>
<clustering>
<clus scale="   33.890">  3  5 -1 -1</clus>
<clus scale="   53.510">  2  4  1 -1</clus>
<clus scale="  124.728">  2  6  1 -1</clus>
<clus scale="  135.365">  1  3  2 -1</clus>
</clustering>
</event>
<event>
 6    0  0.1230761E+002  0.9213528E+02  0.7546771E-02  0.1297762E+00
          1   -1    0    0  503    0 -0.00000000000E+00  0.00000000000E+00  0.11474787974E+04  0.11474787974E+04  0.00000000000E+00 0. -1.
         21   -1    0    0  505  502  0.00000000000E+00 -0.00000000000E+00 -0.24097860807E+03  0.24097860807E+03  0.00000000000E+00 0.  1.
         21    1    1    2  503  504 -0.53989192790E+02 -0.62568061544E+02  0.22831790763E+03  0.24281404862E+03  0.00000000000E+00 0. -1.
         21    1    1    2  504  502 -0.57635725892E+02  0.17470475699E+02 -0.61903612209E+01  0.60542670839E+02  0.00000000000E+00 0.  1.
         21    1    1    2  505  501  0.70604475965E+02 -0.42214302823E+02 -0.18915190342E+03  0.20626556173E+03  0.00000000000E+00 0.  1.
          1    1    1    2  501    0  0.41020442718E+02  0.87311888668E+02  0.87352454638E+03  0.87883512433E+03  0.00000000000E+00 0. -1.
<scales pt_clust_3="14000.00000" pt_clust_4="60.22536" pt_clust_5="30.02082" pt_clust_6="92.13528"></scales>
<clustering>
<clus scale="   60.225">  2  4  1 -1</clus>
<clus scale="   30.021">  2  5  1 -1</clus>
<clus scale="   92.135">  1  6  2 -1</clus>
<clus scale="   60.225">  2  3  1 -1</clus>
</clustering>
</event>
<event>
 6    0  0.1230761E+002  0.2523445E+03  0.7546771E-02  0.1111832E+00
         21   -1    0    0  503  502  0.00000000000E+00  0.00000000000E+00  0.22306560911E+04  0.22306560911E+04  0.00000000000E+00 0. -1.
          2   -1    0    0  504    0 -0.00000000000E+00 -0.00000000000E+00 -0.20073223405E+03  0.20073223405E+03  0.00000000000E+00 0. -1.
         21    1    1    2  503  501 -0.20922746264E+02  0.29553350916E+03  0.18508320064E+04  0.18743950843E+04  0.00000000000E+00 0. -1.
         21    1    1    2  504  505  0.11976635536E+03 -0.18578181484E+03  0.64077162030E+02  0.23014070760E+03  0.00000000000E+00 0. -1.
         21    1    1    2  505  502 -0.82799873880E+01 -0.41850660347E+02  0.18759829793E+03  0.19238803848E+03  0.00000000000E+00 0. -1.
          2    1    1    2  501    0 -0.90563621709E+02 -0.67901033974E+02 -0.72583609332E+02  0.13446449470E+03  0.00000000000E+00 0. -1.
<scales pt_clust_3="14000.00000" pt_clust_4="252.34445" pt_clust_5="42.66188" pt_clust_6="113.67343"></scales>
<clustering>
<clus scale="   42.662">  1  5  2 -1</clus>
<clus scale="  113.673">  2  6  1 -1</clus>
<clus scale="  252.344">  2  4  1 -1</clus>
<clus scale="   42.662">  1  3  2 -1</clus>
</clustering>
</event>
<event>
 6    0  0.1230761E+002  0.1536010E+03  0.7546771E-02  0.1196117E+00
         21   -1    0    0  503  502  0.00000000000E+00  0.00000000000E+00  0.10390285371E+03  0.10390285371E+03  0.00000000000E+00 0. -1.
          1   -1    0    0  504    0 -0.00000000000E+00 -0.00000000000E+00 -0.16010170965E+04  0.16010170965E+04  0.00000000000E+00 0. -1.
         21    1    1    2  503  501  0.85749154290E+02 -0.82423200306E+02  0.39879122347E+02  0.12544658548E+03  0.00000000000E+00 0. -1.
         21    1    1    2  504  505  0.28495433836E+02 -0.28798782431E+02 -0.14542960817E+03  0.15096731617E+03  0.00000000000E+00 0.  1.
         21    1    1    2  505  502 -0.78012815542E+01 -0.50582600307E+02 -0.45197934263E+02  0.68281129966E+02  0.00000000000E+00 0. -1.
          1    1    1    2  501    0 -0.10644330657E+03  0.16180458304E+03 -0.13463658227E+04  0.13602249186E+04  0.00000000000E+00 0. -1.
<scales pt_clust_3="14000.00000" pt_clust_4="40.51370" pt_clust_5="52.13811" pt_clust_6="153.60104"></scales>
<clustering>
<clus scale="   40.514">  2  4  1 -1</clus>
<clus scale="   52.138">  1  5  2 -1</clus>
<clus scale="  153.601">  2  6  1 -1</clus>
<clus scale="   52.138">  1  3  2 -1</clus>
</clustering>
</event>
<event>
 6    0  0.1230761E+002  0.7051867E+02  0.7546771E-02  0.1358338E+00
          2   -1    0    0  503    0 -0.00000000000E+00  0.00000000000E+00  0.12227240361E+04  0.12227240361E+04  0.00000000000E+00 0.  1.
         21   -1    0    0  505  502  0.00000000000E+00 -0.00000000000E+00 -0.42098884120E+02  0.42098884120E+02  0.00000000000E+00 0. -1.
         21    1    1    2  503  504 -0.12177105969E+03  0.14210546880E+02  0.73047249504E+03  0.74068900129E+03  0.00000000000E+00 0.  1.
         21    1    1    2  504  502  0.13998702525E+02 -0.38561686123E+02  0.24767366669E+02  0.47920661105E+02  0.00000000000E+00 0. -1.
         21    1    1    2  505  501  0.52780568762E+02  0.42949303423E+02  0.26339662246E+02  0.72967176940E+02  0.00000000000E+00 0. -1.
          2    1    1    2  501    0  0.54991788406E+02 -0.18598164180E+02  0.39904562802E+03  0.40324608088E+03  0.00000000000E+00 0.  1.
<scales pt_clust_3="14000.00000" pt_clust_4="41.02398" pt_clust_5="70.51867" pt_clust_6="59.85479"></scales>
<clustering>
<clus scale="   41.024">  2  4  1 -1</clus>
<clus scale="   59.855">  1  6  2 -1</clus>
<clus scale="   70.519">  2  5  1 -1</clus>
<clus scale="   41.024">  2  3  1 -1</clus>
</clustering>
</event>
<event>
 6    0  0.1230761E+002  0.1359906E+03  0.7546771E-02  0.1218828E+00
         21   -1    0    0  503  502  0.00000000000E+00  0.00000000000E+00  0.33225931496E+03  0.33225931496E+03  0.00000000000E+00 0.  1.
          2   -1    0    0  505    0 -0.00000000000E+00 -0.00000000000E+00 -0.20666316065E+03  0.20666316065E+03  0.00000000000E+00 0. -1.
         21    1    1    2  503  504 -0.75894079143E+02  0.31972149637E+02  0.57790421740E+02  0.10060746715E+03  0.00000000000E+00 0. -1.
         21    1    1    2  504  501  0.23332166112E+01  0.10406892454E+03  0.17039456975E+03  0.19967497178E+03  0.00000000000E+00 0.  1.
         21    1    1    2  505  502  0.64613355160E+02  0.11025293455E+02 -0.49081375511E+02  0.81886654485E+02  0.00000000000E+00 0.  1.
          2    1    1    2  501    0  0.89475073716E+01 -0.14706636763E+03 -0.53507461668E+02  0.15675338220E+03  0.00000000000E+00 0. -1.
<scales pt_clust_3="74.16610" pt_clust_4="135.99057" pt_clust_5="65.54726" pt_clust_6="14000.00000"></scales>
<clustering>
<clus scale="   65.547">  2  5  1 -1</clus>
<clus scale="   74.166">  1  3  2 -1</clus>
<clus scale="  135.991">  1  4  2 -1</clus>
<clus scale="   74.166">  1  3  2 -1</clus>
</clustering>
</event>
<event>
 6    0  0.1230761E+002  0.7711609E+02  0.7546771E-02  0.1337441E+00
         -4   -1    0    0    0  501 -0.00000000000E+00  0.00000000000E+00  0.12059695930E+04  0.12059695930E+04  0.00000000000E+00 0. -1.
         21   -1    0    0  504  502  0.00000000000E+00 -0.00000000000E+00 -0.54142438911E+03  0.54142438911E+03  0.00000000000E+00 0. -1.
         21    1    1    2  503  505  0.70409615200E+02 -0.61523584660E+02 -0.89151907280E+02  0.12919260023E+03  0.00000000000E+00 0.  1.
         21    1    1    2  504  503  0.61967787046E+01  0.55154512814E+02 -0.42599387260E+03  0.42959422696E+03  0.00000000000E+00 0. -1.
         21    1    1    2  505  501  0.16112970362E+02  0.40874070807E+02  0.26984335744E+03  0.27339669902E+03  0.00000000000E+00 0.  1.
         -4    1    1    2    0  502 -0.92719364267E+02 -0.34504998961E+02  0.90984762636E+03  0.91521045593E+03  0.00000000000E+00 0. -1.
<scales pt_clust_3="77.11609" pt_clust_4="55.58326" pt_clust_5="43.93538" pt_clust_6="14000.00000"></scales>
<clustering>
<clus scale="   43.935">  1  5  2 -1</clus>
<clus scale="   55.583">  2  4  1 -1</clus>
<clus scale="   77.116">  2  3  1 -1</clus>
<clus scale="   55.583">  2  3  1 -1</clus>
</clustering>
</event>
<event>
 6    0  0.1230761E+002  0.1116181E+03  0.7546771E-02  0.1257602E+00
         21   -1    0    0  503  502  0.00000000000E+00  0.00000000000E+00  0.35810295160E+03  0.35810295160E+03  0.00000000000E+00 0. -1.
         -3   -1    0    0    0  501 -0.00000000000E+00 -0.00000000000E+00 -0.20084731751E+03  0.20084731751E+03  0.00000000000E+00 0. -1.
         21    1    1    2  503  505 -0.71240555820E+02  0.13559201913E+02  0.66691586518E+02  0.98523278784E+02  0.00000000000E+00 0. -1.
         21    1    1    2  504  502 -0.59544568218E+02  0.43260335107E+01  0.23062210999E+03  0.23822432241E+03  0.00000000000E+00 0. -1.
         21    1    1    2  505  501  0.16652215311E+02  0.39224239018E+02 -0.20347248371E+02  0.47221263405E+02  0.00000000000E+00 0. -1.
         -3    1    1    2    0  504  0.11413290873E+03 -0.57109474441E+02 -0.11971081405E+03  0.17498140452E+03  0.00000000000E+00 0. -1.
<scales pt_clust_3="14000.00000" pt_clust_4="59.39538" pt_clust_5="42.61264" pt_clust_6="111.61815"></scales>
<clustering>
<clus scale="   42.613">  2  5  1 -1</clus>
<clus scale="   59.395">  1  4  2 -1</clus>
<clus scale="  111.618">  2  6  1 -1</clus>
<clus scale="   59.395">  1  3  2 -1</clus>
</clustering>
</event>
<event>
 6    0  0.1230761E+002  0.6310919E+02  0.7546771E-02  0.1385228E+00
         21   -1    0    0  505  502  0.00000000000E+00  0.00000000000E+00  0.22825548958E+02  0.22825548958E+02  0.00000000000E+00 0.  1.
          1   -1    0    0  504    0 -0.00000000000E+00 -0.00000000000E+00 -0.19539708757E+04  0.19539708757E+04  0.00000000000E+00 0.  1.
         21    1    1    2  503  502  0.48843145369E+02 -0.59528790905E+02 -0.80168756040E+02  0.11115916175E+03  0.00000000000E+00 0.  1.
         21    1    1    2  504  503  0.58281124937E+02 -0.16937773732E+02 -0.46019475023E+03  0.46417969133E+03  0.00000000000E+00 0.  1.
         21    1    1    2  505  501 -0.33214027677E+02  0.53098414456E+01 -0.81582362110E+02  0.88244251134E+02  0.00000000000E+00 0. -1.
          1    1    1    2  501    0 -0.73910242630E+02  0.71156723191E+02 -0.13091994584E+04  0.13132133205E+04  0.00000000000E+00 0.  1.
<scales pt_clust_3="63.10919" pt_clust_4="57.28281" pt_clust_5="33.63579" pt_clust_6="14000.00000"></scales>
<clustering>
<clus scale="   33.636">  1  5  2 -1</clus>
<clus scale="   57.283">  2  4  1 -1</clus>
<clus scale="   63.109">  1  3  2 -1</clus>
<clus scale="   33.636">  1  3  2 -1</clus>
</clustering>
</event>
<event>
 6    0  0.1230761E+002  0.8423189E+02  0.7546771E-02  0.1317454E+00
         21   -1    0    0  505  502  0.00000000000E+00  0.00000000000E+00  0.37138700266E+03  0.37138700266E+03  0.00000000000E+00 0. -1.
          2   -1    0    0  504    0 -0.00000000000E+00 -0.00000000000E+00 -0.31934536206E+03  0.31934536206E+03  0.00000000000E+00 0.  1.
         21    1    1    2  503  502 -0.15654839805E+02 -0.66937323132E+02  0.21985764594E+03  0.23035421358E+03  0.00000000000E+00 0. -1.
         21    1    1    2  504  503  0.90141318755E+01 -0.60784950358E+02 -0.47946119571E+02  0.77941613695E+02  0.00000000000E+00 0. -1.
         21    1    1    2  505  501  0.34546364060E+02  0.31841668208E+02  0.11661990983E+03  0.12572806557E+03  0.00000000000E+00 0. -1.
          2    1    1    2  501    0 -0.27905656130E+02  0.95880605283E+02 -0.23648979559E+03  0.25670847187E+03  0.00000000000E+00 0.  1.
<scales pt_clust_3="41.28090" pt_clust_4="84.23189" pt_clust_5="46.98237" pt_clust_6="14000.00000"></scales>
<clustering>
<clus scale="   46.982">  1  5  2 -1</clus>
<clus scale="   41.281">  1  3  2 -1</clus>
<clus scale="   84.232">  1  4  2 -1</clus>
<clus scale="   46.982">  1  3  2 -1</clus>
</clustering>
</event>
<event>
 6    0  0.1230761E+002  0.3105737E+03  0.7546771E-02  0.1080071E+00
          2   -1    0    0  503    0 -0.00000000000E+00  0.00000000000E+00  0.18730245678E+04  0.18730245678E+04  0.00000000000E+00 0.  1.
         21   -1    0    0  505  502  0.00000000000E+00 -0.00000000000E+00 -0.10716546579E+03  0.10716546579E+03  0.00000000000E+00 0.  1.
         21    1    1    2  503  502  0.71907644107E+01  0.81695976938E+02  0.18505757576E+03  0.20241602231E+03  0.00000000000E+00 0. -1.
         21    1    1    2  504  501 -0.12265254590E+03 -0.28419002066E+02  0.64655934617E+02  0.14153330553E+03  0.00000000000E+00 0.  1.
         21    1    1    2  505  504 -0.10968188006E+03 -0.15809309221E+03  0.14023102489E+03  0.23809300906E+03  0.00000000000E+00 0.  1.
          2    1    1    2  501    0  0.22514366155E+03  0.10481611734E+03  0.13759145667E+04  0.13981476967E+04  0.00000000000E+00 0.  1.
<scales pt_clust_3="82.01183" pt_clust_4="94.97653" pt_clust_5="94.97653" pt_clust_6="288.24396"></scales>
<clustering>
<clus scale="   82.012">  1  3  2 -1</clus>
<clus scale="   94.977">  4  5 -1 -1</clus>
<clus scale="  288.244">  1  6  2 -1</clus>
<clus scale="  310.574">  2  3  1 -1</clus>
</clustering>
</event>
<event>
 6    0  0.1230761E+002  0.7426018E+02  0.7546771E-02  0.1346177E+00
          1   -1    0    0  503    0 -0.00000000000E+00  0.00000000000E+00  0.32700046944E+03  0.32700046944E+03  0.00000000000E+00 0. -1.
         21   -1    0    0  505  502  0.00000000000E+00 -0.00000000000E+00 -0.28166755823E+03  0.28166755823E+03  0.00000000000E+00 0. -1.
         21    1    1    2  503  504 -0.49175849721E+02  0.32153693555E+02  0.20902837398E+02  0.62362270776E+02  0.00000000000E+00 0.  1.
         21    1    1    2  504  502  0.23419297933E+02 -0.40273432163E+02 -0.19270334546E+02  0.50415857102E+02  0.00000000000E+00 0. -1.
         21    1    1    2  505  501 -0.79115301474E+02  0.72304862287E+02 -0.19775479450E+03  0.22493150688E+03  0.00000000000E+00 0. -1.
          1    1    1    2  501    0  0.10487185326E+03 -0.64185123679E+02  0.24145520285E+03  0.27095839292E+03  0.00000000000E+00 0. -1.
<scales pt_clust_3="55.28539" pt_clust_4="46.58769" pt_clust_5="74.26018" pt_clust_6="14000.00000"></scales>
<clustering>
<clus scale="   46.588">  2  4  1 -1</clus>
<clus scale="   55.285">  1  3  2 -1</clus>
<clus scale="   74.260">  2  5  1 -1</clus>
<clus scale="   46.588">  2  3  1 -1</clus>
</clustering>
</event>
<event>
 6    0  0.1230761E+002  0.1370461E+03  0.7546771E-02  0.1217360E+00
          1   -1    0    0  505    0 -0.00000000000E+00  0.00000000000E+00  0.55716220089E+03  0.55716220089E+03  0.00000000000E+00 0. -1.
         21   -1    0    0  504  502  0.00000000000E+00 -0.00000000000E+00 -0.60233605724E+03  0.60233605724E+03  0.00000000000E+00 0.  1.
         21    1    1    2  503  501 -0.36160317020E+02 -0.28795293178E+02 -0.18003267810E+02  0.49607006441E+02  0.00000000000E+00 0.  1.
         21    1    1    2  504  503 -0.11068472018E+02 -0.37992212016E+02 -0.49936475547E+03  0.50093021295E+03  0.00000000000E+00 0.  1.
         21    1    1    2  505  502 -0.97129414191E+02  0.62649030148E+02  0.42469607660E+00  0.11558202475E+03  0.00000000000E+00 0.  1.
          1    1    1    2  501    0  0.14435820323E+03  0.41384750466E+01  0.47176947085E+03  0.49337901399E+03  0.00000000000E+00 0. -1.
<scales pt_clust_3="57.41712" pt_clust_4="39.57170" pt_clust_5="137.04611" pt_clust_6="14000.00000"></scales>
<clustering>
<clus scale="   39.572">  2  4  1 -1</clus>
<clus scale="   57.417">  2  3  1 -1</clus>
<clus scale="  137.046">  2  5  1 -1</clus>
<clus scale="   39.572">  2  3  1 -1</clus>
</clustering>
</event>
<event>
 6    0  0.1230761E+002  0.1991252E+03  0.7546771E-02  0.1150479E+00
          2   -1    0    0  505    0 -0.00000000000E+00  0.00000000000E+00  0.36609911879E+03  0.36609911879E+03  0.00000000000E+00 0.  1.
         21   -1    0    0  504  502  0.00000000000E+00 -0.00000000000E+00 -0.71911336883E+03  0.71911336883E+03  0.00000000000E+00 0.  1.
         21    1    1    2  503  501 -0.81245979930E+02 -0.32462000424E+02 -0.22620457625E+03  0.24253494808E+03  0.00000000000E+00 0.  1.
         21    1    1    2  504  503 -0.96324382556E+02 -0.50732320260E+02 -0.42186894783E+03  0.43568975675E+03  0.00000000000E+00 0.  1.
         21    1    1    2  505  502 -0.19107419006E+02  0.80276372270E+02  0.71216895623E+02  0.10900108086E+03  0.00000000000E+00 0.  1.
          2    1    1    2  501    0  0.19667778149E+03  0.29179484134E+01  0.22384237841E+03  0.29798670193E+03  0.00000000000E+00 0.  1.
<scales pt_clust_3="35.14467" pt_clust_4="35.14467" pt_clust_5="82.51902" pt_clust_6="195.22782"></scales>
<clustering>
<clus scale="   35.145">  3  4 -1 -1</clus>
<clus scale="   82.519">  1  5  2 -1</clus>
<clus scale="  195.228">  1  6  2 -1</clus>
<clus scale="  199.125">  2  3  1 -1</clus>
</clustering>
</event>
<event>
 6    0  0.1230761E+002  0.1599631E+03  0.7546771E-02  0.1188738E+00
         21   -1    0    0  505  502  0.00000000000E+00  0.00000000000E+00  0.65039419172E+02  0.65039419172E+02  0.00000000000E+00 0.  1.
          1   -1    0    0  503    0 -0.00000000000E+00 -0.00000000000E+00 -0.25622687546E+04  0.25622687546E+04  0.00000000000E+00 0.  1.
         21    1    1    2  503  504  0.38283109754E+02  0.37663370045E+02 -0.32161369671E+03  0.32606670460E+03  0.00000000000E+00 0.  1.
         21    1    1    2  504  502 -0.15719613838E+03  0.19134830236E+01 -0.61031496014E+02  0.16863905492E+03  0.00000000000E+00 0.  1.
         21    1    1    2  505  501 -0.16660973746E+01  0.33727040579E+02 -0.36469642914E+02  0.49702354078E+02  0.00000000000E+00 0. -1.
          1    1    1    2  501    0  0.12057912600E+03 -0.73303893648E+02 -0.20781144998E+04  0.20829000602E+04  0.00000000000E+00 0.  1.
<scales pt_clust_3="54.56868" pt_clust_4="159.96313" pt_clust_5="33.76817" pt_clust_6="14000.00000"></scales>
<clustering>
<clus scale="   33.768">  1  5  2 -1</clus>
<clus scale="   54.569">  2  3  1 -1</clus>
<clus scale="  159.963">  1  4  2 -1</clus>
<clus scale="   33.768">  1  3  2 -1</clus>
</clustering>
</event>
<event>
 6    0  0.1230761E+002  0.9168279E+02  0.7546771E-02  0.1298827E+00
         21   -1    0    0  503  502  0.00000000000E+00  0.00000000000E+00  0.11533402060E+03  0.11533402060E+03  0.00000000000E+00 0. -1.
          2   -1    0    0  504    0 -0.00000000000E+00 -0.00000000000E+00 -0.83650993896E+03  0.83650993896E+03  0.00000000000E+00 0. -1.
         21    1    1    2  503  501 -0.94027846799E+02 -0.87452391857E+02  0.44138690836E+02  0.13578431737E+03  0.00000000000E+00 0. -1.
         21    1    1    2  504  505 -0.40505912981E+02  0.31199555219E+02 -0.69191721765E+02  0.86032758837E+02  0.00000000000E+00 0.  1.
         21    1    1    2  505  502  0.38346288830E+02  0.20997944801E+02 -0.23475667028E+02  0.49623164907E+02  0.00000000000E+00 0.  1.
          2    1    1    2  501    0  0.96187470949E+02  0.35254891837E+02 -0.67264722041E+03  0.68040371845E+03  0.00000000000E+00 0. -1.
<scales pt_clust_3="91.68279" pt_clust_4="49.79147" pt_clust_5="43.71901" pt_clust_6="14000.00000"></scales>
<clustering>
<clus scale="   43.719">  1  5  2 -1</clus>
<clus scale="   49.791">  2  4  1 -1</clus>
<clus scale="   91.683">  1  3  2 -1</clus>
<clus scale="   43.719">  1  3  2 -1</clus>
</clustering>
</event>
<event>
 6    0  0.1230761E+002  0.1214854E+03  0.7546771E-02  0.1240667E+00
          1   -1    0    0  504    0 -0.00000000000E+00  0.00000000000E+00  0.25463106913E+04  0.25463106913E+04  0.00000000000E+00 0.  1.
         21   -1    0    0  503  502  0.00000000000E+00 -0.00000000000E+00 -0.65755764310E+03  0.65755764310E+03  0.00000000000E+00 0. -1.
         21    1    1    2  503  505 -0.48089860328E+02 -0.28274862839E+02 -0.45251771847E+03  0.45594340445E+03  0.00000000000E+00 0. -1.
         21    1    1    2  504  502 -0.23293764093E+02  0.97777831069E+02  0.22441595745E+03  0.24589759180E+03  0.00000000000E+00 0.  1.
         21    1    1    2  505  501 -0.70529661178E+02 -0.11483242833E+02 -0.18331672260E+03  0.19675192186E+03  0.00000000000E+00 0. -1.
          1    1    1    2  501    0  0.14191328560E+03 -0.58019725396E+02  0.23001715318E+04  0.23052754163E+04  0.00000000000E+00 0.  1.
<scales pt_clust_3="55.78622" pt_clust_4="99.68977" pt_clust_5="14000.00000" pt_clust_6="121.48536"></scales>
<clustering>
<clus scale="   55.786">  2  3  1 -1</clus>
<clus scale="   99.690">  1  4  2 -1</clus>
<clus scale="  121.485">  1  6  2 -1</clus>
<clus scale="   55.786">  2  3  1 -1</clus>
</clustering>
</event>
<event>
 6    0  0.1230761E+002  0.1886893E+03  0.7546771E-02  0.1159649E+00
         21   -1    0    0  504  502  0.00000000000E+00  0.00000000000E+00  0.20906909094E+04  0.20906909094E+04  0.00000000000E+00 0. -1.
          2   -1    0    0  505    0 -0.00000000000E+00 -0.00000000000E+00 -0.62837191805E+03  0.62837191805E+03  0.00000000000E+00 0.  1.
         21    1    1    2  503  502  0.19585357818E+02 -0.39854484816E+02  0.85163965019E+02  0.96046171910E+02  0.00000000000E+00 0. -1.
         21    1    1    2  504  501 -0.19927671234E+03 -0.15041075848E+02  0.19051581165E+04  0.19156108401E+04  0.00000000000E+00 0. -1.
         21    1    1    2  505  503  0.65199124692E+01 -0.11599257233E+03  0.10344977187E+02  0.11663534904E+03  0.00000000000E+00 0. -1.
          2    1    1    2  501    0  0.17317144205E+03  0.17088813299E+03 -0.53834806732E+03  0.59077046637E+03  0.00000000000E+00 0.  1.
<scales pt_clust_3="44.40683" pt_clust_4="188.68931" pt_clust_5="117.47498" pt_clust_6="14000.00000"></scales>
<clustering>
<clus scale="   44.407">  1  3  2 -1</clus>
<clus scale="  117.475">  2  5  1 -1</clus>
<clus scale="  188.689">  1  4  2 -1</clus>
<clus scale="   44.407">  1  3  2 -1</clus>
</clustering>
</event>
<event>
 6    0  0.1230761E+002  0.8282708E+02  0.7546771E-02  0.1321215E+00
          3   -1    0    0  503    0 -0.00000000000E+00  0.00000000000E+00  0.15109795518E+03  0.15109795518E+03  0.00000000000E+00 0. -1.
         21   -1    0    0  504  502  0.00000000000E+00 -0.00000000000E+00 -0.83966769235E+03  0.83966769235E+03  0.00000000000E+00 0. -1.
         21    1    1    2  503  505  0.29441957831E+02  0.85671161397E+01 -0.82021734107E+01  0.31741140630E+02  0.00000000000E+00 0.  1.
         21    1    1    2  504  501 -0.23463529645E+02 -0.10152431049E+03 -0.17597370710E+03  0.20451031376E+03  0.00000000000E+00 0. -1.
         21    1    1    2  505  502  0.64999978949E+02  0.50616270685E+02 -0.61273469770E+03  0.61824818147E+03  0.00000000000E+00 0. -1.
          3    1    1    2  501    0 -0.70978407134E+02  0.42340923670E+02  0.10834084105E+03  0.13626601166E+03  0.00000000000E+00 0. -1.
<scales pt_clust_3="30.66308" pt_clust_4="82.82708" pt_clust_5="14000.00000" pt_clust_6="67.25491"></scales>
<clustering>
<clus scale="   30.663">  1  3  2 -1</clus>
<clus scale="   67.255">  1  6  2 -1</clus>
<clus scale="   82.827">  1  4  2 -1</clus>
<clus scale="   82.827">  2  3  1 -1</clus>
</clustering>
</event>
<event>
 6    0  0.1230761E+002  0.1837436E+03  0.7546771E-02  0.1164228E+00
         21   -1    0    0  505  502  0.00000000000E+00  0.00000000000E+00  0.50436286577E+03  0.50436286577E+03  0.00000000000E+00 0. -1.
          2   -1    0    0  504    0 -0.00000000000E+00 -0.00000000000E+00 -0.93225281349E+03  0.93225281349E+03  0.00000000000E+00 0. -1.
         21    1    1    2  503  501  0.70591550367E+02 -0.73918677171E+01 -0.22692313747E+03  0.23776441494E+03  0.00000000000E+00 0.  1.
         21    1    1    2  504  502 -0.57963254429E+02  0.60095386052E+02  0.33892585097E+03  0.34905862938E+03  0.00000000000E+00 0. -1.
         21    1    1    2  505  503 -0.11896002118E+03 -0.66015015495E+02  0.11990644746E+03  0.18134780135E+03  0.00000000000E+00 0. -1.
          2    1    1    2  501    0  0.10633172524E+03  0.13311497161E+02 -0.65979910867E+03  0.66844483359E+03  0.00000000000E+00 0. -1.
<scales pt_clust_3="48.84395" pt_clust_4="83.49368" pt_clust_5="173.66558" pt_clust_6="48.84395"></scales>
<clustering>
<clus scale="   48.844">  3  6 -1 -1</clus>
<clus scale="   83.494">  1  4  2 -1</clus>
<clus scale="  173.666">  1  5  2 -1</clus>
<clus scale="   83.494">  1  3  2 -1</clus>
</clustering>
</event>
<event>
 6    0  0.1230761E+002  0.9933193E+02  0.7546771E-02  0.1281707E+00
         -2   -1    0    0    0  501 -0.00000000000E+00  0.00000000000E+00  0.24097205790E+03  0.24097205790E+03  0.00000000000E+00 0. -1.
         21   -1    0    0  504  502  0.00000000000E+00 -0.00000000000E+00 -0.10484862988E+04  0.10484862988E+04  0.00000000000E+00 0.  1.
         21    1    1    2  503  502 -0.25610263163E+01 -0.13127710912E+03 -0.41828487379E+03  0.43840902577E+03  0.00000000000E+00 0.  1.
         21    1    1    2  504  505 -0.70131814168E+02  0.61977135368E+02 -0.57709215547E+03  0.58463235676E+03  0.00000000000E+00 0.  1.
         21    1    1    2  505  501  0.44715345777E+02 -0.23034549926E+02 -0.52215101114E+01  0.50569919973E+02  0.00000000000E+00 0. -1.
         -2    1    1    2    0  503  0.27977494707E+02  0.92334523679E+02  0.19308429849E+03  0.21584705418E+03  0.00000000000E+00 0. -1.
<scales pt_clust_3="99.33193" pt_clust_4="92.75107" pt_clust_5="50.29963" pt_clust_6="14000.00000"></scales>
<clustering>
<clus scale="   50.300">  1  5  2 -1</clus>
<clus scale="   92.751">  2  4  1 -1</clus>
<clus scale="   99.332">  2  3  1 -1</clus>
<clus scale="   92.751">  2  3  1 -1</clus>
</clustering>
</event>
<event>
 6    0  0.1230761E+002  0.8394349E+02  0.7546771E-02  0.1318219E+00
         21   -1    0    0  505  502  0.00000000000E+00  0.00000000000E+00  0.17898636396E+03  0.17898636396E+03  0.00000000000E+00 0. -1.
         -1   -1    0    0    0  501 -0.00000000000E+00 -0.00000000000E+00 -0.63835947102E+03  0.63835947102E+03  0.00000000000E+00 0.  1.
         21    1    1    2  503  504  0.53236095087E+02  0.25149418952E+02 -0.10797438411E+03  0.12298391244E+03  0.00000000000E+00 0.  1.
         21    1    1    2  504  502  0.21756583098E+01 -0.80576353827E+02  0.71426798702E+02  0.10769897798E+03  0.00000000000E+00 0. -1.
         21    1    1    2  505  501 -0.75807020405E+02  0.54146704450E+01  0.62464842415E+02  0.98376214283E+02  0.00000000000E+00 0. -1.
         -1    1    1    2    0  503  0.20395267008E+02  0.50012264430E+02 -0.48529036407E+03  0.48828673028E+03  0.00000000000E+00 0.  1.
<scales pt_clust_3="14000.00000" pt_clust_4="83.94349" pt_clust_5="74.26175" pt_clust_6="54.01105"></scales>
<clustering>
<clus scale="   54.011">  2  6  1 -1</clus>
<clus scale="   74.262">  1  5  2 -1</clus>
<clus scale="   83.943">  1  4  2 -1</clus>
<clus scale="   74.262">  1  3  2 -1</clus>
</clustering>
</event>
<event>
 6    0  0.1230761E+002  0.2107676E+03  0.7546771E-02  0.1140960E+00
         21   -1    0    0  504  502  0.00000000000E+00  0.00000000000E+00  0.32173129188E+03  0.32173129188E+03  0.00000000000E+00 0. -1.
          1   -1    0    0  502    0 -0.00000000000E+00 -0.00000000000E+00 -0.65037839850E+03  0.65037839850E+03  0.00000000000E+00 0. -1.
         21    1    1    2  503  505 -0.37312442707E+02  0.37719195628E+02  0.97088998612E+02  0.11064009107E+03  0.00000000000E+00 0. -1.
         21    1    1    2  504  503  0.45698249477E+02 -0.23496706311E+01  0.11346410175E+03  0.12234358726E+03  0.00000000000E+00 0. -1.
         21    1    1    2  505  501 -0.11202551897E+03  0.15505553895E+03 -0.40770657769E+02  0.19558676743E+03  0.00000000000E+00 0. -1.
          1    1    1    2  501    0  0.10363971220E+03 -0.19042506395E+03 -0.49842954921E+03  0.54353924462E+03  0.00000000000E+00 0. -1.
<scales pt_clust_3="39.12255" pt_clust_4="45.75862" pt_clust_5="14000.00000" pt_clust_6="210.76760"></scales>
<clustering>
<clus scale="   45.759">  1  4  2 -1</clus>
<clus scale="   39.123">  1  3  2 -1</clus>
<clus scale="  210.768">  2  6  1 -1</clus>
<clus scale="   45.759">  1  3  2 -1</clus>
</clustering>
</event>
<event>
 6    0  0.1230761E+002  0.1336660E+03  0.7546771E-02  0.1222115E+00
         21   -1    0    0  503  502  0.00000000000E+00  0.00000000000E+00  0.32602756467E+03  0.32602756467E+03  0.00000000000E+00 0.  1.
          2   -1    0    0  504    0 -0.00000000000E+00 -0.00000000000E+00 -0.46645658402E+03  0.46645658402E+03  0.00000000000E+00 0.  1.
         21    1    1    2  503  505 -0.19621350546E+02  0.67751270138E+02  0.17332547657E+03  0.18712817220E+03  0.00000000000E+00 0.  1.
         21    1    1    2  504  502 -0.44429120145E+02  0.10521773048E+02 -0.12083781735E+03  0.12917597504E+03  0.00000000000E+00 0.  1.
         21    1    1    2  505  501  0.24650194877E+02  0.56825623413E+02  0.11890613497E+03  0.13407256438E+03  0.00000000000E+00 0.  1.
          2    1    1    2  501    0  0.39400275813E+02 -0.13509866660E+03 -0.31182281355E+03  0.34210743707E+03  0.00000000000E+00 0.  1.
<scales pt_clust_3="44.21218" pt_clust_4="45.65802" pt_clust_5="44.21218" pt_clust_6="125.06276"></scales>
<clustering>
<clus scale="   44.212">  3  5 -1 -1</clus>
<clus scale="   45.658">  2  4  1 -1</clus>
<clus scale="  125.063">  2  6  1 -1</clus>
<clus scale="  133.666">  1  3  2 -1</clus>
</clustering>
</event>
<event>
 6    0  0.1230761E+002  0.1694396E+03  0.7546771E-02  0.1178434E+00
          2   -1    0    0  504    0 -0.00000000000E+00  0.00000000000E+00  0.17664763132E+04  0.17664763132E+04  0.00000000000E+00 0. -1.
         21   -1    0    0  503  502  0.00000000000E+00 -0.00000000000E+00 -0.21703709831E+03  0.21703709831E+03  0.00000000000E+00 0. -1.
         21    1    1    2  503  501  0.11350774657E+03 -0.10760899640E+02  0.11046865501E+03  0.15875493452E+03  0.00000000000E+00 0. -1.
         21    1    1    2  504  505 -0.27110010492E+00  0.86563057992E+02  0.11506798316E+03  0.14399262916E+03  0.00000000000E+00 0. -1.
         21    1    1    2  505  502  0.94501101940E+02  0.47552591217E+02 -0.15201559807E+03  0.18520380465E+03  0.00000000000E+00 0. -1.
          2    1    1    2  501    0 -0.20773774841E+03 -0.12335474957E+03  0.14759181748E+04  0.14955620432E+04  0.00000000000E+00 0. -1.
<scales pt_clust_3="14000.00000" pt_clust_4="86.56348" pt_clust_5="106.18575" pt_clust_6="169.43958"></scales>
<clustering>
<clus scale="   86.563">  1  4  2 -1</clus>
<clus scale="  106.186">  2  5  1 -1</clus>
<clus scale="  169.440">  1  6  2 -1</clus>
<clus scale="  106.186">  2  3  1 -1</clus>
</clustering>
</event>
<event>
 6    0  0.1230761E+002  0.1069638E+03  0.7546771E-02  0.1266298E+00
         21   -1    0    0  505  502  0.00000000000E+00  0.00000000000E+00  0.20311424253E+03  0.20311424253E+03  0.00000000000E+00 0.  1.
          2   -1    0    0  504    0 -0.00000000000E+00 -0.00000000000E+00 -0.70952970681E+03  0.70952970681E+03  0.00000000000E+00 0. -1.
         21    1    1    2  503  501  0.78735458779E+02 -0.49134974107E+01  0.98275918088E+02  0.12602210521E+03  0.00000000000E+00 0.  1.
         21    1    1    2  504  502 -0.30363845233E+02 -0.45383255786E+02 -0.13392053471E+03  0.14462473032E+03  0.00000000000E+00 0.  1.
         21    1    1    2  505  503  0.19340483587E+02  0.62394017886E+02  0.70651967134E+02  0.96222493385E+02  0.00000000000E+00 0.  1.
          2    1    1    2  501    0 -0.67712097133E+02 -0.12097264689E+02 -0.54142281480E+03  0.54577462042E+03  0.00000000000E+00 0. -1.
<scales pt_clust_3="106.96380" pt_clust_4="54.60406" pt_clust_5="64.15031" pt_clust_6="14000.00000"></scales>
<clustering>
<clus scale="   54.604">  2  4  1 -1</clus>
<clus scale="   64.150">  1  5  2 -1</clus>
<clus scale="  106.964">  1  3  2 -1</clus>
<clus scale="   64.150">  1  3  2 -1</clus>
</clustering>
</event>
<event>
 6    0  0.1230761E+002  0.7743281E+02  0.7546771E-02  0.1336499E+00
         21   -1    0    0  501  502  0.00000000000E+00  0.00000000000E+00  0.11774106561E+04  0.11774106561E+04  0.00000000000E+00 0. -1.
          1   -1    0    0  503    0 -0.00000000000E+00 -0.00000000000E+00 -0.28670435412E+03  0.28670435412E+03  0.00000000000E+00 0.  1.
         21    1    1    2  503  504 -0.43242389577E+02 -0.23796125808E+02 -0.15560732507E+03  0.16324766300E+03  0.00000000000E+00 0.  1.
         21    1    1    2  504  505  0.90304849853E+02 -0.69581741287E+02  0.21018097498E+03  0.23910798162E+03  0.00000000000E+00 0. -1.
         21    1    1    2  505  502 -0.25366511056E+02  0.70877423276E+02  0.94525540790E+03  0.94824830881E+03  0.00000000000E+00 0. -1.
          1    1    1    2  501    0 -0.21695949220E+02  0.22500443818E+02 -0.10912275581E+03  0.11351105682E+03  0.00000000000E+00 0.  1.
<scales pt_clust_3="63.05274" pt_clust_4="77.43281" pt_clust_5="14000.00000" pt_clust_6="31.25675"></scales>
<clustering>
<clus scale="   31.257">  2  6  1 -1</clus>
<clus scale="   63.053">  2  3  1 -1</clus>
<clus scale="   77.433">  2  4  1 -1</clus>
<clus scale="   77.433">  1  3  2 -1</clus>
</clustering>
</event>
<event>
 6    0  0.1230761E+002  0.9586449E+02  0.7546771E-02  0.1289241E+00
         -2   -1    0    0    0  501 -0.00000000000E+00  0.00000000000E+00  0.14597823193E+03  0.14597823193E+03  0.00000000000E+00 0. -1.
         21   -1    0    0  505  502  0.00000000000E+00 -0.00000000000E+00 -0.12242932054E+04  0.12242932054E+04  0.00000000000E+00 0.  1.
         21    1    1    2  503  502 -0.16080225664E+02  0.30496385915E+02 -0.12457061427E+03  0.12925339899E+03  0.00000000000E+00 0. -1.
         21    1    1    2  504  501 -0.48501022397E+02  0.69503871626E+02  0.88077643699E+01  0.85209823716E+02  0.00000000000E+00 0. -1.
         21    1    1    2  505  504 -0.44324654796E+02 -0.62694614669E+02 -0.10229365394E+04  0.10258140443E+04  0.00000000000E+00 0.  1.
         -2    1    1    2    0  503  0.10890590286E+03 -0.37305642872E+02  0.60384415799E+02  0.12999417040E+03  0.00000000000E+00 0. -1.
<scales pt_clust_3="34.47613" pt_clust_4="14000.00000" pt_clust_5="68.49925" pt_clust_6="95.86449"></scales>
<clustering>
<clus scale="   34.476">  2  3  1 -1</clus>
<clus scale="   68.499">  2  5  1 -1</clus>
<clus scale="   95.864">  1  6  2 -1</clus>
<clus scale="   34.476">  2  3  1 -1</clus>
</clustering>
</event>
<event>
 6    0  0.1230761E+002  0.1768819E+03  0.7546771E-02  0.1170855E+00
         21   -1    0    0  501  502  0.00000000000E+00  0.00000000000E+00  0.67551998385E+03  0.67551998385E+03  0.00000000000E+00 0.  1.
          1   -1    0    0  505    0 -0.00000000000E+00 -0.00000000000E+00 -0.37300089063E+03  0.37300089063E+03  0.00000000000E+00 0.  1.
         21    1    1    2  503  502 -0.11631384737E+03 -0.44062003257E+02  0.44365552604E+03  0.46076088919E+03  0.00000000000E+00 0.  1.
         21    1    1    2  504  503 -0.49719111566E+02  0.14084369141E+02  0.17243097900E+03  0.18000778324E+03  0.00000000000E+00 0.  1.
         21    1    1    2  505  504 -0.28614932642E+02  0.36411905572E+02 -0.10471147576E+02  0.47479323595E+02  0.00000000000E+00 0.  1.
          1    1    1    2  501    0  0.19464789158E+03 -0.64342714554E+01 -0.30309626425E+03  0.36027287845E+03  0.00000000000E+00 0.  1.
<scales pt_clust_3="32.58921" pt_clust_4="32.58921" pt_clust_5="46.31027" pt_clust_6="169.50195"></scales>
<clustering>
<clus scale="   32.589">  3  4 -1 -1</clus>
<clus scale="   46.310">  2  5  1 -1</clus>
<clus scale="  169.502">  2  6  1 -1</clus>
<clus scale="  176.882">  1  3  2 -1</clus>
</clustering>
</event>
<event>
 6    0  0.1230761E+002  0.2380537E+03  0.7546771E-02  0.1121096E+00
          1   -1    0    0  504    0 -0.00000000000E+00  0.00000000000E+00  0.38684523232E+03  0.38684523232E+03  0.00000000000E+00 0.  1.
         21   -1    0    0  505  502  0.00000000000E+00 -0.00000000000E+00 -0.43653640869E+03  0.43653640869E+03  0.00000000000E+00 0.  1.
         21    1    1    2  503  501 -0.18483768805E+03  0.50338299964E+02 -0.21749089508E+03  0.28982961342E+03  0.00000000000E+00 0.  1.
         21    1    1    2  504  502  0.27385342704E+02 -0.42178434037E+02  0.17512252051E+03  0.18220009463E+03  0.00000000000E+00 0.  1.
         21    1    1    2  505  503 -0.43381190785E+02  0.33096315093E+01 -0.11516372021E+03  0.12310793568E+03  0.00000000000E+00 0.  1.
          1    1    1    2  501    0  0.20083353614E+03 -0.11469497436E+02  0.10784091842E+03  0.22824399728E+03  0.00000000000E+00 0.  1.
<scales pt_clust_3="33.34683" pt_clust_4="50.28894" pt_clust_5="33.34683" pt_clust_6="227.53728"></scales>
<clustering>
<clus scale="   33.347">  3  5 -1 -1</clus>
<clus scale="   50.289">  1  4  2 -1</clus>
<clus scale="  227.537">  1  6  2 -1</clus>
<clus scale="  238.054">  2  3  1 -1</clus>
</clustering>
</event>
<event>
 6    0  0.1230761E+002  0.2939925E+03  0.7546771E-02  0.1088283E+00
         21   -1    0    0  503  502  0.00000000000E+00  0.00000000000E+00  0.27615718828E+03  0.27615718828E+03  0.00000000000E+00 0. -1.
          2   -1    0    0  505    0 -0.00000000000E+00 -0.00000000000E+00 -0.48713045619E+03  0.48713045619E+03  0.00000000000E+00 0. -1.
         21    1    1    2  503  504  0.48222436447E+02 -0.54486288948E+01  0.46098532780E+02  0.66934039607E+02  0.00000000000E+00 0. -1.
         21    1    1    2  504  501  0.16429013687E+03  0.22768847254E+03 -0.90464813888E+02  0.29498673216E+03  0.00000000000E+00 0. -1.
         21    1    1    2  505  502 -0.30166468622E+02  0.22274357382E+02  0.21286544367E+02  0.43119366843E+02  0.00000000000E+00 0.  1.
          2    1    1    2  501    0 -0.18234610470E+03 -0.24451420103E+03 -0.18789353116E+03  0.35824750586E+03  0.00000000000E+00 0. -1.
<scales pt_clust_3="41.23485" pt_clust_4="14000.00000" pt_clust_5="37.49884" pt_clust_6="293.99249"></scales>
<clustering>
<clus scale="   37.499">  1  5  2 -1</clus>
<clus scale="   41.235">  1  3  2 -1</clus>
<clus scale="  293.992">  2  6  1 -1</clus>
<clus scale="   37.499">  1  3  2 -1</clus>
</clustering>
</event>
<event>
 6    0  0.1230761E+002  0.7713072E+02  0.7546771E-02  0.1337397E+00
         21   -1    0    0  501  502  0.00000000000E+00  0.00000000000E+00  0.72140600618E+02  0.72140600618E+02  0.00000000000E+00 0.  1.
          2   -1    0    0  503    0 -0.00000000000E+00 -0.00000000000E+00 -0.22986810230E+04  0.22986810230E+04  0.00000000000E+00 0. -1.
         21    1    1    2  503  505  0.81824952566E+01 -0.37638131710E+02 -0.11093107654E+03  0.11742779028E+03  0.00000000000E+00 0.  1.
         21    1    1    2  504  502  0.47155100297E+02  0.29747998485E+02  0.68366118439E+01  0.56171933912E+02  0.00000000000E+00 0.  1.
         21    1    1    2  505  504  0.24602805823E+02 -0.63563498422E+02  0.38091756441E+01  0.68265117045E+02  0.00000000000E+00 0.  1.
          2    1    1    2  501    0 -0.79940401377E+02  0.71453631647E+02 -0.21262551334E+04  0.21289567824E+04  0.00000000000E+00 0. -1.
<scales pt_clust_3="38.51730" pt_clust_4="55.60722" pt_clust_5="77.13072" pt_clust_6="14000.00000"></scales>
<clustering>
<clus scale="   38.517">  2  3  1 -1</clus>
<clus scale="   55.607">  1  4  2 -1</clus>
<clus scale="   77.131">  1  5  2 -1</clus>
<clus scale="   55.607">  1  3  2 -1</clus>
</clustering>
</event>
<event>
 6    0  0.1230761E+002  0.7428986E+02  0.7546771E-02  0.1346084E+00
         21   -1    0    0  505  502  0.00000000000E+00  0.00000000000E+00  0.10433510098E+03  0.10433510098E+03  0.00000000000E+00 0. -1.
          1   -1    0    0  503    0 -0.00000000000E+00 -0.00000000000E+00 -0.29452184203E+03  0.29452184203E+03  0.00000000000E+00 0.  1.
         21    1    1    2  503  504 -0.35738669626E+02  0.33144376399E+02 -0.89790469693E+02  0.10216717008E+03  0.00000000000E+00 0. -1.
         21    1    1    2  504  502 -0.73200349807E+02 -0.45567399983E+01  0.18645170041E+02  0.75674946034E+02  0.00000000000E+00 0. -1.
         21    1    1    2  505  501  0.13579336693E+02  0.32803302463E+02  0.20657699098E+02  0.41075486236E+02  0.00000000000E+00 0. -1.
          1    1    1    2  501    0  0.95359682740E+02 -0.61390938864E+02 -0.13969914049E+03  0.17993934067E+03  0.00000000000E+00 0.  1.
<scales pt_clust_3="49.86130" pt_clust_4="74.28986" pt_clust_5="35.50289" pt_clust_6="14000.00000"></scales>
<clustering>
<clus scale="   35.503">  1  5  2 -1</clus>
<clus scale="   49.861">  2  3  1 -1</clus>
<clus scale="   74.290">  1  4  2 -1</clus>
<clus scale="   35.503">  1  3  2 -1</clus>
</clustering>
</event>
<event>
 6    0  0.1741837E+002  0.1422982E+03  0.7546771E-02  0.1210270E+00
          1   -1    0    0  505    0 -0.00000000000E+00  0.00000000000E+00  0.61658399002E+03  0.61658399002E+03  0.00000000000E+00 0.  1.
         21   -1    0    0  504  502  0.00000000000E+00 -0.00000000000E+00 -0.95772120264E+03  0.95772120264E+03  0.00000000000E+00 0.  1.
         21    1    1    2  503  502 -0.80510350407E+01  0.10686146836E+03 -0.87175903022E+03  0.87832112541E+03  0.00000000000E+00 0.  1.
         21    1    1    2  504  501  0.30550581654E+02  0.33905390950E+02 -0.50106017870E+02  0.67775560504E+02  0.00000000000E+00 0.  1.
         21    1    1    2  505  503 -0.77046462958E+01  0.31036807737E+02  0.12404428481E+02  0.34300362315E+02  0.00000000000E+00 0.  1.
          1    1    1    2  501    0 -0.14794900318E+02 -0.17180366705E+03  0.56832340699E+03  0.59390814443E+03  0.00000000000E+00 0.  1.
<scales pt_clust_3="14000.00000" pt_clust_4="45.90722" pt_clust_5="31.97882" pt_clust_6="142.29822"></scales>
<clustering>
<clus scale="   31.979">  1  5  2 -1</clus>
<clus scale="   45.907">  2  4  1 -1</clus>
<clus scale="  142.298">  1  6  2 -1</clus>
<clus scale="   45.907">  2  3  1 -1</clus>
</clustering>
</event>
<event>
 6    0  0.1230761E+002  0.1523460E+03  0.7546771E-02  0.1197619E+00
         21   -1    0    0  505  502  0.00000000000E+00  0.00000000000E+00  0.38000234279E+03  0.38000234279E+03  0.00000000000E+00 0.  1.
          2   -1    0    0  503    0 -0.00000000000E+00 -0.00000000000E+00 -0.62095521994E+03  0.62095521994E+03  0.00000000000E+00 0.  1.
         21    1    1    2  503  504 -0.41244830670E+02  0.99662064603E+02 -0.12644654002E+03  0.16619985157E+03  0.00000000000E+00 0. -1.
         21    1    1    2  504  502  0.80130238120E+01  0.29130852507E+02  0.48796637334E+01  0.30604349961E+02  0.00000000000E+00 0.  1.
         21    1    1    2  505  501  0.14767075796E+03 -0.34086620779E+02  0.31256764333E+03  0.34737167721E+03  0.00000000000E+00 0.  1.
          2    1    1    2  501    0 -0.11443895110E+03 -0.94706296331E+02 -0.43195364419E+03  0.45678168399E+03  0.00000000000E+00 0.  1.
<scales pt_clust_3="109.17296" pt_clust_4="30.21283" pt_clust_5="152.34605" pt_clust_6="14000.00000"></scales>
<clustering>
<clus scale="   30.213">  1  4  2 -1</clus>
<clus scale="  109.173">  2  3  1 -1</clus>
<clus scale="  152.346">  1  5  2 -1</clus>
<clus scale="   30.213">  1  3  2 -1</clus>
</clustering>
</event>
<event>
 6    0  0.1230761E+002  0.1018101E+03  0.7546771E-02  0.1276535E+00
          2   -1    0    0  503    0 -0.00000000000E+00  0.00000000000E+00  0.18926298731E+04  0.18926298731E+04  0.00000000000E+00 0. -1.
         21   -1    0    0  504  502  0.00000000000E+00 -0.00000000000E+00 -0.11048142110E+03  0.11048142110E+03  0.00000000000E+00 0. -1.
         21    1    1    2  503  505 -0.25368306607E+02 -0.10582439253E+03  0.36664773174E+03  0.38245641873E+03  0.00000000000E+00 0.  1.
         21    1    1    2  504  501  0.39858086242E+02  0.39907846305E+02 -0.74211697454E+02  0.93213085318E+02  0.00000000000E+00 0. -1.
         21    1    1    2  505  502  0.24677658595E+02 -0.30454639965E+02  0.54924697579E+01  0.39580792730E+02  0.00000000000E+00 0. -1.
          2    1    1    2  501    0 -0.39167438230E+02  0.96371186186E+02  0.14842199480E+04  0.14878609974E+04  0.00000000000E+00 0. -1.
<scales pt_clust_3="101.81005" pt_clust_4="63.23991" pt_clust_5="39.19786" pt_clust_6="14000.00000"></scales>
<clustering>
<clus scale="   39.198">  2  5  1 -1</clus>
<clus scale="   63.240">  2  4  1 -1</clus>
<clus scale="  101.810">  2  3  1 -1</clus>
<clus scale="   39.198">  2  3  1 -1</clus>
</clustering>
</event>
<event>
 6    0  0.1230761E+002  0.1128471E+03  0.7546771E-02  0.1255387E+00
         21   -1    0    0  505  502  0.00000000000E+00  0.00000000000E+00  0.16594431101E+03  0.16594431101E+03  0.00000000000E+00 0.  1.
         -1   -1    0    0    0  501 -0.00000000000E+00 -0.00000000000E+00 -0.73517365568E+03  0.73517365568E+03  0.00000000000E+00 0.  1.
         21    1    1    2  503  501 -0.15789118543E+02  0.27290385511E+02 -0.82270462455E+02  0.88104996443E+02  0.00000000000E+00 0.  1.
         21    1    1    2  504  502  0.10386323218E+03  0.41173238901E+02  0.12239344769E+03  0.16571953005E+03  0.00000000000E+00 0.  1.
         21    1    1    2  505  503  0.21176728676E+02  0.40212205310E+02 -0.52145863147E+02  0.69171282601E+02  0.00000000000E+00 0. -1.
         -1    1    1    2    0  504 -0.10925084232E+03 -0.10867582972E+03 -0.55720646676E+03  0.57812215760E+03  0.00000000000E+00 0.  1.
<scales pt_clust_3="31.52874" pt_clust_4="112.84711" pt_clust_5="47.08027" pt_clust_6="14000.00000"></scales>
<clustering>
<clus scale="   31.529">  2  3  1 -1</clus>
<clus scale="   47.080">  2  5  1 -1</clus>
<clus scale="  112.847">  1  4  2 -1</clus>
<clus scale="  112.847">  1  3  2 -1</clus>
</clustering>
</event>
<event>
 6    0  0.1230761E+002  0.1113537E+03  0.7546771E-02  0.1258083E+00
          2   -1    0    0  503    0 -0.00000000000E+00  0.00000000000E+00  0.22694654748E+03  0.22694654748E+03  0.00000000000E+00 0.  1.
         21   -1    0    0  505  502  0.00000000000E+00 -0.00000000000E+00 -0.57786892079E+03  0.57786892079E+03  0.00000000000E+00 0.  1.
         21    1    1    2  503  504 -0.16192660435E+02 -0.31020422989E+02  0.17814031218E+02  0.39265870710E+02  0.00000000000E+00 0. -1.
         21    1    1    2  504  502 -0.53823974994E+02  0.67708049510E+02  0.88163362997E+01  0.86943246077E+02  0.00000000000E+00 0.  1.
         21    1    1    2  505  501  0.45244261909E+02 -0.10576698680E+03 -0.51236134106E+03  0.52511697986E+03  0.00000000000E+00 0.  1.
          2    1    1    2  501    0  0.24772373520E+02  0.69079360276E+02  0.13480860023E+03  0.15348937162E+03  0.00000000000E+00 0.  1.
<scales pt_clust_3="34.99241" pt_clust_4="14000.00000" pt_clust_5="111.35370" pt_clust_6="48.32558"></scales>
<clustering>
<clus scale="   34.992">  1  3  2 -1</clus>
<clus scale="   48.326">  1  6  2 -1</clus>
<clus scale="  111.354">  2  5  1 -1</clus>
<clus scale="  111.354">  2  3  1 -1</clus>
</clustering>
</event>
<event>
 6    0  0.1230761E+002  0.6132301E+03  0.7546771E-02  0.9878332E-01
         -3   -1    0    0    0  501 -0.00000000000E+00  0.00000000000E+00  0.33553487602E+03  0.33553487602E+03  0.00000000000E+00 0.  1.
         21   -1    0    0  505  502  0.00000000000E+00 -0.00000000000E+00 -0.19771401011E+04  0.19771401011E+04  0.00000000000E+00 0.  1.
         21    1    1    2  503  504  0.90828777593E+02 -0.13519845484E+03 -0.16616586784E+03  0.23267914531E+03  0.00000000000E+00 0.  1.
         21    1    1    2  504  501 -0.42318094070E+02  0.41490123481E+02 -0.29942657673E+02  0.66398901954E+02  0.00000000000E+00 0.  1.
         21    1    1    2  505  503 -0.61232102095E+03  0.15246748827E+03 -0.12734206849E+04  0.14211909120E+04  0.00000000000E+00 0.  1.
         -3    1    1    2    0  502  0.56381033742E+03 -0.58759156909E+02 -0.17207601461E+03  0.59240601779E+03  0.00000000000E+00 0.  1.
<scales pt_clust_3="156.79773" pt_clust_4="59.26425" pt_clust_5="613.23010" pt_clust_6="14000.00000"></scales>
<clustering>
<clus scale="   59.264">  1  4  2 -1</clus>
<clus scale="  156.798">  1  3  2 -1</clus>
<clus scale="  613.230">  2  5  1 -1</clus>
<clus scale="  613.230">  2  3  1 -1</clus>
</clustering>
</event>
<event>
 6    0  0.1230761E+002  0.7659890E+02  0.7546771E-02  0.1338990E+00
          2   -1    0    0  504    0 -0.00000000000E+00  0.00000000000E+00  0.50348633080E+03  0.50348633080E+03  0.00000000000E+00 0. -1.
         21   -1    0    0  505  502  0.00000000000E+00 -0.00000000000E+00 -0.50321901614E+02  0.50321901614E+02  0.00000000000E+00 0.  1.
         21    1    1    2  503  501 -0.31343797318E+01 -0.54166258311E+02  0.65459749454E+02  0.85022271636E+02  0.00000000000E+00 0.  1.
         21    1    1    2  504  502 -0.57301580267E+02  0.88790417995E+01  0.11338698665E+03  0.12735351281E+03  0.00000000000E+00 0.  1.
         21    1    1    2  505  503 -0.47178983814E+01 -0.35895561936E+02 -0.10902790164E+02  0.37810326172E+02  0.00000000000E+00 0.  1.
          2    1    1    2  501    0  0.65153858380E+02  0.81182778448E+02  0.28522048325E+03  0.30362212180E+03  0.00000000000E+00 0. -1.
<scales pt_clust_3="76.59890" pt_clust_4="58.57556" pt_clust_5="36.20428" pt_clust_6="14000.00000"></scales>
<clustering>
<clus scale="   36.204">  2  5  1 -1</clus>
<clus scale="   58.576">  2  4  1 -1</clus>
<clus scale="   76.599">  2  3  1 -1</clus>
<clus scale="   36.204">  2  3  1 -1</clus>
</clustering>
</event>
<event>
 6    0  0.1230761E+002  0.1384032E+03  0.7546771E-02  0.1215494E+00
          1   -1    0    0  504    0 -0.00000000000E+00  0.00000000000E+00  0.66254221811E+03  0.66254221811E+03  0.00000000000E+00 0.  1.
         21   -1    0    0  503  502  0.00000000000E+00 -0.00000000000E+00 -0.22723775051E+03  0.22723775051E+03  0.00000000000E+00 0. -1.
         21    1    1    2  503  501 -0.15421159934E+03 -0.10326882611E+02 -0.16208883246E+03  0.22396573730E+03  0.00000000000E+00 0. -1.
         21    1    1    2  504  505  0.10436185144E+02 -0.43015431300E+02  0.11726820870E+03  0.12534382339E+03  0.00000000000E+00 0. -1.
         21    1    1    2  505  502  0.16884636624E+02  0.30472996878E+02 -0.78813014535E+01  0.35718474285E+02  0.00000000000E+00 0.  1.
          1    1    1    2  501    0  0.12689077757E+03  0.22869317032E+02  0.48800639281E+03  0.50475193365E+03  0.00000000000E+00 0.  1.
<scales pt_clust_3="138.40321" pt_clust_4="43.76197" pt_clust_5="34.83812" pt_clust_6="14000.00000"></scales>
<clustering>
<clus scale="   34.838">  2  5  1 -1</clus>
<clus scale="   43.762">  1  4  2 -1</clus>
<clus scale="  138.403">  2  3  1 -1</clus>
<clus scale="   34.838">  2  3  1 -1</clus>
</clustering>
</event>
<event>
 6    0  0.1230761E+002  0.1006924E+03  0.7546771E-02  0.1278847E+00
         21   -1    0    0  505  502  0.00000000000E+00  0.00000000000E+00  0.46364518112E+03  0.46364518112E+03  0.00000000000E+00 0. -1.
          1   -1    0    0  503    0 -0.00000000000E+00 -0.00000000000E+00 -0.69757390892E+03  0.69757390892E+03  0.00000000000E+00 0.  1.
         21    1    1    2  503  504  0.44819076468E+02 -0.52904281709E+02 -0.10075842729E+03  0.12231056090E+03  0.00000000000E+00 0. -1.
         21    1    1    2  504  502  0.50838366143E+02 -0.36380509487E+02  0.28337450118E+03  0.29018819559E+03  0.00000000000E+00 0. -1.
         21    1    1    2  505  501  0.51692746470E+02  0.30459144251E+02  0.14937833218E+03  0.16097759356E+03  0.00000000000E+00 0. -1.
          1    1    1    2  501    0 -0.14735018908E+03  0.58825646945E+02 -0.56592313386E+03  0.58774273998E+03  0.00000000000E+00 0.  1.
<scales pt_clust_3="69.72296" pt_clust_4="14000.00000" pt_clust_5="59.99916" pt_clust_6="100.69239"></scales>
<clustering>
<clus scale="   59.999">  1  5  2 -1</clus>
<clus scale="   69.723">  2  3  1 -1</clus>
<clus scale="  100.692">  2  6  1 -1</clus>
<clus scale="   59.999">  1  3  2 -1</clus>
</clustering>
</event>
<event>
 6    0  0.1230761E+002  0.1265226E+03  0.7546771E-02  0.1232709E+00
         21   -1    0    0  503  502  0.00000000000E+00  0.00000000000E+00  0.28648835001E+03  0.28648835001E+03  0.00000000000E+00 0. -1.
          3   -1    0    0  505    0 -0.00000000000E+00 -0.00000000000E+00 -0.36642360725E+03  0.36642360725E+03  0.00000000000E+00 0.  1.
         21    1    1    2  503  501 -0.86785384612E+02  0.72304439294E+02  0.14158771341E+03  0.18112624192E+03  0.00000000000E+00 0. -1.
         21    1    1    2  504  502 -0.42289048809E+02 -0.47471792435E+02  0.94943784392E+02  0.11426397910E+03  0.00000000000E+00 0. -1.
         21    1    1    2  505  504  0.41134572131E+01 -0.37507891601E+02 -0.47417749333E+02  0.60598724528E+02  0.00000000000E+00 0. -1.
          3    1    1    2  501    0  0.12496097621E+03  0.12675244742E+02 -0.26904900571E+03  0.29692301170E+03  0.00000000000E+00 0.  1.
<scales pt_clust_3="126.52257" pt_clust_4="64.36343" pt_clust_5="37.73278" pt_clust_6="14000.00000"></scales>
<clustering>
<clus scale="   37.733">  2  5  1 -1</clus>
<clus scale="   64.363">  1  4  2 -1</clus>
<clus scale="  126.523">  1  3  2 -1</clus>
<clus scale="   64.363">  1  3  2 -1</clus>
</clustering>
</event>
<event>
 6    0  0.1998024E+002  0.1875205E+03  0.7546771E-02  0.1160717E+00
          2   -1    0    0  503    0 -0.00000000000E+00  0.00000000000E+00  0.15071637071E+04  0.15071637071E+04  0.00000000000E+00 0. -1.
         21   -1    0    0  501  502  0.00000000000E+00 -0.00000000000E+00 -0.19778702393E+04  0.19778702393E+04  0.00000000000E+00 0.  1.
         21    1    1    2  503  504  0.21372188189E+02 -0.25597083758E+02  0.26434989493E+02  0.42553375828E+02  0.00000000000E+00 0.  1.
         21    1    1    2  504  505 -0.15965591089E+03  0.30678261266E+02 -0.13096959629E+04  0.13197479611E+04  0.00000000000E+00 0.  1.
         21    1    1    2  505  502  0.56571052135E+02  0.12726349253E+03 -0.64349790412E+03  0.65839641028E+03  0.00000000000E+00 0.  1.
          2    1    1    2  501    0  0.81712670565E+02 -0.13234467004E+03  0.14560523453E+04  0.14643361993E+04  0.00000000000E+00 0. -1.
<scales pt_clust_3="33.34638" pt_clust_4="14000.00000" pt_clust_5="139.19621" pt_clust_6="187.52048"></scales>
<clustering>
<clus scale="   33.346">  1  3  2 -1</clus>
<clus scale="  139.196">  2  5  1 -1</clus>
<clus scale="  187.520">  1  6  2 -1</clus>
<clus scale="  139.196">  2  3  1 -1</clus>
</clustering>
</event>
<event>
 6    0  0.1230761E+002  0.1823884E+03  0.7546771E-02  0.1165511E+00
         21   -1    0    0  503  502  0.00000000000E+00  0.00000000000E+00  0.36215816619E+02  0.36215816619E+02  0.00000000000E+00 0. -1.
          2   -1    0    0  504    0 -0.00000000000E+00 -0.00000000000E+00 -0.12384701739E+04  0.12384701739E+04  0.00000000000E+00 0.  1.
         21    1    1    2  503  501 -0.38949637654E+02  0.13339194758E+02 -0.37198563123E+03  0.37425702162E+03  0.00000000000E+00 0.  1.
         21    1    1    2  504  505  0.24269193668E+02 -0.35485184467E+02 -0.10139086266E+03  0.11012855719E+03  0.00000000000E+00 0. -1.
         21    1    1    2  505  502  0.11549448323E+03 -0.63645951994E+02 -0.16567686356E+03  0.21175128330E+03  0.00000000000E+00 0. -1.
          2    1    1    2  501    0 -0.10081403924E+03  0.85791941703E+02 -0.56320099988E+03  0.57854912845E+03  0.00000000000E+00 0.  1.
<scales pt_clust_3="34.84799" pt_clust_4="30.85665" pt_clust_5="179.67042" pt_clust_6="34.84799"></scales>
<clustering>
<clus scale="   30.857">  4  5 -1 -1</clus>
<clus scale="   34.848">  3  6 -1 -1</clus>
<clus scale="  179.670">  1  4  2 -1</clus>
<clus scale="  179.670">  1  3  2 -1</clus>
</clustering>
</event>
<event>
 6    0  0.1230761E+002  0.4740845E+03  0.7546771E-02  0.1020774E+00
          2   -1    0    0  505    0 -0.00000000000E+00  0.00000000000E+00  0.17462382128E+04  0.17462382128E+04  0.00000000000E+00 0. -1.
         21   -1    0    0  504  502  0.00000000000E+00 -0.00000000000E+00 -0.18648721705E+03  0.18648721705E+03  0.00000000000E+00 0. -1.
         21    1    1    2  503  502 -0.96405992948E+02  0.13478504833E+03  0.11227415521E+03  0.20016645737E+03  0.00000000000E+00 0.  1.
         21    1    1    2  504  501 -0.55174381062E+02 -0.56497888794E+02  0.31296925849E+03  0.32277853170E+03  0.00000000000E+00 0.  1.
         21    1    1    2  505  503  0.41550821089E+03  0.18969729304E+03  0.55321086345E+03  0.71740810962E+03  0.00000000000E+00 0. -1.
          2    1    1    2  501    0 -0.26392783688E+03 -0.26798445257E+03  0.58129671857E+03  0.69237233113E+03  0.00000000000E+00 0. -1.
<scales pt_clust_3="165.71398" pt_clust_4="70.54693" pt_clust_5="448.38768" pt_clust_6="70.54693"></scales>
<clustering>
<clus scale="   70.547">  4  6 -1 -1</clus>
<clus scale="  165.714">  2  3  1 -1</clus>
<clus scale="  448.388">  2  5  1 -1</clus>
<clus scale="  165.714">  2  3  1 -1</clus>
</clustering>
</event>
<event>
 6    0  0.1230761E+002  0.9743750E+02  0.7546771E-02  0.1285779E+00
         21   -1    0    0  503  502  0.00000000000E+00  0.00000000000E+00  0.13590825366E+02  0.13590825366E+02  0.00000000000E+00 0. -1.
          2   -1    0    0  504    0 -0.00000000000E+00 -0.00000000000E+00 -0.26918577469E+04  0.26918577469E+04  0.00000000000E+00 0. -1.
         21    1    1    2  503  501 -0.41857176258E+02 -0.45207115656E+01 -0.11285547283E+03  0.12045255408E+03  0.00000000000E+00 0. -1.
         21    1    1    2  504  505  0.13273934547E+02  0.75545981165E+02 -0.74656550378E+03  0.75049546571E+03  0.00000000000E+00 0. -1.
         21    1    1    2  505  502  0.20850947199E+02  0.50814902874E+02 -0.12843913805E+03  0.13969083197E+03  0.00000000000E+00 0. -1.
          2    1    1    2  501    0  0.77322945117E+01 -0.12184017247E+03 -0.16904068069E+04  0.16948097205E+04  0.00000000000E+00 0. -1.
<scales pt_clust_3="42.10059" pt_clust_4="14000.00000" pt_clust_5="48.32353" pt_clust_6="97.43750"></scales>
<clustering>
<clus scale="   42.101">  1  3  2 -1</clus>
<clus scale="   48.324">  1  5  2 -1</clus>
<clus scale="   97.437">  1  6  2 -1</clus>
<clus scale="   42.101">  1  3  2 -1</clus>
</clustering>
</event>
<event>
 6    0  0.1230761E+002  0.6123521E+02  0.7546771E-02  0.1392720E+00
         21   -1    0    0  504  502  0.00000000000E+00  0.00000000000E+00  0.10435944548E+04  0.10435944548E+04  0.00000000000E+00 0. -1.
          1   -1    0    0  505    0 -0.00000000000E+00 -0.00000000000E+00 -0.18950853733E+02  0.18950853733E+02  0.00000000000E+00 0. -1.
         21    1    1    2  503  502  0.40940684325E+02  0.26602804495E+02  0.27438019455E+03  0.27869040170E+03  0.00000000000E+00 0. -1.
         21    1    1    2  504  501 -0.63019132189E+02 -0.78318594121E+02  0.47537405197E+03  0.48588651195E+03  0.00000000000E+00 0. -1.
         21    1    1    2  505  503 -0.29277774499E+02  0.50806849190E+02  0.18904564770E+03  0.19793125301E+03  0.00000000000E+00 0. -1.
          1    1    1    2  501    0  0.51356222363E+02  0.90894043674E+00  0.85843706839E+02  0.10003714186E+03  0.00000000000E+00 0. -1.
<scales pt_clust_3="48.82467" pt_clust_4="61.23521" pt_clust_5="14000.00000" pt_clust_6="56.46818"></scales>
<clustering>
<clus scale="   48.825">  1  3  2 -1</clus>
<clus scale="   56.468">  2  6  1 -1</clus>
<clus scale="   61.235">  1  4  2 -1</clus>
<clus scale="   48.825">  1  3  2 -1</clus>
</clustering>
</event>
<event>
 6    0  0.1230761E+002  0.1238635E+03  0.7546771E-02  0.1236856E+00
          1   -1    0    0  503    0 -0.00000000000E+00  0.00000000000E+00  0.62896733389E+03  0.62896733389E+03  0.00000000000E+00 0. -1.
         21   -1    0    0  504  502  0.00000000000E+00 -0.00000000000E+00 -0.16035090539E+03  0.16035090539E+03  0.00000000000E+00 0.  1.
         21    1    1    2  503  505 -0.55188568124E+02  0.20539027610E+01  0.60852690657E+02  0.82176922115E+02  0.00000000000E+00 0.  1.
         21    1    1    2  504  501  0.81177743308E+02 -0.60055528060E+02 -0.34833859756E+01  0.10103774758E+03  0.00000000000E+00 0.  1.
         21    1    1    2  505  502 -0.30186564515E+02 -0.72061358266E+02 -0.71632642450E+02  0.10599671456E+03  0.00000000000E+00 0.  1.
          1    1    1    2  501    0  0.41973893304E+01  0.13006298357E+03  0.48287976627E+03  0.50010685503E+03  0.00000000000E+00 0. -1.
<scales pt_clust_3="55.22677" pt_clust_4="14000.00000" pt_clust_5="78.74350" pt_clust_6="123.86354"></scales>
<clustering>
<clus scale="   55.227">  1  3  2 -1</clus>
<clus scale="   78.744">  2  5  1 -1</clus>
<clus scale="  123.864">  1  6  2 -1</clus>
<clus scale="   78.744">  2  3  1 -1</clus>
</clustering>
</event>
<event>
 6    0  0.1230761E+002  0.3163620E+03  0.7546771E-02  0.1077336E+00
         21   -1    0    0  503  502  0.00000000000E+00  0.00000000000E+00  0.50651674336E+03  0.50651674336E+03  0.00000000000E+00 0.  1.
          2   -1    0    0  504    0 -0.00000000000E+00 -0.00000000000E+00 -0.53535306930E+03  0.53535306930E+03  0.00000000000E+00 0.  1.
         21    1    1    2  503  501  0.21001381325E+01  0.49323890701E+02  0.22924763278E+01  0.49421778821E+02  0.00000000000E+00 0.  1.
         21    1    1    2  504  505 -0.16532700924E+03 -0.32514308215E+03  0.22375105998E+03  0.42792006344E+03  0.00000000000E+00 0.  1.
         21    1    1    2  505  502 -0.22108991717E+02  0.29220054984E+02  0.92771969917E+02  0.99745964983E+02  0.00000000000E+00 0. -1.
          2    1    1    2  501    0  0.18533586282E+03  0.24659913647E+03 -0.34765183216E+03  0.46478200542E+03  0.00000000000E+00 0.  1.
<scales pt_clust_3="51.17041" pt_clust_4="316.36197" pt_clust_5="36.64177" pt_clust_6="14000.00000"></scales>
<clustering>
<clus scale="   36.642">  1  5  2 -1</clus>
<clus scale="   51.170">  1  3  2 -1</clus>
<clus scale="  316.362">  1  4  2 -1</clus>
<clus scale="   36.642">  1  3  2 -1</clus>
</clustering>
</event>
<event>
 6    0  0.1230761E+002  0.1646433E+03  0.7546771E-02  0.1183552E+00
         21   -1    0    0  501  502  0.00000000000E+00  0.00000000000E+00  0.52404500154E+02  0.52404500154E+02  0.00000000000E+00 0.  1.
          2   -1    0    0  505    0 -0.00000000000E+00 -0.00000000000E+00 -0.26613312538E+04  0.26613312538E+04  0.00000000000E+00 0. -1.
         21    1    1    2  503  502  0.40216849226E+02  0.63861528367E+01  0.11981224246E+01  0.40738353023E+02  0.00000000000E+00 0.  1.
         21    1    1    2  504  503  0.11032648293E+03  0.65703286123E+02 -0.16037691672E+03  0.20544977503E+03  0.00000000000E+00 0.  1.
         21    1    1    2  505  504  0.30989588402E+02  0.62202977777E+02 -0.64255059272E+03  0.64629778681E+03  0.00000000000E+00 0. -1.
          2    1    1    2  501    0 -0.18153292055E+03 -0.13429241674E+03 -0.18071973667E+04  0.18212498391E+04  0.00000000000E+00 0. -1.
<scales pt_clust_3="40.72073" pt_clust_4="14000.00000" pt_clust_5="70.93211" pt_clust_6="164.64329"></scales>
<clustering>
<clus scale="   40.721">  1  3  2 -1</clus>
<clus scale="   70.932">  2  5  1 -1</clus>
<clus scale="  164.643">  2  6  1 -1</clus>
<clus scale="   40.721">  1  3  2 -1</clus>
</clustering>
</event>
<event>
 6    0  0.1230761E+002  0.1197029E+03  0.7546771E-02  0.1243588E+00
         -3   -1    0    0    0  501 -0.00000000000E+00  0.00000000000E+00  0.12863917589E+04  0.12863917589E+04  0.00000000000E+00 0.  1.
         21   -1    0    0  505  502  0.00000000000E+00 -0.00000000000E+00 -0.25362266391E+03  0.25362266391E+03  0.00000000000E+00 0.  1.
         21    1    1    2  503  501  0.30885172426E+02 -0.42230697616E+02  0.15688866172E+03  0.16538251985E+03  0.00000000000E+00 0. -1.
         21    1    1    2  504  503  0.76043402222E+02 -0.47662812253E+02 -0.20600117196E+03  0.22470163671E+03  0.00000000000E+00 0.  1.
         21    1    1    2  505  504  0.17836675457E+02 -0.27028194154E+02 -0.17855647368E+02  0.36979648640E+02  0.00000000000E+00 0. -1.
         -3    1    1    2    0  502 -0.12476525011E+03  0.11692170402E+03  0.10997372526E+04  0.11129506176E+04  0.00000000000E+00 0.  1.
<scales pt_clust_3="52.92675" pt_clust_4="119.70290" pt_clust_5="32.38318" pt_clust_6="14000.00000"></scales>
<clustering>
<clus scale="   32.383">  2  5  1 -1</clus>
<clus scale="   52.927">  1  3  2 -1</clus>
<clus scale="  119.703">  2  4  1 -1</clus>
<clus scale="   32.383">  2  3  1 -1</clus>
</clustering>
</event>
<event>
 6    0  0.1230761E+002  0.2072816E+03  0.7546771E-02  0.1143737E+00
          1   -1    0    0  503    0 -0.00000000000E+00  0.00000000000E+00  0.98419373590E+03  0.98419373590E+03  0.00000000000E+00 0. -1.
         21   -1    0    0  501  502  0.00000000000E+00 -0.00000000000E+00 -0.53663953848E+03  0.53663953848E+03  0.00000000000E+00 0. -1.
         21    1    1    2  503  504  0.67259612354E+02  0.55125849235E+02  0.31818554279E+03  0.32985565684E+03  0.00000000000E+00 0. -1.
         21    1    1    2  504  505 -0.29962513273E+02  0.66707358872E+02 -0.25781637358E+03  0.26798676537E+03  0.00000000000E+00 0. -1.
         21    1    1    2  505  502 -0.58437236337E+01  0.12421461144E+03 -0.22798529815E+03  0.25969350198E+03  0.00000000000E+00 0. -1.
          1    1    1    2  501    0 -0.31453375447E+02 -0.24604781955E+03  0.61517032636E+03  0.66329735018E+03  0.00000000000E+00 0. -1.
<scales pt_clust_3="86.96387" pt_clust_4="52.62842" pt_clust_5="52.62842" pt_clust_6="195.59081"></scales>
<clustering>
<clus scale="   52.628">  4  5 -1 -1</clus>
<clus scale="   86.964">  1  3  2 -1</clus>
<clus scale="  195.591">  1  6  2 -1</clus>
<clus scale="  207.282">  2  3  1 -1</clus>
</clustering>
</event>
<event>
 6    0  0.1230761E+002  0.1581750E+03  0.7546771E-02  0.1190773E+00
         21   -1    0    0  501  502  0.00000000000E+00  0.00000000000E+00  0.11401756718E+03  0.11401756718E+03  0.00000000000E+00 0. -1.
          2   -1    0    0  505    0 -0.00000000000E+00 -0.00000000000E+00 -0.17469369358E+04  0.17469369358E+04  0.00000000000E+00 0. -1.
         21    1    1    2  503  502 -0.69927062489E+02  0.74742383494E+02  0.16875952036E+02  0.10373531566E+03  0.00000000000E+00 0. -1.
         21    1    1    2  504  503 -0.53368102394E+02 -0.15485890870E+01  0.25764437330E+02  0.59282026891E+02  0.00000000000E+00 0. -1.
         21    1    1    2  505  504  0.93914836961E+02 -0.15793010279E+03 -0.12014500967E+04  0.12154193716E+04  0.00000000000E+00 0. -1.
          2    1    1    2  501    0  0.29380327922E+02  0.84736308380E+02 -0.47410966132E+03  0.48251778888E+03  0.00000000000E+00 0. -1.
<scales pt_clust_3="46.79209" pt_clust_4="46.79209" pt_clust_5="144.29802" pt_clust_6="89.68526"></scales>
<clustering>
<clus scale="   46.792">  3  4 -1 -1</clus>
<clus scale="   89.685">  2  6  1 -1</clus>
<clus scale="  144.298">  2  5  1 -1</clus>
<clus scale="  158.175">  1  3  2 -1</clus>
</clustering>
</event>
<event>
 6    0  0.1230761E+002  0.1030031E+03  0.7546771E-02  0.1274105E+00
          2   -1    0    0  504    0 -0.00000000000E+00  0.00000000000E+00  0.23943367350E+04  0.23943367350E+04  0.00000000000E+00 0.  1.
         21   -1    0    0  503  502  0.00000000000E+00 -0.00000000000E+00 -0.74951948758E+02  0.74951948758E+02  0.00000000000E+00 0. -1.
         21    1    1    2  503  505 -0.35415254743E+02 -0.14041164232E+02 -0.45649366990E+02  0.59458046285E+02  0.00000000000E+00 0. -1.
         21    1    1    2  504  502 -0.60013220555E+02 -0.26232518973E+02  0.20685836186E+03  0.21697952337E+03  0.00000000000E+00 0.  1.
         21    1    1    2  505  501 -0.20314386295E+02  0.36533073296E+02  0.11911821309E+02  0.43465287551E+02  0.00000000000E+00 0. -1.
          2    1    1    2  501    0  0.11574286159E+03  0.37406099088E+01  0.21462639701E+04  0.21493858266E+04  0.00000000000E+00 0.  1.
<scales pt_clust_3="38.09717" pt_clust_4="103.00308" pt_clust_5="52.51957" pt_clust_6="14000.00000"></scales>
<clustering>
<clus scale="   38.097">  2  3  1 -1</clus>
<clus scale="   52.520">  2  5  1 -1</clus>
<clus scale="  103.003">  2  4  1 -1</clus>
<clus scale="   38.097">  2  3  1 -1</clus>
</clustering>
</event>
<event>
 6    0  0.1230761E+002  0.1562129E+03  0.7546771E-02  0.1193040E+00
         21   -1    0    0  501  502  0.00000000000E+00  0.00000000000E+00  0.96254947597E+02  0.96254947597E+02  0.00000000000E+00 0.  1.
          2   -1    0    0  505    0 -0.00000000000E+00 -0.00000000000E+00 -0.15874505204E+04  0.15874505204E+04  0.00000000000E+00 0.  1.
         21    1    1    2  503  502 -0.73348208958E+02 -0.87259829271E+01 -0.10516173100E+02  0.74610270285E+02  0.00000000000E+00 0.  1.
         21    1    1    2  504  503 -0.67010917273E+02 -0.32024201900E+02  0.22818824152E+02  0.77696275823E+02  0.00000000000E+00 0.  1.
         21    1    1    2  505  504 -0.59331391235E+02 -0.30883323984E+02 -0.58009569252E+03  0.58393921445E+03  0.00000000000E+00 0.  1.
          2    1    1    2  501    0  0.19969051747E+03  0.71633508812E+02 -0.92340253131E+03  0.94745970742E+03  0.00000000000E+00 0.  1.
<scales pt_clust_3="40.93279" pt_clust_4="40.93279" pt_clust_5="66.88792" pt_clust_6="150.72426"></scales>
<clustering>
<clus scale="   40.933">  3  4 -1 -1</clus>
<clus scale="   66.888">  2  5  1 -1</clus>
<clus scale="  150.724">  2  6  1 -1</clus>
<clus scale="  156.213">  1  3  2 -1</clus>
</clustering>
</event>
<event>
 6    0  0.1230761E+002  0.1639578E+03  0.7546771E-02  0.1184299E+00
         -2   -1    0    0    0  501 -0.00000000000E+00  0.00000000000E+00  0.70051066879E+03  0.70051066879E+03  0.00000000000E+00 0.  1.
         21   -1    0    0  503  502  0.00000000000E+00 -0.00000000000E+00 -0.70403183040E+03  0.70403183040E+03  0.00000000000E+00 0.  1.
         21    1    1    2  503  501 -0.52052424757E+02  0.64704442556E+01  0.28967440628E+03  0.29438509342E+03  0.00000000000E+00 0.  1.
         21    1    1    2  504  505 -0.35881736406E+02 -0.13296664538E+03 -0.30503425827E+03  0.33468421909E+03  0.00000000000E+00 0.  1.
         21    1    1    2  505  502 -0.88428350199E+02  0.23846717972E+02 -0.34906179131E+03  0.36087722736E+03  0.00000000000E+00 0.  1.
         -2    1    1    2    0  504  0.17636251136E+03  0.10264948315E+03  0.36090048168E+03  0.41459595931E+03  0.00000000000E+00 0.  1.
<scales pt_clust_3="52.45304" pt_clust_4="163.95785" pt_clust_5="92.33861" pt_clust_6="14000.00000"></scales>
<clustering>
<clus scale="   52.453">  1  3  2 -1</clus>
<clus scale="   92.339">  2  5  1 -1</clus>
<clus scale="  163.958">  2  4  1 -1</clus>
<clus scale="   92.339">  2  3  1 -1</clus>
</clustering>
</event>
<event>
 6    0  0.1230761E+002  0.3138358E+03  0.7546771E-02  0.1078522E+00
         21   -1    0    0  504  502  0.00000000000E+00  0.00000000000E+00  0.23423637685E+03  0.23423637685E+03  0.00000000000E+00 0. -1.
          2   -1    0    0  505    0 -0.00000000000E+00 -0.00000000000E+00 -0.60823585613E+03  0.60823585613E+03  0.00000000000E+00 0. -1.
         21    1    1    2  503  501  0.73083965912E+02  0.19625896540E+03 -0.38483703263E+02  0.21293154531E+03  0.00000000000E+00 0. -1.
         21    1    1    2  504  503  0.69131843539E+01  0.87658939015E+02  0.11532373292E+02  0.88684143683E+02  0.00000000000E+00 0.  1.
         21    1    1    2  505  502 -0.36792242542E+02  0.50851710742E+02 -0.11573227466E+03  0.13165684561E+03  0.00000000000E+00 0. -1.
          2    1    1    2  501    0 -0.43204907724E+02 -0.33476961516E+03 -0.23131587465E+03  0.40919969837E+03  0.00000000000E+00 0. -1.
<scales pt_clust_3="36.86466" pt_clust_4="36.86466" pt_clust_5="62.76596" pt_clust_6="308.63596"></scales>
<clustering>
<clus scale="   36.865">  3  4 -1 -1</clus>
<clus scale="   62.766">  2  5  1 -1</clus>
<clus scale="  308.636">  2  6  1 -1</clus>
<clus scale="  313.836">  1  3  2 -1</clus>
</clustering>
</event>
<event>
 6    0  0.1230761E+002  0.3542273E+03  0.7546771E-02  0.1060893E+00
          2   -1    0    0  503    0 -0.00000000000E+00  0.00000000000E+00  0.44264395873E+04  0.44264395873E+04  0.00000000000E+00 0. -1.
         21   -1    0    0  505  502  0.00000000000E+00 -0.00000000000E+00 -0.87694114853E+02  0.87694114853E+02  0.00000000000E+00 0. -1.
         21    1    1    2  503  502  0.14689061949E+02 -0.44257374452E+02  0.40929001350E+03  0.41193785803E+03  0.00000000000E+00 0. -1.
         21    1    1    2  504  501 -0.61601505431E+02  0.12108935109E+01  0.12363848807E+03  0.13814010086E+03  0.00000000000E+00 0.  1.
         21    1    1    2  505  504 -0.26978495180E+03 -0.64065718469E+02  0.19785867494E+03  0.34064114806E+03  0.00000000000E+00 0. -1.
          2    1    1    2  501    0  0.31669739528E+03  0.10711219941E+03  0.36079582959E+04  0.36234145951E+04  0.00000000000E+00 0. -1.
<scales pt_clust_3="46.63136" pt_clust_4="51.67618" pt_clust_5="51.67618" pt_clust_6="336.70998"></scales>
<clustering>
<clus scale="   46.631">  1  3  2 -1</clus>
<clus scale="   51.676">  4  5 -1 -1</clus>
<clus scale="  336.710">  1  6  2 -1</clus>
<clus scale="  354.227">  2  3  1 -1</clus>
</clustering>
</event>
<event>
 6    0  0.1230761E+002  0.6086720E+02  0.7546771E-02  0.1394228E+00
          1   -1    0    0  505    0 -0.00000000000E+00  0.00000000000E+00  0.75415684630E+03  0.75415684630E+03  0.00000000000E+00 0.  1.
         21   -1    0    0  503  502  0.00000000000E+00 -0.00000000000E+00 -0.35979815908E+03  0.35979815908E+03  0.00000000000E+00 0. -1.
         21    1    1    2  503  501  0.47730518450E+02  0.48496975624E+01 -0.27276539132E+02  0.55188146780E+02  0.00000000000E+00 0.  1.
         21    1    1    2  504  502 -0.10795829668E+03  0.53067744300E+01 -0.30463420696E+03  0.32324163675E+03  0.00000000000E+00 0. -1.
         21    1    1    2  505  504  0.13118545793E+02 -0.51698791064E+02  0.31368274718E+03  0.31818505169E+03  0.00000000000E+00 0. -1.
          1    1    1    2  501    0  0.47109232434E+02  0.41542319072E+02  0.41258668614E+03  0.41734017016E+03  0.00000000000E+00 0.  1.
<scales pt_clust_3="47.97626" pt_clust_4="14000.00000" pt_clust_5="53.38803" pt_clust_6="60.86720"></scales>
<clustering>
<clus scale="   47.976">  2  3  1 -1</clus>
<clus scale="   53.388">  1  5  2 -1</clus>
<clus scale="   60.867">  1  6  2 -1</clus>
<clus scale="   47.976">  2  3  1 -1</clus>
</clustering>
</event>
<event>
 6    0  0.1230761E+002  0.1225374E+03  0.7546771E-02  0.1238969E+00
          2   -1    0    0  504    0 -0.00000000000E+00  0.00000000000E+00  0.31695659122E+03  0.31695659122E+03  0.00000000000E+00 0. -1.
         21   -1    0    0  505  502  0.00000000000E+00 -0.00000000000E+00 -0.67822250224E+03  0.67822250224E+03  0.00000000000E+00 0.  1.
         21    1    1    2  503  502 -0.11452981202E+01 -0.35255697292E+02 -0.41532531545E+02  0.54490614567E+02  0.00000000000E+00 0.  1.
         21    1    1    2  504  503 -0.17251822106E+02 -0.51150525589E+02  0.36736016874E+02  0.65295762265E+02  0.00000000000E+00 0. -1.
         21    1    1    2  505  501  0.10422168150E+03 -0.31641359057E+02 -0.59002017237E+03  0.59998928182E+03  0.00000000000E+00 0.  1.
          2    1    1    2  501    0 -0.85824561276E+02  0.11804758194E+03  0.23355077602E+03  0.27540343480E+03  0.00000000000E+00 0. -1.
<scales pt_clust_3="35.27430" pt_clust_4="54.74723" pt_clust_5="122.53743" pt_clust_6="14000.00000"></scales>
<clustering>
<clus scale="   35.274">  2  3  1 -1</clus>
<clus scale="   54.747">  1  4  2 -1</clus>
<clus scale="  122.537">  2  5  1 -1</clus>
<clus scale="   35.274">  2  3  1 -1</clus>
</clustering>
</event>
<event>
 6    0  0.1230761E+002  0.2225865E+03  0.7546771E-02  0.1131969E+00
         -3   -1    0    0    0  501 -0.00000000000E+00  0.00000000000E+00  0.82784954080E+03  0.82784954080E+03  0.00000000000E+00 0.  1.
         21   -1    0    0  504  502  0.00000000000E+00 -0.00000000000E+00 -0.16370081492E+03  0.16370081492E+03  0.00000000000E+00 0.  1.
         21    1    1    2  503  505  0.38695216814E+02  0.10706936725E+03 -0.15349443926E+02  0.11487721548E+03  0.00000000000E+00 0.  1.
         21    1    1    2  504  503  0.60891742802E+02  0.85152928641E+02 -0.31092543813E+02  0.10920426676E+03  0.00000000000E+00 0.  1.
         21    1    1    2  505  501 -0.87063264385E+01  0.31415093404E+02  0.20060259004E+03  0.20323411954E+03  0.00000000000E+00 0. -1.
         -3    1    1    2    0  502 -0.90880633177E+02 -0.22363738929E+03  0.50998812357E+03  0.56423475395E+03  0.00000000000E+00 0.  1.
<scales pt_clust_3="32.95791" pt_clust_4="32.95791" pt_clust_5="32.59921" pt_clust_6="219.90017"></scales>
<clustering>
<clus scale="   32.599">  1  5  2 -1</clus>
<clus scale="   32.958">  3  4 -1 -1</clus>
<clus scale="  219.900">  1  6  2 -1</clus>
<clus scale="  222.587">  2  3  1 -1</clus>
</clustering>
</event>
<event>
 6    0  0.1230761E+002  0.1528627E+03  0.7546771E-02  0.1196999E+00
          2   -1    0    0  504    0 -0.00000000000E+00  0.00000000000E+00  0.12302225008E+04  0.12302225008E+04  0.00000000000E+00 0.  1.
         21   -1    0    0  505  502  0.00000000000E+00 -0.00000000000E+00 -0.31643081997E+02  0.31643081997E+02  0.00000000000E+00 0.  1.
         21    1    1    2  503  501 -0.75743625343E+01 -0.42199347035E+02  0.20402131711E+03  0.20847746567E+03  0.00000000000E+00 0.  1.
         21    1    1    2  504  502 -0.65492568668E+01  0.39781445265E+02  0.40360233004E+03  0.40561101682E+03  0.00000000000E+00 0.  1.
         21    1    1    2  505  503 -0.44649908126E+02  0.12018018041E+03  0.22625370652E+03  0.26005312875E+03  0.00000000000E+00 0.  1.
          2    1    1    2  501    0  0.58773527527E+02 -0.11776227864E+03  0.36470206516E+03  0.38772397159E+03  0.00000000000E+00 0.  1.
<scales pt_clust_3="35.18693" pt_clust_4="40.31695" pt_clust_5="139.87926" pt_clust_6="35.18693"></scales>
<clustering>
<clus scale="   35.187">  3  6 -1 -1</clus>
<clus scale="   40.317">  1  4  2 -1</clus>
<clus scale="  139.879">  2  5  1 -1</clus>
<clus scale="  139.879">  2  3  1 -1</clus>
</clustering>
</event>
<event>
 6    0  0.1230761E+002  0.8753478E+02  0.7546771E-02  0.1308934E+00
         21   -1    0    0  505  502  0.00000000000E+00  0.00000000000E+00  0.34134494568E+03  0.34134494568E+03  0.00000000000E+00 0.  1.
          2   -1    0    0  503    0 -0.00000000000E+00 -0.00000000000E+00 -0.62610897456E+03  0.62610897456E+03  0.00000000000E+00 0.  1.
         21    1    1    2  503  504 -0.77188690333E+02 -0.42638479783E+02 -0.29790421669E+03  0.31068159938E+03  0.00000000000E+00 0.  1.
         21    1    1    2  504  502  0.77977183198E+02 -0.43338402653E+01  0.24300123496E+03  0.25524267563E+03  0.00000000000E+00 0.  1.
         21    1    1    2  505  501 -0.24077339293E+02  0.79860731390E+02  0.63864180112E+02  0.10505278762E+03  0.00000000000E+00 0. -1.
          2    1    1    2  501    0  0.23288846429E+02 -0.32888411341E+02 -0.29372522726E+03  0.29647685761E+03  0.00000000000E+00 0.  1.
<scales pt_clust_3="87.53478" pt_clust_4="78.56341" pt_clust_5="14000.00000" pt_clust_6="40.29911"></scales>
<clustering>
<clus scale="   40.299">  2  6  1 -1</clus>
<clus scale="   78.563">  1  4  2 -1</clus>
<clus scale="   87.535">  2  3  1 -1</clus>
<clus scale="   78.563">  1  3  2 -1</clus>
</clustering>
</event>
<event>
 6    0  0.1230761E+002  0.1151612E+03  0.7546771E-02  0.1251300E+00
         21   -1    0    0  505  502  0.00000000000E+00  0.00000000000E+00  0.12660979484E+03  0.12660979484E+03  0.00000000000E+00 0.  1.
          1   -1    0    0  503    0 -0.00000000000E+00 -0.00000000000E+00 -0.69834339970E+03  0.69834339970E+03  0.00000000000E+00 0. -1.
         21    1    1    2  503  502  0.87527775515E+02  0.36590330150E+02  0.49411735315E+02  0.10696486963E+03  0.00000000000E+00 0.  1.
         21    1    1    2  504  501 -0.36590173846E+02 -0.94808296736E+02 -0.81484458253E+02  0.13025809337E+03  0.00000000000E+00 0.  1.
         21    1    1    2  505  504 -0.53186940754E+01 -0.32286319729E+02  0.55415078481E+01  0.33187396064E+02  0.00000000000E+00 0.  1.
          1    1    1    2  501    0 -0.45618907594E+02  0.90504286314E+02 -0.54520238977E+03  0.55454283548E+03  0.00000000000E+00 0. -1.
<scales pt_clust_3="94.86814" pt_clust_4="31.27452" pt_clust_5="31.27452" pt_clust_6="101.11579"></scales>
<clustering>
<clus scale="   31.275">  4  5 -1 -1</clus>
<clus scale="   94.868">  1  3  2 -1</clus>
<clus scale="  101.116">  2  6  1 -1</clus>
<clus scale="   94.868">  1  3  2 -1</clus>
</clustering>
</event>
<event>
 6    0  0.1230761E+002  0.1401795E+03  0.7546771E-02  0.1213088E+00
         -1   -1    0    0    0  501 -0.00000000000E+00  0.00000000000E+00  0.49345952725E+03  0.49345952725E+03  0.00000000000E+00 0. -1.
         21   -1    0    0  504  502  0.00000000000E+00 -0.00000000000E+00 -0.17222435772E+03  0.17222435772E+03  0.00000000000E+00 0.  1.
         21    1    1    2  503  501 -0.46733749366E+02  0.39488415493E+01  0.66272064379E+02  0.81188812015E+02  0.00000000000E+00 0.  1.
         21    1    1    2  504  505 -0.11880393750E+02  0.95618779490E+02 -0.11527980605E+03  0.15024489485E+03  0.00000000000E+00 0.  1.
         21    1    1    2  505  503 -0.16461177198E+01  0.32826954674E+02 -0.36378093151E+01  0.33068902512E+02  0.00000000000E+00 0.  1.
         -1    1    1    2    0  502  0.60260260837E+02 -0.13239457571E+03  0.37388072051E+03  0.40118127559E+03  0.00000000000E+00 0. -1.
<scales pt_clust_3="46.90028" pt_clust_4="30.80173" pt_clust_5="30.80173" pt_clust_6="129.88080"></scales>
<clustering>
<clus scale="   30.802">  4  5 -1 -1</clus>
<clus scale="   46.900">  1  3  2 -1</clus>
<clus scale="  129.881">  1  6  2 -1</clus>
<clus scale="  140.180">  2  3  1 -1</clus>
</clustering>
</event>
<event>
 6    0  0.1230761E+002  0.1033922E+03  0.7546771E-02  0.1273320E+00
          1   -1    0    0  503    0 -0.00000000000E+00  0.00000000000E+00  0.16569983057E+04  0.16569983057E+04  0.00000000000E+00 0. -1.
         21   -1    0    0  505  502  0.00000000000E+00 -0.00000000000E+00 -0.91395049999E+03  0.91395049999E+03  0.00000000000E+00 0.  1.
         21    1    1    2  503  502 -0.26011593150E+02  0.25099575237E+02 -0.24324656031E+02  0.43569261485E+02  0.00000000000E+00 0.  1.
         21    1    1    2  504  501 -0.14273293980E+03 -0.94320173184E+02  0.28719108476E+03  0.33428686234E+03  0.00000000000E+00 0.  1.
         21    1    1    2  505  504  0.97479330799E+02  0.45841127540E+02 -0.85200954995E+03  0.85879211810E+03  0.00000000000E+00 0.  1.
          1    1    1    2  501    0  0.71265202147E+02  0.23379470407E+02  0.13321909269E+04  0.13343005637E+04  0.00000000000E+00 0. -1.
<scales pt_clust_3="36.14681" pt_clust_4="103.39225" pt_clust_5="14000.00000" pt_clust_6="74.98195"></scales>
<clustering>
<clus scale="   36.147">  2  3  1 -1</clus>
<clus scale="   74.982">  1  6  2 -1</clus>
<clus scale="  103.392">  1  4  2 -1</clus>
<clus scale="   36.147">  2  3  1 -1</clus>
</clustering>
</event>
<event>
 6    0  0.1230761E+002  0.1172411E+03  0.7546771E-02  0.1247719E+00
          2   -1    0    0  505    0 -0.00000000000E+00  0.00000000000E+00  0.15667774556E+04  0.15667774556E+04  0.00000000000E+00 0.  1.
         21   -1    0    0  503  502  0.00000000000E+00 -0.00000000000E+00 -0.23291111654E+02  0.23291111654E+02  0.00000000000E+00 0.  1.
         21    1    1    2  503  504  0.16633599690E+01 -0.73087598907E+02  0.23624317299E+03  0.24729618004E+03  0.00000000000E+00 0. -1.
         21    1    1    2  504  501 -0.26119293522E+02 -0.20336737446E+02  0.12954857076E+03  0.13371100392E+03  0.00000000000E+00 0.  1.
         21    1    1    2  505  502 -0.30326701874E+02  0.11757257469E+03  0.23543025835E+03  0.26489700963E+03  0.00000000000E+00 0.  1.
          2    1    1    2  501    0  0.54782635426E+02 -0.24148238339E+02  0.94226434184E+03  0.94416437364E+03  0.00000000000E+00 0.  1.
<scales pt_clust_3="30.36796" pt_clust_4="30.36796" pt_clust_5="108.20724" pt_clust_6="59.86881"></scales>
<clustering>
<clus scale="   30.368">  3  4 -1 -1</clus>
<clus scale="   59.869">  1  6  2 -1</clus>
<clus scale="  108.207">  2  5  1 -1</clus>
<clus scale="  108.207">  2  3  1 -1</clus>
</clustering>
</event>
<event>
 6    0  0.1230761E+002  0.2101631E+03  0.7546771E-02  0.1141437E+00
         21   -1    0    0  501  502  0.00000000000E+00  0.00000000000E+00  0.66491591880E+03  0.66491591880E+03  0.00000000000E+00 0.  1.
          2   -1    0    0  504    0 -0.00000000000E+00 -0.00000000000E+00 -0.89906628232E+03  0.89906628232E+03  0.00000000000E+00 0.  1.
         21    1    1    2  503  505  0.97548473705E+02  0.13183925345E+03  0.20499345071E+03  0.26252544316E+03  0.00000000000E+00 0.  1.
         21    1    1    2  504  503 -0.63131788613E+02  0.53681194733E+01 -0.70404006049E+02  0.94716226212E+02  0.00000000000E+00 0. -1.
         21    1    1    2  505  502  0.10612760870E+03 -0.46319952079E+02  0.40184110342E+03  0.41819239554E+03  0.00000000000E+00 0.  1.
          2    1    1    2  501    0 -0.14054429379E+03 -0.90887420845E+02 -0.77058091160E+03  0.78854813621E+03  0.00000000000E+00 0.  1.
<scales pt_clust_3="14000.00000" pt_clust_4="63.35960" pt_clust_5="115.19486" pt_clust_6="210.16308"></scales>
<clustering>
<clus scale="   63.360">  2  4  1 -1</clus>
<clus scale="  115.195">  1  5  2 -1</clus>
<clus scale="  210.163">  2  6  1 -1</clus>
<clus scale="  115.195">  1  3  2 -1</clus>
</clustering>
</event>
<event>
 6    0  0.1230761E+002  0.1250008E+03  0.7546771E-02  0.1235068E+00
          2   -1    0    0  505    0 -0.00000000000E+00  0.00000000000E+00  0.11348609544E+04  0.11348609544E+04  0.00000000000E+00 0.  1.
         21   -1    0    0  501  502  0.00000000000E+00 -0.00000000000E+00 -0.30920609595E+02  0.30920609595E+02  0.00000000000E+00 0. -1.
         21    1    1    2  503  504  0.28475265642E+02 -0.31080393630E+02  0.41592338475E+02  0.59217854077E+02  0.00000000000E+00 0. -1.
         21    1    1    2  504  502  0.82540964914E+02  0.75072092113E+01  0.87726653310E+02  0.12068692879E+03  0.00000000000E+00 0. -1.
         21    1    1    2  505  503 -0.77585207985E+01 -0.30804615703E+02  0.19559576039E+03  0.19815857407E+03  0.00000000000E+00 0.  1.
          2    1    1    2  501    0 -0.10325770976E+03  0.54377800122E+02  0.77902559265E+03  0.78771820709E+03  0.00000000000E+00 0.  1.
<scales pt_clust_3="38.15942" pt_clust_4="38.15942" pt_clust_5="31.76663" pt_clust_6="113.41587"></scales>
<clustering>
<clus scale="   31.767">  1  5  2 -1</clus>
<clus scale="   38.159">  3  4 -1 -1</clus>
<clus scale="  113.416">  1  6  2 -1</clus>
<clus scale="  125.001">  2  3  1 -1</clus>
</clustering>
</event>
<event>
 6    0  0.1230761E+002  0.9994043E+02  0.7546771E-02  0.1280421E+00
         21   -1    0    0  501  502  0.00000000000E+00  0.00000000000E+00  0.60156239698E+02  0.60156239698E+02  0.00000000000E+00 0.  1.
          1   -1    0    0  505    0 -0.00000000000E+00 -0.00000000000E+00 -0.56690410595E+03  0.56690410595E+03  0.00000000000E+00 0. -1.
         21    1    1    2  503  504  0.33573528425E+02  0.26110329505E+02 -0.96319020764E+01  0.43608538790E+02  0.00000000000E+00 0. -1.
         21    1    1    2  504  502  0.55771242028E+02 -0.32684765539E+01  0.64172583021E+01  0.56234291855E+02  0.00000000000E+00 0.  1.
         21    1    1    2  505  503  0.11830275755E+02 -0.49378114899E+02 -0.19164435406E+03  0.19825668236E+03  0.00000000000E+00 0.  1.
          1    1    1    2  501    0 -0.10117504621E+03  0.26536261948E+02 -0.31188886841E+03  0.32896083264E+03  0.00000000000E+00 0. -1.
<scales pt_clust_3="33.27079" pt_clust_4="33.27079" pt_clust_5="50.77552" pt_clust_6="92.38003"></scales>
<clustering>
<clus scale="   33.271">  3  4 -1 -1</clus>
<clus scale="   50.776">  2  5  1 -1</clus>
<clus scale="   92.380">  2  6  1 -1</clus>
<clus scale="   99.940">  1  3  2 -1</clus>
</clustering>
</event>
<event>
 6    0  0.1230761E+002  0.2577709E+03  0.7546771E-02  0.1108490E+00
          2   -1    0    0  503    0 -0.00000000000E+00  0.00000000000E+00  0.56093925687E+03  0.56093925687E+03  0.00000000000E+00 0. -1.
         21   -1    0    0  501  502  0.00000000000E+00 -0.00000000000E+00 -0.44906943620E+03  0.44906943620E+03  0.00000000000E+00 0. -1.
         21    1    1    2  503  505  0.20346523332E+02  0.28535329912E+02  0.18676028033E+02  0.39711964041E+02  0.00000000000E+00 0.  1.
         21    1    1    2  504  502  0.87683086765E+02 -0.15476048038E+03 -0.30710765718E+03  0.35490032839E+03  0.00000000000E+00 0. -1.
         21    1    1    2  505  504  0.61556542870E+02 -0.39165153450E+02 -0.62126067559E+02  0.95826747233E+02  0.00000000000E+00 0.  1.
          2    1    1    2  501    0 -0.16958615297E+03  0.16539030392E+03  0.46242751738E+03  0.51956965341E+03  0.00000000000E+00 0. -1.
<scales pt_clust_3="35.04634" pt_clust_4="53.48414" pt_clust_5="53.48414" pt_clust_6="243.93465"></scales>
<clustering>
<clus scale="   35.046">  1  3  2 -1</clus>
<clus scale="   53.484">  4  5 -1 -1</clus>
<clus scale="  243.935">  1  6  2 -1</clus>
<clus scale="  257.771">  2  3  1 -1</clus>
</clustering>
</event>
<event>
 6    0  0.1230761E+002  0.2568608E+03  0.7546771E-02  0.1109044E+00
         -2   -1    0    0    0  501 -0.00000000000E+00  0.00000000000E+00  0.16792917842E+03  0.16792917842E+03  0.00000000000E+00 0. -1.
         21   -1    0    0  505  502  0.00000000000E+00 -0.00000000000E+00 -0.11246989791E+04  0.11246989791E+04  0.00000000000E+00 0. -1.
         21    1    1    2  503  504  0.69146798835E+02 -0.68113574219E+02 -0.47180910707E+03  0.48168929020E+03  0.00000000000E+00 0. -1.
         21    1    1    2  504  502  0.14716908560E+03 -0.52748272920E+02 -0.51391973726E+03  0.53717279939E+03  0.00000000000E+00 0. -1.
         21    1    1    2  505  501  0.67279698803E+01  0.29482525487E+02 -0.39339176574E+01  0.30495255302E+02  0.00000000000E+00 0.  1.
         -2    1    1    2    0  503 -0.22304385432E+03  0.91379321652E+02  0.32892961303E+02  0.24327081263E+03  0.00000000000E+00 0. -1.
<scales pt_clust_3="55.71855" pt_clust_4="55.71855" pt_clust_5="30.24045" pt_clust_6="246.89880"></scales>
<clustering>
<clus scale="   30.240">  1  5  2 -1</clus>
<clus scale="   55.719">  3  4 -1 -1</clus>
<clus scale="  246.899">  1  6  2 -1</clus>
<clus scale="  256.861">  2  3  1 -1</clus>
</clustering>
</event>
<event>
 6    0  0.1230761E+002  0.1174322E+03  0.7546771E-02  0.1247394E+00
         21   -1    0    0  505  502  0.00000000000E+00  0.00000000000E+00  0.21670811300E+03  0.21670811300E+03  0.00000000000E+00 0. -1.
         -1   -1    0    0    0  501 -0.00000000000E+00 -0.00000000000E+00 -0.87023980338E+03  0.87023980338E+03  0.00000000000E+00 0. -1.
         21    1    1    2  503  504 -0.39936775188E+01 -0.10014884441E+03 -0.63639934240E+02  0.11872565741E+03  0.00000000000E+00 0. -1.
         21    1    1    2  504  502  0.10309615171E+02 -0.41476708197E+02  0.13115421542E+03  0.13794213899E+03  0.00000000000E+00 0. -1.
         21    1    1    2  505  501  0.33336458455E+02  0.26786119532E+02  0.40622446902E+02  0.58983038699E+02  0.00000000000E+00 0. -1.
         -1    1    1    2    0  503 -0.39652396107E+02  0.11483943307E+03 -0.76166841846E+03  0.77129708128E+03  0.00000000000E+00 0. -1.
<scales pt_clust_3="14000.00000" pt_clust_4="42.73881" pt_clust_5="39.61995" pt_clust_6="117.43223"></scales>
<clustering>
<clus scale="   42.739">  1  4  2 -1</clus>
<clus scale="   39.620">  1  5  2 -1</clus>
<clus scale="  117.432">  2  6  1 -1</clus>
<clus scale="   42.739">  1  3  2 -1</clus>
</clustering>
</event>
<event>
 6    0  0.1230761E+002  0.1333929E+03  0.7546771E-02  0.1222506E+00
         21   -1    0    0  505  502  0.00000000000E+00  0.00000000000E+00  0.13970320507E+03  0.13970320507E+03  0.00000000000E+00 0. -1.
          2   -1    0    0  503    0 -0.00000000000E+00 -0.00000000000E+00 -0.15167109240E+04  0.15167109240E+04  0.00000000000E+00 0. -1.
         21    1    1    2  503  502 -0.34167747519E+02 -0.47670216808E+01 -0.17408570851E+03  0.17747110574E+03  0.00000000000E+00 0.  1.
         21    1    1    2  504  501  0.47495378794E+02 -0.10620258547E+01  0.11198485333E+02  0.48809271450E+02  0.00000000000E+00 0. -1.
         21    1    1    2  505  504  0.77280280264E+02  0.81592470737E+01  0.92252275289E+02  0.12062046811E+03  0.00000000000E+00 0. -1.
          2    1    1    2  501    0 -0.90607911539E+02 -0.23301995382E+01 -0.13063727710E+04  0.13095132838E+04  0.00000000000E+00 0. -1.
<scales pt_clust_3="34.49869" pt_clust_4="38.08184" pt_clust_5="38.08184" pt_clust_6="124.13146"></scales>
<clustering>
<clus scale="   34.499">  2  3  1 -1</clus>
<clus scale="   38.082">  4  5 -1 -1</clus>
<clus scale="  124.131">  2  6  1 -1</clus>
<clus scale="  133.393">  1  3  2 -1</clus>
</clustering>
</event>
<event>
 6    0  0.1230761E+002  0.9700870E+02  0.7546771E-02  0.1286715E+00
          2   -1    0    0  504    0 -0.00000000000E+00  0.00000000000E+00  0.12204372607E+04  0.12204372607E+04  0.00000000000E+00 0.  1.
         21   -1    0    0  503  502  0.00000000000E+00 -0.00000000000E+00 -0.29163626774E+03  0.29163626774E+03  0.00000000000E+00 0. -1.
         21    1    1    2  503  501  0.24193596705E+02 -0.85974628846E+02 -0.24951856259E+03  0.26502165949E+03  0.00000000000E+00 0. -1.
         21    1    1    2  504  505  0.21651375568E+01  0.92018963300E+02  0.52689923990E+03  0.53487847820E+03  0.00000000000E+00 0.  1.
         21    1    1    2  505  502  0.32076202228E+02  0.56352589615E+01 -0.19931207194E+02  0.38182350807E+02  0.00000000000E+00 0. -1.
          2    1    1    2  501    0 -0.58434936490E+02 -0.11679593415E+02  0.67135152285E+03  0.67399103996E+03  0.00000000000E+00 0.  1.
<scales pt_clust_3="14000.00000" pt_clust_4="97.00870" pt_clust_5="32.56745" pt_clust_6="59.42708"></scales>
<clustering>
<clus scale="   32.567">  2  5  1 -1</clus>
<clus scale="   59.427">  1  6  2 -1</clus>
<clus scale="   97.009">  1  4  2 -1</clus>
<clus scale="   32.567">  2  3  1 -1</clus>
</clustering>
</event>
<event>
 6    0  0.1230761E+002  0.9910319E+02  0.7546771E-02  0.1282193E+00
         21   -1    0    0  503  502  0.00000000000E+00  0.00000000000E+00  0.43225128426E+03  0.43225128426E+03  0.00000000000E+00 0.  1.
          2   -1    0    0  504    0 -0.00000000000E+00 -0.00000000000E+00 -0.26378186638E+03  0.26378186638E+03  0.00000000000E+00 0.  1.
         21    1    1    2  503  501 -0.42539737985E+02  0.74906743477E+02  0.35497223960E+03  0.36527515712E+03  0.00000000000E+00 0.  1.
         21    1    1    2  504  505 -0.40291644594E+02 -0.61114118566E+02 -0.60371695071E+02  0.94884633518E+02  0.00000000000E+00 0.  1.
         21    1    1    2  505  502 -0.38446303962E+02 -0.13554846587E+02  0.20464428825E+02  0.45614087752E+02  0.00000000000E+00 0.  1.
          2    1    1    2  501    0  0.12127768654E+03 -0.23777832486E+00 -0.14659555547E+03  0.19025927224E+03  0.00000000000E+00 0.  1.
<scales pt_clust_3="99.10319" pt_clust_4="74.61230" pt_clust_5="40.76582" pt_clust_6="14000.00000"></scales>
<clustering>
<clus scale="   40.766">  1  5  2 -1</clus>
<clus scale="   74.612">  2  4  1 -1</clus>
<clus scale="   99.103">  1  3  2 -1</clus>
<clus scale="   40.766">  1  3  2 -1</clus>
</clustering>
</event>
<event>
 6    0  0.1230761E+002  0.2021412E+03  0.7546771E-02  0.1147945E+00
          2   -1    0    0  505    0 -0.00000000000E+00  0.00000000000E+00  0.32527015579E+03  0.32527015579E+03  0.00000000000E+00 0.  1.
         21   -1    0    0  503  502  0.00000000000E+00 -0.00000000000E+00 -0.11157745448E+04  0.11157745448E+04  0.00000000000E+00 0.  1.
         21    1    1    2  503  504 -0.91226699029E+02  0.10884758511E+03 -0.88348682245E+03  0.89482907465E+03  0.00000000000E+00 0.  1.
         21    1    1    2  504  501 -0.75137365509E+01  0.52216132900E+02 -0.17407875624E+03  0.18189665787E+03  0.00000000000E+00 0.  1.
         21    1    1    2  505  502 -0.36851142980E+02 -0.25876711668E+02  0.14341475638E+02  0.47257685821E+02  0.00000000000E+00 0. -1.
          2    1    1    2  501    0  0.13559157856E+03 -0.13518700634E+03  0.25271971402E+03  0.31706128227E+03  0.00000000000E+00 0.  1.
<scales pt_clust_3="43.95843" pt_clust_4="43.95843" pt_clust_5="45.02900" pt_clust_6="188.83568"></scales>
<clustering>
<clus scale="   43.958">  3  4 -1 -1</clus>
<clus scale="   45.029">  1  5  2 -1</clus>
<clus scale="  188.836">  1  6  2 -1</clus>
<clus scale="  202.141">  2  3  1 -1</clus>
</clustering>
</event>
<event>
 6    0  0.1230761E+002  0.1011701E+03  0.7546771E-02  0.1277854E+00
         21   -1    0    0  503  502  0.00000000000E+00  0.00000000000E+00  0.41946864805E+03  0.41946864805E+03  0.00000000000E+00 0.  1.
          2   -1    0    0  505    0 -0.00000000000E+00 -0.00000000000E+00 -0.11844429552E+04  0.11844429552E+04  0.00000000000E+00 0.  1.
         21    1    1    2  503  501  0.78393431169E+02  0.87814965224E+01 -0.59322235116E+02  0.98700416973E+02  0.00000000000E+00 0.  1.
         21    1    1    2  504  502  0.99851314153E+01 -0.43804547548E+02  0.27336650426E+03  0.27703390927E+03  0.00000000000E+00 0.  1.
         21    1    1    2  505  504 -0.20299399776E+02 -0.42006487491E+02  0.11772173108E+03  0.12662944599E+03  0.00000000000E+00 0.  1.
          2    1    1    2  501    0 -0.68079162808E+02  0.77029538517E+02 -0.10967403073E+04  0.11015478310E+04  0.00000000000E+00 0.  1.
<scales pt_clust_3="79.80540" pt_clust_4="44.92818" pt_clust_5="101.17011" pt_clust_6="14000.00000"></scales>
<clustering>
<clus scale="   44.928">  1  4  2 -1</clus>
<clus scale="   79.805">  1  3  2 -1</clus>
<clus scale="  101.170">  1  5  2 -1</clus>
<clus scale="   44.928">  1  3  2 -1</clus>
</clustering>
</event>
<event>
 6    0  0.1230761E+002  0.8915712E+02  0.7546771E-02  0.1304906E+00
          2   -1    0    0  505    0 -0.00000000000E+00  0.00000000000E+00  0.13924246589E+04  0.13924246589E+04  0.00000000000E+00 0.  1.
         21   -1    0    0  504  502  0.00000000000E+00 -0.00000000000E+00 -0.20932758295E+02  0.20932758295E+02  0.00000000000E+00 0.  1.
         21    1    1    2  503  501  0.18039898935E+02 -0.64417091462E+02  0.19805429861E+03  0.20904665705E+03  0.00000000000E+00 0.  1.
         21    1    1    2  504  503  0.10374073798E+02 -0.31776744090E+02  0.25578623720E+02  0.42090959404E+02  0.00000000000E+00 0.  1.
         21    1    1    2  505  502 -0.49808934890E+02 -0.25582243450E+02  0.45284665444E+03  0.45629537978E+03  0.00000000000E+00 0. -1.
          2    1    1    2  501    0  0.21394962157E+02  0.12177607900E+03  0.69501232388E+03  0.70592442100E+03  0.00000000000E+00 0.  1.
<scales pt_clust_3="14000.00000" pt_clust_4="33.42728" pt_clust_5="56.89147" pt_clust_6="89.15712"></scales>
<clustering>
<clus scale="   33.427">  2  4  1 -1</clus>
<clus scale="   56.891">  1  5  2 -1</clus>
<clus scale="   89.157">  1  6  2 -1</clus>
<clus scale="   33.427">  2  3  1 -1</clus>
</clustering>
</event>
<event>
 6    0  0.1230761E+002  0.1259554E+03  0.7546771E-02  0.1233584E+00
         21   -1    0    0  503  502  0.00000000000E+00  0.00000000000E+00  0.91825703974E+02  0.91825703974E+02  0.00000000000E+00 0. -1.
          2   -1    0    0  504    0 -0.00000000000E+00 -0.00000000000E+00 -0.56039347328E+03  0.56039347328E+03  0.00000000000E+00 0. -1.
         21    1    1    2  503  505 -0.32806230358E+02  0.60692159302E+02  0.22827386767E+02  0.72669639725E+02  0.00000000000E+00 0. -1.
         21    1    1    2  504  502 -0.24326743353E+02 -0.73455846193E+02 -0.31489746335E+03  0.32426526827E+03  0.00000000000E+00 0. -1.
         21    1    1    2  505  501  0.12056160954E+02  0.62126035830E+02  0.33919244898E+01  0.63375866831E+02  0.00000000000E+00 0.  1.
          2    1    1    2  501    0  0.45076812757E+02 -0.49362348939E+02 -0.17988961721E+03  0.19190840243E+03  0.00000000000E+00 0. -1.
<scales pt_clust_3="45.99263" pt_clust_4="116.44183" pt_clust_5="45.99263" pt_clust_6="66.84729"></scales>
<clustering>
<clus scale="   45.993">  3  5 -1 -1</clus>
<clus scale="   66.847">  2  6  1 -1</clus>
<clus scale="  116.442">  2  4  1 -1</clus>
<clus scale="  125.955">  1  3  2 -1</clus>
</clustering>
</event>
<event>
 6    0  0.1230761E+002  0.1441441E+03  0.7546771E-02  0.1207859E+00
         21   -1    0    0  503  502  0.00000000000E+00  0.00000000000E+00  0.11431572864E+03  0.11431572864E+03  0.00000000000E+00 0. -1.
          1   -1    0    0  505    0 -0.00000000000E+00 -0.00000000000E+00 -0.46500889622E+03  0.46500889622E+03  0.00000000000E+00 0. -1.
         21    1    1    2  503  501  0.23685609350E+02 -0.30602311321E+02  0.35183017044E+02  0.52300614114E+02  0.00000000000E+00 0. -1.
         21    1    1    2  504  502 -0.83877228408E+01  0.86030092835E+02 -0.18387190855E+02  0.88372051889E+02  0.00000000000E+00 0. -1.
         21    1    1    2  505  504  0.15807243086E+02  0.75381171379E+02 -0.44874159315E+02  0.89139666293E+02  0.00000000000E+00 0. -1.
          1    1    1    2  501    0 -0.31105129595E+02 -0.13080895289E+03 -0.32261483446E+03  0.34951229257E+03  0.00000000000E+00 0. -1.
<scales pt_clust_3="38.69767" pt_clust_4="35.31662" pt_clust_5="35.31662" pt_clust_6="139.20404"></scales>
<clustering>
<clus scale="   35.317">  4  5 -1 -1</clus>
<clus scale="   38.698">  1  3  2 -1</clus>
<clus scale="  139.204">  2  6  1 -1</clus>
<clus scale="   38.698">  1  3  2 -1</clus>
</clustering>
</event>
<event>
 6    0  0.1230761E+002  0.9569624E+02  0.7546771E-02  0.1289616E+00
         -1   -1    0    0    0  501 -0.00000000000E+00  0.00000000000E+00  0.11498738249E+04  0.11498738249E+04  0.00000000000E+00 0.  1.
         21   -1    0    0  505  502  0.00000000000E+00 -0.00000000000E+00 -0.34043082750E+02  0.34043082750E+02  0.00000000000E+00 0. -1.
         21    1    1    2  503  501 -0.30797797923E+02 -0.61808508028E+02  0.38304424490E+03  0.38921933350E+03  0.00000000000E+00 0. -1.
         21    1    1    2  504  502  0.27577028941E+02  0.17446730186E+02  0.48571906074E+02  0.58515903642E+02  0.00000000000E+00 0. -1.
         21    1    1    2  505  503 -0.48495093366E+02  0.88266350133E+02  0.81214178968E+02  0.12937722177E+03  0.00000000000E+00 0. -1.
         -1    1    1    2    0  504  0.51715862348E+02 -0.43904572290E+02  0.60300041220E+03  0.60680444873E+03  0.00000000000E+00 0.  1.
<scales pt_clust_3="66.11615" pt_clust_4="32.63251" pt_clust_5="95.69624" pt_clust_6="14000.00000"></scales>
<clustering>
<clus scale="   32.633">  2  4  1 -1</clus>
<clus scale="   66.116">  1  3  2 -1</clus>
<clus scale="   95.696">  2  5  1 -1</clus>
<clus scale="   32.633">  2  3  1 -1</clus>
</clustering>
</event>
<event>
 6    0  0.1230761E+002  0.8771135E+02  0.7546771E-02  0.1308491E+00
         21   -1    0    0  501  502  0.00000000000E+00  0.00000000000E+00  0.29332481271E+03  0.29332481271E+03  0.00000000000E+00 0.  1.
          2   -1    0    0  504    0 -0.00000000000E+00 -0.00000000000E+00 -0.10743096961E+04  0.10743096961E+04  0.00000000000E+00 0. -1.
         21    1    1    2  503  502  0.34739653694E+02 -0.45108411439E+01  0.18766763462E+03  0.19090922531E+03  0.00000000000E+00 0.  1.
         21    1    1    2  504  505 -0.17290910248E+01 -0.36467567980E+02 -0.19323275165E+03  0.19665139100E+03  0.00000000000E+00 0. -1.
         21    1    1    2  505  503 -0.54186686829E+02 -0.79803737045E+02  0.74170199837E+02  0.12168012171E+03  0.00000000000E+00 0. -1.
          2    1    1    2  501    0  0.21176124160E+02  0.12078214617E+03 -0.84958996616E+03  0.85839377076E+03  0.00000000000E+00 0. -1.
<scales pt_clust_3="35.03129" pt_clust_4="36.56004" pt_clust_5="87.71135" pt_clust_6="14000.00000"></scales>
<clustering>
<clus scale="   35.031">  1  3  2 -1</clus>
<clus scale="   36.560">  2  4  1 -1</clus>
<clus scale="   87.711">  1  5  2 -1</clus>
<clus scale="   35.031">  1  3  2 -1</clus>
</clustering>
</event>
<event>
 6    0  0.1230761E+002  0.1403538E+03  0.7546771E-02  0.1212854E+00
         -1   -1    0    0    0  501 -0.00000000000E+00  0.00000000000E+00  0.97919766245E+03  0.97919766245E+03  0.00000000000E+00 0.  1.
         21   -1    0    0  505  502  0.00000000000E+00 -0.00000000000E+00 -0.14750380458E+03  0.14750380458E+03  0.00000000000E+00 0.  1.
         21    1    1    2  503  501  0.15174289198E+02  0.35391658302E+02  0.37222640718E+03  0.37421294303E+03  0.00000000000E+00 0.  1.
         21    1    1    2  504  503 -0.14625337931E+03  0.60608490153E+02  0.33476796970E+01  0.15834976160E+03  0.00000000000E+00 0.  1.
         21    1    1    2  505  504  0.13118790994E+03  0.43898762338E+01  0.43331479193E+01  0.13133284014E+03  0.00000000000E+00 0.  1.
         -1    1    1    2    0  502 -0.10881982239E+00 -0.10039002469E+03  0.45178662308E+03  0.46280592227E+03  0.00000000000E+00 0.  1.
<scales pt_clust_3="38.50751" pt_clust_4="140.35379" pt_clust_5="14000.00000" pt_clust_6="74.54989"></scales>
<clustering>
<clus scale="   38.508">  1  3  2 -1</clus>
<clus scale="   74.550">  1  6  2 -1</clus>
<clus scale="  140.354">  1  4  2 -1</clus>
<clus scale="  140.354">  2  3  1 -1</clus>
</clustering>
</event>
<event>
 6    0  0.1230761E+002  0.7262407E+02  0.7546771E-02  0.1351390E+00
          2   -1    0    0  503    0 -0.00000000000E+00  0.00000000000E+00  0.26628131278E+04  0.26628131278E+04  0.00000000000E+00 0.  1.
         21   -1    0    0  505  502  0.00000000000E+00 -0.00000000000E+00 -0.11904826345E+02  0.11904826345E+02  0.00000000000E+00 0.  1.
         21    1    1    2  503  504 -0.46591710323E+02  0.24171665260E+02  0.59067215890E+03  0.59299971010E+03  0.00000000000E+00 0. -1.
         21    1    1    2  504  502  0.32391009760E+02  0.33915711812E+02  0.13284983073E+03  0.14088481304E+03  0.00000000000E+00 0.  1.
         21    1    1    2  505  501 -0.49797777554E+02  0.17343586429E+02  0.12413390997E+03  0.13486973806E+03  0.00000000000E+00 0.  1.
          2    1    1    2  501    0  0.63998478117E+02 -0.75430963501E+02  0.18032524018E+04  0.18059636929E+04  0.00000000000E+00 0.  1.
<scales pt_clust_3="72.62407" pt_clust_4="46.89833" pt_clust_5="49.03556" pt_clust_6="14000.00000"></scales>
<clustering>
<clus scale="   46.898">  2  4  1 -1</clus>
<clus scale="   49.036">  2  5  1 -1</clus>
<clus scale="   72.624">  1  3  2 -1</clus>
<clus scale="   46.898">  2  3  1 -1</clus>
</clustering>
</event>
<event>
 6    0  0.1230761E+002  0.2302393E+03  0.7546771E-02  0.1126471E+00
         21   -1    0    0  501  502  0.00000000000E+00  0.00000000000E+00  0.11653145858E+03  0.11653145858E+03  0.00000000000E+00 0. -1.
          2   -1    0    0  504    0 -0.00000000000E+00 -0.00000000000E+00 -0.11073576616E+04  0.11073576616E+04  0.00000000000E+00 0. -1.
         21    1    1    2  503  505 -0.42625997694E+02  0.14283124623E+03 -0.32488792230E+03  0.35744916091E+03  0.00000000000E+00 0. -1.
         21    1    1    2  504  503 -0.26502727463E+02  0.14430790245E+03 -0.40573611630E+03  0.43144983642E+03  0.00000000000E+00 0. -1.
         21    1    1    2  505  502  0.43357005227E+02 -0.20996228657E+03 -0.65824462607E+02  0.22426959572E+03  0.00000000000E+00 0. -1.
          2    1    1    2  501    0  0.25771719930E+02 -0.77176862108E+02 -0.19437770180E+03  0.21072052712E+03  0.00000000000E+00 0. -1.
<scales pt_clust_3="36.07986" pt_clust_4="36.07986" pt_clust_5="227.34923" pt_clust_6="81.36615"></scales>
<clustering>
<clus scale="   36.080">  3  4 -1 -1</clus>
<clus scale="   81.366">  2  6  1 -1</clus>
<clus scale="  227.349">  1  5  2 -1</clus>
<clus scale="  227.349">  1  3  2 -1</clus>
</clustering>
</event>
<event>
 6    0  0.1230761E+002  0.1285897E+03  0.7546771E-02  0.1229564E+00
          2   -1    0    0  504    0 -0.00000000000E+00  0.00000000000E+00  0.70327662052E+03  0.70327662052E+03  0.00000000000E+00 0. -1.
         21   -1    0    0  501  502  0.00000000000E+00 -0.00000000000E+00 -0.60198578131E+03  0.60198578131E+03  0.00000000000E+00 0.  1.
         21    1    1    2  503  502  0.48201096866E+02  0.29277815428E+02 -0.40140138489E+03  0.40534381457E+03  0.00000000000E+00 0.  1.
         21    1    1    2  504  505  0.33121331016E+02  0.10493247532E+03  0.33393972136E+03  0.35160145683E+03  0.00000000000E+00 0. -1.
         21    1    1    2  505  503  0.65488454311E+02  0.14474112866E+02 -0.15163994681E+03  0.16580986418E+03  0.00000000000E+00 0. -1.
          2    1    1    2  501    0 -0.14681088219E+03 -0.14868440362E+03  0.32039244954E+03  0.38250726625E+03  0.00000000000E+00 0. -1.
<scales pt_clust_3="56.39624" pt_clust_4="128.58965" pt_clust_5="110.68958" pt_clust_6="14000.00000"></scales>
<clustering>
<clus scale="   56.396">  2  3  1 -1</clus>
<clus scale="  110.690">  2  5  1 -1</clus>
<clus scale="  128.590">  1  4  2 -1</clus>
<clus scale="   56.396">  2  3  1 -1</clus>
</clustering>
</event>
<event>
 6    0  0.1230761E+002  0.1158290E+03  0.7546771E-02  0.1250141E+00
          1   -1    0    0  503    0 -0.00000000000E+00  0.00000000000E+00  0.16106999731E+04  0.16106999731E+04  0.00000000000E+00 0. -1.
         21   -1    0    0  504  502  0.00000000000E+00 -0.00000000000E+00 -0.26383684488E+03  0.26383684488E+03  0.00000000000E+00 0.  1.
         21    1    1    2  503  505  0.48094657896E+02  0.44652909430E+02  0.73730668838E+03  0.74022167705E+03  0.00000000000E+00 0. -1.
         21    1    1    2  504  501 -0.18449649773E+03 -0.29681896227E+02 -0.20009237899E+03  0.27378263782E+03  0.00000000000E+00 0.  1.
         21    1    1    2  505  502  0.66310936325E+02  0.44720423665E+02  0.47874046659E+02  0.93214703307E+02  0.00000000000E+00 0.  1.
          1    1    1    2  501    0  0.70090903510E+02 -0.59691436869E+02  0.76177477216E+03  0.76731779980E+03  0.00000000000E+00 0. -1.
<scales pt_clust_3="65.62757" pt_clust_4="115.82898" pt_clust_5="85.23155" pt_clust_6="14000.00000"></scales>
<clustering>
<clus scale="   65.628">  1  3  2 -1</clus>
<clus scale="   85.232">  2  5  1 -1</clus>
<clus scale="  115.829">  2  4  1 -1</clus>
<clus scale="   85.232">  2  3  1 -1</clus>
</clustering>
</event>
<event>
 6    0  0.1230761E+002  0.9367445E+02  0.7546771E-02  0.1294190E+00
          2   -1    0    0  505    0 -0.00000000000E+00  0.00000000000E+00  0.30199976225E+04  0.30199976225E+04  0.00000000000E+00 0.  1.
         21   -1    0    0  504  502  0.00000000000E+00 -0.00000000000E+00 -0.78611738570E+02  0.78611738570E+02  0.00000000000E+00 0.  1.
         21    1    1    2  503  502 -0.54376204242E+02 -0.74413032351E+02  0.91020755620E+01  0.92611655589E+02  0.00000000000E+00 0.  1.
         21    1    1    2  504  501 -0.34547443625E+02  0.42596709232E+02 -0.12418165051E+02  0.56233587132E+02  0.00000000000E+00 0. -1.
         21    1    1    2  505  503  0.12825378237E+02 -0.47680641999E+02  0.46342428260E+03  0.46604720754E+03  0.00000000000E+00 0.  1.
          2    1    1    2  501    0  0.76098269630E+02  0.79496965117E+02  0.24812776909E+04  0.24837169109E+04  0.00000000000E+00 0.  1.
<scales pt_clust_3="93.67445" pt_clust_4="54.45880" pt_clust_5="49.37544" pt_clust_6="14000.00000"></scales>
<clustering>
<clus scale="   49.375">  1  5  2 -1</clus>
<clus scale="   54.459">  2  4  1 -1</clus>
<clus scale="   93.674">  2  3  1 -1</clus>
<clus scale="   54.459">  2  3  1 -1</clus>
</clustering>
</event>
<event>
 6    0  0.1230761E+002  0.1392121E+03  0.7546771E-02  0.1214393E+00
         21   -1    0    0  503  502  0.00000000000E+00  0.00000000000E+00  0.15262929942E+03  0.15262929942E+03  0.00000000000E+00 0. -1.
         -2   -1    0    0    0  501 -0.00000000000E+00 -0.00000000000E+00 -0.60534751634E+03  0.60534751634E+03  0.00000000000E+00 0.  1.
         21    1    1    2  503  504 -0.91460250789E+02 -0.11064810944E+03  0.86042032563E+02  0.16736550709E+03  0.00000000000E+00 0. -1.
         21    1    1    2  504  501 -0.22986937567E+02  0.69441508689E+02 -0.26482241890E+03  0.27473885051E+03  0.00000000000E+00 0.  1.
         21    1    1    2  505  502  0.24425976824E+02 -0.24181307102E+02 -0.22950234875E+02  0.41328891079E+02  0.00000000000E+00 0.  1.
         -2    1    1    2    0  505  0.90021211532E+02  0.65387907854E+02 -0.25098759571E+03  0.27454356707E+03  0.00000000000E+00 0.  1.
<scales pt_clust_3="139.21213" pt_clust_4="72.09043" pt_clust_5="34.37098" pt_clust_6="14000.00000"></scales>
<clustering>
<clus scale="   34.371">  1  5  2 -1</clus>
<clus scale="   72.090">  2  4  1 -1</clus>
<clus scale="  139.212">  1  3  2 -1</clus>
<clus scale="   34.371">  1  3  2 -1</clus>
</clustering>
</event>
<event>
 6    0  0.1230761E+002  0.2596937E+03  0.7546771E-02  0.1107327E+00
          2   -1    0    0  502    0 -0.00000000000E+00  0.00000000000E+00  0.17933912143E+03  0.17933912143E+03  0.00000000000E+00 0.  1.
         21   -1    0    0  504  502  0.00000000000E+00 -0.00000000000E+00 -0.48173853746E+03  0.48173853746E+03  0.00000000000E+00 0.  1.
         21    1    1    2  503  501  0.76753396945E+02 -0.65092892116E+01 -0.89627849322E+02  0.11818039669E+03  0.00000000000E+00 0.  1.
         21    1    1    2  504  505  0.61259101610E+02  0.46107336205E+02 -0.14350194072E+03  0.16270024884E+03  0.00000000000E+00 0. -1.
         21    1    1    2  505  503  0.92942432672E+02  0.34966753512E+02 -0.93376859533E+02  0.13630923497E+03  0.00000000000E+00 0.  1.
          2    1    1    2  501    0 -0.23095493123E+03 -0.74564800506E+02  0.24107233546E+02  0.24388777838E+03  0.00000000000E+00 0.  1.
<scales pt_clust_3="35.96766" pt_clust_4="51.33553" pt_clust_5="51.33553" pt_clust_6="242.69341"></scales>
<clustering>
<clus scale="   35.968">  3  5 -1 -1</clus>
<clus scale="   51.336">  3  4 -1 -1</clus>
<clus scale="  242.693">  1  6  2 -1</clus>
<clus scale="  259.694">  2  3  1 -1</clus>
</clustering>
</event>
<event>
 6    0  0.1230761E+002  0.1060316E+03  0.7546771E-02  0.1268100E+00
          2   -1    0    0  504    0 -0.00000000000E+00  0.00000000000E+00  0.21378472547E+03  0.21378472547E+03  0.00000000000E+00 0. -1.
         21   -1    0    0  501  502  0.00000000000E+00 -0.00000000000E+00 -0.13313224546E+03  0.13313224546E+03  0.00000000000E+00 0. -1.
         21    1    1    2  503  505 -0.43831900207E+02  0.28732416733E+01 -0.12714981507E+02  0.45729222038E+02  0.00000000000E+00 0. -1.
         21    1    1    2  504  503 -0.66740198737E+02 -0.12054052700E+02  0.78252820930E+02  0.10355220083E+03  0.00000000000E+00 0. -1.
         21    1    1    2  505  502 -0.26233191784E+02 -0.38371688270E+02 -0.16622918738E+02  0.49364848215E+02  0.00000000000E+00 0. -1.
          2    1    1    2  501    0  0.13680529073E+03  0.47552499297E+02  0.31737559321E+02  0.14827069984E+03  0.00000000000E+00 0. -1.
<scales pt_clust_3="43.61454" pt_clust_4="67.82001" pt_clust_5="43.61454" pt_clust_6="96.07178"></scales>
<clustering>
<clus scale="   43.615">  3  5 -1 -1</clus>
<clus scale="   67.820">  1  4  2 -1</clus>
<clus scale="   96.072">  1  6  2 -1</clus>
<clus scale="  106.032">  2  3  1 -1</clus>
</clustering>
</event>
<event>
 6    0  0.1230761E+002  0.1062110E+03  0.7546771E-02  0.1267752E+00
         21   -1    0    0  505  502  0.00000000000E+00  0.00000000000E+00  0.91434937158E+03  0.91434937158E+03  0.00000000000E+00 0.  1.
          1   -1    0    0  503    0 -0.00000000000E+00 -0.00000000000E+00 -0.10157967891E+04  0.10157967891E+04  0.00000000000E+00 0.  1.
         21    1    1    2  503  504 -0.40928128801E+02  0.90872226140E+02 -0.55282527627E+03  0.56173717991E+03  0.00000000000E+00 0.  1.
         21    1    1    2  504  502 -0.31022947771E+02  0.70280830567E+01  0.20719736661E+03  0.20962482193E+03  0.00000000000E+00 0.  1.
         21    1    1    2  505  501 -0.28507915811E+02 -0.18113833120E+02  0.69206507550E+03  0.69288879406E+03  0.00000000000E+00 0.  1.
          1    1    1    2  501    0  0.10045899238E+03 -0.79786476077E+02 -0.44788458333E+03  0.46589536475E+03  0.00000000000E+00 0.  1.
<scales pt_clust_3="14000.00000" pt_clust_4="31.80907" pt_clust_5="59.99770" pt_clust_6="106.21099"></scales>
<clustering>
<clus scale="   31.809">  1  4  2 -1</clus>
<clus scale="   59.998">  1  5  2 -1</clus>
<clus scale="  106.211">  1  6  2 -1</clus>
<clus scale="   31.809">  1  3  2 -1</clus>
</clustering>
</event>
<event>
 6    0  0.1230761E+002  0.1417091E+03  0.7546771E-02  0.1211048E+00
         21   -1    0    0  501  502  0.00000000000E+00  0.00000000000E+00  0.30507494966E+02  0.30507494966E+02  0.00000000000E+00 0. -1.
          2   -1    0    0  503    0 -0.00000000000E+00 -0.00000000000E+00 -0.12810515594E+04  0.12810515594E+04  0.00000000000E+00 0. -1.
         21    1    1    2  503  504  0.28486925913E+02  0.57494134715E+02 -0.54645217438E+03  0.55020637888E+03  0.00000000000E+00 0. -1.
         21    1    1    2  504  505  0.11328386081E+02  0.60305955823E+02 -0.20320810510E+03  0.21227028670E+03  0.00000000000E+00 0. -1.
         21    1    1    2  505  502  0.53395827659E+02 -0.15377379485E+02 -0.41709070029E+02  0.69478232087E+02  0.00000000000E+00 0. -1.
          2    1    1    2  501    0 -0.93211139653E+02 -0.10242271105E+03 -0.45917471491E+03  0.47960415668E+03  0.00000000000E+00 0. -1.
<scales pt_clust_3="60.76288" pt_clust_4="60.76288" pt_clust_5="55.56598" pt_clust_6="127.13563"></scales>
<clustering>
<clus scale="   55.566">  1  5  2 -1</clus>
<clus scale="   60.763">  3  4 -1 -1</clus>
<clus scale="  127.136">  1  6  2 -1</clus>
<clus scale="   55.566">  1  3  2 -1</clus>
</clustering>
</event>
<event>
 6    0  0.1230761E+002  0.1180413E+03  0.7546771E-02  0.1246364E+00
          2   -1    0    0  504    0 -0.00000000000E+00  0.00000000000E+00  0.27726428275E+04  0.27726428275E+04  0.00000000000E+00 0. -1.
         21   -1    0    0  505  502  0.00000000000E+00 -0.00000000000E+00 -0.55033014213E+03  0.55033014213E+03  0.00000000000E+00 0.  1.
         21    1    1    2  503  502 -0.18944910522E+02 -0.30244090954E+02 -0.56457590042E+02  0.66791272976E+02  0.00000000000E+00 0. -1.
         21    1    1    2  504  503 -0.51923277938E+02  0.29680835091E+02  0.27113488079E+03  0.27765284501E+03  0.00000000000E+00 0.  1.
         21    1    1    2  505  501 -0.72154799148E+02 -0.45246790280E+02 -0.47942861358E+03  0.48693468000E+03  0.00000000000E+00 0.  1.
          2    1    1    2  501    0  0.14302298761E+03  0.45810046143E+02  0.24870640082E+04  0.24915941717E+04  0.00000000000E+00 0. -1.
<scales pt_clust_3="35.68774" pt_clust_4="59.81791" pt_clust_5="118.04128" pt_clust_6="14000.00000"></scales>
<clustering>
<clus scale="   35.688">  2  3  1 -1</clus>
<clus scale="   59.818">  1  4  2 -1</clus>
<clus scale="  118.041">  2  5  1 -1</clus>
<clus scale="   35.688">  2  3  1 -1</clus>
</clustering>
</event>
<event>
 6    0  0.1230761E+002  0.2061198E+03  0.7546771E-02  0.1144676E+00
         21   -1    0    0  504  502  0.00000000000E+00  0.00000000000E+00  0.77936164615E+03  0.77936164615E+03  0.00000000000E+00 0.  1.
          1   -1    0    0  505    0 -0.00000000000E+00 -0.00000000000E+00 -0.25690446241E+03  0.25690446241E+03  0.00000000000E+00 0. -1.
         21    1    1    2  503  501  0.41760645140E+01 -0.44958258896E+02 -0.12862180284E+02  0.46948058952E+02  0.00000000000E+00 0. -1.
         21    1    1    2  504  503 -0.91024770927E+02  0.16709380367E+03  0.68039711788E+03  0.70650271490E+03  0.00000000000E+00 0.  1.
         21    1    1    2  505  502 -0.45686910212E+02  0.73926460456E+01  0.18497752203E+01  0.46318102818E+02  0.00000000000E+00 0. -1.
          1    1    1    2  501    0  0.13253561663E+03 -0.12952819082E+03 -0.14692752907E+03  0.23649723189E+03  0.00000000000E+00 0. -1.
<scales pt_clust_3="37.17739" pt_clust_4="191.86587" pt_clust_5="46.28115" pt_clust_6="37.17739"></scales>
<clustering>
<clus scale="   37.177">  3  6 -1 -1</clus>
<clus scale="   46.281">  2  5  1 -1</clus>
<clus scale="  191.866">  1  4  2 -1</clus>
<clus scale="  191.866">  1  3  2 -1</clus>
</clustering>
</event>
<event>
 6    0  0.1230761E+002  0.1363616E+03  0.7546771E-02  0.1218310E+00
          2   -1    0    0  505    0 -0.00000000000E+00  0.00000000000E+00  0.35063779489E+03  0.35063779489E+03  0.00000000000E+00 0.  1.
         21   -1    0    0  503  502  0.00000000000E+00 -0.00000000000E+00 -0.70466938734E+03  0.70466938734E+03  0.00000000000E+00 0.  1.
         21    1    1    2  503  501  0.77783808390E+00  0.11691370972E+03 -0.54947944863E+03  0.56178028180E+03  0.00000000000E+00 0.  1.
         21    1    1    2  504  502  0.28777520966E+02  0.11265091461E+02 -0.10182093917E+03  0.10640747930E+03  0.00000000000E+00 0.  1.
         21    1    1    2  505  504  0.31729810162E+02 -0.54805702618E+01 -0.22430733163E+02  0.39242264124E+02  0.00000000000E+00 0.  1.
          2    1    1    2  501    0 -0.61285169213E+02 -0.12269823092E+03  0.31969952851E+03  0.34787715701E+03  0.00000000000E+00 0.  1.
<scales pt_clust_3="136.36158" pt_clust_4="30.90385" pt_clust_5="33.56732" pt_clust_6="14000.00000"></scales>
<clustering>
<clus scale="   30.904">  2  4  1 -1</clus>
<clus scale="   33.567">  2  5  1 -1</clus>
<clus scale="  136.362">  2  3  1 -1</clus>
<clus scale="   30.904">  2  3  1 -1</clus>
</clustering>
</event>
<event>
 6    0  0.1230761E+002  0.1700831E+03  0.7546771E-02  0.1177761E+00
         21   -1    0    0  503  502  0.00000000000E+00  0.00000000000E+00  0.55866970055E+02  0.55866970055E+02  0.00000000000E+00 0. -1.
          2   -1    0    0  505    0 -0.00000000000E+00 -0.00000000000E+00 -0.13360565205E+04  0.13360565205E+04  0.00000000000E+00 0.  1.
         21    1    1    2  503  504  0.57305871821E+02  0.53683357652E+02 -0.90211675226E+02  0.11959938203E+03  0.00000000000E+00 0. -1.
         21    1    1    2  504  501  0.68505679309E+02  0.33928283950E+02 -0.32268841194E+02  0.82978519276E+02  0.00000000000E+00 0. -1.
         21    1    1    2  505  502  0.31263234588E+02  0.45140336002E+02 -0.41758023567E+03  0.42117489597E+03  0.00000000000E+00 0. -1.
          2    1    1    2  501    0 -0.15707478572E+03 -0.13275197760E+03 -0.74012879833E+03  0.76817069326E+03  0.00000000000E+00 0.  1.
<scales pt_clust_3="49.64921" pt_clust_4="49.64921" pt_clust_5="54.90938" pt_clust_6="162.46932"></scales>
<clustering>
<clus scale="   49.649">  3  4 -1 -1</clus>
<clus scale="   54.909">  2  5  1 -1</clus>
<clus scale="  162.469">  2  6  1 -1</clus>
<clus scale="  170.083">  1  3  2 -1</clus>
</clustering>
</event>
<event>
 6    0  0.1230761E+002  0.8458821E+02  0.7546771E-02  0.1316513E+00
          2   -1    0    0  505    0 -0.00000000000E+00  0.00000000000E+00  0.97589439815E+03  0.97589439815E+03  0.00000000000E+00 0. -1.
         21   -1    0    0  503  502  0.00000000000E+00 -0.00000000000E+00 -0.17385706925E+03  0.17385706925E+03  0.00000000000E+00 0. -1.
         21    1    1    2  503  501  0.35674357153E+02  0.48575692282E+02 -0.48751814479E+02  0.77517720902E+02  0.00000000000E+00 0.  1.
         21    1    1    2  504  502 -0.10748526275E+03 -0.20026662810E+01 -0.76914264211E+02  0.13218508395E+03  0.00000000000E+00 0. -1.
         21    1    1    2  505  504  0.12821507977E+02 -0.36230131900E+02  0.66814528877E+02  0.77079146294E+02  0.00000000000E+00 0.  1.
          2    1    1    2  501    0  0.58989397615E+02 -0.10342894100E+02  0.86088887871E+03  0.86296951625E+03  0.00000000000E+00 0. -1.
<scales pt_clust_3="59.92648" pt_clust_4="14000.00000" pt_clust_5="38.43193" pt_clust_6="84.58821"></scales>
<clustering>
<clus scale="   38.432">  1  5  2 -1</clus>
<clus scale="   59.926">  2  3  1 -1</clus>
<clus scale="   84.588">  1  6  2 -1</clus>
<clus scale="   59.926">  2  3  1 -1</clus>
</clustering>
</event>
<event>
 6    0  0.1230761E+002  0.1566326E+03  0.7546771E-02  0.1192552E+00
          2   -1    0    0  505    0 -0.00000000000E+00  0.00000000000E+00  0.35468814531E+04  0.35468814531E+04  0.00000000000E+00 0. -1.
         21   -1    0    0  503  502  0.00000000000E+00 -0.00000000000E+00 -0.10638851319E+03  0.10638851319E+03  0.00000000000E+00 0. -1.
         21    1    1    2  503  504  0.37604035408E+02 -0.61487191643E+02 -0.45137260878E+02  0.85041816388E+02  0.00000000000E+00 0. -1.
         21    1    1    2  504  501  0.11536928795E+02 -0.76180281540E+02  0.55438630871E+01  0.77248109617E+02  0.00000000000E+00 0. -1.
         21    1    1    2  505  502 -0.59020010675E+02  0.25652132750E+02  0.22686619553E+03  0.23581701434E+03  0.00000000000E+00 0. -1.
          2    1    1    2  501    0  0.98790464719E+01  0.11201534043E+03  0.32532201422E+04  0.32551630259E+04  0.00000000000E+00 0. -1.
<scales pt_clust_3="56.42250" pt_clust_4="56.42250" pt_clust_5="64.35366" pt_clust_6="145.36357"></scales>
<clustering>
<clus scale="   56.423">  3  4 -1 -1</clus>
<clus scale="   64.354">  1  5  2 -1</clus>
<clus scale="  145.364">  1  6  2 -1</clus>
<clus scale="  156.633">  2  3  1 -1</clus>
</clustering>
</event>
<event>
 6    0  0.1230761E+002  0.1400253E+03  0.7546771E-02  0.1213295E+00
          2   -1    0    0  504    0 -0.00000000000E+00  0.00000000000E+00  0.34083075543E+03  0.34083075543E+03  0.00000000000E+00 0. -1.
         21   -1    0    0  501  502  0.00000000000E+00 -0.00000000000E+00 -0.17426635820E+03  0.17426635820E+03  0.00000000000E+00 0. -1.
         21    1    1    2  503  505  0.14565989740E+03 -0.88835775882E+02  0.41499504947E+02  0.17558704308E+03  0.00000000000E+00 0. -1.
         21    1    1    2  504  503 -0.39671488867E+02 -0.29562393076E+02  0.79038432860E+02  0.93246104381E+02  0.00000000000E+00 0. -1.
         21    1    1    2  505  502 -0.68077444737E+02 -0.14210557993E+02 -0.43318274443E+02  0.81932602431E+02  0.00000000000E+00 0. -1.
          2    1    1    2  501    0 -0.37910963794E+02  0.13260872695E+03  0.89344733867E+02  0.16433136374E+03  0.00000000000E+00 0. -1.
<scales pt_clust_3="14000.00000" pt_clust_4="49.47486" pt_clust_5="72.96373" pt_clust_6="140.02532"></scales>
<clustering>
<clus scale="   49.475">  1  4  2 -1</clus>
<clus scale="   72.964">  2  5  1 -1</clus>
<clus scale="  140.025">  1  6  2 -1</clus>
<clus scale="   72.964">  2  3  1 -1</clus>
</clustering>
</event>
<event>
 6    0  0.1391162E+002  0.1178665E+03  0.7546771E-02  0.1246659E+00
          1   -1    0    0  503    0 -0.00000000000E+00  0.00000000000E+00  0.15418325240E+04  0.15418325240E+04  0.00000000000E+00 0. -1.
         21   -1    0    0  504  502  0.00000000000E+00 -0.00000000000E+00 -0.51464176467E+03  0.51464176467E+03  0.00000000000E+00 0. -1.
         21    1    1    2  503  505 -0.54898100796E+01 -0.12993501500E+03  0.15458134007E+03  0.20201147699E+03  0.00000000000E+00 0.  1.
         21    1    1    2  504  501 -0.37711382721E+02  0.52874837641E+02 -0.46677097065E+03  0.47126747807E+03  0.00000000000E+00 0. -1.
         21    1    1    2  505  502 -0.16317898162E+01 -0.31350491017E+02 -0.66272963159E+01  0.32084841927E+02  0.00000000000E+00 0. -1.
          1    1    1    2  501    0  0.44832982617E+02  0.10841066838E+03  0.13460076863E+04  0.13511104917E+04  0.00000000000E+00 0. -1.
<scales pt_clust_3="117.86646" pt_clust_4="45.59296" pt_clust_5="31.39293" pt_clust_6="14000.00000"></scales>
<clustering>
<clus scale="   31.393">  2  5  1 -1</clus>
<clus scale="   45.593">  2  4  1 -1</clus>
<clus scale="  117.866">  2  3  1 -1</clus>
<clus scale="   31.393">  2  3  1 -1</clus>
</clustering>
</event>
<event>
 6    0  0.1230761E+002  0.1078811E+03  0.7546771E-02  0.1264545E+00
         21   -1    0    0  505  502  0.00000000000E+00  0.00000000000E+00  0.24827662463E+03  0.24827662463E+03  0.00000000000E+00 0.  1.
          2   -1    0    0  503    0 -0.00000000000E+00 -0.00000000000E+00 -0.12343902909E+04  0.12343902909E+04  0.00000000000E+00 0.  1.
         21    1    1    2  503  504 -0.58889289989E+02  0.40330491157E+02 -0.22013371407E+03  0.23141596545E+03  0.00000000000E+00 0.  1.
         21    1    1    2  504  502 -0.12324668349E+01  0.32216753402E+02  0.93662562433E+01  0.33573277026E+02  0.00000000000E+00 0.  1.
         21    1    1    2  505  501  0.36162724070E+02  0.70837913959E+02  0.20849720891E+03  0.22315205307E+03  0.00000000000E+00 0.  1.
          2    1    1    2  501    0  0.23959032754E+02 -0.14338515852E+03 -0.98384341737E+03  0.99452562000E+03  0.00000000000E+00 0.  1.
<scales pt_clust_3="71.85669" pt_clust_4="32.24032" pt_clust_5="107.88112" pt_clust_6="14000.00000"></scales>
<clustering>
<clus scale="   32.240">  1  4  2 -1</clus>
<clus scale="   71.857">  2  3  1 -1</clus>
<clus scale="  107.881">  1  5  2 -1</clus>
<clus scale="   32.240">  1  3  2 -1</clus>
</clustering>
</event>
<event>
 6    0  0.1230761E+002  0.2334337E+03  0.7546771E-02  0.1124246E+00
         21   -1    0    0  505  502  0.00000000000E+00  0.00000000000E+00  0.43611587822E+03  0.43611587822E+03  0.00000000000E+00 0.  1.
          1   -1    0    0  503    0 -0.00000000000E+00 -0.00000000000E+00 -0.79283806308E+03  0.79283806308E+03  0.00000000000E+00 0. -1.
         21    1    1    2  503  504  0.21098764306E+02  0.49794611532E+02 -0.10774881103E+03  0.12055897922E+03  0.00000000000E+00 0. -1.
         21    1    1    2  504  502 -0.27780801952E+03  0.51348219577E+02  0.28274448694E+03  0.39969786121E+03  0.00000000000E+00 0.  1.
         21    1    1    2  505  501  0.46408540917E+02 -0.88715399722E+02  0.33435378201E+02  0.10555614304E+03  0.00000000000E+00 0. -1.
          1    1    1    2  501    0  0.21030071430E+03 -0.12427431387E+02 -0.56515323897E+03  0.60314095783E+03  0.00000000000E+00 0. -1.
<scales pt_clust_3="54.08014" pt_clust_4="233.43374" pt_clust_5="98.32115" pt_clust_6="14000.00000"></scales>
<clustering>
<clus scale="   54.080">  2  3  1 -1</clus>
<clus scale="   98.321">  1  5  2 -1</clus>
<clus scale="  233.434">  1  4  2 -1</clus>
<clus scale="   98.321">  1  3  2 -1</clus>
</clustering>
</event>
<event>
 6    0  0.1230761E+002  0.1132032E+03  0.7546771E-02  0.1254751E+00
          1   -1    0    0  505    0 -0.00000000000E+00  0.00000000000E+00  0.28970603965E+04  0.28970603965E+04  0.00000000000E+00 0.  1.
         21   -1    0    0  504  502  0.00000000000E+00 -0.00000000000E+00 -0.72434167969E+02  0.72434167969E+02  0.00000000000E+00 0. -1.
         21    1    1    2  503  501 -0.74860287179E+02 -0.54831475250E+02  0.38708036696E+02  0.10054285345E+03  0.00000000000E+00 0. -1.
         21    1    1    2  504  503  0.21227703321E+02 -0.46396581091E+02 -0.19300562849E+02  0.54550617334E+02  0.00000000000E+00 0. -1.
         21    1    1    2  505  502 -0.67166417422E+02 -0.30089296129E+01  0.90689768785E+03  0.90938649512E+03  0.00000000000E+00 0.  1.
          1    1    1    2  501    0  0.12079900128E+03  0.10423698595E+03  0.18983210668E+04  0.19050145986E+04  0.00000000000E+00 0.  1.
<scales pt_clust_3="14000.00000" pt_clust_4="51.02213" pt_clust_5="66.58400" pt_clust_6="113.20315"></scales>
<clustering>
<clus scale="   51.022">  2  4  1 -1</clus>
<clus scale="   66.584">  1  5  2 -1</clus>
<clus scale="  113.203">  1  6  2 -1</clus>
<clus scale="   51.022">  2  3  1 -1</clus>
</clustering>
</event>
<event>
 6    0  0.1230761E+002  0.9040343E+02  0.7546771E-02  0.1301878E+00
         -1   -1    0    0    0  501 -0.00000000000E+00  0.00000000000E+00  0.20641947700E+03  0.20641947700E+03  0.00000000000E+00 0.  1.
         21   -1    0    0  504  502  0.00000000000E+00 -0.00000000000E+00 -0.53940815253E+03  0.53940815253E+03  0.00000000000E+00 0.  1.
         21    1    1    2  503  505 -0.57808703914E+02 -0.20265372852E+02 -0.99631881930E+02  0.11695744304E+03  0.00000000000E+00 0.  1.
         21    1    1    2  504  501 -0.34144729372E+02 -0.59505738426E+01  0.27237976099E+02  0.44081506496E+02  0.00000000000E+00 0.  1.
         21    1    1    2  505  502 -0.36827220650E+02  0.21801354314E+02 -0.39574646273E+03  0.39805377275E+03  0.00000000000E+00 0.  1.
         -1    1    1    2    0  503  0.12878065394E+03  0.44145923809E+01  0.13515169304E+03  0.18673490725E+03  0.00000000000E+00 0.  1.
<scales pt_clust_3="90.40343" pt_clust_4="34.65937" pt_clust_5="42.97483" pt_clust_6="14000.00000"></scales>
<clustering>
<clus scale="   34.659">  1  4  2 -1</clus>
<clus scale="   42.975">  2  5  1 -1</clus>
<clus scale="   90.403">  2  3  1 -1</clus>
<clus scale="   42.975">  2  3  1 -1</clus>
</clustering>
</event>
<event>
 6    0  0.1230761E+002  0.2952931E+03  0.7546771E-02  0.1087617E+00
          2   -1    0    0  505    0 -0.00000000000E+00  0.00000000000E+00  0.77697992951E+03  0.77697992951E+03  0.00000000000E+00 0.  1.
         21   -1    0    0  503  502  0.00000000000E+00 -0.00000000000E+00 -0.11706613800E+04  0.11706613800E+04  0.00000000000E+00 0.  1.
         21    1    1    2  503  501  0.71915342595E+02 -0.15869787402E+03 -0.43644838109E+03  0.46994044418E+03  0.00000000000E+00 0.  1.
         21    1    1    2  504  502 -0.57324046035E+01  0.42570998394E+03 -0.56713477440E+03  0.70915703707E+03  0.00000000000E+00 0.  1.
         21    1    1    2  505  504 -0.91758108973E+02  0.76980350473E+02  0.12147025113E+03  0.17058882387E+03  0.00000000000E+00 0.  1.
          2    1    1    2  501    0  0.25575170982E+02 -0.34399246039E+03  0.48843145386E+03  0.59795500441E+03  0.00000000000E+00 0.  1.
<scales pt_clust_3="171.37146" pt_clust_4="14000.00000" pt_clust_5="119.77281" pt_clust_6="295.29314"></scales>
<clustering>
<clus scale="  119.773">  1  5  2 -1</clus>
<clus scale="  171.371">  2  3  1 -1</clus>
<clus scale="  295.293">  1  6  2 -1</clus>
<clus scale="  171.371">  2  3  1 -1</clus>
</clustering>
</event>
<event>
 6    0  0.1230761E+002  0.1871763E+03  0.7546771E-02  0.1161033E+00
         21   -1    0    0  505  502  0.00000000000E+00  0.00000000000E+00  0.11040455336E+04  0.11040455336E+04  0.00000000000E+00 0. -1.
         -2   -1    0    0    0  501 -0.00000000000E+00 -0.00000000000E+00 -0.99826913094E+02  0.99826913094E+02  0.00000000000E+00 0. -1.
         21    1    1    2  503  502 -0.47181641123E+02  0.61245095413E+02  0.15887743794E+03  0.17668930148E+03  0.00000000000E+00 0.  1.
         21    1    1    2  504  503  0.54391687839E+02 -0.16419962017E+02  0.15727630737E+02  0.58952771158E+02  0.00000000000E+00 0. -1.
         21    1    1    2  505  501 -0.10073121855E+03  0.56525612168E+02  0.82204072086E+03  0.83011617860E+03  0.00000000000E+00 0. -1.
         -2    1    1    2    0  504  0.93521171833E+02 -0.10135074556E+03  0.75728309324E+01  0.13811419542E+03  0.00000000000E+00 0. -1.
<scales pt_clust_3="77.31151" pt_clust_4="32.37649" pt_clust_5="180.25164" pt_clust_6="32.37649"></scales>
<clustering>
<clus scale="   32.376">  4  6 -1 -1</clus>
<clus scale="   77.312">  1  3  2 -1</clus>
<clus scale="  180.252">  1  5  2 -1</clus>
<clus scale="   77.312">  1  3  2 -1</clus>
</clustering>
</event>
<event>
 6    0  0.1230761E+002  0.7980508E+02  0.7546771E-02  0.1329605E+00
         21   -1    0    0  504  502  0.00000000000E+00  0.00000000000E+00  0.73351439994E+02  0.73351439994E+02  0.00000000000E+00 0. -1.
          2   -1    0    0  503    0 -0.00000000000E+00 -0.00000000000E+00 -0.22614099611E+04  0.22614099611E+04  0.00000000000E+00 0.  1.
         21    1    1    2  503  505 -0.40433686998E+02  0.25151188873E+02 -0.61998903498E+03  0.62181497959E+03  0.00000000000E+00 0.  1.
         21    1    1    2  504  501  0.70330385305E+02 -0.26585240999E+02  0.21365546146E+02  0.78164088290E+02  0.00000000000E+00 0. -1.
         21    1    1    2  505  502 -0.31016650252E+02  0.96150308992E+02 -0.99366483387E+02  0.14170607797E+03  0.00000000000E+00 0.  1.
          2    1    1    2  501    0  0.11199519450E+01 -0.94716256865E+02 -0.14900685489E+04  0.14930762552E+04  0.00000000000E+00 0.  1.
<scales pt_clust_3="47.61791" pt_clust_4="74.37883" pt_clust_5="14000.00000" pt_clust_6="79.80508"></scales>
<clustering>
<clus scale="   47.618">  2  3  1 -1</clus>
<clus scale="   74.379">  1  4  2 -1</clus>
<clus scale="   79.805">  2  6  1 -1</clus>
<clus scale="   74.379">  1  3  2 -1</clus>
</clustering>
</event>
<event>
 6    0  0.1230761E+002  0.9072174E+02  0.7546771E-02  0.1301113E+00
         21   -1    0    0  504  502  0.00000000000E+00  0.00000000000E+00  0.65264846581E+02  0.65264846581E+02  0.00000000000E+00 0.  1.
          2   -1    0    0  505    0 -0.00000000000E+00 -0.00000000000E+00 -0.28932080025E+04  0.28932080025E+04  0.00000000000E+00 0.  1.
         21    1    1    2  503  502 -0.12510193090E+03 -0.36478557638E+02 -0.15248075882E+02  0.13120092263E+03  0.00000000000E+00 0.  1.
         21    1    1    2  504  501  0.50864198049E+02 -0.12614026106E+02 -0.12236322074E+03  0.13311287724E+03  0.00000000000E+00 0.  1.
         21    1    1    2  505  503 -0.26327563380E+02  0.29517687057E+02 -0.93942757495E+03  0.94025985930E+03  0.00000000000E+00 0.  1.
          2    1    1    2  501    0  0.10056529623E+03  0.19574896687E+02 -0.17509042843E+04  0.17538991899E+04  0.00000000000E+00 0.  1.
<scales pt_clust_3="90.72174" pt_clust_4="50.29047" pt_clust_5="39.55293" pt_clust_6="14000.00000"></scales>
<clustering>
<clus scale="   39.553">  2  5  1 -1</clus>
<clus scale="   50.290">  1  4  2 -1</clus>
<clus scale="   90.722">  1  3  2 -1</clus>
<clus scale="   50.290">  1  3  2 -1</clus>
</clustering>
</event>
<event>
 6    0  0.1230761E+002  0.1032031E+03  0.7546771E-02  0.1273701E+00
         21   -1    0    0  504  502  0.00000000000E+00  0.00000000000E+00  0.41688611010E+04  0.41688611010E+04  0.00000000000E+00 0. -1.
         -2   -1    0    0    0  501 -0.00000000000E+00 -0.00000000000E+00 -0.39350167316E+02  0.39350167316E+02  0.00000000000E+00 0.  1.
         21    1    1    2  503  502  0.12220396746E+01 -0.65110201447E+02  0.83180932613E+03  0.83435459294E+03  0.00000000000E+00 0.  1.
         21    1    1    2  504  505  0.68315273326E+02 -0.13378002829E+02  0.30270499440E+04  0.30278502788E+04  0.00000000000E+00 0. -1.
         21    1    1    2  505  501  0.43955792230E+02 -0.15389888287E+02  0.14535480778E+03  0.15263348413E+03  0.00000000000E+00 0.  1.
         -2    1    1    2    0  503 -0.11349310523E+03  0.93878092564E+02  0.12529685581E+03  0.19337291246E+03  0.00000000000E+00 0.  1.
<scales pt_clust_3="65.71784" pt_clust_4="14000.00000" pt_clust_5="46.57210" pt_clust_6="103.20314"></scales>
<clustering>
<clus scale="   46.572">  2  5  1 -1</clus>
<clus scale="   65.718">  1  3  2 -1</clus>
<clus scale="  103.203">  2  6  1 -1</clus>
<clus scale="   65.718">  1  3  2 -1</clus>
</clustering>
</event>
<event>
 6    0  0.1230761E+002  0.6115255E+02  0.7546771E-02  0.1393058E+00
         21   -1    0    0  504  502  0.00000000000E+00  0.00000000000E+00  0.39028093246E+03  0.39028093246E+03  0.00000000000E+00 0.  1.
         -1   -1    0    0    0  501 -0.00000000000E+00 -0.00000000000E+00 -0.65998767398E+03  0.65998767398E+03  0.00000000000E+00 0. -1.
         21    1    1    2  503  505  0.10065541625E+01 -0.64675622997E+02  0.16315692203E+03  0.17551105540E+03  0.00000000000E+00 0.  1.
         21    1    1    2  504  501  0.38295463971E+01 -0.35980871595E+02 -0.15673560333E+03  0.16085812972E+03  0.00000000000E+00 0. -1.
         21    1    1    2  505  502  0.53509678668E+02  0.45504299870E+02  0.20987078483E+03  0.22131351821E+03  0.00000000000E+00 0.  1.
         -1    1    1    2    0  503 -0.58345779227E+02  0.55152194723E+02 -0.48599884507E+03  0.49258590311E+03  0.00000000000E+00 0. -1.
<scales pt_clust_3="14000.00000" pt_clust_4="36.18409" pt_clust_5="61.15255" pt_clust_6="58.16324"></scales>
<clustering>
<clus scale="   36.184">  2  4  1 -1</clus>
<clus scale="   58.163">  2  6  1 -1</clus>
<clus scale="   61.153">  1  5  2 -1</clus>
<clus scale="   61.153">  1  3  2 -1</clus>
</clustering>
</event>
<event>
 6    0  0.1230761E+002  0.7172381E+02  0.7546771E-02  0.1354327E+00
          2   -1    0    0  504    0 -0.00000000000E+00  0.00000000000E+00  0.41669503708E+03  0.41669503708E+03  0.00000000000E+00 0. -1.
         21   -1    0    0  501  502  0.00000000000E+00 -0.00000000000E+00 -0.54142411954E+03  0.54142411954E+03  0.00000000000E+00 0.  1.
         21    1    1    2  503  502 -0.56809283237E+02 -0.52875573759E+01 -0.43461192624E+03  0.43834093963E+03  0.00000000000E+00 0.  1.
         21    1    1    2  504  505 -0.12985199961E+02 -0.44112226055E+02  0.50692260915E+02  0.68441283026E+02  0.00000000000E+00 0.  1.
         21    1    1    2  505  503  0.37719050792E+02 -0.63911797647E+02 -0.69815101165E+02  0.10189010267E+03  0.00000000000E+00 0.  1.
          2    1    1    2  501    0  0.32075432406E+02  0.11331158108E+03  0.32900568403E+03  0.34944683129E+03  0.00000000000E+00 0. -1.
<scales pt_clust_3="57.14410" pt_clust_4="45.98374" pt_clust_5="14000.00000" pt_clust_6="71.72381"></scales>
<clustering>
<clus scale="   45.984">  1  4  2 -1</clus>
<clus scale="   57.144">  2  3  1 -1</clus>
<clus scale="   71.724">  1  6  2 -1</clus>
<clus scale="   57.144">  2  3  1 -1</clus>
</clustering>
</event>
<event>
 6    0  0.1230761E+002  0.1255393E+03  0.7546771E-02  0.1234229E+00
          2   -1    0    0  505    0 -0.00000000000E+00  0.00000000000E+00  0.39819006554E+03  0.39819006554E+03  0.00000000000E+00 0. -1.
         21   -1    0    0  504  502  0.00000000000E+00 -0.00000000000E+00 -0.10822019851E+04  0.10822019851E+04  0.00000000000E+00 0.  1.
         21    1    1    2  503  502 -0.33804896672E+02  0.14737578118E+03 -0.77510311428E+03  0.78971338451E+03  0.00000000000E+00 0.  1.
         21    1    1    2  504  501 -0.27125365699E+02 -0.37678551607E+02 -0.28233391625E+03  0.28612566991E+03  0.00000000000E+00 0. -1.
         21    1    1    2  505  503  0.32254373525E+02 -0.11668791290E+00  0.34630200064E+02  0.47324507224E+02  0.00000000000E+00 0.  1.
          2    1    1    2  501    0  0.28675888846E+02 -0.10958054166E+03  0.33879491089E+03  0.35722848901E+03  0.00000000000E+00 0. -1.
<scales pt_clust_3="125.53932" pt_clust_4="46.32761" pt_clust_5="32.25458" pt_clust_6="14000.00000"></scales>
<clustering>
<clus scale="   32.255">  1  5  2 -1</clus>
<clus scale="   46.328">  2  4  1 -1</clus>
<clus scale="  125.539">  2  3  1 -1</clus>
<clus scale="   46.328">  2  3  1 -1</clus>
</clustering>
</event>
<event>
 6    0  0.1230761E+002  0.8034821E+02  0.7546771E-02  0.1328066E+00
         21   -1    0    0  505  502  0.00000000000E+00  0.00000000000E+00  0.12397681226E+02  0.12397681226E+02  0.00000000000E+00 0. -1.
         -3   -1    0    0    0  501 -0.00000000000E+00 -0.00000000000E+00 -0.15190185279E+04  0.15190185279E+04  0.00000000000E+00 0. -1.
         21    1    1    2  503  502  0.53310449501E+02  0.51261116749E+02 -0.31040524156E+03  0.31909421822E+03  0.00000000000E+00 0. -1.
         21    1    1    2  504  503  0.23725822197E+02 -0.21089090198E+02 -0.48374720772E+03  0.48478760849E+03  0.00000000000E+00 0. -1.
         21    1    1    2  505  501 -0.10892283790E+03 -0.12891009123E+02 -0.48971451909E+03  0.50184726057E+03  0.00000000000E+00 0. -1.
         -3    1    1    2    0  504  0.31886566205E+02 -0.17281017429E+02 -0.22275387828E+03  0.22568712182E+03  0.00000000000E+00 0. -1.
<scales pt_clust_3="73.95746" pt_clust_4="30.53891" pt_clust_5="73.41853" pt_clust_6="30.53891"></scales>
<clustering>
<clus scale="   30.539">  4  6 -1 -1</clus>
<clus scale="   73.957">  1  3  2 -1</clus>
<clus scale="   73.419">  1  5  2 -1</clus>
<clus scale="   73.957">  1  3  2 -1</clus>
</clustering>
</event>
<event>
 6    0  0.1230761E+002  0.1306304E+03  0.7546771E-02  0.1226523E+00
         21   -1    0    0  503  502  0.00000000000E+00  0.00000000000E+00  0.15754286120E+03  0.15754286120E+03  0.00000000000E+00 0. -1.
          1   -1    0    0  504    0 -0.00000000000E+00 -0.00000000000E+00 -0.73103196640E+03  0.73103196640E+03  0.00000000000E+00 0. -1.
         21    1    1    2  503  501  0.14969433676E+02  0.29106426811E+02 -0.63027075753E+01  0.33331548855E+02  0.00000000000E+00 0. -1.
         21    1    1    2  504  505 -0.19412701182E+02 -0.87649785705E+02 -0.20890414860E+03  0.22737695838E+03  0.00000000000E+00 0. -1.
         21    1    1    2  505  502  0.54547603599E+02  0.98649784575E+02  0.10863860958E+03  0.15655532104E+03  0.00000000000E+00 0. -1.
          1    1    1    2  501    0 -0.50104336092E+02 -0.40106425680E+02 -0.46692085860E+03  0.47131099932E+03  0.00000000000E+00 0. -1.
<scales pt_clust_3="32.73023" pt_clust_4="130.63037" pt_clust_5="14000.00000" pt_clust_6="63.72421"></scales>
<clustering>
<clus scale="   32.730">  1  3  2 -1</clus>
<clus scale="   63.724">  2  6  1 -1</clus>
<clus scale="  130.630">  2  4  1 -1</clus>
<clus scale="   32.730">  1  3  2 -1</clus>
</clustering>
</event>
<event>
 6    0  0.1230761E+002  0.1657161E+03  0.7546771E-02  0.1182390E+00
         -3   -1    0    0    0  501 -0.00000000000E+00  0.00000000000E+00  0.13260732397E+03  0.13260732397E+03  0.00000000000E+00 0.  1.
         21   -1    0    0  505  502  0.00000000000E+00 -0.00000000000E+00 -0.40088153656E+03  0.40088153656E+03  0.00000000000E+00 0.  1.
         21    1    1    2  503  504  0.16447873433E+02  0.99693356757E+02 -0.11181713366E+03  0.15070623511E+03  0.00000000000E+00 0.  1.
         21    1    1    2  504  501  0.14441274976E+02  0.43434357942E+02  0.34804046967E+02  0.57501439617E+02  0.00000000000E+00 0.  1.
         21    1    1    2  505  503  0.24422977359E+02  0.39280700694E+02 -0.10759730055E+03  0.11711803599E+03  0.00000000000E+00 0.  1.
         -3    1    1    2    0  502 -0.55312125768E+02 -0.18240841539E+03 -0.83663825357E+02  0.20816314980E+03  0.00000000000E+00 0.  1.
<scales pt_clust_3="34.51900" pt_clust_4="45.77220" pt_clust_5="34.51900" pt_clust_6="157.66706"></scales>
<clustering>
<clus scale="   34.519">  3  5 -1 -1</clus>
<clus scale="   45.772">  1  4  2 -1</clus>
<clus scale="  157.667">  1  6  2 -1</clus>
<clus scale="  165.716">  2  3  1 -1</clus>
</clustering>
</event>
<event>
 6    0  0.1230761E+002  0.1039512E+03  0.7546771E-02  0.1272200E+00
          2   -1    0    0  504    0 -0.00000000000E+00  0.00000000000E+00  0.57728608101E+02  0.57728608101E+02  0.00000000000E+00 0.  1.
         21   -1    0    0  503  502  0.00000000000E+00 -0.00000000000E+00 -0.69469446091E+03  0.69469446091E+03  0.00000000000E+00 0. -1.
         21    1    1    2  503  501  0.10407975218E+03  0.28030711031E+02 -0.50750647967E+03  0.51882669792E+03  0.00000000000E+00 0. -1.
         21    1    1    2  504  505  0.18743362381E+02 -0.33548062192E+02 -0.16861678573E+02  0.41965489565E+02  0.00000000000E+00 0.  1.
         21    1    1    2  505  502 -0.31147164907E+02 -0.31480938468E+02 -0.72484766285E+02  0.84942549479E+02  0.00000000000E+00 0. -1.
          2    1    1    2  501    0 -0.91675949650E+02  0.36998289629E+02 -0.40112928290E+02  0.10668833205E+03  0.00000000000E+00 0.  1.
<scales pt_clust_3="103.95118" pt_clust_4="38.42897" pt_clust_5="46.03820" pt_clust_6="14000.00000"></scales>
<clustering>
<clus scale="   38.429">  1  4  2 -1</clus>
<clus scale="   46.038">  1  5  2 -1</clus>
<clus scale="  103.951">  2  3  1 -1</clus>
<clus scale="  103.951">  2  3  1 -1</clus>
</clustering>
</event>
<event>
 6    0  0.1230761E+002  0.1020845E+03  0.7546771E-02  0.1275973E+00
         21   -1    0    0  505  502  0.00000000000E+00  0.00000000000E+00  0.65533191522E+01  0.65533191522E+01  0.00000000000E+00 0.  1.
          2   -1    0    0  503    0 -0.00000000000E+00 -0.00000000000E+00 -0.32718534860E+04  0.32718534860E+04  0.00000000000E+00 0.  1.
         21    1    1    2  503  502 -0.68716083350E+02 -0.26416504380E+02 -0.11874371814E+04  0.11897171057E+04  0.00000000000E+00 0. -1.
         21    1    1    2  504  501  0.60526800760E+02 -0.49825698821E+02 -0.58714411459E+03  0.59235488110E+03  0.00000000000E+00 0.  1.
         21    1    1    2  505  504  0.37900286193E+02  0.82733187954E+01 -0.21574596313E+03  0.21920583957E+03  0.00000000000E+00 0.  1.
          2    1    1    2  501    0 -0.29711003604E+02  0.67968884406E+02 -0.12749729077E+04  0.12771289788E+04  0.00000000000E+00 0.  1.
<scales pt_clust_3="73.61883" pt_clust_4="35.75675" pt_clust_5="35.75675" pt_clust_6="88.52916"></scales>
<clustering>
<clus scale="   35.757">  4  5 -1 -1</clus>
<clus scale="   73.619">  2  3  1 -1</clus>
<clus scale="   88.529">  2  6  1 -1</clus>
<clus scale="  102.085">  1  3  2 -1</clus>
</clustering>
</event>
<event>
 6    0  0.1230761E+002  0.1256947E+03  0.7546771E-02  0.1233988E+00
         21   -1    0    0  503  502  0.00000000000E+00  0.00000000000E+00  0.61424507827E+03  0.61424507827E+03  0.00000000000E+00 0.  1.
          2   -1    0    0  504    0 -0.00000000000E+00 -0.00000000000E+00 -0.27949877938E+03  0.27949877938E+03  0.00000000000E+00 0. -1.
         21    1    1    2  503  505  0.10448155753E+02 -0.32647428569E+02  0.61576780285E+02  0.70474948890E+02  0.00000000000E+00 0.  1.
         21    1    1    2  504  502  0.15546707136E+01  0.40368633679E+02 -0.31634849964E+02  0.51310888887E+02  0.00000000000E+00 0. -1.
         21    1    1    2  505  501  0.12807117590E+02 -0.94103838738E+02  0.52531731451E+03  0.53383315338E+03  0.00000000000E+00 0.  1.
          2    1    1    2  501    0 -0.24809944056E+02  0.86382633628E+02 -0.22051294594E+03  0.23812486649E+03  0.00000000000E+00 0. -1.
<scales pt_clust_3="34.27854" pt_clust_4="39.82089" pt_clust_5="14000.00000" pt_clust_6="125.69467"></scales>
<clustering>
<clus scale="   34.279">  1  3  2 -1</clus>
<clus scale="   39.821">  2  4  1 -1</clus>
<clus scale="  125.695">  2  6  1 -1</clus>
<clus scale="   34.279">  1  3  2 -1</clus>
</clustering>
</event>
<event>
 6    0  0.1230761E+002  0.8813068E+02  0.7546771E-02  0.1307443E+00
         21   -1    0    0  503  502  0.00000000000E+00  0.00000000000E+00  0.54548316807E+03  0.54548316807E+03  0.00000000000E+00 0. -1.
          4   -1    0    0  504    0 -0.00000000000E+00 -0.00000000000E+00 -0.67031749798E+02  0.67031749798E+02  0.00000000000E+00 0. -1.
         21    1    1    2  503  505 -0.37140954075E+02 -0.65300763872E+02  0.29205325032E+03  0.30156051010E+03  0.00000000000E+00 0. -1.
         21    1    1    2  504  502 -0.28974761847E+02 -0.26192758484E+02  0.31471192451E+02  0.50160077506E+02  0.00000000000E+00 0. -1.
         21    1    1    2  505  501 -0.47322699738E+02  0.83478086354E+02  0.75096275279E+02  0.12185023337E+03  0.00000000000E+00 0. -1.
          4    1    1    2  501    0  0.11343841566E+03  0.80154360028E+01  0.79830700221E+02  0.13894409689E+03  0.00000000000E+00 0. -1.
<scales pt_clust_3="78.18723" pt_clust_4="39.05890" pt_clust_5="14000.00000" pt_clust_6="88.13068"></scales>
<clustering>
<clus scale="   39.059">  2  4  1 -1</clus>
<clus scale="   78.187">  1  3  2 -1</clus>
<clus scale="   88.131">  2  6  1 -1</clus>
<clus scale="   78.187">  1  3  2 -1</clus>
</clustering>
</event>
<event>
 6    0  0.1230761E+002  0.8001014E+02  0.7546771E-02  0.1329023E+00
         21   -1    0    0  501  502  0.00000000000E+00  0.00000000000E+00  0.18233959461E+03  0.18233959461E+03  0.00000000000E+00 0. -1.
          2   -1    0    0  503    0 -0.00000000000E+00 -0.00000000000E+00 -0.58340953791E+03  0.58340953791E+03  0.00000000000E+00 0. -1.
         21    1    1    2  503  504  0.21944492698E+02 -0.25813568814E+02 -0.11743013969E+03  0.12222004255E+03  0.00000000000E+00 0. -1.
         21    1    1    2  504  505 -0.36716307872E+01 -0.76570466863E+02  0.35899460775E+02  0.84648027456E+02  0.00000000000E+00 0. -1.
         21    1    1    2  505  502 -0.62662150153E+02  0.69250623282E+02  0.99344524567E+02  0.13635075522E+03  0.00000000000E+00 0. -1.
          2    1    1    2  501    0  0.44389288242E+02  0.33133412395E+02 -0.41888378895E+03  0.42253030729E+03  0.00000000000E+00 0. -1.
<scales pt_clust_3="33.88069" pt_clust_4="80.01014" pt_clust_5="14000.00000" pt_clust_6="65.03270"></scales>
<clustering>
<clus scale="   33.881">  2  3  1 -1</clus>
<clus scale="   65.033">  2  6  1 -1</clus>
<clus scale="   80.010">  2  4  1 -1</clus>
<clus scale="   80.010">  1  3  2 -1</clus>
</clustering>
</event>
<event>
 6    0  0.1230761E+002  0.2319719E+03  0.7546771E-02  0.1125260E+00
         21   -1    0    0  501  502  0.00000000000E+00  0.00000000000E+00  0.60295597869E+02  0.60295597869E+02  0.00000000000E+00 0.  1.
          1   -1    0    0  505    0 -0.00000000000E+00 -0.00000000000E+00 -0.27864370639E+04  0.27864370639E+04  0.00000000000E+00 0.  1.
         21    1    1    2  503  504 -0.21018107651E+03 -0.22204105787E+02 -0.25231353305E+03  0.32913709332E+03  0.00000000000E+00 0.  1.
         21    1    1    2  504  502 -0.96610693573E+01  0.36139126775E+02 -0.99362173026E+02  0.10617068415E+03  0.00000000000E+00 0.  1.
         21    1    1    2  505  503 -0.93978664887E+02 -0.15879203239E+02 -0.34855279406E+03  0.36134912314E+03  0.00000000000E+00 0. -1.
          1    1    1    2  501    0  0.31382081075E+03  0.19441822513E+01 -0.20259129659E+04  0.20500757611E+04  0.00000000000E+00 0.  1.
<scales pt_clust_3="14000.00000" pt_clust_4="37.40819" pt_clust_5="95.79655" pt_clust_6="231.97189"></scales>
<clustering>
<clus scale="   37.408">  1  4  2 -1</clus>
<clus scale="   95.797">  2  5  1 -1</clus>
<clus scale="  231.972">  2  6  1 -1</clus>
<clus scale="   37.408">  1  3  2 -1</clus>
</clustering>
</event>
<event>
 6    0  0.1230761E+002  0.1355257E+03  0.7546771E-02  0.1219479E+00
         21   -1    0    0  503  502  0.00000000000E+00  0.00000000000E+00  0.28447247263E+03  0.28447247263E+03  0.00000000000E+00 0. -1.
          2   -1    0    0  505    0 -0.00000000000E+00 -0.00000000000E+00 -0.23657714350E+04  0.23657714350E+04  0.00000000000E+00 0.  1.
         21    1    1    2  503  504 -0.12358986508E+03  0.79141778378E+02  0.22307754822E+03  0.26702334796E+03  0.00000000000E+00 0. -1.
         21    1    1    2  504  501  0.11568584883E+03  0.28053680099E+02 -0.56283142854E+02  0.13167390310E+03  0.00000000000E+00 0. -1.
         21    1    1    2  505  502 -0.41392906243E+01 -0.69990190217E+02 -0.84346046392E+03  0.84636949062E+03  0.00000000000E+00 0.  1.
          2    1    1    2  501    0  0.12043306868E+02 -0.37205268260E+02 -0.14046329038E+04  0.14051771660E+04  0.00000000000E+00 0.  1.
<scales pt_clust_3="135.52571" pt_clust_4="14000.00000" pt_clust_5="102.90813" pt_clust_6="39.10592"></scales>
<clustering>
<clus scale="   39.106">  2  6  1 -1</clus>
<clus scale="  102.908">  2  5  1 -1</clus>
<clus scale="  135.526">  1  3  2 -1</clus>
<clus scale="  135.526">  1  3  2 -1</clus>
</clustering>
</event>
<event>
 6    0  0.1230761E+002  0.8306953E+02  0.7546771E-02  0.1320560E+00
         21   -1    0    0  504  502  0.00000000000E+00  0.00000000000E+00  0.43974500576E+03  0.43974500576E+03  0.00000000000E+00 0.  1.
         -2   -1    0    0    0  501 -0.00000000000E+00 -0.00000000000E+00 -0.68205892943E+03  0.68205892943E+03  0.00000000000E+00 0. -1.
         21    1    1    2  503  501  0.72122818684E+02 -0.19285820342E+01 -0.32033873680E+03  0.32836310191E+03  0.00000000000E+00 0. -1.
         21    1    1    2  504  503  0.38393265135E+02  0.19536447584E+02  0.10546380684E+02  0.44350216882E+02  0.00000000000E+00 0.  1.
         21    1    1    2  505  502 -0.58244548096E+01 -0.44174607997E+02  0.39845371182E+03  0.40093725286E+03  0.00000000000E+00 0.  1.
         -2    1    1    2    0  505 -0.10469162901E+03  0.26566742447E+02 -0.33097527938E+03  0.34815336354E+03  0.00000000000E+00 0. -1.
<scales pt_clust_3="83.06953" pt_clust_4="43.07802" pt_clust_5="40.28012" pt_clust_6="14000.00000"></scales>
<clustering>
<clus scale="   43.078">  1  4  2 -1</clus>
<clus scale="   40.280">  1  5  2 -1</clus>
<clus scale="   83.070">  2  3  1 -1</clus>
<clus scale="   43.078">  1  3  2 -1</clus>
</clustering>
</event>
<event>
 6    0  0.1230761E+002  0.1277423E+03  0.7546771E-02  0.1230845E+00
         21   -1    0    0  504  502  0.00000000000E+00  0.00000000000E+00  0.21506733126E+03  0.21506733126E+03  0.00000000000E+00 0.  1.
         -1   -1    0    0    0  501 -0.00000000000E+00 -0.00000000000E+00 -0.20999139250E+03  0.20999139250E+03  0.00000000000E+00 0.  1.
         21    1    1    2  503  505  0.62341647604E+02  0.89785550556E+01  0.29767827668E+02  0.69665048919E+02  0.00000000000E+00 0.  1.
         21    1    1    2  504  503  0.45600915426E+02 -0.17117735461E+02  0.51725739546E+02  0.71049366546E+02  0.00000000000E+00 0.  1.
         21    1    1    2  505  501  0.38213939208E+02 -0.33037286657E+01 -0.12432821658E+03  0.13011043468E+03  0.00000000000E+00 0.  1.
         -1    1    1    2    0  502 -0.14615650224E+03  0.11442909071E+02  0.47910588134E+02  0.15423387361E+03  0.00000000000E+00 0.  1.
<scales pt_clust_3="33.38791" pt_clust_4="33.38791" pt_clust_5="38.35648" pt_clust_6="121.96969"></scales>
<clustering>
<clus scale="   33.388">  3  4 -1 -1</clus>
<clus scale="   38.356">  2  5  1 -1</clus>
<clus scale="  121.970">  2  6  1 -1</clus>
<clus scale="  127.742">  1  3  2 -1</clus>
</clustering>
</event>
<event>
 6    0  0.1230761E+002  0.1543655E+03  0.7546771E-02  0.1195209E+00
         -3   -1    0    0    0  501 -0.00000000000E+00  0.00000000000E+00  0.11546435983E+04  0.11546435983E+04  0.00000000000E+00 0. -1.
         21   -1    0    0  503  502  0.00000000000E+00 -0.00000000000E+00 -0.10990944934E+03  0.10990944934E+03  0.00000000000E+00 0.  1.
         21    1    1    2  503  505  0.68516454515E+02 -0.12959912204E+02  0.40427464867E+02  0.80603001056E+02  0.00000000000E+00 0.  1.
         21    1    1    2  504  502  0.77943608680E+02  0.86555775393E+02 -0.39898117230E+02  0.12312176147E+03  0.00000000000E+00 0.  1.
         21    1    1    2  505  501 -0.99861412774E+01 -0.35211710058E+02  0.37439385506E+03  0.37617860951E+03  0.00000000000E+00 0. -1.
         -3    1    1    2    0  504 -0.13647392192E+03 -0.38384153132E+02  0.66981094624E+03  0.68464967558E+03  0.00000000000E+00 0. -1.
<scales pt_clust_3="69.53526" pt_clust_4="154.36547" pt_clust_5="36.60038" pt_clust_6="14000.00000"></scales>
<clustering>
<clus scale="   36.600">  1  5  2 -1</clus>
<clus scale="   69.535">  2  3  1 -1</clus>
<clus scale="  154.365">  2  4  1 -1</clus>
<clus scale="   69.535">  2  3  1 -1</clus>
</clustering>
</event>
<event>
 6    0  0.1230761E+002  0.8459242E+02  0.7546771E-02  0.1316502E+00
          1   -1    0    0  505    0 -0.00000000000E+00  0.00000000000E+00  0.10639317713E+04  0.10639317713E+04  0.00000000000E+00 0. -1.
         21   -1    0    0  503  502  0.00000000000E+00 -0.00000000000E+00 -0.13301250356E+03  0.13301250356E+03  0.00000000000E+00 0. -1.
         21    1    1    2  503  501  0.46329780479E+02  0.54144349986E+02  0.76764791448E+01  0.71672780933E+02  0.00000000000E+00 0. -1.
         21    1    1    2  504  502 -0.11174931366E+03 -0.78915915288E+02 -0.34828607888E+02  0.14116891554E+03  0.00000000000E+00 0. -1.
         21    1    1    2  505  504 -0.19522307756E+02 -0.32222750446E+02  0.76219106693E+03  0.76312164735E+03  0.00000000000E+00 0. -1.
          1    1    1    2  501    0  0.84941840932E+02  0.56994315748E+02  0.19588032951E+03  0.22098093098E+03  0.00000000000E+00 0. -1.
<scales pt_clust_3="66.36979" pt_clust_4="84.59242" pt_clust_5="37.67527" pt_clust_6="14000.00000"></scales>
<clustering>
<clus scale="   37.675">  1  5  2 -1</clus>
<clus scale="   66.370">  2  3  1 -1</clus>
<clus scale="   84.592">  2  4  1 -1</clus>
<clus scale="   66.370">  2  3  1 -1</clus>
</clustering>
</event>
<event>
 6    0  0.1230761E+002  0.1933727E+03  0.7546771E-02  0.1155454E+00
         21   -1    0    0  505  502  0.00000000000E+00  0.00000000000E+00  0.39409199870E+03  0.39409199870E+03  0.00000000000E+00 0. -1.
         -1   -1    0    0    0  501 -0.00000000000E+00 -0.00000000000E+00 -0.64193878048E+03  0.64193878048E+03  0.00000000000E+00 0. -1.
         21    1    1    2  503  504  0.66221275703E+02  0.85580579521E+02  0.14176358039E+03  0.17834294400E+03  0.00000000000E+00 0. -1.
         21    1    1    2  504  501 -0.18195881575E+02 -0.34010504208E+02 -0.24335421375E+02  0.45607205968E+02  0.00000000000E+00 0.  1.
         21    1    1    2  505  503  0.14636581666E+02  0.76383176981E+02  0.20763421893E+03  0.22172187109E+03  0.00000000000E+00 0. -1.
         -1    1    1    2    0  502 -0.62661975794E+02 -0.12795325229E+03 -0.57290915973E+03  0.59035875812E+03  0.00000000000E+00 0. -1.
<scales pt_clust_3="61.30766" pt_clust_4="38.57207" pt_clust_5="61.30766" pt_clust_6="179.41629"></scales>
<clustering>
<clus scale="   38.572">  2  4  1 -1</clus>
<clus scale="   61.308">  3  5 -1 -1</clus>
<clus scale="  179.416">  2  6  1 -1</clus>
<clus scale="  193.373">  1  3  2 -1</clus>
</clustering>
</event>
<event>
 6    0  0.1230761E+002  0.1133099E+03  0.7546771E-02  0.1254560E+00
         21   -1    0    0  504  502  0.00000000000E+00  0.00000000000E+00  0.58946902759E+02  0.58946902759E+02  0.00000000000E+00 0.  1.
          2   -1    0    0  503    0 -0.00000000000E+00 -0.00000000000E+00 -0.32935195899E+04  0.32935195899E+04  0.00000000000E+00 0.  1.
         21    1    1    2  503  502  0.36378927636E+02 -0.23977318875E+02 -0.93626015583E+02  0.10326746337E+03  0.00000000000E+00 0.  1.
         21    1    1    2  504  505 -0.66065835524E+02  0.38594268590E+02  0.13857877841E+02  0.77757655377E+02  0.00000000000E+00 0.  1.
         21    1    1    2  505  501  0.51639727247E+01  0.98974173636E+02 -0.33774936036E+03  0.35199031816E+03  0.00000000000E+00 0.  1.
          2    1    1    2  501    0  0.24522935163E+02 -0.11359112335E+03 -0.28170551890E+04  0.28194510557E+04  0.00000000000E+00 0.  1.
<scales pt_clust_3="43.56992" pt_clust_4="39.74274" pt_clust_5="14000.00000" pt_clust_6="113.30988"></scales>
<clustering>
<clus scale="   43.570">  1  3  2 -1</clus>
<clus scale="   39.743">  1  4  2 -1</clus>
<clus scale="  113.310">  2  6  1 -1</clus>
<clus scale="   43.570">  1  3  2 -1</clus>
</clustering>
</event>
<event>
 6    0  0.1230761E+002  0.1223326E+03  0.7546771E-02  0.1239298E+00
         -3   -1    0    0    0  501 -0.00000000000E+00  0.00000000000E+00  0.19884490720E+04  0.19884490720E+04  0.00000000000E+00 0. -1.
         21   -1    0    0  504  502  0.00000000000E+00 -0.00000000000E+00 -0.44079336505E+02  0.44079336505E+02  0.00000000000E+00 0. -1.
         21    1    1    2  503  501 -0.21744434395E+02  0.34958315787E+02  0.35143556045E+03  0.35383874494E+03  0.00000000000E+00 0. -1.
         21    1    1    2  504  503 -0.13395282756E+03 -0.48330375471E+02  0.15564692562E+03  0.21096243897E+03  0.00000000000E+00 0. -1.
         21    1    1    2  505  502  0.59211687251E+02 -0.51282598384E+02  0.10821876227E+03  0.13359352271E+03  0.00000000000E+00 0. -1.
         -3    1    1    2    0  505  0.96485574701E+02  0.64654658068E+02  0.13290684872E+04  0.13341337019E+04  0.00000000000E+00 0. -1.
<scales pt_clust_3="41.16922" pt_clust_4="14000.00000" pt_clust_5="75.43109" pt_clust_6="122.33259"></scales>
<clustering>
<clus scale="   41.169">  1  3  2 -1</clus>
<clus scale="   75.431">  2  5  1 -1</clus>
<clus scale="  122.333">  1  6  2 -1</clus>
<clus scale="   75.431">  2  3  1 -1</clus>
</clustering>
</event>
<event>
 6    0  0.1230761E+002  0.7636424E+02  0.7546771E-02  0.1339698E+00
         -1   -1    0    0    0  501 -0.00000000000E+00  0.00000000000E+00  0.10502219830E+04  0.10502219830E+04  0.00000000000E+00 0. -1.
         21   -1    0    0  504  502  0.00000000000E+00 -0.00000000000E+00 -0.40494071950E+02  0.40494071950E+02  0.00000000000E+00 0. -1.
         21    1    1    2  503  501  0.44345608095E+02 -0.19666694085E+02  0.37268976655E+03  0.37583370512E+03  0.00000000000E+00 0. -1.
         21    1    1    2  504  503  0.58327282770E+02  0.38990453027E+02  0.76401473287E+02  0.10372806979E+03  0.00000000000E+00 0.  1.
         21    1    1    2  505  502  0.13158176428E+02 -0.52804971574E+02  0.21194211303E+02  0.58401174839E+02  0.00000000000E+00 0. -1.
         -1    1    1    2    0  505 -0.11583106729E+03  0.33481212632E+02  0.53944245990E+03  0.55275310519E+03  0.00000000000E+00 0. -1.
<scales pt_clust_3="48.51095" pt_clust_4="14000.00000" pt_clust_5="56.21969" pt_clust_6="76.36424"></scales>
<clustering>
<clus scale="   48.511">  1  3  2 -1</clus>
<clus scale="   56.220">  2  5  1 -1</clus>
<clus scale="   76.364">  1  6  2 -1</clus>
<clus scale="   56.220">  2  3  1 -1</clus>
</clustering>
</event>
<event>
 6    0  0.1230761E+002  0.7666766E+02  0.7546771E-02  0.1338783E+00
         21   -1    0    0  503  502  0.00000000000E+00  0.00000000000E+00  0.74096244730E+03  0.74096244730E+03  0.00000000000E+00 0. -1.
          3   -1    0    0  504    0 -0.00000000000E+00 -0.00000000000E+00 -0.25911007957E+03  0.25911007957E+03  0.00000000000E+00 0. -1.
         21    1    1    2  503  501  0.58132521246E+02  0.46631204552E+02  0.64642245906E+03  0.65070412234E+03  0.00000000000E+00 0. -1.
         21    1    1    2  504  505  0.20310809999E+02  0.39591940885E+02 -0.10618947514E+03  0.11513581292E+03  0.00000000000E+00 0. -1.
         21    1    1    2  505  502  0.15515229184E+02 -0.29293985106E+02  0.62587321389E+02  0.70823955684E+02  0.00000000000E+00 0.  1.
          3    1    1    2  501    0 -0.93958560429E+02 -0.56929160330E+02 -0.12096793757E+03  0.16340863592E+03  0.00000000000E+00 0. -1.
<scales pt_clust_3="76.66766" pt_clust_4="44.37219" pt_clust_5="33.14906" pt_clust_6="14000.00000"></scales>
<clustering>
<clus scale="   33.149">  1  5  2 -1</clus>
<clus scale="   44.372">  2  4  1 -1</clus>
<clus scale="   76.668">  1  3  2 -1</clus>
<clus scale="   33.149">  1  3  2 -1</clus>
</clustering>
</event>
<event>
 6    0  0.1230761E+002  0.1274991E+03  0.7546771E-02  0.1231215E+00
         21   -1    0    0  503  502  0.00000000000E+00  0.00000000000E+00  0.10282838764E+03  0.10282838764E+03  0.00000000000E+00 0.  1.
          1   -1    0    0  504    0 -0.00000000000E+00 -0.00000000000E+00 -0.91688085926E+03  0.91688085926E+03  0.00000000000E+00 0. -1.
         21    1    1    2  503  501  0.31452100602E+02 -0.86472600118E+02  0.56405852515E+02  0.10792759333E+03  0.00000000000E+00 0.  1.
         21    1    1    2  504  505 -0.16822896347E+01  0.32199100940E+02 -0.39904224018E+03  0.40034275521E+03  0.00000000000E+00 0. -1.
         21    1    1    2  505  502  0.16108422284E+02 -0.40947581970E+02 -0.20943139608E+02  0.48731928284E+02  0.00000000000E+00 0.  1.
          1    1    1    2  501    0 -0.45878233251E+02  0.95221081148E+02 -0.45047294434E+03  0.46270697008E+03  0.00000000000E+00 0. -1.
<scales pt_clust_3="14000.00000" pt_clust_4="32.24302" pt_clust_5="41.94793" pt_clust_6="127.49908"></scales>
<clustering>
<clus scale="   32.243">  2  4  1 -1</clus>
<clus scale="   41.948">  1  5  2 -1</clus>
<clus scale="  127.499">  2  6  1 -1</clus>
<clus scale="   41.948">  1  3  2 -1</clus>
</clustering>
</event>
<event>
 6    0  0.1230761E+002  0.1193393E+03  0.7546771E-02  0.1244191E+00
          2   -1    0    0  505    0 -0.00000000000E+00  0.00000000000E+00  0.74915684975E+03  0.74915684975E+03  0.00000000000E+00 0. -1.
         21   -1    0    0  503  502  0.00000000000E+00 -0.00000000000E+00 -0.15521407328E+03  0.15521407328E+03  0.00000000000E+00 0.  1.
         21    1    1    2  503  501 -0.11449085930E+02 -0.37891449613E+02  0.20381885498E+02  0.44522632209E+02  0.00000000000E+00 0. -1.
         21    1    1    2  504  502  0.70923887111E+02  0.12879310111E+03 -0.80761514150E+02  0.16775065670E+03  0.00000000000E+00 0.  1.
         21    1    1    2  505  504  0.40407717283E+02  0.42632835609E+02  0.17524395909E+03  0.18482637118E+03  0.00000000000E+00 0.  1.
          2    1    1    2  501    0 -0.99882518464E+02 -0.13353448711E+03  0.47907844603E+03  0.50727126293E+03  0.00000000000E+00 0. -1.
<scales pt_clust_3="39.58337" pt_clust_4="14000.00000" pt_clust_5="57.55856" pt_clust_6="119.33929"></scales>
<clustering>
<clus scale="   39.583">  2  3  1 -1</clus>
<clus scale="   57.559">  1  5  2 -1</clus>
<clus scale="  119.339">  1  6  2 -1</clus>
<clus scale="   39.583">  2  3  1 -1</clus>
</clustering>
</event>
<event>
 6    0  0.1230761E+002  0.1164212E+03  0.7546771E-02  0.1249120E+00
         21   -1    0    0  504  502  0.00000000000E+00  0.00000000000E+00  0.20772241491E+03  0.20772241491E+03  0.00000000000E+00 0. -1.
          2   -1    0    0  505    0 -0.00000000000E+00 -0.00000000000E+00 -0.26463649508E+03  0.26463649508E+03  0.00000000000E+00 0.  1.
         21    1    1    2  503  502 -0.15994526777E+02  0.82400289804E+02  0.13477647236E+03  0.15877761224E+03  0.00000000000E+00 0. -1.
         21    1    1    2  504  501  0.55047975974E+02  0.41734000599E+02  0.28337450790E+01  0.69137808586E+02  0.00000000000E+00 0.  1.
         21    1    1    2  505  503  0.20425734912E+02 -0.28607116151E+02 -0.53683969444E+02  0.64168109809E+02  0.00000000000E+00 0. -1.
          2    1    1    2  501    0 -0.59479184109E+02 -0.95527174251E+02 -0.14084032816E+03  0.18027537935E+03  0.00000000000E+00 0.  1.
<scales pt_clust_3="116.42122" pt_clust_4="69.14982" pt_clust_5="35.15079" pt_clust_6="14000.00000"></scales>
<clustering>
<clus scale="   35.151">  2  5  1 -1</clus>
<clus scale="   69.150">  1  4  2 -1</clus>
<clus scale="  116.421">  1  3  2 -1</clus>
<clus scale="   69.150">  1  3  2 -1</clus>
</clustering>
</event>
<event>
 6    0  0.1230761E+002  0.1934638E+03  0.7546771E-02  0.1155374E+00
         21   -1    0    0  501  502  0.00000000000E+00  0.00000000000E+00  0.85584712158E+02  0.85584712158E+02  0.00000000000E+00 0.  1.
          2   -1    0    0  503    0 -0.00000000000E+00 -0.00000000000E+00 -0.26602044670E+04  0.26602044670E+04  0.00000000000E+00 0. -1.
         21    1    1    2  503  504 -0.17654821627E+02 -0.30181240899E+02 -0.20433521877E+04  0.20436513310E+04  0.00000000000E+00 0. -1.
         21    1    1    2  504  505 -0.16672498968E+02  0.66951531483E+02 -0.46068338466E+02  0.82962471026E+02  0.00000000000E+00 0.  1.
         21    1    1    2  505  502 -0.90136543035E+02  0.83634634770E+02 -0.22329268455E+02  0.12497177583E+03  0.00000000000E+00 0.  1.
          2    1    1    2  501    0  0.12446386363E+03 -0.12040492535E+03 -0.46286996029E+03  0.49420360130E+03  0.00000000000E+00 0. -1.
<scales pt_clust_3="34.96570" pt_clust_4="49.33186" pt_clust_5="49.33186" pt_clust_6="181.53294"></scales>
<clustering>
<clus scale="   34.966">  2  3  1 -1</clus>
<clus scale="   49.332">  4  5 -1 -1</clus>
<clus scale="  181.533">  2  6  1 -1</clus>
<clus scale="  193.464">  1  3  2 -1</clus>
</clustering>
</event>
<event>
 6    0  0.1230761E+002  0.9976459E+02  0.7546771E-02  0.1280792E+00
          4   -1    0    0  505    0 -0.00000000000E+00  0.00000000000E+00  0.76308899749E+02  0.76308899749E+02  0.00000000000E+00 0. -1.
         21   -1    0    0  503  502  0.00000000000E+00 -0.00000000000E+00 -0.37757871760E+03  0.37757871760E+03  0.00000000000E+00 0.  1.
         21    1    1    2  503  501  0.78067289685E+02 -0.16810995976E+02 -0.11284595507E+03  0.13824370105E+03  0.00000000000E+00 0.  1.
         21    1    1    2  504  502  0.60272819441E+01 -0.51171885476E+02 -0.12495361166E+03  0.13516025694E+03  0.00000000000E+00 0.  1.
         21    1    1    2  505  504  0.17021883249E+01 -0.34460783557E+02 -0.20429252841E+02  0.40097349290E+02  0.00000000000E+00 0.  1.
          4    1    1    2  501    0 -0.85796759954E+02  0.10244366501E+03 -0.43040998274E+02  0.14038631006E+03  0.00000000000E+00 0. -1.
<scales pt_clust_3="99.76459" pt_clust_4="54.16863" pt_clust_5="34.50280" pt_clust_6="14000.00000"></scales>
<clustering>
<clus scale="   34.503">  1  5  2 -1</clus>
<clus scale="   54.169">  2  4  1 -1</clus>
<clus scale="   99.765">  2  3  1 -1</clus>
<clus scale="   54.169">  2  3  1 -1</clus>
</clustering>
</event>
<event>
 6    0  0.1230761E+002  0.1169003E+03  0.7546771E-02  0.1248300E+00
         21   -1    0    0  505  502  0.00000000000E+00  0.00000000000E+00  0.39164745735E+03  0.39164745735E+03  0.00000000000E+00 0. -1.
          2   -1    0    0  504    0 -0.00000000000E+00 -0.00000000000E+00 -0.10300989758E+04  0.10300989758E+04  0.00000000000E+00 0.  1.
         21    1    1    2  503  502  0.15684794728E+03 -0.62001304870E+02  0.34600113137E+03  0.38491846316E+03  0.00000000000E+00 0. -1.
         21    1    1    2  504  503 -0.87897944814E+01  0.61902743363E+02 -0.14944622172E+03  0.16199809663E+03  0.00000000000E+00 0. -1.
         21    1    1    2  505  501 -0.45076345638E+02  0.26768361772E+02 -0.25382028720E+02  0.58246626598E+02  0.00000000000E+00 0.  1.
          2    1    1    2  501    0 -0.10298180716E+03 -0.26669800265E+02 -0.80962439935E+03  0.81658324675E+03  0.00000000000E+00 0.  1.
<scales pt_clust_3="14000.00000" pt_clust_4="63.07666" pt_clust_5="52.42540" pt_clust_6="116.90030"></scales>
<clustering>
<clus scale="   52.425">  1  5  2 -1</clus>
<clus scale="   63.077">  2  4  1 -1</clus>
<clus scale="  116.900">  2  6  1 -1</clus>
<clus scale="   52.425">  1  3  2 -1</clus>
</clustering>
</event>
<event>
 6    0  0.1230761E+002  0.1637047E+03  0.7546771E-02  0.1184577E+00
         21   -1    0    0  501  502  0.00000000000E+00  0.00000000000E+00  0.16167925504E+03  0.16167925504E+03  0.00000000000E+00 0. -1.
          1   -1    0    0  503    0 -0.00000000000E+00 -0.00000000000E+00 -0.54240215097E+03  0.54240215097E+03  0.00000000000E+00 0.  1.
         21    1    1    2  503  505 -0.61193758677E+02  0.34859999350E+02 -0.33048067216E+03  0.33790142102E+03  0.00000000000E+00 0.  1.
         21    1    1    2  504  502  0.11774067869E+02 -0.11829530806E+03  0.66882499736E+02  0.13640262957E+03  0.00000000000E+00 0. -1.
         21    1    1    2  505  504  0.21803430706E+02 -0.47107970458E+02  0.48530200961E+00  0.51911328140E+02  0.00000000000E+00 0. -1.
          1    1    1    2  501    0  0.27616260102E+02  0.13054327916E+03 -0.11761002552E+03  0.17786602728E+03  0.00000000000E+00 0.  1.
<scales pt_clust_3="70.42653" pt_clust_4="32.62776" pt_clust_5="32.62776" pt_clust_6="156.08071"></scales>
<clustering>
<clus scale="   32.628">  4  5 -1 -1</clus>
<clus scale="   70.427">  2  3  1 -1</clus>
<clus scale="  156.081">  2  6  1 -1</clus>
<clus scale="  163.705">  1  3  2 -1</clus>
</clustering>
</event>
<event>
 6    0  0.1230761E+002  0.1404891E+03  0.7546771E-02  0.1212672E+00
         21   -1    0    0  504  502  0.00000000000E+00  0.00000000000E+00  0.39829778297E+02  0.39829778297E+02  0.00000000000E+00 0. -1.
          2   -1    0    0  505    0 -0.00000000000E+00 -0.00000000000E+00 -0.16532192675E+04  0.16532192675E+04  0.00000000000E+00 0. -1.
         21    1    1    2  503  502  0.29732235140E+02 -0.51633144942E+01  0.80331065153E+01  0.31228135123E+02  0.00000000000E+00 0. -1.
         21    1    1    2  504  501 -0.45082487911E+02 -0.73131590954E+01 -0.28137883640E+03  0.28506133127E+03  0.00000000000E+00 0.  1.
         21    1    1    2  505  503  0.98342179812E+02  0.49362227624E+02 -0.16569123969E+03  0.19890047953E+03  0.00000000000E+00 0. -1.
          2    1    1    2  501    0 -0.82991927041E+02 -0.36885754035E+02 -0.11743525197E+04  0.11778590999E+04  0.00000000000E+00 0. -1.
<scales pt_clust_3="30.17724" pt_clust_4="35.72096" pt_clust_5="130.81047" pt_clust_6="35.72096"></scales>
<clustering>
<clus scale="   30.177">  1  3  2 -1</clus>
<clus scale="   35.721">  4  6 -1 -1</clus>
<clus scale="  130.810">  1  5  2 -1</clus>
<clus scale="   30.177">  1  3  2 -1</clus>
</clustering>
</event>
<event>
 6    0  0.1230761E+002  0.1015883E+03  0.7546771E-02  0.1276991E+00
         21   -1    0    0  505  502  0.00000000000E+00  0.00000000000E+00  0.42514237602E+03  0.42514237602E+03  0.00000000000E+00 0.  1.
         -2   -1    0    0    0  501 -0.00000000000E+00 -0.00000000000E+00 -0.52997234657E+03  0.52997234657E+03  0.00000000000E+00 0. -1.
         21    1    1    2  503  502  0.31073990461E+02 -0.32965759046E+02  0.52339353912E+01  0.45604037456E+02  0.00000000000E+00 0. -1.
         21    1    1    2  504  501 -0.15736355713E+02 -0.56897640270E+02  0.29973548759E+03  0.30549359548E+03  0.00000000000E+00 0.  1.
         21    1    1    2  505  504  0.44830435255E+02  0.66220822853E+01  0.86258344072E+02  0.97437784360E+02  0.00000000000E+00 0.  1.
         -2    1    1    2    0  503 -0.60168070004E+02  0.83241317031E+02 -0.49605773761E+03  0.50657930529E+03  0.00000000000E+00 0. -1.
<scales pt_clust_3="45.30269" pt_clust_4="101.58829" pt_clust_5="51.97932" pt_clust_6="14000.00000"></scales>
<clustering>
<clus scale="   45.303">  1  3  2 -1</clus>
<clus scale="   51.979">  1  5  2 -1</clus>
<clus scale="  101.588">  1  4  2 -1</clus>
<clus scale="   45.303">  1  3  2 -1</clus>
</clustering>
</event>
<event>
 6    0  0.1230761E+002  0.3153001E+03  0.7546771E-02  0.1077833E+00
         21   -1    0    0  505  502  0.00000000000E+00  0.00000000000E+00  0.37241771269E+03  0.37241771269E+03  0.00000000000E+00 0. -1.
          2   -1    0    0  504    0 -0.00000000000E+00 -0.00000000000E+00 -0.13260340501E+04  0.13260340501E+04  0.00000000000E+00 0. -1.
         21    1    1    2  503  501  0.24533486520E+03 -0.49921238871E+02  0.36560377051E+02  0.25301776092E+03  0.00000000000E+00 0. -1.
         21    1    1    2  504  502 -0.36663377021E+02  0.63112113155E+02 -0.67339822318E+02  0.99307571269E+02  0.00000000000E+00 0. -1.
         21    1    1    2  505  503  0.90596242374E+02  0.68592171784E+01  0.18086095269E+03  0.20239914081E+03  0.00000000000E+00 0.  1.
          2    1    1    2  501    0 -0.29926773055E+03 -0.20050091462E+02 -0.11036978448E+04  0.11437272898E+04  0.00000000000E+00 0. -1.
<scales pt_clust_3="315.30005" pt_clust_4="72.98864" pt_clust_5="90.58180" pt_clust_6="14000.00000"></scales>
<clustering>
<clus scale="   72.989">  2  4  1 -1</clus>
<clus scale="   90.582">  1  5  2 -1</clus>
<clus scale="  315.300">  1  3  2 -1</clus>
<clus scale="   90.582">  1  3  2 -1</clus>
</clustering>
</event>
<event>
 6    0  0.1230761E+002  0.6748105E+02  0.7546771E-02  0.1368875E+00
         21   -1    0    0  504  502  0.00000000000E+00  0.00000000000E+00  0.26664940487E+03  0.26664940487E+03  0.00000000000E+00 0.  1.
         -3   -1    0    0    0  501 -0.00000000000E+00 -0.00000000000E+00 -0.62959353850E+03  0.62959353850E+03  0.00000000000E+00 0. -1.
         21    1    1    2  503  501  0.70103683539E+02 -0.11782286979E+02 -0.94794430672E+02  0.11848769058E+03  0.00000000000E+00 0.  1.
         21    1    1    2  504  503  0.41573735329E+02  0.48420245117E+02  0.22080320621E+03  0.22984114400E+03  0.00000000000E+00 0.  1.
         21    1    1    2  505  502 -0.53303274148E+02  0.22457774273E+01  0.60830783663E+00  0.53354030678E+02  0.00000000000E+00 0. -1.
         -3    1    1    2    0  505 -0.58374144720E+02 -0.38883735566E+02 -0.48956121701E+03  0.49456007811E+03  0.00000000000E+00 0. -1.
<scales pt_clust_3="67.48105" pt_clust_4="51.24798" pt_clust_5="53.35056" pt_clust_6="14000.00000"></scales>
<clustering>
<clus scale="   53.351">  1  5  2 -1</clus>
<clus scale="   51.248">  1  4  2 -1</clus>
<clus scale="   67.481">  1  3  2 -1</clus>
<clus scale="   53.351">  1  3  2 -1</clus>
</clustering>
</event>
<event>
 6    0  0.1230761E+002  0.1439517E+03  0.7546771E-02  0.1208108E+00
          2   -1    0    0  505    0 -0.00000000000E+00  0.00000000000E+00  0.10533435338E+04  0.10533435338E+04  0.00000000000E+00 0.  1.
         21   -1    0    0  504  502  0.00000000000E+00 -0.00000000000E+00 -0.56997530504E+03  0.56997530504E+03  0.00000000000E+00 0.  1.
         21    1    1    2  503  502 -0.73180409303E+02 -0.30633050461E+02 -0.34725558042E+03  0.35620246240E+03  0.00000000000E+00 0.  1.
         21    1    1    2  504  501  0.20649210764E+03 -0.18695685937E+02 -0.14947587506E+03  0.25560038423E+03  0.00000000000E+00 0.  1.
         21    1    1    2  505  503 -0.70765258660E+02 -0.30426336449E+02  0.10319788425E+03  0.12877611229E+03  0.00000000000E+00 0.  1.
          2    1    1    2  501    0 -0.62546439677E+02  0.79755072848E+02  0.87690179996E+03  0.88273987989E+03  0.00000000000E+00 0.  1.
<scales pt_clust_3="79.70079" pt_clust_4="143.95166" pt_clust_5="77.02911" pt_clust_6="14000.00000"></scales>
<clustering>
<clus scale="   77.029">  1  5  2 -1</clus>
<clus scale="   79.701">  2  3  1 -1</clus>
<clus scale="  143.952">  2  4  1 -1</clus>
<clus scale="   79.701">  2  3  1 -1</clus>
</clustering>
</event>
<event>
 6    0  0.1230761E+002  0.1163676E+03  0.7546771E-02  0.1249213E+00
          2   -1    0    0  505    0 -0.00000000000E+00  0.00000000000E+00  0.52107796395E+03  0.52107796395E+03  0.00000000000E+00 0.  1.
         21   -1    0    0  501  502  0.00000000000E+00 -0.00000000000E+00 -0.76448636927E+02  0.76448636927E+02  0.00000000000E+00 0. -1.
         21    1    1    2  503  502  0.40315172859E+01  0.54817330919E+02 -0.25974868446E+02  0.60793804714E+02  0.00000000000E+00 0. -1.
         21    1    1    2  504  503  0.94788080475E+00  0.48831094545E+02  0.17674435407E+02  0.51939964761E+02  0.00000000000E+00 0. -1.
         21    1    1    2  505  504 -0.10834545953E+01  0.34542115427E+02  0.95327937657E+02  0.10139895123E+03  0.00000000000E+00 0.  1.
          2    1    1    2  501    0 -0.38959434954E+01 -0.13819054089E+03  0.35760182241E+03  0.38339388018E+03  0.00000000000E+00 0.  1.
<scales pt_clust_3="41.42694" pt_clust_4="41.42694" pt_clust_5="34.55910" pt_clust_6="108.02404"></scales>
<clustering>
<clus scale="   34.559">  1  5  2 -1</clus>
<clus scale="   41.427">  3  4 -1 -1</clus>
<clus scale="  108.024">  1  6  2 -1</clus>
<clus scale="  116.368">  2  3  1 -1</clus>
</clustering>
</event>
<event>
 6    0  0.1230761E+002  0.2165599E+03  0.7546771E-02  0.1136474E+00
         21   -1    0    0  501  502  0.00000000000E+00  0.00000000000E+00  0.44287317630E+02  0.44287317630E+02  0.00000000000E+00 0. -1.
          1   -1    0    0  505    0 -0.00000000000E+00 -0.00000000000E+00 -0.31692724378E+04  0.31692724378E+04  0.00000000000E+00 0. -1.
         21    1    1    2  503  502 -0.82266901250E+02  0.51365646993E+02 -0.10658182803E+03  0.14410398606E+03  0.00000000000E+00 0. -1.
         21    1    1    2  504  503 -0.11257571440E+03  0.14697164316E+02 -0.16562877835E+03  0.20080386034E+03  0.00000000000E+00 0. -1.
         21    1    1    2  505  504 -0.49548671672E+02 -0.14477517028E+02 -0.48433235180E+03  0.48707545244E+03  0.00000000000E+00 0. -1.
          1    1    1    2  501    0  0.24439128732E+03 -0.51585294281E+02 -0.23684421620E+04  0.23815764566E+04  0.00000000000E+00 0. -1.
<scales pt_clust_3="46.53447" pt_clust_4="46.53447" pt_clust_5="51.62044" pt_clust_6="210.62603"></scales>
<clustering>
<clus scale="   46.534">  3  4 -1 -1</clus>
<clus scale="   51.620">  2  5  1 -1</clus>
<clus scale="  210.626">  2  6  1 -1</clus>
<clus scale="  216.560">  1  3  2 -1</clus>
</clustering>
</event>
<event>
 6    0  0.1230761E+002  0.9210623E+02  0.7546771E-02  0.1297830E+00
         21   -1    0    0  503  502  0.00000000000E+00  0.00000000000E+00  0.80387901490E+02  0.80387901490E+02  0.00000000000E+00 0. -1.
          1   -1    0    0  505    0 -0.00000000000E+00 -0.00000000000E+00 -0.18361349356E+04  0.18361349356E+04  0.00000000000E+00 0. -1.
         21    1    1    2  503  501  0.69567168476E+02 -0.44635955403E+02 -0.74194880374E+02  0.11107132717E+03  0.00000000000E+00 0. -1.
         21    1    1    2  504  502 -0.55017191180E+02  0.81665496118E+02  0.18504893518E+02  0.10019269268E+03  0.00000000000E+00 0. -1.
         21    1    1    2  505  504 -0.44766449359E+02  0.28873777046E+02 -0.45798811119E+03  0.46107574213E+03  0.00000000000E+00 0. -1.
          1    1    1    2  501    0  0.30216472063E+02 -0.65903317762E+02 -0.12420689361E+04  0.12441830751E+04  0.00000000000E+00 0. -1.
<scales pt_clust_3="92.10623" pt_clust_4="14000.00000" pt_clust_5="53.27035" pt_clust_6="41.11684"></scales>
<clustering>
<clus scale="   53.270">  2  5  1 -1</clus>
<clus scale="   41.117">  2  6  1 -1</clus>
<clus scale="   92.106">  2  3  1 -1</clus>
<clus scale="   92.106">  1  3  2 -1</clus>
</clustering>
</event>
<event>
 6    0  0.1230761E+002  0.8725829E+02  0.7546771E-02  0.1309630E+00
          2   -1    0    0  505    0 -0.00000000000E+00  0.00000000000E+00  0.30454338105E+04  0.30454338105E+04  0.00000000000E+00 0. -1.
         21   -1    0    0  503  502  0.00000000000E+00 -0.00000000000E+00 -0.24899651112E+03  0.24899651112E+03  0.00000000000E+00 0.  1.
         21    1    1    2  503  504  0.40149830439E+02 -0.18074799264E+00 -0.21285801898E+03  0.21661158279E+03  0.00000000000E+00 0.  1.
         21    1    1    2  504  501  0.42852611402E+02 -0.32563323346E+02 -0.70867715091E+01  0.54285713238E+02  0.00000000000E+00 0.  1.
         21    1    1    2  505  502  0.60730731674E+02  0.15777576611E+01  0.88180282781E+03  0.88389305814E+03  0.00000000000E+00 0.  1.
          2    1    1    2  501    0 -0.14373317351E+03  0.31166313677E+02  0.21345792621E+04  0.21396399675E+04  0.00000000000E+00 0. -1.
<scales pt_clust_3="40.15024" pt_clust_4="87.25829" pt_clust_5="61.97540" pt_clust_6="14000.00000"></scales>
<clustering>
<clus scale="   40.150">  2  3  1 -1</clus>
<clus scale="   61.975">  1  5  2 -1</clus>
<clus scale="   87.258">  2  4  1 -1</clus>
<clus scale="   40.150">  2  3  1 -1</clus>
</clustering>
</event>
<event>
 6    0  0.1230761E+002  0.8080042E+02  0.7546771E-02  0.1326795E+00
         -3   -1    0    0    0  501 -0.00000000000E+00  0.00000000000E+00  0.22104940926E+03  0.22104940926E+03  0.00000000000E+00 0. -1.
         21   -1    0    0  505  502  0.00000000000E+00 -0.00000000000E+00 -0.39640209658E+03  0.39640209658E+03  0.00000000000E+00 0. -1.
         21    1    1    2  503  502  0.28097928686E+02 -0.52733354061E+02 -0.87529874450E+02  0.10598008845E+03  0.00000000000E+00 0. -1.
         21    1    1    2  504  501 -0.18598772077E+02 -0.78458002713E+02  0.12762105668E+03  0.15095928796E+03  0.00000000000E+00 0. -1.
         21    1    1    2  505  504 -0.66855585321E+02  0.64194359956E+02 -0.24935409911E+03  0.26602265295E+03  0.00000000000E+00 0. -1.
         -3    1    1    2    0  503  0.57356428711E+02  0.66996996818E+02  0.33910229559E+02  0.94489476483E+02  0.00000000000E+00 0. -1.
<scales pt_clust_3="59.75199" pt_clust_4="80.80042" pt_clust_5="46.66643" pt_clust_6="14000.00000"></scales>
<clustering>
<clus scale="   59.752">  2  3  1 -1</clus>
<clus scale="   46.666">  2  5  1 -1</clus>
<clus scale="   80.800">  1  4  2 -1</clus>
<clus scale="   59.752">  2  3  1 -1</clus>
</clustering>
</event>
<event>
 6    0  0.1230762E+002  0.9876149E+02  0.7546771E-02  0.1282922E+00
          2   -1    0    0  504    0 -0.00000000000E+00  0.00000000000E+00  0.15100300532E+04  0.15100300532E+04  0.00000000000E+00 0.  1.
         21   -1    0    0  503  502  0.00000000000E+00 -0.00000000000E+00 -0.26473518389E+03  0.26473518389E+03  0.00000000000E+00 0. -1.
         21    1    1    2  503  505  0.35712841836E+02  0.85470420238E+01 -0.18482863134E+03  0.18844118966E+03  0.00000000000E+00 0. -1.
         21    1    1    2  504  502 -0.45014271650E+02  0.11157730470E+01  0.83118467086E+02  0.94531524755E+02  0.00000000000E+00 0.  1.
         21    1    1    2  505  501  0.56192484254E+02  0.77369686152E+02 -0.38268514165E+02  0.10299583874E+03  0.00000000000E+00 0. -1.
          2    1    1    2  501    0 -0.46891054440E+02 -0.87032501223E+02  0.13852735478E+04  0.13887966840E+04  0.00000000000E+00 0.  1.
<scales pt_clust_3="36.72137" pt_clust_4="42.44055" pt_clust_5="14000.00000" pt_clust_6="98.76149"></scales>
<clustering>
<clus scale="   36.721">  2  3  1 -1</clus>
<clus scale="   42.441">  2  4  1 -1</clus>
<clus scale="   98.761">  1  6  2 -1</clus>
<clus scale="   36.721">  2  3  1 -1</clus>
</clustering>
</event>
<event>
 6    0  0.1230761E+002  0.1440111E+03  0.7546771E-02  0.1208031E+00
         21   -1    0    0  501  502  0.00000000000E+00  0.00000000000E+00  0.32406367141E+03  0.32406367141E+03  0.00000000000E+00 0. -1.
          4   -1    0    0  504    0 -0.00000000000E+00 -0.00000000000E+00 -0.18889088139E+03  0.18889088139E+03  0.00000000000E+00 0.  1.
         21    1    1    2  503  502  0.44853083292E+02  0.32720557461E+02  0.55654894539E+02  0.78612347932E+02  0.00000000000E+00 0. -1.
         21    1    1    2  504  505  0.95612928804E+01 -0.14651012254E+03 -0.40664305461E+02  0.15234900744E+03  0.00000000000E+00 0.  1.
         21    1    1    2  505  503  0.84321370395E+02  0.17829539850E+02  0.46290549315E+02  0.97830470470E+02  0.00000000000E+00 0. -1.
          4    1    1    2  501    0 -0.13873574657E+03  0.95960025233E+02  0.73891651635E+02  0.18416272696E+03  0.00000000000E+00 0.  1.
<scales pt_clust_3="31.06267" pt_clust_4="139.94348" pt_clust_5="144.01109" pt_clust_6="14000.00000"></scales>
<clustering>
<clus scale="   31.063">  3  5 -1 -1</clus>
<clus scale="  144.011">  1  3  2 -1</clus>
<clus scale="  139.943">  2  4  1 -1</clus>
<clus scale="  144.011">  1  3  2 -1</clus>
</clustering>
</event>
<event>
 6    0  0.1230761E+002  0.9600929E+02  0.7546771E-02  0.1288919E+00
          2   -1    0    0  505    0 -0.00000000000E+00  0.00000000000E+00  0.13708976790E+04  0.13708976790E+04  0.00000000000E+00 0.  1.
         21   -1    0    0  501  502  0.00000000000E+00 -0.00000000000E+00 -0.15885918838E+03  0.15885918838E+03  0.00000000000E+00 0. -1.
         21    1    1    2  503  502  0.88627003704E+01  0.49053007891E+02 -0.12409700782E+02  0.51368723115E+02  0.00000000000E+00 0. -1.
         21    1    1    2  504  503 -0.89187378152E+02  0.28617979620E+01 -0.10451033380E+03  0.13742266255E+03  0.00000000000E+00 0. -1.
         21    1    1    2  505  504 -0.30651793302E+02  0.19293112828E+02  0.13592853446E+03  0.14067097467E+03  0.00000000000E+00 0. -1.
          2    1    1    2  501    0  0.11097647108E+03 -0.71207918680E+02  0.11930299908E+04  0.12002945071E+04  0.00000000000E+00 0.  1.
<scales pt_clust_3="50.06395" pt_clust_4="96.00929" pt_clust_5="36.21818" pt_clust_6="14000.00000"></scales>
<clustering>
<clus scale="   36.218">  1  5  2 -1</clus>
<clus scale="   50.064">  2  3  1 -1</clus>
<clus scale="   96.009">  2  4  1 -1</clus>
<clus scale="   50.064">  2  3  1 -1</clus>
</clustering>
</event>
<event>
 6    0  0.1230761E+002  0.1796483E+03  0.7546771E-02  0.1168144E+00
          3   -1    0    0  503    0 -0.00000000000E+00  0.00000000000E+00  0.67907993837E+03  0.67907993837E+03  0.00000000000E+00 0.  1.
         21   -1    0    0  501  502  0.00000000000E+00 -0.00000000000E+00 -0.20320661805E+03  0.20320661805E+03  0.00000000000E+00 0.  1.
         21    1    1    2  503  504 -0.21605070422E+02  0.24557346306E+02  0.11512798313E+03  0.11968414609E+03  0.00000000000E+00 0. -1.
         21    1    1    2  504  505 -0.26687393897E+02 -0.21389590909E+02  0.32224170729E+02  0.46990730697E+02  0.00000000000E+00 0. -1.
         21    1    1    2  505  502 -0.76197203514E+02 -0.16090667403E+03 -0.12636164427E+03  0.21832140690E+03  0.00000000000E+00 0.  1.
          3    1    1    2  501    0  0.12448966783E+03  0.15773891863E+03  0.45488281073E+03  0.49729027272E+03  0.00000000000E+00 0.  1.
<scales pt_clust_3="32.70844" pt_clust_4="34.38442" pt_clust_5="179.64835" pt_clust_6="14000.00000"></scales>
<clustering>
<clus scale="   32.708">  1  3  2 -1</clus>
<clus scale="   34.384">  1  4  2 -1</clus>
<clus scale="  179.648">  2  5  1 -1</clus>
<clus scale="  179.648">  2  3  1 -1</clus>
</clustering>
</event>
<event>
 6    0  0.1230761E+002  0.9930621E+02  0.7546771E-02  0.1281762E+00
         21   -1    0    0  501  502  0.00000000000E+00  0.00000000000E+00  0.72897516379E+03  0.72897516379E+03  0.00000000000E+00 0. -1.
         -3   -1    0    0    0  501 -0.00000000000E+00 -0.00000000000E+00 -0.94446732940E+02  0.94446732940E+02  0.00000000000E+00 0.  1.
         21    1    1    2  503  502  0.21079663529E+02 -0.22131795596E+02  0.55353967983E+02  0.63231561440E+02  0.00000000000E+00 0.  1.
         21    1    1    2  504  505 -0.40730783758E+02  0.58056614866E+02  0.25153733932E+02  0.75248106992E+02  0.00000000000E+00 0. -1.
         21    1    1    2  505  503  0.85491537447E+02 -0.24420504462E+02  0.59823340443E+03  0.60480440656E+03  0.00000000000E+00 0. -1.
         -3    1    1    2    0  504 -0.65840417218E+02 -0.11504314808E+02 -0.44212675497E+02  0.80137821740E+02  0.00000000000E+00 0.  1.
<scales pt_clust_3="30.56417" pt_clust_4="99.30621" pt_clust_5="14000.00000" pt_clust_6="66.38665"></scales>
<clustering>
<clus scale="   30.564">  1  3  2 -1</clus>
<clus scale="   66.387">  2  6  1 -1</clus>
<clus scale="   99.306">  2  4  1 -1</clus>
<clus scale="   30.564">  1  3  2 -1</clus>
</clustering>
</event>
<event>
 6    0  0.1230761E+002  0.6711698E+02  0.7546771E-02  0.1370181E+00
         21   -1    0    0  504  502  0.00000000000E+00  0.00000000000E+00  0.22589493587E+03  0.22589493587E+03  0.00000000000E+00 0. -1.
         -3   -1    0    0    0  501 -0.00000000000E+00 -0.00000000000E+00 -0.24783917142E+03  0.24783917142E+03  0.00000000000E+00 0.  1.
         21    1    1    2  503  501  0.15666704288E+02 -0.67192148778E+02 -0.52095636542E+02  0.86453373719E+02  0.00000000000E+00 0.  1.
         21    1    1    2  504  503 -0.47926025118E+01  0.34052661773E+02  0.97787380037E+01  0.35751594784E+02  0.00000000000E+00 0. -1.
         21    1    1    2  505  502  0.66122964486E+02 -0.11383765494E+01  0.16854960584E+03  0.18105941556E+03  0.00000000000E+00 0. -1.
         -3    1    1    2    0  505 -0.76997066262E+02  0.34277863555E+02 -0.14817694285E+03  0.17046972323E+03  0.00000000000E+00 0.  1.
<scales pt_clust_3="66.09826" pt_clust_4="34.38827" pt_clust_5="67.11698" pt_clust_6="14000.00000"></scales>
<clustering>
<clus scale="   34.388">  1  4  2 -1</clus>
<clus scale="   66.098">  2  3  1 -1</clus>
<clus scale="   67.117">  1  5  2 -1</clus>
<clus scale="   34.388">  1  3  2 -1</clus>
</clustering>
</event>
<event>
 6    0  0.1230761E+002  0.1226840E+03  0.7546771E-02  0.1238734E+00
         21   -1    0    0  503  502  0.00000000000E+00  0.00000000000E+00  0.13180979886E+03  0.13180979886E+03  0.00000000000E+00 0. -1.
          1   -1    0    0  504    0 -0.00000000000E+00 -0.00000000000E+00 -0.66473559750E+03  0.66473559750E+03  0.00000000000E+00 0.  1.
         21    1    1    2  503  505 -0.19483428056E+02  0.23284271626E+02 -0.39222015855E+01  0.30612823118E+02  0.00000000000E+00 0.  1.
         21    1    1    2  504  502  0.71846780288E+02 -0.23732514872E+02 -0.21428485059E+03  0.22725137908E+03  0.00000000000E+00 0.  1.
         21    1    1    2  505  501  0.19532109998E+00  0.10479716098E+03  0.76912825670E+02  0.12999256076E+03  0.00000000000E+00 0. -1.
          1    1    1    2  501    0 -0.52558673332E+02 -0.10434891774E+03 -0.39163157213E+03  0.40868863340E+03  0.00000000000E+00 0.  1.
<scales pt_clust_3="30.36052" pt_clust_4="74.25800" pt_clust_5="14000.00000" pt_clust_6="122.68402"></scales>
<clustering>
<clus scale="   30.361">  1  3  2 -1</clus>
<clus scale="   74.258">  2  4  1 -1</clus>
<clus scale="  122.684">  2  6  1 -1</clus>
<clus scale="   30.361">  1  3  2 -1</clus>
</clustering>
</event>
<event>
 6    0  0.1230761E+002  0.1373155E+03  0.7546771E-02  0.1216987E+00
         21   -1    0    0  501  502  0.00000000000E+00  0.00000000000E+00  0.15457479416E+03  0.15457479416E+03  0.00000000000E+00 0. -1.
          1   -1    0    0  505    0 -0.00000000000E+00 -0.00000000000E+00 -0.10205926254E+04  0.10205926254E+04  0.00000000000E+00 0.  1.
         21    1    1    2  503  504  0.14176928414E+03 -0.14915616245E+02  0.30089077583E+02  0.14569268383E+03  0.00000000000E+00 0. -1.
         21    1    1    2  504  502 -0.22069414548E+02  0.80282792270E+02  0.24779714918E+02  0.86870133329E+02  0.00000000000E+00 0. -1.
         21    1    1    2  505  503  0.27528374668E+02 -0.12830248230E+02 -0.32983931032E+03  0.33123465597E+03  0.00000000000E+00 0.  1.
          1    1    1    2  501    0 -0.14722824426E+03 -0.52536927796E+02 -0.59104731347E+03  0.61136994647E+03  0.00000000000E+00 0.  1.
<scales pt_clust_3="137.31549" pt_clust_4="82.38267" pt_clust_5="30.37148" pt_clust_6="14000.00000"></scales>
<clustering>
<clus scale="   30.371">  2  5  1 -1</clus>
<clus scale="   82.383">  1  4  2 -1</clus>
<clus scale="  137.315">  1  3  2 -1</clus>
<clus scale="   82.383">  1  3  2 -1</clus>
</clustering>
</event>
<event>
 6    0  0.1230761E+002  0.3826530E+03  0.7546771E-02  0.1049958E+00
         21   -1    0    0  503  502  0.00000000000E+00  0.00000000000E+00  0.52848558446E+03  0.52848558446E+03  0.00000000000E+00 0.  1.
          1   -1    0    0  505    0 -0.00000000000E+00 -0.00000000000E+00 -0.22389101679E+04  0.22389101679E+04  0.00000000000E+00 0.  1.
         21    1    1    2  503  501 -0.74235373407E+02  0.66964507496E+02 -0.30210985355E+02  0.10444060305E+03  0.00000000000E+00 0.  1.
         21    1    1    2  504  502 -0.89996441753E+02  0.69806682001E+02  0.20861846728E+03  0.23768465931E+03  0.00000000000E+00 0.  1.
         21    1    1    2  505  504 -0.16074648865E+03  0.63397257573E+02  0.22137138058E+03  0.28082723162E+03  0.00000000000E+00 0.  1.
          1    1    1    2  501    0  0.32497830381E+03 -0.20016844707E+03 -0.21102034459E+04  0.21444432584E+04  0.00000000000E+00 0.  1.
<scales pt_clust_3="99.97568" pt_clust_4="46.97643" pt_clust_5="46.97643" pt_clust_6="378.25300"></scales>
<clustering>
<clus scale="   46.976">  4  5 -1 -1</clus>
<clus scale="   99.976">  1  3  2 -1</clus>
<clus scale="  378.253">  2  6  1 -1</clus>
<clus scale="   99.976">  1  3  2 -1</clus>
</clustering>
</event>
<event>
 6    0  0.1230761E+002  0.3973881E+03  0.7546771E-02  0.1044688E+00
         21   -1    0    0  501  502  0.00000000000E+00  0.00000000000E+00  0.35434735376E+03  0.35434735376E+03  0.00000000000E+00 0.  1.
          1   -1    0    0  504    0 -0.00000000000E+00 -0.00000000000E+00 -0.70253038031E+03  0.70253038031E+03  0.00000000000E+00 0.  1.
         21    1    1    2  503  502 -0.34209538070E+02  0.96805156457E+02 -0.19382103820E+02  0.10448539017E+03  0.00000000000E+00 0.  1.
         21    1    1    2  504  505 -0.98902268762E+02  0.69429991400E+02 -0.71868430716E+02  0.14059606611E+03  0.00000000000E+00 0. -1.
         21    1    1    2  505  503  0.10704954893E+02  0.26727468062E+03  0.42571645116E+02  0.27085548902E+03  0.00000000000E+00 0.  1.
          1    1    1    2  501    0  0.12240685194E+03 -0.43350982848E+03 -0.29950413714E+03  0.54094078877E+03  0.00000000000E+00 0.  1.
<scales pt_clust_3="52.70297" pt_clust_4="120.83949" pt_clust_5="52.70297" pt_clust_6="388.17638"></scales>
<clustering>
<clus scale="   52.703">  3  5 -1 -1</clus>
<clus scale="  120.839">  2  4  1 -1</clus>
<clus scale="  388.176">  2  6  1 -1</clus>
<clus scale="  397.388">  1  3  2 -1</clus>
</clustering>
</event>
<event>
 6    0  0.1230761E+002  0.1321342E+03  0.7546771E-02  0.1224323E+00
         21   -1    0    0  505  502  0.00000000000E+00  0.00000000000E+00  0.51014953895E+02  0.51014953895E+02  0.00000000000E+00 0.  1.
          2   -1    0    0  504    0 -0.00000000000E+00 -0.00000000000E+00 -0.24069224591E+04  0.24069224591E+04  0.00000000000E+00 0. -1.
         21    1    1    2  503  502 -0.12194259637E+02 -0.67347479269E+02 -0.92219629609E+02  0.11484268813E+03  0.00000000000E+00 0. -1.
         21    1    1    2  504  503  0.35331391528E+02  0.14991995882E+02 -0.13424229508E+03  0.13962113363E+03  0.00000000000E+00 0.  1.
         21    1    1    2  505  501 -0.15126597321E+02 -0.71655971331E+02 -0.28921590840E+01  0.73292269429E+02  0.00000000000E+00 0.  1.
          2    1    1    2  501    0 -0.80105345698E+01  0.12401145472E+03 -0.21265534215E+04  0.21301813218E+04  0.00000000000E+00 0. -1.
<scales pt_clust_3="67.49850" pt_clust_4="38.38056" pt_clust_5="14000.00000" pt_clust_6="132.13416"></scales>
<clustering>
<clus scale="   38.381">  2  4  1 -1</clus>
<clus scale="   67.498">  1  3  2 -1</clus>
<clus scale="  132.134">  2  6  1 -1</clus>
<clus scale="   67.498">  1  3  2 -1</clus>
</clustering>
</event>
<event>
 6    0  0.1230761E+002  0.2903247E+03  0.7546771E-02  0.1090180E+00
         21   -1    0    0  505  502  0.00000000000E+00  0.00000000000E+00  0.13730995764E+03  0.13730995764E+03  0.00000000000E+00 0. -1.
          2   -1    0    0  503    0 -0.00000000000E+00 -0.00000000000E+00 -0.33681780894E+04  0.33681780894E+04  0.00000000000E+00 0. -1.
         21    1    1    2  503  504  0.12121999210E+03  0.69975479389E+02 -0.74807614299E+03  0.76105766530E+03  0.00000000000E+00 0.  1.
         21    1    1    2  504  502  0.45571505960E+02  0.16911893918E+02  0.10626107422E+02  0.49756290762E+02  0.00000000000E+00 0. -1.
         21    1    1    2  505  501 -0.28688113075E+03 -0.19588795561E+03 -0.21087304346E+03  0.40637459910E+03  0.00000000000E+00 0. -1.
          2    1    1    2  501    0  0.12008963269E+03  0.10900058230E+03 -0.22825450527E+04  0.22882994919E+04  0.00000000000E+00 0. -1.
<scales pt_clust_3="142.87201" pt_clust_4="48.60838" pt_clust_5="290.32470" pt_clust_6="14000.00000"></scales>
<clustering>
<clus scale="   48.608">  1  4  2 -1</clus>
<clus scale="  142.872">  2  3  1 -1</clus>
<clus scale="  290.325">  1  5  2 -1</clus>
<clus scale="   48.608">  1  3  2 -1</clus>
</clustering>
</event>
<event>
 6    0  0.1230761E+002  0.1154541E+03  0.7546771E-02  0.1250791E+00
         21   -1    0    0  504  502  0.00000000000E+00  0.00000000000E+00  0.37176866772E+03  0.37176866772E+03  0.00000000000E+00 0.  1.
          2   -1    0    0  502    0 -0.00000000000E+00 -0.00000000000E+00 -0.65017479250E+03  0.65017479250E+03  0.00000000000E+00 0.  1.
         21    1    1    2  503  501 -0.95099198224E+02 -0.12156507203E+03 -0.24267736401E+03  0.28760081231E+03  0.00000000000E+00 0.  1.
         21    1    1    2  504  505 -0.10563361442E+03  0.88445836662E+01  0.25333809538E+03  0.27462133516E+03  0.00000000000E+00 0.  1.
         21    1    1    2  505  503  0.12434278021E+03  0.89095939787E+02  0.69197668282E+01  0.15312444825E+03  0.00000000000E+00 0.  1.
          2    1    1    2  501    0  0.76390032428E+02  0.23624548577E+02 -0.29598662296E+03  0.30659686450E+03  0.00000000000E+00 0.  1.
<scales pt_clust_3="14000.00000" pt_clust_4="103.74546" pt_clust_5="115.45407" pt_clust_6="79.95972"></scales>
<clustering>
<clus scale="   79.960">  2  6  1 -1</clus>
<clus scale="  103.745">  1  4  2 -1</clus>
<clus scale="  115.454">  1  5  2 -1</clus>
<clus scale="  103.745">  1  3  2 -1</clus>
</clustering>
</event>
<event>
 6    0  0.1230761E+002  0.1669736E+03  0.7546771E-02  0.1181041E+00
          1   -1    0    0  505    0 -0.00000000000E+00  0.00000000000E+00  0.21005561556E+04  0.21005561556E+04  0.00000000000E+00 0. -1.
         21   -1    0    0  504  502  0.00000000000E+00 -0.00000000000E+00 -0.50223538044E+03  0.50223538044E+03  0.00000000000E+00 0.  1.
         21    1    1    2  503  501  0.75427501755E+02 -0.10886599966E+03 -0.41148498951E+03  0.43227423066E+03  0.00000000000E+00 0.  1.
         21    1    1    2  504  503  0.96787453295E+01  0.38298297083E+02 -0.59446952105E+02  0.71374910054E+02  0.00000000000E+00 0. -1.
         21    1    1    2  505  502 -0.52166969812E+02 -0.12851907713E+03  0.58407404940E+03  0.60031745028E+03  0.00000000000E+00 0. -1.
          1    1    1    2  501    0 -0.32939277272E+02  0.19908677970E+03  0.14851786674E+04  0.14988249450E+04  0.00000000000E+00 0. -1.
<scales pt_clust_3="111.14524" pt_clust_4="39.50238" pt_clust_5="14000.00000" pt_clust_6="166.97360"></scales>
<clustering>
<clus scale="   39.502">  2  4  1 -1</clus>
<clus scale="  111.145">  2  3  1 -1</clus>
<clus scale="  166.974">  1  6  2 -1</clus>
<clus scale="   39.502">  2  3  1 -1</clus>
</clustering>
</event>
<event>
 6    0  0.1230761E+002  0.1124108E+03  0.7546771E-02  0.1256170E+00
          3   -1    0    0  504    0 -0.00000000000E+00  0.00000000000E+00  0.26052893686E+04  0.26052893686E+04  0.00000000000E+00 0.  1.
         21   -1    0    0  503  502  0.00000000000E+00 -0.00000000000E+00 -0.55466476710E+02  0.55466476710E+02  0.00000000000E+00 0. -1.
         21    1    1    2  503  505  0.14600907968E+02  0.52996101905E+02  0.12623697488E+02  0.56401516548E+02  0.00000000000E+00 0. -1.
         21    1    1    2  504  502 -0.87259568032E+02 -0.58024288233E+02  0.71584276426E+03  0.72347212343E+03  0.00000000000E+00 0. -1.
         21    1    1    2  505  501 -0.24615126503E+02  0.53044891119E+02  0.22260656605E+01  0.58520255424E+02  0.00000000000E+00 0. -1.
          3    1    1    2  501    0  0.97273786567E+02 -0.48016704791E+02  0.18191303645E+04  0.18223619499E+04  0.00000000000E+00 0.  1.
<scales pt_clust_3="39.28193" pt_clust_4="104.79051" pt_clust_5="39.28193" pt_clust_6="104.85544"></scales>
<clustering>
<clus scale="   39.282">  3  5 -1 -1</clus>
<clus scale="  104.791">  1  4  2 -1</clus>
<clus scale="  104.855">  1  6  2 -1</clus>
<clus scale="  112.411">  2  3  1 -1</clus>
</clustering>
</event>
<event>
 6    0  0.1230761E+002  0.2861379E+03  0.7546771E-02  0.1092383E+00
          2   -1    0    0  503    0 -0.00000000000E+00  0.00000000000E+00  0.90492187334E+03  0.90492187334E+03  0.00000000000E+00 0.  1.
         21   -1    0    0  501  502  0.00000000000E+00 -0.00000000000E+00 -0.54512031355E+03  0.54512031355E+03  0.00000000000E+00 0.  1.
         21    1    1    2  503  505 -0.45907726323E+02 -0.27220771167E+02  0.10498613407E+03  0.11777341833E+03  0.00000000000E+00 0.  1.
         21    1    1    2  504  502 -0.91122245007E+02  0.66686151914E+02 -0.16947413599E+03  0.20364623533E+03  0.00000000000E+00 0.  1.
         21    1    1    2  505  504 -0.17086984082E+03  0.13275037632E+00 -0.29740347005E+03  0.34299467068E+03  0.00000000000E+00 0.  1.
          2    1    1    2  501    0  0.30789981215E+03 -0.39598131124E+02  0.72169303177E+03  0.78562786255E+03  0.00000000000E+00 0.  1.
<scales pt_clust_3="53.37124" pt_clust_4="71.37361" pt_clust_5="71.37361" pt_clust_6="272.28282"></scales>
<clustering>
<clus scale="   53.371">  1  3  2 -1</clus>
<clus scale="   71.374">  4  5 -1 -1</clus>
<clus scale="  272.283">  1  6  2 -1</clus>
<clus scale="  286.138">  2  3  1 -1</clus>
</clustering>
</event>
<event>
 6    0  0.1230761E+002  0.9280285E+02  0.7546771E-02  0.1296203E+00
          2   -1    0    0  503    0 -0.00000000000E+00  0.00000000000E+00  0.12637724823E+04  0.12637724823E+04  0.00000000000E+00 0.  1.
         21   -1    0    0  505  502  0.00000000000E+00 -0.00000000000E+00 -0.12009378260E+03  0.12009378260E+03  0.00000000000E+00 0. -1.
         21    1    1    2  503  502  0.24500203657E+02 -0.49681341853E+02  0.15732623707E+03  0.16679340688E+03  0.00000000000E+00 0. -1.
         21    1    1    2  504  501  0.37788227796E+02  0.45936433356E+02  0.36163060704E+01  0.59591809328E+02  0.00000000000E+00 0. -1.
         21    1    1    2  505  504  0.27319461293E+02  0.38060346754E+02 -0.78768522206E+02  0.91648366329E+02  0.00000000000E+00 0. -1.
          2    1    1    2  501    0 -0.89607892745E+02 -0.34315438257E+02  0.10615046787E+04  0.10658326823E+04  0.00000000000E+00 0.  1.
<scales pt_clust_3="52.70107" pt_clust_4="92.80285" pt_clust_5="46.85022" pt_clust_6="14000.00000"></scales>
<clustering>
<clus scale="   46.850">  2  5  1 -1</clus>
<clus scale="   52.701">  2  3  1 -1</clus>
<clus scale="   92.803">  2  4  1 -1</clus>
<clus scale="   46.850">  2  3  1 -1</clus>
</clustering>
</event>
<event>
 6    0  0.1230761E+002  0.1111046E+03  0.7546771E-02  0.1258538E+00
         21   -1    0    0  503  502  0.00000000000E+00  0.00000000000E+00  0.52162731031E+02  0.52162731031E+02  0.00000000000E+00 0.  1.
          2   -1    0    0  505    0 -0.00000000000E+00 -0.00000000000E+00 -0.72139659947E+03  0.72139659947E+03  0.00000000000E+00 0. -1.
         21    1    1    2  503  504 -0.45665248403E+02  0.27846486392E+02  0.75076123662E+00  0.53491170846E+02  0.00000000000E+00 0.  1.
         21    1    1    2  504  501 -0.41152383013E+02  0.26653107500E+02 -0.32837620286E+02  0.59010304805E+02  0.00000000000E+00 0.  1.
         21    1    1    2  505  502 -0.38595460151E+02 -0.69054921970E+01 -0.99921807680E+02  0.10733900976E+03  0.00000000000E+00 0.  1.
          2    1    1    2  501    0  0.12541309157E+03 -0.47594101695E+02 -0.53722520171E+03  0.55371884508E+03  0.00000000000E+00 0. -1.
<scales pt_clust_3="32.03491" pt_clust_4="32.03491" pt_clust_5="39.20836" pt_clust_6="105.94680"></scales>
<clustering>
<clus scale="   32.035">  3  4 -1 -1</clus>
<clus scale="   39.208">  2  5  1 -1</clus>
<clus scale="  105.947">  2  6  1 -1</clus>
<clus scale="  111.105">  1  3  2 -1</clus>
</clustering>
</event>
<event>
 6    0  0.1230761E+002  0.8813539E+02  0.7546771E-02  0.1307431E+00
         21   -1    0    0  501  502  0.00000000000E+00  0.00000000000E+00  0.11036563273E+03  0.11036563273E+03  0.00000000000E+00 0. -1.
          2   -1    0    0  503    0 -0.00000000000E+00 -0.00000000000E+00 -0.63790453606E+03  0.63790453606E+03  0.00000000000E+00 0.  1.
         21    1    1    2  503  505  0.33125219520E+02  0.20407036441E+02 -0.39382034691E+03  0.39573753037E+03  0.00000000000E+00 0.  1.
         21    1    1    2  504  502  0.41939052378E+02 -0.20779220983E+02  0.44738892221E+02  0.64747421696E+02  0.00000000000E+00 0. -1.
         21    1    1    2  505  504  0.39812032710E+02  0.55139650311E+02  0.71672430694E+00  0.68013915331E+02  0.00000000000E+00 0. -1.
          2    1    1    2  501    0 -0.11487630461E+03 -0.54767465769E+02 -0.17917417294E+03  0.21977130140E+03  0.00000000000E+00 0.  1.
<scales pt_clust_3="38.90665" pt_clust_4="47.67238" pt_clust_5="14000.00000" pt_clust_6="88.13539"></scales>
<clustering>
<clus scale="   38.907">  2  3  1 -1</clus>
<clus scale="   47.672">  1  4  2 -1</clus>
<clus scale="   88.135">  2  6  1 -1</clus>
<clus scale="   47.672">  1  3  2 -1</clus>
</clustering>
</event>
<event>
 6    0  0.1230761E+002  0.1052823E+03  0.7546771E-02  0.1269564E+00
         -2   -1    0    0    0  501 -0.00000000000E+00  0.00000000000E+00  0.59443061831E+03  0.59443061831E+03  0.00000000000E+00 0.  1.
         21   -1    0    0  504  502  0.00000000000E+00 -0.00000000000E+00 -0.14263355269E+03  0.14263355269E+03  0.00000000000E+00 0. -1.
         21    1    1    2  503  501 -0.25191069941E+02  0.32169075114E+02  0.58820431184E+02  0.71619009509E+02  0.00000000000E+00 0. -1.
         21    1    1    2  504  505  0.46967556112E+02  0.57788509644E+00 -0.42899593395E+02  0.63613366455E+02  0.00000000000E+00 0. -1.
         21    1    1    2  505  503 -0.14227840941E+03 -0.74369091360E+00 -0.62942442266E+01  0.14241950839E+03  0.00000000000E+00 0. -1.
         -2    1    1    2    0  502  0.12050192324E+03 -0.32003269297E+02  0.44217047206E+03  0.45941228664E+03  0.00000000000E+00 0.  1.
<scales pt_clust_3="40.85877" pt_clust_4="46.49024" pt_clust_5="105.28231" pt_clust_6="14000.00000"></scales>
<clustering>
<clus scale="   40.859">  1  3  2 -1</clus>
<clus scale="   46.490">  2  4  1 -1</clus>
<clus scale="  105.282">  2  5  1 -1</clus>
<clus scale="   46.490">  2  3  1 -1</clus>
</clustering>
</event>
<event>
 6    0  0.1230761E+002  0.9971565E+02  0.7546771E-02  0.1280895E+00
         21   -1    0    0  505  502  0.00000000000E+00  0.00000000000E+00  0.50813164015E+03  0.50813164015E+03  0.00000000000E+00 0.  1.
          1   -1    0    0  503    0 -0.00000000000E+00 -0.00000000000E+00 -0.26423249039E+04  0.26423249039E+04  0.00000000000E+00 0. -1.
         21    1    1    2  503  502 -0.24949299663E+02 -0.35821717753E+02 -0.99113406657E+03  0.99209495560E+03  0.00000000000E+00 0. -1.
         21    1    1    2  504  501 -0.14656510624E+01  0.67659279836E+02  0.35620159193E+02  0.76476937844E+02  0.00000000000E+00 0. -1.
         21    1    1    2  505  504 -0.46646222818E+02  0.21869307939E+02  0.44886722094E+03  0.45181403118E+03  0.00000000000E+00 0.  1.
          1    1    1    2  501    0  0.73061173543E+02 -0.53706870022E+02 -0.16275465774E+04  0.16300706195E+04  0.00000000000E+00 0. -1.
<scales pt_clust_3="43.65390" pt_clust_4="14000.00000" pt_clust_5="51.52492" pt_clust_6="99.71565"></scales>
<clustering>
<clus scale="   43.654">  2  3  1 -1</clus>
<clus scale="   51.525">  1  5  2 -1</clus>
<clus scale="   99.716">  2  6  1 -1</clus>
<clus scale="   51.525">  1  3  2 -1</clus>
</clustering>
</event>
<event>
 6    0  0.1230761E+002  0.1208413E+03  0.7546771E-02  0.1241716E+00
         21   -1    0    0  501  502  0.00000000000E+00  0.00000000000E+00  0.72886417837E+02  0.72886417837E+02  0.00000000000E+00 0.  1.
          2   -1    0    0  503    0 -0.00000000000E+00 -0.00000000000E+00 -0.21508214320E+04  0.21508214320E+04  0.00000000000E+00 0.  1.
         21    1    1    2  503  505  0.18924883467E+02  0.36125199213E+02 -0.13240628690E+04  0.13246907799E+04  0.00000000000E+00 0.  1.
         21    1    1    2  504  502 -0.68919173194E+02 -0.34721206516E+02  0.11943262801E+02  0.78090051492E+02  0.00000000000E+00 0.  1.
         21    1    1    2  505  504 -0.42745376307E+02  0.14396460536E+02  0.40951627981E+01  0.45290127290E+02  0.00000000000E+00 0.  1.
          2    1    1    2  501    0  0.92739666035E+02 -0.15800453233E+02 -0.76991057071E+03  0.77563689112E+03  0.00000000000E+00 0.  1.
<scales pt_clust_3="40.78212" pt_clust_4="34.89520" pt_clust_5="34.89520" pt_clust_6="111.88941"></scales>
<clustering>
<clus scale="   34.895">  4  5 -1 -1</clus>
<clus scale="   40.782">  2  3  1 -1</clus>
<clus scale="  111.889">  2  6  1 -1</clus>
<clus scale="  120.841">  1  3  2 -1</clus>
</clustering>
</event>
<event>
 6    0  0.1230761E+002  0.2120364E+03  0.7546771E-02  0.1139963E+00
          1   -1    0    0  503    0 -0.00000000000E+00  0.00000000000E+00  0.72529252596E+03  0.72529252596E+03  0.00000000000E+00 0.  1.
         21   -1    0    0  501  502  0.00000000000E+00 -0.00000000000E+00 -0.12289270780E+03  0.12289270780E+03  0.00000000000E+00 0.  1.
         21    1    1    2  503  504  0.19847255326E+02  0.58421164209E+02  0.81601396110E+02  0.10230216918E+03  0.00000000000E+00 0.  1.
         21    1    1    2  504  505 -0.10746223768E+03  0.12478452366E+02 -0.13186136596E+02  0.10898494621E+03  0.00000000000E+00 0.  1.
         21    1    1    2  505  502 -0.60328772993E+02  0.72590258499E+02  0.41653864681E+02  0.10316952516E+03  0.00000000000E+00 0.  1.
          1    1    1    2  501    0  0.14794375535E+03 -0.14348987507E+03  0.49233069397E+03  0.53372859322E+03  0.00000000000E+00 0.  1.
<scales pt_clust_3="61.70045" pt_clust_4="89.81260" pt_clust_5="89.81260" pt_clust_6="190.13369"></scales>
<clustering>
<clus scale="   61.700">  1  3  2 -1</clus>
<clus scale="   89.813">  4  5 -1 -1</clus>
<clus scale="  190.134">  1  6  2 -1</clus>
<clus scale="  212.036">  2  3  1 -1</clus>
</clustering>
</event>
<event>
 6    0  0.1230761E+002  0.1173319E+03  0.7546771E-02  0.1247565E+00
          1   -1    0    0  505    0 -0.00000000000E+00  0.00000000000E+00  0.20340211410E+03  0.20340211410E+03  0.00000000000E+00 0. -1.
         21   -1    0    0  503  502  0.00000000000E+00 -0.00000000000E+00 -0.66057052363E+03  0.66057052363E+03  0.00000000000E+00 0. -1.
         21    1    1    2  503  504 -0.25747668866E+02  0.17389012935E+02 -0.14530602823E+03  0.14859058537E+03  0.00000000000E+00 0.  1.
         21    1    1    2  504  501 -0.53782569648E+02  0.13412816368E+03  0.17898002859E+02  0.14561341833E+03  0.00000000000E+00 0. -1.
         21    1    1    2  505  502 -0.15273069366E+02 -0.12611460486E+03 -0.41855891526E+03  0.43741253497E+03  0.00000000000E+00 0. -1.
          1    1    1    2  501    0  0.94803307880E+02 -0.25402571754E+02  0.88798531088E+02  0.13235609907E+03  0.00000000000E+00 0. -1.
<scales pt_clust_3="31.06960" pt_clust_4="14000.00000" pt_clust_5="117.33193" pt_clust_6="96.90319"></scales>
<clustering>
<clus scale="   31.070">  2  3  1 -1</clus>
<clus scale="   96.903">  1  6  2 -1</clus>
<clus scale="  117.332">  2  5  1 -1</clus>
<clus scale="   31.070">  2  3  1 -1</clus>
</clustering>
</event>
<event>
 6    0  0.1230761E+002  0.1600908E+03  0.7546771E-02  0.1188594E+00
         21   -1    0    0  501  502  0.00000000000E+00  0.00000000000E+00  0.12923906517E+03  0.12923906517E+03  0.00000000000E+00 0.  1.
          1   -1    0    0  504    0 -0.00000000000E+00 -0.00000000000E+00 -0.16207019791E+04  0.16207019791E+04  0.00000000000E+00 0.  1.
         21    1    1    2  503  502 -0.14436251113E+02  0.51498211384E+02  0.33229047031E+02  0.62965392784E+02  0.00000000000E+00 0.  1.
         21    1    1    2  504  505  0.10683326235E+03 -0.16779398596E+02 -0.24484146891E+03  0.26766067896E+03  0.00000000000E+00 0. -1.
         21    1    1    2  505  503  0.40598329697E+02  0.95473885655E+02  0.20466314711E+02  0.10574666545E+03  0.00000000000E+00 0.  1.
          1    1    1    2  501    0 -0.13299534093E+03 -0.13019269844E+03 -0.13003168068E+04  0.13135683071E+04  0.00000000000E+00 0.  1.
<scales pt_clust_3="41.21636" pt_clust_4="108.14293" pt_clust_5="41.21636" pt_clust_6="149.44480"></scales>
<clustering>
<clus scale="   41.216">  3  5 -1 -1</clus>
<clus scale="  108.143">  2  4  1 -1</clus>
<clus scale="  149.445">  2  6  1 -1</clus>
<clus scale="  160.091">  1  3  2 -1</clus>
</clustering>
</event>
<event>
 6    0  0.1230761E+002  0.1630272E+03  0.7546771E-02  0.1185321E+00
          2   -1    0    0  505    0 -0.00000000000E+00  0.00000000000E+00  0.12067098077E+04  0.12067098077E+04  0.00000000000E+00 0. -1.
         21   -1    0    0  501  502  0.00000000000E+00 -0.00000000000E+00 -0.10368089241E+04  0.10368089241E+04  0.00000000000E+00 0. -1.
         21    1    1    2  503  504 -0.34139992283E+02  0.34662458056E+02  0.18987172963E+02  0.52225834686E+02  0.00000000000E+00 0.  1.
         21    1    1    2  504  502  0.14380637634E+03 -0.77798087167E+02 -0.10098549049E+04  0.10230052518E+04  0.00000000000E+00 0. -1.
         21    1    1    2  505  503 -0.32115523072E+02 -0.11535573931E+01  0.14099323408E+03  0.14460923059E+03  0.00000000000E+00 0. -1.
          2    1    1    2  501    0 -0.77550860987E+02  0.44289186504E+02  0.10197753815E+04  0.10236784148E+04  0.00000000000E+00 0. -1.
<scales pt_clust_3="49.38517" pt_clust_4="163.02716" pt_clust_5="32.13623" pt_clust_6="14000.00000"></scales>
<clustering>
<clus scale="   32.136">  1  5  2 -1</clus>
<clus scale="   49.385">  1  3  2 -1</clus>
<clus scale="  163.027">  2  4  1 -1</clus>
<clus scale="  163.027">  2  3  1 -1</clus>
</clustering>
</event>
<event>
 6    0  0.1230761E+002  0.1448524E+03  0.7546771E-02  0.1206945E+00
          2   -1    0    0  503    0 -0.00000000000E+00  0.00000000000E+00  0.16880863832E+04  0.16880863832E+04  0.00000000000E+00 0.  1.
         21   -1    0    0  504  502  0.00000000000E+00 -0.00000000000E+00 -0.56968388423E+02  0.56968388423E+02  0.00000000000E+00 0. -1.
         21    1    1    2  503  502  0.29390705506E+02 -0.41791667958E+02  0.36643142117E+03  0.36997613910E+03  0.00000000000E+00 0.  1.
         21    1    1    2  504  505  0.20592394297E+01 -0.35720988298E+02  0.43903584421E+02  0.56637039091E+02  0.00000000000E+00 0.  1.
         21    1    1    2  505  501  0.19897729222E+02 -0.92197663797E+02  0.10117828287E+02  0.94861474199E+02  0.00000000000E+00 0. -1.
          2    1    1    2  501    0 -0.51347674158E+02  0.16971032005E+03  0.12106651609E+04  0.12235801192E+04  0.00000000000E+00 0.  1.
<scales pt_clust_3="51.09165" pt_clust_4="34.77697" pt_clust_5="34.77697" pt_clust_6="133.39422"></scales>
<clustering>
<clus scale="   34.777">  4  5 -1 -1</clus>
<clus scale="   51.092">  1  3  2 -1</clus>
<clus scale="  133.394">  1  6  2 -1</clus>
<clus scale="  144.852">  2  3  1 -1</clus>
</clustering>
</event>
<event>
 6    0  0.1230761E+002  0.1461554E+03  0.7546771E-02  0.1205278E+00
         21   -1    0    0  501  502  0.00000000000E+00  0.00000000000E+00  0.10928308538E+04  0.10928308538E+04  0.00000000000E+00 0.  1.
          2   -1    0    0  503    0 -0.00000000000E+00 -0.00000000000E+00 -0.90746594587E+03  0.90746594587E+03  0.00000000000E+00 0.  1.
         21    1    1    2  503  505 -0.90068974131E+01 -0.49122277530E+02 -0.26819216221E+03  0.27280241608E+03  0.00000000000E+00 0.  1.
         21    1    1    2  504  502  0.76203718019E+01  0.40440613271E+02  0.16237906025E+03  0.16751260393E+03  0.00000000000E+00 0. -1.
         21    1    1    2  505  504 -0.14661194200E+03 -0.83578497934E+02  0.90565011959E+03  0.92123968975E+03  0.00000000000E+00 0.  1.
          2    1    1    2  501    0  0.14799846761E+03  0.92260162194E+02 -0.61447210965E+03  0.63874208996E+03  0.00000000000E+00 0.  1.
<scales pt_clust_3="49.83896" pt_clust_4="41.15232" pt_clust_5="146.15542" pt_clust_6="14000.00000"></scales>
<clustering>
<clus scale="   41.152">  1  4  2 -1</clus>
<clus scale="   49.839">  2  3  1 -1</clus>
<clus scale="  146.155">  1  5  2 -1</clus>
<clus scale="   41.152">  1  3  2 -1</clus>
</clustering>
</event>
<event>
 6    0  0.1230761E+002  0.1012719E+03  0.7546771E-02  0.1277644E+00
          1   -1    0    0  503    0 -0.00000000000E+00  0.00000000000E+00  0.58079730184E+03  0.58079730184E+03  0.00000000000E+00 0. -1.
         21   -1    0    0  504  502  0.00000000000E+00 -0.00000000000E+00 -0.25061090408E+03  0.25061090408E+03  0.00000000000E+00 0.  1.
         21    1    1    2  503  505 -0.29250168770E+02  0.15669179720E+02  0.44785772028E+03  0.44908532951E+03  0.00000000000E+00 0. -1.
         21    1    1    2  504  501 -0.56120858797E+02  0.48884366651E+01 -0.17100063851E+03  0.18004073421E+03  0.00000000000E+00 0.  1.
         21    1    1    2  505  502 -0.46294844367E+02 -0.21435882327E+02 -0.16012066392E+02  0.53470514643E+02  0.00000000000E+00 0.  1.
          1    1    1    2  501    0  0.13166587193E+03  0.87826594117E+00  0.69341382392E+02  0.14881162755E+03  0.00000000000E+00 0. -1.
<scales pt_clust_3="33.18276" pt_clust_4="14000.00000" pt_clust_5="53.97232" pt_clust_6="101.27193"></scales>
<clustering>
<clus scale="   33.183">  1  3  2 -1</clus>
<clus scale="   53.972">  2  5  1 -1</clus>
<clus scale="  101.272">  1  6  2 -1</clus>
<clus scale="   53.972">  2  3  1 -1</clus>
</clustering>
</event>
<event>
 6    0  0.1230761E+002  0.1220630E+03  0.7546771E-02  0.1239732E+00
          1   -1    0    0  505    0 -0.00000000000E+00  0.00000000000E+00  0.91562258778E+03  0.91562258778E+03  0.00000000000E+00 0. -1.
         21   -1    0    0  501  502  0.00000000000E+00 -0.00000000000E+00 -0.52230656733E+02  0.52230656733E+02  0.00000000000E+00 0. -1.
         21    1    1    2  503  504 -0.81017686403E+01  0.52432893025E+02  0.71702757543E+02  0.89197154469E+02  0.00000000000E+00 0. -1.
         21    1    1    2  504  502 -0.64708826761E+02  0.20746776571E+02  0.70732234706E+01  0.68320505627E+02  0.00000000000E+00 0. -1.
         21    1    1    2  505  503  0.39376714302E+02  0.41785276202E+02  0.99841707113E+02  0.11517335376E+03  0.00000000000E+00 0. -1.
          1    1    1    2  501    0  0.33433881099E+02 -0.11496494580E+03  0.68477424293E+03  0.69516223066E+03  0.00000000000E+00 0. -1.
<scales pt_clust_3="47.91582" pt_clust_4="67.95337" pt_clust_5="47.91582" pt_clust_6="111.42153"></scales>
<clustering>
<clus scale="   47.916">  3  5 -1 -1</clus>
<clus scale="   67.953">  2  4  1 -1</clus>
<clus scale="  111.422">  1  6  2 -1</clus>
<clus scale="   67.953">  2  3  1 -1</clus>
</clustering>
</event>
<event>
 6    0  0.1230761E+002  0.6842471E+02  0.7546771E-02  0.1365533E+00
         21   -1    0    0  504  502  0.00000000000E+00  0.00000000000E+00  0.90958427431E+03  0.90958427431E+03  0.00000000000E+00 0.  1.
          2   -1    0    0  505    0 -0.00000000000E+00 -0.00000000000E+00 -0.14236392412E+04  0.14236392412E+04  0.00000000000E+00 0.  1.
         21    1    1    2  503  502  0.41064362445E+02  0.24060630313E+02  0.66613625023E+03  0.66783433549E+03  0.00000000000E+00 0.  1.
         21    1    1    2  504  501 -0.10294359663E+03 -0.48764336190E+02  0.22210955309E+03  0.24961570092E+03  0.00000000000E+00 0.  1.
         21    1    1    2  505  503  0.79903020799E+02  0.85227445232E+02 -0.61876867103E+03  0.62970062602E+03  0.00000000000E+00 0.  1.
          2    1    1    2  501    0 -0.18023786613E+02 -0.60523739355E+02 -0.78353209915E+03  0.78607285305E+03  0.00000000000E+00 0.  1.
<scales pt_clust_3="47.59407" pt_clust_4="14000.00000" pt_clust_5="68.42471" pt_clust_6="62.96856"></scales>
<clustering>
<clus scale="   47.594">  1  3  2 -1</clus>
<clus scale="   62.969">  2  6  1 -1</clus>
<clus scale="   68.425">  2  5  1 -1</clus>
<clus scale="   47.594">  1  3  2 -1</clus>
</clustering>
</event>
<event>
 6    0  0.1230761E+002  0.1470938E+03  0.7546771E-02  0.1204090E+00
         21   -1    0    0  505  502  0.00000000000E+00  0.00000000000E+00  0.24559534076E+03  0.24559534076E+03  0.00000000000E+00 0.  1.
          2   -1    0    0  503    0 -0.00000000000E+00 -0.00000000000E+00 -0.69272779843E+03  0.69272779843E+03  0.00000000000E+00 0. -1.
         21    1    1    2  503  504 -0.22085555154E+02  0.25088874585E+02 -0.28865761030E+02  0.44163961940E+02  0.00000000000E+00 0. -1.
         21    1    1    2  504  502  0.11517059196E+03  0.25774007017E+02 -0.10703910270E+03  0.15932964004E+03  0.00000000000E+00 0.  1.
         21    1    1    2  505  501 -0.15389493911E+03  0.35104396634E+01  0.18001659299E+03  0.23685850042E+03  0.00000000000E+00 0.  1.
          2    1    1    2  501    0  0.60809902306E+02 -0.54373321265E+02 -0.49124418693E+03  0.49797103679E+03  0.00000000000E+00 0. -1.
<scales pt_clust_3="33.42489" pt_clust_4="147.09377" pt_clust_5="14000.00000" pt_clust_6="56.63948"></scales>
<clustering>
<clus scale="   33.425">  2  3  1 -1</clus>
<clus scale="   56.639">  2  6  1 -1</clus>
<clus scale="  147.094">  2  4  1 -1</clus>
<clus scale="  147.094">  1  3  2 -1</clus>
</clustering>
</event>
<event>
 6    0  0.1230761E+002  0.8376694E+02  0.7546771E-02  0.1318689E+00
          1   -1    0    0  505    0 -0.00000000000E+00  0.00000000000E+00  0.26480603241E+04  0.26480603241E+04  0.00000000000E+00 0. -1.
         21   -1    0    0  504  502  0.00000000000E+00 -0.00000000000E+00 -0.46974242403E+03  0.46974242403E+03  0.00000000000E+00 0. -1.
         21    1    1    2  503  502  0.24664229351E+01 -0.52810765122E+02 -0.42370530899E+03  0.42699092382E+03  0.00000000000E+00 0. -1.
         21    1    1    2  504  501  0.30716324624E+02 -0.25377749967E+02 -0.27354857014E+02  0.48330228574E+02  0.00000000000E+00 0.  1.
         21    1    1    2  505  503 -0.89975730895E+02  0.35096998020E+02  0.38355572807E+03  0.39552803688E+03  0.00000000000E+00 0.  1.
          1    1    1    2  501    0  0.56792983336E+02  0.43091517068E+02  0.22458223380E+04  0.22469535589E+04  0.00000000000E+00 0. -1.
<scales pt_clust_3="14000.00000" pt_clust_4="39.84373" pt_clust_5="83.76694" pt_clust_6="71.30238"></scales>
<clustering>
<clus scale="   39.844">  2  4  1 -1</clus>
<clus scale="   71.302">  1  6  2 -1</clus>
<clus scale="   83.767">  1  5  2 -1</clus>
<clus scale="   39.844">  2  3  1 -1</clus>
</clustering>
</event>
<event>
 6    0  0.1230761E+002  0.1398528E+03  0.7546771E-02  0.1213527E+00
          2   -1    0    0  505    0 -0.00000000000E+00  0.00000000000E+00  0.15961705280E+04  0.15961705280E+04  0.00000000000E+00 0. -1.
         21   -1    0    0  504  502  0.00000000000E+00 -0.00000000000E+00 -0.24474683696E+03  0.24474683696E+03  0.00000000000E+00 0.  1.
         21    1    1    2  503  502  0.26175961717E+02 -0.15120207753E+02 -0.17679028279E+03  0.17935608644E+03  0.00000000000E+00 0.  1.
         21    1    1    2  504  501  0.39196527116E+02  0.15024395667E+03  0.50584173496E+02  0.16330454024E+03  0.00000000000E+00 0.  1.
         21    1    1    2  505  503  0.53095915458E+02 -0.10108456135E+03  0.92661956093E+03  0.93362791062E+03  0.00000000000E+00 0. -1.
          2    1    1    2  501    0 -0.11846840429E+03 -0.34039187567E+02  0.55101023943E+03  0.56462882769E+03  0.00000000000E+00 0. -1.
<scales pt_clust_3="30.22915" pt_clust_4="139.85278" pt_clust_5="115.52722" pt_clust_6="14000.00000"></scales>
<clustering>
<clus scale="   30.229">  2  3  1 -1</clus>
<clus scale="  115.527">  1  5  2 -1</clus>
<clus scale="  139.853">  2  4  1 -1</clus>
<clus scale="   30.229">  2  3  1 -1</clus>
</clustering>
</event>
<event>
 6    0  0.1230761E+002  0.1546015E+03  0.7546771E-02  0.1194930E+00
          2   -1    0    0  504    0 -0.00000000000E+00  0.00000000000E+00  0.35454765516E+03  0.35454765516E+03  0.00000000000E+00 0.  1.
         21   -1    0    0  501  502  0.00000000000E+00 -0.00000000000E+00 -0.56283684344E+03  0.56283684344E+03  0.00000000000E+00 0. -1.
         21    1    1    2  503  502 -0.25283649200E+02 -0.50058176475E+02 -0.29977595313E+03  0.30497656635E+03  0.00000000000E+00 0. -1.
         21    1    1    2  504  505  0.32507135874E+02 -0.55114356410E+02  0.83856722787E+02  0.10548106997E+03  0.00000000000E+00 0. -1.
         21    1    1    2  505  503 -0.52267694142E+02 -0.69597292216E+02 -0.20815197592E+03  0.22561679905E+03  0.00000000000E+00 0. -1.
          2    1    1    2  501    0  0.45044207468E+02  0.17476982510E+03  0.21578201797E+03  0.28131006323E+03  0.00000000000E+00 0.  1.
<scales pt_clust_3="45.45639" pt_clust_4="63.98677" pt_clust_5="45.45639" pt_clust_6="143.85660"></scales>
<clustering>
<clus scale="   45.456">  3  5 -1 -1</clus>
<clus scale="   63.987">  1  4  2 -1</clus>
<clus scale="  143.857">  1  6  2 -1</clus>
<clus scale="  154.601">  2  3  1 -1</clus>
</clustering>
</event>
<event>
 6    0  0.1230761E+002  0.2116544E+03  0.7546771E-02  0.1140263E+00
         21   -1    0    0  504  502  0.00000000000E+00  0.00000000000E+00  0.93544454203E+03  0.93544454203E+03  0.00000000000E+00 0.  1.
          2   -1    0    0  505    0 -0.00000000000E+00 -0.00000000000E+00 -0.11846786558E+04  0.11846786558E+04  0.00000000000E+00 0. -1.
         21    1    1    2  503  502 -0.49726877291E+01 -0.44603687389E+02  0.82908655493E+03  0.83030038667E+03  0.00000000000E+00 0.  1.
         21    1    1    2  504  501 -0.33212755524E+02  0.25844934696E+02  0.57884943356E+02  0.71566154335E+02  0.00000000000E+00 0.  1.
         21    1    1    2  505  503 -0.17329401651E+03 -0.65116986367E+02 -0.30783089480E+03  0.35920871073E+03  0.00000000000E+00 0. -1.
          2    1    1    2  501    0  0.21147945977E+03  0.83875739061E+02 -0.82837471720E+03  0.85904794605E+03  0.00000000000E+00 0. -1.
<scales pt_clust_3="41.71481" pt_clust_4="42.08382" pt_clust_5="211.65438" pt_clust_6="14000.00000"></scales>
<clustering>
<clus scale="   42.084">  1  4  2 -1</clus>
<clus scale="   41.715">  1  3  2 -1</clus>
<clus scale="  211.654">  1  5  2 -1</clus>
<clus scale="   42.084">  1  3  2 -1</clus>
</clustering>
</event>
<event>
 6    0  0.1230761E+002  0.1077850E+03  0.7546771E-02  0.1264728E+00
          2   -1    0    0  503    0 -0.00000000000E+00  0.00000000000E+00  0.10946431186E+04  0.10946431186E+04  0.00000000000E+00 0.  1.
         21   -1    0    0  504  502  0.00000000000E+00 -0.00000000000E+00 -0.18941325681E+03  0.18941325681E+03  0.00000000000E+00 0.  1.
         21    1    1    2  503  502  0.57096915954E+02 -0.19097062066E+02  0.22506779636E+03  0.23298126223E+03  0.00000000000E+00 0.  1.
         21    1    1    2  504  505 -0.59647651742E+01 -0.44998329282E+02  0.41188527772E+02  0.61293742599E+02  0.00000000000E+00 0.  1.
         21    1    1    2  505  501  0.10641366492E+03  0.20510530712E+02 -0.14944072977E+03  0.18459978783E+03  0.00000000000E+00 0.  1.
          2    1    1    2  501    0 -0.15754581570E+03  0.43584860636E+02  0.78841426740E+03  0.80518158273E+03  0.00000000000E+00 0.  1.
<scales pt_clust_3="60.40403" pt_clust_4="45.39194" pt_clust_5="14000.00000" pt_clust_6="107.78495"></scales>
<clustering>
<clus scale="   45.392">  2  4  1 -1</clus>
<clus scale="   60.404">  1  3  2 -1</clus>
<clus scale="  107.785">  1  6  2 -1</clus>
<clus scale="   45.392">  2  3  1 -1</clus>
</clustering>
</event>
<event>
 6    0  0.1230761E+002  0.8700744E+02  0.7546771E-02  0.1310265E+00
         21   -1    0    0  505  502  0.00000000000E+00  0.00000000000E+00  0.12681996310E+04  0.12681996310E+04  0.00000000000E+00 0. -1.
          2   -1    0    0  504    0 -0.00000000000E+00 -0.00000000000E+00 -0.99033500090E+03  0.99033500090E+03  0.00000000000E+00 0. -1.
         21    1    1    2  503  502 -0.48160376468E+02 -0.41104679222E+02  0.12274282928E+04  0.12290603038E+04  0.00000000000E+00 0. -1.
         21    1    1    2  504  503 -0.26972413720E+02 -0.35565772543E+02 -0.38240376196E+03  0.38500009408E+03  0.00000000000E+00 0. -1.
         21    1    1    2  505  501 -0.10982016977E+01 -0.30036139805E+02  0.24300025581E+02  0.38650575476E+02  0.00000000000E+00 0.  1.
          2    1    1    2  501    0  0.76230991886E+02  0.10670659157E+03 -0.59145992630E+03  0.60582365853E+03  0.00000000000E+00 0. -1.
<scales pt_clust_3="87.00744" pt_clust_4="44.66252" pt_clust_5="30.05621" pt_clust_6="14000.00000"></scales>
<clustering>
<clus scale="   30.056">  1  5  2 -1</clus>
<clus scale="   44.663">  2  4  1 -1</clus>
<clus scale="   87.007">  1  3  2 -1</clus>
<clus scale="   30.056">  1  3  2 -1</clus>
</clustering>
</event>
<event>
 6    0  0.1230761E+002  0.1233615E+03  0.7546771E-02  0.1237652E+00
          2   -1    0    0  503    0 -0.00000000000E+00  0.00000000000E+00  0.33347434045E+03  0.33347434045E+03  0.00000000000E+00 0. -1.
         21   -1    0    0  501  502  0.00000000000E+00 -0.00000000000E+00 -0.37065589909E+03  0.37065589909E+03  0.00000000000E+00 0. -1.
         21    1    1    2  503  505 -0.59303228521E+02  0.31206947669E+01  0.22527837246E+03  0.23297415468E+03  0.00000000000E+00 0. -1.
         21    1    1    2  504  502 -0.79488739176E+00  0.49930687198E+02 -0.15212561331E+03  0.16011217191E+03  0.00000000000E+00 0. -1.
         21    1    1    2  505  504  0.95915165976E+02  0.54908741451E+02 -0.15370087098E+03  0.18931097880E+03  0.00000000000E+00 0. -1.
          2    1    1    2  501    0 -0.35817050063E+02 -0.10796012342E+03  0.43366553191E+02  0.12173293416E+03  0.00000000000E+00 0. -1.
<scales pt_clust_3="59.45329" pt_clust_4="49.93701" pt_clust_5="14000.00000" pt_clust_6="123.36147"></scales>
<clustering>
<clus scale="   49.937">  2  4  1 -1</clus>
<clus scale="   59.453">  1  3  2 -1</clus>
<clus scale="  123.361">  1  6  2 -1</clus>
<clus scale="   49.937">  2  3  1 -1</clus>
</clustering>
</event>
<event>
 6    0  0.1230761E+002  0.9827974E+02  0.7546771E-02  0.1283956E+00
         21   -1    0    0  503  502  0.00000000000E+00  0.00000000000E+00  0.61704444116E+03  0.61704444116E+03  0.00000000000E+00 0.  1.
          1   -1    0    0  505    0 -0.00000000000E+00 -0.00000000000E+00 -0.28592189353E+03  0.28592189353E+03  0.00000000000E+00 0. -1.
         21    1    1    2  503  501  0.52062222528E+02 -0.32315412456E+02  0.66232342708E+02  0.90230172988E+02  0.00000000000E+00 0. -1.
         21    1    1    2  504  502 -0.32398343427E+02 -0.19385362474E+02  0.49229503356E+03  0.49374066573E+03  0.00000000000E+00 0.  1.
         21    1    1    2  505  504 -0.71508714546E+02 -0.42932576776E+02 -0.20879857155E+02  0.85980642237E+02  0.00000000000E+00 0. -1.
          1    1    1    2  501    0  0.51844835445E+02  0.94633351706E+02 -0.20652497148E+03  0.23301485373E+03  0.00000000000E+00 0. -1.
<scales pt_clust_3="54.62889" pt_clust_4="37.75507" pt_clust_5="98.27974" pt_clust_6="14000.00000"></scales>
<clustering>
<clus scale="   37.755">  1  4  2 -1</clus>
<clus scale="   54.629">  1  3  2 -1</clus>
<clus scale="   98.280">  1  5  2 -1</clus>
<clus scale="   37.755">  1  3  2 -1</clus>
</clustering>
</event>
<event>
 6    0  0.1230761E+002  0.1583915E+03  0.7546771E-02  0.1190525E+00
         21   -1    0    0  504  502  0.00000000000E+00  0.00000000000E+00  0.30791373165E+03  0.30791373165E+03  0.00000000000E+00 0.  1.
          1   -1    0    0  505    0 -0.00000000000E+00 -0.00000000000E+00 -0.15487022056E+04  0.15487022056E+04  0.00000000000E+00 0. -1.
         21    1    1    2  503  502 -0.77997728435E+02  0.87825064020E+02  0.18083033348E+03  0.21563046403E+03  0.00000000000E+00 0.  1.
         21    1    1    2  504  501  0.41682870360E+02  0.65095509527E+02  0.44507373359E+02  0.89195253939E+02  0.00000000000E+00 0.  1.
         21    1    1    2  505  503 -0.23219954753E+00  0.66951389293E+02 -0.12116733452E+04  0.12135216677E+04  0.00000000000E+00 0. -1.
          1    1    1    2  501    0  0.36547057622E+02 -0.21987196284E+03 -0.25445283561E+03  0.33826855162E+03  0.00000000000E+00 0. -1.
<scales pt_clust_3="158.39153" pt_clust_4="81.07326" pt_clust_5="66.95179" pt_clust_6="14000.00000"></scales>
<clustering>
<clus scale="   66.952">  2  5  1 -1</clus>
<clus scale="   81.073">  1  4  2 -1</clus>
<clus scale="  158.392">  1  3  2 -1</clus>
<clus scale="   81.073">  1  3  2 -1</clus>
</clustering>
</event>
<event>
 6    0  0.1230761E+002  0.1597355E+03  0.7546771E-02  0.1188996E+00
         21   -1    0    0  504  502  0.00000000000E+00  0.00000000000E+00  0.68687451210E+03  0.68687451210E+03  0.00000000000E+00 0. -1.
          3   -1    0    0  505    0 -0.00000000000E+00 -0.00000000000E+00 -0.12404075428E+04  0.12404075428E+04  0.00000000000E+00 0. -1.
         21    1    1    2  503  501  0.70816768013E+02 -0.85853363144E+02  0.32161142262E+03  0.34032296683E+03  0.00000000000E+00 0. -1.
         21    1    1    2  504  503  0.62467412113E+02 -0.40821617593E+01  0.33867515935E+03  0.34441211533E+03  0.00000000000E+00 0.  1.
         21    1    1    2  505  502  0.35672818290E+02 -0.81731781815E+01 -0.53281518262E+03  0.53407056616E+03  0.00000000000E+00 0. -1.
          3    1    1    2  501    0 -0.16895699842E+03  0.98108703085E+02 -0.68100443007E+03  0.70847640660E+03  0.00000000000E+00 0. -1.
<scales pt_clust_3="14000.00000" pt_clust_4="62.74725" pt_clust_5="36.59714" pt_clust_6="159.73550"></scales>
<clustering>
<clus scale="   36.597">  2  5  1 -1</clus>
<clus scale="   62.747">  1  4  2 -1</clus>
<clus scale="  159.736">  2  6  1 -1</clus>
<clus scale="   62.747">  1  3  2 -1</clus>
</clustering>
</event>
<event>
 6    0  0.1230761E+002  0.1124744E+03  0.7546771E-02  0.1256055E+00
         21   -1    0    0  501  502  0.00000000000E+00  0.00000000000E+00  0.56751624282E+03  0.56751624282E+03  0.00000000000E+00 0.  1.
          1   -1    0    0  504    0 -0.00000000000E+00 -0.00000000000E+00 -0.15330644432E+04  0.15330644432E+04  0.00000000000E+00 0.  1.
         21    1    1    2  503  502  0.24560309091E+02  0.26509238588E+02  0.33209387521E+03  0.33405432263E+03  0.00000000000E+00 0.  1.
         21    1    1    2  504  505 -0.12477931177E+03  0.60208859812E+02 -0.82218622687E+03  0.83377765328E+03  0.00000000000E+00 0.  1.
         21    1    1    2  505  503  0.37576338814E+01 -0.67532001539E+02  0.22010822789E+03  0.23026576608E+03  0.00000000000E+00 0.  1.
          1    1    1    2  501    0  0.96461368793E+02 -0.19186096862E+02 -0.69556407664E+03  0.70248294406E+03  0.00000000000E+00 0.  1.
<scales pt_clust_3="36.13791" pt_clust_4="14000.00000" pt_clust_5="50.17726" pt_clust_6="112.47445"></scales>
<clustering>
<clus scale="   36.138">  1  3  2 -1</clus>
<clus scale="   50.177">  1  5  2 -1</clus>
<clus scale="  112.474">  2  6  1 -1</clus>
<clus scale="   36.138">  1  3  2 -1</clus>
</clustering>
</event>
<event>
 6    0  0.1230761E+002  0.1440685E+03  0.7546771E-02  0.1207957E+00
         21   -1    0    0  501  502  0.00000000000E+00  0.00000000000E+00  0.71771897052E+02  0.71771897052E+02  0.00000000000E+00 0. -1.
          2   -1    0    0  504    0 -0.00000000000E+00 -0.00000000000E+00 -0.98356050754E+03  0.98356050754E+03  0.00000000000E+00 0. -1.
         21    1    1    2  503  505 -0.32759748586E+02  0.64966173932E+02 -0.59644795911E+01  0.73002602005E+02  0.00000000000E+00 0. -1.
         21    1    1    2  504  503 -0.99506078444E+02 -0.27317559949E+02 -0.47547756418E+03  0.48654560194E+03  0.00000000000E+00 0. -1.
         21    1    1    2  505  502  0.91509057347E+01  0.64718629929E+02 -0.47482629065E+02  0.80788861847E+02  0.00000000000E+00 0. -1.
          2    1    1    2  501    0  0.12311492130E+03 -0.10236724391E+03 -0.38286393765E+03  0.41499533880E+03  0.00000000000E+00 0. -1.
<scales pt_clust_3="55.42627" pt_clust_4="103.18774" pt_clust_5="55.42627" pt_clust_6="131.66642"></scales>
<clustering>
<clus scale="   55.426">  3  5 -1 -1</clus>
<clus scale="  103.188">  2  4  1 -1</clus>
<clus scale="  131.666">  2  6  1 -1</clus>
<clus scale="  144.069">  1  3  2 -1</clus>
</clustering>
</event>
<event>
 6    0  0.1230761E+002  0.1299269E+03  0.7546771E-02  0.1227564E+00
          2   -1    0    0  505    0 -0.00000000000E+00  0.00000000000E+00  0.98630713094E+03  0.98630713094E+03  0.00000000000E+00 0. -1.
         21   -1    0    0  504  502  0.00000000000E+00 -0.00000000000E+00 -0.30391796976E+02  0.30391796976E+02  0.00000000000E+00 0.  1.
         21    1    1    2  503  501  0.44168538147E+02  0.11810809347E+02  0.67772058584E+02  0.81752106421E+02  0.00000000000E+00 0.  1.
         21    1    1    2  504  503  0.39538483281E+02  0.70458654331E+02  0.10172567019E+03  0.12990698829E+03  0.00000000000E+00 0.  1.
         21    1    1    2  505  502  0.32310429525E+02 -0.15235925850E+02  0.22737458073E+03  0.23016363148E+03  0.00000000000E+00 0. -1.
          2    1    1    2  501    0 -0.11601745095E+03 -0.67033537828E+02  0.55904302446E+03  0.57487620173E+03  0.00000000000E+00 0. -1.
<scales pt_clust_3="36.97371" pt_clust_4="36.97371" pt_clust_5="35.72250" pt_clust_6="120.77271"></scales>
<clustering>
<clus scale="   35.723">  1  5  2 -1</clus>
<clus scale="   36.974">  3  4 -1 -1</clus>
<clus scale="  120.773">  1  6  2 -1</clus>
<clus scale="  129.927">  2  3  1 -1</clus>
</clustering>
</event>
<event>
 6    0  0.1230761E+002  0.8034415E+02  0.7546771E-02  0.1328078E+00
         21   -1    0    0  503  502  0.00000000000E+00  0.00000000000E+00  0.56031173424E+02  0.56031173424E+02  0.00000000000E+00 0.  1.
          1   -1    0    0  504    0 -0.00000000000E+00 -0.00000000000E+00 -0.59382731022E+03  0.59382731022E+03  0.00000000000E+00 0.  1.
         21    1    1    2  503  505 -0.50552366292E+02  0.43618689639E+02 -0.23671601288E+02  0.70841206449E+02  0.00000000000E+00 0.  1.
         21    1    1    2  504  502 -0.27855734815E+02 -0.12941064602E+02 -0.75499101322E+02  0.81507836528E+02  0.00000000000E+00 0.  1.
         21    1    1    2  505  501  0.84266300802E+02 -0.75759092758E+02 -0.86748200739E+02  0.14270774302E+03  0.00000000000E+00 0.  1.
          1    1    1    2  501    0 -0.58581996950E+01  0.45081467721E+02 -0.35187723344E+03  0.35480169764E+03  0.00000000000E+00 0.  1.
<scales pt_clust_3="80.34415" pt_clust_4="30.71503" pt_clust_5="14000.00000" pt_clust_6="43.97650"></scales>
<clustering>
<clus scale="   30.715">  2  4  1 -1</clus>
<clus scale="   43.977">  2  6  1 -1</clus>
<clus scale="   80.344">  1  3  2 -1</clus>
<clus scale="   80.344">  1  3  2 -1</clus>
</clustering>
</event>
<event>
 6    0  0.1230761E+002  0.2238511E+03  0.7546771E-02  0.1131044E+00
         21   -1    0    0  503  502  0.00000000000E+00  0.00000000000E+00  0.15471165251E+03  0.15471165251E+03  0.00000000000E+00 0.  1.
          2   -1    0    0  505    0 -0.00000000000E+00 -0.00000000000E+00 -0.11793070672E+04  0.11793070672E+04  0.00000000000E+00 0.  1.
         21    1    1    2  503  501 -0.18865157424E+03 -0.10334657560E+02 -0.13839524340E+03  0.23419962640E+03  0.00000000000E+00 0.  1.
         21    1    1    2  504  502 -0.37479241095E+02  0.77294824769E+02  0.31133313313E+02  0.91369943893E+02  0.00000000000E+00 0.  1.
         21    1    1    2  505  504 -0.33473569622E+02 -0.60390773585E+01 -0.56777857379E+03  0.56879650067E+03  0.00000000000E+00 0.  1.
          2    1    1    2  501    0  0.25960438496E+03 -0.60921089850E+02 -0.34955491077E+03  0.43965264871E+03  0.00000000000E+00 0.  1.
<scales pt_clust_3="14000.00000" pt_clust_4="86.36930" pt_clust_5="34.01397" pt_clust_6="223.85109"></scales>
<clustering>
<clus scale="   34.014">  2  5  1 -1</clus>
<clus scale="   86.369">  1  4  2 -1</clus>
<clus scale="  223.851">  2  6  1 -1</clus>
<clus scale="   86.369">  1  3  2 -1</clus>
</clustering>
</event>
<event>
 6    0  0.1230761E+002  0.1410637E+03  0.7546771E-02  0.1211905E+00
          4   -1    0    0  505    0 -0.00000000000E+00  0.00000000000E+00  0.75888017392E+03  0.75888017392E+03  0.00000000000E+00 0.  1.
         21   -1    0    0  503  502  0.00000000000E+00 -0.00000000000E+00 -0.53811859292E+03  0.53811859292E+03  0.00000000000E+00 0.  1.
         21    1    1    2  503  504  0.47781713680E+02 -0.71277804228E+02  0.40907404936E+02  0.95063312147E+02  0.00000000000E+00 0.  1.
         21    1    1    2  504  501  0.29323238675E+02 -0.34855638239E+02  0.14867497576E+03  0.15549603294E+03  0.00000000000E+00 0.  1.
         21    1    1    2  505  502 -0.58834726905E+02  0.13836162920E+03 -0.49583273490E+03  0.51812697915E+03  0.00000000000E+00 0.  1.
          4    1    1    2  501    0 -0.18270225450E+02 -0.32228186733E+02  0.52701193520E+03  0.52831244260E+03  0.00000000000E+00 0.  1.
<scales pt_clust_3="14000.00000" pt_clust_4="58.66466" pt_clust_5="141.06374" pt_clust_6="37.04669"></scales>
<clustering>
<clus scale="   37.047">  1  6  2 -1</clus>
<clus scale="   58.665">  1  4  2 -1</clus>
<clus scale="  141.064">  2  5  1 -1</clus>
<clus scale="  141.064">  2  3  1 -1</clus>
</clustering>
</event>
<event>
 6    0  0.1230761E+002  0.2211365E+03  0.7546771E-02  0.1133039E+00
         21   -1    0    0  505  502  0.00000000000E+00  0.00000000000E+00  0.11205453324E+03  0.11205453324E+03  0.00000000000E+00 0. -1.
          2   -1    0    0  504    0 -0.00000000000E+00 -0.00000000000E+00 -0.19050728607E+04  0.19050728607E+04  0.00000000000E+00 0. -1.
         21    1    1    2  503  502  0.31650727807E+02  0.13619642567E+03  0.18692169311E+02  0.14106960030E+03  0.00000000000E+00 0. -1.
         21    1    1    2  504  503  0.30441081581E+02 -0.67324467341E+00 -0.91428538451E+02  0.96365400168E+02  0.00000000000E+00 0.  1.
         21    1    1    2  505  501  0.51448297130E+02  0.79118985055E+02 -0.86676690368E+02  0.12813894696E+03  0.00000000000E+00 0.  1.
          2    1    1    2  501    0 -0.11354010652E+03 -0.21464216605E+03 -0.16336052680E+04  0.16515534465E+04  0.00000000000E+00 0. -1.
<scales pt_clust_3="221.13649" pt_clust_4="30.44853" pt_clust_5="95.33854" pt_clust_6="14000.00000"></scales>
<clustering>
<clus scale="   30.449">  2  4  1 -1</clus>
<clus scale="   95.339">  1  5  2 -1</clus>
<clus scale="  221.136">  1  3  2 -1</clus>
<clus scale="   95.339">  1  3  2 -1</clus>
</clustering>
</event>
<event>
 6    0  0.1230761E+002  0.8252160E+02  0.7546771E-02  0.1322044E+00
          2   -1    0    0  505    0 -0.00000000000E+00  0.00000000000E+00  0.17292766997E+04  0.17292766997E+04  0.00000000000E+00 0.  1.
         21   -1    0    0  501  502  0.00000000000E+00 -0.00000000000E+00 -0.28021135526E+03  0.28021135526E+03  0.00000000000E+00 0. -1.
         21    1    1    2  503  504 -0.79005277327E+02 -0.74577173188E+02 -0.48945142129E+02  0.11916046133E+03  0.00000000000E+00 0. -1.
         21    1    1    2  504  502 -0.86319697712E+00  0.60621789294E+02 -0.18761130488E+03  0.19716426696E+03  0.00000000000E+00 0. -1.
         21    1    1    2  505  503 -0.33699429806E+02  0.17766659397E+02  0.69545710261E+03  0.69649973965E+03  0.00000000000E+00 0.  1.
          2    1    1    2  501    0  0.11356790411E+03 -0.38112755033E+01  0.99016468884E+03  0.99666358702E+03  0.00000000000E+00 0.  1.
<scales pt_clust_3="14000.00000" pt_clust_4="60.71247" pt_clust_5="38.09601" pt_clust_6="82.52160"></scales>
<clustering>
<clus scale="   38.096">  1  5  2 -1</clus>
<clus scale="   60.712">  2  4  1 -1</clus>
<clus scale="   82.522">  1  6  2 -1</clus>
<clus scale="   60.712">  2  3  1 -1</clus>
</clustering>
</event>
<event>
 6    0  0.1230761E+002  0.9171951E+02  0.7546771E-02  0.1298740E+00
         21   -1    0    0  505  502  0.00000000000E+00  0.00000000000E+00  0.15864258378E+03  0.15864258378E+03  0.00000000000E+00 0.  1.
          2   -1    0    0  504    0 -0.00000000000E+00 -0.00000000000E+00 -0.56944230276E+03  0.56944230276E+03  0.00000000000E+00 0.  1.
         21    1    1    2  503  501 -0.87770531068E+02 -0.59242980124E+02  0.94271148006E+02  0.14177604228E+03  0.00000000000E+00 0.  1.
         21    1    1    2  504  502  0.25010927499E+02  0.63825937005E+02 -0.25096627936E+03  0.26016027773E+03  0.00000000000E+00 0.  1.
         21    1    1    2  505  503 -0.92146776970E+01  0.59082642145E+02 -0.60138647750E+01  0.60098547881E+02  0.00000000000E+00 0.  1.
          2    1    1    2  501    0  0.71974281266E+02 -0.63665599026E+02 -0.24809072285E+03  0.26605001866E+03  0.00000000000E+00 0.  1.
<scales pt_clust_3="91.71951" pt_clust_4="70.36343" pt_clust_5="59.79690" pt_clust_6="14000.00000"></scales>
<clustering>
<clus scale="   59.797">  1  5  2 -1</clus>
<clus scale="   70.363">  2  4  1 -1</clus>
<clus scale="   91.720">  1  3  2 -1</clus>
<clus scale="   59.797">  1  3  2 -1</clus>
</clustering>
</event>
<event>
 6    0  0.1230761E+002  0.8706352E+02  0.7546771E-02  0.1310123E+00
         21   -1    0    0  504  502  0.00000000000E+00  0.00000000000E+00  0.21335820655E+02  0.21335820655E+02  0.00000000000E+00 0. -1.
          2   -1    0    0  505    0 -0.00000000000E+00 -0.00000000000E+00 -0.30980642123E+04  0.30980642123E+04  0.00000000000E+00 0.  1.
         21    1    1    2  503  502  0.82231410382E+02  0.67575473004E+02 -0.17912375222E+03  0.20835970823E+03  0.00000000000E+00 0. -1.
         21    1    1    2  504  501 -0.14922034217E+02 -0.27426255807E+02 -0.60379821039E+02  0.67974917443E+02  0.00000000000E+00 0. -1.
         21    1    1    2  505  503  0.40206028495E+02 -0.46759009973E+00 -0.16097542526E+04  0.16102563452E+04  0.00000000000E+00 0.  1.
          2    1    1    2  501    0 -0.10751540466E+03 -0.39681627097E+02 -0.12274705658E+04  0.12328090621E+04  0.00000000000E+00 0.  1.
<scales pt_clust_3="87.06352" pt_clust_4="31.22285" pt_clust_5="40.00168" pt_clust_6="14000.00000"></scales>
<clustering>
<clus scale="   31.223">  1  4  2 -1</clus>
<clus scale="   40.002">  2  5  1 -1</clus>
<clus scale="   87.064">  1  3  2 -1</clus>
<clus scale="   31.223">  1  3  2 -1</clus>
</clustering>
</event>
<event>
 6    0  0.1230761E+002  0.1770954E+03  0.7546771E-02  0.1170644E+00
         21   -1    0    0  504  502  0.00000000000E+00  0.00000000000E+00  0.83699833962E+03  0.83699833962E+03  0.00000000000E+00 0. -1.
          2   -1    0    0  502    0 -0.00000000000E+00 -0.00000000000E+00 -0.59680653824E+03  0.59680653824E+03  0.00000000000E+00 0.  1.
         21    1    1    2  503  501 -0.34825288510E+02  0.87097406578E+01 -0.14162631369E+03  0.14610500687E+03  0.00000000000E+00 0.  1.
         21    1    1    2  504  505  0.35450530929E+02 -0.58801514900E+02  0.18416990919E+03  0.19655257248E+03  0.00000000000E+00 0. -1.
         21    1    1    2  505  503  0.45478342135E+02 -0.79723376257E+02  0.63037500137E+03  0.63702177253E+03  0.00000000000E+00 0. -1.
          2    1    1    2  501    0 -0.46103584554E+02  0.12981515050E+03 -0.43272679549E+03  0.45412552597E+03  0.00000000000E+00 0.  1.
<scales pt_clust_3="34.83436" pt_clust_4="64.86393" pt_clust_5="64.86393" pt_clust_6="174.34219"></scales>
<clustering>
<clus scale="   34.834">  3  6 -1 -1</clus>
<clus scale="   64.864">  4  5 -1 -1</clus>
<clus scale="  174.342">  2  3  1 -1</clus>
<clus scale="  177.095">  1  3  2 -1</clus>
</clustering>
</event>
<event>
 6    0  0.1230761E+002  0.1729072E+03  0.7546771E-02  0.1174850E+00
          1   -1    0    0  503    0 -0.00000000000E+00  0.00000000000E+00  0.24173766249E+04  0.24173766249E+04  0.00000000000E+00 0.  1.
         21   -1    0    0  505  502  0.00000000000E+00 -0.00000000000E+00 -0.23559772764E+03  0.23559772764E+03  0.00000000000E+00 0. -1.
         21    1    1    2  503  504  0.25429603332E+02 -0.23275969867E+02  0.61809940450E+02  0.70773612577E+02  0.00000000000E+00 0.  1.
         21    1    1    2  504  502  0.76401901264E+02  0.37235153636E+01 -0.14264059890E+02  0.77811171999E+02  0.00000000000E+00 0. -1.
         21    1    1    2  505  501  0.94525214590E+02 -0.42926272351E+02 -0.16554202009E+03  0.19540174376E+03  0.00000000000E+00 0. -1.
          1    1    1    2  501    0 -0.19635671919E+03  0.62478726855E+02  0.22997750368E+04  0.23089878242E+04  0.00000000000E+00 0.  1.
<scales pt_clust_3="34.47369" pt_clust_4="76.82124" pt_clust_5="172.90717" pt_clust_6="14000.00000"></scales>
<clustering>
<clus scale="   34.474">  1  3  2 -1</clus>
<clus scale="   76.821">  2  4  1 -1</clus>
<clus scale="  172.907">  2  5  1 -1</clus>
<clus scale="   76.821">  2  3  1 -1</clus>
</clustering>
</event>
<event>
 6    0  0.1230761E+002  0.1603463E+03  0.7546771E-02  0.1188306E+00
         21   -1    0    0  501  502  0.00000000000E+00  0.00000000000E+00  0.22207939079E+03  0.22207939079E+03  0.00000000000E+00 0.  1.
          2   -1    0    0  505    0 -0.00000000000E+00 -0.00000000000E+00 -0.44385637173E+03  0.44385637173E+03  0.00000000000E+00 0.  1.
         21    1    1    2  503  504  0.30270703061E+02  0.40876337715E+02  0.16214345254E+02  0.53386285138E+02  0.00000000000E+00 0. -1.
         21    1    1    2  504  502  0.59753852019E+02  0.72369554259E+02  0.14647675343E+03  0.17396354363E+03  0.00000000000E+00 0.  1.
         21    1    1    2  505  503  0.33248335004E+02  0.77459603421E+00 -0.24274872038E+02  0.41174278282E+02  0.00000000000E+00 0.  1.
          2    1    1    2  501    0 -0.12327289008E+03 -0.11402048801E+03 -0.36019320759E+03  0.39741165548E+03  0.00000000000E+00 0.  1.
<scales pt_clust_3="48.47505" pt_clust_4="48.47505" pt_clust_5="33.25736" pt_clust_6="146.35718"></scales>
<clustering>
<clus scale="   33.257">  2  5  1 -1</clus>
<clus scale="   48.475">  3  4 -1 -1</clus>
<clus scale="  146.357">  2  6  1 -1</clus>
<clus scale="  160.346">  1  3  2 -1</clus>
</clustering>
</event>
<event>
 6    0  0.1230761E+002  0.1063699E+03  0.7546771E-02  0.1267444E+00
         21   -1    0    0  504  502  0.00000000000E+00  0.00000000000E+00  0.77735669994E+02  0.77735669994E+02  0.00000000000E+00 0.  1.
          2   -1    0    0  503    0 -0.00000000000E+00 -0.00000000000E+00 -0.93692175423E+03  0.93692175423E+03  0.00000000000E+00 0.  1.
         21    1    1    2  503  502 -0.27245480987E+02  0.24657100665E+02 -0.17235740261E+03  0.17623099353E+03  0.00000000000E+00 0.  1.
         21    1    1    2  504  505 -0.43806576305E+02 -0.30294810763E+02  0.30152196750E+02  0.61204139203E+02  0.00000000000E+00 0.  1.
         21    1    1    2  505  501 -0.48076464358E+02 -0.93075873082E+01  0.12899146234E+01  0.48986135655E+02  0.00000000000E+00 0.  1.
          2    1    1    2  501    0  0.11912852165E+03  0.14945297406E+02 -0.71827079301E+03  0.72823615584E+03  0.00000000000E+00 0.  1.
<scales pt_clust_3="36.74628" pt_clust_4="32.40951" pt_clust_5="32.40951" pt_clust_6="100.85688"></scales>
<clustering>
<clus scale="   32.410">  4  5 -1 -1</clus>
<clus scale="   36.746">  2  3  1 -1</clus>
<clus scale="  100.857">  2  6  1 -1</clus>
<clus scale="  106.370">  1  3  2 -1</clus>
</clustering>
</event>
<event>
 6    0  0.1230761E+002  0.1550062E+03  0.7546771E-02  0.1194453E+00
          2   -1    0    0  504    0 -0.00000000000E+00  0.00000000000E+00  0.25020361589E+04  0.25020361589E+04  0.00000000000E+00 0. -1.
         21   -1    0    0  505  502  0.00000000000E+00 -0.00000000000E+00 -0.43692659724E+02  0.43692659724E+02  0.00000000000E+00 0.  1.
         21    1    1    2  503  502  0.20368833972E+01  0.34694306822E+02  0.51859663290E+02  0.62428106622E+02  0.00000000000E+00 0.  1.
         21    1    1    2  504  503  0.18416972404E+03 -0.57140742057E+02  0.16124635968E+04  0.16239527095E+04  0.00000000000E+00 0.  1.
         21    1    1    2  505  501 -0.82246998550E+02 -0.44936728803E+02  0.52249390694E+02  0.10730273619E+03  0.00000000000E+00 0.  1.
          2    1    1    2  501    0 -0.10395960888E+03  0.67383164038E+02  0.74177084839E+03  0.75204526632E+03  0.00000000000E+00 0. -1.
<scales pt_clust_3="34.75405" pt_clust_4="155.00618" pt_clust_5="83.24334" pt_clust_6="14000.00000"></scales>
<clustering>
<clus scale="   34.754">  2  3  1 -1</clus>
<clus scale="   83.243">  2  5  1 -1</clus>
<clus scale="  155.006">  2  4  1 -1</clus>
<clus scale="   34.754">  2  3  1 -1</clus>
</clustering>
</event>
<event>
 6    0  0.1230761E+002  0.1007991E+03  0.7546771E-02  0.1278624E+00
         21   -1    0    0  501  502  0.00000000000E+00  0.00000000000E+00  0.10610897272E+04  0.10610897272E+04  0.00000000000E+00 0.  1.
          2   -1    0    0  504    0 -0.00000000000E+00 -0.00000000000E+00 -0.71313668120E+03  0.71313668120E+03  0.00000000000E+00 0.  1.
         21    1    1    2  503  505  0.13103805973E+03 -0.11804593510E+02  0.88663169481E+03  0.89634038387E+03  0.00000000000E+00 0.  1.
         21    1    1    2  504  503 -0.34718925017E+02 -0.22683841284E+02 -0.11835651450E+02  0.43128216460E+02  0.00000000000E+00 0. -1.
         21    1    1    2  505  502 -0.54972758908E+02 -0.54510195868E+02  0.14040403165E+03  0.16033295912E+03  0.00000000000E+00 0.  1.
          2    1    1    2  501    0 -0.41346375806E+02  0.88998630662E+02 -0.66724702904E+03  0.67442484890E+03  0.00000000000E+00 0.  1.
<scales pt_clust_3="14000.00000" pt_clust_4="41.47241" pt_clust_5="78.00733" pt_clust_6="100.79909"></scales>
<clustering>
<clus scale="   41.472">  2  4  1 -1</clus>
<clus scale="   78.007">  1  5  2 -1</clus>
<clus scale="  100.799">  2  6  1 -1</clus>
<clus scale="   78.007">  1  3  2 -1</clus>
</clustering>
</event>
<event>
 6    0  0.1230761E+002  0.1542730E+03  0.7546771E-02  0.1195319E+00
         21   -1    0    0  505  502  0.00000000000E+00  0.00000000000E+00  0.10012421803E+04  0.10012421803E+04  0.00000000000E+00 0. -1.
          2   -1    0    0  503    0 -0.00000000000E+00 -0.00000000000E+00 -0.11478145058E+03  0.11478145058E+03  0.00000000000E+00 0. -1.
         21    1    1    2  503  502 -0.76066730625E+02 -0.13673941273E+02  0.53918833045E+02  0.94235687162E+02  0.00000000000E+00 0.  1.
         21    1    1    2  504  501 -0.38042419204E+01 -0.80941911566E+02  0.32070395028E+03  0.33078254039E+03  0.00000000000E+00 0. -1.
         21    1    1    2  505  504 -0.40052547778E+02 -0.47208831984E+02  0.50115837816E+03  0.50496792017E+03  0.00000000000E+00 0.  1.
          2    1    1    2  501    0  0.11992352032E+03  0.14182468482E+03  0.10679568201E+02  0.18603748313E+03  0.00000000000E+00 0. -1.
<scales pt_clust_3="77.28599" pt_clust_4="59.76558" pt_clust_5="59.76558" pt_clust_6="138.29330"></scales>
<clustering>
<clus scale="   59.766">  4  5 -1 -1</clus>
<clus scale="   77.286">  2  3  1 -1</clus>
<clus scale="  138.293">  2  6  1 -1</clus>
<clus scale="  154.273">  1  3  2 -1</clus>
</clustering>
</event>
<event>
 6    0  0.1230761E+002  0.1281757E+03  0.7546771E-02  0.1230188E+00
         -2   -1    0    0    0  501 -0.00000000000E+00  0.00000000000E+00  0.55900256430E+03  0.55900256430E+03  0.00000000000E+00 0. -1.
         21   -1    0    0  505  502  0.00000000000E+00 -0.00000000000E+00 -0.20942251199E+03  0.20942251199E+03  0.00000000000E+00 0.  1.
         21    1    1    2  503  502 -0.34568536792E+02 -0.67940809107E+01 -0.11504000300E+03  0.12031353025E+03  0.00000000000E+00 0.  1.
         21    1    1    2  504  501  0.10541840165E+02  0.28717803163E+02  0.27336904868E+03  0.27507540673E+03  0.00000000000E+00 0. -1.
         21    1    1    2  505  504  0.61277871639E+02 -0.12396961558E+03 -0.15830350032E+02  0.13919067182E+03  0.00000000000E+00 0.  1.
         -2    1    1    2    0  503 -0.37251175012E+02  0.10204589333E+03  0.20708135667E+03  0.23384546749E+03  0.00000000000E+00 0. -1.
<scales pt_clust_3="35.08365" pt_clust_4="30.59154" pt_clust_5="14000.00000" pt_clust_6="128.17568"></scales>
<clustering>
<clus scale="   30.592">  1  4  2 -1</clus>
<clus scale="   35.084">  2  3  1 -1</clus>
<clus scale="  128.176">  1  6  2 -1</clus>
<clus scale="   35.084">  2  3  1 -1</clus>
</clustering>
</event>
<event>
 6    0  0.1230761E+002  0.8773913E+02  0.7546771E-02  0.1308421E+00
         21   -1    0    0  504  502  0.00000000000E+00  0.00000000000E+00  0.56048399474E+02  0.56048399474E+02  0.00000000000E+00 0.  1.
          2   -1    0    0  503    0 -0.00000000000E+00 -0.00000000000E+00 -0.36423486672E+04  0.36423486672E+04  0.00000000000E+00 0.  1.
         21    1    1    2  503  502 -0.10635979886E+02  0.31061551788E+02 -0.15875102523E+02  0.36468657060E+02  0.00000000000E+00 0. -1.
         21    1    1    2  504  505  0.81027495930E+02 -0.81380258305E+02 -0.30260877290E+02  0.11875993530E+03  0.00000000000E+00 0.  1.
         21    1    1    2  505  501 -0.57485565190E+02  0.84093925244E+02 -0.20124717153E+04  0.20150480846E+04  0.00000000000E+00 0.  1.
          2    1    1    2  501    0 -0.12905950854E+02 -0.33775218727E+02 -0.15276925726E+04  0.15281203897E+04  0.00000000000E+00 0.  1.
<scales pt_clust_3="32.83206" pt_clust_4="14000.00000" pt_clust_5="87.73913" pt_clust_6="36.03923"></scales>
<clustering>
<clus scale="   32.832">  1  3  2 -1</clus>
<clus scale="   36.039">  2  6  1 -1</clus>
<clus scale="   87.739">  2  5  1 -1</clus>
<clus scale="   32.832">  1  3  2 -1</clus>
</clustering>
</event>
<event>
 6    0  0.1230761E+002  0.1186895E+03  0.7546771E-02  0.1245275E+00
          2   -1    0    0  504    0 -0.00000000000E+00  0.00000000000E+00  0.94634440725E+03  0.94634440725E+03  0.00000000000E+00 0. -1.
         21   -1    0    0  503  502  0.00000000000E+00 -0.00000000000E+00 -0.49328066087E+02  0.49328066087E+02  0.00000000000E+00 0.  1.
         21    1    1    2  503  505 -0.41455428658E+02 -0.36188227691E+02  0.34965862890E+01  0.55139518535E+02  0.00000000000E+00 0.  1.
         21    1    1    2  504  502  0.29265092759E+02 -0.13773574989E+02  0.98062382999E+02  0.10325883973E+03  0.00000000000E+00 0.  1.
         21    1    1    2  505  501 -0.73160112207E+02 -0.47448250157E+02  0.11350840718E+03  0.14313593875E+03  0.00000000000E+00 0.  1.
          2    1    1    2  501    0  0.85350448106E+02  0.97410052837E+02  0.68194896469E+03  0.69413817632E+03  0.00000000000E+00 0. -1.
<scales pt_clust_3="54.58791" pt_clust_4="32.34435" pt_clust_5="14000.00000" pt_clust_6="118.68948"></scales>
<clustering>
<clus scale="   32.344">  1  4  2 -1</clus>
<clus scale="   54.588">  2  3  1 -1</clus>
<clus scale="  118.689">  1  6  2 -1</clus>
<clus scale="   54.588">  2  3  1 -1</clus>
</clustering>
</event>
<event>
 6    0  0.1230761E+002  0.7264696E+02  0.7546771E-02  0.1351316E+00
         21   -1    0    0  503  502  0.00000000000E+00  0.00000000000E+00  0.24675008658E+02  0.24675008658E+02  0.00000000000E+00 0. -1.
          1   -1    0    0  505    0 -0.00000000000E+00 -0.00000000000E+00 -0.29662291647E+04  0.29662291647E+04  0.00000000000E+00 0. -1.
         21    1    1    2  503  501  0.46880367349E+02 -0.26552904389E+02 -0.50312338112E+02  0.73716734468E+02  0.00000000000E+00 0. -1.
         21    1    1    2  504  502  0.10145521226E+02  0.72586378112E+02 -0.10597346087E+03  0.12884909118E+03  0.00000000000E+00 0. -1.
         21    1    1    2  505  504  0.32543968344E+02 -0.14841427078E+02 -0.69678072269E+03  0.69769818213E+03  0.00000000000E+00 0.  1.
          1    1    1    2  501    0 -0.89569856919E+02 -0.31192046646E+02 -0.20884876344E+04  0.20906401656E+04  0.00000000000E+00 0. -1.
<scales pt_clust_3="54.85180" pt_clust_4="14000.00000" pt_clust_5="35.76839" pt_clust_6="72.64696"></scales>
<clustering>
<clus scale="   35.768">  2  5  1 -1</clus>
<clus scale="   54.852">  1  3  2 -1</clus>
<clus scale="   72.647">  2  6  1 -1</clus>
<clus scale="   54.852">  1  3  2 -1</clus>
</clustering>
</event>
<event>
 6    0  0.1230761E+002  0.1541922E+03  0.7546771E-02  0.1195414E+00
         21   -1    0    0  504  502  0.00000000000E+00  0.00000000000E+00  0.50852611059E+02  0.50852611059E+02  0.00000000000E+00 0. -1.
         -4   -1    0    0    0  501 -0.00000000000E+00 -0.00000000000E+00 -0.22513636674E+04  0.22513636674E+04  0.00000000000E+00 0.  1.
         21    1    1    2  503  501 -0.19254596215E+02 -0.84496713398E+02 -0.53647506020E+03  0.54342977860E+03  0.00000000000E+00 0.  1.
         21    1    1    2  504  503  0.97907807789E+02 -0.43002097322E+02 -0.19498138881E+03  0.22237999277E+03  0.00000000000E+00 0. -1.
         21    1    1    2  505  502  0.65957360154E+02 -0.24396660564E+02 -0.21213566018E+02  0.73454651237E+02  0.00000000000E+00 0. -1.
         -4    1    1    2    0  505 -0.14461057173E+03  0.15189547128E+03 -0.14478410414E+04  0.14629518559E+04  0.00000000000E+00 0.  1.
<scales pt_clust_3="88.49159" pt_clust_4="154.19217" pt_clust_5="70.32475" pt_clust_6="14000.00000"></scales>
<clustering>
<clus scale="   70.325">  1  5  2 -1</clus>
<clus scale="   88.492">  2  3  1 -1</clus>
<clus scale="  154.192">  1  4  2 -1</clus>
<clus scale="   70.325">  1  3  2 -1</clus>
</clustering>
</event>
<event>
 6    0  0.1230761E+002  0.1874432E+03  0.7546771E-02  0.1160788E+00
         21   -1    0    0  504  502  0.00000000000E+00  0.00000000000E+00  0.10644365088E+04  0.10644365088E+04  0.00000000000E+00 0. -1.
          2   -1    0    0  503    0 -0.00000000000E+00 -0.00000000000E+00 -0.40313717711E+03  0.40313717711E+03  0.00000000000E+00 0. -1.
         21    1    1    2  503  502 -0.27741923846E+02  0.11474413429E+02 -0.39016904677E+01  0.30273745899E+02  0.00000000000E+00 0.  1.
         21    1    1    2  504  505  0.67092731894E+02  0.26509145469E+01  0.56800149991E+03  0.57195643709E+03  0.00000000000E+00 0. -1.
         21    1    1    2  505  501  0.10493872016E+03 -0.34944022304E+02  0.46065165897E+03  0.47374378159E+03  0.00000000000E+00 0.  1.
          2    1    1    2  501    0 -0.14428952821E+03  0.20818694328E+02 -0.36345213678E+03  0.39159972129E+03  0.00000000000E+00 0. -1.
<scales pt_clust_3="30.02127" pt_clust_4="53.61943" pt_clust_5="53.61943" pt_clust_6="174.38750"></scales>
<clustering>
<clus scale="   30.021">  2  3  1 -1</clus>
<clus scale="   53.619">  4  5 -1 -1</clus>
<clus scale="  174.388">  2  6  1 -1</clus>
<clus scale="  187.443">  1  3  2 -1</clus>
</clustering>
</event>
<event>
 6    0  0.1230761E+002  0.1733552E+03  0.7546771E-02  0.1174393E+00
          1   -1    0    0  504    0 -0.00000000000E+00  0.00000000000E+00  0.18934685884E+04  0.18934685884E+04  0.00000000000E+00 0. -1.
         21   -1    0    0  503  502  0.00000000000E+00 -0.00000000000E+00 -0.10627009128E+03  0.10627009128E+03  0.00000000000E+00 0. -1.
         21    1    1    2  503  501 -0.54954336003E+02  0.58591097405E+02  0.69330262736E+02  0.10611117317E+03  0.00000000000E+00 0.  1.
         21    1    1    2  504  505 -0.30190608055E+02 -0.14194416949E+02  0.18811504033E+03  0.19105031454E+03  0.00000000000E+00 0.  1.
         21    1    1    2  505  502 -0.11372779693E+03 -0.98345008110E+02 -0.84919493860E+01  0.15059171830E+03  0.00000000000E+00 0. -1.
          1    1    1    2  501    0  0.19887274099E+03  0.53948327653E+02  0.15382451435E+04  0.15519854737E+04  0.00000000000E+00 0. -1.
<scales pt_clust_3="80.87672" pt_clust_4="33.36097" pt_clust_5="173.35521" pt_clust_6="14000.00000"></scales>
<clustering>
<clus scale="   33.361">  1  4  2 -1</clus>
<clus scale="   80.877">  2  3  1 -1</clus>
<clus scale="  173.355">  2  5  1 -1</clus>
<clus scale="   80.877">  2  3  1 -1</clus>
</clustering>
</event>
<event>
 6    0  0.1230761E+002  0.1086475E+03  0.7546771E-02  0.1263095E+00
          2   -1    0    0  505    0 -0.00000000000E+00  0.00000000000E+00  0.47775882172E+03  0.47775882172E+03  0.00000000000E+00 0.  1.
         21   -1    0    0  503  502  0.00000000000E+00 -0.00000000000E+00 -0.77915117838E+02  0.77915117838E+02  0.00000000000E+00 0.  1.
         21    1    1    2  503  504 -0.11457558909E+02  0.38623575709E+02 -0.21458906415E+02  0.45645820414E+02  0.00000000000E+00 0.  1.
         21    1    1    2  504  501 -0.21490200981E+02  0.67583433891E+02  0.19744727963E+02  0.73615239979E+02  0.00000000000E+00 0. -1.
         21    1    1    2  505  502 -0.30161275236E+02 -0.29527935836E+02  0.29927672953E+02  0.51742314666E+02  0.00000000000E+00 0.  1.
          2    1    1    2  501    0  0.63109035126E+02 -0.76679073765E+02  0.37163020938E+03  0.38467056450E+03  0.00000000000E+00 0.  1.
<scales pt_clust_3="32.46022" pt_clust_4="32.46022" pt_clust_5="42.20902" pt_clust_6="99.74718"></scales>
<clustering>
<clus scale="   32.460">  3  4 -1 -1</clus>
<clus scale="   42.209">  2  5  1 -1</clus>
<clus scale="   99.747">  1  6  2 -1</clus>
<clus scale="   42.209">  2  3  1 -1</clus>
</clustering>
</event>
<event>
 6    0  0.1230761E+002  0.1360850E+03  0.7546771E-02  0.1218696E+00
          3   -1    0    0  504    0 -0.00000000000E+00  0.00000000000E+00  0.28268286266E+03  0.28268286266E+03  0.00000000000E+00 0.  1.
         21   -1    0    0  503  502  0.00000000000E+00 -0.00000000000E+00 -0.14414975887E+04  0.14414975887E+04  0.00000000000E+00 0.  1.
         21    1    1    2  503  505 -0.23914720194E+02  0.21916133026E+02 -0.40402618066E+03  0.40532627029E+03  0.00000000000E+00 0. -1.
         21    1    1    2  504  502  0.36576914834E+02 -0.23208837592E+01  0.10453064143E+01  0.36665376933E+02  0.00000000000E+00 0.  1.
         21    1    1    2  505  501  0.20053014280E+02  0.11495690703E+03 -0.99715587583E+03  0.10039606838E+04  0.00000000000E+00 0.  1.
          3    1    1    2  501    0 -0.32715208920E+02 -0.13455215629E+03  0.24132202406E+03  0.27822812035E+03  0.00000000000E+00 0.  1.
<scales pt_clust_3="32.43811" pt_clust_4="36.21835" pt_clust_5="136.08500" pt_clust_6="14000.00000"></scales>
<clustering>
<clus scale="   32.438">  2  3  1 -1</clus>
<clus scale="   36.218">  1  4  2 -1</clus>
<clus scale="  136.085">  2  5  1 -1</clus>
<clus scale="   32.438">  2  3  1 -1</clus>
</clustering>
</event>
<event>
 6    0  0.1230761E+002  0.1784453E+03  0.7546771E-02  0.1169316E+00
          2   -1    0    0  505    0 -0.00000000000E+00  0.00000000000E+00  0.17468662244E+04  0.17468662244E+04  0.00000000000E+00 0.  1.
         21   -1    0    0  501  502  0.00000000000E+00 -0.00000000000E+00 -0.49342397749E+03  0.49342397749E+03  0.00000000000E+00 0. -1.
         21    1    1    2  503  504 -0.16753316095E+01 -0.94486880312E+02 -0.34681321413E+03  0.35945790127E+03  0.00000000000E+00 0. -1.
         21    1    1    2  504  502 -0.13287178855E+02 -0.70634374943E+02 -0.11486452179E+03  0.13549768416E+03  0.00000000000E+00 0. -1.
         21    1    1    2  505  503 -0.55000757563E+02  0.26298250444E+01  0.62597857407E+02  0.83369605158E+02  0.00000000000E+00 0.  1.
          2    1    1    2  501    0  0.69963268027E+02  0.16249143021E+03  0.16525221254E+04  0.16619650113E+04  0.00000000000E+00 0.  1.
<scales pt_clust_3="57.51163" pt_clust_4="57.51163" pt_clust_5="55.06359" pt_clust_6="165.82199"></scales>
<clustering>
<clus scale="   55.064">  1  5  2 -1</clus>
<clus scale="   57.512">  3  4 -1 -1</clus>
<clus scale="  165.822">  1  6  2 -1</clus>
<clus scale="  178.445">  2  3  1 -1</clus>
</clustering>
</event>
<event>
 6    0  0.1230761E+002  0.1386755E+03  0.7546771E-02  0.1215122E+00
          1   -1    0    0  504    0 -0.00000000000E+00  0.00000000000E+00  0.82870459867E+03  0.82870459867E+03  0.00000000000E+00 0.  1.
         21   -1    0    0  503  502  0.00000000000E+00 -0.00000000000E+00 -0.49315405254E+03  0.49315405254E+03  0.00000000000E+00 0.  1.
         21    1    1    2  503  501 -0.15602207246E+02 -0.86389996785E+02 -0.95812666451E+02  0.12994894177E+03  0.00000000000E+00 0.  1.
         21    1    1    2  504  505  0.70333578389E+02  0.12690963293E+03  0.57553883353E+03  0.59354681035E+03  0.00000000000E+00 0.  1.
         21    1    1    2  505  502 -0.23423672316E+01 -0.57484066787E+02 -0.36564839354E+03  0.37014679834E+03  0.00000000000E+00 0.  1.
          1    1    1    2  501    0 -0.52389003911E+02  0.16964430637E+02  0.22147277260E+03  0.22821610075E+03  0.00000000000E+00 0.  1.
<scales pt_clust_3="138.67553" pt_clust_4="14000.00000" pt_clust_5="57.47692" pt_clust_6="55.06723"></scales>
<clustering>
<clus scale="   55.067">  1  6  2 -1</clus>
<clus scale="   57.477">  2  5  1 -1</clus>
<clus scale="  138.676">  2  3  1 -1</clus>
<clus scale="   57.477">  2  3  1 -1</clus>
</clustering>
</event>
<event>
 6    0  0.1230761E+002  0.8774897E+02  0.7546771E-02  0.1308396E+00
          2   -1    0    0  505    0 -0.00000000000E+00  0.00000000000E+00  0.33850046494E+03  0.33850046494E+03  0.00000000000E+00 0.  1.
         21   -1    0    0  503  502  0.00000000000E+00 -0.00000000000E+00 -0.15178451508E+04  0.15178451508E+04  0.00000000000E+00 0.  1.
         21    1    1    2  503  501  0.38260840260E+02 -0.71306441239E+02 -0.23496517202E+03  0.24850982380E+03  0.00000000000E+00 0.  1.
         21    1    1    2  504  502 -0.10766088585E+03  0.11287421590E+02 -0.12618817581E+04  0.12665164206E+04  0.00000000000E+00 0.  1.
         21    1    1    2  505  504  0.34839146162E+02  0.45851263401E+02  0.68313509393E+02  0.89346740435E+02  0.00000000000E+00 0.  1.
          2    1    1    2  501    0  0.34560899427E+02  0.14167756248E+02  0.24918873493E+03  0.25197263086E+03  0.00000000000E+00 0.  1.
<scales pt_clust_3="81.27027" pt_clust_4="14000.00000" pt_clust_5="87.74897" pt_clust_6="37.35212"></scales>
<clustering>
<clus scale="   37.352">  1  6  2 -1</clus>
<clus scale="   81.270">  2  3  1 -1</clus>
<clus scale="   87.749">  1  5  2 -1</clus>
<clus scale="   81.270">  2  3  1 -1</clus>
</clustering>
</event>
<event>
 6    0  0.1230761E+002  0.1724267E+03  0.7546771E-02  0.1175341E+00
          2   -1    0    0  503    0 -0.00000000000E+00  0.00000000000E+00  0.34228171016E+04  0.34228171016E+04  0.00000000000E+00 0. -1.
         21   -1    0    0  505  502  0.00000000000E+00 -0.00000000000E+00 -0.33840024862E+03  0.33840024862E+03  0.00000000000E+00 0.  1.
         21    1    1    2  503  504 -0.26278075030E+02  0.28480697720E+02  0.25815760941E+04  0.25818669248E+04  0.00000000000E+00 0. -1.
         21    1    1    2  504  502 -0.48439685170E+02  0.74331870907E+01 -0.24544816223E+02  0.54809701451E+02  0.00000000000E+00 0.  1.
         21    1    1    2  505  501 -0.12294862033E+03  0.16493597931E+02 -0.27224526121E+03  0.29917534033E+03  0.00000000000E+00 0.  1.
          2    1    1    2  501    0  0.19766638052E+03 -0.52407482741E+02  0.79963083627E+03  0.82536538366E+03  0.00000000000E+00 0. -1.
<scales pt_clust_3="38.75161" pt_clust_4="49.55362" pt_clust_5="14000.00000" pt_clust_6="172.42672"></scales>
<clustering>
<clus scale="   38.752">  1  3  2 -1</clus>
<clus scale="   49.554">  2  4  1 -1</clus>
<clus scale="  172.427">  1  6  2 -1</clus>
<clus scale="   49.554">  2  3  1 -1</clus>
</clustering>
</event>
<event>
 6    0  0.1230761E+002  0.2675112E+03  0.7546771E-02  0.1102713E+00
          2   -1    0    0  504    0 -0.00000000000E+00  0.00000000000E+00  0.79151688344E+03  0.79151688344E+03  0.00000000000E+00 0. -1.
         21   -1    0    0  505  502  0.00000000000E+00 -0.00000000000E+00 -0.12037767846E+03  0.12037767846E+03  0.00000000000E+00 0. -1.
         21    1    1    2  503  501 -0.24556000128E+02  0.55572482781E+02  0.66649526144E+02  0.90185682455E+02  0.00000000000E+00 0. -1.
         21    1    1    2  504  502  0.61247154475E+02 -0.69894295934E+01  0.80307173951E+02  0.10123886727E+03  0.00000000000E+00 0. -1.
         21    1    1    2  505  503  0.57702115381E+01  0.20527224205E+03  0.11034272989E+03  0.23312122755E+03  0.00000000000E+00 0. -1.
          2    1    1    2  501    0 -0.42461365885E+02 -0.25385529523E+03  0.41383977499E+03  0.48734878463E+03  0.00000000000E+00 0. -1.
<scales pt_clust_3="37.71692" pt_clust_4="61.64468" pt_clust_5="37.71692" pt_clust_6="258.36799"></scales>
<clustering>
<clus scale="   37.717">  3  5 -1 -1</clus>
<clus scale="   61.645">  1  4  2 -1</clus>
<clus scale="  258.368">  1  6  2 -1</clus>
<clus scale="  267.511">  2  3  1 -1</clus>
</clustering>
</event>
<event>
 6    0  0.1230761E+002  0.1172739E+03  0.7546771E-02  0.1247663E+00
          2   -1    0    0  503    0 -0.00000000000E+00  0.00000000000E+00  0.46543844333E+03  0.46543844333E+03  0.00000000000E+00 0.  1.
         21   -1    0    0  501  502  0.00000000000E+00 -0.00000000000E+00 -0.32372353486E+03  0.32372353486E+03  0.00000000000E+00 0.  1.
         21    1    1    2  503  505  0.18906489000E+02  0.24661853716E+02  0.16822323919E+02  0.35336283578E+02  0.00000000000E+00 0.  1.
         21    1    1    2  504  502  0.65901632964E+02  0.94391155872E+02 -0.26720108777E+03  0.29094524715E+03  0.00000000000E+00 0.  1.
         21    1    1    2  505  504  0.58031028526E+02  0.41094913755E+00  0.71005831975E+02  0.91703856656E+02  0.00000000000E+00 0.  1.
          2    1    1    2  501    0 -0.14283915049E+03 -0.11946395873E+03  0.32108784034E+03  0.37117659081E+03  0.00000000000E+00 0.  1.
<scales pt_clust_3="31.07511" pt_clust_4="117.27388" pt_clust_5="61.73288" pt_clust_6="14000.00000"></scales>
<clustering>
<clus scale="   31.075">  1  3  2 -1</clus>
<clus scale="   61.733">  1  5  2 -1</clus>
<clus scale="  117.274">  2  4  1 -1</clus>
<clus scale="  117.274">  2  3  1 -1</clus>
</clustering>
</event>
<event>
 6    0  0.1230761E+002  0.1170056E+03  0.7546771E-02  0.1248120E+00
         21   -1    0    0  505  502  0.00000000000E+00  0.00000000000E+00  0.10144546391E+04  0.10144546391E+04  0.00000000000E+00 0. -1.
          3   -1    0    0  503    0 -0.00000000000E+00 -0.00000000000E+00 -0.20474984164E+03  0.20474984164E+03  0.00000000000E+00 0. -1.
         21    1    1    2  503  504 -0.51867609479E+02 -0.53165513678E+02  0.34912658041E+02  0.82071398485E+02  0.00000000000E+00 0. -1.
         21    1    1    2  504  502  0.23817072747E+02 -0.24905928948E+02  0.86963146758E+02  0.93542221190E+02  0.00000000000E+00 0. -1.
         21    1    1    2  505  501 -0.57825042450E+02 -0.27817328286E+02  0.83817938090E+03  0.84063203237E+03  0.00000000000E+00 0. -1.
          3    1    1    2  501    0  0.85875579183E+02  0.10588877091E+03 -0.15035038823E+03  0.20295882870E+03  0.00000000000E+00 0. -1.
<scales pt_clust_3="117.00564" pt_clust_4="34.46097" pt_clust_5="62.08021" pt_clust_6="14000.00000"></scales>
<clustering>
<clus scale="   34.461">  1  4  2 -1</clus>
<clus scale="   62.080">  1  5  2 -1</clus>
<clus scale="  117.006">  1  3  2 -1</clus>
<clus scale="   34.461">  1  3  2 -1</clus>
</clustering>
</event>
<event>
 6    0  0.1230761E+002  0.9720909E+02  0.7546771E-02  0.1286277E+00
         21   -1    0    0  503  502  0.00000000000E+00  0.00000000000E+00  0.16341468525E+03  0.16341468525E+03  0.00000000000E+00 0.  1.
          2   -1    0    0  504    0 -0.00000000000E+00 -0.00000000000E+00 -0.11510905378E+04  0.11510905378E+04  0.00000000000E+00 0.  1.
         21    1    1    2  503  501 -0.94076100377E+02 -0.35623898850E+02  0.11076696099E+03  0.14962852161E+03  0.00000000000E+00 0.  1.
         21    1    1    2  504  505  0.18554600717E+02 -0.29437822676E+02 -0.61043695812E+02  0.70265150751E+02  0.00000000000E+00 0. -1.
         21    1    1    2  505  502  0.40171030357E+02  0.10140359341E+03 -0.78522659937E+02  0.13439571630E+03  0.00000000000E+00 0.  1.
          2    1    1    2  501    0  0.35350469303E+02 -0.36341871881E+02 -0.95887645780E+03  0.96021583441E+03  0.00000000000E+00 0.  1.
<scales pt_clust_3="97.20909" pt_clust_4="34.79739" pt_clust_5="14000.00000" pt_clust_6="81.04217"></scales>
<clustering>
<clus scale="   34.797">  2  4  1 -1</clus>
<clus scale="   81.042">  2  6  1 -1</clus>
<clus scale="   97.209">  1  3  2 -1</clus>
<clus scale="   97.209">  1  3  2 -1</clus>
</clustering>
</event>
<event>
 6    0  0.1230761E+002  0.1487336E+03  0.7546771E-02  0.1202038E+00
          1   -1    0    0  504    0 -0.00000000000E+00  0.00000000000E+00  0.20295102291E+04  0.20295102291E+04  0.00000000000E+00 0. -1.
         21   -1    0    0  503  502  0.00000000000E+00 -0.00000000000E+00 -0.32949034954E+03  0.32949034954E+03  0.00000000000E+00 0. -1.
         21    1    1    2  503  501  0.53333156984E+02 -0.68865657565E+02  0.14549409528E+03  0.16957427926E+03  0.00000000000E+00 0. -1.
         21    1    1    2  504  505 -0.12935197838E+03  0.30629886257E+02 -0.44934455695E+02  0.14031831510E+03  0.00000000000E+00 0. -1.
         21    1    1    2  505  502 -0.58754326071E+02 -0.28196261654E+02 -0.21693300158E+03  0.22651054540E+03  0.00000000000E+00 0. -1.
          1    1    1    2  501    0  0.13477314747E+03  0.66432032962E+02  0.18163932416E+04  0.18225974389E+04  0.00000000000E+00 0. -1.
<scales pt_clust_3="85.86976" pt_clust_4="148.73362" pt_clust_5="65.16978" pt_clust_6="14000.00000"></scales>
<clustering>
<clus scale="   65.170">  2  5  1 -1</clus>
<clus scale="   85.870">  2  3  1 -1</clus>
<clus scale="  148.734">  2  4  1 -1</clus>
<clus scale="   65.170">  2  3  1 -1</clus>
</clustering>
</event>
<event>
 6    0  0.1230761E+002  0.2245518E+03  0.7546771E-02  0.1130534E+00
         21   -1    0    0  504  502  0.00000000000E+00  0.00000000000E+00  0.65878369304E+03  0.65878369304E+03  0.00000000000E+00 0. -1.
          2   -1    0    0  505    0 -0.00000000000E+00 -0.00000000000E+00 -0.16888300659E+03  0.16888300659E+03  0.00000000000E+00 0. -1.
         21    1    1    2  503  501 -0.15702122849E+03 -0.11715422491E+02  0.30537713474E+03  0.34358130296E+03  0.00000000000E+00 0. -1.
         21    1    1    2  504  503 -0.69618357665E+02  0.20529281538E+02  0.19381206903E+03  0.20695720627E+03  0.00000000000E+00 0. -1.
         21    1    1    2  505  502  0.47466356069E+02  0.58518733743E+02  0.31084933916E+02  0.81509326300E+02  0.00000000000E+00 0. -1.
          2    1    1    2  501    0  0.17917323008E+03 -0.67332592791E+02 -0.40373451239E+02  0.19561886411E+03  0.00000000000E+00 0. -1.
<scales pt_clust_3="33.67173" pt_clust_4="33.67173" pt_clust_5="75.34917" pt_clust_6="219.00666"></scales>
<clustering>
<clus scale="   33.672">  3  4 -1 -1</clus>
<clus scale="   75.349">  2  5  1 -1</clus>
<clus scale="  219.007">  2  6  1 -1</clus>
<clus scale="  224.552">  1  3  2 -1</clus>
</clustering>
</event>
<event>
 6    0  0.1230761E+002  0.9922599E+02  0.7546771E-02  0.1281932E+00
          1   -1    0    0  503    0 -0.00000000000E+00  0.00000000000E+00  0.94981426414E+03  0.94981426414E+03  0.00000000000E+00 0.  1.
         21   -1    0    0  505  502  0.00000000000E+00 -0.00000000000E+00 -0.72641591437E+03  0.72641591437E+03  0.00000000000E+00 0.  1.
         21    1    1    2  503  504 -0.22142959652E+02 -0.32243639055E+02  0.15449896944E+02  0.42055466199E+02  0.00000000000E+00 0.  1.
         21    1    1    2  504  502  0.12166376946E+02 -0.96241665077E+02 -0.83110775641E+02  0.12774145706E+03  0.00000000000E+00 0.  1.
         21    1    1    2  505  501  0.23479861696E+02  0.97858191165E+02 -0.60320534354E+03  0.61154248909E+03  0.00000000000E+00 0.  1.
          1    1    1    2  501    0 -0.13503278990E+02  0.30627112967E+02  0.89426457201E+03  0.89489076615E+03  0.00000000000E+00 0.  1.
<scales pt_clust_3="33.41746" pt_clust_4="99.22599" pt_clust_5="14000.00000" pt_clust_6="33.47176"></scales>
<clustering>
<clus scale="   33.472">  1  6  2 -1</clus>
<clus scale="   33.417">  1  3  2 -1</clus>
<clus scale="   99.226">  1  4  2 -1</clus>
<clus scale="   99.226">  2  3  1 -1</clus>
</clustering>
</event>
<event>
 6    0  0.1230761E+002  0.1574302E+03  0.7546771E-02  0.1191629E+00
         21   -1    0    0  501  502  0.00000000000E+00  0.00000000000E+00  0.14494901882E+03  0.14494901882E+03  0.00000000000E+00 0.  1.
          2   -1    0    0  504    0 -0.00000000000E+00 -0.00000000000E+00 -0.33864112329E+03  0.33864112329E+03  0.00000000000E+00 0.  1.
         21    1    1    2  503  502 -0.71869917885E+02 -0.11709944343E+02  0.40285583305E+02  0.83218604384E+02  0.00000000000E+00 0.  1.
         21    1    1    2  504  505 -0.41264599282E+02 -0.33706375975E+01 -0.41404662094E+02  0.58553175788E+02  0.00000000000E+00 0.  1.
         21    1    1    2  505  503 -0.68463444676E+02 -0.23649812183E+02  0.25338101410E+01  0.72477424533E+02  0.00000000000E+00 0.  1.
          2    1    1    2  501    0  0.18159796184E+03  0.38730394123E+02 -0.19510683583E+03  0.26934093740E+03  0.00000000000E+00 0.  1.
<scales pt_clust_3="38.16094" pt_clust_4="41.40203" pt_clust_5="38.16094" pt_clust_6="152.70983"></scales>
<clustering>
<clus scale="   38.161">  3  5 -1 -1</clus>
<clus scale="   41.402">  2  4  1 -1</clus>
<clus scale="  152.710">  2  6  1 -1</clus>
<clus scale="  157.430">  1  3  2 -1</clus>
</clustering>
</event>
<event>
 6    0  0.1230761E+002  0.1226475E+03  0.7546771E-02  0.1238792E+00
         -1   -1    0    0    0  501 -0.00000000000E+00  0.00000000000E+00  0.60808548633E+03  0.60808548633E+03  0.00000000000E+00 0.  1.
         21   -1    0    0  504  502  0.00000000000E+00 -0.00000000000E+00 -0.21920391435E+03  0.21920391435E+03  0.00000000000E+00 0.  1.
         21    1    1    2  503  502 -0.87734955674E+01  0.12803138998E+03 -0.11828172137E+03  0.17452672189E+03  0.00000000000E+00 0.  1.
         21    1    1    2  504  505 -0.60145312441E+02 -0.26457236647E+02 -0.82840417561E+01  0.66227406165E+02  0.00000000000E+00 0.  1.
         21    1    1    2  505  501 -0.37615681230E+02 -0.16397478004E+02  0.41529176548E+03  0.41731411099E+03  0.00000000000E+00 0.  1.
         -1    1    1    2    0  503  0.10653448924E+03 -0.85176675324E+02  0.10015556963E+03  0.16922116163E+03  0.00000000000E+00 0.  1.
<scales pt_clust_3="14000.00000" pt_clust_4="71.90609" pt_clust_5="41.03434" pt_clust_6="122.64747"></scales>
<clustering>
<clus scale="   41.034">  1  5  2 -1</clus>
<clus scale="   71.906">  2  4  1 -1</clus>
<clus scale="  122.647">  1  6  2 -1</clus>
<clus scale="   71.906">  2  3  1 -1</clus>
</clustering>
</event>
<event>
 6    0  0.1230761E+002  0.1924006E+03  0.7546771E-02  0.1156314E+00
         21   -1    0    0  501  502  0.00000000000E+00  0.00000000000E+00  0.19309099721E+03  0.19309099721E+03  0.00000000000E+00 0. -1.
          2   -1    0    0  505    0 -0.00000000000E+00 -0.00000000000E+00 -0.16788461915E+04  0.16788461915E+04  0.00000000000E+00 0. -1.
         21    1    1    2  503  502  0.51952025688E+02 -0.64005915702E+02  0.79164913283E+02  0.11429284191E+03  0.00000000000E+00 0. -1.
         21    1    1    2  504  503  0.11178786018E+03 -0.19542448848E+02  0.40036284005E+02  0.12033842706E+03  0.00000000000E+00 0. -1.
         21    1    1    2  505  504 -0.31876503995E+02  0.87563504102E+02 -0.13200857674E+04  0.13233706631E+04  0.00000000000E+00 0. -1.
          2    1    1    2  501    0 -0.13186338187E+03 -0.40151395518E+01 -0.28487062418E+03  0.31393525661E+03  0.00000000000E+00 0. -1.
<scales pt_clust_3="71.57226" pt_clust_4="71.57226" pt_clust_5="93.18519" pt_clust_6="173.10736"></scales>
<clustering>
<clus scale="   71.572">  3  4 -1 -1</clus>
<clus scale="   93.185">  2  5  1 -1</clus>
<clus scale="  173.107">  2  6  1 -1</clus>
<clus scale="  192.401">  1  3  2 -1</clus>
</clustering>
</event>
<event>
 6    0  0.1230761E+002  0.1450230E+03  0.7546771E-02  0.1206726E+00
         21   -1    0    0  505  502  0.00000000000E+00  0.00000000000E+00  0.69417718171E+02  0.69417718171E+02  0.00000000000E+00 0.  1.
          1   -1    0    0  504    0 -0.00000000000E+00 -0.00000000000E+00 -0.16174520171E+04  0.16174520171E+04  0.00000000000E+00 0. -1.
         21    1    1    2  503  502  0.76264917607E+01 -0.91474706620E+02 -0.28010126769E+02  0.95970581584E+02  0.00000000000E+00 0.  1.
         21    1    1    2  504  503  0.55116245155E+01 -0.39207441309E+02 -0.18097513849E+03  0.18525550521E+03  0.00000000000E+00 0.  1.
         21    1    1    2  505  501 -0.15090374497E+03  0.61640167315E+02 -0.20858281259E+03  0.26472294986E+03  0.00000000000E+00 0. -1.
          1    1    1    2  501    0  0.13776562870E+03  0.69041980615E+02 -0.11304662211E+04  0.11409206986E+04  0.00000000000E+00 0. -1.
<scales pt_clust_3="93.50056" pt_clust_4="39.59295" pt_clust_5="145.02296" pt_clust_6="14000.00000"></scales>
<clustering>
<clus scale="   39.593">  2  4  1 -1</clus>
<clus scale="   93.501">  1  3  2 -1</clus>
<clus scale="  145.023">  1  5  2 -1</clus>
<clus scale="   93.501">  1  3  2 -1</clus>
</clustering>
</event>
<event>
 6    0  0.1230761E+002  0.2122342E+03  0.7546771E-02  0.1139809E+00
         21   -1    0    0  501  502  0.00000000000E+00  0.00000000000E+00  0.86614751779E+02  0.86614751779E+02  0.00000000000E+00 0.  1.
          2   -1    0    0  505    0 -0.00000000000E+00 -0.00000000000E+00 -0.98322911144E+03  0.98322911144E+03  0.00000000000E+00 0.  1.
         21    1    1    2  503  504  0.90401889073E+02 -0.66529978047E+02 -0.59576985176E+02  0.12707539766E+03  0.00000000000E+00 0.  1.
         21    1    1    2  504  502  0.91931057296E+02 -0.51126821826E+00 -0.51622452155E+02  0.10543461603E+03  0.00000000000E+00 0.  1.
         21    1    1    2  505  503  0.30863204942E+02 -0.14802124768E+02 -0.28769914569E+03  0.28972821531E+03  0.00000000000E+00 0.  1.
          2    1    1    2  501    0 -0.21319615131E+03  0.81843371033E+02 -0.49771577665E+03  0.54760563423E+03  0.00000000000E+00 0.  1.
<scales pt_clust_3="56.86359" pt_clust_4="56.86359" pt_clust_5="34.22923" pt_clust_6="202.70081"></scales>
<clustering>
<clus scale="   34.229">  2  5  1 -1</clus>
<clus scale="   56.864">  3  4 -1 -1</clus>
<clus scale="  202.701">  2  6  1 -1</clus>
<clus scale="  212.234">  1  3  2 -1</clus>
</clustering>
</event>
<event>
 6    0  0.1230761E+002  0.1200043E+03  0.7546771E-02  0.1243090E+00
         21   -1    0    0  503  502  0.00000000000E+00  0.00000000000E+00  0.29512041479E+03  0.29512041479E+03  0.00000000000E+00 0.  1.
          2   -1    0    0  504    0 -0.00000000000E+00 -0.00000000000E+00 -0.13608819093E+03  0.13608819093E+03  0.00000000000E+00 0.  1.
         21    1    1    2  503  505  0.13277410673E+02  0.35816125321E+02  0.66770204228E+02  0.76924278611E+02  0.00000000000E+00 0.  1.
         21    1    1    2  504  502 -0.75340182638E+02 -0.13746106664E+03  0.23254149185E+02  0.15846906138E+03  0.00000000000E+00 0.  1.
         21    1    1    2  505  501 -0.32605404682E+02  0.53164262903E+02  0.63963475713E+02  0.89335757062E+02  0.00000000000E+00 0.  1.
          2    1    1    2  501    0  0.94668176647E+02  0.48480678412E+02  0.50443947348E+01  0.10647950867E+03  0.00000000000E+00 0.  1.
<scales pt_clust_3="37.20503" pt_clust_4="120.00431" pt_clust_5="102.71857" pt_clust_6="14000.00000"></scales>
<clustering>
<clus scale="   37.205">  3  5 -1 -1</clus>
<clus scale="  102.719">  1  3  2 -1</clus>
<clus scale="  120.004">  1  4  2 -1</clus>
<clus scale="  102.719">  1  3  2 -1</clus>
</clustering>
</event>
<event>
 6    0  0.1230761E+002  0.1736671E+03  0.7546771E-02  0.1174077E+00
          3   -1    0    0  504    0 -0.00000000000E+00  0.00000000000E+00  0.10526114177E+04  0.10526114177E+04  0.00000000000E+00 0. -1.
         21   -1    0    0  501  502  0.00000000000E+00 -0.00000000000E+00 -0.81270170720E+02  0.81270170720E+02  0.00000000000E+00 0. -1.
         21    1    1    2  503  505  0.33591043013E+02  0.23517668211E+02  0.29014710173E+03  0.29303033892E+03  0.00000000000E+00 0.  1.
         21    1    1    2  504  503  0.30353600183E+02 -0.15490501540E+02  0.59903689761E+02  0.68918420825E+02  0.00000000000E+00 0. -1.
         21    1    1    2  505  502  0.16167618790E+03  0.12750102632E+02  0.71413554352E+02  0.17720510883E+03  0.00000000000E+00 0. -1.
          3    1    1    2  501    0 -0.22562083109E+03 -0.20777269303E+02  0.54987690114E+03  0.59472771984E+03  0.00000000000E+00 0. -1.
<scales pt_clust_3="46.57546" pt_clust_4="34.07780" pt_clust_5="173.66709" pt_clust_6="14000.00000"></scales>
<clustering>
<clus scale="   34.078">  1  4  2 -1</clus>
<clus scale="   46.575">  1  3  2 -1</clus>
<clus scale="  173.667">  2  5  1 -1</clus>
<clus scale="  173.667">  2  3  1 -1</clus>
</clustering>
</event>
<event>
 6    0  0.1230761E+002  0.1142356E+03  0.7546771E-02  0.1252921E+00
         21   -1    0    0  504  502  0.00000000000E+00  0.00000000000E+00  0.74964598458E+03  0.74964598458E+03  0.00000000000E+00 0.  1.
          2   -1    0    0  503    0 -0.00000000000E+00 -0.00000000000E+00 -0.19352001584E+03  0.19352001584E+03  0.00000000000E+00 0.  1.
         21    1    1    2  503  505 -0.51302219194E+02 -0.82374201308E+01 -0.24294511220E+02  0.57358487254E+02  0.00000000000E+00 0.  1.
         21    1    1    2  504  501 -0.34869011120E+02 -0.89387729563E+02  0.64089673375E+03  0.64803907094E+03  0.00000000000E+00 0.  1.
         21    1    1    2  505  502  0.23895928253E+02 -0.24879627726E+02  0.50480530032E+02  0.61141599383E+02  0.00000000000E+00 0.  1.
          2    1    1    2  501    0  0.62275302061E+02  0.12250477742E+03 -0.11095678382E+03  0.17662684284E+03  0.00000000000E+00 0.  1.
<scales pt_clust_3="51.49558" pt_clust_4="114.23560" pt_clust_5="34.49654" pt_clust_6="14000.00000"></scales>
<clustering>
<clus scale="   34.497">  1  5  2 -1</clus>
<clus scale="   51.496">  2  3  1 -1</clus>
<clus scale="  114.236">  1  4  2 -1</clus>
<clus scale="   34.497">  1  3  2 -1</clus>
</clustering>
</event>
<event>
 6    0  0.1230761E+002  0.8926303E+02  0.7546771E-02  0.1304646E+00
          2   -1    0    0  503    0 -0.00000000000E+00  0.00000000000E+00  0.19676605842E+04  0.19676605842E+04  0.00000000000E+00 0. -1.
         21   -1    0    0  505  502  0.00000000000E+00 -0.00000000000E+00 -0.37655865862E+03  0.37655865862E+03  0.00000000000E+00 0. -1.
         21    1    1    2  503  504 -0.41744947345E+02  0.15550050783E+02  0.17129761322E+04  0.17135552731E+04  0.00000000000E+00 0. -1.
         21    1    1    2  504  502 -0.24977868261E+02 -0.47330739784E+02 -0.21863744377E+02  0.57811038302E+02  0.00000000000E+00 0. -1.
         21    1    1    2  505  501 -0.61489591523E+02  0.42424275170E+02 -0.31421987576E+03  0.32297820253E+03  0.00000000000E+00 0. -1.
          2    1    1    2  501    0  0.12821240713E+03 -0.10643586170E+02  0.21420941359E+03  0.24987472889E+03  0.00000000000E+00 0. -1.
<scales pt_clust_3="44.54711" pt_clust_4="54.01238" pt_clust_5="89.26303" pt_clust_6="14000.00000"></scales>
<clustering>
<clus scale="   44.547">  1  3  2 -1</clus>
<clus scale="   54.012">  2  4  1 -1</clus>
<clus scale="   89.263">  2  5  1 -1</clus>
<clus scale="   54.012">  2  3  1 -1</clus>
</clustering>
</event>
<event>
 6    0  0.1230761E+002  0.1341446E+03  0.7546771E-02  0.1221432E+00
         21   -1    0    0  505  502  0.00000000000E+00  0.00000000000E+00  0.13601301504E+03  0.13601301504E+03  0.00000000000E+00 0. -1.
          2   -1    0    0  504    0 -0.00000000000E+00 -0.00000000000E+00 -0.81336706754E+03  0.81336706754E+03  0.00000000000E+00 0.  1.
         21    1    1    2  503  501 -0.31061975610E+02 -0.50363617730E+02  0.12144901769E+02  0.60405620257E+02  0.00000000000E+00 0. -1.
         21    1    1    2  504  502  0.47512818052E+02  0.71604092008E+01 -0.14613879683E+03  0.15383526019E+03  0.00000000000E+00 0.  1.
         21    1    1    2  505  503 -0.55465415046E+02 -0.35574011537E+02  0.81115293302E+02  0.10450652310E+03  0.00000000000E+00 0. -1.
          2    1    1    2  501    0  0.39014572605E+02  0.78777220066E+02 -0.62447545075E+03  0.63063267903E+03  0.00000000000E+00 0.  1.
<scales pt_clust_3="56.85959" pt_clust_4="48.04934" pt_clust_5="56.85959" pt_clust_6="119.86862"></scales>
<clustering>
<clus scale="   48.049">  2  4  1 -1</clus>
<clus scale="   56.860">  3  5 -1 -1</clus>
<clus scale="  119.869">  2  6  1 -1</clus>
<clus scale="  134.145">  1  3  2 -1</clus>
</clustering>
</event>
<event>
 6    0  0.1230761E+002  0.2068097E+03  0.7546771E-02  0.1144118E+00
         21   -1    0    0  504  502  0.00000000000E+00  0.00000000000E+00  0.15661620442E+04  0.15661620442E+04  0.00000000000E+00 0. -1.
          2   -1    0    0  505    0 -0.00000000000E+00 -0.00000000000E+00 -0.10480561667E+04  0.10480561667E+04  0.00000000000E+00 0.  1.
         21    1    1    2  503  501 -0.26017259832E+02  0.17794011575E+03  0.11208559685E+04  0.11351905940E+04  0.00000000000E+00 0. -1.
         21    1    1    2  504  503  0.80964758901E+02  0.21799288826E+02  0.40874579382E+03  0.41725726494E+03  0.00000000000E+00 0.  1.
         21    1    1    2  505  502  0.35471459500E+02  0.12056798172E+02 -0.49314347615E+03  0.49456453460E+03  0.00000000000E+00 0.  1.
          2    1    1    2  501    0 -0.90418958569E+02 -0.21179620275E+03 -0.51835240868E+03  0.56720581728E+03  0.00000000000E+00 0.  1.
<scales pt_clust_3="206.80970" pt_clust_4="84.13518" pt_clust_5="37.46453" pt_clust_6="14000.00000"></scales>
<clustering>
<clus scale="   37.465">  2  5  1 -1</clus>
<clus scale="   84.135">  1  4  2 -1</clus>
<clus scale="  206.810">  1  3  2 -1</clus>
<clus scale="   84.135">  1  3  2 -1</clus>
</clustering>
</event>
<event>
 6    0  0.1230761E+002  0.6801294E+02  0.7546771E-02  0.1366984E+00
          3   -1    0    0  504    0 -0.00000000000E+00  0.00000000000E+00  0.14909675660E+04  0.14909675660E+04  0.00000000000E+00 0. -1.
         21   -1    0    0  503  502  0.00000000000E+00 -0.00000000000E+00 -0.24902745290E+02  0.24902745290E+02  0.00000000000E+00 0.  1.
         21    1    1    2  503  501 -0.36463068175E+02 -0.13078730045E+01  0.87420614780E+02  0.94729244486E+02  0.00000000000E+00 0.  1.
         21    1    1    2  504  505  0.41223647570E+02  0.14474863397E+02  0.27342962957E+03  0.27689830826E+03  0.00000000000E+00 0.  1.
         21    1    1    2  505  502  0.61097779730E+02  0.56938830342E+02  0.83805408294E+02  0.11831447734E+03  0.00000000000E+00 0.  1.
          3    1    1    2  501    0 -0.65858359125E+02 -0.70105820735E+02  0.10214091680E+04  0.10259282812E+04  0.00000000000E+00 0. -1.
<scales pt_clust_3="36.48652" pt_clust_4="40.85720" pt_clust_5="14000.00000" pt_clust_6="68.01294"></scales>
<clustering>
<clus scale="   36.487">  2  3  1 -1</clus>
<clus scale="   40.857">  1  4  2 -1</clus>
<clus scale="   68.013">  1  6  2 -1</clus>
<clus scale="   36.487">  2  3  1 -1</clus>
</clustering>
</event>
<event>
 6    0  0.1230761E+002  0.7078164E+02  0.7546771E-02  0.1357455E+00
         21   -1    0    0  503  502  0.00000000000E+00  0.00000000000E+00  0.13271882007E+03  0.13271882007E+03  0.00000000000E+00 0.  1.
          4   -1    0    0  505    0 -0.00000000000E+00 -0.00000000000E+00 -0.28647355367E+03  0.28647355367E+03  0.00000000000E+00 0.  1.
         21    1    1    2  503  501  0.31087668828E+02  0.91133071976E+01  0.23086212003E+02  0.39780255227E+02  0.00000000000E+00 0.  1.
         21    1    1    2  504  502 -0.72556581481E+02 -0.12123542265E+02  0.63171795270E+02  0.96964496136E+02  0.00000000000E+00 0.  1.
         21    1    1    2  505  504 -0.52565447431E+02  0.86965867603E+01 -0.68680923232E+02  0.86924254964E+02  0.00000000000E+00 0.  1.
          4    1    1    2  501    0  0.94034360084E+02 -0.56863516933E+01 -0.17133181763E+03  0.19552336741E+03  0.00000000000E+00 0.  1.
<scales pt_clust_3="32.39592" pt_clust_4="48.23272" pt_clust_5="14000.00000" pt_clust_6="70.78164"></scales>
<clustering>
<clus scale="   32.396">  1  3  2 -1</clus>
<clus scale="   48.233">  1  4  2 -1</clus>
<clus scale="   70.782">  1  6  2 -1</clus>
<clus scale="   32.396">  1  3  2 -1</clus>
</clustering>
</event>
<event>
 6    0  0.1230761E+002  0.1159483E+03  0.7546771E-02  0.1249935E+00
          2   -1    0    0  504    0 -0.00000000000E+00  0.00000000000E+00  0.28030483056E+04  0.28030483056E+04  0.00000000000E+00 0.  1.
         21   -1    0    0  503  502  0.00000000000E+00 -0.00000000000E+00 -0.91321287630E+03  0.91321287630E+03  0.00000000000E+00 0.  1.
         21    1    1    2  503  501 -0.59918837080E+02  0.14820188692E+03 -0.67446644280E+03  0.69315153378E+03  0.00000000000E+00 0.  1.
         21    1    1    2  504  505 -0.23732788715E+02 -0.59598789658E+02  0.13030699905E+03  0.14524178115E+03  0.00000000000E+00 0.  1.
         21    1    1    2  505  502 -0.16591034115E+02 -0.61494246883E+02 -0.21632888809E+03  0.22551051558E+03  0.00000000000E+00 0.  1.
          2    1    1    2  501    0  0.10024265991E+03 -0.27108850375E+02  0.26503237611E+04  0.26523573513E+04  0.00000000000E+00 0.  1.
<scales pt_clust_3="14000.00000" pt_clust_4="64.83280" pt_clust_5="63.69305" pt_clust_6="115.94831"></scales>
<clustering>
<clus scale="   63.693">  2  5  1 -1</clus>
<clus scale="   64.833">  1  4  2 -1</clus>
<clus scale="  115.948">  1  6  2 -1</clus>
<clus scale="   63.693">  2  3  1 -1</clus>
</clustering>
</event>
<event>
 6    0  0.1230761E+002  0.9749436E+02  0.7546771E-02  0.1285655E+00
         21   -1    0    0  501  502  0.00000000000E+00  0.00000000000E+00  0.12192744421E+03  0.12192744421E+03  0.00000000000E+00 0.  1.
          2   -1    0    0  503    0 -0.00000000000E+00 -0.00000000000E+00 -0.42006332199E+03  0.42006332199E+03  0.00000000000E+00 0. -1.
         21    1    1    2  503  504  0.10600661998E+02  0.46348962591E+02 -0.83222483807E+02  0.95846659718E+02  0.00000000000E+00 0. -1.
         21    1    1    2  504  505 -0.21974425538E+02  0.31768747690E+02  0.18588183613E+02  0.42867811672E+02  0.00000000000E+00 0. -1.
         21    1    1    2  505  502  0.13170208077E+02  0.51472047161E+02  0.61374054947E+02  0.81176355180E+02  0.00000000000E+00 0.  1.
          2    1    1    2  501    0 -0.17964445369E+01 -0.12958975744E+03 -0.29487563253E+03  0.32209993963E+03  0.00000000000E+00 0. -1.
<scales pt_clust_3="47.54577" pt_clust_4="38.00314" pt_clust_5="38.00314" pt_clust_6="86.71043"></scales>
<clustering>
<clus scale="   38.003">  4  5 -1 -1</clus>
<clus scale="   47.546">  2  3  1 -1</clus>
<clus scale="   86.710">  2  6  1 -1</clus>
<clus scale="   97.494">  1  3  2 -1</clus>
</clustering>
</event>
<event>
 6    0  0.1230761E+002  0.2025972E+03  0.7546771E-02  0.1147566E+00
         21   -1    0    0  505  502  0.00000000000E+00  0.00000000000E+00  0.90364796868E+03  0.90364796868E+03  0.00000000000E+00 0.  1.
         -2   -1    0    0    0  501 -0.00000000000E+00 -0.00000000000E+00 -0.16814475714E+03  0.16814475714E+03  0.00000000000E+00 0.  1.
         21    1    1    2  503  504 -0.55958409797E+02 -0.40777482576E+02  0.16384166920E+03  0.17787141220E+03  0.00000000000E+00 0.  1.
         21    1    1    2  504  502 -0.11539086812E+03 -0.58919565683E+02  0.58327593278E+03  0.59749257856E+03  0.00000000000E+00 0.  1.
         21    1    1    2  505  501 -0.76016851987E+01  0.10800659139E+03  0.30326889074E+02  0.11244078264E+03  0.00000000000E+00 0.  1.
         -2    1    1    2    0  503  0.17895096311E+03 -0.83095431259E+01 -0.41941279515E+02  0.18398795241E+03  0.00000000000E+00 0.  1.
<scales pt_clust_3="44.49426" pt_clust_4="44.49426" pt_clust_5="108.27377" pt_clust_6="193.23842"></scales>
<clustering>
<clus scale="   44.494">  3  4 -1 -1</clus>
<clus scale="  108.274">  2  5  1 -1</clus>
<clus scale="  193.238">  2  6  1 -1</clus>
<clus scale="  202.597">  1  3  2 -1</clus>
</clustering>
</event>
<event>
 6    0  0.1600660E+002  0.2378423E+03  0.7546771E-02  0.1121239E+00
         21   -1    0    0  503  502  0.00000000000E+00  0.00000000000E+00  0.75208830801E+03  0.75208830801E+03  0.00000000000E+00 0. -1.
          2   -1    0    0  505    0 -0.00000000000E+00 -0.00000000000E+00 -0.88637370896E+03  0.88637370896E+03  0.00000000000E+00 0.  1.
         21    1    1    2  503  501  0.76159449610E+02  0.11805854599E+03  0.62412381610E+03  0.63974105689E+03  0.00000000000E+00 0. -1.
         21    1    1    2  504  502 -0.80898139368E+01  0.29283624849E+02 -0.16100896527E+01  0.30423151752E+02  0.00000000000E+00 0.  1.
         21    1    1    2  505  504  0.11772520623E+03  0.57396718943E+01  0.48748003119E+02  0.12754817060E+03  0.00000000000E+00 0. -1.
          2    1    1    2  501    0 -0.18579484190E+03 -0.15308184274E+03 -0.80554713052E+03  0.84074963773E+03  0.00000000000E+00 0.  1.
<scales pt_clust_3="237.84231" pt_clust_4="30.38052" pt_clust_5="117.12348" pt_clust_6="14000.00000"></scales>
<clustering>
<clus scale="   30.381">  1  4  2 -1</clus>
<clus scale="  117.123">  1  5  2 -1</clus>
<clus scale="  237.842">  1  3  2 -1</clus>
<clus scale="   30.381">  1  3  2 -1</clus>
</clustering>
</event>
<event>
 6    0  0.1230761E+002  0.1353465E+03  0.7546771E-02  0.1219731E+00
         21   -1    0    0  504  502  0.00000000000E+00  0.00000000000E+00  0.10629619645E+03  0.10629619645E+03  0.00000000000E+00 0. -1.
          2   -1    0    0  505    0 -0.00000000000E+00 -0.00000000000E+00 -0.78044450987E+03  0.78044450987E+03  0.00000000000E+00 0.  1.
         21    1    1    2  503  501 -0.28876716942E+02 -0.56361948799E+02 -0.84486204232E+02  0.10558623376E+03  0.00000000000E+00 0.  1.
         21    1    1    2  504  503  0.10288353438E+02  0.14646371658E+03  0.31251063007E+02  0.15011362174E+03  0.00000000000E+00 0. -1.
         21    1    1    2  505  502 -0.17816249762E+02 -0.53977151602E+02 -0.41312269335E+03  0.41701476163E+03  0.00000000000E+00 0.  1.
          2    1    1    2  501    0  0.36404613266E+02 -0.36124616184E+02 -0.20779047884E+03  0.21402608920E+03  0.00000000000E+00 0.  1.
<scales pt_clust_3="66.42616" pt_clust_4="135.34654" pt_clust_5="14000.00000" pt_clust_6="51.28629"></scales>
<clustering>
<clus scale="   51.286">  2  6  1 -1</clus>
<clus scale="   66.426">  2  3  1 -1</clus>
<clus scale="  135.347">  1  4  2 -1</clus>
<clus scale="  135.347">  1  3  2 -1</clus>
</clustering>
</event>
<event>
 6    0  0.1230761E+002  0.3476999E+03  0.7546771E-02  0.1063563E+00
         21   -1    0    0  504  502  0.00000000000E+00  0.00000000000E+00  0.16254308769E+03  0.16254308769E+03  0.00000000000E+00 0.  1.
          1   -1    0    0  505    0 -0.00000000000E+00 -0.00000000000E+00 -0.19045320291E+04  0.19045320291E+04  0.00000000000E+00 0.  1.
         21    1    1    2  503  501  0.10811166501E+03 -0.13643820714E+03 -0.49496924939E+02  0.18097917576E+03  0.00000000000E+00 0.  1.
         21    1    1    2  504  503  0.14072369354E+03 -0.79344457545E+02 -0.70770095620E+02  0.17637207064E+03  0.00000000000E+00 0.  1.
         21    1    1    2  505  502  0.45920364059E+01 -0.75232294105E+02 -0.78145459098E+03  0.78508105482E+03  0.00000000000E+00 0.  1.
          1    1    1    2  501    0 -0.25342739496E+03  0.29101495879E+03 -0.84026732987E+03  0.92464281558E+03  0.00000000000E+00 0.  1.
<scales pt_clust_3="66.42580" pt_clust_4="66.42580" pt_clust_5="75.37231" pt_clust_6="340.79415"></scales>
<clustering>
<clus scale="   66.426">  3  4 -1 -1</clus>
<clus scale="   75.372">  2  5  1 -1</clus>
<clus scale="  340.794">  2  6  1 -1</clus>
<clus scale="  347.700">  1  3  2 -1</clus>
</clustering>
</event>
<event>
 6    0  0.1230761E+002  0.5731037E+02  0.7546771E-02  0.1409478E+00
          2   -1    0    0  503    0 -0.00000000000E+00  0.00000000000E+00  0.39016032091E+04  0.39016032091E+04  0.00000000000E+00 0.  1.
         21   -1    0    0  504  502  0.00000000000E+00 -0.00000000000E+00 -0.62054553146E+03  0.62054553146E+03  0.00000000000E+00 0.  1.
         21    1    1    2  503  505 -0.18301350136E+02 -0.48077985104E+02  0.60001317163E+03  0.60221444536E+03  0.00000000000E+00 0.  1.
         21    1    1    2  504  501 -0.49081661898E+02 -0.59632931265E+02 -0.55199350215E+03  0.55737054322E+03  0.00000000000E+00 0.  1.
         21    1    1    2  505  502  0.37101404556E+02  0.37492410769E+01 -0.58429795540E+02  0.69315308811E+02  0.00000000000E+00 0.  1.
          2    1    1    2  501    0  0.30281607479E+02  0.10396167529E+03  0.32914678037E+04  0.32932484432E+04  0.00000000000E+00 0.  1.
<scales pt_clust_3="51.41050" pt_clust_4="57.31037" pt_clust_5="37.29036" pt_clust_6="14000.00000"></scales>
<clustering>
<clus scale="   37.290">  2  5  1 -1</clus>
<clus scale="   51.411">  1  3  2 -1</clus>
<clus scale="   57.310">  2  4  1 -1</clus>
<clus scale="   37.290">  2  3  1 -1</clus>
</clustering>
</event>
<event>
 6    0  0.1230761E+002  0.1080673E+03  0.7546771E-02  0.1264191E+00
         21   -1    0    0  504  502  0.00000000000E+00  0.00000000000E+00  0.47088928971E+02  0.47088928971E+02  0.00000000000E+00 0. -1.
          1   -1    0    0  505    0 -0.00000000000E+00 -0.00000000000E+00 -0.22755951541E+04  0.22755951541E+04  0.00000000000E+00 0.  1.
         21    1    1    2  503  502  0.12939082309E+01 -0.76578841256E+02  0.50271567428E+01  0.76754579222E+02  0.00000000000E+00 0. -1.
         21    1    1    2  504  501  0.38346277314E+02 -0.27933809580E+02 -0.14329879776E+03  0.15094793851E+03  0.00000000000E+00 0.  1.
         21    1    1    2  505  503  0.20020341938E+02  0.23612473819E+02 -0.23563399141E+03  0.23765887511E+03  0.00000000000E+00 0.  1.
          1    1    1    2  501    0 -0.59660527484E+02  0.80900177016E+02 -0.18546005927E+04  0.18573226902E+04  0.00000000000E+00 0.  1.
<scales pt_clust_3="108.06726" pt_clust_4="47.65845" pt_clust_5="30.95744" pt_clust_6="14000.00000"></scales>
<clustering>
<clus scale="   30.957">  2  5  1 -1</clus>
<clus scale="   47.658">  1  4  2 -1</clus>
<clus scale="  108.067">  1  3  2 -1</clus>
<clus scale="   47.658">  1  3  2 -1</clus>
</clustering>
</event>
<event>
 6    0  0.1230761E+002  0.1362071E+03  0.7546771E-02  0.1218526E+00
          1   -1    0    0  505    0 -0.00000000000E+00  0.00000000000E+00  0.11796386172E+04  0.11796386172E+04  0.00000000000E+00 0.  1.
         21   -1    0    0  504  502  0.00000000000E+00 -0.00000000000E+00 -0.41168207407E+03  0.41168207407E+03  0.00000000000E+00 0. -1.
         21    1    1    2  503  501 -0.74702257067E+02 -0.28570504293E+02 -0.16371633442E+03  0.18220795560E+03  0.00000000000E+00 0. -1.
         21    1    1    2  504  503 -0.40048198860E+02 -0.37337172175E+02 -0.18676224797E+03  0.19462286589E+03  0.00000000000E+00 0. -1.
         21    1    1    2  505  502  0.90704309909E+02 -0.91659060934E+02  0.10179127516E+04  0.10260482567E+04  0.00000000000E+00 0.  1.
          1    1    1    2  501    0  0.24046146018E+02  0.15756673740E+03  0.10052237398E+03  0.18844161309E+03  0.00000000000E+00 0.  1.
<scales pt_clust_3="33.65746" pt_clust_4="33.65746" pt_clust_5="128.95214" pt_clust_6="129.99094"></scales>
<clustering>
<clus scale="   33.657">  3  4 -1 -1</clus>
<clus scale="  128.952">  1  5  2 -1</clus>
<clus scale="  129.991">  1  6  2 -1</clus>
<clus scale="  136.207">  2  3  1 -1</clus>
</clustering>
</event>
<event>
 6    0  0.1230761E+002  0.8536431E+02  0.7546771E-02  0.1314483E+00
         21   -1    0    0  505  502  0.00000000000E+00  0.00000000000E+00  0.23424330019E+03  0.23424330019E+03  0.00000000000E+00 0. -1.
         -1   -1    0    0    0  501 -0.00000000000E+00 -0.00000000000E+00 -0.23114762409E+03  0.23114762409E+03  0.00000000000E+00 0.  1.
         21    1    1    2  503  504 -0.19389602633E+02 -0.31929311508E+02  0.16657701201E+02  0.40901303561E+02  0.00000000000E+00 0.  1.
         21    1    1    2  504  502 -0.34663382228E+02 -0.11991241341E+02  0.15968614938E+03  0.16384445746E+03  0.00000000000E+00 0. -1.
         21    1    1    2  505  501 -0.28465714028E+02  0.85093473217E+02 -0.39150436877E+02  0.97897664768E+02  0.00000000000E+00 0.  1.
         -1    1    1    2    0  503  0.82518698889E+02 -0.41172920368E+02 -0.13409773760E+03  0.16274749850E+03  0.00000000000E+00 0.  1.
<scales pt_clust_3="49.45080" pt_clust_4="36.67888" pt_clust_5="85.36431" pt_clust_6="14000.00000"></scales>
<clustering>
<clus scale="   36.679">  1  4  2 -1</clus>
<clus scale="   49.451">  1  3  2 -1</clus>
<clus scale="   85.364">  1  5  2 -1</clus>
<clus scale="   36.679">  1  3  2 -1</clus>
</clustering>
</event>
<event>
 6    0  0.1230761E+002  0.1000316E+03  0.7546771E-02  0.1280229E+00
         21   -1    0    0  505  502  0.00000000000E+00  0.00000000000E+00  0.38527818448E+03  0.38527818448E+03  0.00000000000E+00 0. -1.
          1   -1    0    0  504    0 -0.00000000000E+00 -0.00000000000E+00 -0.17896538790E+04  0.17896538790E+04  0.00000000000E+00 0. -1.
         21    1    1    2  503  502 -0.98930817897E+02  0.99779516313E+01 -0.46180620540E+02  0.10963355308E+03  0.00000000000E+00 0.  1.
         21    1    1    2  504  503 -0.44803892859E+01  0.53811759984E+02 -0.92001704222E+02  0.10667751863E+03  0.00000000000E+00 0. -1.
         21    1    1    2  505  501  0.52850712515E+02 -0.89399944610E+02  0.33791385074E+03  0.35351282640E+03  0.00000000000E+00 0. -1.
          1    1    1    2  501    0  0.50560494668E+02  0.25610232995E+02 -0.16041072205E+04  0.16051081653E+04  0.00000000000E+00 0. -1.
<scales pt_clust_3="100.03163" pt_clust_4="53.99796" pt_clust_5="14000.00000" pt_clust_6="89.58938"></scales>
<clustering>
<clus scale="   53.998">  2  4  1 -1</clus>
<clus scale="   89.589">  2  6  1 -1</clus>
<clus scale="  100.032">  2  3  1 -1</clus>
<clus scale="  100.032">  1  3  2 -1</clus>
</clustering>
</event>
<event>
 6    0  0.1230761E+002  0.1121706E+03  0.7546771E-02  0.1256602E+00
         -2   -1    0    0    0  501 -0.00000000000E+00  0.00000000000E+00  0.59935916073E+03  0.59935916073E+03  0.00000000000E+00 0. -1.
         21   -1    0    0  505  502  0.00000000000E+00 -0.00000000000E+00 -0.15715225112E+03  0.15715225112E+03  0.00000000000E+00 0. -1.
         21    1    1    2  503  502  0.41703809796E+02  0.11659170601E+03 -0.64421701333E+02  0.13958147895E+03  0.00000000000E+00 0. -1.
         21    1    1    2  504  501 -0.42402258916E+02  0.25777000516E+02  0.10224840689E+03  0.11365360544E+03  0.00000000000E+00 0. -1.
         21    1    1    2  505  504 -0.51868405118E+02 -0.82507654925E+02  0.66910754304E+01  0.97686309487E+02  0.00000000000E+00 0.  1.
         -2    1    1    2    0  503  0.52566854238E+02 -0.59861051604E+02  0.39768912862E+03  0.40559001798E+03  0.00000000000E+00 0. -1.
<scales pt_clust_3="14000.00000" pt_clust_4="49.62263" pt_clust_5="112.17060" pt_clust_6="42.72791"></scales>
<clustering>
<clus scale="   49.623">  1  4  2 -1</clus>
<clus scale="   42.728">  1  6  2 -1</clus>
<clus scale="  112.171">  1  5  2 -1</clus>
<clus scale="  112.171">  2  3  1 -1</clus>
</clustering>
</event>
<event>
 6    0  0.1230761E+002  0.1489790E+03  0.7546771E-02  0.1201733E+00
         21   -1    0    0  504  502  0.00000000000E+00  0.00000000000E+00  0.92518307671E+02  0.92518307671E+02  0.00000000000E+00 0. -1.
          1   -1    0    0  505    0 -0.00000000000E+00 -0.00000000000E+00 -0.92688733470E+03  0.92688733470E+03  0.00000000000E+00 0.  1.
         21    1    1    2  503  501  0.87670819831E+02  0.15645521417E+01 -0.13464567218E+02  0.88712541636E+02  0.00000000000E+00 0. -1.
         21    1    1    2  504  503  0.52733077216E+02 -0.28354814640E+02  0.17790439638E+02  0.62460168816E+02  0.00000000000E+00 0. -1.
         21    1    1    2  505  502 -0.11217192513E+02  0.73333007909E+02 -0.16838549128E+03  0.18400333999E+03  0.00000000000E+00 0.  1.
          1    1    1    2  501    0 -0.12918670453E+03 -0.46542745411E+02 -0.67030940817E+03  0.68422959192E+03  0.00000000000E+00 0.  1.
<scales pt_clust_3="40.51125" pt_clust_4="40.51125" pt_clust_5="74.18595" pt_clust_6="140.68131"></scales>
<clustering>
<clus scale="   40.511">  3  4 -1 -1</clus>
<clus scale="   74.186">  2  5  1 -1</clus>
<clus scale="  140.681">  2  6  1 -1</clus>
<clus scale="  148.979">  1  3  2 -1</clus>
</clustering>
</event>
<event>
 6    0  0.1230761E+002  0.9531633E+02  0.7546771E-02  0.1290465E+00
         21   -1    0    0  503  502  0.00000000000E+00  0.00000000000E+00  0.53952075686E+02  0.53952075686E+02  0.00000000000E+00 0.  1.
          1   -1    0    0  505    0 -0.00000000000E+00 -0.00000000000E+00 -0.19077394759E+04  0.19077394759E+04  0.00000000000E+00 0.  1.
         21    1    1    2  503  501 -0.18179898122E+02  0.30594505472E+02 -0.73496259209E+02  0.81659246742E+02  0.00000000000E+00 0.  1.
         21    1    1    2  504  502  0.27876074366E+02  0.89774235496E+02 -0.14852393071E+02  0.95168705260E+02  0.00000000000E+00 0.  1.
         21    1    1    2  505  504 -0.77717091293E+02 -0.56449386690E+02 -0.15074725989E+04  0.15105297468E+04  0.00000000000E+00 0.  1.
          1    1    1    2  501    0  0.68020915049E+02 -0.63919354277E+02 -0.25796614905E+03  0.27433385280E+03  0.00000000000E+00 0.  1.
<scales pt_clust_3="35.58838" pt_clust_4="14000.00000" pt_clust_5="95.31633" pt_clust_6="87.74364"></scales>
<clustering>
<clus scale="   35.588">  1  3  2 -1</clus>
<clus scale="   87.744">  1  6  2 -1</clus>
<clus scale="   95.316">  2  5  1 -1</clus>
<clus scale="   35.588">  1  3  2 -1</clus>
</clustering>
</event>
<event>
 6    0  0.1230761E+002  0.7231769E+02  0.7546771E-02  0.1352384E+00
          2   -1    0    0  503    0 -0.00000000000E+00  0.00000000000E+00  0.16450537889E+04  0.16450537889E+04  0.00000000000E+00 0. -1.
         21   -1    0    0  505  502  0.00000000000E+00 -0.00000000000E+00 -0.83023119456E+03  0.83023119456E+03  0.00000000000E+00 0. -1.
         21    1    1    2  503  504  0.38387366464E+02  0.31914240336E+02  0.11447719139E+03  0.12488849422E+03  0.00000000000E+00 0. -1.
         21    1    1    2  504  502  0.53691949301E+02  0.14486828984E+02 -0.77656924997E+03  0.77855795779E+03  0.00000000000E+00 0. -1.
         21    1    1    2  505  501  0.18156677809E+01  0.31810218754E+02 -0.39364312512E+02  0.50643220338E+02  0.00000000000E+00 0. -1.
          2    1    1    2  501    0 -0.93894983546E+02 -0.78211288074E+02  0.15162789655E+04  0.15211953111E+04  0.00000000000E+00 0. -1.
<scales pt_clust_3="50.06534" pt_clust_4="72.31769" pt_clust_5="31.86199" pt_clust_6="14000.00000"></scales>
<clustering>
<clus scale="   31.862">  2  5  1 -1</clus>
<clus scale="   50.065">  1  3  2 -1</clus>
<clus scale="   72.318">  2  4  1 -1</clus>
<clus scale="   31.862">  2  3  1 -1</clus>
</clustering>
</event>
<event>
 6    0  0.1230761E+002  0.1806208E+03  0.7546771E-02  0.1167204E+00
         21   -1    0    0  504  502  0.00000000000E+00  0.00000000000E+00  0.27397025890E+03  0.27397025890E+03  0.00000000000E+00 0. -1.
         -1   -1    0    0    0  501 -0.00000000000E+00 -0.00000000000E+00 -0.80133244325E+03  0.80133244325E+03  0.00000000000E+00 0.  1.
         21    1    1    2  503  502 -0.71464652010E+00 -0.77447699525E+02  0.10028893556E+03  0.12671435387E+03  0.00000000000E+00 0. -1.
         21    1    1    2  504  501  0.38597510456E+01  0.34976255660E+02 -0.20803049744E+02  0.40877903772E+02  0.00000000000E+00 0.  1.
         21    1    1    2  505  503 -0.53210024517E+02 -0.89904816929E+02  0.12465399466E+03  0.16264317139E+03  0.00000000000E+00 0. -1.
         -1    1    1    2    0  505  0.50064919991E+02  0.13237626079E+03 -0.73150206482E+03  0.74506727312E+03  0.00000000000E+00 0.  1.
<scales pt_clust_3="40.50750" pt_clust_4="35.18858" pt_clust_5="40.50750" pt_clust_6="174.38505"></scales>
<clustering>
<clus scale="   35.189">  2  4  1 -1</clus>
<clus scale="   40.507">  3  5 -1 -1</clus>
<clus scale="  174.385">  2  6  1 -1</clus>
<clus scale="  180.621">  1  3  2 -1</clus>
</clustering>
</event>
<event>
 6    0  0.1230761E+002  0.1485664E+03  0.7546771E-02  0.1202246E+00
         21   -1    0    0  505  502  0.00000000000E+00  0.00000000000E+00  0.11717296868E+04  0.11717296868E+04  0.00000000000E+00 0. -1.
         -2   -1    0    0    0  501 -0.00000000000E+00 -0.00000000000E+00 -0.90697767317E+02  0.90697767317E+02  0.00000000000E+00 0. -1.
         21    1    1    2  503  502  0.40628935430E+02  0.11493203429E+02  0.58813795694E+02  0.72400736759E+02  0.00000000000E+00 0. -1.
         21    1    1    2  504  501  0.81923381416E+02  0.10133899611E+02  0.48116863731E+03  0.48819810925E+03  0.00000000000E+00 0. -1.
         21    1    1    2  505  504  0.36383829820E+02 -0.90450995764E+01  0.54109792909E+03  0.54239521178E+03  0.00000000000E+00 0. -1.
         -2    1    1    2    0  503 -0.15893614667E+03 -0.12582003464E+02 -0.48442577805E-01  0.15943339636E+03  0.00000000000E+00 0. -1.
<scales pt_clust_3="45.65399" pt_clust_4="148.56635" pt_clust_5="37.49129" pt_clust_6="14000.00000"></scales>
<clustering>
<clus scale="   37.491">  1  5  2 -1</clus>
<clus scale="   45.654">  1  3  2 -1</clus>
<clus scale="  148.566">  1  4  2 -1</clus>
<clus scale="   37.491">  1  3  2 -1</clus>
</clustering>
</event>
<event>
 6    0  0.1230761E+002  0.2246458E+03  0.7546771E-02  0.1130466E+00
         21   -1    0    0  503  502  0.00000000000E+00  0.00000000000E+00  0.12696854686E+04  0.12696854686E+04  0.00000000000E+00 0.  1.
          1   -1    0    0  505    0 -0.00000000000E+00 -0.00000000000E+00 -0.30978531902E+03  0.30978531902E+03  0.00000000000E+00 0. -1.
         21    1    1    2  503  501  0.32895301150E+02  0.18431643927E+02  0.31435337232E+02  0.49091819710E+02  0.00000000000E+00 0.  1.
         21    1    1    2  504  502  0.79380834257E+02  0.60864559947E+02  0.92848113205E+03  0.93385385584E+03  0.00000000000E+00 0.  1.
         21    1    1    2  505  504  0.73202726834E+02  0.12184833217E+01  0.25830374763E+03  0.26847895627E+03  0.00000000000E+00 0.  1.
          1    1    1    2  501    0 -0.18547886224E+03 -0.80514687195E+02 -0.25832006729E+03  0.32804615583E+03  0.00000000000E+00 0. -1.
<scales pt_clust_3="37.70711" pt_clust_4="79.18986" pt_clust_5="79.18986" pt_clust_6="201.13668"></scales>
<clustering>
<clus scale="   37.707">  1  3  2 -1</clus>
<clus scale="   79.190">  4  5 -1 -1</clus>
<clus scale="  201.137">  2  6  1 -1</clus>
<clus scale="   37.707">  1  3  2 -1</clus>
</clustering>
</event>
<event>
 6    0  0.1230761E+002  0.1190066E+03  0.7546771E-02  0.1244745E+00
         21   -1    0    0  505  502  0.00000000000E+00  0.00000000000E+00  0.38821634808E+02  0.38821634808E+02  0.00000000000E+00 0. -1.
          2   -1    0    0  503    0 -0.00000000000E+00 -0.00000000000E+00 -0.26796381158E+04  0.26796381158E+04  0.00000000000E+00 0.  1.
         21    1    1    2  503  502  0.31395316025E+02 -0.61686905717E+02 -0.79764002793E+03  0.80063759240E+03  0.00000000000E+00 0.  1.
         21    1    1    2  504  501 -0.75487772924E+02  0.18584447166E+02 -0.11806915373E+03  0.14136516756E+03  0.00000000000E+00 0. -1.
         21    1    1    2  505  504 -0.49759055142E+02  0.50412666043E+02 -0.27097494684E+02  0.75839796178E+02  0.00000000000E+00 0. -1.
          2    1    1    2  501    0  0.93851512040E+02 -0.73102074929E+01 -0.16980098047E+04  0.17006171945E+04  0.00000000000E+00 0.  1.
<scales pt_clust_3="69.21662" pt_clust_4="119.00662" pt_clust_5="69.03077" pt_clust_6="14000.00000"></scales>
<clustering>
<clus scale="   69.217">  2  3  1 -1</clus>
<clus scale="   69.031">  1  5  2 -1</clus>
<clus scale="  119.007">  1  4  2 -1</clus>
<clus scale="   69.031">  1  3  2 -1</clus>
</clustering>
</event>
<event>
 6    0  0.1230761E+002  0.1598021E+03  0.7546771E-02  0.1188920E+00
         21   -1    0    0  503  502  0.00000000000E+00  0.00000000000E+00  0.29881271801E+02  0.29881271801E+02  0.00000000000E+00 0.  1.
          1   -1    0    0  504    0 -0.00000000000E+00 -0.00000000000E+00 -0.19217750146E+04  0.19217750146E+04  0.00000000000E+00 0.  1.
         21    1    1    2  503  505  0.33558049498E+01  0.57869666258E+02 -0.65325591975E+02  0.87336090287E+02  0.00000000000E+00 0.  1.
         21    1    1    2  504  502 -0.30337975113E+02  0.11002764772E+02 -0.36764290776E+03  0.36905658264E+03  0.00000000000E+00 0. -1.
         21    1    1    2  505  501 -0.45548839866E+02  0.84749454034E+02 -0.17122583238E+03  0.19640634523E+03  0.00000000000E+00 0.  1.
          1    1    1    2  501    0  0.72531010028E+02 -0.15362188506E+03 -0.12876994107E+04  0.12988572682E+04  0.00000000000E+00 0.  1.
<scales pt_clust_3="37.87741" pt_clust_4="32.27156" pt_clust_5="37.87741" pt_clust_6="151.99995"></scales>
<clustering>
<clus scale="   32.272">  2  4  1 -1</clus>
<clus scale="   37.877">  3  5 -1 -1</clus>
<clus scale="  152.000">  2  6  1 -1</clus>
<clus scale="  159.802">  1  3  2 -1</clus>
</clustering>
</event>
<event>
 6    0  0.1230761E+002  0.9460578E+02  0.7546771E-02  0.1292066E+00
         21   -1    0    0  505  502  0.00000000000E+00  0.00000000000E+00  0.66659430716E+03  0.66659430716E+03  0.00000000000E+00 0. -1.
          2   -1    0    0  503    0 -0.00000000000E+00 -0.00000000000E+00 -0.80457826044E+03  0.80457826044E+03  0.00000000000E+00 0.  1.
         21    1    1    2  503  504  0.46774358209E+01  0.45746677186E+02 -0.10220987063E+03  0.11207807339E+03  0.00000000000E+00 0. -1.
         21    1    1    2  504  502 -0.24839592605E+02 -0.58285363518E+02  0.15002545563E+03  0.16285523110E+03  0.00000000000E+00 0.  1.
         21    1    1    2  505  501  0.73106027729E+02 -0.24405312499E+02  0.50075731000E+03  0.50665372207E+03  0.00000000000E+00 0. -1.
          2    1    1    2  501    0 -0.52943870946E+02  0.36943998831E+02 -0.68655684827E+03  0.68958554105E+03  0.00000000000E+00 0.  1.
<scales pt_clust_3="45.98518" pt_clust_4="62.95380" pt_clust_5="14000.00000" pt_clust_6="94.60578"></scales>
<clustering>
<clus scale="   45.985">  2  3  1 -1</clus>
<clus scale="   62.954">  1  4  2 -1</clus>
<clus scale="   94.606">  2  6  1 -1</clus>
<clus scale="   62.954">  1  3  2 -1</clus>
</clustering>
</event>
<event>
 6    0  0.1230761E+002  0.1776468E+03  0.7546771E-02  0.1170100E+00
         21   -1    0    0  504  502  0.00000000000E+00  0.00000000000E+00  0.10307569575E+03  0.10307569575E+03  0.00000000000E+00 0.  1.
          2   -1    0    0  505    0 -0.00000000000E+00 -0.00000000000E+00 -0.32189595319E+04  0.32189595319E+04  0.00000000000E+00 0.  1.
         21    1    1    2  503  501 -0.46679264083E+02 -0.11399935068E+03 -0.63974478675E+03  0.65149689011E+03  0.00000000000E+00 0.  1.
         21    1    1    2  504  503  0.11942957254E+03  0.14282917143E+03  0.17743261825E+01  0.18619007289E+03  0.00000000000E+00 0.  1.
         21    1    1    2  505  502 -0.30427402691E+02  0.26675860128E+02 -0.14922823143E+03  0.15461724808E+03  0.00000000000E+00 0.  1.
          2    1    1    2  501    0 -0.42322905767E+02 -0.55505680875E+02 -0.23286851442E+04  0.23297310166E+04  0.00000000000E+00 0.  1.
<scales pt_clust_3="177.64680" pt_clust_4="14000.00000" pt_clust_5="40.46515" pt_clust_6="74.32031"></scales>
<clustering>
<clus scale="   40.465">  2  5  1 -1</clus>
<clus scale="   74.320">  2  6  1 -1</clus>
<clus scale="  177.647">  2  3  1 -1</clus>
<clus scale="  177.647">  1  3  2 -1</clus>
</clustering>
</event>
<event>
 6    0  0.1230761E+002  0.8425934E+02  0.7546771E-02  0.1317381E+00
          1   -1    0    0  505    0 -0.00000000000E+00  0.00000000000E+00  0.18177297019E+04  0.18177297019E+04  0.00000000000E+00 0. -1.
         21   -1    0    0  503  502  0.00000000000E+00 -0.00000000000E+00 -0.21834168141E+03  0.21834168141E+03  0.00000000000E+00 0.  1.
         21    1    1    2  503  501  0.28913800268E+02  0.20456442666E+02  0.87333558095E+01  0.36479383166E+02  0.00000000000E+00 0.  1.
         21    1    1    2  504  502  0.20775232390E+02  0.48365386181E+02 -0.18846420232E+03  0.19567722509E+03  0.00000000000E+00 0.  1.
         21    1    1    2  505  504  0.28421999690E+02  0.67566207839E+02  0.14716337580E+03  0.16440821660E+03  0.00000000000E+00 0.  1.
          1    1    1    2  501    0 -0.78111032348E+02 -0.13638803669E+03  0.16319554912E+04  0.16395065585E+04  0.00000000000E+00 0. -1.
<scales pt_clust_3="35.41855" pt_clust_4="14000.00000" pt_clust_5="74.57288" pt_clust_6="84.25934"></scales>
<clustering>
<clus scale="   35.419">  2  3  1 -1</clus>
<clus scale="   74.573">  1  5  2 -1</clus>
<clus scale="   84.259">  1  6  2 -1</clus>
<clus scale="   35.419">  2  3  1 -1</clus>
</clustering>
</event>
<event>
 6    0  0.1230761E+002  0.1759245E+03  0.7546771E-02  0.1171807E+00
          2   -1    0    0  505    0 -0.00000000000E+00  0.00000000000E+00  0.67852705555E+03  0.67852705555E+03  0.00000000000E+00 0. -1.
         21   -1    0    0  501  502  0.00000000000E+00 -0.00000000000E+00 -0.42720970069E+03  0.42720970069E+03  0.00000000000E+00 0.  1.
         21    1    1    2  503  502 -0.10569792518E+03 -0.40125017418E+02 -0.28292321853E+03  0.30467624783E+03  0.00000000000E+00 0.  1.
         21    1    1    2  504  503 -0.43198702788E+02 -0.42764921202E+02 -0.10622355784E+03  0.12238631724E+03  0.00000000000E+00 0.  1.
         21    1    1    2  505  504  0.21138148027E+02 -0.38023049474E+02  0.77583284681E+02  0.88947960377E+02  0.00000000000E+00 0. -1.
          2    1    1    2  501    0  0.12775847994E+03  0.12091298809E+03  0.56288084654E+03  0.58972623080E+03  0.00000000000E+00 0. -1.
<scales pt_clust_3="32.01437" pt_clust_4="32.01437" pt_clust_5="43.50372" pt_clust_6="170.42049"></scales>
<clustering>
<clus scale="   32.014">  3  4 -1 -1</clus>
<clus scale="   43.504">  1  5  2 -1</clus>
<clus scale="  170.420">  1  6  2 -1</clus>
<clus scale="  175.924">  2  3  1 -1</clus>
</clustering>
</event>
<event>
 6    0  0.1230761E+002  0.9235522E+02  0.7546771E-02  0.1297246E+00
         21   -1    0    0  501  502  0.00000000000E+00  0.00000000000E+00  0.34347111898E+03  0.34347111898E+03  0.00000000000E+00 0. -1.
          3   -1    0    0  505    0 -0.00000000000E+00 -0.00000000000E+00 -0.30150624639E+03  0.30150624639E+03  0.00000000000E+00 0. -1.
         21    1    1    2  503  502 -0.40541774041E+02  0.20653649115E+02  0.13761260480E+03  0.14493942756E+03  0.00000000000E+00 0. -1.
         21    1    1    2  504  503  0.91032516028E+01  0.45629857611E+02  0.15634892283E+03  0.16312553070E+03  0.00000000000E+00 0. -1.
         21    1    1    2  505  504 -0.59786016871E+02 -0.89945008580E+01  0.25479761483E+01  0.60512486657E+02  0.00000000000E+00 0. -1.
          3    1    1    2  501    0  0.91224539309E+02 -0.57289005868E+02 -0.25454463118E+03  0.27639992046E+03  0.00000000000E+00 0. -1.
<scales pt_clust_3="45.49955" pt_clust_4="66.05262" pt_clust_5="92.35522" pt_clust_6="14000.00000"></scales>
<clustering>
<clus scale="   45.500">  1  3  2 -1</clus>
<clus scale="   66.053">  1  4  2 -1</clus>
<clus scale="   92.355">  1  5  2 -1</clus>
<clus scale="   45.500">  1  3  2 -1</clus>
</clustering>
</event>
<event>
 6    0  0.1230761E+002  0.1137343E+03  0.7546771E-02  0.1253807E+00
         21   -1    0    0  504  502  0.00000000000E+00  0.00000000000E+00  0.94826421948E+02  0.94826421948E+02  0.00000000000E+00 0. -1.
          2   -1    0    0  505    0 -0.00000000000E+00 -0.00000000000E+00 -0.68414051833E+03  0.68414051833E+03  0.00000000000E+00 0.  1.
         21    1    1    2  503  502 -0.14003390587E+02 -0.44005231433E+02 -0.36392294898E+02  0.58795871193E+02  0.00000000000E+00 0. -1.
         21    1    1    2  504  501  0.80652247796E+02 -0.81559390913E+02  0.27595910778E+02  0.11797564839E+03  0.00000000000E+00 0. -1.
         21    1    1    2  505  503 -0.22566235806E+02  0.20400496524E+02 -0.26432085290E+03  0.26606564703E+03  0.00000000000E+00 0. -1.
          2    1    1    2  501    0 -0.44082621404E+02  0.10516412582E+03 -0.31619685937E+03  0.33612977367E+03  0.00000000000E+00 0.  1.
<scales pt_clust_3="44.85896" pt_clust_4="14000.00000" pt_clust_5="30.42064" pt_clust_6="113.73432"></scales>
<clustering>
<clus scale="   30.421">  2  5  1 -1</clus>
<clus scale="   44.859">  2  3  1 -1</clus>
<clus scale="  113.734">  2  6  1 -1</clus>
<clus scale="  113.734">  1  3  2 -1</clus>
</clustering>
</event>
<event>
 6    0  0.1230761E+002  0.7007606E+03  0.7546771E-02  0.9715932E-01
          2   -1    0    0  505    0 -0.00000000000E+00  0.00000000000E+00  0.14751000915E+04  0.14751000915E+04  0.00000000000E+00 0.  1.
         21   -1    0    0  503  502  0.00000000000E+00 -0.00000000000E+00 -0.67802125035E+03  0.67802125035E+03  0.00000000000E+00 0.  1.
         21    1    1    2  503  504 -0.99341451557E+02 -0.28048638219E+03 -0.12421253215E+03  0.32244392960E+03  0.00000000000E+00 0.  1.
         21    1    1    2  504  501  0.78627842777E+01 -0.39964187456E+03 -0.19269662743E+03  0.44374253965E+03  0.00000000000E+00 0.  1.
         21    1    1    2  505  502 -0.34569955728E+02 -0.11736833110E+02  0.33690718884E+03  0.33887946084E+03  0.00000000000E+00 0. -1.
          2    1    1    2  501    0  0.12604862301E+03  0.69186508985E+03  0.77708081186E+03  0.10480554117E+04  0.00000000000E+00 0.  1.
<scales pt_clust_3="108.18762" pt_clust_4="108.18762" pt_clust_5="36.50801" pt_clust_6="689.49101"></scales>
<clustering>
<clus scale="   36.508">  1  5  2 -1</clus>
<clus scale="  108.188">  3  4 -1 -1</clus>
<clus scale="  689.491">  1  6  2 -1</clus>
<clus scale="  700.761">  2  3  1 -1</clus>
</clustering>
</event>
<event>
 6    0  0.1230761E+002  0.2087639E+03  0.7546771E-02  0.1142549E+00
         -1   -1    0    0    0  501 -0.00000000000E+00  0.00000000000E+00  0.97641011724E+03  0.97641011724E+03  0.00000000000E+00 0. -1.
         21   -1    0    0  504  502  0.00000000000E+00 -0.00000000000E+00 -0.13980665170E+03  0.13980665170E+03  0.00000000000E+00 0.  1.
         21    1    1    2  503  502 -0.41994828658E+02 -0.44785239387E+02 -0.31445624666E+02  0.68979059225E+02  0.00000000000E+00 0.  1.
         21    1    1    2  504  501 -0.41198544421E+02 -0.56081669012E+01  0.93130533897E+02  0.10199052869E+03  0.00000000000E+00 0. -1.
         21    1    1    2  505  503 -0.76353174980E+02 -0.11607949408E+03  0.23044761899E+01  0.13895886760E+03  0.00000000000E+00 0. -1.
         -1    1    1    2    0  505  0.15954654806E+03  0.16647290036E+03  0.77261408012E+03  0.80628831342E+03  0.00000000000E+00 0. -1.
<scales pt_clust_3="33.27193" pt_clust_4="41.57850" pt_clust_5="33.27193" pt_clust_6="202.67483"></scales>
<clustering>
<clus scale="   33.272">  3  5 -1 -1</clus>
<clus scale="   41.578">  1  4  2 -1</clus>
<clus scale="  202.675">  1  6  2 -1</clus>
<clus scale="  208.764">  2  3  1 -1</clus>
</clustering>
</event>
<event>
 6    0  0.1230761E+002  0.1408126E+03  0.7546771E-02  0.1212240E+00
         21   -1    0    0  501  502  0.00000000000E+00  0.00000000000E+00  0.53357052984E+02  0.53357052984E+02  0.00000000000E+00 0. -1.
          2   -1    0    0  503    0 -0.00000000000E+00 -0.00000000000E+00 -0.30735338078E+04  0.30735338078E+04  0.00000000000E+00 0.  1.
         21    1    1    2  503  505  0.30333298317E+02  0.24490866530E+01 -0.52461472674E+03  0.52549663988E+03  0.00000000000E+00 0. -1.
         21    1    1    2  504  502 -0.44684386467E+02  0.20364469407E+02  0.68531703946E+01  0.49581972052E+02  0.00000000000E+00 0. -1.
         21    1    1    2  505  504  0.56334177248E+02 -0.15792377915E+03 -0.29079560105E+03  0.33567177590E+03  0.00000000000E+00 0. -1.
          2    1    1    2  501    0 -0.41983089099E+02  0.13511022309E+03 -0.22116195974E+04  0.22161404730E+04  0.00000000000E+00 0.  1.
<scales pt_clust_3="30.43201" pt_clust_4="48.88335" pt_clust_5="140.81259" pt_clust_6="14000.00000"></scales>
<clustering>
<clus scale="   30.432">  2  3  1 -1</clus>
<clus scale="   48.883">  1  4  2 -1</clus>
<clus scale="  140.813">  1  5  2 -1</clus>
<clus scale="   48.883">  1  3  2 -1</clus>
</clustering>
</event>
<event>
 6    0  0.1230761E+002  0.1547028E+03  0.7546771E-02  0.1194810E+00
         21   -1    0    0  503  502  0.00000000000E+00  0.00000000000E+00  0.22413206295E+03  0.22413206295E+03  0.00000000000E+00 0.  1.
         -4   -1    0    0    0  501 -0.00000000000E+00 -0.00000000000E+00 -0.76518933797E+03  0.76518933797E+03  0.00000000000E+00 0. -1.
         21    1    1    2  503  504  0.59187367777E+02  0.25136592660E+01 -0.13593412148E+02  0.60780291552E+02  0.00000000000E+00 0.  1.
         21    1    1    2  504  501 -0.39266090858E+02  0.55241990381E+02 -0.14763689258E+03  0.16245047074E+03  0.00000000000E+00 0. -1.
         21    1    1    2  505  502 -0.49541724464E+02  0.14627331730E+03  0.13901543484E+03  0.20778728773E+03  0.00000000000E+00 0.  1.
         -4    1    1    2    0  505  0.29620447545E+02 -0.20402896695E+03 -0.51884240513E+03  0.55830335091E+03  0.00000000000E+00 0. -1.
<scales pt_clust_3="59.24072" pt_clust_4="66.60985" pt_clust_5="154.70284" pt_clust_6="14000.00000"></scales>
<clustering>
<clus scale="   59.241">  1  3  2 -1</clus>
<clus scale="   66.610">  2  4  1 -1</clus>
<clus scale="  154.703">  1  5  2 -1</clus>
<clus scale="   59.241">  1  3  2 -1</clus>
</clustering>
</event>
<event>
 6    0  0.1230761E+002  0.2135556E+03  0.7546771E-02  0.1138781E+00
         21   -1    0    0  504  502  0.00000000000E+00  0.00000000000E+00  0.77318817691E+03  0.77318817691E+03  0.00000000000E+00 0.  1.
         -4   -1    0    0    0  501 -0.00000000000E+00 -0.00000000000E+00 -0.23955948932E+04  0.23955948932E+04  0.00000000000E+00 0.  1.
         21    1    1    2  503  501  0.67181020767E+02 -0.29305842093E+02 -0.12264752568E+04  0.12286633703E+04  0.00000000000E+00 0.  1.
         21    1    1    2  504  503 -0.30441760076E+02 -0.10694359357E+03  0.16512781620E+03  0.19907493224E+03  0.00000000000E+00 0.  1.
         21    1    1    2  505  502  0.71206979696E+02 -0.10393004628E+03  0.56793934573E+03  0.58174477987E+03  0.00000000000E+00 0.  1.
         -4    1    1    2    0  505 -0.10794624039E+03  0.24017948194E+03 -0.11289986215E+04  0.11592999878E+04  0.00000000000E+00 0.  1.
<scales pt_clust_3="73.29476" pt_clust_4="111.33920" pt_clust_5="213.55560" pt_clust_6="14000.00000"></scales>
<clustering>
<clus scale="   73.295">  2  3  1 -1</clus>
<clus scale="  111.339">  1  4  2 -1</clus>
<clus scale="  213.556">  1  5  2 -1</clus>
<clus scale="  111.339">  1  3  2 -1</clus>
</clustering>
</event>
<event>
 6    0  0.1230761E+002  0.2013501E+03  0.7546771E-02  0.1148605E+00
         -2   -1    0    0    0  501 -0.00000000000E+00  0.00000000000E+00  0.40317918540E+03  0.40317918540E+03  0.00000000000E+00 0.  1.
         21   -1    0    0  501  502  0.00000000000E+00 -0.00000000000E+00 -0.23421860583E+03  0.23421860583E+03  0.00000000000E+00 0.  1.
         21    1    1    2  503  504 -0.11785257692E+03  0.33085967823E+02 -0.12452693604E+03  0.17461634790E+03  0.00000000000E+00 0.  1.
         21    1    1    2  504  505 -0.47945923346E+02  0.10505615079E+02 -0.42563712619E+01  0.49267597973E+02  0.00000000000E+00 0.  1.
         21    1    1    2  505  502 -0.53820315229E+02 -0.99445963028E+01  0.21011347188E+02  0.58625916092E+02  0.00000000000E+00 0. -1.
         -2    1    1    2    0  503  0.21961881549E+03 -0.33646986600E+02  0.27673253968E+03  0.35488792927E+03  0.00000000000E+00 0.  1.
<scales pt_clust_3="201.35005" pt_clust_4="30.00056" pt_clust_5="106.58462" pt_clust_6="14000.00000"></scales>
<clustering>
<clus scale="   30.001">  4  5 -1 -1</clus>
<clus scale="  106.585">  2  4  1 -1</clus>
<clus scale="  201.350">  2  3  1 -1</clus>
<clus scale="  106.585">  2  3  1 -1</clus>
</clustering>
</event>
<event>
 6    0  0.1230761E+002  0.8498064E+02  0.7546771E-02  0.1315483E+00
          2   -1    0    0  503    0 -0.00000000000E+00  0.00000000000E+00  0.33013678273E+04  0.33013678273E+04  0.00000000000E+00 0.  1.
         21   -1    0    0  504  502  0.00000000000E+00 -0.00000000000E+00 -0.39460807386E+02  0.39460807386E+02  0.00000000000E+00 0. -1.
         21    1    1    2  503  502 -0.96311998033E+02 -0.37432126676E+02  0.72398450213E+02  0.12616933330E+03  0.00000000000E+00 0. -1.
         21    1    1    2  504  505  0.11144484592E+02  0.76416821000E+02  0.11842411499E+03  0.14137892729E+03  0.00000000000E+00 0.  1.
         21    1    1    2  505  501  0.56984302011E+02 -0.51021233228E+01  0.93952328578E+03  0.94126364365E+03  0.00000000000E+00 0.  1.
          2    1    1    2  501    0  0.28183211430E+02 -0.33882571002E+02  0.21315611689E+04  0.21320167304E+04  0.00000000000E+00 0.  1.
<scales pt_clust_3="14000.00000" pt_clust_4="74.04263" pt_clust_5="84.98064" pt_clust_6="44.07178"></scales>
<clustering>
<clus scale="   44.072">  1  6  2 -1</clus>
<clus scale="   74.043">  2  4  1 -1</clus>
<clus scale="   84.981">  1  5  2 -1</clus>
<clus scale="   74.043">  2  3  1 -1</clus>
</clustering>
</event>
<event>
 6    0  0.1230761E+002  0.4054035E+03  0.7546771E-02  0.1041925E+00
         21   -1    0    0  501  502  0.00000000000E+00  0.00000000000E+00  0.40744449368E+03  0.40744449368E+03  0.00000000000E+00 0. -1.
          3   -1    0    0  504    0 -0.00000000000E+00 -0.00000000000E+00 -0.17578296430E+04  0.17578296430E+04  0.00000000000E+00 0.  1.
         21    1    1    2  503  505 -0.38071787053E+03 -0.42351184337E+02  0.19292434231E+03  0.42890502633E+03  0.00000000000E+00 0. -1.
         21    1    1    2  504  503  0.22640566020E+03  0.16133498391E+03 -0.71882900300E+03  0.77071631328E+03  0.00000000000E+00 0.  1.
         21    1    1    2  505  502 -0.40837272758E+02  0.19851539760E+02  0.44917893155E+02  0.63870052471E+02  0.00000000000E+00 0.  1.
          3    1    1    2  501    0  0.19514948309E+03 -0.13883533934E+03 -0.86939838183E+03  0.90178274464E+03  0.00000000000E+00 0.  1.
<scales pt_clust_3="30.87750" pt_clust_4="395.35885" pt_clust_5="30.87750" pt_clust_6="239.49650"></scales>
<clustering>
<clus scale="   30.878">  3  5 -1 -1</clus>
<clus scale="  239.496">  2  6  1 -1</clus>
<clus scale="  395.359">  2  4  1 -1</clus>
<clus scale="  405.403">  1  3  2 -1</clus>
</clustering>
</event>
<event>
 6    0  0.1230761E+002  0.1385002E+03  0.7546771E-02  0.1215361E+00
         -1   -1    0    0    0  501 -0.00000000000E+00  0.00000000000E+00  0.33966744916E+03  0.33966744916E+03  0.00000000000E+00 0.  1.
         21   -1    0    0  505  502  0.00000000000E+00 -0.00000000000E+00 -0.36075810513E+03  0.36075810513E+03  0.00000000000E+00 0. -1.
         21    1    1    2  503  501  0.70106530091E+01 -0.14289425567E+03  0.37529573705E+02  0.14790668160E+03  0.00000000000E+00 0.  1.
         21    1    1    2  504  502 -0.13559589813E+02  0.26848889787E+02 -0.54804585879E+02  0.62516141852E+02  0.00000000000E+00 0.  1.
         21    1    1    2  505  503 -0.54460931849E+02 -0.11654960755E+02 -0.22258467576E+03  0.22944665848E+03  0.00000000000E+00 0. -1.
         -1    1    1    2    0  504  0.61009868653E+02  0.12770032664E+03  0.21876903196E+03  0.26055607235E+03  0.00000000000E+00 0.  1.
<scales pt_clust_3="14000.00000" pt_clust_4="30.07865" pt_clust_5="65.15354" pt_clust_6="138.50016"></scales>
<clustering>
<clus scale="   30.079">  2  4  1 -1</clus>
<clus scale="   65.154">  2  5  1 -1</clus>
<clus scale="  138.500">  1  6  2 -1</clus>
<clus scale="   30.079">  2  3  1 -1</clus>
</clustering>
</event>
<event>
 6    0  0.1230761E+002  0.9753952E+02  0.7546771E-02  0.1285557E+00
          2   -1    0    0  505    0 -0.00000000000E+00  0.00000000000E+00  0.34551772755E+04  0.34551772755E+04  0.00000000000E+00 0. -1.
         21   -1    0    0  504  502  0.00000000000E+00 -0.00000000000E+00 -0.12053341192E+03  0.12053341192E+03  0.00000000000E+00 0.  1.
         21    1    1    2  503  502  0.48617928690E+02 -0.11305975311E+03 -0.72600706871E+02  0.14288832493E+03  0.00000000000E+00 0.  1.
         21    1    1    2  504  501  0.25164643314E+01  0.31403686831E+02  0.15392931262E+02  0.35063748689E+02  0.00000000000E+00 0.  1.
         21    1    1    2  505  503  0.18230031458E+02 -0.30029054807E+02  0.19072262208E+03  0.19393090717E+03  0.00000000000E+00 0. -1.
          2    1    1    2  501    0 -0.69364424479E+02  0.11168512108E+03  0.32011290171E+04  0.32038277067E+04  0.00000000000E+00 0. -1.
<scales pt_clust_3="14000.00000" pt_clust_4="31.50435" pt_clust_5="34.76040" pt_clust_6="97.53952"></scales>
<clustering>
<clus scale="   31.504">  2  4  1 -1</clus>
<clus scale="   34.760">  1  5  2 -1</clus>
<clus scale="   97.540">  1  6  2 -1</clus>
<clus scale="   31.504">  2  3  1 -1</clus>
</clustering>
</event>
<event>
 6    0  0.1230761E+002  0.1335072E+03  0.7546771E-02  0.1222343E+00
         21   -1    0    0  501  502  0.00000000000E+00  0.00000000000E+00  0.81370795888E+03  0.81370795888E+03  0.00000000000E+00 0.  1.
         -2   -1    0    0    0  501 -0.00000000000E+00 -0.00000000000E+00 -0.18290911240E+03  0.18290911240E+03  0.00000000000E+00 0. -1.
         21    1    1    2  503  504  0.20920193675E+02  0.39501546926E+02  0.20491482214E+03  0.20973342853E+03  0.00000000000E+00 0.  1.
         21    1    1    2  504  502  0.89120952922E+02  0.24504388901E+02  0.57091648875E+03  0.57834993425E+03  0.00000000000E+00 0.  1.
         21    1    1    2  505  503 -0.72719962910E+02 -0.30227727957E+01 -0.44977231527E+02  0.85558643729E+02  0.00000000000E+00 0.  1.
         -2    1    1    2    0  505 -0.37321183688E+02 -0.60983163032E+02 -0.10005523289E+03  0.12297506476E+03  0.00000000000E+00 0. -1.
<scales pt_clust_3="37.80525" pt_clust_4="37.80525" pt_clust_5="121.93774" pt_clust_6="71.49697"></scales>
<clustering>
<clus scale="   37.805">  3  4 -1 -1</clus>
<clus scale="   71.497">  2  6  1 -1</clus>
<clus scale="  121.938">  2  5  1 -1</clus>
<clus scale="  133.507">  1  3  2 -1</clus>
</clustering>
</event>
<event>
 6    0  0.1230761E+002  0.1797227E+03  0.7546771E-02  0.1168072E+00
         21   -1    0    0  501  502  0.00000000000E+00  0.00000000000E+00  0.79936015546E+03  0.79936015546E+03  0.00000000000E+00 0. -1.
          1   -1    0    0  503    0 -0.00000000000E+00 -0.00000000000E+00 -0.27408878366E+03  0.27408878366E+03  0.00000000000E+00 0. -1.
         21    1    1    2  503  504  0.78951786917E+01  0.38220809529E+02 -0.16414662526E+02  0.42339169494E+02  0.00000000000E+00 0. -1.
         21    1    1    2  504  505 -0.84181331092E+02  0.33932476973E+02  0.31582213722E+03  0.32860543491E+03  0.00000000000E+00 0.  1.
         21    1    1    2  505  502 -0.86424243255E+02 -0.74439826492E+00  0.42611038013E+03  0.43478702833E+03  0.00000000000E+00 0. -1.
          1    1    1    2  501    0  0.16271039566E+03 -0.71408888237E+02 -0.20024648303E+03  0.26771730638E+03  0.00000000000E+00 0. -1.
<scales pt_clust_3="39.02774" pt_clust_4="44.59736" pt_clust_5="44.59736" pt_clust_6="173.79228"></scales>
<clustering>
<clus scale="   39.028">  2  3  1 -1</clus>
<clus scale="   44.597">  4  5 -1 -1</clus>
<clus scale="  173.792">  2  6  1 -1</clus>
<clus scale="  179.723">  1  3  2 -1</clus>
</clustering>
</event>
<event>
 6    0  0.1230761E+002  0.1069176E+03  0.7546771E-02  0.1266387E+00
         21   -1    0    0  503  502  0.00000000000E+00  0.00000000000E+00  0.39550120606E+03  0.39550120606E+03  0.00000000000E+00 0.  1.
          1   -1    0    0  504    0 -0.00000000000E+00 -0.00000000000E+00 -0.11331415922E+03  0.11331415922E+03  0.00000000000E+00 0.  1.
         21    1    1    2  503  501 -0.40769864487E+02  0.32475800992E+02  0.73732565629E+02  0.90295906522E+02  0.00000000000E+00 0.  1.
         21    1    1    2  504  505  0.42532279208E+02 -0.34277241439E+02 -0.29699933823E+02  0.62177247643E+02  0.00000000000E+00 0.  1.
         21    1    1    2  505  502 -0.48429311736E+02 -0.98000144584E+02  0.21865389030E+03  0.24445643849E+03  0.00000000000E+00 0.  1.
          1    1    1    2  501    0  0.46666897015E+02  0.99801585032E+02  0.19500524735E+02  0.11188577263E+03  0.00000000000E+00 0.  1.
<scales pt_clust_3="52.12350" pt_clust_4="51.92535" pt_clust_5="106.91758" pt_clust_6="14000.00000"></scales>
<clustering>
<clus scale="   52.124">  1  3  2 -1</clus>
<clus scale="   51.925">  2  4  1 -1</clus>
<clus scale="  106.918">  1  5  2 -1</clus>
<clus scale="   52.124">  1  3  2 -1</clus>
</clustering>
</event>
<event>
 6    0  0.1230761E+002  0.1487168E+03  0.7546771E-02  0.1202059E+00
         21   -1    0    0  505  502  0.00000000000E+00  0.00000000000E+00  0.97292539664E+03  0.97292539664E+03  0.00000000000E+00 0.  1.
          1   -1    0    0  504    0 -0.00000000000E+00 -0.00000000000E+00 -0.19623008233E+03  0.19623008233E+03  0.00000000000E+00 0.  1.
         21    1    1    2  503  502  0.13324535400E+03 -0.82526073288E+02  0.81182091598E+03  0.82681199602E+03  0.00000000000E+00 0.  1.
         21    1    1    2  504  503  0.24739180077E+02 -0.44973165508E+02 -0.51417561158E+02  0.72652448287E+02  0.00000000000E+00 0.  1.
         21    1    1    2  505  501  0.63420831237E+01  0.45525264099E+02  0.65086563918E+02  0.79680816337E+02  0.00000000000E+00 0. -1.
          1    1    1    2  501    0 -0.16432661720E+03  0.81973974697E+02 -0.48794604430E+02  0.19001021833E+03  0.00000000000E+00 0.  1.
<scales pt_clust_3="148.71681" pt_clust_4="50.89526" pt_clust_5="45.96490" pt_clust_6="14000.00000"></scales>
<clustering>
<clus scale="   45.965">  1  5  2 -1</clus>
<clus scale="   50.895">  2  4  1 -1</clus>
<clus scale="  148.717">  1  3  2 -1</clus>
<clus scale="   45.965">  1  3  2 -1</clus>
</clustering>
</event>
<event>
 6    0  0.1230761E+002  0.1165207E+03  0.7546771E-02  0.1248950E+00
          2   -1    0    0  505    0 -0.00000000000E+00  0.00000000000E+00  0.55160998279E+03  0.55160998279E+03  0.00000000000E+00 0. -1.
         21   -1    0    0  501  502  0.00000000000E+00 -0.00000000000E+00 -0.69183352028E+02  0.69183352028E+02  0.00000000000E+00 0. -1.
         21    1    1    2  503  504 -0.44288991458E+02  0.29702046267E+02  0.22589424471E+02  0.57913801591E+02  0.00000000000E+00 0. -1.
         21    1    1    2  504  502 -0.52550048107E+02  0.30125909169E+01 -0.78746271204E+01  0.53222110183E+02  0.00000000000E+00 0. -1.
         21    1    1    2  505  503 -0.42480117625E+02  0.26526418939E+02  0.95499864437E+02  0.10783522339E+03  0.00000000000E+00 0. -1.
          2    1    1    2  501    0  0.13931915719E+03 -0.59241056123E+02  0.37221196898E+03  0.40182219966E+03  0.00000000000E+00 0. -1.
<scales pt_clust_3="40.80180" pt_clust_4="40.80180" pt_clust_5="50.08205" pt_clust_6="109.04338"></scales>
<clustering>
<clus scale="   40.802">  3  4 -1 -1</clus>
<clus scale="   50.082">  1  5  2 -1</clus>
<clus scale="  109.043">  1  6  2 -1</clus>
<clus scale="  116.521">  2  3  1 -1</clus>
</clustering>
</event>
<event>
 6    0  0.1230761E+002  0.1212009E+03  0.7546771E-02  0.1241129E+00
          1   -1    0    0  504    0 -0.00000000000E+00  0.00000000000E+00  0.21983657861E+04  0.21983657861E+04  0.00000000000E+00 0. -1.
         21   -1    0    0  503  502  0.00000000000E+00 -0.00000000000E+00 -0.86587184168E+02  0.86587184168E+02  0.00000000000E+00 0.  1.
         21    1    1    2  503  505  0.30099563260E+02  0.17154363203E+01 -0.46761757409E+02  0.55638012062E+02  0.00000000000E+00 0.  1.
         21    1    1    2  504  502  0.10387263393E+03  0.28434028381E+01  0.10508170759E+04  0.10559422977E+04  0.00000000000E+00 0. -1.
         21    1    1    2  505  501  0.26143045191E+02 -0.27974822110E+02 -0.13449486607E+02  0.40582486050E+02  0.00000000000E+00 0.  1.
          1    1    1    2  501    0 -0.16011524238E+03  0.23415982952E+02  0.11211727701E+04  0.11327901745E+04  0.00000000000E+00 0. -1.
<scales pt_clust_3="30.14841" pt_clust_4="121.20091" pt_clust_5="55.89294" pt_clust_6="14000.00000"></scales>
<clustering>
<clus scale="   30.148">  2  3  1 -1</clus>
<clus scale="   55.893">  2  5  1 -1</clus>
<clus scale="  121.201">  1  4  2 -1</clus>
<clus scale="   30.148">  2  3  1 -1</clus>
</clustering>
</event>
<event>
 6    0  0.1230761E+002  0.1768000E+03  0.7546771E-02  0.1170936E+00
          2   -1    0    0  504    0 -0.00000000000E+00  0.00000000000E+00  0.72554892687E+03  0.72554892687E+03  0.00000000000E+00 0. -1.
         21   -1    0    0  501  502  0.00000000000E+00 -0.00000000000E+00 -0.23512865420E+04  0.23512865420E+04  0.00000000000E+00 0. -1.
         21    1    1    2  503  505 -0.65276958526E+01 -0.49437999842E+02 -0.45573420497E+03  0.45845435130E+03  0.00000000000E+00 0. -1.
         21    1    1    2  504  503  0.98694904600E+02  0.11158725004E+03 -0.15892734405E+02  0.14981647964E+03  0.00000000000E+00 0. -1.
         21    1    1    2  505  502  0.62093185804E+02 -0.10665770098E+03 -0.17993869906E+04  0.18036144186E+04  0.00000000000E+00 0. -1.
          2    1    1    2  501    0 -0.15426039455E+03  0.44508450776E+02  0.64527631493E+03  0.66495021928E+03  0.00000000000E+00 0. -1.
<scales pt_clust_3="39.84968" pt_clust_4="148.97113" pt_clust_5="39.84968" pt_clust_6="165.31216"></scales>
<clustering>
<clus scale="   39.850">  3  5 -1 -1</clus>
<clus scale="  148.971">  1  4  2 -1</clus>
<clus scale="  165.312">  1  6  2 -1</clus>
<clus scale="  176.800">  2  3  1 -1</clus>
</clustering>
</event>
<event>
 6    0  0.1230761E+002  0.2508197E+03  0.7546771E-02  0.1112788E+00
         21   -1    0    0  505  502  0.00000000000E+00  0.00000000000E+00  0.56523556989E+03  0.56523556989E+03  0.00000000000E+00 0.  1.
          2   -1    0    0  503    0 -0.00000000000E+00 -0.00000000000E+00 -0.17962851735E+04  0.17962851735E+04  0.00000000000E+00 0.  1.
         21    1    1    2  503  502  0.36906268015E+02 -0.54586580488E+02 -0.33233598520E+03  0.33880521609E+03  0.00000000000E+00 0. -1.
         21    1    1    2  504  501  0.18669880984E+03  0.27001257144E+02  0.47131277938E+03  0.50766253505E+03  0.00000000000E+00 0.  1.
         21    1    1    2  505  504  0.45543413865E+02 -0.19575599149E+02  0.49151426200E+02  0.69808805505E+02  0.00000000000E+00 0. -1.
          2    1    1    2  501    0 -0.26914849172E+03  0.47160922494E+02 -0.14191778240E+04  0.14452441868E+04  0.00000000000E+00 0.  1.
<scales pt_clust_3="65.89209" pt_clust_4="47.53506" pt_clust_5="47.53506" pt_clust_6="233.04920"></scales>
<clustering>
<clus scale="   47.535">  4  5 -1 -1</clus>
<clus scale="   65.892">  2  3  1 -1</clus>
<clus scale="  233.049">  2  6  1 -1</clus>
<clus scale="  250.820">  1  3  2 -1</clus>
</clustering>
</event>
<event>
 6    0  0.1230761E+002  0.1144855E+03  0.7546771E-02  0.1252482E+00
          2   -1    0    0  504    0 -0.00000000000E+00  0.00000000000E+00  0.26821958180E+04  0.26821958180E+04  0.00000000000E+00 0.  1.
         21   -1    0    0  501  502  0.00000000000E+00 -0.00000000000E+00 -0.50726892093E+02  0.50726892093E+02  0.00000000000E+00 0. -1.
         21    1    1    2  503  505  0.15874045678E+01 -0.82800751093E+02  0.73239960759E+01  0.83139191440E+02  0.00000000000E+00 0. -1.
         21    1    1    2  504  503 -0.28880139355E+01  0.36578732912E+02  0.18611515387E+03  0.18969764054E+03  0.00000000000E+00 0. -1.
         21    1    1    2  505  502 -0.32666014403E+02 -0.31969976073E+02  0.40583035653E+02  0.61123895899E+02  0.00000000000E+00 0. -1.
          2    1    1    2  501    0  0.33966623771E+02  0.78191994254E+02  0.23974467403E+04  0.23989619822E+04  0.00000000000E+00 0.  1.
<scales pt_clust_3="14000.00000" pt_clust_4="36.69256" pt_clust_5="45.23130" pt_clust_6="114.48550"></scales>
<clustering>
<clus scale="   36.693">  1  4  2 -1</clus>
<clus scale="   45.231">  2  5  1 -1</clus>
<clus scale="  114.486">  1  6  2 -1</clus>
<clus scale="   45.231">  2  3  1 -1</clus>
</clustering>
</event>
<event>
 6    0  0.1230761E+002  0.1063551E+03  0.7546771E-02  0.1267472E+00
         -3   -1    0    0    0  501 -0.00000000000E+00  0.00000000000E+00  0.15937059951E+03  0.15937059951E+03  0.00000000000E+00 0. -1.
         21   -1    0    0  505  502  0.00000000000E+00 -0.00000000000E+00 -0.16176266202E+03  0.16176266202E+03  0.00000000000E+00 0. -1.
         21    1    1    2  503  501  0.24590653227E+02  0.22108621596E+02  0.21046078871E+02  0.39197306168E+02  0.00000000000E+00 0. -1.
         21    1    1    2  504  503 -0.33946222071E+02  0.80569928830E+02  0.37535106722E+02  0.95145907223E+02  0.00000000000E+00 0. -1.
         21    1    1    2  505  504 -0.42645407284E+01  0.35136944949E+02 -0.26107265255E+02  0.43981592821E+02  0.00000000000E+00 0. -1.
         -3    1    1    2    0  502  0.13620109573E+02 -0.13781549538E+03 -0.34865982853E+02  0.14280845532E+03  0.00000000000E+00 0. -1.
<scales pt_clust_3="33.06798" pt_clust_4="106.35510" pt_clust_5="36.75524" pt_clust_6="14000.00000"></scales>
<clustering>
<clus scale="   33.068">  1  3  2 -1</clus>
<clus scale="   36.755">  2  5  1 -1</clus>
<clus scale="  106.355">  1  4  2 -1</clus>
<clus scale="   36.755">  2  3  1 -1</clus>
</clustering>
</event>
<event>
 6    0  0.1230761E+002  0.1547532E+03  0.7546771E-02  0.1194751E+00
          2   -1    0    0  503    0 -0.00000000000E+00  0.00000000000E+00  0.32741830579E+04  0.32741830579E+04  0.00000000000E+00 0.  1.
         21   -1    0    0  501  502  0.00000000000E+00 -0.00000000000E+00 -0.99374880022E+02  0.99374880022E+02  0.00000000000E+00 0. -1.
         21    1    1    2  503  504  0.21657058830E+02 -0.80236504113E+02  0.25112338246E+04  0.25126086537E+04  0.00000000000E+00 0.  1.
         21    1    1    2  504  505 -0.13574567618E+03  0.26088326228E+02  0.83172212842E+02  0.16132298768E+03  0.00000000000E+00 0. -1.
         21    1    1    2  505  502 -0.17056820448E+02  0.59122145190E+02 -0.34724510222E+02  0.70655182300E+02  0.00000000000E+00 0. -1.
          2    1    1    2  501    0  0.13114543780E+03 -0.49739673052E+01  0.61512665064E+03  0.62897111423E+03  0.00000000000E+00 0.  1.
<scales pt_clust_3="82.20200" pt_clust_4="154.75318" pt_clust_5="61.53343" pt_clust_6="14000.00000"></scales>
<clustering>
<clus scale="   61.533">  2  5  1 -1</clus>
<clus scale="   82.202">  1  3  2 -1</clus>
<clus scale="  154.753">  2  4  1 -1</clus>
<clus scale="   61.533">  2  3  1 -1</clus>
</clustering>
</event>
<event>
 6    0  0.3323778E+002  0.1096491E+03  0.7546771E-02  0.1261221E+00
          2   -1    0    0  504    0 -0.00000000000E+00  0.00000000000E+00  0.20770177153E+04  0.20770177153E+04  0.00000000000E+00 0.  1.
         21   -1    0    0  503  502  0.00000000000E+00 -0.00000000000E+00 -0.58339445666E+03  0.58339445666E+03  0.00000000000E+00 0. -1.
         21    1    1    2  503  501 -0.20931510252E+02 -0.40657009816E+02  0.32192197498E+01  0.45841945251E+02  0.00000000000E+00 0. -1.
         21    1    1    2  504  505  0.40507387645E+02  0.10876712330E+02  0.10251371868E+03  0.11076196930E+03  0.00000000000E+00 0.  1.
         21    1    1    2  505  502 -0.77066404180E+02  0.90905796746E+02 -0.55067708407E+03  0.56342554561E+03  0.00000000000E+00 0. -1.
          2    1    1    2  501    0  0.57490526787E+02 -0.61125499260E+02  0.19385674042E+04  0.19403827118E+04  0.00000000000E+00 0.  1.
<scales pt_clust_3="45.37919" pt_clust_4="41.94224" pt_clust_5="109.64912" pt_clust_6="14000.00000"></scales>
<clustering>
<clus scale="   41.942">  1  4  2 -1</clus>
<clus scale="   45.379">  2  3  1 -1</clus>
<clus scale="  109.649">  2  5  1 -1</clus>
<clus scale="   45.379">  2  3  1 -1</clus>
</clustering>
</event>
<event>
 6    0  0.1230761E+002  0.8637841E+02  0.7546771E-02  0.1311867E+00
          2   -1    0    0  503    0 -0.00000000000E+00  0.00000000000E+00  0.97780951827E+03  0.97780951827E+03  0.00000000000E+00 0. -1.
         21   -1    0    0  501  502  0.00000000000E+00 -0.00000000000E+00 -0.25673762499E+03  0.25673762499E+03  0.00000000000E+00 0. -1.
         21    1    1    2  503  504  0.28849070680E+02  0.99444441503E+01  0.93710621415E+02  0.98553748861E+02  0.00000000000E+00 0. -1.
         21    1    1    2  504  505  0.62898245438E+02  0.15657971589E+01  0.61282338293E+02  0.87830324983E+02  0.00000000000E+00 0. -1.
         21    1    1    2  505  502  0.13502188854E+02  0.53237485719E+02 -0.23310208647E+03  0.23948511792E+03  0.00000000000E+00 0. -1.
          2    1    1    2  501    0 -0.10524950497E+03 -0.64747727028E+02  0.79918102003E+03  0.80867795150E+03  0.00000000000E+00 0. -1.
<scales pt_clust_3="30.51493" pt_clust_4="86.37841" pt_clust_5="54.98367" pt_clust_6="14000.00000"></scales>
<clustering>
<clus scale="   30.515">  1  3  2 -1</clus>
<clus scale="   54.984">  2  5  1 -1</clus>
<clus scale="   86.378">  2  4  1 -1</clus>
<clus scale="   54.984">  2  3  1 -1</clus>
</clustering>
</event>
<event>
 6    0  0.1230761E+002  0.1251072E+03  0.7546771E-02  0.1234902E+00
          2   -1    0    0  504    0 -0.00000000000E+00  0.00000000000E+00  0.14643647648E+04  0.14643647648E+04  0.00000000000E+00 0.  1.
         21   -1    0    0  505  502  0.00000000000E+00 -0.00000000000E+00 -0.57837982325E+02  0.57837982325E+02  0.00000000000E+00 0. -1.
         21    1    1    2  503  502 -0.26438497521E+02 -0.31324430063E+02  0.28124169857E+02  0.49710994761E+02  0.00000000000E+00 0. -1.
         21    1    1    2  504  503 -0.11632304129E+02 -0.37159384354E+02  0.82891160666E+02  0.91580974342E+02  0.00000000000E+00 0. -1.
         21    1    1    2  505  501 -0.78680350406E+01 -0.50261749899E+02 -0.23308405856E+02  0.55959192827E+02  0.00000000000E+00 0. -1.
          2    1    1    2  501    0  0.45938836691E+02  0.11874556432E+03  0.13188198579E+04  0.13249515852E+04  0.00000000000E+00 0.  1.
<scales pt_clust_3="37.74248" pt_clust_4="37.74248" pt_clust_5="50.87386" pt_clust_6="118.96311"></scales>
<clustering>
<clus scale="   37.742">  3  4 -1 -1</clus>
<clus scale="   50.874">  2  5  1 -1</clus>
<clus scale="  118.963">  1  6  2 -1</clus>
<clus scale="   50.874">  2  3  1 -1</clus>
</clustering>
</event>
<event>
 6    0  0.1230761E+002  0.1519325E+03  0.7546771E-02  0.1198118E+00
          2   -1    0    0  504    0 -0.00000000000E+00  0.00000000000E+00  0.18720789353E+04  0.18720789353E+04  0.00000000000E+00 0. -1.
         21   -1    0    0  501  502  0.00000000000E+00 -0.00000000000E+00 -0.25328479482E+02  0.25328479482E+02  0.00000000000E+00 0.  1.
         21    1    1    2  503  505  0.56881093970E+02 -0.61614293108E+02  0.22195353985E+03  0.23726599802E+03  0.00000000000E+00 0.  1.
         21    1    1    2  504  503 -0.49922049815E+02 -0.40935838148E+02  0.77048981117E+03  0.77318982341E+03  0.00000000000E+00 0. -1.
         21    1    1    2  505  502  0.68175967072E+02 -0.10947706496E+02  0.10696861996E+03  0.12731889263E+03  0.00000000000E+00 0.  1.
          2    1    1    2  501    0 -0.75135011227E+02  0.11349783775E+03  0.74733848481E+03  0.75963270069E+03  0.00000000000E+00 0. -1.
<scales pt_clust_3="56.14235" pt_clust_4="64.55969" pt_clust_5="56.14235" pt_clust_6="138.76466"></scales>
<clustering>
<clus scale="   56.142">  3  5 -1 -1</clus>
<clus scale="   64.560">  1  4  2 -1</clus>
<clus scale="  138.765">  1  6  2 -1</clus>
<clus scale="  151.932">  2  3  1 -1</clus>
</clustering>
</event>
<event>
 6    0  0.1230761E+002  0.9351422E+02  0.7546771E-02  0.1294558E+00
         21   -1    0    0  505  502  0.00000000000E+00  0.00000000000E+00  0.32212007166E+03  0.32212007166E+03  0.00000000000E+00 0. -1.
          1   -1    0    0  503    0 -0.00000000000E+00 -0.00000000000E+00 -0.28190180077E+04  0.28190180077E+04  0.00000000000E+00 0. -1.
         21    1    1    2  503  504 -0.86270234393E+02 -0.56787988689E+01 -0.38112261912E+03  0.39080590183E+03  0.00000000000E+00 0. -1.
         21    1    1    2  504  502  0.10855299114E+02 -0.81737523463E+02  0.26481718841E+03  0.27735717683E+03  0.00000000000E+00 0. -1.
         21    1    1    2  505  501 -0.36708189821E+02 -0.83967163630E+01  0.35875724366E+02  0.52010226345E+02  0.00000000000E+00 0. -1.
          1    1    1    2  501    0  0.11212312510E+03  0.95813038695E+02 -0.24164682297E+04  0.24209647744E+04  0.00000000000E+00 0. -1.
<scales pt_clust_3="87.10412" pt_clust_4="14000.00000" pt_clust_5="37.65629" pt_clust_6="93.51422"></scales>
<clustering>
<clus scale="   37.656">  1  5  2 -1</clus>
<clus scale="   87.104">  2  3  1 -1</clus>
<clus scale="   93.514">  2  6  1 -1</clus>
<clus scale="   37.656">  1  3  2 -1</clus>
</clustering>
</event>
<event>
 6    0  0.1230761E+002  0.7831756E+02  0.7546771E-02  0.1333895E+00
         21   -1    0    0  501  502  0.00000000000E+00  0.00000000000E+00  0.20763293403E+03  0.20763293403E+03  0.00000000000E+00 0. -1.
          2   -1    0    0  504    0 -0.00000000000E+00 -0.00000000000E+00 -0.10852957737E+04  0.10852957737E+04  0.00000000000E+00 0. -1.
         21    1    1    2  503  502  0.43763510466E+02  0.66897449096E+01  0.16615064012E+03  0.17194776169E+03  0.00000000000E+00 0. -1.
         21    1    1    2  504  505  0.93389060577E+01  0.40798878178E+02 -0.54371167600E+02  0.68614776056E+02  0.00000000000E+00 0.  1.
         21    1    1    2  505  503  0.22764423958E+02  0.47997783024E+02  0.22816842185E+01  0.53171536147E+02  0.00000000000E+00 0. -1.
          2    1    1    2  501    0 -0.75866840482E+02 -0.95486406112E+02 -0.99172399637E+03  0.99919463380E+03  0.00000000000E+00 0. -1.
<scales pt_clust_3="44.31559" pt_clust_4="41.85408" pt_clust_5="78.31756" pt_clust_6="14000.00000"></scales>
<clustering>
<clus scale="   41.854">  2  4  1 -1</clus>
<clus scale="   44.316">  1  3  2 -1</clus>
<clus scale="   78.318">  1  5  2 -1</clus>
<clus scale="   44.316">  1  3  2 -1</clus>
</clustering>
</event>
<event>
 6    0  0.1230761E+002  0.1118947E+03  0.7546771E-02  0.1257101E+00
         -1   -1    0    0    0  501 -0.00000000000E+00  0.00000000000E+00  0.38784655559E+02  0.38784655559E+02  0.00000000000E+00 0.  1.
         21   -1    0    0  503  502  0.00000000000E+00 -0.00000000000E+00 -0.20075133395E+04  0.20075133395E+04  0.00000000000E+00 0.  1.
         21    1    1    2  503  504 -0.76531653660E+01  0.62227700760E+02 -0.98979897555E+03  0.99178267260E+03  0.00000000000E+00 0.  1.
         21    1    1    2  504  501 -0.41757671393E+02 -0.24549094743E+02 -0.14813242375E+02  0.50653660505E+02  0.00000000000E+00 0.  1.
         21    1    1    2  505  502 -0.91469353667E+02 -0.33750870675E+01 -0.66701963256E+03  0.67327054302E+03  0.00000000000E+00 0.  1.
         -1    1    1    2    0  505  0.14088019043E+03 -0.34303518949E+02 -0.29709683346E+03  0.33059111893E+03  0.00000000000E+00 0.  1.
<scales pt_clust_3="61.81669" pt_clust_4="48.43925" pt_clust_5="111.89473" pt_clust_6="14000.00000"></scales>
<clustering>
<clus scale="   48.439">  1  4  2 -1</clus>
<clus scale="   61.817">  2  3  1 -1</clus>
<clus scale="  111.895">  2  5  1 -1</clus>
<clus scale="   61.817">  2  3  1 -1</clus>
</clustering>
</event>
<event>
 6    0  0.1230761E+002  0.1247157E+03  0.7546771E-02  0.1235514E+00
         -2   -1    0    0    0  501 -0.00000000000E+00  0.00000000000E+00  0.15774145084E+03  0.15774145084E+03  0.00000000000E+00 0.  1.
         21   -1    0    0  503  502  0.00000000000E+00 -0.00000000000E+00 -0.20357285255E+03  0.20357285255E+03  0.00000000000E+00 0. -1.
         21    1    1    2  503  501 -0.44567019021E+02  0.83082517245E+01  0.13288885909E+02  0.47242361497E+02  0.00000000000E+00 0. -1.
         21    1    1    2  504  505  0.16850184333E+02  0.82644611691E+02 -0.68837395137E+02  0.10886986508E+03  0.00000000000E+00 0. -1.
         21    1    1    2  505  502  0.33510824262E+02  0.19811326407E+02 -0.61936563386E+02  0.73154643604E+02  0.00000000000E+00 0. -1.
         -2    1    1    2    0  504 -0.57939895738E+01 -0.11076418982E+03  0.71653670909E+02  0.13204743321E+03  0.00000000000E+00 0.  1.
<scales pt_clust_3="45.33482" pt_clust_4="37.19606" pt_clust_5="37.19606" pt_clust_6="112.05522"></scales>
<clustering>
<clus scale="   37.196">  4  5 -1 -1</clus>
<clus scale="   45.335">  1  3  2 -1</clus>
<clus scale="  112.055">  1  6  2 -1</clus>
<clus scale="  124.716">  2  3  1 -1</clus>
</clustering>
</event>
<event>
 6    0  0.1230761E+002  0.9132625E+02  0.7546771E-02  0.1299671E+00
         21   -1    0    0  505  502  0.00000000000E+00  0.00000000000E+00  0.11003601518E+03  0.11003601518E+03  0.00000000000E+00 0. -1.
          2   -1    0    0  503    0 -0.00000000000E+00 -0.00000000000E+00 -0.29917571432E+04  0.29917571432E+04  0.00000000000E+00 0. -1.
         21    1    1    2  503  504  0.29095489997E+02  0.91116646881E+01 -0.24734951608E+03  0.24922149401E+03  0.00000000000E+00 0. -1.
         21    1    1    2  504  502 -0.11045295885E+03 -0.78559449732E+02 -0.13794278730E+02  0.13624142317E+03  0.00000000000E+00 0. -1.
         21    1    1    2  505  501  0.33591370242E+02  0.69331289784E+02  0.16527218323E+02  0.78793126879E+02  0.00000000000E+00 0.  1.
          2    1    1    2  501    0  0.47766098611E+02  0.11649525965E+00 -0.26371045516E+04  0.26375371144E+04  0.00000000000E+00 0. -1.
<scales pt_clust_3="30.48885" pt_clust_4="14000.00000" pt_clust_5="91.32625" pt_clust_6="76.25412"></scales>
<clustering>
<clus scale="   30.489">  2  3  1 -1</clus>
<clus scale="   76.254">  2  6  1 -1</clus>
<clus scale="   91.326">  1  5  2 -1</clus>
<clus scale="   91.326">  1  3  2 -1</clus>
</clustering>
</event>
<event>
 6    0  0.1230761E+002  0.1160448E+03  0.7546771E-02  0.1249768E+00
         21   -1    0    0  504  502  0.00000000000E+00  0.00000000000E+00  0.20266706297E+03  0.20266706297E+03  0.00000000000E+00 0. -1.
          1   -1    0    0  505    0 -0.00000000000E+00 -0.00000000000E+00 -0.89050096616E+03  0.89050096616E+03  0.00000000000E+00 0.  1.
         21    1    1    2  503  502 -0.32424260431E+02  0.12637469834E+02  0.16107827376E+02  0.38347104337E+02  0.00000000000E+00 0.  1.
         21    1    1    2  504  501  0.12816886338E+03  0.54569062651E+02  0.14159972637E+03  0.19863414270E+03  0.00000000000E+00 0. -1.
         21    1    1    2  505  503 -0.29802797420E+02 -0.20626424294E+02 -0.10148324200E+03  0.10776133129E+03  0.00000000000E+00 0.  1.
          1    1    1    2  501    0 -0.65941805525E+02 -0.46580108192E+02 -0.74405821493E+03  0.74842545080E+03  0.00000000000E+00 0.  1.
<scales pt_clust_3="34.79998" pt_clust_4="116.04479" pt_clust_5="36.59639" pt_clust_6="14000.00000"></scales>
<clustering>
<clus scale="   34.800">  1  3  2 -1</clus>
<clus scale="   36.596">  2  5  1 -1</clus>
<clus scale="  116.045">  1  4  2 -1</clus>
<clus scale="   34.800">  1  3  2 -1</clus>
</clustering>
</event>
<event>
 6    0  0.1230761E+002  0.1105796E+03  0.7546771E-02  0.1259500E+00
         21   -1    0    0  501  502  0.00000000000E+00  0.00000000000E+00  0.13706920589E+03  0.13706920589E+03  0.00000000000E+00 0. -1.
          2   -1    0    0  503    0 -0.00000000000E+00 -0.00000000000E+00 -0.22819983197E+03  0.22819983197E+03  0.00000000000E+00 0. -1.
         21    1    1    2  503  504  0.31035757145E+02 -0.10693690733E+02 -0.58757274628E+02  0.67305204589E+02  0.00000000000E+00 0. -1.
         21    1    1    2  504  505  0.25617158572E+02 -0.22048528650E+02  0.67107944300E+01  0.34458833277E+02  0.00000000000E+00 0.  1.
         21    1    1    2  505  502  0.65248802645E+02 -0.10583158266E+02  0.68538360447E+02  0.95220356743E+02  0.00000000000E+00 0. -1.
          2    1    1    2  501    0 -0.12190171836E+03  0.43325377648E+02 -0.10762250633E+03  0.16828464326E+03  0.00000000000E+00 0. -1.
<scales pt_clust_3="32.82641" pt_clust_4="30.61294" pt_clust_5="30.61294" pt_clust_6="101.95607"></scales>
<clustering>
<clus scale="   30.613">  4  5 -1 -1</clus>
<clus scale="   32.826">  2  3  1 -1</clus>
<clus scale="  101.956">  2  6  1 -1</clus>
<clus scale="  110.580">  1  3  2 -1</clus>
</clustering>
</event>
<event>
 6    0  0.1230761E+002  0.6532925E+02  0.7546771E-02  0.1376737E+00
          3   -1    0    0  504    0 -0.00000000000E+00  0.00000000000E+00  0.21048689187E+02  0.21048689187E+02  0.00000000000E+00 0.  1.
         21   -1    0    0  505  502  0.00000000000E+00 -0.00000000000E+00 -0.94465627530E+03  0.94465627530E+03  0.00000000000E+00 0.  1.
         21    1    1    2  503  502  0.42100107614E+02  0.45667834304E+02 -0.41963512183E+03  0.42420703156E+03  0.00000000000E+00 0.  1.
         21    1    1    2  504  503  0.49414579118E+02  0.13149197704E+01 -0.10803892414E+03  0.11881051625E+03  0.00000000000E+00 0.  1.
         21    1    1    2  505  501  0.29638578126E+01 -0.46062770553E+02 -0.19870290508E+03  0.20399364639E+03  0.00000000000E+00 0.  1.
          3    1    1    2  501    0 -0.94478544545E+02 -0.91998352183E+00 -0.19723063506E+03  0.21869377027E+03  0.00000000000E+00 0.  1.
<scales pt_clust_3="47.93735" pt_clust_4="65.32925" pt_clust_5="46.15803" pt_clust_6="14000.00000"></scales>
<clustering>
<clus scale="   46.158">  2  5  1 -1</clus>
<clus scale="   47.937">  2  3  1 -1</clus>
<clus scale="   65.329">  1  4  2 -1</clus>
<clus scale="   46.158">  2  3  1 -1</clus>
</clustering>
</event>
<event>
 6    0  0.1230761E+002  0.1485867E+03  0.7546771E-02  0.1202220E+00
          2   -1    0    0  504    0 -0.00000000000E+00  0.00000000000E+00  0.17982346334E+04  0.17982346334E+04  0.00000000000E+00 0. -1.
         21   -1    0    0  501  502  0.00000000000E+00 -0.00000000000E+00 -0.21511895830E+03  0.21511895830E+03  0.00000000000E+00 0. -1.
         21    1    1    2  503  505 -0.10271090702E+03 -0.13862189990E+02 -0.89413359746E+02  0.13688111496E+03  0.00000000000E+00 0. -1.
         21    1    1    2  504  503  0.31044079776E+02 -0.11338152982E+03  0.96192423998E+03  0.96908067242E+03  0.00000000000E+00 0.  1.
         21    1    1    2  505  502 -0.48445429724E+02  0.62372196489E+02 -0.75657015560E+02  0.10936742915E+03  0.00000000000E+00 0.  1.
          2    1    1    2  501    0  0.12011225697E+03  0.64871523320E+02  0.78626181042E+03  0.79802437516E+03  0.00000000000E+00 0. -1.
<scales pt_clust_3="14000.00000" pt_clust_4="115.42902" pt_clust_5="78.97627" pt_clust_6="148.58674"></scales>
<clustering>
<clus scale="   78.976">  2  5  1 -1</clus>
<clus scale="  115.429">  1  4  2 -1</clus>
<clus scale="  148.587">  1  6  2 -1</clus>
<clus scale="   78.976">  2  3  1 -1</clus>
</clustering>
</event>
<event>
 6    0  0.1230761E+002  0.8024427E+02  0.7546771E-02  0.1328360E+00
         21   -1    0    0  504  502  0.00000000000E+00  0.00000000000E+00  0.13829453535E+03  0.13829453535E+03  0.00000000000E+00 0.  1.
          2   -1    0    0  505    0 -0.00000000000E+00 -0.00000000000E+00 -0.22075510075E+04  0.22075510075E+04  0.00000000000E+00 0.  1.
         21    1    1    2  503  502 -0.89167713359E+02  0.21314385956E+02  0.55571871189E+02  0.10720735526E+03  0.00000000000E+00 0.  1.
         21    1    1    2  504  501  0.45635251076E+02  0.47580767286E+02  0.36375427687E+02  0.75297259550E+02  0.00000000000E+00 0.  1.
         21    1    1    2  505  503  0.31046954832E+02 -0.89150449210E+01 -0.10005862059E+04  0.10011074602E+04  0.00000000000E+00 0.  1.
          2    1    1    2  501    0  0.12485507450E+02 -0.59980108321E+02 -0.11606175651E+04  0.11622334678E+04  0.00000000000E+00 0.  1.
<scales pt_clust_3="80.24427" pt_clust_4="66.17246" pt_clust_5="32.30157" pt_clust_6="14000.00000"></scales>
<clustering>
<clus scale="   32.302">  2  5  1 -1</clus>
<clus scale="   66.172">  1  4  2 -1</clus>
<clus scale="   80.244">  1  3  2 -1</clus>
<clus scale="   66.172">  1  3  2 -1</clus>
</clustering>
</event>
<event>
 6    0  0.1230761E+002  0.8871328E+02  0.7546771E-02  0.1305998E+00
          2   -1    0    0  503    0 -0.00000000000E+00  0.00000000000E+00  0.11111013553E+04  0.11111013553E+04  0.00000000000E+00 0.  1.
         21   -1    0    0  505  502  0.00000000000E+00 -0.00000000000E+00 -0.74318822295E+02  0.74318822295E+02  0.00000000000E+00 0.  1.
         21    1    1    2  503  504  0.27392811128E+02  0.50713547571E+02 -0.29980763106E+02  0.64969809644E+02  0.00000000000E+00 0.  1.
         21    1    1    2  504  502 -0.23453277529E+02  0.33147484543E+02  0.18854827615E+02  0.44769593283E+02  0.00000000000E+00 0.  1.
         21    1    1    2  505  501 -0.78521449937E+02 -0.21364154621E+02  0.13520546451E+03  0.15780545883E+03  0.00000000000E+00 0. -1.
          2    1    1    2  501    0  0.74581916338E+02 -0.62496877492E+02  0.91270300402E+03  0.91787531587E+03  0.00000000000E+00 0.  1.
<scales pt_clust_3="76.91759" pt_clust_4="40.60557" pt_clust_5="88.71328" pt_clust_6="14000.00000"></scales>
<clustering>
<clus scale="   40.606">  2  4  1 -1</clus>
<clus scale="   76.918">  2  3  1 -1</clus>
<clus scale="   88.713">  2  5  1 -1</clus>
<clus scale="   40.606">  2  3  1 -1</clus>
</clustering>
</event>
<event>
 6    0  0.1230761E+002  0.1324113E+03  0.7546771E-02  0.1223921E+00
         21   -1    0    0  503  502  0.00000000000E+00  0.00000000000E+00  0.41671579686E+03  0.41671579686E+03  0.00000000000E+00 0.  1.
         -1   -1    0    0    0  501 -0.00000000000E+00 -0.00000000000E+00 -0.49270687671E+03  0.49270687671E+03  0.00000000000E+00 0. -1.
         21    1    1    2  503  504 -0.13105217673E+03  0.18319516731E+02  0.31231513366E+03  0.33919171634E+03  0.00000000000E+00 0.  1.
         21    1    1    2  504  501 -0.27772906514E+02 -0.16761828738E+02 -0.57165047359E+02  0.65727740554E+02  0.00000000000E+00 0. -1.
         21    1    1    2  505  502  0.12512065332E+03 -0.56178403206E+02  0.27737405648E+02  0.13993053472E+03  0.00000000000E+00 0.  1.
         -1    1    1    2    0  505  0.33704429917E+02  0.54620715213E+02 -0.35887857181E+03  0.36457268196E+03  0.00000000000E+00 0. -1.
<scales pt_clust_3="14000.00000" pt_clust_4="32.43907" pt_clust_5="132.41126" pt_clust_6="41.87593"></scales>
<clustering>
<clus scale="   32.439">  2  4  1 -1</clus>
<clus scale="   41.876">  2  6  1 -1</clus>
<clus scale="  132.411">  2  5  1 -1</clus>
<clus scale="  132.411">  1  3  2 -1</clus>
</clustering>
</event>
<event>
 6    0  0.1230761E+002  0.2914206E+03  0.7546771E-02  0.1089610E+00
          1   -1    0    0  505    0 -0.00000000000E+00  0.00000000000E+00  0.13144667672E+04  0.13144667672E+04  0.00000000000E+00 0.  1.
         21   -1    0    0  501  502  0.00000000000E+00 -0.00000000000E+00 -0.12923512761E+03  0.12923512761E+03  0.00000000000E+00 0. -1.
         21    1    1    2  503  502 -0.12099882386E+03  0.76792854009E+02  0.18158751555E+03  0.23132635735E+03  0.00000000000E+00 0. -1.
         21    1    1    2  504  503 -0.91108237086E+02  0.93184950685E+02  0.13677165597E+03  0.18891964370E+03  0.00000000000E+00 0. -1.
         21    1    1    2  505  504 -0.30472978349E+02  0.11377182544E+02  0.65030287571E+03  0.65111586745E+03  0.00000000000E+00 0. -1.
          1    1    1    2  501    0  0.24258003930E+03 -0.18135498724E+03  0.21656959241E+03  0.37234002635E+03  0.00000000000E+00 0.  1.
<scales pt_clust_3="35.10331" pt_clust_4="35.10331" pt_clust_5="32.52757" pt_clust_6="289.05659"></scales>
<clustering>
<clus scale="   32.528">  1  5  2 -1</clus>
<clus scale="   35.103">  3  4 -1 -1</clus>
<clus scale="  289.057">  2  6  1 -1</clus>
<clus scale="  289.057">  2  3  1 -1</clus>
</clustering>
</event>
<event>
 6    0  0.1230761E+002  0.1142554E+03  0.7546771E-02  0.1252886E+00
          2   -1    0    0  503    0 -0.00000000000E+00  0.00000000000E+00  0.29674745728E+02  0.29674745728E+02  0.00000000000E+00 0.  1.
         21   -1    0    0  505  502  0.00000000000E+00 -0.00000000000E+00 -0.27786134133E+04  0.27786134133E+04  0.00000000000E+00 0. -1.
         21    1    1    2  503  504  0.20707035927E+02  0.56693915312E+02 -0.52229343612E+03  0.52576935512E+03  0.00000000000E+00 0. -1.
         21    1    1    2  504  502  0.13497242184E+02 -0.30105815711E+02 -0.56872696427E+03  0.56968315366E+03  0.00000000000E+00 0. -1.
         21    1    1    2  505  501  0.57172937251E+02  0.47437673418E+02 -0.15543729810E+04  0.15561473071E+04  0.00000000000E+00 0. -1.
          2    1    1    2  501    0 -0.91377215362E+02 -0.74025773019E+02 -0.10354528620E+03  0.15668834307E+03  0.00000000000E+00 0.  1.
<scales pt_clust_3="55.01949" pt_clust_4="32.99296" pt_clust_5="114.25540" pt_clust_6="14000.00000"></scales>
<clustering>
<clus scale="   32.993">  2  4  1 -1</clus>
<clus scale="   55.019">  2  3  1 -1</clus>
<clus scale="  114.255">  2  5  1 -1</clus>
<clus scale="   32.993">  2  3  1 -1</clus>
</clustering>
</event>
<event>
 6    0  0.1230761E+002  0.9010172E+02  0.7546771E-02  0.1302606E+00
         21   -1    0    0  501  502  0.00000000000E+00  0.00000000000E+00  0.54065233849E+03  0.54065233849E+03  0.00000000000E+00 0.  1.
          2   -1    0    0  504    0 -0.00000000000E+00 -0.00000000000E+00 -0.20854362146E+03  0.20854362146E+03  0.00000000000E+00 0. -1.
         21    1    1    2  503  505  0.36098628028E+02  0.41895819684E+02  0.13994147527E+03  0.15047254618E+03  0.00000000000E+00 0.  1.
         21    1    1    2  504  503 -0.44554617410E+02  0.35494356805E+02  0.11535673026E+02  0.58120865872E+02  0.00000000000E+00 0.  1.
         21    1    1    2  505  502 -0.38183393102E+02  0.19661659670E+02  0.34305287949E+03  0.34573086425E+03  0.00000000000E+00 0.  1.
          2    1    1    2  501    0  0.46639382484E+02 -0.97051836159E+02 -0.16242131075E+03  0.19487168365E+03  0.00000000000E+00 0. -1.
<scales pt_clust_3="56.98585" pt_clust_4="14000.00000" pt_clust_5="42.94825" pt_clust_6="90.10172"></scales>
<clustering>
<clus scale="   42.948">  1  5  2 -1</clus>
<clus scale="   56.986">  1  3  2 -1</clus>
<clus scale="   90.102">  2  6  1 -1</clus>
<clus scale="   42.948">  1  3  2 -1</clus>
</clustering>
</event>
<event>
 6    0  0.1230761E+002  0.3065961E+03  0.7546771E-02  0.1081989E+00
         21   -1    0    0  503  502  0.00000000000E+00  0.00000000000E+00  0.55414372910E+03  0.55414372910E+03  0.00000000000E+00 0.  1.
          2   -1    0    0  505    0 -0.00000000000E+00 -0.00000000000E+00 -0.18678894237E+04  0.18678894237E+04  0.00000000000E+00 0.  1.
         21    1    1    2  503  501 -0.21709331280E+03 -0.14342511282E+03  0.45567295597E+03  0.52472670244E+03  0.00000000000E+00 0.  1.
         21    1    1    2  504  502 -0.42654097431E+02 -0.20366581005E+02  0.10970930751E+02  0.48523509467E+02  0.00000000000E+00 0.  1.
         21    1    1    2  505  504 -0.91267836810E+02  0.23635169248E+02 -0.16760195053E+03  0.19229886396E+03  0.00000000000E+00 0.  1.
          2    1    1    2  501    0  0.35101524705E+03  0.14015652457E+03 -0.16127876308E+04  0.16564840769E+04  0.00000000000E+00 0.  1.
<scales pt_clust_3="14000.00000" pt_clust_4="47.26700" pt_clust_5="95.13332" pt_clust_6="306.59609"></scales>
<clustering>
<clus scale="   47.267">  1  4  2 -1</clus>
<clus scale="   95.133">  2  5  1 -1</clus>
<clus scale="  306.596">  2  6  1 -1</clus>
<clus scale="   47.267">  1  3  2 -1</clus>
</clustering>
</event>
<event>
 6    0  0.1230761E+002  0.9050546E+02  0.7546771E-02  0.1301632E+00
         21   -1    0    0  503  502  0.00000000000E+00  0.00000000000E+00  0.54567506033E+03  0.54567506033E+03  0.00000000000E+00 0.  1.
         -3   -1    0    0    0  501 -0.00000000000E+00 -0.00000000000E+00 -0.38109910757E+03  0.38109910757E+03  0.00000000000E+00 0. -1.
         21    1    1    2  503  501 -0.43644616758E+02  0.10676859886E+03  0.39918409867E+03  0.41551453754E+03  0.00000000000E+00 0.  1.
         21    1    1    2  504  502  0.42219964457E+02 -0.65489068176E+01  0.98050854188E+02  0.10695505405E+03  0.00000000000E+00 0.  1.
         21    1    1    2  505  504 -0.42403859708E+02 -0.21426567522E+02  0.11207714801E+02  0.48813911798E+02  0.00000000000E+00 0. -1.
         -3    1    1    2    0  505  0.43828512010E+02 -0.78793124522E+02 -0.34386671491E+03  0.35549066451E+03  0.00000000000E+00 0. -1.
<scales pt_clust_3="14000.00000" pt_clust_4="42.72486" pt_clust_5="45.18949" pt_clust_6="90.50546"></scales>
<clustering>
<clus scale="   42.725">  1  4  2 -1</clus>
<clus scale="   45.189">  1  5  2 -1</clus>
<clus scale="   90.505">  2  6  1 -1</clus>
<clus scale="   42.725">  1  3  2 -1</clus>
</clustering>
</event>
<event>
 6    0  0.1230761E+002  0.1243287E+03  0.7546771E-02  0.1236122E+00
         21   -1    0    0  505  502  0.00000000000E+00  0.00000000000E+00  0.19435958996E+03  0.19435958996E+03  0.00000000000E+00 0.  1.
          2   -1    0    0  504    0 -0.00000000000E+00 -0.00000000000E+00 -0.19754444031E+04  0.19754444031E+04  0.00000000000E+00 0.  1.
         21    1    1    2  503  502  0.29385025534E+01  0.72692889749E+02  0.14106100368E+03  0.15871703682E+03  0.00000000000E+00 0.  1.
         21    1    1    2  504  503 -0.59198033563E+02  0.53881045962E+02 -0.90248775866E+01  0.80554470435E+02  0.00000000000E+00 0.  1.
         21    1    1    2  505  501  0.64802713461E+01 -0.14035679816E+03 -0.59365604269E+03  0.61005698236E+03  0.00000000000E+00 0.  1.
          2    1    1    2  501    0  0.49779259663E+02  0.13782862448E+02 -0.13194648966E+04  0.13204755035E+04  0.00000000000E+00 0.  1.
<scales pt_clust_3="72.96782" pt_clust_4="14000.00000" pt_clust_5="124.32872" pt_clust_6="51.65212"></scales>
<clustering>
<clus scale="   51.652">  2  6  1 -1</clus>
<clus scale="   72.968">  1  3  2 -1</clus>
<clus scale="  124.329">  2  5  1 -1</clus>
<clus scale="   72.968">  1  3  2 -1</clus>
</clustering>
</event>
<event>
 6    0  0.1230761E+002  0.1532595E+03  0.7546771E-02  0.1196524E+00
          2   -1    0    0  503    0 -0.00000000000E+00  0.00000000000E+00  0.14301995004E+04  0.14301995004E+04  0.00000000000E+00 0. -1.
         21   -1    0    0  501  502  0.00000000000E+00 -0.00000000000E+00 -0.17096528430E+03  0.17096528430E+03  0.00000000000E+00 0. -1.
         21    1    1    2  503  504  0.27293124856E+02 -0.26530652903E+02  0.65689211815E+02  0.75920107723E+02  0.00000000000E+00 0. -1.
         21    1    1    2  504  505  0.41392223385E+01 -0.83696310330E+02 -0.74284019816E+02  0.11198357524E+03  0.00000000000E+00 0. -1.
         21    1    1    2  505  502 -0.38516474142E+02 -0.56862947857E+02 -0.49943170687E+02  0.84918984436E+02  0.00000000000E+00 0. -1.
          2    1    1    2  501    0  0.70841269483E+01  0.16708991109E+03  0.13177721948E+04  0.13283421173E+04  0.00000000000E+00 0. -1.
<scales pt_clust_3="38.06298" pt_clust_4="44.27253" pt_clust_5="44.27253" pt_clust_6="145.22031"></scales>
<clustering>
<clus scale="   38.063">  1  3  2 -1</clus>
<clus scale="   44.273">  4  5 -1 -1</clus>
<clus scale="  145.220">  1  6  2 -1</clus>
<clus scale="  153.259">  2  3  1 -1</clus>
</clustering>
</event>
<event>
 6    0  0.1230761E+002  0.1299235E+03  0.7546771E-02  0.1227569E+00
          2   -1    0    0  503    0 -0.00000000000E+00  0.00000000000E+00  0.31187066015E+04  0.31187066015E+04  0.00000000000E+00 0. -1.
         21   -1    0    0  505  502  0.00000000000E+00 -0.00000000000E+00 -0.25879469523E+03  0.25879469523E+03  0.00000000000E+00 0. -1.
         21    1    1    2  503  504  0.37970274058E+02  0.48375484155E+02  0.89261258446E+02  0.10839511723E+03  0.00000000000E+00 0. -1.
         21    1    1    2  504  502 -0.11989971782E+03 -0.62208909388E+02 -0.22681065729E+03  0.26398667581E+03  0.00000000000E+00 0. -1.
         21    1    1    2  505  501  0.60941102261E+02 -0.30427821028E+02  0.31812740833E+03  0.32533785234E+03  0.00000000000E+00 0.  1.
          2    1    1    2  501    0  0.20988341505E+02  0.44261246261E+02  0.26793338968E+04  0.26797816513E+04  0.00000000000E+00 0. -1.
<scales pt_clust_3="72.29012" pt_clust_4="14000.00000" pt_clust_5="129.92353" pt_clust_6="48.98539"></scales>
<clustering>
<clus scale="   48.985">  1  6  2 -1</clus>
<clus scale="   72.290">  1  3  2 -1</clus>
<clus scale="  129.924">  1  5  2 -1</clus>
<clus scale="  129.924">  2  3  1 -1</clus>
</clustering>
</event>
<event>
 6    0  0.1230761E+002  0.2625551E+03  0.7546771E-02  0.1105618E+00
         21   -1    0    0  505  502  0.00000000000E+00  0.00000000000E+00  0.21594259875E+04  0.21594259875E+04  0.00000000000E+00 0.  1.
         -1   -1    0    0    0  501 -0.00000000000E+00 -0.00000000000E+00 -0.10896254429E+03  0.10896254429E+03  0.00000000000E+00 0. -1.
         21    1    1    2  503  504 -0.20192654287E+03  0.10037607839E+03  0.16490490683E+04  0.16643955405E+04  0.00000000000E+00 0.  1.
         21    1    1    2  504  502 -0.10594185573E+02  0.36317081348E+02  0.31471893512E+03  0.31698450324E+03  0.00000000000E+00 0. -1.
         21    1    1    2  505  501  0.25452737407E+02  0.17452121668E+02  0.53035721619E+01  0.31313675446E+02  0.00000000000E+00 0.  1.
         -1    1    1    2    0  503  0.18706799104E+03 -0.15414528141E+03  0.81391867664E+02  0.25569481257E+03  0.00000000000E+00 0. -1.
<scales pt_clust_3="30.73851" pt_clust_4="30.73851" pt_clust_5="30.86128" pt_clust_6="251.60115"></scales>
<clustering>
<clus scale="   30.739">  3  4 -1 -1</clus>
<clus scale="   30.861">  2  5  1 -1</clus>
<clus scale="  251.601">  2  6  1 -1</clus>
<clus scale="  262.555">  1  3  2 -1</clus>
</clustering>
</event>
<event>
 6    0  0.1230761E+002  0.1717351E+03  0.7546771E-02  0.1176050E+00
         21   -1    0    0  505  502  0.00000000000E+00  0.00000000000E+00  0.73567420204E+03  0.73567420204E+03  0.00000000000E+00 0.  1.
         -2   -1    0    0    0  501 -0.00000000000E+00 -0.00000000000E+00 -0.72078889761E+03  0.72078889761E+03  0.00000000000E+00 0. -1.
         21    1    1    2  503  501  0.12898703023E+02 -0.76355639170E+02  0.63373537602E+02  0.10006380685E+03  0.00000000000E+00 0.  1.
         21    1    1    2  504  502  0.22006944671E+02 -0.51707669501E+02  0.51880044043E+03  0.52183511350E+03  0.00000000000E+00 0.  1.
         21    1    1    2  505  503  0.20839043501E+01 -0.42134352821E+02  0.11913755287E+03  0.12638592821E+03  0.00000000000E+00 0.  1.
         -2    1    1    2    0  504 -0.36989552044E+02  0.17019766149E+03 -0.68642622647E+03  0.70817825109E+03  0.00000000000E+00 0. -1.
<scales pt_clust_3="83.02560" pt_clust_4="14000.00000" pt_clust_5="42.18585" pt_clust_6="171.73510"></scales>
<clustering>
<clus scale="   42.186">  1  5  2 -1</clus>
<clus scale="   83.026">  1  3  2 -1</clus>
<clus scale="  171.735">  2  6  1 -1</clus>
<clus scale="   42.186">  1  3  2 -1</clus>
</clustering>
</event>
<event>
 6    0  0.1230761E+002  0.2370811E+03  0.7546771E-02  0.1121753E+00
          1   -1    0    0  503    0 -0.00000000000E+00  0.00000000000E+00  0.10147638458E+04  0.10147638458E+04  0.00000000000E+00 0. -1.
         21   -1    0    0  505  502  0.00000000000E+00 -0.00000000000E+00 -0.18193717045E+03  0.18193717045E+03  0.00000000000E+00 0.  1.
         21    1    1    2  503  504  0.73358670555E+02  0.65110789455E+02  0.23164492110E+03  0.25155571733E+03  0.00000000000E+00 0.  1.
         21    1    1    2  504  502  0.62444681621E+02 -0.16288133206E+02  0.45838626540E+02  0.79156940500E+02  0.00000000000E+00 0. -1.
         21    1    1    2  505  501 -0.70608288373E+02 -0.23761866200E+03 -0.27937977833E+02  0.24945678889E+03  0.00000000000E+00 0.  1.
          1    1    1    2  501    0 -0.65195063804E+02  0.18879600576E+03  0.58328110549E+03  0.61653156947E+03  0.00000000000E+00 0. -1.
<scales pt_clust_3="100.30009" pt_clust_4="64.53403" pt_clust_5="14000.00000" pt_clust_6="237.08112"></scales>
<clustering>
<clus scale="   64.534">  2  4  1 -1</clus>
<clus scale="  100.300">  1  3  2 -1</clus>
<clus scale="  237.081">  1  6  2 -1</clus>
<clus scale="   64.534">  2  3  1 -1</clus>
</clustering>
</event>
<event>
 6    0  0.1230761E+002  0.8723575E+02  0.7546771E-02  0.1309687E+00
         21   -1    0    0  504  502  0.00000000000E+00  0.00000000000E+00  0.13503502673E+03  0.13503502673E+03  0.00000000000E+00 0. -1.
         -1   -1    0    0    0  501 -0.00000000000E+00 -0.00000000000E+00 -0.11610340328E+04  0.11610340328E+04  0.00000000000E+00 0. -1.
         21    1    1    2  503  502 -0.87893010997E+01 -0.38767223618E+02  0.70416351581E+02  0.80861684442E+02  0.00000000000E+00 0. -1.
         21    1    1    2  504  501 -0.71820466130E+02  0.64593558812E+02  0.68978323738E+01  0.96840525022E+02  0.00000000000E+00 0. -1.
         21    1    1    2  505  503  0.21236052265E+02  0.37650312919E+02 -0.76391150286E+02  0.87773138378E+02  0.00000000000E+00 0. -1.
         -1    1    1    2    0  505  0.59373714965E+02 -0.63476648113E+02 -0.10269220397E+04  0.10305937117E+04  0.00000000000E+00 0. -1.
<scales pt_clust_3="39.75109" pt_clust_4="14000.00000" pt_clust_5="39.59234" pt_clust_6="87.23575"></scales>
<clustering>
<clus scale="   39.751">  1  3  2 -1</clus>
<clus scale="   39.592">  1  5  2 -1</clus>
<clus scale="   87.236">  2  6  1 -1</clus>
<clus scale="   39.751">  1  3  2 -1</clus>
</clustering>
</event>
<event>
 6    0  0.1230761E+002  0.1067546E+03  0.7546771E-02  0.1266701E+00
         21   -1    0    0  504  502  0.00000000000E+00  0.00000000000E+00  0.63730241020E+02  0.63730241020E+02  0.00000000000E+00 0. -1.
         -1   -1    0    0    0  501 -0.00000000000E+00 -0.00000000000E+00 -0.10588253721E+04  0.10588253721E+04  0.00000000000E+00 0. -1.
         21    1    1    2  503  501  0.99909788024E+02  0.11427996221E+03 -0.55408782507E+03  0.57450430233E+03  0.00000000000E+00 0. -1.
         21    1    1    2  504  503 -0.52382785420E+02  0.10716833576E+01  0.17160288498E+02  0.55132388076E+02  0.00000000000E+00 0. -1.
         21    1    1    2  505  502 -0.38102089416E+02 -0.23121342264E+02 -0.27466084357E+02  0.52352186925E+02  0.00000000000E+00 0. -1.
         -1    1    1    2    0  505 -0.94249131870E+01 -0.92230303302E+02 -0.43070151012E+03  0.44056673576E+03  0.00000000000E+00 0. -1.
<scales pt_clust_3="106.75458" pt_clust_4="80.68573" pt_clust_5="44.56866" pt_clust_6="14000.00000"></scales>
<clustering>
<clus scale="   44.569">  1  5  2 -1</clus>
<clus scale="   80.686">  1  4  2 -1</clus>
<clus scale="  106.755">  1  3  2 -1</clus>
<clus scale="   44.569">  1  3  2 -1</clus>
</clustering>
</event>
<event>
 6    0  0.1230761E+002  0.1000823E+03  0.7546771E-02  0.1280123E+00
          2   -1    0    0  505    0 -0.00000000000E+00  0.00000000000E+00  0.17948749432E+04  0.17948749432E+04  0.00000000000E+00 0. -1.
         21   -1    0    0  504  502  0.00000000000E+00 -0.00000000000E+00 -0.40635357811E+02  0.40635357811E+02  0.00000000000E+00 0.  1.
         21    1    1    2  503  501 -0.23122705569E+02  0.43453978254E+02  0.30149479666E+02  0.57722602705E+02  0.00000000000E+00 0.  1.
         21    1    1    2  504  503 -0.42635729095E+02  0.21107464169E+02  0.66147412116E+01  0.48032127169E+02  0.00000000000E+00 0.  1.
         21    1    1    2  505  502 -0.61908197723E+02 -0.39625754613E+02  0.50474990674E+03  0.51007381204E+03  0.00000000000E+00 0. -1.
          2    1    1    2  501    0  0.12766663239E+03 -0.24935687809E+02  0.12127254578E+04  0.12196817591E+04  0.00000000000E+00 0. -1.
<scales pt_clust_3="35.98918" pt_clust_4="35.98918" pt_clust_5="73.50391" pt_clust_6="93.14695"></scales>
<clustering>
<clus scale="   35.989">  3  4 -1 -1</clus>
<clus scale="   73.504">  1  5  2 -1</clus>
<clus scale="   93.147">  1  6  2 -1</clus>
<clus scale="  100.082">  2  3  1 -1</clus>
</clustering>
</event>
<event>
 6    0  0.1230761E+002  0.1181172E+03  0.7546771E-02  0.1246236E+00
          2   -1    0    0  505    0 -0.00000000000E+00  0.00000000000E+00  0.13863808889E+04  0.13863808889E+04  0.00000000000E+00 0. -1.
         21   -1    0    0  504  502  0.00000000000E+00 -0.00000000000E+00 -0.17609790649E+02  0.17609790649E+02  0.00000000000E+00 0. -1.
         21    1    1    2  503  501  0.32399241900E+02 -0.59759878957E+02  0.14385058271E+03  0.15910356424E+03  0.00000000000E+00 0. -1.
         21    1    1    2  504  503 -0.88439904097E+01 -0.55346529656E+02  0.12511886686E+03  0.13709918072E+03  0.00000000000E+00 0. -1.
         21    1    1    2  505  502 -0.28196995658E+02  0.17946997784E+02  0.37537396682E+03  0.37685909868E+03  0.00000000000E+00 0. -1.
          2    1    1    2  501    0  0.46417441670E+01  0.97159410829E+02  0.72442768190E+03  0.73092883594E+03  0.00000000000E+00 0. -1.
<scales pt_clust_3="36.85702" pt_clust_4="36.85702" pt_clust_5="33.42402" pt_clust_6="111.19576"></scales>
<clustering>
<clus scale="   33.424">  1  5  2 -1</clus>
<clus scale="   36.857">  3  4 -1 -1</clus>
<clus scale="  111.196">  1  6  2 -1</clus>
<clus scale="  118.117">  2  3  1 -1</clus>
</clustering>
</event>
<event>
 6    0  0.1230761E+002  0.2189478E+03  0.7546771E-02  0.1134670E+00
         -1   -1    0    0    0  501 -0.00000000000E+00  0.00000000000E+00  0.20441415342E+04  0.20441415342E+04  0.00000000000E+00 0. -1.
         21   -1    0    0  505  502  0.00000000000E+00 -0.00000000000E+00 -0.16408268964E+03  0.16408268964E+03  0.00000000000E+00 0. -1.
         21    1    1    2  503  504  0.66380596794E+01  0.44321273647E+02 -0.31312135073E+02  0.54670731995E+02  0.00000000000E+00 0. -1.
         21    1    1    2  504  501 -0.15903398406E+02 -0.37075791508E+02  0.72981829437E+03  0.73093246966E+03  0.00000000000E+00 0. -1.
         21    1    1    2  505  503  0.12050076837E+03  0.12526733227E+03 -0.48503146104E+02  0.18045746007E+03  0.00000000000E+00 0. -1.
         -1    1    1    2    0  502 -0.11123542964E+03 -0.13251281441E+03  0.12300558314E+04  0.12421635622E+04  0.00000000000E+00 0. -1.
<scales pt_clust_3="32.07499" pt_clust_4="40.34269" pt_clust_5="32.07499" pt_clust_6="209.63757"></scales>
<clustering>
<clus scale="   32.075">  3  5 -1 -1</clus>
<clus scale="   40.343">  1  4  2 -1</clus>
<clus scale="  209.638">  1  6  2 -1</clus>
<clus scale="  218.948">  2  3  1 -1</clus>
</clustering>
</event>
<event>
 6    0  0.1230761E+002  0.1828239E+03  0.7546771E-02  0.1165098E+00
         -2   -1    0    0    0  501 -0.00000000000E+00  0.00000000000E+00  0.33461277116E+03  0.33461277116E+03  0.00000000000E+00 0.  1.
         21   -1    0    0  503  502  0.00000000000E+00 -0.00000000000E+00 -0.12497378889E+04  0.12497378889E+04  0.00000000000E+00 0.  1.
         21    1    1    2  503  504 -0.48081769093E+02 -0.60682461828E+00 -0.76455887586E+02  0.90320138960E+02  0.00000000000E+00 0.  1.
         21    1    1    2  504  501 -0.10321806134E+02 -0.99259973233E+02  0.17287902500E+03  0.19961522801E+03  0.00000000000E+00 0.  1.
         21    1    1    2  505  502  0.51450358957E+02 -0.17253612464E+03 -0.10058784902E+04  0.10218646636E+04  0.00000000000E+00 0.  1.
         -2    1    1    2    0  505  0.69532162706E+01  0.27240292249E+03 -0.56697649931E+01  0.27255062949E+03  0.00000000000E+00 0.  1.
<scales pt_clust_3="48.08560" pt_clust_4="99.86062" pt_clust_5="182.82395" pt_clust_6="14000.00000"></scales>
<clustering>
<clus scale="   48.086">  2  3  1 -1</clus>
<clus scale="   99.861">  1  4  2 -1</clus>
<clus scale="  182.824">  2  5  1 -1</clus>
<clus scale="   48.086">  2  3  1 -1</clus>
</clustering>
</event>
<event>
 6    0  0.1230761E+002  0.6393318E+02  0.7546771E-02  0.1382030E+00
         21   -1    0    0  503  502  0.00000000000E+00  0.00000000000E+00  0.36620965382E+03  0.36620965382E+03  0.00000000000E+00 0.  1.
          2   -1    0    0  504    0 -0.00000000000E+00 -0.00000000000E+00 -0.12050953108E+03  0.12050953108E+03  0.00000000000E+00 0. -1.
         21    1    1    2  503  505 -0.99780319445E+01  0.42875893462E+02  0.20210397280E+03  0.20684274023E+03  0.00000000000E+00 0.  1.
         21    1    1    2  504  502 -0.31628401700E+02  0.40489422966E+02  0.30910993859E+00  0.51379419179E+02  0.00000000000E+00 0. -1.
         21    1    1    2  505  501 -0.25914992121E+02 -0.90201051614E+02  0.10210884054E+03  0.13868681208E+03  0.00000000000E+00 0. -1.
          2    1    1    2  501    0  0.67521425765E+02  0.68357351856E+01 -0.58821800543E+02  0.89810213406E+02  0.00000000000E+00 0. -1.
<scales pt_clust_3="44.02162" pt_clust_4="57.83507" pt_clust_5="63.93318" pt_clust_6="14000.00000"></scales>
<clustering>
<clus scale="   44.022">  1  3  2 -1</clus>
<clus scale="   57.835">  2  4  1 -1</clus>
<clus scale="   63.933">  1  5  2 -1</clus>
<clus scale="   44.022">  1  3  2 -1</clus>
</clustering>
</event>
<event>
 6    0  0.1230761E+002  0.1986805E+03  0.7546771E-02  0.1150857E+00
         21   -1    0    0  504  502  0.00000000000E+00  0.00000000000E+00  0.11902194625E+03  0.11902194625E+03  0.00000000000E+00 0.  1.
          2   -1    0    0  503    0 -0.00000000000E+00 -0.00000000000E+00 -0.37704291186E+04  0.37704291186E+04  0.00000000000E+00 0. -1.
         21    1    1    2  503  502  0.89657769517E+02  0.26988358720E+02 -0.28005205414E+03  0.29528975629E+03  0.00000000000E+00 0. -1.
         21    1    1    2  504  505  0.11687716981E+03 -0.69413292261E+01  0.42859612012E+02  0.12468119832E+03  0.00000000000E+00 0.  1.
         21    1    1    2  505  501  0.64326255173E+02  0.17503863504E+02 -0.28106009787E+02  0.72347772103E+02  0.00000000000E+00 0.  1.
          2    1    1    2  501    0 -0.27086119450E+03 -0.37550892998E+02 -0.33861087204E+04  0.33971323381E+04  0.00000000000E+00 0. -1.
<scales pt_clust_3="93.63166" pt_clust_4="56.75137" pt_clust_5="56.75137" pt_clust_6="183.89520"></scales>
<clustering>
<clus scale="   56.751">  4  5 -1 -1</clus>
<clus scale="   93.632">  2  3  1 -1</clus>
<clus scale="  183.895">  2  6  1 -1</clus>
<clus scale="  198.681">  1  3  2 -1</clus>
</clustering>
</event>
<event>
 6    0  0.1230761E+002  0.1929371E+03  0.7546771E-02  0.1155839E+00
         21   -1    0    0  504  502  0.00000000000E+00  0.00000000000E+00  0.47717441818E+03  0.47717441818E+03  0.00000000000E+00 0.  1.
         -2   -1    0    0    0  501 -0.00000000000E+00 -0.00000000000E+00 -0.38999434202E+03  0.38999434202E+03  0.00000000000E+00 0.  1.
         21    1    1    2  503  505  0.11452259523E+03  0.15784494340E+02  0.22307580135E+03  0.25125164323E+03  0.00000000000E+00 0.  1.
         21    1    1    2  504  501 -0.47133734675E+02 -0.27110003664E+01 -0.29928663942E+02  0.55898688650E+02  0.00000000000E+00 0. -1.
         21    1    1    2  505  502  0.64364407946E+02  0.44550922451E+02  0.20389957867E+03  0.21840924862E+03  0.00000000000E+00 0.  1.
         -2    1    1    2    0  503 -0.13175326850E+03 -0.57624416425E+02 -0.30986663991E+03  0.34160917970E+03  0.00000000000E+00 0.  1.
<scales pt_clust_3="42.21956" pt_clust_4="47.21163" pt_clust_5="42.21956" pt_clust_6="185.98999"></scales>
<clustering>
<clus scale="   42.220">  3  5 -1 -1</clus>
<clus scale="   47.212">  2  4  1 -1</clus>
<clus scale="  185.990">  2  6  1 -1</clus>
<clus scale="  192.937">  1  3  2 -1</clus>
</clustering>
</event>
<event>
 6    0  0.1230761E+002  0.2118088E+03  0.7546771E-02  0.1140142E+00
          2   -1    0    0  505    0 -0.00000000000E+00  0.00000000000E+00  0.73188312560E+03  0.73188312560E+03  0.00000000000E+00 0. -1.
         21   -1    0    0  501  502  0.00000000000E+00 -0.00000000000E+00 -0.11423402129E+03  0.11423402129E+03  0.00000000000E+00 0. -1.
         21    1    1    2  503  504  0.91842345497E+02  0.49539524389E+02  0.12194051562E+03  0.16049507860E+03  0.00000000000E+00 0. -1.
         21    1    1    2  504  502  0.14353398034E+03  0.34726729496E+02  0.20697828556E+03  0.25425963098E+03  0.00000000000E+00 0. -1.
         21    1    1    2  505  503 -0.46116923611E+02 -0.43595340999E+02  0.21507671994E+03  0.22424388477E+03  0.00000000000E+00 0. -1.
          2    1    1    2  501    0 -0.18925940223E+03 -0.40670912886E+02  0.73653583185E+02  0.20711855253E+03  0.00000000000E+00 0. -1.
<scales pt_clust_3="30.66877" pt_clust_4="30.66877" pt_clust_5="63.46120" pt_clust_6="208.64298"></scales>
<clustering>
<clus scale="   30.669">  3  4 -1 -1</clus>
<clus scale="   63.461">  1  5  2 -1</clus>
<clus scale="  208.643">  2  6  1 -1</clus>
<clus scale="  208.643">  2  3  1 -1</clus>
</clustering>
</event>
<event>
 6    0  0.1440416E+002  0.8187759E+02  0.7546771E-02  0.1323806E+00
          2   -1    0    0  505    0 -0.00000000000E+00  0.00000000000E+00  0.38207486798E+04  0.38207486798E+04  0.00000000000E+00 0.  1.
         21   -1    0    0  503  502  0.00000000000E+00 -0.00000000000E+00 -0.39256079994E+03  0.39256079994E+03  0.00000000000E+00 0. -1.
         21    1    1    2  503  501 -0.11619533285E+02 -0.54594392115E+02 -0.36495227098E+03  0.36919604724E+03  0.00000000000E+00 0. -1.
         21    1    1    2  504  502  0.23176240852E+02 -0.27036125039E+02 -0.26210597775E+01  0.35706584147E+02  0.00000000000E+00 0. -1.
         21    1    1    2  505  504 -0.79860241146E+02 -0.54384244026E+00  0.28386017659E+03  0.29488057538E+03  0.00000000000E+00 0.  1.
          2    1    1    2  501    0  0.68303533579E+02  0.82174359594E+02  0.35119010340E+04  0.35135262730E+04  0.00000000000E+00 0.  1.
<scales pt_clust_3="14000.00000" pt_clust_4="35.61025" pt_clust_5="79.52382" pt_clust_6="81.87759"></scales>
<clustering>
<clus scale="   35.610">  2  4  1 -1</clus>
<clus scale="   79.524">  1  5  2 -1</clus>
<clus scale="   81.878">  1  6  2 -1</clus>
<clus scale="   35.610">  2  3  1 -1</clus>
</clustering>
</event>
<event>
 6    0  0.1230761E+002  0.2392563E+03  0.7546771E-02  0.1120289E+00
          2   -1    0    0  503    0 -0.00000000000E+00  0.00000000000E+00  0.16960770163E+04  0.16960770163E+04  0.00000000000E+00 0. -1.
         21   -1    0    0  505  502  0.00000000000E+00 -0.00000000000E+00 -0.76615555419E+03  0.76615555419E+03  0.00000000000E+00 0. -1.
         21    1    1    2  503  502  0.62951499449E+02 -0.15884950261E+02  0.27841072168E+02  0.70642396810E+02  0.00000000000E+00 0. -1.
         21    1    1    2  504  501 -0.11775465580E+03  0.39348675738E+02 -0.35342956887E+03  0.37460237238E+03  0.00000000000E+00 0. -1.
         21    1    1    2  505  504 -0.83050624134E+02  0.80246414864E+02 -0.36730358103E+03  0.38503092591E+03  0.00000000000E+00 0. -1.
          2    1    1    2  501    0  0.13785378049E+03 -0.10371014034E+03  0.16228135399E+04  0.16319568754E+04  0.00000000000E+00 0. -1.
<scales pt_clust_3="64.92475" pt_clust_4="52.47842" pt_clust_5="52.47842" pt_clust_6="232.98683"></scales>
<clustering>
<clus scale="   52.478">  4  5 -1 -1</clus>
<clus scale="   64.925">  1  3  2 -1</clus>
<clus scale="  232.987">  1  6  2 -1</clus>
<clus scale="  239.256">  2  3  1 -1</clus>
</clustering>
</event>
<event>
 6    0  0.1230761E+002  0.1949196E+03  0.7546771E-02  0.1154098E+00
         21   -1    0    0  503  502  0.00000000000E+00  0.00000000000E+00  0.42303464083E+03  0.42303464083E+03  0.00000000000E+00 0.  1.
          2   -1    0    0  505    0 -0.00000000000E+00 -0.00000000000E+00 -0.68231266736E+03  0.68231266736E+03  0.00000000000E+00 0. -1.
         21    1    1    2  503  501  0.43983822639E-01  0.36088928364E+02  0.18543772389E+03  0.18891681272E+03  0.00000000000E+00 0.  1.
         21    1    1    2  504  502 -0.33782116368E+02 -0.39465967894E+02  0.17384918099E+03  0.18144512046E+03  0.00000000000E+00 0.  1.
         21    1    1    2  505  504 -0.17520316001E+03  0.21442211130E+01 -0.19160548920E+03  0.25964092215E+03  0.00000000000E+00 0.  1.
          2    1    1    2  501    0  0.20894129256E+03  0.12328184167E+01 -0.42695944220E+03  0.47534445286E+03  0.00000000000E+00 0. -1.
<scales pt_clust_3="36.08896" pt_clust_4="35.91501" pt_clust_5="14000.00000" pt_clust_6="194.91960"></scales>
<clustering>
<clus scale="   36.089">  1  3  2 -1</clus>
<clus scale="   35.915">  1  4  2 -1</clus>
<clus scale="  194.920">  2  6  1 -1</clus>
<clus scale="   36.089">  1  3  2 -1</clus>
</clustering>
</event>
<event>
 6    0  0.1230761E+002  0.1241323E+03  0.7546771E-02  0.1236432E+00
         21   -1    0    0  505  502  0.00000000000E+00  0.00000000000E+00  0.70987725910E+02  0.70987725910E+02  0.00000000000E+00 0.  1.
          1   -1    0    0  504    0 -0.00000000000E+00 -0.00000000000E+00 -0.86463865016E+03  0.86463865016E+03  0.00000000000E+00 0. -1.
         21    1    1    2  503  501 -0.11431119903E+03  0.77771037886E+02 -0.44098338122E+02  0.14512080479E+03  0.00000000000E+00 0.  1.
         21    1    1    2  504  502 -0.47374090435E+02 -0.25717974924E+02 -0.22114473676E+03  0.22761966803E+03  0.00000000000E+00 0. -1.
         21    1    1    2  505  503  0.11590524361E+02 -0.28786044664E+02 -0.35718926373E+02  0.47316152882E+02  0.00000000000E+00 0.  1.
          1    1    1    2  501    0  0.15009476510E+03 -0.23267018298E+02 -0.49268892300E+03  0.51556975037E+03  0.00000000000E+00 0. -1.
<scales pt_clust_3="14000.00000" pt_clust_4="54.10257" pt_clust_5="31.03186" pt_clust_6="124.13227"></scales>
<clustering>
<clus scale="   31.032">  1  5  2 -1</clus>
<clus scale="   54.103">  2  4  1 -1</clus>
<clus scale="  124.132">  2  6  1 -1</clus>
<clus scale="   31.032">  1  3  2 -1</clus>
</clustering>
</event>
<event>
 6    0  0.1230761E+002  0.8143475E+02  0.7546771E-02  0.1325028E+00
         21   -1    0    0  501  502  0.00000000000E+00  0.00000000000E+00  0.51253076478E+02  0.51253076478E+02  0.00000000000E+00 0.  1.
          2   -1    0    0  503    0 -0.00000000000E+00 -0.00000000000E+00 -0.45176375740E+04  0.45176375740E+04  0.00000000000E+00 0.  1.
         21    1    1    2  503  504 -0.28797637647E+02  0.34790945666E+02 -0.49350583345E+03  0.49556807956E+03  0.00000000000E+00 0. -1.
         21    1    1    2  504  505  0.86397150584E+01  0.48420583782E+02 -0.11195451155E+03  0.12228250188E+03  0.00000000000E+00 0.  1.
         21    1    1    2  505  502 -0.16635196099E+02  0.40981292319E+02  0.32861514487E+02  0.55100591682E+02  0.00000000000E+00 0.  1.
          2    1    1    2  501    0  0.36793118687E+02 -0.12419282177E+03 -0.38937856670E+04  0.38959394773E+04  0.00000000000E+00 0.  1.
<scales pt_clust_3="51.17839" pt_clust_4="14000.00000" pt_clust_5="44.22891" pt_clust_6="81.43475"></scales>
<clustering>
<clus scale="   44.229">  1  5  2 -1</clus>
<clus scale="   51.178">  2  3  1 -1</clus>
<clus scale="   81.435">  2  6  1 -1</clus>
<clus scale="   44.229">  1  3  2 -1</clus>
</clustering>
</event>
<event>
 6    0  0.1230761E+002  0.1188352E+03  0.7546771E-02  0.1245031E+00
         21   -1    0    0  505  502  0.00000000000E+00  0.00000000000E+00  0.13226631365E+03  0.13226631365E+03  0.00000000000E+00 0. -1.
         -4   -1    0    0    0  501 -0.00000000000E+00 -0.00000000000E+00 -0.32516817646E+03  0.32516817646E+03  0.00000000000E+00 0. -1.
         21    1    1    2  503  504  0.94611945686E+01  0.62416969220E+02  0.29753741112E+02  0.69790238281E+02  0.00000000000E+00 0. -1.
         21    1    1    2  504  502  0.35439358357E+02  0.49525227869E+02  0.52147256878E+02  0.80175013041E+02  0.00000000000E+00 0. -1.
         21    1    1    2  505  501 -0.38566917036E+02 -0.40808384286E+02 -0.65258351068E+02  0.86089393666E+02  0.00000000000E+00 0.  1.
         -4    1    1    2    0  503 -0.63336358901E+01 -0.71133812803E+02 -0.20954450973E+03  0.22137984512E+03  0.00000000000E+00 0. -1.
<scales pt_clust_3="34.51168" pt_clust_4="34.51168" pt_clust_5="56.14919" pt_clust_6="113.52145"></scales>
<clustering>
<clus scale="   34.512">  3  4 -1 -1</clus>
<clus scale="   56.149">  2  5  1 -1</clus>
<clus scale="  113.521">  2  6  1 -1</clus>
<clus scale="  118.835">  1  3  2 -1</clus>
</clustering>
</event>
<event>
 6    0  0.1230761E+002  0.1227071E+03  0.7546771E-02  0.1238697E+00
         -1   -1    0    0    0  501 -0.00000000000E+00  0.00000000000E+00  0.25117270705E+03  0.25117270705E+03  0.00000000000E+00 0.  1.
         21   -1    0    0  504  502  0.00000000000E+00 -0.00000000000E+00 -0.78031922028E+03  0.78031922028E+03  0.00000000000E+00 0. -1.
         21    1    1    2  503  505 -0.29284954357E+01 -0.70885220163E+02 -0.10052388469E+03  0.12303796941E+03  0.00000000000E+00 0. -1.
         21    1    1    2  504  501  0.17726293885E+02 -0.32366216809E+02  0.39230754667E+02  0.53859498671E+02  0.00000000000E+00 0.  1.
         21    1    1    2  505  502  0.20711351303E+02 -0.61897944986E+02 -0.62229664589E+03  0.62571034126E+03  0.00000000000E+00 0. -1.
         -1    1    1    2    0  503 -0.35509149753E+02  0.16514938196E+03  0.15444326269E+03  0.22888411799E+03  0.00000000000E+00 0.  1.
<scales pt_clust_3="14000.00000" pt_clust_4="36.90249" pt_clust_5="65.57406" pt_clust_6="122.70711"></scales>
<clustering>
<clus scale="   36.902">  1  4  2 -1</clus>
<clus scale="   65.574">  2  5  1 -1</clus>
<clus scale="  122.707">  1  6  2 -1</clus>
<clus scale="   65.574">  2  3  1 -1</clus>
</clustering>
</event>
<event>
 6    0  0.1230761E+002  0.2177026E+03  0.7546771E-02  0.1135608E+00
         21   -1    0    0  503  502  0.00000000000E+00  0.00000000000E+00  0.47285131204E+02  0.47285131204E+02  0.00000000000E+00 0. -1.
         -3   -1    0    0    0  501 -0.00000000000E+00 -0.00000000000E+00 -0.13935854189E+04  0.13935854189E+04  0.00000000000E+00 0. -1.
         21    1    1    2  503  504  0.56129618203E+02  0.12606405608E+03 -0.32829938673E+03  0.35612240537E+03  0.00000000000E+00 0. -1.
         21    1    1    2  504  501  0.12385572014E+02  0.54398704970E+02 -0.60509824280E+02  0.82304679885E+02  0.00000000000E+00 0. -1.
         21    1    1    2  505  502  0.42210103809E+02  0.72283661704E+01 -0.37268795476E+02  0.56770637281E+02  0.00000000000E+00 0. -1.
         -3    1    1    2    0  505 -0.11072529403E+03 -0.18769112722E+03 -0.92022228121E+03  0.94567282758E+03  0.00000000000E+00 0. -1.
<scales pt_clust_3="39.11629" pt_clust_4="39.11629" pt_clust_5="42.82455" pt_clust_6="208.82969"></scales>
<clustering>
<clus scale="   39.116">  3  4 -1 -1</clus>
<clus scale="   42.825">  1  5  2 -1</clus>
<clus scale="  208.830">  2  6  1 -1</clus>
<clus scale="   42.825">  1  3  2 -1</clus>
</clustering>
</event>
<event>
 6    0  0.1230761E+002  0.1350861E+03  0.7546771E-02  0.1220098E+00
          4   -1    0    0  505    0 -0.00000000000E+00  0.00000000000E+00  0.58700876139E+02  0.58700876139E+02  0.00000000000E+00 0.  1.
         21   -1    0    0  501  502  0.00000000000E+00 -0.00000000000E+00 -0.75460340481E+03  0.75460340481E+03  0.00000000000E+00 0. -1.
         21    1    1    2  503  504 -0.46443697651E+02 -0.10631812859E+02 -0.83108340074E+02  0.95796913761E+02  0.00000000000E+00 0. -1.
         21    1    1    2  504  502 -0.38785111569E+02  0.10603951197E+03 -0.29679747168E+03  0.31754905475E+03  0.00000000000E+00 0. -1.
         21    1    1    2  505  503 -0.59995647848E+02 -0.54482328732E+02 -0.53247520055E+02  0.96969584390E+02  0.00000000000E+00 0. -1.
          4    1    1    2  501    0  0.14522445707E+03 -0.40925370381E+02 -0.26274919686E+03  0.30298872804E+03  0.00000000000E+00 0.  1.
<scales pt_clust_3="41.97436" pt_clust_4="112.90998" pt_clust_5="41.97436" pt_clust_6="123.49667"></scales>
<clustering>
<clus scale="   41.974">  3  5 -1 -1</clus>
<clus scale="  112.910">  2  4  1 -1</clus>
<clus scale="  123.497">  2  6  1 -1</clus>
<clus scale="  112.910">  2  3  1 -1</clus>
</clustering>
</event>
<event>
 6    0  0.1230761E+002  0.1024677E+03  0.7546771E-02  0.1275191E+00
          2   -1    0    0  505    0 -0.00000000000E+00  0.00000000000E+00  0.12291982552E+04  0.12291982552E+04  0.00000000000E+00 0. -1.
         21   -1    0    0  503  502  0.00000000000E+00 -0.00000000000E+00 -0.46234945994E+02  0.46234945994E+02  0.00000000000E+00 0. -1.
         21    1    1    2  503  501 -0.47085722993E+02 -0.20253282656E+02 -0.76352245969E+01  0.51822364117E+02  0.00000000000E+00 0. -1.
         21    1    1    2  504  502 -0.27541043387E+02  0.20164800810E+02  0.42032248590E+02  0.54146451260E+02  0.00000000000E+00 0. -1.
         21    1    1    2  505  504 -0.70398641900E+02  0.42222921811E+01  0.27318483313E+03  0.28214136454E+03  0.00000000000E+00 0. -1.
          2    1    1    2  501    0  0.14502540828E+03 -0.41338103358E+01  0.87538145212E+03  0.88732302131E+03  0.00000000000E+00 0. -1.
<scales pt_clust_3="67.67460" pt_clust_4="34.13398" pt_clust_5="14000.00000" pt_clust_6="102.46774"></scales>
<clustering>
<clus scale="   34.134">  2  4  1 -1</clus>
<clus scale="   67.675">  2  3  1 -1</clus>
<clus scale="  102.468">  2  6  1 -1</clus>
<clus scale="   34.134">  2  3  1 -1</clus>
</clustering>
</event>
<event>
 6    0  0.1230761E+002  0.1212223E+03  0.7546771E-02  0.1241094E+00
          1   -1    0    0  503    0 -0.00000000000E+00  0.00000000000E+00  0.82227627702E+03  0.82227627702E+03  0.00000000000E+00 0.  1.
         21   -1    0    0  504  502  0.00000000000E+00 -0.00000000000E+00 -0.28328156671E+03  0.28328156671E+03  0.00000000000E+00 0. -1.
         21    1    1    2  503  502  0.11109130902E+02 -0.28853911874E+02  0.30893134585E+03  0.31047469699E+03  0.00000000000E+00 0. -1.
         21    1    1    2  504  505 -0.69600569016E+02  0.76459213503E+02 -0.18123974135E+03  0.20865784045E+03  0.00000000000E+00 0. -1.
         21    1    1    2  505  501  0.10939668592E+03  0.45967303029E+02 -0.38054321546E+02  0.12461444228E+03  0.00000000000E+00 0. -1.
          1    1    1    2  501    0 -0.50905247804E+02 -0.93572604658E+02  0.44935742736E+03  0.46181086401E+03  0.00000000000E+00 0.  1.
<scales pt_clust_3="30.91862" pt_clust_4="102.62342" pt_clust_5="121.22231" pt_clust_6="14000.00000"></scales>
<clustering>
<clus scale="   30.919">  1  3  2 -1</clus>
<clus scale="  102.623">  2  4  1 -1</clus>
<clus scale="  121.222">  2  5  1 -1</clus>
<clus scale="  102.623">  2  3  1 -1</clus>
</clustering>
</event>
<event>
 6    0  0.1230761E+002  0.1810428E+03  0.7546771E-02  0.1166798E+00
         21   -1    0    0  503  502  0.00000000000E+00  0.00000000000E+00  0.62876252873E+02  0.62876252873E+02  0.00000000000E+00 0.  1.
          2   -1    0    0  505    0 -0.00000000000E+00 -0.00000000000E+00 -0.14650816263E+04  0.14650816263E+04  0.00000000000E+00 0.  1.
         21    1    1    2  503  501 -0.23651162504E+02 -0.27452440546E+02  0.12209798295E+02  0.38237326712E+02  0.00000000000E+00 0.  1.
         21    1    1    2  504  502  0.32941402003E+01 -0.54810400364E+02 -0.50887245970E+02  0.74863496780E+02  0.00000000000E+00 0.  1.
         21    1    1    2  505  504 -0.11657881931E+03 -0.97240932854E+02 -0.53614318260E+03  0.55722161874E+03  0.00000000000E+00 0.  1.
          2    1    1    2  501    0  0.13693584161E+03  0.17950377376E+03 -0.82738474317E+03  0.85763543697E+03  0.00000000000E+00 0.  1.
<scales pt_clust_3="36.23553" pt_clust_4="63.69192" pt_clust_5="14000.00000" pt_clust_6="181.04278"></scales>
<clustering>
<clus scale="   36.236">  1  3  2 -1</clus>
<clus scale="   63.692">  1  4  2 -1</clus>
<clus scale="  181.043">  1  6  2 -1</clus>
<clus scale="   36.236">  1  3  2 -1</clus>
</clustering>
</event>
<event>
 6    0  0.1230761E+002  0.1864612E+03  0.7546771E-02  0.1161692E+00
         21   -1    0    0  505  502  0.00000000000E+00  0.00000000000E+00  0.62847229691E+03  0.62847229691E+03  0.00000000000E+00 0. -1.
         -2   -1    0    0    0  501 -0.00000000000E+00 -0.00000000000E+00 -0.26183097126E+03  0.26183097126E+03  0.00000000000E+00 0.  1.
         21    1    1    2  503  501 -0.60957878357E+02 -0.19580021535E+02 -0.14562958567E+03  0.15908242015E+03  0.00000000000E+00 0. -1.
         21    1    1    2  504  502  0.12235352622E+02  0.36457817243E+02  0.84831864990E+02  0.93141406526E+02  0.00000000000E+00 0. -1.
         21    1    1    2  505  503  0.17682697872E+03 -0.94804388781E+02  0.44399488333E+03  0.48722387971E+03  0.00000000000E+00 0. -1.
         -2    1    1    2    0  504 -0.12810445299E+03  0.77926593074E+02 -0.16555837003E+02  0.15085556179E+03  0.00000000000E+00 0.  1.
<scales pt_clust_3="63.74222" pt_clust_4="38.45616" pt_clust_5="14000.00000" pt_clust_6="186.46125"></scales>
<clustering>
<clus scale="   38.456">  1  4  2 -1</clus>
<clus scale="   63.742">  2  3  1 -1</clus>
<clus scale="  186.461">  2  6  1 -1</clus>
<clus scale="   38.456">  1  3  2 -1</clus>
</clustering>
</event>
<event>
 6    0  0.1230761E+002  0.1271051E+03  0.7546771E-02  0.1231816E+00
          2   -1    0    0  503    0 -0.00000000000E+00  0.00000000000E+00  0.22956957412E+04  0.22956957412E+04  0.00000000000E+00 0.  1.
         21   -1    0    0  501  502  0.00000000000E+00 -0.00000000000E+00 -0.16588163518E+03  0.16588163518E+03  0.00000000000E+00 0. -1.
         21    1    1    2  503  505 -0.56438975917E+02  0.36024439560E+02  0.12875588106E+03  0.14512475721E+03  0.00000000000E+00 0.  1.
         21    1    1    2  504  502  0.12172969041E+03 -0.35947872351E+02 -0.12415956717E+03  0.17755552701E+03  0.00000000000E+00 0. -1.
         21    1    1    2  505  504  0.55614905806E+02 -0.74785206036E+02  0.61721613704E+03  0.62421278792E+03  0.00000000000E+00 0.  1.
          2    1    1    2  501    0 -0.12090562030E+03  0.74708638827E+02  0.15080016551E+04  0.15146843042E+04  0.00000000000E+00 0.  1.
<scales pt_clust_3="66.95609" pt_clust_4="14000.00000" pt_clust_5="75.51262" pt_clust_6="127.10512"></scales>
<clustering>
<clus scale="   66.956">  1  3  2 -1</clus>
<clus scale="   75.513">  1  5  2 -1</clus>
<clus scale="  127.105">  1  6  2 -1</clus>
<clus scale="  127.105">  2  3  1 -1</clus>
</clustering>
</event>
<event>
 6    0  0.1230761E+002  0.2859281E+03  0.7546771E-02  0.1092494E+00
         21   -1    0    0  504  502  0.00000000000E+00  0.00000000000E+00  0.36878019488E+03  0.36878019488E+03  0.00000000000E+00 0. -1.
          2   -1    0    0  505    0 -0.00000000000E+00 -0.00000000000E+00 -0.19536627072E+04  0.19536627072E+04  0.00000000000E+00 0. -1.
         21    1    1    2  503  502 -0.32939137014E+02  0.74677797219E+02 -0.13023449521E+03  0.15369705230E+03  0.00000000000E+00 0. -1.
         21    1    1    2  504  501 -0.46605864102E+02  0.27369405967E+03  0.24937735781E+03  0.37318843961E+03  0.00000000000E+00 0. -1.
         21    1    1    2  505  503 -0.27237239694E+02  0.59910023398E+02 -0.74356601134E+03  0.74647269967E+03  0.00000000000E+00 0. -1.
          2    1    1    2  501    0  0.10678224081E+03 -0.40828188029E+03 -0.96045936363E+03  0.10490847105E+04  0.00000000000E+00 0. -1.
<scales pt_clust_3="89.34923" pt_clust_4="285.92812" pt_clust_5="65.81093" pt_clust_6="14000.00000"></scales>
<clustering>
<clus scale="   65.811">  2  5  1 -1</clus>
<clus scale="   89.349">  2  3  1 -1</clus>
<clus scale="  285.928">  1  4  2 -1</clus>
<clus scale="  285.928">  1  3  2 -1</clus>
</clustering>
</event>
<event>
 6    0  0.1230761E+002  0.2052592E+03  0.7546771E-02  0.1145376E+00
          2   -1    0    0  505    0 -0.00000000000E+00  0.00000000000E+00  0.29782421809E+03  0.29782421809E+03  0.00000000000E+00 0. -1.
         21   -1    0    0  503  502  0.00000000000E+00 -0.00000000000E+00 -0.68588391584E+03  0.68588391584E+03  0.00000000000E+00 0. -1.
         21    1    1    2  503  504  0.86580278276E+02 -0.30491402396E+02 -0.39543001584E+03  0.40594429129E+03  0.00000000000E+00 0. -1.
         21    1    1    2  504  501  0.95293124352E+02 -0.16748055319E+02 -0.19108968014E+03  0.21418810136E+03  0.00000000000E+00 0. -1.
         21    1    1    2  505  502  0.50231655516E+02 -0.68190963265E+01  0.86523046623E+02  0.10027939413E+03  0.00000000000E+00 0. -1.
          2    1    1    2  501    0 -0.23210505814E+03  0.54058554041E+02  0.11193695161E+03  0.26329634714E+03  0.00000000000E+00 0. -1.
<scales pt_clust_3="70.03133" pt_clust_4="70.03133" pt_clust_5="50.69240" pt_clust_6="192.04690"></scales>
<clustering>
<clus scale="   50.692">  1  5  2 -1</clus>
<clus scale="   70.031">  3  4 -1 -1</clus>
<clus scale="  192.047">  1  6  2 -1</clus>
<clus scale="  205.259">  2  3  1 -1</clus>
</clustering>
</event>
<event>
 6    0  0.1230761E+002  0.1038233E+03  0.7546771E-02  0.1272455E+00
         21   -1    0    0  504  502  0.00000000000E+00  0.00000000000E+00  0.98688347382E+03  0.98688347382E+03  0.00000000000E+00 0. -1.
          4   -1    0    0  505    0 -0.00000000000E+00 -0.00000000000E+00 -0.11031315147E+03  0.11031315147E+03  0.00000000000E+00 0. -1.
         21    1    1    2  503  502  0.42077215057E+02  0.26930896064E+02  0.58552443700E+03  0.58765179444E+03  0.00000000000E+00 0. -1.
         21    1    1    2  504  501  0.10930098285E+02 -0.84257021838E+02  0.36758716345E+02  0.92573840824E+02  0.00000000000E+00 0. -1.
         21    1    1    2  505  503  0.13119963747E+02  0.49800425146E+02  0.31960008844E+03  0.32372277079E+03  0.00000000000E+00 0. -1.
          4    1    1    2  501    0 -0.66127277088E+02  0.75257006281E+01 -0.65312919432E+02  0.93248219231E+02  0.00000000000E+00 0. -1.
<scales pt_clust_3="48.43907" pt_clust_4="91.43586" pt_clust_5="48.43907" pt_clust_6="66.55414"></scales>
<clustering>
<clus scale="   48.439">  3  5 -1 -1</clus>
<clus scale="   66.554">  2  6  1 -1</clus>
<clus scale="   91.436">  2  4  1 -1</clus>
<clus scale="  103.823">  1  3  2 -1</clus>
</clustering>
</event>
<event>
 6    0  0.1230761E+002  0.1349696E+03  0.7546771E-02  0.1220263E+00
         21   -1    0    0  503  502  0.00000000000E+00  0.00000000000E+00  0.40674000081E+03  0.40674000081E+03  0.00000000000E+00 0.  1.
          2   -1    0    0  504    0 -0.00000000000E+00 -0.00000000000E+00 -0.34856235885E+04  0.34856235885E+04  0.00000000000E+00 0.  1.
         21    1    1    2  503  501 -0.60054675905E+02 -0.25162942149E+01  0.31063847016E+03  0.31640030812E+03  0.00000000000E+00 0.  1.
         21    1    1    2  504  505 -0.96685387141E+02 -0.86870651479E+02 -0.26533588207E+03  0.29546184946E+03  0.00000000000E+00 0.  1.
         21    1    1    2  505  502  0.31392615335E+02  0.36424773738E+02  0.69172784208E+02  0.84244492488E+02  0.00000000000E+00 0. -1.
          2    1    1    2  501    0  0.12534744771E+03  0.52962171956E+02 -0.31933589600E+04  0.31962569393E+04  0.00000000000E+00 0.  1.
<scales pt_clust_3="44.08551" pt_clust_4="14000.00000" pt_clust_5="48.08597" pt_clust_6="134.96960"></scales>
<clustering>
<clus scale="   48.086">  1  5  2 -1</clus>
<clus scale="   44.086">  1  3  2 -1</clus>
<clus scale="  134.970">  2  6  1 -1</clus>
<clus scale="   48.086">  1  3  2 -1</clus>
</clustering>
</event>
<event>
 6    0  0.1230761E+002  0.1688851E+03  0.7546771E-02  0.1179016E+00
          1   -1    0    0  505    0 -0.00000000000E+00  0.00000000000E+00  0.34792523022E+03  0.34792523022E+03  0.00000000000E+00 0. -1.
         21   -1    0    0  504  502  0.00000000000E+00 -0.00000000000E+00 -0.56931506226E+03  0.56931506226E+03  0.00000000000E+00 0. -1.
         21    1    1    2  503  502 -0.51451796109E+02  0.34748496323E+02 -0.19282989497E+03  0.20257866056E+03  0.00000000000E+00 0. -1.
         21    1    1    2  504  501  0.53967524862E+02  0.58753709282E+01 -0.28405337063E+03  0.28919427914E+03  0.00000000000E+00 0. -1.
         21    1    1    2  505  503  0.16672229280E+03 -0.28070514880E+01  0.12137203509E+03  0.20624105642E+03  0.00000000000E+00 0. -1.
          1    1    1    2  501    0 -0.16923802155E+03 -0.37816815763E+02  0.13412139847E+03  0.21922629637E+03  0.00000000000E+00 0. -1.
<scales pt_clust_3="41.20484" pt_clust_4="54.28640" pt_clust_5="14000.00000" pt_clust_6="168.88511"></scales>
<clustering>
<clus scale="   54.286">  2  4  1 -1</clus>
<clus scale="   41.205">  2  3  1 -1</clus>
<clus scale="  168.885">  2  6  1 -1</clus>
<clus scale="   54.286">  2  3  1 -1</clus>
</clustering>
</event>
<event>
 6    0  0.1230761E+002  0.8936613E+02  0.7546771E-02  0.1304394E+00
         21   -1    0    0  504  502  0.00000000000E+00  0.00000000000E+00  0.14209578331E+04  0.14209578331E+04  0.00000000000E+00 0.  1.
          2   -1    0    0  505    0 -0.00000000000E+00 -0.00000000000E+00 -0.19711221750E+04  0.19711221750E+04  0.00000000000E+00 0.  1.
         21    1    1    2  503  502 -0.39041932847E+02  0.28941098137E+02  0.13654008062E+04  0.13662654286E+04  0.00000000000E+00 0.  1.
         21    1    1    2  504  501 -0.89510255383E+01  0.46123378111E+02  0.40389022113E+02  0.61957727313E+02  0.00000000000E+00 0.  1.
         21    1    1    2  505  503 -0.27839709253E+02  0.31817592455E+02 -0.63943296961E+03  0.64082909674E+03  0.00000000000E+00 0.  1.
          2    1    1    2  501    0  0.75832667639E+02 -0.10688206870E+03 -0.13165212006E+04  0.13230277555E+04  0.00000000000E+00 0.  1.
<scales pt_clust_3="14000.00000" pt_clust_4="47.28027" pt_clust_5="42.27776" pt_clust_6="89.36613"></scales>
<clustering>
<clus scale="   42.278">  2  5  1 -1</clus>
<clus scale="   47.280">  1  4  2 -1</clus>
<clus scale="   89.366">  2  6  1 -1</clus>
<clus scale="   47.280">  1  3  2 -1</clus>
</clustering>
</event>
<event>
 6    0  0.1230761E+002  0.1084322E+03  0.7546771E-02  0.1263501E+00
          2   -1    0    0  505    0 -0.00000000000E+00  0.00000000000E+00  0.18609236450E+03  0.18609236450E+03  0.00000000000E+00 0. -1.
         21   -1    0    0  504  502  0.00000000000E+00 -0.00000000000E+00 -0.31978008428E+03  0.31978008428E+03  0.00000000000E+00 0. -1.
         21    1    1    2  503  501 -0.15206835100E+02 -0.97500304546E+02 -0.23752875079E+03  0.25721093420E+03  0.00000000000E+00 0. -1.
         21    1    1    2  504  503 -0.30043890497E+02 -0.91932032463E+01 -0.33078795952E+02  0.45621892593E+02  0.00000000000E+00 0. -1.
         21    1    1    2  505  502  0.46478586584E+02  0.28604309091E+02  0.12259252354E+02  0.55935273108E+02  0.00000000000E+00 0. -1.
          2    1    1    2  501    0 -0.12278609867E+01  0.78089198701E+02  0.12466057461E+03  0.14710434888E+03  0.00000000000E+00 0. -1.
<scales pt_clust_3="108.43220" pt_clust_4="31.41895" pt_clust_5="52.21122" pt_clust_6="14000.00000"></scales>
<clustering>
<clus scale="   31.419">  2  4  1 -1</clus>
<clus scale="   52.211">  1  5  2 -1</clus>
<clus scale="  108.432">  2  3  1 -1</clus>
<clus scale="   31.419">  2  3  1 -1</clus>
</clustering>
</event>
<event>
 6    0  0.1230761E+002  0.2493546E+03  0.7546771E-02  0.1113713E+00
         21   -1    0    0  501  502  0.00000000000E+00  0.00000000000E+00  0.28254422751E+02  0.28254422751E+02  0.00000000000E+00 0. -1.
          1   -1    0    0  505    0 -0.00000000000E+00 -0.00000000000E+00 -0.20126420163E+04  0.20126420163E+04  0.00000000000E+00 0.  1.
         21    1    1    2  503  502 -0.63418948366E+02  0.65160001339E+02 -0.38286487363E+03  0.39351404073E+03  0.00000000000E+00 0.  1.
         21    1    1    2  504  503 -0.74198390252E+02  0.30750904271E+01 -0.16844242013E+03  0.18408613798E+03  0.00000000000E+00 0. -1.
         21    1    1    2  505  504 -0.73943505853E+02 -0.17999776724E+02 -0.29708826099E+03  0.30668072785E+03  0.00000000000E+00 0. -1.
          1    1    1    2  501    0  0.21156084447E+03 -0.50235315042E+02 -0.11359920388E+04  0.11566155325E+04  0.00000000000E+00 0.  1.
<scales pt_clust_3="84.94556" pt_clust_4="43.78376" pt_clust_5="84.94556" pt_clust_6="217.44327"></scales>
<clustering>
<clus scale="   43.784">  4  5 -1 -1</clus>
<clus scale="   84.946">  3  4 -1 -1</clus>
<clus scale="  217.443">  2  6  1 -1</clus>
<clus scale="  249.355">  1  3  2 -1</clus>
</clustering>
</event>
<event>
 6    0  0.1230761E+002  0.1825408E+03  0.7546771E-02  0.1165366E+00
         21   -1    0    0  505  502  0.00000000000E+00  0.00000000000E+00  0.38790904088E+03  0.38790904088E+03  0.00000000000E+00 0.  1.
          2   -1    0    0  504    0 -0.00000000000E+00 -0.00000000000E+00 -0.12499701902E+04  0.12499701902E+04  0.00000000000E+00 0. -1.
         21    1    1    2  503  502 -0.27307430852E+02  0.14733116190E+03  0.33099754355E+03  0.36333392476E+03  0.00000000000E+00 0.  1.
         21    1    1    2  504  503 -0.43560869924E+02 -0.15181160382E+02 -0.80794425420E+03  0.80926011573E+03  0.00000000000E+00 0.  1.
         21    1    1    2  505  501  0.18630351674E+00  0.35971591973E+02  0.33624828127E+01  0.36128886348E+02  0.00000000000E+00 0.  1.
          2    1    1    2  501    0  0.70681997259E+02 -0.16812159349E+03 -0.38847692144E+03  0.42915630419E+03  0.00000000000E+00 0. -1.
<scales pt_clust_3="182.54082" pt_clust_4="46.10901" pt_clust_5="35.97207" pt_clust_6="14000.00000"></scales>
<clustering>
<clus scale="   35.972">  1  5  2 -1</clus>
<clus scale="   46.109">  2  4  1 -1</clus>
<clus scale="  182.541">  1  3  2 -1</clus>
<clus scale="   35.972">  1  3  2 -1</clus>
</clustering>
</event>
<event>
 6    0  0.1230761E+002  0.1222395E+03  0.7546771E-02  0.1239448E+00
         21   -1    0    0  505  502  0.00000000000E+00  0.00000000000E+00  0.24717093689E+03  0.24717093689E+03  0.00000000000E+00 0.  1.
          2   -1    0    0  503    0 -0.00000000000E+00 -0.00000000000E+00 -0.88318384019E+03  0.88318384019E+03  0.00000000000E+00 0. -1.
         21    1    1    2  503  502  0.33732816763E+02  0.58387437041E+02 -0.21279244859E+03  0.22322101583E+03  0.00000000000E+00 0.  1.
         21    1    1    2  504  501 -0.34809288164E+02  0.38439121395E+02  0.62162176247E+02  0.80953003353E+02  0.00000000000E+00 0.  1.
         21    1    1    2  505  504 -0.57337399021E+02  0.30677800970E+02  0.15633287934E+03  0.16931826234E+03  0.00000000000E+00 0.  1.
          2    1    1    2  501    0  0.58413870422E+02 -0.12750435941E+03 -0.64171551030E+03  0.65686249557E+03  0.00000000000E+00 0. -1.
<scales pt_clust_3="67.43142" pt_clust_4="36.02556" pt_clust_5="36.02556" pt_clust_6="115.39085"></scales>
<clustering>
<clus scale="   36.026">  4  5 -1 -1</clus>
<clus scale="   67.431">  2  3  1 -1</clus>
<clus scale="  115.391">  2  6  1 -1</clus>
<clus scale="  122.240">  1  3  2 -1</clus>
</clustering>
</event>
<event>
 6    0  0.1230761E+002  0.8101250E+02  0.7546771E-02  0.1326202E+00
         -1   -1    0    0    0  501 -0.00000000000E+00  0.00000000000E+00  0.74468147093E+03  0.74468147093E+03  0.00000000000E+00 0. -1.
         21   -1    0    0  505  502  0.00000000000E+00 -0.00000000000E+00 -0.58507241063E+03  0.58507241063E+03  0.00000000000E+00 0. -1.
         21    1    1    2  503  504 -0.69768541967E+02  0.36558193028E+02  0.50482053998E+02  0.93555270838E+02  0.00000000000E+00 0. -1.
         21    1    1    2  504  502  0.21242061694E+02  0.61727321606E+02 -0.53463126168E+03  0.53860196192E+03  0.00000000000E+00 0. -1.
         21    1    1    2  505  501  0.38076686697E+02 -0.13623804030E+02 -0.71968562197E+01  0.41075988674E+02  0.00000000000E+00 0. -1.
         -1    1    1    2    0  503  0.10449793577E+02 -0.84661710604E+02  0.65095512421E+03  0.65652066012E+03  0.00000000000E+00 0. -1.
<scales pt_clust_3="81.01250" pt_clust_4="75.47658" pt_clust_5="40.44060" pt_clust_6="14000.00000"></scales>
<clustering>
<clus scale="   40.441">  2  5  1 -1</clus>
<clus scale="   75.477">  2  4  1 -1</clus>
<clus scale="   81.012">  2  3  1 -1</clus>
<clus scale="   40.441">  2  3  1 -1</clus>
</clustering>
</event>
<event>
 6    0  0.1230761E+002  0.1925749E+03  0.7546771E-02  0.1156159E+00
          1   -1    0    0  503    0 -0.00000000000E+00  0.00000000000E+00  0.47078849834E+03  0.47078849834E+03  0.00000000000E+00 0. -1.
         21   -1    0    0  504  502  0.00000000000E+00 -0.00000000000E+00 -0.86904214043E+03  0.86904214043E+03  0.00000000000E+00 0.  1.
         21    1    1    2  503  505  0.25613722394E+02  0.28850176074E+02 -0.85732923445E+01  0.39520839768E+02  0.00000000000E+00 0.  1.
         21    1    1    2  504  501 -0.16080557280E+03 -0.45354647971E+02 -0.60082205962E+03  0.62362057669E+03  0.00000000000E+00 0.  1.
         21    1    1    2  505  502 -0.34958406970E+02  0.42380524335E+02 -0.21246599834E+03  0.21945386648E+03  0.00000000000E+00 0.  1.
          1    1    1    2  501    0  0.17015025738E+03 -0.25876052438E+02  0.42360770822E+03  0.45723535585E+03  0.00000000000E+00 0. -1.
<scales pt_clust_3="38.57973" pt_clust_4="14000.00000" pt_clust_5="54.98463" pt_clust_6="192.57492"></scales>
<clustering>
<clus scale="   38.580">  1  3  2 -1</clus>
<clus scale="   54.985">  2  5  1 -1</clus>
<clus scale="  192.575">  1  6  2 -1</clus>
<clus scale="   54.985">  2  3  1 -1</clus>
</clustering>
</event>
<event>
 6    0  0.1230761E+002  0.1775970E+03  0.7546771E-02  0.1170149E+00
         21   -1    0    0  501  502  0.00000000000E+00  0.00000000000E+00  0.22530888640E+03  0.22530888640E+03  0.00000000000E+00 0.  1.
          1   -1    0    0  504    0 -0.00000000000E+00 -0.00000000000E+00 -0.18253018637E+04  0.18253018637E+04  0.00000000000E+00 0. -1.
         21    1    1    2  503  502  0.82399511174E+02  0.19090962686E+02  0.95548623982E+02  0.12760753835E+03  0.00000000000E+00 0.  1.
         21    1    1    2  504  505 -0.84317429203E+01  0.50666009301E+02 -0.46828023969E+03  0.47108865585E+03  0.00000000000E+00 0.  1.
         21    1    1    2  505  503  0.57223449298E+02  0.72091339021E+02  0.85131123880E+02  0.12537540654E+03  0.00000000000E+00 0.  1.
          1    1    1    2  501    0 -0.13119121755E+03 -0.14184831101E+03 -0.13123924855E+04  0.13265391494E+04  0.00000000000E+00 0. -1.
<scales pt_clust_3="56.94273" pt_clust_4="51.36282" pt_clust_5="56.94273" pt_clust_6="167.31489"></scales>
<clustering>
<clus scale="   51.363">  2  4  1 -1</clus>
<clus scale="   56.943">  3  5 -1 -1</clus>
<clus scale="  167.315">  2  6  1 -1</clus>
<clus scale="  177.597">  1  3  2 -1</clus>
</clustering>
</event>
<event>
 6    0  0.1230761E+002  0.2183173E+03  0.7546771E-02  0.1135144E+00
         21   -1    0    0  503  502  0.00000000000E+00  0.00000000000E+00  0.16913254632E+04  0.16913254632E+04  0.00000000000E+00 0. -1.
          2   -1    0    0  505    0 -0.00000000000E+00 -0.00000000000E+00 -0.53994503039E+03  0.53994503039E+03  0.00000000000E+00 0. -1.
         21    1    1    2  503  504 -0.13522148435E+03 -0.60655117322E+02  0.13630212196E+04  0.13710546080E+04  0.00000000000E+00 0. -1.
         21    1    1    2  504  501 -0.32164211980E+02 -0.52591026372E+02  0.29856809522E+03  0.30486597066E+03  0.00000000000E+00 0.  1.
         21    1    1    2  505  502  0.39142996771E+02 -0.10342519784E+02 -0.77944078373E+02  0.87831778219E+02  0.00000000000E+00 0.  1.
          2    1    1    2  501    0  0.12824269956E+03  0.12358866348E+03 -0.43226480360E+03  0.46751813672E+03  0.00000000000E+00 0. -1.
<scales pt_clust_3="53.93035" pt_clust_4="53.93035" pt_clust_5="40.48632" pt_clust_6="201.67882"></scales>
<clustering>
<clus scale="   40.486">  2  5  1 -1</clus>
<clus scale="   53.930">  3  4 -1 -1</clus>
<clus scale="  201.679">  2  6  1 -1</clus>
<clus scale="  218.317">  1  3  2 -1</clus>
</clustering>
</event>
<event>
 6    0  0.1230761E+002  0.1272476E+03  0.7546771E-02  0.1231598E+00
         21   -1    0    0  503  502  0.00000000000E+00  0.00000000000E+00  0.52983991579E+03  0.52983991579E+03  0.00000000000E+00 0. -1.
          2   -1    0    0  505    0 -0.00000000000E+00 -0.00000000000E+00 -0.44858934957E+04  0.44858934957E+04  0.00000000000E+00 0.  1.
         21    1    1    2  503  504 -0.35732376650E+02  0.15019292209E+02  0.35148982832E+03  0.35362053291E+03  0.00000000000E+00 0. -1.
         21    1    1    2  504  501  0.47675439780E+02  0.37496400602E+02  0.16820039894E+03  0.17880240999E+03  0.00000000000E+00 0. -1.
         21    1    1    2  505  502 -0.13097791481E+03 -0.47494754560E+02 -0.26796829245E+04  0.26833023575E+04  0.00000000000E+00 0.  1.
          2    1    1    2  501    0  0.11903485168E+03 -0.50209382499E+01 -0.17960608826E+04  0.18000081110E+04  0.00000000000E+00 0.  1.
<scales pt_clust_3="38.76057" pt_clust_4="53.71935" pt_clust_5="14000.00000" pt_clust_6="127.24761"></scales>
<clustering>
<clus scale="   38.761">  1  3  2 -1</clus>
<clus scale="   53.719">  1  4  2 -1</clus>
<clus scale="  127.248">  1  6  2 -1</clus>
<clus scale="   38.761">  1  3  2 -1</clus>
</clustering>
</event>
<event>
 6    0  0.2076489E+002  0.8110917E+02  0.7546771E-02  0.1325933E+00
         -3   -1    0    0    0  501 -0.00000000000E+00  0.00000000000E+00  0.81343653968E+03  0.81343653968E+03  0.00000000000E+00 0.  1.
         21   -1    0    0  504  502  0.00000000000E+00 -0.00000000000E+00 -0.20349555992E+04  0.20349555992E+04  0.00000000000E+00 0. -1.
         21    1    1    2  503  501 -0.30441051877E+02 -0.19702961893E+01  0.19100751207E+02  0.35991365674E+02  0.00000000000E+00 0. -1.
         21    1    1    2  504  503  0.59647879997E+02  0.61271170165E+02 -0.22174191290E+03  0.23765837208E+03  0.00000000000E+00 0. -1.
         21    1    1    2  505  502 -0.82918759085E+02 -0.44915590991E+01 -0.17939548341E+04  0.17958757311E+04  0.00000000000E+00 0. -1.
         -3    1    1    2    0  505  0.53711930965E+02 -0.54809314877E+02  0.77507693628E+03  0.77886667003E+03  0.00000000000E+00 0.  1.
<scales pt_clust_3="30.50475" pt_clust_4="14000.00000" pt_clust_5="81.10917" pt_clust_6="61.47452"></scales>
<clustering>
<clus scale="   30.505">  1  3  2 -1</clus>
<clus scale="   61.475">  1  6  2 -1</clus>
<clus scale="   81.109">  2  5  1 -1</clus>
<clus scale="   81.109">  2  3  1 -1</clus>
</clustering>
</event>
<event>
 6    0  0.1230761E+002  0.1462045E+03  0.7546771E-02  0.1205216E+00
         21   -1    0    0  503  502  0.00000000000E+00  0.00000000000E+00  0.13882345926E+03  0.13882345926E+03  0.00000000000E+00 0.  1.
         -3   -1    0    0    0  501 -0.00000000000E+00 -0.00000000000E+00 -0.12179407231E+04  0.12179407231E+04  0.00000000000E+00 0. -1.
         21    1    1    2  503  504  0.21611678132E+02 -0.15847114593E+03  0.64022912178E+02  0.17227623750E+03  0.00000000000E+00 0.  1.
         21    1    1    2  504  501 -0.25211730649E+02 -0.26027095247E+02 -0.98065221099E+02  0.10454582076E+03  0.00000000000E+00 0.  1.
         21    1    1    2  505  502 -0.47721571594E+02  0.18448911457E+02 -0.56571308690E+02  0.76275970634E+02  0.00000000000E+00 0.  1.
         -3    1    1    2    0  505  0.51321624111E+02  0.16604932971E+03 -0.98850364624E+03  0.10036661535E+04  0.00000000000E+00 0. -1.
<scales pt_clust_3="146.20451" pt_clust_4="36.23591" pt_clust_5="52.04200" pt_clust_6="14000.00000"></scales>
<clustering>
<clus scale="   36.236">  2  4  1 -1</clus>
<clus scale="   52.042">  1  5  2 -1</clus>
<clus scale="  146.205">  1  3  2 -1</clus>
<clus scale="   52.042">  1  3  2 -1</clus>
</clustering>
</event>
<event>
 6    0  0.1230761E+002  0.5445584E+02  0.7546771E-02  0.1422690E+00
          2   -1    0    0  503    0 -0.00000000000E+00  0.00000000000E+00  0.12136276284E+04  0.12136276284E+04  0.00000000000E+00 0.  1.
         21   -1    0    0  504  502  0.00000000000E+00 -0.00000000000E+00 -0.84929936937E+03  0.84929936937E+03  0.00000000000E+00 0. -1.
         21    1    1    2  503  505  0.35781352746E+02  0.24810626674E+02  0.13971628993E+03  0.14634382144E+03  0.00000000000E+00 0. -1.
         21    1    1    2  504  501 -0.46027344284E+01 -0.43150965895E+02 -0.25548083266E+02  0.50357676480E+02  0.00000000000E+00 0.  1.
         21    1    1    2  505  502  0.36567521065E+02  0.86267184879E+02 -0.80312916854E+03  0.80857632426E+03  0.00000000000E+00 0. -1.
          2    1    1    2  501    0 -0.67746139382E+02 -0.67926845658E+02  0.10532892209E+04  0.10576491756E+04  0.00000000000E+00 0.  1.
<scales pt_clust_3="43.42595" pt_clust_4="43.39575" pt_clust_5="14000.00000" pt_clust_6="54.45584"></scales>
<clustering>
<clus scale="   43.396">  2  4  1 -1</clus>
<clus scale="   43.426">  1  3  2 -1</clus>
<clus scale="   54.456">  1  6  2 -1</clus>
<clus scale="   43.396">  2  3  1 -1</clus>
</clustering>
</event>
<event>
 6    0  0.1230761E+002  0.9986253E+02  0.7546771E-02  0.1280585E+00
         21   -1    0    0  503  502  0.00000000000E+00  0.00000000000E+00  0.23613845198E+03  0.23613845198E+03  0.00000000000E+00 0.  1.
          2   -1    0    0  504    0 -0.00000000000E+00 -0.00000000000E+00 -0.21833054998E+03  0.21833054998E+03  0.00000000000E+00 0.  1.
         21    1    1    2  503  501 -0.53604494636E+02  0.40274011894E+02  0.42921799511E+02  0.79609790556E+02  0.00000000000E+00 0.  1.
         21    1    1    2  504  505 -0.38886773895E+02  0.88665459377E+01 -0.12252182081E+03  0.12885027511E+03  0.00000000000E+00 0.  1.
         21    1    1    2  505  502 -0.59741768343E+02 -0.35712965561E+02  0.51022015671E+02  0.86300294768E+02  0.00000000000E+00 0.  1.
          2    1    1    2  501    0  0.15223303687E+03 -0.13427592270E+02  0.46385907629E+02  0.15970864152E+03  0.00000000000E+00 0.  1.
<scales pt_clust_3="74.32832" pt_clust_4="39.88479" pt_clust_5="99.86253" pt_clust_6="14000.00000"></scales>
<clustering>
<clus scale="   39.885">  2  4  1 -1</clus>
<clus scale="   74.328">  1  3  2 -1</clus>
<clus scale="   99.863">  1  5  2 -1</clus>
<clus scale="   74.328">  1  3  2 -1</clus>
</clustering>
</event>
<event>
 6    0  0.1230761E+002  0.1090409E+03  0.7546771E-02  0.1262356E+00
          2   -1    0    0  505    0 -0.00000000000E+00  0.00000000000E+00  0.17998098226E+04  0.17998098226E+04  0.00000000000E+00 0. -1.
         21   -1    0    0  501  502  0.00000000000E+00 -0.00000000000E+00 -0.16732233971E+03  0.16732233971E+03  0.00000000000E+00 0. -1.
         21    1    1    2  503  502 -0.26678749369E+02  0.32574791627E+02 -0.51163748933E+02  0.66261617263E+02  0.00000000000E+00 0. -1.
         21    1    1    2  504  503 -0.27044744301E+02  0.64115700880E+02  0.29874922473E+01  0.69650315172E+02  0.00000000000E+00 0. -1.
         21    1    1    2  505  504 -0.10682012590E+03 -0.16673467992E+02  0.16447269248E+04  0.16482764334E+04  0.00000000000E+00 0. -1.
          2    1    1    2  501    0  0.16054361957E+03 -0.80017024514E+02  0.35936814762E+02  0.18294379643E+03  0.00000000000E+00 0. -1.
<scales pt_clust_3="42.10550" pt_clust_4="82.06091" pt_clust_5="109.04091" pt_clust_6="14000.00000"></scales>
<clustering>
<clus scale="   42.105">  2  3  1 -1</clus>
<clus scale="   82.061">  2  4  1 -1</clus>
<clus scale="  109.041">  1  5  2 -1</clus>
<clus scale="   42.105">  2  3  1 -1</clus>
</clustering>
</event>
<event>
 6    0  0.1230761E+002  0.8062868E+02  0.7546771E-02  0.1327277E+00
          1   -1    0    0  503    0 -0.00000000000E+00  0.00000000000E+00  0.31433658540E+03  0.31433658540E+03  0.00000000000E+00 0. -1.
         21   -1    0    0  504  502  0.00000000000E+00 -0.00000000000E+00 -0.23909115910E+03  0.23909115910E+03  0.00000000000E+00 0.  1.
         21    1    1    2  503  505  0.42814363387E+01  0.53276284875E+02  0.13831975926E+03  0.14828704943E+03  0.00000000000E+00 0.  1.
         21    1    1    2  504  501  0.59712658320E+02  0.20422247926E+02 -0.66222402546E+02  0.91477190451E+02  0.00000000000E+00 0.  1.
         21    1    1    2  505  502  0.24739997145E+02 -0.19940887034E+02 -0.13624372290E+03  0.13990017321E+03  0.00000000000E+00 0.  1.
          1    1    1    2  501    0 -0.88734091803E+02 -0.53757645766E+02  0.13939179249E+03  0.17376333140E+03  0.00000000000E+00 0. -1.
<scales pt_clust_3="52.58118" pt_clust_4="14000.00000" pt_clust_5="31.77588" pt_clust_6="80.62868"></scales>
<clustering>
<clus scale="   31.776">  2  5  1 -1</clus>
<clus scale="   52.581">  1  3  2 -1</clus>
<clus scale="   80.629">  1  6  2 -1</clus>
<clus scale="   31.776">  2  3  1 -1</clus>
</clustering>
</event>
<event>
 6    0  0.1230761E+002  0.6353331E+02  0.7546771E-02  0.1383575E+00
          2   -1    0    0  504    0 -0.00000000000E+00  0.00000000000E+00  0.14051428309E+04  0.14051428309E+04  0.00000000000E+00 0. -1.
         21   -1    0    0  505  502  0.00000000000E+00 -0.00000000000E+00 -0.33326808612E+03  0.33326808612E+03  0.00000000000E+00 0. -1.
         21    1    1    2  503  502 -0.72003327292E+02  0.32446287603E+02 -0.13253886980E+03  0.15428477802E+03  0.00000000000E+00 0. -1.
         21    1    1    2  504  503  0.32310883128E+01  0.37888673883E+02  0.71155122061E+03  0.71256658011E+03  0.00000000000E+00 0. -1.
         21    1    1    2  505  501  0.59567959801E+02  0.84360406526E+01 -0.18218905492E+03  0.19186547462E+03  0.00000000000E+00 0. -1.
          2    1    1    2  501    0  0.92042791785E+01 -0.78771002139E+02  0.67505144890E+03  0.67969408427E+03  0.00000000000E+00 0. -1.
<scales pt_clust_3="63.53331" pt_clust_4="38.02620" pt_clust_5="14000.00000" pt_clust_6="43.53333"></scales>
<clustering>
<clus scale="   38.026">  1  4  2 -1</clus>
<clus scale="   43.533">  1  6  2 -1</clus>
<clus scale="   63.533">  1  3  2 -1</clus>
<clus scale="   63.533">  2  3  1 -1</clus>
</clustering>
</event>
<event>
 6    0  0.1230761E+002  0.6663744E+02  0.7546771E-02  0.1371916E+00
         21   -1    0    0  505  502  0.00000000000E+00  0.00000000000E+00  0.45367041708E+03  0.45367041708E+03  0.00000000000E+00 0.  1.
          1   -1    0    0  503    0 -0.00000000000E+00 -0.00000000000E+00 -0.29733217142E+04  0.29733217142E+04  0.00000000000E+00 0.  1.
         21    1    1    2  503  502 -0.58015534514E+01 -0.51824724192E+02 -0.27362442267E+03  0.27854942962E+03  0.00000000000E+00 0.  1.
         21    1    1    2  504  501 -0.42100785445E+02  0.47855066257E+02  0.38373831232E+03  0.38899572728E+03  0.00000000000E+00 0.  1.
         21    1    1    2  505  504 -0.24668575297E+02 -0.45735406910E+02  0.53592109031E+02  0.74648377094E+02  0.00000000000E+00 0.  1.
          1    1    1    2  501    0  0.72570914193E+02  0.49705064845E+02 -0.26833572958E+04  0.26847985973E+04  0.00000000000E+00 0.  1.
<scales pt_clust_3="52.45325" pt_clust_4="66.63744" pt_clust_5="51.96408" pt_clust_6="14000.00000"></scales>
<clustering>
<clus scale="   51.964">  1  5  2 -1</clus>
<clus scale="   52.453">  2  3  1 -1</clus>
<clus scale="   66.637">  1  4  2 -1</clus>
<clus scale="   51.964">  1  3  2 -1</clus>
</clustering>
</event>
<event>
 6    0  0.1230761E+002  0.1851378E+03  0.7546771E-02  0.1162921E+00
         21   -1    0    0  501  502  0.00000000000E+00  0.00000000000E+00  0.12885032790E+03  0.12885032790E+03  0.00000000000E+00 0.  1.
          1   -1    0    0  504    0 -0.00000000000E+00 -0.00000000000E+00 -0.65335843430E+03  0.65335843430E+03  0.00000000000E+00 0. -1.
         21    1    1    2  503  505  0.55651646577E+02  0.61124339628E+01 -0.17755058199E+02  0.58734229435E+02  0.00000000000E+00 0.  1.
         21    1    1    2  504  503 -0.66127705528E+02  0.16451227847E+03 -0.37584925874E+03  0.41557168877E+03  0.00000000000E+00 0. -1.
         21    1    1    2  505  502  0.62730533131E+00  0.45811141165E+02  0.13220885524E+02  0.47684861129E+02  0.00000000000E+00 0.  1.
          1    1    1    2  501    0  0.98487536202E+01 -0.21643585360E+03 -0.14412467499E+03  0.26021798287E+03  0.00000000000E+00 0. -1.
<scales pt_clust_3="57.93653" pt_clust_4="185.13781" pt_clust_5="45.81544" pt_clust_6="14000.00000"></scales>
<clustering>
<clus scale="   45.815">  1  5  2 -1</clus>
<clus scale="   57.937">  1  3  2 -1</clus>
<clus scale="  185.138">  2  4  1 -1</clus>
<clus scale="   45.815">  1  3  2 -1</clus>
</clustering>
</event>
<event>
 6    0  0.1230761E+002  0.1514581E+03  0.7546771E-02  0.1198693E+00
          1   -1    0    0  504    0 -0.00000000000E+00  0.00000000000E+00  0.93016570521E+03  0.93016570521E+03  0.00000000000E+00 0.  1.
         21   -1    0    0  501  502  0.00000000000E+00 -0.00000000000E+00 -0.62460529835E+03  0.62460529835E+03  0.00000000000E+00 0.  1.
         21    1    1    2  503  502 -0.42859440925E+02 -0.13266358885E+03 -0.51683687605E+03  0.53531011192E+03  0.00000000000E+00 0.  1.
         21    1    1    2  504  505 -0.26367360180E+02  0.43584548098E+02  0.10634820466E+02  0.52037966160E+02  0.00000000000E+00 0.  1.
         21    1    1    2  505  503  0.37841566523E+01  0.94878162596E+02 -0.47140171991E+02  0.10601123240E+03  0.00000000000E+00 0.  1.
          1    1    1    2  501    0  0.65442644453E+02 -0.57991218388E+01  0.85890263443E+03  0.86141169307E+03  0.00000000000E+00 0.  1.
<scales pt_clust_3="137.74826" pt_clust_4="46.12041" pt_clust_5="46.12041" pt_clust_6="65.69908"></scales>
<clustering>
<clus scale="   46.120">  4  5 -1 -1</clus>
<clus scale="   65.699">  1  6  2 -1</clus>
<clus scale="  137.748">  2  3  1 -1</clus>
<clus scale="  137.748">  2  3  1 -1</clus>
</clustering>
</event>
<event>
 6    0  0.1230761E+002  0.1281763E+03  0.7546771E-02  0.1230187E+00
         21   -1    0    0  505  502  0.00000000000E+00  0.00000000000E+00  0.10423528646E+03  0.10423528646E+03  0.00000000000E+00 0. -1.
          2   -1    0    0  503    0 -0.00000000000E+00 -0.00000000000E+00 -0.47102855847E+03  0.47102855847E+03  0.00000000000E+00 0.  1.
         21    1    1    2  503  504 -0.57036000497E+02 -0.16715130919E+01 -0.35086485636E+02  0.66984780234E+02  0.00000000000E+00 0. -1.
         21    1    1    2  504  502  0.13684240925E+01 -0.37565832411E+02 -0.26363096731E+02  0.45913802048E+02  0.00000000000E+00 0. -1.
         21    1    1    2  505  501 -0.56247611707E+02  0.10962558540E+03  0.67751882221E+01  0.12339961901E+03  0.00000000000E+00 0. -1.
          2    1    1    2  501    0  0.11191518811E+03 -0.70388239893E+02 -0.31211887787E+03  0.33896564364E+03  0.00000000000E+00 0.  1.
<scales pt_clust_3="57.36751" pt_clust_4="37.59075" pt_clust_5="14000.00000" pt_clust_6="128.17627"></scales>
<clustering>
<clus scale="   37.591">  1  4  2 -1</clus>
<clus scale="   57.368">  1  3  2 -1</clus>
<clus scale="  128.176">  2  6  1 -1</clus>
<clus scale="   37.591">  1  3  2 -1</clus>
</clustering>
</event>
<event>
 6    0  0.1230761E+002  0.1256714E+03  0.7546771E-02  0.1234024E+00
         21   -1    0    0  501  502  0.00000000000E+00  0.00000000000E+00  0.15831137539E+03  0.15831137539E+03  0.00000000000E+00 0.  1.
          1   -1    0    0  503    0 -0.00000000000E+00 -0.00000000000E+00 -0.30301374459E+04  0.30301374459E+04  0.00000000000E+00 0. -1.
         21    1    1    2  503  504  0.26351822994E+02 -0.56187268890E+02 -0.12343692579E+04  0.12359283525E+04  0.00000000000E+00 0.  1.
         21    1    1    2  504  505  0.26168993914E+02 -0.97841735539E+02  0.11494041429E+03  0.15319634556E+03  0.00000000000E+00 0.  1.
         21    1    1    2  505  502 -0.14308903468E+02 -0.26893457546E+02  0.61532893532E+01  0.31078380703E+02  0.00000000000E+00 0.  1.
          1    1    1    2  501    0 -0.38211913441E+02  0.18092246197E+03 -0.17585505163E+04  0.17682457425E+04  0.00000000000E+00 0. -1.
<scales pt_clust_3="62.16199" pt_clust_4="14000.00000" pt_clust_5="30.46314" pt_clust_6="125.67138"></scales>
<clustering>
<clus scale="   30.463">  1  5  2 -1</clus>
<clus scale="   62.162">  2  3  1 -1</clus>
<clus scale="  125.671">  2  6  1 -1</clus>
<clus scale="   30.463">  1  3  2 -1</clus>
</clustering>
</event>
<event>
 6    0  0.1230761E+002  0.2281486E+03  0.7546771E-02  0.1127950E+00
         -4   -1    0    0    0  501 -0.00000000000E+00  0.00000000000E+00  0.37690907178E+03  0.37690907178E+03  0.00000000000E+00 0. -1.
         21   -1    0    0  505  502  0.00000000000E+00 -0.00000000000E+00 -0.30522110713E+03  0.30522110713E+03  0.00000000000E+00 0. -1.
         21    1    1    2  503  502  0.11868192073E+02  0.50921138241E+02 -0.66504415095E+02  0.84597006625E+02  0.00000000000E+00 0. -1.
         21    1    1    2  504  503  0.24324412675E+02  0.46126721249E+02 -0.30111491571E+02  0.60216720184E+02  0.00000000000E+00 0. -1.
         21    1    1    2  505  501  0.21291634189E+03  0.16383494564E+02  0.15389017085E+03  0.26321848761E+03  0.00000000000E+00 0. -1.
         -4    1    1    2    0  504 -0.24910894664E+03 -0.11343135405E+03  0.14413700468E+02  0.27409796449E+03  0.00000000000E+00 0. -1.
<scales pt_clust_3="107.87206" pt_clust_4="30.09625" pt_clust_5="228.14857" pt_clust_6="14000.00000"></scales>
<clustering>
<clus scale="   30.096">  3  4 -1 -1</clus>
<clus scale="  107.872">  2  3  1 -1</clus>
<clus scale="  228.149">  1  5  2 -1</clus>
<clus scale="  107.872">  2  3  1 -1</clus>
</clustering>
</event>
<event>
 6    0  0.1230761E+002  0.1157781E+03  0.7546771E-02  0.1250229E+00
         -1   -1    0    0    0  501 -0.00000000000E+00  0.00000000000E+00  0.94143677894E+03  0.94143677894E+03  0.00000000000E+00 0. -1.
         21   -1    0    0  505  502  0.00000000000E+00 -0.00000000000E+00 -0.57754200340E+03  0.57754200340E+03  0.00000000000E+00 0.  1.
         21    1    1    2  503  501 -0.18418865037E+02 -0.25752134978E+02  0.36527018274E+02  0.48338908854E+02  0.00000000000E+00 0. -1.
         21    1    1    2  504  502  0.14767309958E+03  0.16000115713E+02 -0.51598799084E+03  0.53694222663E+03  0.00000000000E+00 0.  1.
         21    1    1    2  505  503 -0.33066168632E+02 -0.10836349592E+01 -0.36079287804E+02  0.48951616737E+02  0.00000000000E+00 0.  1.
         -1    1    1    2    0  504 -0.96188065912E+02  0.10835654224E+02  0.87943503591E+03  0.88474603012E+03  0.00000000000E+00 0. -1.
<scales pt_clust_3="31.66113" pt_clust_4="14000.00000" pt_clust_5="33.22224" pt_clust_6="115.77814"></scales>
<clustering>
<clus scale="   31.661">  1  3  2 -1</clus>
<clus scale="   33.222">  2  5  1 -1</clus>
<clus scale="  115.778">  1  6  2 -1</clus>
<clus scale="   33.222">  2  3  1 -1</clus>
</clustering>
</event>
<event>
 6    0  0.1230761E+002  0.1178309E+03  0.7546771E-02  0.1246719E+00
          2   -1    0    0  503    0 -0.00000000000E+00  0.00000000000E+00  0.35622757400E+04  0.35622757400E+04  0.00000000000E+00 0. -1.
         21   -1    0    0  504  502  0.00000000000E+00 -0.00000000000E+00 -0.14410405304E+03  0.14410405304E+03  0.00000000000E+00 0. -1.
         21    1    1    2  503  505  0.21825107205E+02 -0.89017570497E+02  0.84203542712E+03  0.84700892774E+03  0.00000000000E+00 0.  1.
         21    1    1    2  504  501  0.80086715638E+02  0.73116486345E+02 -0.11001075123E+03  0.15447416607E+03  0.00000000000E+00 0. -1.
         21    1    1    2  505  502  0.31668793709E+02 -0.32961540543E+02  0.62680579215E+02  0.77577256078E+02  0.00000000000E+00 0.  1.
          2    1    1    2  501    0 -0.13358061655E+03  0.48862624695E+02  0.26234664319E+04  0.26273194432E+04  0.00000000000E+00 0. -1.
<scales pt_clust_3="92.37476" pt_clust_4="14000.00000" pt_clust_5="45.70969" pt_clust_6="117.83086"></scales>
<clustering>
<clus scale="   45.710">  2  5  1 -1</clus>
<clus scale="   92.375">  1  3  2 -1</clus>
<clus scale="  117.831">  1  6  2 -1</clus>
<clus scale="   45.710">  2  3  1 -1</clus>
</clustering>
</event>
<event>
 6    0  0.1230761E+002  0.1143999E+03  0.7546771E-02  0.1252632E+00
          2   -1    0    0  505    0 -0.00000000000E+00  0.00000000000E+00  0.17356457587E+04  0.17356457587E+04  0.00000000000E+00 0.  1.
         21   -1    0    0  504  502  0.00000000000E+00 -0.00000000000E+00 -0.11077339290E+03  0.11077339290E+03  0.00000000000E+00 0. -1.
         21    1    1    2  503  502 -0.28125362118E+02  0.16862492946E+02 -0.16484231768E+02  0.36702991153E+02  0.00000000000E+00 0. -1.
         21    1    1    2  504  501  0.71919579104E+02  0.89591344824E+02 -0.37057849284E+02  0.12071586109E+03  0.00000000000E+00 0. -1.
         21    1    1    2  505  503 -0.36481871886E+02  0.15753343557E+01  0.93288533399E+02  0.10018063245E+03  0.00000000000E+00 0.  1.
          2    1    1    2  501    0 -0.73123451003E+01 -0.10802917213E+03  0.15851259135E+04  0.15888196669E+04  0.00000000000E+00 0.  1.
<scales pt_clust_3="32.79298" pt_clust_4="14000.00000" pt_clust_5="37.70137" pt_clust_6="114.39990"></scales>
<clustering>
<clus scale="   32.793">  2  3  1 -1</clus>
<clus scale="   37.701">  1  5  2 -1</clus>
<clus scale="  114.400">  1  6  2 -1</clus>
<clus scale="   32.793">  2  3  1 -1</clus>
</clustering>
</event>
<event>
 6    0  0.1230761E+002  0.1481284E+03  0.7546771E-02  0.1202792E+00
         21   -1    0    0  504  502  0.00000000000E+00  0.00000000000E+00  0.10128755411E+04  0.10128755411E+04  0.00000000000E+00 0.  1.
         -3   -1    0    0    0  501 -0.00000000000E+00 -0.00000000000E+00 -0.62127355036E+03  0.62127355036E+03  0.00000000000E+00 0. -1.
         21    1    1    2  503  505  0.94764504259E+02  0.44460232569E+02  0.10605388101E+02  0.10521168093E+03  0.00000000000E+00 0. -1.
         21    1    1    2  504  501 -0.86989477469E+02 -0.75464911779E+02  0.81055659599E+03  0.81869659668E+03  0.00000000000E+00 0.  1.
         21    1    1    2  505  502 -0.48447626247E+02 -0.19286958880E+02  0.13358066316E+03  0.14339788297E+03  0.00000000000E+00 0.  1.
         -3    1    1    2    0  503  0.40672599457E+02  0.50291638090E+02 -0.56314065654E+03  0.56684293085E+03  0.00000000000E+00 0. -1.
<scales pt_clust_3="148.12837" pt_clust_4="14000.00000" pt_clust_5="52.14556" pt_clust_6="64.58383"></scales>
<clustering>
<clus scale="   52.146">  1  5  2 -1</clus>
<clus scale="   64.584">  2  6  1 -1</clus>
<clus scale="  148.128">  2  3  1 -1</clus>
<clus scale="   52.146">  1  3  2 -1</clus>
</clustering>
</event>
<event>
 6    0  0.1230761E+002  0.1086394E+03  0.7546771E-02  0.1263110E+00
          2   -1    0    0  505    0 -0.00000000000E+00  0.00000000000E+00  0.12485733568E+04  0.12485733568E+04  0.00000000000E+00 0. -1.
         21   -1    0    0  501  502  0.00000000000E+00 -0.00000000000E+00 -0.16512959359E+02  0.16512959359E+02  0.00000000000E+00 0. -1.
         21    1    1    2  503  504 -0.29361621123E+02 -0.28549923063E+02  0.32362247510E+03  0.32620347835E+03  0.00000000000E+00 0. -1.
         21    1    1    2  504  502  0.23544605458E+02 -0.39824398076E+02  0.86178504647E+02  0.97811378640E+02  0.00000000000E+00 0.  1.
         21    1    1    2  505  503  0.13125648544E+01 -0.54140351844E+02  0.26749356422E+03  0.27292069805E+03  0.00000000000E+00 0. -1.
          2    1    1    2  501    0  0.45044508109E+01  0.12251467298E+03  0.55476585349E+03  0.56815076113E+03  0.00000000000E+00 0. -1.
<scales pt_clust_3="37.97672" pt_clust_4="46.26371" pt_clust_5="37.97672" pt_clust_6="99.47539"></scales>
<clustering>
<clus scale="   37.977">  3  5 -1 -1</clus>
<clus scale="   46.264">  2  4  1 -1</clus>
<clus scale="   99.475">  2  6  1 -1</clus>
<clus scale="   46.264">  2  3  1 -1</clus>
</clustering>
</event>
<event>
 6    0  0.1230761E+002  0.8517896E+02  0.7546771E-02  0.1314965E+00
          2   -1    0    0  505    0 -0.00000000000E+00  0.00000000000E+00  0.16678623402E+04  0.16678623402E+04  0.00000000000E+00 0.  1.
         21   -1    0    0  501  502  0.00000000000E+00 -0.00000000000E+00 -0.16736898361E+02  0.16736898361E+02  0.00000000000E+00 0.  1.
         21    1    1    2  503  504 -0.61404926349E+02 -0.31412400508E+02  0.18561091842E+03  0.19801191106E+03  0.00000000000E+00 0.  1.
         21    1    1    2  504  502 -0.36941965419E+02  0.48525111309E+02  0.11332641654E+03  0.12869449065E+03  0.00000000000E+00 0.  1.
         21    1    1    2  505  503  0.92960578318E+01 -0.32244832535E+02  0.31697125204E+03  0.31874271841E+03  0.00000000000E+00 0. -1.
          2    1    1    2  501    0  0.89050833937E+02  0.15132121734E+02  0.10352168549E+04  0.10391501185E+04  0.00000000000E+00 0.  1.
<scales pt_clust_3="14000.00000" pt_clust_4="58.19253" pt_clust_5="33.55810" pt_clust_6="85.17896"></scales>
<clustering>
<clus scale="   33.558">  1  5  2 -1</clus>
<clus scale="   58.193">  2  4  1 -1</clus>
<clus scale="   85.179">  1  6  2 -1</clus>
<clus scale="   58.193">  2  3  1 -1</clus>
</clustering>
</event>
<event>
 6    0  0.1230761E+002  0.2336593E+03  0.7546771E-02  0.1124090E+00
         21   -1    0    0  503  502  0.00000000000E+00  0.00000000000E+00  0.51820998936E+02  0.51820998936E+02  0.00000000000E+00 0. -1.
          2   -1    0    0  505    0 -0.00000000000E+00 -0.00000000000E+00 -0.35403723786E+04  0.35403723786E+04  0.00000000000E+00 0. -1.
         21    1    1    2  503  501  0.69551443622E+02 -0.35459199801E+02 -0.30315792877E+03  0.31304869899E+03  0.00000000000E+00 0. -1.
         21    1    1    2  504  502  0.12334911043E+03  0.66446264801E+02 -0.11010120057E+03  0.17819198500E+03  0.00000000000E+00 0. -1.
         21    1    1    2  505  504  0.27304418815E+02  0.43158822118E+02 -0.69779876757E+02  0.86472229147E+02  0.00000000000E+00 0. -1.
          2    1    1    2  501    0 -0.22020497286E+03 -0.74145887118E+02 -0.30055123735E+04  0.30144804644E+04  0.00000000000E+00 0. -1.
<scales pt_clust_3="78.06893" pt_clust_4="32.95920" pt_clust_5="32.95920" pt_clust_6="227.19262"></scales>
<clustering>
<clus scale="   32.959">  4  5 -1 -1</clus>
<clus scale="   78.069">  1  3  2 -1</clus>
<clus scale="  227.193">  2  6  1 -1</clus>
<clus scale="   78.069">  1  3  2 -1</clus>
</clustering>
</event>
<event>
 6    0  0.1230761E+002  0.2173601E+03  0.7546771E-02  0.1135867E+00
          2   -1    0    0  504    0 -0.00000000000E+00  0.00000000000E+00  0.20674992563E+04  0.20674992563E+04  0.00000000000E+00 0. -1.
         21   -1    0    0  503  502  0.00000000000E+00 -0.00000000000E+00 -0.11216266129E+03  0.11216266129E+03  0.00000000000E+00 0. -1.
         21    1    1    2  503  501  0.18623129743E+03 -0.43070493044E+02  0.84822899686E+02  0.20912218396E+03  0.00000000000E+00 0. -1.
         21    1    1    2  504  505  0.16004512031E+02 -0.35165369897E+02  0.46888664370E+03  0.47047575101E+03  0.00000000000E+00 0. -1.
         21    1    1    2  505  502  0.29749972559E+02  0.76746396196E+01 -0.33000594431E+02  0.45088803414E+02  0.00000000000E+00 0. -1.
          2    1    1    2  501    0 -0.23198578202E+03  0.70561223321E+02  0.14346276461E+04  0.14549751792E+04  0.00000000000E+00 0. -1.
<scales pt_clust_3="217.36011" pt_clust_4="38.69550" pt_clust_5="30.72395" pt_clust_6="14000.00000"></scales>
<clustering>
<clus scale="   30.724">  2  5  1 -1</clus>
<clus scale="   38.695">  1  4  2 -1</clus>
<clus scale="  217.360">  2  3  1 -1</clus>
<clus scale="   30.724">  2  3  1 -1</clus>
</clustering>
</event>
<event>
 6    0  0.1230761E+002  0.1348682E+03  0.7546771E-02  0.1220406E+00
         21   -1    0    0  504  502  0.00000000000E+00  0.00000000000E+00  0.20606280023E+03  0.20606280023E+03  0.00000000000E+00 0.  1.
          4   -1    0    0  503    0 -0.00000000000E+00 -0.00000000000E+00 -0.54171603959E+03  0.54171603959E+03  0.00000000000E+00 0.  1.
         21    1    1    2  503  502 -0.61425194325E+02 -0.28996257447E+02 -0.13242394966E+03  0.14882855871E+03  0.00000000000E+00 0. -1.
         21    1    1    2  504  505  0.55210249296E+02 -0.68125727280E+02  0.13818821098E+03  0.16366205424E+03  0.00000000000E+00 0.  1.
         21    1    1    2  505  501  0.18289592297E+02 -0.36558614322E+02  0.23022909874E+02  0.46915837908E+02  0.00000000000E+00 0. -1.
          4    1    1    2  501    0 -0.12074647268E+02  0.13368059905E+03 -0.36444041055E+03  0.38837238896E+03  0.00000000000E+00 0.  1.
<scales pt_clust_3="67.92523" pt_clust_4="30.48087" pt_clust_5="30.48087" pt_clust_6="127.26523"></scales>
<clustering>
<clus scale="   30.481">  4  5 -1 -1</clus>
<clus scale="   67.925">  2  3  1 -1</clus>
<clus scale="  127.265">  2  6  1 -1</clus>
<clus scale="  134.868">  1  3  2 -1</clus>
</clustering>
</event>
<event>
 6    0  0.1230761E+002  0.1530367E+03  0.7546771E-02  0.1196790E+00
         21   -1    0    0  503  502  0.00000000000E+00  0.00000000000E+00  0.36381378848E+03  0.36381378848E+03  0.00000000000E+00 0.  1.
         -4   -1    0    0    0  501 -0.00000000000E+00 -0.00000000000E+00 -0.44342504973E+03  0.44342504973E+03  0.00000000000E+00 0.  1.
         21    1    1    2  503  501 -0.34934564184E+02 -0.39327490073E+02  0.22883324649E+03  0.23480146922E+03  0.00000000000E+00 0.  1.
         21    1    1    2  504  505 -0.12818224536E+03  0.13273929749E+02 -0.75563149788E+02  0.14938766630E+03  0.00000000000E+00 0.  1.
         21    1    1    2  505  502 -0.33570248619E+00 -0.33595317473E+02  0.67792055732E+02  0.75660563523E+02  0.00000000000E+00 0.  1.
         -4    1    1    2    0  504  0.16345251203E+03  0.59648877797E+02 -0.30067341368E+03  0.34738913916E+03  0.00000000000E+00 0.  1.
<scales pt_clust_3="74.79223" pt_clust_4="153.03674" pt_clust_5="33.59699" pt_clust_6="14000.00000"></scales>
<clustering>
<clus scale="   33.597">  1  5  2 -1</clus>
<clus scale="   74.792">  1  3  2 -1</clus>
<clus scale="  153.037">  1  4  2 -1</clus>
<clus scale="   33.597">  1  3  2 -1</clus>
</clustering>
</event>
<event>
 6    0  0.1282355E+002  0.1226941E+03  0.7546771E-02  0.1238718E+00
         -4   -1    0    0    0  501 -0.00000000000E+00  0.00000000000E+00  0.50228809212E+03  0.50228809212E+03  0.00000000000E+00 0.  1.
         21   -1    0    0  505  502  0.00000000000E+00 -0.00000000000E+00 -0.13785381067E+04  0.13785381067E+04  0.00000000000E+00 0.  1.
         21    1    1    2  503  501  0.29749642656E+02 -0.78267271867E+01 -0.56415762374E+01  0.31275010456E+02  0.00000000000E+00 0. -1.
         21    1    1    2  504  502  0.61574381264E+02  0.28518368093E+02 -0.11144345326E+04  0.11164985576E+04  0.00000000000E+00 0.  1.
         21    1    1    2  505  503  0.57417717210E+02  0.55303452513E+01 -0.22927900701E+03  0.23642386094E+03  0.00000000000E+00 0.  1.
         -4    1    1    2    0  504 -0.14874174113E+03 -0.26221986157E+02  0.47310510128E+03  0.49662876978E+03  0.00000000000E+00 0.  1.
<scales pt_clust_3="30.76197" pt_clust_4="14000.00000" pt_clust_5="57.89414" pt_clust_6="122.69413"></scales>
<clustering>
<clus scale="   30.762">  1  3  2 -1</clus>
<clus scale="   57.894">  2  5  1 -1</clus>
<clus scale="  122.694">  1  6  2 -1</clus>
<clus scale="   57.894">  2  3  1 -1</clus>
</clustering>
</event>
<event>
 6    0  0.1230761E+002  0.1828085E+03  0.7546771E-02  0.1165112E+00
         21   -1    0    0  504  502  0.00000000000E+00  0.00000000000E+00  0.19961540693E+03  0.19961540693E+03  0.00000000000E+00 0. -1.
         -2   -1    0    0    0  501 -0.00000000000E+00 -0.00000000000E+00 -0.33558567737E+03  0.33558567737E+03  0.00000000000E+00 0. -1.
         21    1    1    2  503  501 -0.17427358665E+02 -0.41248616386E+02 -0.42815383915E+02  0.61954162762E+02  0.00000000000E+00 0. -1.
         21    1    1    2  504  505  0.15837733046E+02 -0.63758124589E+02  0.16965104359E+02  0.67850917496E+02  0.00000000000E+00 0. -1.
         21    1    1    2  505  503 -0.21605205828E+02 -0.10446590640E+03  0.70472366399E+02  0.12785251247E+03  0.00000000000E+00 0. -1.
         -2    1    1    2    0  502  0.23194831446E+02  0.20947264738E+03 -0.18059235728E+03  0.27754349157E+03  0.00000000000E+00 0. -1.
<scales pt_clust_3="44.77903" pt_clust_4="37.81454" pt_clust_5="37.81454" pt_clust_6="176.34346"></scales>
<clustering>
<clus scale="   37.815">  4  5 -1 -1</clus>
<clus scale="   44.779">  2  3  1 -1</clus>
<clus scale="  176.343">  2  6  1 -1</clus>
<clus scale="  182.809">  1  3  2 -1</clus>
</clustering>
</event>
<event>
 6    0  0.1230761E+002  0.9789803E+02  0.7546771E-02  0.1284779E+00
          1   -1    0    0  503    0 -0.00000000000E+00  0.00000000000E+00  0.71244148639E+03  0.71244148639E+03  0.00000000000E+00 0.  1.
         21   -1    0    0  505  502  0.00000000000E+00 -0.00000000000E+00 -0.11004949540E+03  0.11004949540E+03  0.00000000000E+00 0.  1.
         21    1    1    2  503  504  0.22537760771E+02  0.41145827911E+02  0.89198775527E+02  0.10078368603E+03  0.00000000000E+00 0. -1.
         21    1    1    2  504  502  0.14626230183E+03 -0.40715315481E+02  0.36836938443E+01  0.15186825689E+03  0.00000000000E+00 0.  1.
         21    1    1    2  505  501 -0.84426385350E+02 -0.33483641973E+02  0.54557754210E+02  0.10595054208E+03  0.00000000000E+00 0.  1.
          1    1    1    2  501    0 -0.84373677251E+02  0.33053129542E+02  0.45495176741E+03  0.46388849679E+03  0.00000000000E+00 0.  1.
<scales pt_clust_3="46.91407" pt_clust_4="97.89803" pt_clust_5="86.21703" pt_clust_6="14000.00000"></scales>
<clustering>
<clus scale="   46.914">  1  3  2 -1</clus>
<clus scale="   86.217">  2  5  1 -1</clus>
<clus scale="   97.898">  2  4  1 -1</clus>
<clus scale="   86.217">  2  3  1 -1</clus>
</clustering>
</event>
<event>
 6    0  0.1230761E+002  0.1713439E+03  0.7546771E-02  0.1176454E+00
         21   -1    0    0  504  502  0.00000000000E+00  0.00000000000E+00  0.11051360267E+04  0.11051360267E+04  0.00000000000E+00 0.  1.
          1   -1    0    0  502    0 -0.00000000000E+00 -0.00000000000E+00 -0.35173572771E+03  0.35173572771E+03  0.00000000000E+00 0.  1.
         21    1    1    2  503  505 -0.73179559827E+02 -0.54162933691E+01  0.40461472939E+02  0.83795674129E+02  0.00000000000E+00 0. -1.
         21    1    1    2  504  503 -0.29566170879E+02 -0.33988353280E+02  0.18277456005E+03  0.18824427327E+03  0.00000000000E+00 0.  1.
         21    1    1    2  505  501 -0.66301084012E+02 -0.31151915318E+01  0.83287751003E+03  0.83551809369E+03  0.00000000000E+00 0.  1.
          1    1    1    2  501    0  0.16904681472E+03  0.42519838181E+02 -0.30271324403E+03  0.34931371333E+03  0.00000000000E+00 0.  1.
<scales pt_clust_3="75.57159" pt_clust_4="45.04849" pt_clust_5="171.34394" pt_clust_6="14000.00000"></scales>
<clustering>
<clus scale="   45.048">  1  4  2 -1</clus>
<clus scale="   75.572">  1  3  2 -1</clus>
<clus scale="  171.344">  1  5  2 -1</clus>
<clus scale="   45.048">  1  3  2 -1</clus>
</clustering>
</event>
<event>
 6    0  0.1230761E+002  0.1041941E+03  0.7546771E-02  0.1271716E+00
         21   -1    0    0  501  502  0.00000000000E+00  0.00000000000E+00  0.87120867534E+02  0.87120867534E+02  0.00000000000E+00 0.  1.
          4   -1    0    0  505    0 -0.00000000000E+00 -0.00000000000E+00 -0.36464509199E+03  0.36464509199E+03  0.00000000000E+00 0.  1.
         21    1    1    2  503  502  0.23081320959E+02 -0.45509970555E+02  0.22948815026E+02  0.55951344114E+02  0.00000000000E+00 0.  1.
         21    1    1    2  504  503 -0.21535791479E+02 -0.45118457870E+02  0.94577577227E+01  0.50881379073E+02  0.00000000000E+00 0.  1.
         21    1    1    2  505  504  0.30102804154E+02 -0.20005863956E+02 -0.67037296072E+02  0.76160439043E+02  0.00000000000E+00 0.  1.
          4    1    1    2  501    0 -0.31648333634E+02  0.11063429238E+03 -0.24289350114E+03  0.26877279730E+03  0.00000000000E+00 0.  1.
<scales pt_clust_3="45.27584" pt_clust_4="45.27584" pt_clust_5="36.14434" pt_clust_6="93.32344"></scales>
<clustering>
<clus scale="   36.144">  2  5  1 -1</clus>
<clus scale="   45.276">  3  4 -1 -1</clus>
<clus scale="   93.323">  2  6  1 -1</clus>
<clus scale="  104.194">  1  3  2 -1</clus>
</clustering>
</event>
<event>
 6    0  0.1230761E+002  0.9178438E+02  0.7546771E-02  0.1298587E+00
         21   -1    0    0  503  502  0.00000000000E+00  0.00000000000E+00  0.31020594502E+03  0.31020594502E+03  0.00000000000E+00 0. -1.
          2   -1    0    0  504    0 -0.00000000000E+00 -0.00000000000E+00 -0.72606541756E+03  0.72606541756E+03  0.00000000000E+00 0.  1.
         21    1    1    2  503  505 -0.13451369504E+02 -0.29047514211E+02  0.35730205462E+02  0.47972335838E+02  0.00000000000E+00 0.  1.
         21    1    1    2  504  502 -0.15382886076E+02 -0.26676381994E+02 -0.62642143970E+02  0.69801867750E+02  0.00000000000E+00 0.  1.
         21    1    1    2  505  501  0.10270861961E+03  0.74630144201E+01  0.25162148015E+03  0.27187888186E+03  0.00000000000E+00 0. -1.
          2    1    1    2  501    0 -0.73874364034E+02  0.48260881785E+02 -0.64056901419E+03  0.64661827712E+03  0.00000000000E+00 0.  1.
<scales pt_clust_3="32.29543" pt_clust_4="30.79387" pt_clust_5="14000.00000" pt_clust_6="91.78438"></scales>
<clustering>
<clus scale="   30.794">  2  4  1 -1</clus>
<clus scale="   32.295">  1  3  2 -1</clus>
<clus scale="   91.784">  2  6  1 -1</clus>
<clus scale="   32.295">  1  3  2 -1</clus>
</clustering>
</event>
<event>
 6    0  0.1230761E+002  0.8093514E+02  0.7546771E-02  0.1326418E+00
          4   -1    0    0  504    0 -0.00000000000E+00  0.00000000000E+00  0.22512488825E+04  0.22512488825E+04  0.00000000000E+00 0.  1.
         21   -1    0    0  501  502  0.00000000000E+00 -0.00000000000E+00 -0.44374333592E+02  0.44374333592E+02  0.00000000000E+00 0. -1.
         21    1    1    2  503  502 -0.22524100475E+01 -0.69963753430E+02  0.27777574899E+02  0.75309984812E+02  0.00000000000E+00 0. -1.
         21    1    1    2  504  505  0.27194879532E+01  0.39423602567E+02  0.32390801362E+03  0.32630969544E+03  0.00000000000E+00 0.  1.
         21    1    1    2  505  503  0.82188923517E+02  0.67416641355E+02  0.13686518541E+03  0.17329772548E+03  0.00000000000E+00 0. -1.
          4    1    1    2  501    0 -0.82656001423E+02 -0.36876490492E+02  0.17183237750E+04  0.17207058103E+04  0.00000000000E+00 0.  1.
<scales pt_clust_3="68.94324" pt_clust_4="39.51729" pt_clust_5="80.93514" pt_clust_6="14000.00000"></scales>
<clustering>
<clus scale="   39.517">  1  4  2 -1</clus>
<clus scale="   68.943">  2  3  1 -1</clus>
<clus scale="   80.935">  2  5  1 -1</clus>
<clus scale="   68.943">  2  3  1 -1</clus>
</clustering>
</event>
<event>
 6    0  0.1230761E+002  0.4075611E+03  0.7546771E-02  0.1041193E+00
         21   -1    0    0  503  502  0.00000000000E+00  0.00000000000E+00  0.28454507179E+03  0.28454507179E+03  0.00000000000E+00 0. -1.
          2   -1    0    0  504    0 -0.00000000000E+00 -0.00000000000E+00 -0.19927124974E+04  0.19927124974E+04  0.00000000000E+00 0. -1.
         21    1    1    2  503  501 -0.32077714965E+03  0.97462267656E+02 -0.44177968178E+02  0.33815464839E+03  0.00000000000E+00 0. -1.
         21    1    1    2  504  505  0.14024868455E+02  0.86862565934E+02 -0.11416223587E+03  0.14413472307E+03  0.00000000000E+00 0. -1.
         21    1    1    2  505  502 -0.51437279795E+02  0.40028931692E+02  0.84589988004E+02  0.10678752360E+03  0.00000000000E+00 0. -1.
          2    1    1    2  501    0  0.35818956099E+03 -0.22435376528E+03 -0.16344172095E+04  0.16881806741E+04  0.00000000000E+00 0. -1.
<scales pt_clust_3="407.56108" pt_clust_4="90.58633" pt_clust_5="65.17752" pt_clust_6="14000.00000"></scales>
<clustering>
<clus scale="   65.178">  1  5  2 -1</clus>
<clus scale="   90.586">  1  4  2 -1</clus>
<clus scale="  407.561">  1  3  2 -1</clus>
<clus scale="   65.178">  1  3  2 -1</clus>
</clustering>
</event>
<event>
 6    0  0.1230761E+002  0.1275827E+03  0.7546771E-02  0.1231087E+00
         21   -1    0    0  504  502  0.00000000000E+00  0.00000000000E+00  0.62382170828E+03  0.62382170828E+03  0.00000000000E+00 0. -1.
         -1   -1    0    0    0  501 -0.00000000000E+00 -0.00000000000E+00 -0.12055518564E+04  0.12055518564E+04  0.00000000000E+00 0. -1.
         21    1    1    2  503  502 -0.91929248032E+02 -0.94512731416E+02  0.48478527882E+03  0.50239467514E+03  0.00000000000E+00 0. -1.
         21    1    1    2  504  505  0.10180991666E+03  0.58563840846E+02  0.94174709861E+02  0.15054520438E+03  0.00000000000E+00 0.  1.
         21    1    1    2  505  501  0.34161704443E+02 -0.29497342418E+01 -0.34257918409E+02  0.48469866476E+02  0.00000000000E+00 0. -1.
         -1    1    1    2    0  503 -0.44042373067E+02  0.38898624812E+02 -0.11264322184E+04  0.11279638187E+04  0.00000000000E+00 0. -1.
<scales pt_clust_3="127.58267" pt_clust_4="14000.00000" pt_clust_5="34.28882" pt_clust_6="37.67393"></scales>
<clustering>
<clus scale="   34.289">  2  5  1 -1</clus>
<clus scale="   37.674">  2  6  1 -1</clus>
<clus scale="  127.583">  1  3  2 -1</clus>
<clus scale="  127.583">  1  3  2 -1</clus>
</clustering>
</event>
<event>
 6    0  0.1230761E+002  0.1405468E+03  0.7546771E-02  0.1212595E+00
          2   -1    0    0  504    0 -0.00000000000E+00  0.00000000000E+00  0.91829292553E+03  0.91829292553E+03  0.00000000000E+00 0.  1.
         21   -1    0    0  501  502  0.00000000000E+00 -0.00000000000E+00 -0.10471372217E+03  0.10471372217E+03  0.00000000000E+00 0.  1.
         21    1    1    2  503  505  0.55222251804E+02 -0.64714211709E+02  0.17440692614E+02  0.86842409285E+02  0.00000000000E+00 0.  1.
         21    1    1    2  504  503  0.12596172126E+02  0.30710536789E+02  0.73100475685E+03  0.73175798948E+03  0.00000000000E+00 0.  1.
         21    1    1    2  505  502  0.54366200815E+02 -0.64523380517E+01 -0.95872347550E+01  0.55580855766E+02  0.00000000000E+00 0.  1.
          2    1    1    2  501    0 -0.12218462475E+03  0.40456012972E+02  0.74720988647E+02  0.14882539318E+03  0.00000000000E+00 0.  1.
<scales pt_clust_3="46.57311" pt_clust_4="33.19338" pt_clust_5="46.57311" pt_clust_6="128.86042"></scales>
<clustering>
<clus scale="   33.193">  1  4  2 -1</clus>
<clus scale="   46.573">  3  5 -1 -1</clus>
<clus scale="  128.860">  1  6  2 -1</clus>
<clus scale="  140.547">  2  3  1 -1</clus>
</clustering>
</event>
<event>
 6    0  0.1230761E+002  0.4757843E+03  0.7546771E-02  0.1020300E+00
          2   -1    0    0  503    0 -0.00000000000E+00  0.00000000000E+00  0.86309626551E+03  0.86309626551E+03  0.00000000000E+00 0.  1.
         21   -1    0    0  505  502  0.00000000000E+00 -0.00000000000E+00 -0.15266638781E+04  0.15266638781E+04  0.00000000000E+00 0. -1.
         21    1    1    2  503  502 -0.71298958832E+02 -0.59882701658E+02  0.64341590431E+00  0.93112262739E+02  0.00000000000E+00 0.  1.
         21    1    1    2  504  501  0.67164896348E+02  0.54158138266E+02 -0.13220550195E+03  0.15786868590E+03  0.00000000000E+00 0.  1.
         21    1    1    2  505  504  0.18449847210E+03  0.32674114692E+03 -0.12644695757E+04  0.13189703451E+04  0.00000000000E+00 0. -1.
          2    1    1    2  501    0 -0.18036440961E+03 -0.32101658353E+03  0.73246404913E+03  0.81980884993E+03  0.00000000000E+00 0.  1.
<scales pt_clust_3="93.11004" pt_clust_4="71.01645" pt_clust_5="71.01645" pt_clust_6="452.14727"></scales>
<clustering>
<clus scale="   71.016">  4  5 -1 -1</clus>
<clus scale="   93.110">  1  3  2 -1</clus>
<clus scale="  452.147">  1  6  2 -1</clus>
<clus scale="  475.784">  2  3  1 -1</clus>
</clustering>
</event>
<event>
 6    0  0.1230761E+002  0.8645231E+02  0.7546771E-02  0.1311678E+00
         -3   -1    0    0    0  501 -0.00000000000E+00  0.00000000000E+00  0.12629240153E+03  0.12629240153E+03  0.00000000000E+00 0.  1.
         21   -1    0    0  503  502  0.00000000000E+00 -0.00000000000E+00 -0.55267392447E+03  0.55267392447E+03  0.00000000000E+00 0.  1.
         21    1    1    2  503  505  0.68176301881E+02 -0.14471642138E+02 -0.44935125071E+03  0.45472407357E+03  0.00000000000E+00 0.  1.
         21    1    1    2  504  502  0.25866018746E+02 -0.16075040301E+02 -0.31449971541E+02  0.43778517064E+02  0.00000000000E+00 0.  1.
         21    1    1    2  505  501 -0.64183137136E+02 -0.46079034464E+02  0.58210131703E+02  0.98138534444E+02  0.00000000000E+00 0.  1.
         -3    1    1    2    0  504 -0.29859183491E+02  0.76625716903E+02 -0.37904323878E+01  0.82325200925E+02  0.00000000000E+00 0.  1.
<scales pt_clust_3="14000.00000" pt_clust_4="30.45419" pt_clust_5="78.56761" pt_clust_6="86.45231"></scales>
<clustering>
<clus scale="   30.454">  2  4  1 -1</clus>
<clus scale="   78.568">  1  5  2 -1</clus>
<clus scale="   86.452">  1  6  2 -1</clus>
<clus scale="   30.454">  2  3  1 -1</clus>
</clustering>
</event>
<event>
 6    0  0.1230761E+002  0.1897964E+03  0.7546771E-02  0.1158645E+00
          1   -1    0    0  503    0 -0.00000000000E+00  0.00000000000E+00  0.60265394686E+03  0.60265394686E+03  0.00000000000E+00 0. -1.
         21   -1    0    0  504  502  0.00000000000E+00 -0.00000000000E+00 -0.11720165146E+04  0.11720165146E+04  0.00000000000E+00 0. -1.
         21    1    1    2  503  505 -0.13327863164E+02 -0.66335901668E+02 -0.32135956067E+03  0.32840531515E+03  0.00000000000E+00 0. -1.
         21    1    1    2  504  501 -0.42060504107E+02 -0.73976310287E+02 -0.39885642764E+02  0.93981088460E+02  0.00000000000E+00 0.  1.
         21    1    1    2  505  502  0.12492167367E+02 -0.51065807322E+02 -0.76245949359E+03  0.76426974969E+03  0.00000000000E+00 0. -1.
          1    1    1    2  501    0  0.42896199903E+02  0.19137801928E+03  0.55434212931E+03  0.58801430812E+03  0.00000000000E+00 0. -1.
<scales pt_clust_3="14000.00000" pt_clust_4="91.54833" pt_clust_5="52.57158" pt_clust_6="189.79643"></scales>
<clustering>
<clus scale="   52.572">  2  5  1 -1</clus>
<clus scale="   91.548">  2  4  1 -1</clus>
<clus scale="  189.796">  1  6  2 -1</clus>
<clus scale="   52.572">  2  3  1 -1</clus>
</clustering>
</event>
<event>
 6    0  0.1230761E+002  0.1399347E+03  0.7546771E-02  0.1213417E+00
         21   -1    0    0  505  502  0.00000000000E+00  0.00000000000E+00  0.40119942187E+02  0.40119942187E+02  0.00000000000E+00 0.  1.
          2   -1    0    0  504    0 -0.00000000000E+00 -0.00000000000E+00 -0.17733055934E+04  0.17733055934E+04  0.00000000000E+00 0.  1.
         21    1    1    2  503  502 -0.10211540119E+03 -0.39603581483E+01 -0.77912113650E+02  0.12850500788E+03  0.00000000000E+00 0.  1.
         21    1    1    2  504  503  0.16797455834E+02  0.26715659657E+02 -0.35246962899E+03  0.35387952802E+03  0.00000000000E+00 0. -1.
         21    1    1    2  505  501 -0.35290682781E+02  0.68215564684E+02 -0.15137952822E+03  0.16974851140E+03  0.00000000000E+00 0.  1.
          2    1    1    2  501    0  0.12060862814E+03 -0.90970866193E+02 -0.11514243804E+04  0.11612924883E+04  0.00000000000E+00 0.  1.
<scales pt_clust_3="14000.00000" pt_clust_4="31.55758" pt_clust_5="78.67386" pt_clust_6="139.93475"></scales>
<clustering>
<clus scale="   31.558">  2  4  1 -1</clus>
<clus scale="   78.674">  1  5  2 -1</clus>
<clus scale="  139.935">  2  6  1 -1</clus>
<clus scale="   78.674">  1  3  2 -1</clus>
</clustering>
</event>
<event>
 6    0  0.1230761E+002  0.1975737E+03  0.7546771E-02  0.1151802E+00
         21   -1    0    0  504  502  0.00000000000E+00  0.00000000000E+00  0.52492256317E+03  0.52492256317E+03  0.00000000000E+00 0.  1.
          2   -1    0    0  505    0 -0.00000000000E+00 -0.00000000000E+00 -0.25248921878E+03  0.25248921878E+03  0.00000000000E+00 0. -1.
         21    1    1    2  503  502  0.35374060433E+02 -0.33551797563E+02  0.15276194268E+03  0.16035354191E+03  0.00000000000E+00 0.  1.
         21    1    1    2  504  501 -0.27047171390E+02 -0.39603341719E+02  0.93523347247E+02  0.10510276227E+03  0.00000000000E+00 0.  1.
         21    1    1    2  505  503 -0.88994509319E+02  0.23907007600E+03  0.14410228765E+03  0.29298462969E+03  0.00000000000E+00 0.  1.
          2    1    1    2  501    0  0.80667620276E+02 -0.16591493672E+03 -0.11795423319E+03  0.21897084809E+03  0.00000000000E+00 0. -1.
<scales pt_clust_3="54.42358" pt_clust_4="47.95805" pt_clust_5="197.57368" pt_clust_6="14000.00000"></scales>
<clustering>
<clus scale="   47.958">  1  4  2 -1</clus>
<clus scale="   54.424">  1  3  2 -1</clus>
<clus scale="  197.574">  1  5  2 -1</clus>
<clus scale="   47.958">  1  3  2 -1</clus>
</clustering>
</event>
<event>
 6    0  0.1230761E+002  0.8217702E+02  0.7546771E-02  0.1322984E+00
          1   -1    0    0  504    0 -0.00000000000E+00  0.00000000000E+00  0.49767013542E+03  0.49767013542E+03  0.00000000000E+00 0. -1.
         21   -1    0    0  505  502  0.00000000000E+00 -0.00000000000E+00 -0.77020962838E+02  0.77020962838E+02  0.00000000000E+00 0. -1.
         21    1    1    2  503  501  0.63908582356E+02  0.21792058395E+02  0.16455395118E+03  0.17786850075E+03  0.00000000000E+00 0. -1.
         21    1    1    2  504  502 -0.23697133662E+02 -0.56372804755E+02  0.36539532931E+02  0.71236119536E+02  0.00000000000E+00 0. -1.
         21    1    1    2  505  503 -0.73939908712E+02  0.71398436437E+02  0.24517413058E+01  0.10281467727E+03  0.00000000000E+00 0. -1.
          1    1    1    2  501    0  0.33728460017E+02 -0.36817690078E+02  0.21710394716E+03  0.22277180071E+03  0.00000000000E+00 0. -1.
<scales pt_clust_3="82.17702" pt_clust_4="65.79181" pt_clust_5="14000.00000" pt_clust_6="49.93147"></scales>
<clustering>
<clus scale="   49.931">  1  6  2 -1</clus>
<clus scale="   65.792">  2  4  1 -1</clus>
<clus scale="   82.177">  1  3  2 -1</clus>
<clus scale="   65.792">  2  3  1 -1</clus>
</clustering>
</event>
<event>
 6    0  0.1230761E+002  0.1125530E+03  0.7546771E-02  0.1255914E+00
         21   -1    0    0  505  502  0.00000000000E+00  0.00000000000E+00  0.36357388100E+02  0.36357388100E+02  0.00000000000E+00 0. -1.
          2   -1    0    0  504    0 -0.00000000000E+00 -0.00000000000E+00 -0.14225955716E+04  0.14225955716E+04  0.00000000000E+00 0. -1.
         21    1    1    2  503  502  0.27764105220E+02 -0.13413902756E+03 -0.33891469712E+03  0.36555067525E+03  0.00000000000E+00 0. -1.
         21    1    1    2  504  503 -0.60124828138E+02  0.20909536389E+02 -0.80091262275E+03  0.80343838155E+03  0.00000000000E+00 0. -1.
         21    1    1    2  505  501  0.54382135670E+02  0.21796890016E+02 -0.10200464863E+03  0.11763277365E+03  0.00000000000E+00 0. -1.
          2    1    1    2  501    0 -0.22021412752E+02  0.91432601160E+02 -0.14440621497E+03  0.17233112921E+03  0.00000000000E+00 0. -1.
<scales pt_clust_3="112.55299" pt_clust_4="61.72455" pt_clust_5="58.58772" pt_clust_6="14000.00000"></scales>
<clustering>
<clus scale="   58.588">  1  5  2 -1</clus>
<clus scale="   61.725">  2  4  1 -1</clus>
<clus scale="  112.553">  2  3  1 -1</clus>
<clus scale="   58.588">  1  3  2 -1</clus>
</clustering>
</event>
<event>
 6    0  0.1230761E+002  0.7389730E+02  0.7546771E-02  0.1347320E+00
          2   -1    0    0  503    0 -0.00000000000E+00  0.00000000000E+00  0.73962320317E+03  0.73962320317E+03  0.00000000000E+00 0. -1.
         21   -1    0    0  505  502  0.00000000000E+00 -0.00000000000E+00 -0.40286070756E+03  0.40286070756E+03  0.00000000000E+00 0. -1.
         21    1    1    2  503  504 -0.20492471165E+02  0.50556943001E+02  0.19592139386E+03  0.20337437998E+03  0.00000000000E+00 0. -1.
         21    1    1    2  504  502  0.40724677101E+02 -0.15555685595E+02  0.12194126462E+02  0.45267818585E+02  0.00000000000E+00 0. -1.
         21    1    1    2  505  501 -0.37371593649E+02  0.64442004154E+02 -0.37390763490E+03  0.38125624893E+03  0.00000000000E+00 0. -1.
          2    1    1    2  501    0  0.17139387714E+02 -0.99443261560E+02  0.50255461020E+03  0.51258546323E+03  0.00000000000E+00 0. -1.
<scales pt_clust_3="73.89730" pt_clust_4="43.59448" pt_clust_5="49.29832" pt_clust_6="14000.00000"></scales>
<clustering>
<clus scale="   43.594">  2  4  1 -1</clus>
<clus scale="   49.298">  2  5  1 -1</clus>
<clus scale="   73.897">  1  3  2 -1</clus>
<clus scale="   43.594">  2  3  1 -1</clus>
</clustering>
</event>
<event>
 6    0  0.1230761E+002  0.9025624E+02  0.7546771E-02  0.1302232E+00
         21   -1    0    0  504  502  0.00000000000E+00  0.00000000000E+00  0.18465939024E+03  0.18465939024E+03  0.00000000000E+00 0. -1.
          2   -1    0    0  503    0 -0.00000000000E+00 -0.00000000000E+00 -0.19198706040E+04  0.19198706040E+04  0.00000000000E+00 0.  1.
         21    1    1    2  503  505  0.45747276548E+02  0.31233133016E+02 -0.99904280486E+02  0.11423303887E+03  0.00000000000E+00 0.  1.
         21    1    1    2  504  501  0.10797469242E+03  0.12696530226E+02 -0.43518479699E+02  0.11710505607E+03  0.00000000000E+00 0. -1.
         21    1    1    2  505  502 -0.74680788785E+02  0.52143365060E+02  0.12346828204E+03  0.15342935639E+03  0.00000000000E+00 0. -1.
          2    1    1    2  501    0 -0.79041180179E+02 -0.96073028301E+02 -0.17152567356E+04  0.17197625429E+04  0.00000000000E+00 0.  1.
<scales pt_clust_3="55.39244" pt_clust_4="14000.00000" pt_clust_5="90.25624" pt_clust_6="75.46000"></scales>
<clustering>
<clus scale="   55.392">  2  3  1 -1</clus>
<clus scale="   75.460">  2  6  1 -1</clus>
<clus scale="   90.256">  1  5  2 -1</clus>
<clus scale="   90.256">  1  3  2 -1</clus>
</clustering>
</event>
<event>
 6    0  0.1230761E+002  0.8343143E+02  0.7546771E-02  0.1319586E+00
          2   -1    0    0  505    0 -0.00000000000E+00  0.00000000000E+00  0.34698545509E+03  0.34698545509E+03  0.00000000000E+00 0. -1.
         21   -1    0    0  503  502  0.00000000000E+00 -0.00000000000E+00 -0.27833579556E+03  0.27833579556E+03  0.00000000000E+00 0.  1.
         21    1    1    2  503  501  0.19614409075E+02 -0.64382193816E+02 -0.14417367556E+03  0.15910952407E+03  0.00000000000E+00 0.  1.
         21    1    1    2  504  502 -0.35566978161E+02 -0.70405310682E+01 -0.80620815081E+02  0.88398500200E+02  0.00000000000E+00 0. -1.
         21    1    1    2  505  504  0.93123721350E+02  0.35360262041E+02  0.34818841890E+02  0.10552121758E+03  0.00000000000E+00 0.  1.
          2    1    1    2  501    0 -0.77171152263E+02  0.36062462842E+02  0.25862530829E+03  0.27229200880E+03  0.00000000000E+00 0. -1.
<scales pt_clust_3="70.37118" pt_clust_4="36.25712" pt_clust_5="14000.00000" pt_clust_6="83.43143"></scales>
<clustering>
<clus scale="   36.257">  2  4  1 -1</clus>
<clus scale="   70.371">  2  3  1 -1</clus>
<clus scale="   83.431">  1  6  2 -1</clus>
<clus scale="   36.257">  2  3  1 -1</clus>
</clustering>
</event>
<event>
 6    0  0.1230761E+002  0.1953531E+03  0.7546771E-02  0.1153720E+00
         -1   -1    0    0    0  501 -0.00000000000E+00  0.00000000000E+00  0.59745838513E+03  0.59745838513E+03  0.00000000000E+00 0.  1.
         21   -1    0    0  504  502  0.00000000000E+00 -0.00000000000E+00 -0.96400403481E+03  0.96400403481E+03  0.00000000000E+00 0. -1.
         21    1    1    2  503  505  0.13963745425E+03 -0.54869871882E+02 -0.72893494530E+03  0.74421467061E+03  0.00000000000E+00 0. -1.
         21    1    1    2  504  501 -0.92631901623E+01  0.57133687712E+02  0.91020922614E+02  0.10786506996E+03  0.00000000000E+00 0.  1.
         21    1    1    2  505  502  0.19876008975E+02 -0.41390106157E+02 -0.20410293283E+03  0.20920373756E+03  0.00000000000E+00 0. -1.
         -1    1    1    2    0  503 -0.15025027306E+03  0.39126290327E+02  0.47547130584E+03  0.50017894181E+03  0.00000000000E+00 0.  1.
<scales pt_clust_3="33.81558" pt_clust_4="57.87975" pt_clust_5="33.81558" pt_clust_6="185.54351"></scales>
<clustering>
<clus scale="   33.816">  3  5 -1 -1</clus>
<clus scale="   57.880">  1  4  2 -1</clus>
<clus scale="  185.544">  1  6  2 -1</clus>
<clus scale="  195.353">  2  3  1 -1</clus>
</clustering>
</event>
<event>
 6    0  0.1230761E+002  0.1083293E+03  0.7546771E-02  0.1263695E+00
          2   -1    0    0  505    0 -0.00000000000E+00  0.00000000000E+00  0.15821566008E+04  0.15821566008E+04  0.00000000000E+00 0. -1.
         21   -1    0    0  501  502  0.00000000000E+00 -0.00000000000E+00 -0.40369687407E+03  0.40369687407E+03  0.00000000000E+00 0. -1.
         21    1    1    2  503  502  0.22103054092E+02  0.95243899641E+02 -0.30822107876E+03  0.32335766392E+03  0.00000000000E+00 0. -1.
         21    1    1    2  504  503  0.89364870341E+02 -0.77440158853E+02 -0.28891020137E+02  0.12172817792E+03  0.00000000000E+00 0. -1.
         21    1    1    2  505  504 -0.19701533303E+01 -0.75899273598E+02  0.13698112838E+03  0.15661548700E+03  0.00000000000E+00 0. -1.
          2    1    1    2  501    0 -0.10949777110E+03  0.58095532810E+02  0.13785906972E+04  0.13841521460E+04  0.00000000000E+00 0. -1.
<scales pt_clust_3="97.38282" pt_clust_4="14000.00000" pt_clust_5="75.92484" pt_clust_6="108.32927"></scales>
<clustering>
<clus scale="   75.925">  1  5  2 -1</clus>
<clus scale="   97.383">  2  3  1 -1</clus>
<clus scale="  108.329">  1  6  2 -1</clus>
<clus scale="   97.383">  2  3  1 -1</clus>
</clustering>
</event>
<event>
 6    0  0.1230761E+002  0.2157430E+03  0.7546771E-02  0.1137097E+00
          3   -1    0    0  504    0 -0.00000000000E+00  0.00000000000E+00  0.16969755559E+04  0.16969755559E+04  0.00000000000E+00 0.  1.
         21   -1    0    0  501  502  0.00000000000E+00 -0.00000000000E+00 -0.43537540085E+02  0.43537540085E+02  0.00000000000E+00 0. -1.
         21    1    1    2  503  502  0.51401742549E+02  0.99248589159E+01  0.61035364816E+02  0.80411179072E+02  0.00000000000E+00 0.  1.
         21    1    1    2  504  505  0.11433397072E+02 -0.72703126869E+02  0.44445676309E+03  0.45050891388E+03  0.00000000000E+00 0.  1.
         21    1    1    2  505  503  0.15052558630E+03  0.49871299176E+02  0.36424197821E+03  0.39726227772E+03  0.00000000000E+00 0. -1.
          3    1    1    2  501    0 -0.21336072592E+03  0.12906968777E+02  0.78370390968E+03  0.81233072529E+03  0.00000000000E+00 0.  1.
<scales pt_clust_3="31.26516" pt_clust_4="73.59665" pt_clust_5="31.26516" pt_clust_6="208.76816"></scales>
<clustering>
<clus scale="   31.265">  3  5 -1 -1</clus>
<clus scale="   73.597">  1  4  2 -1</clus>
<clus scale="  208.768">  1  6  2 -1</clus>
<clus scale="  215.743">  2  3  1 -1</clus>
</clustering>
</event>
<event>
 6    0  0.1230761E+002  0.1218268E+03  0.7546771E-02  0.1240114E+00
         -3   -1    0    0    0  501 -0.00000000000E+00  0.00000000000E+00  0.12573299359E+04  0.12573299359E+04  0.00000000000E+00 0. -1.
         21   -1    0    0  504  502  0.00000000000E+00 -0.00000000000E+00 -0.26590278768E+02  0.26590278768E+02  0.00000000000E+00 0. -1.
         21    1    1    2  503  505 -0.68965987634E+02  0.12442498844E+03  0.49856449621E+03  0.51846353978E+03  0.00000000000E+00 0. -1.
         21    1    1    2  504  503  0.10158071475E+03 -0.61397023244E+02  0.30530187931E+03  0.32756293072E+03  0.00000000000E+00 0. -1.
         21    1    1    2  505  501  0.12136033139E+02 -0.38945245828E+02  0.26810372867E+03  0.27118927855E+03  0.00000000000E+00 0. -1.
         -3    1    1    2    0  502 -0.44750760256E+02 -0.24082719367E+02  0.15876955291E+03  0.16670446558E+03  0.00000000000E+00 0. -1.
<scales pt_clust_3="121.82678" pt_clust_4="14000.00000" pt_clust_5="40.79235" pt_clust_6="52.51557"></scales>
<clustering>
<clus scale="   40.792">  1  5  2 -1</clus>
<clus scale="   52.516">  2  6  1 -1</clus>
<clus scale="  121.827">  1  3  2 -1</clus>
<clus scale="   52.516">  2  3  1 -1</clus>
</clustering>
</event>
<event>
 6    0  0.1230761E+002  0.1134972E+03  0.7546771E-02  0.1254227E+00
          1   -1    0    0  503    0 -0.00000000000E+00  0.00000000000E+00  0.10933969302E+04  0.10933969302E+04  0.00000000000E+00 0. -1.
         21   -1    0    0  505  502  0.00000000000E+00 -0.00000000000E+00 -0.10910312542E+03  0.10910312542E+03  0.00000000000E+00 0.  1.
         21    1    1    2  503  504  0.60930772106E+02 -0.44705632119E+02  0.17223934559E+03  0.18808919347E+03  0.00000000000E+00 0.  1.
         21    1    1    2  504  502  0.29574426923E+02 -0.11105758001E+02  0.20524269042E+02  0.37672671903E+02  0.00000000000E+00 0.  1.
         21    1    1    2  505  501  0.68868199175E+02 -0.45838202857E+02 -0.61456114982E+02  0.10305738095E+03  0.00000000000E+00 0.  1.
          1    1    1    2  501    0 -0.15937339820E+03  0.10164959298E+03  0.85298630511E+03  0.87368080929E+03  0.00000000000E+00 0. -1.
<scales pt_clust_3="77.97271" pt_clust_4="31.59089" pt_clust_5="113.49718" pt_clust_6="14000.00000"></scales>
<clustering>
<clus scale="   31.591">  2  4  1 -1</clus>
<clus scale="   77.973">  1  3  2 -1</clus>
<clus scale="  113.497">  2  5  1 -1</clus>
<clus scale="   31.591">  2  3  1 -1</clus>
</clustering>
</event>
<event>
 6    0  0.1230761E+002  0.8468639E+02  0.7546771E-02  0.1316255E+00
          2   -1    0    0  505    0 -0.00000000000E+00  0.00000000000E+00  0.69307215344E+03  0.69307215344E+03  0.00000000000E+00 0. -1.
         21   -1    0    0  503  502  0.00000000000E+00 -0.00000000000E+00 -0.95222405593E+02  0.95222405593E+02  0.00000000000E+00 0. -1.
         21    1    1    2  503  501 -0.79058112669E+02  0.62219709358E+02 -0.17276810153E+02  0.10207823265E+03  0.00000000000E+00 0. -1.
         21    1    1    2  504  502  0.38816034532E+02  0.13466106733E+02 -0.10502435350E+02  0.42406623488E+02  0.00000000000E+00 0.  1.
         21    1    1    2  505  504  0.46086494216E+02  0.11878061235E+02  0.38010679206E+03  0.38307470114E+03  0.00000000000E+00 0. -1.
          2    1    1    2  501    0 -0.58444160793E+01 -0.87563877327E+02  0.24552220129E+03  0.26073500175E+03  0.00000000000E+00 0. -1.
<scales pt_clust_3="14000.00000" pt_clust_4="41.08553" pt_clust_5="48.47627" pt_clust_6="84.68639"></scales>
<clustering>
<clus scale="   41.086">  2  4  1 -1</clus>
<clus scale="   48.476">  1  5  2 -1</clus>
<clus scale="   84.686">  1  6  2 -1</clus>
<clus scale="   41.086">  2  3  1 -1</clus>
</clustering>
</event>
<event>
 6    0  0.1230761E+002  0.7879583E+02  0.7546771E-02  0.1332504E+00
          2   -1    0    0  504    0 -0.00000000000E+00  0.00000000000E+00  0.19039604668E+03  0.19039604668E+03  0.00000000000E+00 0. -1.
         21   -1    0    0  503  502  0.00000000000E+00 -0.00000000000E+00 -0.66986207699E+03  0.66986207699E+03  0.00000000000E+00 0.  1.
         21    1    1    2  503  505  0.58016121324E+02  0.70020675422E+02 -0.14462674795E+03  0.17083811502E+03  0.00000000000E+00 0.  1.
         21    1    1    2  504  502 -0.81026686460E+02 -0.66725979586E+01 -0.48312421741E+03  0.48991719395E+03  0.00000000000E+00 0.  1.
         21    1    1    2  505  501 -0.22769482382E+02 -0.79443622599E+02  0.74957729209E+02  0.11157239653E+03  0.00000000000E+00 0.  1.
          2    1    1    2  501    0  0.45780047517E+02  0.16095545135E+02  0.73327205840E+02  0.87930418174E+02  0.00000000000E+00 0. -1.
<scales pt_clust_3="78.79583" pt_clust_4="14000.00000" pt_clust_5="67.71651" pt_clust_6="48.52710"></scales>
<clustering>
<clus scale="   48.527">  1  6  2 -1</clus>
<clus scale="   67.717">  1  5  2 -1</clus>
<clus scale="   78.796">  1  3  2 -1</clus>
<clus scale="   78.796">  2  3  1 -1</clus>
</clustering>
</event>
<event>
 6    0  0.1230761E+002  0.1369188E+03  0.7546771E-02  0.1217536E+00
          2   -1    0    0  503    0 -0.00000000000E+00  0.00000000000E+00  0.81809883348E+03  0.81809883348E+03  0.00000000000E+00 0. -1.
         21   -1    0    0  504  502  0.00000000000E+00 -0.00000000000E+00 -0.80897287684E+03  0.80897287684E+03  0.00000000000E+00 0. -1.
         21    1    1    2  503  502 -0.65486762962E+02  0.78826764763E+02 -0.57361035058E+02  0.11744131858E+03  0.00000000000E+00 0.  1.
         21    1    1    2  504  505  0.10097413306E+03 -0.10471953026E+03 -0.70666024232E+03  0.72147810337E+03  0.00000000000E+00 0. -1.
         21    1    1    2  505  501  0.12424845338E+02  0.54576697961E+02  0.11770935869E+03  0.13033988593E+03  0.00000000000E+00 0.  1.
          2    1    1    2  501    0 -0.47912215440E+02 -0.28683932466E+02  0.65543787534E+03  0.65781240244E+03  0.00000000000E+00 0. -1.
<scales pt_clust_3="14000.00000" pt_clust_4="136.91883" pt_clust_5="40.66146" pt_clust_6="55.84217"></scales>
<clustering>
<clus scale="   55.842">  1  6  2 -1</clus>
<clus scale="   40.661">  1  5  2 -1</clus>
<clus scale="  136.919">  2  4  1 -1</clus>
<clus scale="  136.919">  2  3  1 -1</clus>
</clustering>
</event>
<event>
 6    0  0.1230761E+002  0.2173675E+03  0.7546771E-02  0.1135861E+00
         21   -1    0    0  503  502  0.00000000000E+00  0.00000000000E+00  0.73808246577E+02  0.73808246577E+02  0.00000000000E+00 0. -1.
          2   -1    0    0  505    0 -0.00000000000E+00 -0.00000000000E+00 -0.27201119227E+04  0.27201119227E+04  0.00000000000E+00 0. -1.
         21    1    1    2  503  501  0.10911797152E+02  0.48495027712E+02 -0.71482209190E+02  0.87066303818E+02  0.00000000000E+00 0. -1.
         21    1    1    2  504  502 -0.21040203793E+03  0.47618247501E+02 -0.13437972708E+03  0.25415433522E+03  0.00000000000E+00 0. -1.
         21    1    1    2  505  504  0.33542654325E+02  0.17712958707E+02 -0.62237248542E+03  0.62352736041E+03  0.00000000000E+00 0. -1.
          2    1    1    2  501    0  0.16594758645E+03 -0.11382623392E+03 -0.18180692544E+04  0.18291721698E+04  0.00000000000E+00 0. -1.
<scales pt_clust_3="50.65079" pt_clust_4="217.36753" pt_clust_5="37.93229" pt_clust_6="14000.00000"></scales>
<clustering>
<clus scale="   37.932">  2  5  1 -1</clus>
<clus scale="   50.651">  1  3  2 -1</clus>
<clus scale="  217.368">  1  4  2 -1</clus>
<clus scale="   50.651">  1  3  2 -1</clus>
</clustering>
</event>
<event>
 6    0  0.1230761E+002  0.1719198E+03  0.7546771E-02  0.1175860E+00
         -2   -1    0    0    0  501 -0.00000000000E+00  0.00000000000E+00  0.15845861942E+03  0.15845861942E+03  0.00000000000E+00 0. -1.
         21   -1    0    0  504  502  0.00000000000E+00 -0.00000000000E+00 -0.47851530252E+03  0.47851530252E+03  0.00000000000E+00 0. -1.
         21    1    1    2  503  505 -0.11462019163E+03 -0.14113470767E+02 -0.28614114955E+03  0.30856723068E+03  0.00000000000E+00 0. -1.
         21    1    1    2  504  503 -0.51715798746E+02  0.17130097765E+02 -0.83438622149E+02  0.99649223557E+02  0.00000000000E+00 0. -1.
         21    1    1    2  505  501  0.83610212904E+01 -0.46027563846E+02  0.45087780201E+02  0.64971926507E+02  0.00000000000E+00 0. -1.
         -2    1    1    2    0  502  0.15797496908E+03  0.43010936847E+02  0.44353084000E+01  0.16378554120E+03  0.00000000000E+00 0. -1.
<scales pt_clust_3="33.46995" pt_clust_4="33.46995" pt_clust_5="46.78080" pt_clust_6="164.86879"></scales>
<clustering>
<clus scale="   33.470">  3  4 -1 -1</clus>
<clus scale="   46.781">  1  5  2 -1</clus>
<clus scale="  164.869">  1  6  2 -1</clus>
<clus scale="  171.920">  2  3  1 -1</clus>
</clustering>
</event>
<event>
 6    0  0.1230761E+002  0.1727610E+03  0.7546771E-02  0.1174999E+00
         -2   -1    0    0    0  501 -0.00000000000E+00  0.00000000000E+00  0.93952570752E+02  0.93952570752E+02  0.00000000000E+00 0. -1.
         21   -1    0    0  505  502  0.00000000000E+00 -0.00000000000E+00 -0.48754214264E+03  0.48754214264E+03  0.00000000000E+00 0. -1.
         21    1    1    2  503  504  0.41915963583E+02  0.29290252090E+02 -0.87751125143E+02  0.10156341287E+03  0.00000000000E+00 0. -1.
         21    1    1    2  504  501 -0.38581869422E+02 -0.11606377049E+02  0.14886544571E+01  0.40317300609E+02  0.00000000000E+00 0. -1.
         21    1    1    2  505  503  0.17056007844E+02  0.12679297570E+03 -0.25375536501E+03  0.28418154648E+03  0.00000000000E+00 0. -1.
         -2    1    1    2    0  502 -0.20390102005E+02 -0.14447685074E+03 -0.53571736195E+02  0.15543245343E+03  0.00000000000E+00 0. -1.
<scales pt_clust_3="40.63890" pt_clust_4="40.28981" pt_clust_5="40.63890" pt_clust_6="159.72961"></scales>
<clustering>
<clus scale="   40.290">  1  4  2 -1</clus>
<clus scale="   40.639">  3  5 -1 -1</clus>
<clus scale="  159.730">  1  6  2 -1</clus>
<clus scale="  172.761">  2  3  1 -1</clus>
</clustering>
</event>
