<event>
 5    0  0.5489207E-005  0.3336390E+03  0.7546771E-02  0.1069538E+00
         21   -1    0    0  502  501  0.00000000000E+00  0.00000000000E+00  0.92451299404E+02  0.92451299404E+02  0.00000000000E+00 0. -1.
         21   -1    0    0  501  502 -0.00000000000E+00 -0.00000000000E+00 -0.12040393959E+04  0.12040393959E+04  0.00000000000E+00 0. -1.
         25    1    1    2    0    0 -0.17240075791E+03  0.17758181986E+03 -0.43538971137E+03  0.51618458408E+03  0.12500000000E+03 0.  0.
         25    1    1    2    0    0 -0.90491116231E+01 -0.76986283885E+02 -0.24689710149E+03  0.28738815747E+03  0.12500000000E+03 0.  0.
         25    1    1    2    0    0  0.18144986953E+03 -0.10059553598E+03 -0.42930128365E+03  0.49291795377E+03  0.12500000000E+03 0.  0.
</event>
<event>
 5    0  0.5489207E-005  0.2604102E+03  0.7546771E-02  0.1106897E+00
         21   -1    0    0  502  501  0.00000000000E+00  0.00000000000E+00  0.45521631968E+03  0.45521631968E+03  0.00000000000E+00 0.  1.
         21   -1    0    0  501  502 -0.00000000000E+00 -0.00000000000E+00 -0.14896983108E+03  0.14896983108E+03  0.00000000000E+00 0.  1.
         25    1    1    2    0    0 -0.11893257685E+02 -0.10645653281E+03  0.67272690759E+02  0.17783435517E+03  0.12500000000E+03 0.  0.
         25    1    1    2    0    0 -0.30143456788E+02  0.23674455030E+02 -0.11686979202E+02  0.13126573540E+03  0.12500000000E+03 0.  0.
         25    1    1    2    0    0  0.42036714474E+02  0.82782077779E+02  0.25066077705E+03  0.29508606018E+03  0.12500000000E+03 0.  0.
</event>
<event>
 5    0  0.5489207E-005  0.3010410E+03  0.7546771E-02  0.1084721E+00
         21   -1    0    0  502  501  0.00000000000E+00  0.00000000000E+00  0.11189566148E+03  0.11189566148E+03  0.00000000000E+00 0.  1.
         21   -1    0    0  501  502 -0.00000000000E+00 -0.00000000000E+00 -0.80991255625E+03  0.80991255625E+03  0.00000000000E+00 0.  1.
         25    1    1    2    0    0  0.16912098940E+02 -0.15103283022E+03 -0.32169564825E+03  0.37710744490E+03  0.12500000000E+03 0.  0.
         25    1    1    2    0    0  0.48833210067E+02 -0.39948857929E+02 -0.21851299455E+03  0.25952557185E+03  0.12500000000E+03 0.  0.
         25    1    1    2    0    0 -0.65745309008E+02  0.19098168815E+03 -0.15780825197E+03  0.28517520098E+03  0.12500000000E+03 0.  0.
</event>
<event>
 5    0  0.5489207E-005  0.2597139E+03  0.7546771E-02  0.1107315E+00
         21   -1    0    0  502  501  0.00000000000E+00  0.00000000000E+00  0.12683902879E+03  0.12683902879E+03  0.00000000000E+00 0.  1.
         21   -1    0    0  501  502 -0.00000000000E+00 -0.00000000000E+00 -0.53178674098E+03  0.53178674098E+03  0.00000000000E+00 0.  1.
         25    1    1    2    0    0  0.11961815012E+02 -0.13530379045E+03 -0.10180334434E+03  0.21080588617E+03  0.12500000000E+03 0.  0.
         25    1    1    2    0    0 -0.18969466402E+02  0.18896846571E+02 -0.39863714248E+02  0.13390686009E+03  0.12500000000E+03 0.  0.
         25    1    1    2    0    0  0.70076513906E+01  0.11640694387E+03 -0.26328065361E+03  0.31391302351E+03  0.12500000000E+03 0.  0.
</event>
<event>
 5    0  0.5489207E-005  0.4163888E+03  0.7546771E-02  0.1038248E+00
         21   -1    0    0  502  501  0.00000000000E+00  0.00000000000E+00  0.10821355106E+04  0.10821355106E+04  0.00000000000E+00 0. -1.
         21   -1    0    0  501  502 -0.00000000000E+00 -0.00000000000E+00 -0.16021991632E+03  0.16021991632E+03  0.00000000000E+00 0. -1.
         25    1    1    2    0    0  0.11763538927E+03 -0.18937579709E+03  0.53836841458E+03  0.59595874618E+03  0.12500000000E+03 0.  0.
         25    1    1    2    0    0 -0.18316001411E+03 -0.41039763992E+02  0.78259883417E+02  0.23870790174E+03  0.12500000000E+03 0.  0.
         25    1    1    2    0    0  0.65524624848E+02  0.23041556109E+03  0.30528729632E+03  0.40768877903E+03  0.12500000000E+03 0.  0.
</event>
<event>
 5    0  0.5489207E-005  0.3326706E+03  0.7546771E-02  0.1069961E+00
         21   -1    0    0  502  501  0.00000000000E+00  0.00000000000E+00  0.22064224822E+03  0.22064224822E+03  0.00000000000E+00 0.  1.
         21   -1    0    0  501  502 -0.00000000000E+00 -0.00000000000E+00 -0.50157987564E+03  0.50157987564E+03  0.00000000000E+00 0.  1.
         25    1    1    2    0    0 -0.18319820580E+03  0.89995091480E+02  0.39283417608E+01  0.23937654640E+03  0.12500000000E+03 0.  0.
         25    1    1    2    0    0  0.20663637240E+03 -0.34069955478E+02 -0.13611819622E+03  0.27930720651E+03  0.12500000000E+03 0.  0.
         25    1    1    2    0    0 -0.23438166605E+02 -0.55925136002E+02 -0.14874777296E+03  0.20353837095E+03  0.12500000000E+03 0.  0.
</event>
<event>
 5    0  0.5779899E-005  0.2955674E+03  0.7546771E-02  0.1087478E+00
         21   -1    0    0  502  501  0.00000000000E+00  0.00000000000E+00  0.70871675214E+03  0.70871675214E+03  0.00000000000E+00 0. -1.
         21   -1    0    0  501  502 -0.00000000000E+00 -0.00000000000E+00 -0.12326515714E+03  0.12326515714E+03  0.00000000000E+00 0. -1.
         25    1    1    2    0    0 -0.45263475607E+02  0.95481872738E+02  0.18796087227E+03  0.24923855992E+03  0.12500000000E+03 0.  0.
         25    1    1    2    0    0  0.68145618051E+02  0.52281445530E+02  0.13672615246E+02  0.15227972686E+03  0.12500000000E+03 0.  0.
         25    1    1    2    0    0 -0.22882142444E+02 -0.14776331827E+03  0.38381810748E+03  0.43046362250E+03  0.12500000000E+03 0.  0.
</event>
<event>
 5    0  0.5652972E-005  0.3546954E+03  0.7546771E-02  0.1060704E+00
         21   -1    0    0  502  501  0.00000000000E+00  0.00000000000E+00  0.61961319778E+03  0.61961319778E+03  0.00000000000E+00 0. -1.
         21   -1    0    0  501  502 -0.00000000000E+00 -0.00000000000E+00 -0.20304409151E+03  0.20304409151E+03  0.00000000000E+00 0. -1.
         25    1    1    2    0    0  0.61467881898E+02 -0.80646941127E+01  0.21297141777E+03  0.25460786434E+03  0.12500000000E+03 0.  0.
         25    1    1    2    0    0 -0.92656004387E+02  0.19311220185E+02  0.34346391215E+03  0.37755862766E+03  0.12500000000E+03 0.  0.
         25    1    1    2    0    0  0.31188122488E+02 -0.11246526072E+02 -0.13986622365E+03  0.19049079729E+03  0.12500000000E+03 0.  0.
</event>
<event>
 5    0  0.5489207E-005  0.2915610E+03  0.7546771E-02  0.1089537E+00
         21   -1    0    0  502  501  0.00000000000E+00  0.00000000000E+00  0.68548178300E+03  0.68548178300E+03  0.00000000000E+00 0.  1.
         21   -1    0    0  501  502 -0.00000000000E+00 -0.00000000000E+00 -0.12401179334E+03  0.12401179334E+03  0.00000000000E+00 0.  1.
         25    1    1    2    0    0  0.79140558216E+01  0.68892526526E+02  0.35368352810E+03  0.38147850600E+03  0.12500000000E+03 0.  0.
         25    1    1    2    0    0 -0.12792900913E+03 -0.88862183293E+02  0.11411786602E+03  0.23002218663E+03  0.12500000000E+03 0.  0.
         25    1    1    2    0    0  0.12001495331E+03  0.19969656767E+02  0.93668595550E+02  0.19799288371E+03  0.12500000000E+03 0.  0.
</event>
<event>
 5    0  0.5489207E-005  0.2826472E+03  0.7546771E-02  0.1094252E+00
         21   -1    0    0  502  501  0.00000000000E+00  0.00000000000E+00  0.23110416456E+03  0.23110416456E+03  0.00000000000E+00 0. -1.
         21   -1    0    0  501  502 -0.00000000000E+00 -0.00000000000E+00 -0.34568588244E+03  0.34568588244E+03  0.00000000000E+00 0. -1.
         25    1    1    2    0    0  0.13067775662E+03  0.78030279027E+02 -0.13322637060E+01  0.19695729346E+03  0.12500000000E+03 0.  0.
         25    1    1    2    0    0 -0.12803056492E+03 -0.58986970436E+02 -0.15778683431E+03  0.24574981855E+03  0.12500000000E+03 0.  0.
         25    1    1    2    0    0 -0.26471916981E+01 -0.19043308591E+02  0.44537380138E+02  0.13408293499E+03  0.12500000000E+03 0.  0.
</event>
<event>
 5    0  0.5489207E-005  0.6144599E+03  0.7546771E-02  0.9875852E-01
         21   -1    0    0  502  501  0.00000000000E+00  0.00000000000E+00  0.13766366393E+04  0.13766366393E+04  0.00000000000E+00 0.  1.
         21   -1    0    0  501  502 -0.00000000000E+00 -0.00000000000E+00 -0.27426333635E+03  0.27426333635E+03  0.00000000000E+00 0.  1.
         25    1    1    2    0    0 -0.92434698141E+01  0.32246893539E+02 -0.11147283763E+03  0.17081129180E+03  0.12500000000E+03 0.  0.
         25    1    1    2    0    0  0.69853396948E+02  0.38026845823E+03  0.50380381010E+03  0.64724560753E+03  0.12500000000E+03 0.  0.
         25    1    1    2    0    0 -0.60609927134E+02 -0.41251535177E+03  0.71004233049E+03  0.83284307634E+03  0.12500000000E+03 0.  0.
</event>
<event>
 5    0  0.5489207E-005  0.2578433E+03  0.7546771E-02  0.1108446E+00
         21   -1    0    0  502  501  0.00000000000E+00  0.00000000000E+00  0.58211289850E+02  0.58211289850E+02  0.00000000000E+00 0. -1.
         21   -1    0    0  501  502 -0.00000000000E+00 -0.00000000000E+00 -0.11421007340E+04  0.11421007340E+04  0.00000000000E+00 0. -1.
         25    1    1    2    0    0  0.59974433102E+02  0.40234740126E+02 -0.17891675319E+03  0.22989556653E+03  0.12500000000E+03 0.  0.
         25    1    1    2    0    0 -0.11363626355E+02  0.75932751061E+02 -0.23235087425E+03  0.27478508594E+03  0.12500000000E+03 0.  0.
         25    1    1    2    0    0 -0.48610806747E+02 -0.11616749119E+03 -0.67262181676E+03  0.69563137143E+03  0.12500000000E+03 0.  0.
</event>
<event>
 5    0  0.5489207E-005  0.4144063E+03  0.7546771E-02  0.1038902E+00
         21   -1    0    0  502  501  0.00000000000E+00  0.00000000000E+00  0.16406282039E+03  0.16406282039E+03  0.00000000000E+00 0.  1.
         21   -1    0    0  501  502 -0.00000000000E+00 -0.00000000000E+00 -0.10467489290E+04  0.10467489290E+04  0.00000000000E+00 0.  1.
         25    1    1    2    0    0  0.20886025042E+03 -0.18826302347E+03 -0.34532757320E+03  0.46253832601E+03  0.12500000000E+03 0.  0.
         25    1    1    2    0    0 -0.11338499120E+03  0.34997822912E+02 -0.49561194151E+03  0.52472583356E+03  0.12500000000E+03 0.  0.
         25    1    1    2    0    0 -0.95475259221E+02  0.15326520056E+03 -0.41746593941E+02  0.22354758986E+03  0.12500000000E+03 0.  0.
</event>
<event>
 5    0  0.5489207E-005  0.2193685E+03  0.7546771E-02  0.1134355E+00
         21   -1    0    0  502  501  0.00000000000E+00  0.00000000000E+00  0.12138446291E+03  0.12138446291E+03  0.00000000000E+00 0.  1.
         21   -1    0    0  501  502 -0.00000000000E+00 -0.00000000000E+00 -0.39644743752E+03  0.39644743752E+03  0.00000000000E+00 0.  1.
         25    1    1    2    0    0  0.53311547603E+02 -0.31448878109E+01 -0.24042574071E+02  0.13804005504E+03  0.12500000000E+03 0.  0.
         25    1    1    2    0    0 -0.17078796059E+02 -0.42972667059E+02 -0.18156714661E+03  0.22523313281E+03  0.12500000000E+03 0.  0.
         25    1    1    2    0    0 -0.36232751545E+02  0.46117554870E+02 -0.69453253935E+02  0.15455871258E+03  0.12500000000E+03 0.  0.
</event>
<event>
 5    0  0.5489207E-005  0.3073832E+03  0.7546771E-02  0.1081607E+00
         21   -1    0    0  502  501  0.00000000000E+00  0.00000000000E+00  0.60498804208E+03  0.60498804208E+03  0.00000000000E+00 0. -1.
         21   -1    0    0  501  502 -0.00000000000E+00 -0.00000000000E+00 -0.15617565137E+03  0.15617565137E+03  0.00000000000E+00 0. -1.
         25    1    1    2    0    0 -0.35017241687E+02  0.16839453261E+03  0.32840166911E+03  0.39122318707E+03  0.12500000000E+03 0.  0.
         25    1    1    2    0    0  0.64672280074E+02 -0.15688592988E+03  0.31076519108E+02  0.21304095579E+03  0.12500000000E+03 0.  0.
         25    1    1    2    0    0 -0.29655038387E+02 -0.11508602722E+02  0.89334202492E+02  0.15689955058E+03  0.12500000000E+03 0.  0.
</event>
<event>
 5    0  0.5489207E-005  0.2704573E+03  0.7546771E-02  0.1101018E+00
         21   -1    0    0  502  501  0.00000000000E+00  0.00000000000E+00  0.58269474384E+03  0.58269474384E+03  0.00000000000E+00 0.  1.
         21   -1    0    0  501  502 -0.00000000000E+00 -0.00000000000E+00 -0.12553251293E+03  0.12553251293E+03  0.00000000000E+00 0.  1.
         25    1    1    2    0    0 -0.40829150052E+02 -0.88710553565E+02  0.20370302717E+03  0.25817921118E+03  0.12500000000E+03 0.  0.
         25    1    1    2    0    0  0.94759143989E+02  0.51313824207E+02  0.26084926576E+03  0.30867417024E+03  0.12500000000E+03 0.  0.
         25    1    1    2    0    0 -0.53929993937E+02  0.37396729357E+02 -0.73900620200E+01  0.14137387534E+03  0.12500000000E+03 0.  0.
</event>
<event>
 5    0  0.5489207E-005  0.2687167E+03  0.7546771E-02  0.1102016E+00
         21   -1    0    0  502  501  0.00000000000E+00  0.00000000000E+00  0.34077372453E+02  0.34077372453E+02  0.00000000000E+00 0.  1.
         21   -1    0    0  501  502 -0.00000000000E+00 -0.00000000000E+00 -0.21189627460E+04  0.21189627460E+04  0.00000000000E+00 0.  1.
         25    1    1    2    0    0 -0.12083362471E+03  0.27086735479E+02 -0.98178507784E+03  0.99742738842E+03  0.12500000000E+03 0.  0.
         25    1    1    2    0    0  0.93667139873E+02 -0.84124975598E+02 -0.38404265095E+03  0.42304172650E+03  0.12500000000E+03 0.  0.
         25    1    1    2    0    0  0.27166484837E+02  0.57038240119E+02 -0.71905764471E+03  0.73257100348E+03  0.12500000000E+03 0.  0.
</event>
<event>
 5    0  0.5489207E-005  0.3321086E+03  0.7546771E-02  0.1070208E+00
         21   -1    0    0  502  501  0.00000000000E+00  0.00000000000E+00  0.15130607344E+03  0.15130607344E+03  0.00000000000E+00 0.  1.
         21   -1    0    0  501  502 -0.00000000000E+00 -0.00000000000E+00 -0.72896024919E+03  0.72896024919E+03  0.00000000000E+00 0.  1.
         25    1    1    2    0    0 -0.18143167931E+03  0.52935617255E+02 -0.34743450082E+03  0.41479557157E+03  0.12500000000E+03 0.  0.
         25    1    1    2    0    0  0.20058152911E+03 -0.66001056790E+02 -0.23289546280E+03  0.33831107861E+03  0.12500000000E+03 0.  0.
         25    1    1    2    0    0 -0.19149849798E+02  0.13065439535E+02  0.26757878683E+01  0.12715967245E+03  0.12500000000E+03 0.  0.
</event>
<event>
 5    0  0.5489207E-005  0.2938394E+03  0.7546771E-02  0.1088361E+00
         21   -1    0    0  502  501  0.00000000000E+00  0.00000000000E+00  0.30592814822E+03  0.30592814822E+03  0.00000000000E+00 0.  1.
         21   -1    0    0  501  502 -0.00000000000E+00 -0.00000000000E+00 -0.28222825718E+03  0.28222825718E+03  0.00000000000E+00 0.  1.
         25    1    1    2    0    0  0.13096360144E+03 -0.13312139236E+01 -0.18846775596E+02  0.18202592668E+03  0.12500000000E+03 0.  0.
         25    1    1    2    0    0 -0.45162445345E+02 -0.14018835731E+03  0.46492893725E+02  0.19869325897E+03  0.12500000000E+03 0.  0.
         25    1    1    2    0    0 -0.85801156097E+02  0.14151957123E+03 -0.39462270929E+01  0.20743721975E+03  0.12500000000E+03 0.  0.
</event>
<event>
 5    0  0.5489207E-005  0.4349761E+03  0.7546771E-02  0.1032299E+00
         21   -1    0    0  502  501  0.00000000000E+00  0.00000000000E+00  0.18889775330E+03  0.18889775330E+03  0.00000000000E+00 0. -1.
         21   -1    0    0  501  502 -0.00000000000E+00 -0.00000000000E+00 -0.10016223294E+04  0.10016223294E+04  0.00000000000E+00 0. -1.
         25    1    1    2    0    0 -0.10578893472E+03 -0.49782146383E+02 -0.35980660289E+02  0.17489759496E+03  0.12500000000E+03 0.  0.
         25    1    1    2    0    0 -0.82622921978E+02 -0.44424248167E+02  0.41335769582E+02  0.16165923082E+03  0.12500000000E+03 0.  0.
         25    1    1    2    0    0  0.18841185670E+03  0.94206394550E+02 -0.81807968535E+03  0.85396325688E+03  0.12500000000E+03 0.  0.
</event>
<event>
 5    0  0.5489207E-005  0.3405565E+03  0.7546771E-02  0.1066559E+00
         21   -1    0    0  502  501  0.00000000000E+00  0.00000000000E+00  0.70103987651E+02  0.70103987651E+02  0.00000000000E+00 0.  1.
         21   -1    0    0  501  502 -0.00000000000E+00 -0.00000000000E+00 -0.16543811724E+04  0.16543811724E+04  0.00000000000E+00 0.  1.
         25    1    1    2    0    0 -0.90054205841E+02 -0.16831818041E+03 -0.60174082128E+03  0.64355091938E+03  0.12500000000E+03 0.  0.
         25    1    1    2    0    0 -0.98098626804E+02  0.13818037792E+03 -0.59738015492E+03  0.63340761514E+03  0.12500000000E+03 0.  0.
         25    1    1    2    0    0  0.18815283264E+03  0.30137802488E+02 -0.38515620853E+03  0.44752662551E+03  0.12500000000E+03 0.  0.
</event>
<event>
 5    0  0.5489207E-005  0.2748460E+03  0.7546771E-02  0.1098538E+00
         21   -1    0    0  502  501  0.00000000000E+00  0.00000000000E+00  0.23031724898E+03  0.23031724898E+03  0.00000000000E+00 0.  1.
         21   -1    0    0  501  502 -0.00000000000E+00 -0.00000000000E+00 -0.32798384585E+03  0.32798384585E+03  0.00000000000E+00 0.  1.
         25    1    1    2    0    0 -0.29796860992E+02 -0.20738358602E+02  0.12089119800E+03  0.17764462895E+03  0.12500000000E+03 0.  0.
         25    1    1    2    0    0  0.40840504036E+02  0.98227661229E+02 -0.11803459088E+03  0.20217266097E+03  0.12500000000E+03 0.  0.
         25    1    1    2    0    0 -0.11043643043E+02 -0.77489302627E+02 -0.10052320399E+03  0.17848380490E+03  0.12500000000E+03 0.  0.
</event>
<event>
 5    0  0.5489207E-005  0.2138272E+03  0.7546771E-02  0.1138571E+00
         21   -1    0    0  502  501  0.00000000000E+00  0.00000000000E+00  0.10414501107E+04  0.10414501107E+04  0.00000000000E+00 0.  1.
         21   -1    0    0  501  502 -0.00000000000E+00 -0.00000000000E+00 -0.43902298947E+02  0.43902298947E+02  0.00000000000E+00 0.  1.
         25    1    1    2    0    0  0.55944506510E+02 -0.14840632912E+02  0.47036020193E+03  0.49011605948E+03  0.12500000000E+03 0.  0.
         25    1    1    2    0    0 -0.18329029687E+02 -0.41280839283E+02  0.28444731799E+03  0.31396709658E+03  0.12500000000E+03 0.  0.
         25    1    1    2    0    0 -0.37615476824E+02  0.56121472195E+02  0.24274029181E+03  0.28126925358E+03  0.12500000000E+03 0.  0.
</event>
<event>
 5    0  0.5489207E-005  0.2538804E+03  0.7546771E-02  0.1110877E+00
         21   -1    0    0  502  501  0.00000000000E+00  0.00000000000E+00  0.28143906285E+03  0.28143906285E+03  0.00000000000E+00 0. -1.
         21   -1    0    0  501  502 -0.00000000000E+00 -0.00000000000E+00 -0.22902037817E+03  0.22902037817E+03  0.00000000000E+00 0. -1.
         25    1    1    2    0    0 -0.27508101603E+02 -0.51144119205E+02  0.90686698511E+01  0.13812913290E+03  0.12500000000E+03 0.  0.
         25    1    1    2    0    0  0.11688110980E+03  0.90574797146E+02  0.80017091606E+02  0.20950590124E+03  0.12500000000E+03 0.  0.
         25    1    1    2    0    0 -0.89373008193E+02 -0.39430677941E+02 -0.36667076782E+02  0.16282440688E+03  0.12500000000E+03 0.  0.
</event>
<event>
 5    0  0.5489207E-005  0.4545257E+03  0.7546771E-02  0.1026381E+00
         21   -1    0    0  502  501  0.00000000000E+00  0.00000000000E+00  0.49014405030E+03  0.49014405030E+03  0.00000000000E+00 0. -1.
         21   -1    0    0  501  502 -0.00000000000E+00 -0.00000000000E+00 -0.42149569081E+03  0.42149569081E+03  0.00000000000E+00 0. -1.
         25    1    1    2    0    0  0.24808366557E+03 -0.46852353368E+02 -0.58338290808E+02  0.28769602763E+03  0.12500000000E+03 0.  0.
         25    1    1    2    0    0 -0.38392971958E+03  0.85890373332E+02  0.13713537223E+03  0.43498309867E+03  0.12500000000E+03 0.  0.
         25    1    1    2    0    0  0.13584605401E+03 -0.39038019964E+02 -0.10148721936E+02  0.18896061481E+03  0.12500000000E+03 0.  0.
</event>
<event>
 5    0  0.5489207E-005  0.3319845E+03  0.7546771E-02  0.1070262E+00
         21   -1    0    0  502  501  0.00000000000E+00  0.00000000000E+00  0.42548791021E+03  0.42548791021E+03  0.00000000000E+00 0. -1.
         21   -1    0    0  501  502 -0.00000000000E+00 -0.00000000000E+00 -0.25902892749E+03  0.25902892749E+03  0.00000000000E+00 0. -1.
         25    1    1    2    0    0 -0.24967095687E+02 -0.82870956131E+02  0.38143407159E+02  0.15675098324E+03  0.12500000000E+03 0.  0.
         25    1    1    2    0    0  0.17617171562E+03  0.18583784597E+03  0.34030219056E+02  0.28697601675E+03  0.12500000000E+03 0.  0.
         25    1    1    2    0    0 -0.15120461994E+03 -0.10296688984E+03  0.94285356499E+02  0.24078983771E+03  0.12500000000E+03 0.  0.
</event>
<event>
 5    0  0.5489207E-005  0.3833507E+03  0.7546771E-02  0.1049702E+00
         21   -1    0    0  502  501  0.00000000000E+00  0.00000000000E+00  0.76135676280E+03  0.76135676280E+03  0.00000000000E+00 0. -1.
         21   -1    0    0  501  502 -0.00000000000E+00 -0.00000000000E+00 -0.19302088403E+03  0.19302088403E+03  0.00000000000E+00 0. -1.
         25    1    1    2    0    0  0.21056611189E+03  0.99233998057E+02  0.21427427169E+02  0.26508415359E+03  0.12500000000E+03 0.  0.
         25    1    1    2    0    0 -0.61690442606E+02 -0.15728178724E+03  0.33857770764E+03  0.39850111094E+03  0.12500000000E+03 0.  0.
         25    1    1    2    0    0 -0.14887566928E+03  0.58047789178E+02  0.20833074396E+03  0.29079238231E+03  0.12500000000E+03 0.  0.
</event>
<event>
 5    0  0.5489207E-005  0.3149957E+03  0.7546771E-02  0.1077976E+00
         21   -1    0    0  502  501  0.00000000000E+00  0.00000000000E+00  0.11728144131E+03  0.11728144131E+03  0.00000000000E+00 0. -1.
         21   -1    0    0  501  502 -0.00000000000E+00 -0.00000000000E+00 -0.84601861575E+03  0.84601861575E+03  0.00000000000E+00 0. -1.
         25    1    1    2    0    0  0.73039265849E+02  0.73867280328E+02 -0.44726098256E+02  0.16857204194E+03  0.12500000000E+03 0.  0.
         25    1    1    2    0    0  0.47493503620E+02 -0.12293844666E+03 -0.52025633874E+03  0.55105458219E+03  0.12500000000E+03 0.  0.
         25    1    1    2    0    0 -0.12053276947E+03  0.49071166331E+02 -0.16375473744E+03  0.24367343293E+03  0.12500000000E+03 0.  0.
</event>
<event>
 5    0  0.5489207E-005  0.2865081E+03  0.7546771E-02  0.1092187E+00
         21   -1    0    0  502  501  0.00000000000E+00  0.00000000000E+00  0.82785222315E+02  0.82785222315E+02  0.00000000000E+00 0.  1.
         21   -1    0    0  501  502 -0.00000000000E+00 -0.00000000000E+00 -0.99156468667E+03  0.99156468667E+03  0.00000000000E+00 0.  1.
         25    1    1    2    0    0  0.84761310619E+02  0.13071343528E+03 -0.29038201994E+03  0.35244460479E+03  0.12500000000E+03 0.  0.
         25    1    1    2    0    0  0.80871088976E+01  0.17437805796E+02 -0.38208254654E+03  0.40246931656E+03  0.12500000000E+03 0.  0.
         25    1    1    2    0    0 -0.92848419516E+02 -0.14815124108E+03 -0.23631489788E+03  0.31943598764E+03  0.12500000000E+03 0.  0.
</event>
<event>
 5    0  0.5489207E-005  0.3256787E+03  0.7546771E-02  0.1073065E+00
         21   -1    0    0  502  501  0.00000000000E+00  0.00000000000E+00  0.20634177396E+04  0.20634177396E+04  0.00000000000E+00 0. -1.
         21   -1    0    0  501  502 -0.00000000000E+00 -0.00000000000E+00 -0.51403368551E+02  0.51403368551E+02  0.00000000000E+00 0. -1.
         25    1    1    2    0    0 -0.23931890627E+03 -0.60801216628E+02  0.97705537726E+03  0.10154962024E+04  0.12500000000E+03 0.  0.
         25    1    1    2    0    0  0.74864279517E+02  0.56517998009E+02  0.33791551181E+03  0.37230476436E+03  0.12500000000E+03 0.  0.
         25    1    1    2    0    0  0.16445462675E+03  0.42832186194E+01  0.69704348197E+03  0.72702014138E+03  0.12500000000E+03 0.  0.
</event>
<event>
 5    0  0.5489207E-005  0.5089388E+03  0.7546771E-02  0.1011472E+00
         21   -1    0    0  502  501  0.00000000000E+00  0.00000000000E+00  0.78473819925E+03  0.78473819925E+03  0.00000000000E+00 0.  1.
         21   -1    0    0  501  502 -0.00000000000E+00 -0.00000000000E+00 -0.33007021620E+03  0.33007021620E+03  0.00000000000E+00 0.  1.
         25    1    1    2    0    0 -0.22216260149E+03 -0.11946890072E+03 -0.10931816815E+03  0.30200083051E+03  0.12500000000E+03 0.  0.
         25    1    1    2    0    0 -0.73335272690E+02 -0.21864720476E+02 -0.25223264458E+01  0.14658611924E+03  0.12500000000E+03 0.  0.
         25    1    1    2    0    0  0.29549787418E+03  0.14133362120E+03  0.56650847765E+03  0.66622146571E+03  0.12500000000E+03 0.  0.
</event>
<event>
 5    0  0.5489207E-005  0.3601544E+03  0.7546771E-02  0.1058523E+00
         21   -1    0    0  502  501  0.00000000000E+00  0.00000000000E+00  0.15184200234E+03  0.15184200234E+03  0.00000000000E+00 0.  1.
         21   -1    0    0  501  502 -0.00000000000E+00 -0.00000000000E+00 -0.85425109402E+03  0.85425109402E+03  0.00000000000E+00 0.  1.
         25    1    1    2    0    0  0.19943209022E+03 -0.45934989187E+02 -0.48004047284E+03  0.53660696735E+03  0.12500000000E+03 0.  0.
         25    1    1    2    0    0 -0.20382938999E+02  0.67706073815E+02 -0.20371333623E+03  0.24924626375E+03  0.12500000000E+03 0.  0.
         25    1    1    2    0    0 -0.17904915122E+03 -0.21771084629E+02 -0.18655282606E+02  0.22023986526E+03  0.12500000000E+03 0.  0.
</event>
<event>
 5    0  0.5489207E-005  0.2907679E+03  0.7546771E-02  0.1089949E+00
         21   -1    0    0  502  501  0.00000000000E+00  0.00000000000E+00  0.10944891519E+03  0.10944891519E+03  0.00000000000E+00 0.  1.
         21   -1    0    0  501  502 -0.00000000000E+00 -0.00000000000E+00 -0.77246992806E+03  0.77246992806E+03  0.00000000000E+00 0.  1.
         25    1    1    2    0    0 -0.55130275254E+00 -0.38156017306E+01 -0.18431418912E+03  0.22273657774E+03  0.12500000000E+03 0.  0.
         25    1    1    2    0    0 -0.12767716420E+03 -0.88959429708E+02 -0.85241281879E+02  0.21703989156E+03  0.12500000000E+03 0.  0.
         25    1    1    2    0    0  0.12822846696E+03  0.92775031439E+02 -0.39346554187E+03  0.44214237394E+03  0.12500000000E+03 0.  0.
</event>
<event>
 5    0  0.5489207E-005  0.3079545E+03  0.7546771E-02  0.1081331E+00
         21   -1    0    0  502  501  0.00000000000E+00  0.00000000000E+00  0.32851188934E+02  0.32851188934E+02  0.00000000000E+00 0.  1.
         21   -1    0    0  501  502 -0.00000000000E+00 -0.00000000000E+00 -0.28868347365E+04  0.28868347365E+04  0.00000000000E+00 0.  1.
         25    1    1    2    0    0  0.33430482883E+02 -0.12385932315E+03 -0.14783718122E+04  0.14891833145E+04  0.12500000000E+03 0.  0.
         25    1    1    2    0    0 -0.13486426310E+03 -0.63943219697E+01 -0.58731320922E+03  0.61546004139E+03  0.12500000000E+03 0.  0.
         25    1    1    2    0    0  0.10143378021E+03  0.13025364512E+03 -0.78829852617E+03  0.81504256957E+03  0.12500000000E+03 0.  0.
</event>
<event>
 5    0  0.5489207E-005  0.2777002E+03  0.7546771E-02  0.1096952E+00
         21   -1    0    0  502  501  0.00000000000E+00  0.00000000000E+00  0.22415254214E+03  0.22415254214E+03  0.00000000000E+00 0.  1.
         21   -1    0    0  501  502 -0.00000000000E+00 -0.00000000000E+00 -0.34403990273E+03  0.34403990273E+03  0.00000000000E+00 0.  1.
         25    1    1    2    0    0  0.71994419626E+02 -0.41553288833E+02 -0.52012624174E+02  0.15887160018E+03  0.12500000000E+03 0.  0.
         25    1    1    2    0    0 -0.17550908516E+03  0.82122245477E+02 -0.51239600542E+01  0.23064855764E+03  0.12500000000E+03 0.  0.
         25    1    1    2    0    0  0.10351466554E+03 -0.40568956645E+02 -0.62750776357E+02  0.17867228704E+03  0.12500000000E+03 0.  0.
</event>
<event>
 5    0  0.5489207E-005  0.3111676E+03  0.7546771E-02  0.1079788E+00
         21   -1    0    0  502  501  0.00000000000E+00  0.00000000000E+00  0.29278554013E+03  0.29278554013E+03  0.00000000000E+00 0.  1.
         21   -1    0    0  501  502 -0.00000000000E+00 -0.00000000000E+00 -0.33070381584E+03  0.33070381584E+03  0.00000000000E+00 0.  1.
         25    1    1    2    0    0  0.55831898067E+02  0.18200527835E+03  0.53326524755E+02  0.23390562292E+03  0.12500000000E+03 0.  0.
         25    1    1    2    0    0  0.59518939707E+02 -0.17816679859E+02 -0.56702590068E+02  0.15066559656E+03  0.12500000000E+03 0.  0.
         25    1    1    2    0    0 -0.11535083777E+03 -0.16418859849E+03 -0.34542210392E+02  0.23891813650E+03  0.12500000000E+03 0.  0.
</event>
<event>
 5    0  0.5489207E-005  0.2671833E+03  0.7546771E-02  0.1102903E+00
         21   -1    0    0  502  501  0.00000000000E+00  0.00000000000E+00  0.95221171039E+03  0.95221171039E+03  0.00000000000E+00 0. -1.
         21   -1    0    0  501  502 -0.00000000000E+00 -0.00000000000E+00 -0.74969603270E+02  0.74969603270E+02  0.00000000000E+00 0. -1.
         25    1    1    2    0    0 -0.68728774153E+01  0.14323113274E+03  0.33782769099E+03  0.38770471061E+03  0.12500000000E+03 0.  0.
         25    1    1    2    0    0  0.60290012358E+02  0.19695520570E+01  0.16587898012E+03  0.21628592366E+03  0.12500000000E+03 0.  0.
         25    1    1    2    0    0 -0.53417134943E+02 -0.14520068480E+03  0.37353543601E+03  0.42319067939E+03  0.12500000000E+03 0.  0.
</event>
<event>
 5    0  0.5489207E-005  0.2848308E+03  0.7546771E-02  0.1093079E+00
         21   -1    0    0  502  501  0.00000000000E+00  0.00000000000E+00  0.19428596609E+03  0.19428596609E+03  0.00000000000E+00 0. -1.
         21   -1    0    0  501  502 -0.00000000000E+00 -0.00000000000E+00 -0.41757310905E+03  0.41757310905E+03  0.00000000000E+00 0. -1.
         25    1    1    2    0    0  0.55868971646E+02 -0.39923564079E+02 -0.13061440406E+02  0.14321604026E+03  0.12500000000E+03 0.  0.
         25    1    1    2    0    0  0.65042174456E+02  0.93268873616E+02  0.25495631885E+02  0.17089351798E+03  0.12500000000E+03 0.  0.
         25    1    1    2    0    0 -0.12091114610E+03 -0.53345309536E+02 -0.23572133444E+03  0.29774951690E+03  0.12500000000E+03 0.  0.
</event>
<event>
 5    0  0.5489207E-005  0.2731189E+03  0.7546771E-02  0.1099508E+00
         21   -1    0    0  502  501  0.00000000000E+00  0.00000000000E+00  0.29575626437E+03  0.29575626437E+03  0.00000000000E+00 0.  1.
         21   -1    0    0  501  502 -0.00000000000E+00 -0.00000000000E+00 -0.25221419307E+03  0.25221419307E+03  0.00000000000E+00 0.  1.
         25    1    1    2    0    0 -0.49950471466E+02  0.52267099580E+02  0.35704912049E+02  0.14875059678E+03  0.12500000000E+03 0.  0.
         25    1    1    2    0    0 -0.78411234899E+02 -0.13595402627E+03 -0.82957922174E+01  0.20081244778E+03  0.12500000000E+03 0.  0.
         25    1    1    2    0    0  0.12836170636E+03  0.83686926685E+02  0.16132951471E+02  0.19840741287E+03  0.12500000000E+03 0.  0.
</event>
<event>
 5    0  0.5489207E-005  0.4221774E+03  0.7546771E-02  0.1036360E+00
         21   -1    0    0  502  501  0.00000000000E+00  0.00000000000E+00  0.33050774555E+03  0.33050774555E+03  0.00000000000E+00 0.  1.
         21   -1    0    0  501  502 -0.00000000000E+00 -0.00000000000E+00 -0.53927248883E+03  0.53927248883E+03  0.00000000000E+00 0.  1.
         25    1    1    2    0    0  0.17534690240E+03 -0.59689295403E+02  0.41573985201E+02  0.22729440031E+03  0.12500000000E+03 0.  0.
         25    1    1    2    0    0 -0.34951458614E+03  0.58608299365E+02 -0.13700659250E+03  0.39998898118E+03  0.12500000000E+03 0.  0.
         25    1    1    2    0    0  0.17416768375E+03  0.10809960387E+01 -0.11333213599E+03  0.24249685289E+03  0.12500000000E+03 0.  0.
</event>
<event>
 5    0  0.5489207E-005  0.3315066E+03  0.7546771E-02  0.1070472E+00
         21   -1    0    0  502  501  0.00000000000E+00  0.00000000000E+00  0.59903094696E+03  0.59903094696E+03  0.00000000000E+00 0.  1.
         21   -1    0    0  501  502 -0.00000000000E+00 -0.00000000000E+00 -0.18345739727E+03  0.18345739727E+03  0.00000000000E+00 0.  1.
         25    1    1    2    0    0  0.11652195863E+02  0.90938477693E+02  0.18959619719E+03  0.24490263041E+03  0.12500000000E+03 0.  0.
         25    1    1    2    0    0  0.15837683866E+03  0.56688726909E+02  0.17938043139E+03  0.27586078726E+03  0.12500000000E+03 0.  0.
         25    1    1    2    0    0 -0.17002903452E+03 -0.14762720460E+03  0.46596921106E+02  0.26172492655E+03  0.12500000000E+03 0.  0.
</event>
<event>
 5    0  0.5489207E-005  0.5458849E+03  0.7546771E-02  0.1002451E+00
         21   -1    0    0  502  501  0.00000000000E+00  0.00000000000E+00  0.15778667716E+04  0.15778667716E+04  0.00000000000E+00 0.  1.
         21   -1    0    0  501  502 -0.00000000000E+00 -0.00000000000E+00 -0.18885647597E+03  0.18885647597E+03  0.00000000000E+00 0.  1.
         25    1    1    2    0    0  0.39946067919E+02 -0.27047257325E+02  0.10096925519E+04  0.10185437113E+04  0.12500000000E+03 0.  0.
         25    1    1    2    0    0 -0.23866762502E+03 -0.18635724280E+03  0.19685114407E+03  0.38218664301E+03  0.12500000000E+03 0.  0.
         25    1    1    2    0    0  0.19872155710E+03  0.21340450013E+03  0.18246659969E+03  0.36599289328E+03  0.12500000000E+03 0.  0.
</event>
<event>
 5    0  0.5489207E-005  0.2626691E+03  0.7546771E-02  0.1105550E+00
         21   -1    0    0  502  501  0.00000000000E+00  0.00000000000E+00  0.15747893096E+04  0.15747893096E+04  0.00000000000E+00 0. -1.
         21   -1    0    0  501  502 -0.00000000000E+00 -0.00000000000E+00 -0.43812260690E+02  0.43812260690E+02  0.00000000000E+00 0. -1.
         25    1    1    2    0    0 -0.89661779602E+02 -0.49546117646E+02  0.21088687103E+03  0.26569216185E+03  0.12500000000E+03 0.  0.
         25    1    1    2    0    0  0.16833994023E+02 -0.25384704731E+02  0.70291122999E+03  0.71458866758E+03  0.12500000000E+03 0.  0.
         25    1    1    2    0    0  0.72827785580E+02  0.74930822377E+02  0.61717894791E+03  0.63832074088E+03  0.12500000000E+03 0.  0.
</event>
<event>
 5    0  0.5489207E-005  0.3942816E+03  0.7546771E-02  0.1045778E+00
         21   -1    0    0  502  501  0.00000000000E+00  0.00000000000E+00  0.25907643952E+03  0.25907643952E+03  0.00000000000E+00 0. -1.
         21   -1    0    0  501  502 -0.00000000000E+00 -0.00000000000E+00 -0.60004673176E+03  0.60004673176E+03  0.00000000000E+00 0. -1.
         25    1    1    2    0    0 -0.49250281035E+01 -0.21956374160E+03  0.95289353015E+02  0.27006953424E+03  0.12500000000E+03 0.  0.
         25    1    1    2    0    0 -0.65076166238E+02  0.95045254550E+02 -0.85605679197E+02  0.19032036185E+03  0.12500000000E+03 0.  0.
         25    1    1    2    0    0  0.70001194341E+02  0.12451848705E+03 -0.35065396606E+03  0.39873327519E+03  0.12500000000E+03 0.  0.
</event>
<event>
 5    0  0.5489207E-005  0.3620121E+03  0.7546771E-02  0.1057790E+00
         21   -1    0    0  502  501  0.00000000000E+00  0.00000000000E+00  0.26314837387E+03  0.26314837387E+03  0.00000000000E+00 0. -1.
         21   -1    0    0  501  502 -0.00000000000E+00 -0.00000000000E+00 -0.49801845664E+03  0.49801845664E+03  0.00000000000E+00 0. -1.
         25    1    1    2    0    0 -0.19980778310E+03 -0.77403030691E+02 -0.36567161809E+02  0.25075194251E+03  0.12500000000E+03 0.  0.
         25    1    1    2    0    0  0.56224492592E+02  0.18217269959E+03 -0.18343261398E+03  0.29260999626E+03  0.12500000000E+03 0.  0.
         25    1    1    2    0    0  0.14358329051E+03 -0.10476966890E+03 -0.14870306979E+02  0.21780489174E+03  0.12500000000E+03 0.  0.
</event>
<event>
 5    0  0.5489207E-005  0.2811872E+03  0.7546771E-02  0.1095042E+00
         21   -1    0    0  502  501  0.00000000000E+00  0.00000000000E+00  0.19041042958E+04  0.19041042958E+04  0.00000000000E+00 0. -1.
         21   -1    0    0  501  502 -0.00000000000E+00 -0.00000000000E+00 -0.41524101049E+02  0.41524101049E+02  0.00000000000E+00 0. -1.
         25    1    1    2    0    0 -0.86454665751E+02 -0.10498370623E+03  0.62152149370E+03  0.64839027979E+03  0.12500000000E+03 0.  0.
         25    1    1    2    0    0 -0.95847364163E+01 -0.20628565391E+02  0.82725831666E+03  0.83695802007E+03  0.12500000000E+03 0.  0.
         25    1    1    2    0    0  0.96039402167E+02  0.12561227162E+03  0.41380038437E+03  0.46028009695E+03  0.12500000000E+03 0.  0.
</event>
<event>
 5    0  0.5489207E-005  0.3141937E+03  0.7546771E-02  0.1078353E+00
         21   -1    0    0  502  501  0.00000000000E+00  0.00000000000E+00  0.19575553603E+03  0.19575553603E+03  0.00000000000E+00 0.  1.
         21   -1    0    0  501  502 -0.00000000000E+00 -0.00000000000E+00 -0.50429051864E+03  0.50429051864E+03  0.00000000000E+00 0.  1.
         25    1    1    2    0    0  0.16768865178E+02 -0.20472643606E+03 -0.13179075083E+03  0.27420414013E+03  0.12500000000E+03 0.  0.
         25    1    1    2    0    0 -0.79207575598E+02  0.19106593510E+03 -0.14524212515E+03  0.28195798713E+03  0.12500000000E+03 0.  0.
         25    1    1    2    0    0  0.62438710420E+02  0.13660500951E+02 -0.31502106629E+02  0.14388392741E+03  0.12500000000E+03 0.  0.
</event>
<event>
 5    0  0.5489207E-005  0.3119080E+03  0.7546771E-02  0.1079435E+00
         21   -1    0    0  502  501  0.00000000000E+00  0.00000000000E+00  0.17736263926E+03  0.17736263926E+03  0.00000000000E+00 0. -1.
         21   -1    0    0  501  502 -0.00000000000E+00 -0.00000000000E+00 -0.54851793037E+03  0.54851793037E+03  0.00000000000E+00 0. -1.
         25    1    1    2    0    0  0.48708568422E+02 -0.25669455543E+02 -0.24900732249E+03  0.28400896507E+03  0.12500000000E+03 0.  0.
         25    1    1    2    0    0  0.11970342725E+03 -0.20697526364E+01 -0.14929740190E+03  0.22857801422E+03  0.12500000000E+03 0.  0.
         25    1    1    2    0    0 -0.16841199567E+03  0.27739208180E+02  0.27149433281E+02  0.21329359035E+03  0.12500000000E+03 0.  0.
</event>
<event>
 5    0  0.5489207E-005  0.2514010E+03  0.7546771E-02  0.1112423E+00
         21   -1    0    0  502  501  0.00000000000E+00  0.00000000000E+00  0.68845231558E+03  0.68845231558E+03  0.00000000000E+00 0.  1.
         21   -1    0    0  501  502 -0.00000000000E+00 -0.00000000000E+00 -0.91803689687E+02  0.91803689687E+02  0.00000000000E+00 0.  1.
         25    1    1    2    0    0  0.79989124998E+02 -0.81506900189E+02  0.12836362651E+03  0.21247083449E+03  0.12500000000E+03 0.  0.
         25    1    1    2    0    0 -0.96101159723E+02  0.69377948231E+02  0.16245564191E+03  0.23678168888E+03  0.12500000000E+03 0.  0.
         25    1    1    2    0    0  0.16112034726E+02  0.12128951959E+02  0.30582935747E+03  0.33100348190E+03  0.12500000000E+03 0.  0.
</event>
<event>
 5    0  0.6068044E-005  0.2735392E+03  0.7546771E-02  0.1099271E+00
         21   -1    0    0  502  501  0.00000000000E+00  0.00000000000E+00  0.29371309818E+03  0.29371309818E+03  0.00000000000E+00 0.  1.
         21   -1    0    0  501  502 -0.00000000000E+00 -0.00000000000E+00 -0.25475089717E+03  0.25475089717E+03  0.00000000000E+00 0.  1.
         25    1    1    2    0    0  0.65311810999E+02  0.24774678277E+02 -0.94413705394E+02  0.17151782737E+03  0.12500000000E+03 0.  0.
         25    1    1    2    0    0  0.11715140294E+02  0.97059670353E+02  0.35923364376E+02  0.16270621448E+03  0.12500000000E+03 0.  0.
         25    1    1    2    0    0 -0.77026951293E+02 -0.12183434863E+03  0.97452542021E+02  0.21423995350E+03  0.12500000000E+03 0.  0.
</event>
<event>
 5    0  0.5489207E-005  0.3284482E+03  0.7546771E-02  0.1071826E+00
         21   -1    0    0  502  501  0.00000000000E+00  0.00000000000E+00  0.94659688942E+02  0.94659688942E+02  0.00000000000E+00 0.  1.
         21   -1    0    0  501  502 -0.00000000000E+00 -0.00000000000E+00 -0.11396428951E+04  0.11396428951E+04  0.00000000000E+00 0.  1.
         25    1    1    2    0    0  0.65834821579E+02 -0.16942808472E+03 -0.44999339353E+03  0.50115781331E+03  0.12500000000E+03 0.  0.
         25    1    1    2    0    0 -0.14370327617E+03  0.16007446275E+02 -0.16121868179E+03  0.25004666219E+03  0.12500000000E+03 0.  0.
         25    1    1    2    0    0  0.77868454589E+02  0.15342063845E+03 -0.43377113088E+03  0.48309810857E+03  0.12500000000E+03 0.  0.
</event>
<event>
 5    0  0.5489207E-005  0.3460482E+03  0.7546771E-02  0.1064249E+00
         21   -1    0    0  502  501  0.00000000000E+00  0.00000000000E+00  0.25727680495E+03  0.25727680495E+03  0.00000000000E+00 0.  1.
         21   -1    0    0  501  502 -0.00000000000E+00 -0.00000000000E+00 -0.46544949625E+03  0.46544949625E+03  0.00000000000E+00 0.  1.
         25    1    1    2    0    0 -0.30674336426E+02  0.21231113008E+02  0.48365250137E+02  0.13912538408E+03  0.12500000000E+03 0.  0.
         25    1    1    2    0    0  0.16287396801E+03 -0.46397842949E+02  0.58909590927E+02  0.21857728425E+03  0.12500000000E+03 0.  0.
         25    1    1    2    0    0 -0.13219963158E+03  0.25166729942E+02 -0.31544753236E+03  0.36502363288E+03  0.12500000000E+03 0.  0.
</event>
<event>
 5    0  0.5489207E-005  0.2863306E+03  0.7546771E-02  0.1092281E+00
         21   -1    0    0  502  501  0.00000000000E+00  0.00000000000E+00  0.10378023772E+04  0.10378023772E+04  0.00000000000E+00 0. -1.
         21   -1    0    0  501  502 -0.00000000000E+00 -0.00000000000E+00 -0.78998862074E+02  0.78998862074E+02  0.00000000000E+00 0. -1.
         25    1    1    2    0    0 -0.39300043240E+02  0.15265763114E+03  0.51604522699E+03  0.55387410306E+03  0.12500000000E+03 0.  0.
         25    1    1    2    0    0 -0.57374620249E+02 -0.58176948155E+02  0.12094567977E+03  0.19216987745E+03  0.12500000000E+03 0.  0.
         25    1    1    2    0    0  0.96674663490E+02 -0.94480682984E+02  0.32181260836E+03  0.37075725875E+03  0.12500000000E+03 0.  0.
</event>
<event>
 5    0  0.5489207E-005  0.2619872E+03  0.7546771E-02  0.1105955E+00
         21   -1    0    0  502  501  0.00000000000E+00  0.00000000000E+00  0.39580891590E+03  0.39580891590E+03  0.00000000000E+00 0.  1.
         21   -1    0    0  501  502 -0.00000000000E+00 -0.00000000000E+00 -0.17341019960E+03  0.17341019960E+03  0.00000000000E+00 0.  1.
         25    1    1    2    0    0 -0.34659623702E+02 -0.20727301927E+02  0.39385640967E+02  0.13713912379E+03  0.12500000000E+03 0.  0.
         25    1    1    2    0    0  0.80133627925E+02 -0.24226111497E+02  0.23777584723E+03  0.28137280666E+03  0.12500000000E+03 0.  0.
         25    1    1    2    0    0 -0.45474004223E+02  0.44953413424E+02 -0.54762771902E+02  0.15070718505E+03  0.12500000000E+03 0.  0.
</event>
<event>
 5    0  0.5489207E-005  0.3366009E+03  0.7546771E-02  0.1068253E+00
         21   -1    0    0  502  501  0.00000000000E+00  0.00000000000E+00  0.14952636902E+03  0.14952636902E+03  0.00000000000E+00 0.  1.
         21   -1    0    0  501  502 -0.00000000000E+00 -0.00000000000E+00 -0.75772712558E+03  0.75772712558E+03  0.00000000000E+00 0.  1.
         25    1    1    2    0    0  0.19707586688E+03 -0.79763462242E+02 -0.27347724364E+03  0.36826065498E+03  0.12500000000E+03 0.  0.
         25    1    1    2    0    0 -0.23683624898E+03  0.48750425889E+02 -0.15146600657E+03  0.31150435631E+03  0.12500000000E+03 0.  0.
         25    1    1    2    0    0  0.39760382098E+02  0.31013036352E+02 -0.18325750634E+03  0.22748848331E+03  0.12500000000E+03 0.  0.
</event>
<event>
 5    0  0.5489207E-005  0.3135954E+03  0.7546771E-02  0.1078635E+00
         21   -1    0    0  502  501  0.00000000000E+00  0.00000000000E+00  0.73011839522E+02  0.73011839522E+02  0.00000000000E+00 0.  1.
         21   -1    0    0  501  502 -0.00000000000E+00 -0.00000000000E+00 -0.13469329850E+04  0.13469329850E+04  0.00000000000E+00 0.  1.
         25    1    1    2    0    0 -0.17454606483E+03 -0.35576943084E+01 -0.23532199105E+03  0.31855992436E+03  0.12500000000E+03 0.  0.
         25    1    1    2    0    0  0.56819737795E+02 -0.54605367017E+02 -0.71825999466E+03  0.73330256282E+03  0.12500000000E+03 0.  0.
         25    1    1    2    0    0  0.11772632704E+03  0.58163061325E+02 -0.32033915977E+03  0.36808233734E+03  0.12500000000E+03 0.  0.
</event>
<event>
 5    0  0.5489207E-005  0.2334794E+03  0.7546771E-02  0.1124214E+00
         21   -1    0    0  502  501  0.00000000000E+00  0.00000000000E+00  0.17204075088E+03  0.17204075088E+03  0.00000000000E+00 0. -1.
         21   -1    0    0  501  502 -0.00000000000E+00 -0.00000000000E+00 -0.31685892526E+03  0.31685892526E+03  0.00000000000E+00 0. -1.
         25    1    1    2    0    0  0.80067194125E+02  0.19070228315E+02 -0.13679188278E+03  0.20275958270E+03  0.12500000000E+03 0.  0.
         25    1    1    2    0    0 -0.79444455354E+02 -0.42547981708E+02 -0.30208985714E+02  0.15703291073E+03  0.12500000000E+03 0.  0.
         25    1    1    2    0    0 -0.62273877109E+00  0.23477753394E+02  0.22182694119E+02  0.12910718271E+03  0.12500000000E+03 0.  0.
</event>
<event>
 5    0  0.5489207E-005  0.2938826E+03  0.7546771E-02  0.1088339E+00
         21   -1    0    0  502  501  0.00000000000E+00  0.00000000000E+00  0.54020913728E+03  0.54020913728E+03  0.00000000000E+00 0.  1.
         21   -1    0    0  501  502 -0.00000000000E+00 -0.00000000000E+00 -0.15987698010E+03  0.15987698010E+03  0.00000000000E+00 0.  1.
         25    1    1    2    0    0 -0.76198842007E+02  0.11086301988E+03  0.14651548935E+03  0.23492267093E+03  0.12500000000E+03 0.  0.
         25    1    1    2    0    0  0.12951259326E+03 -0.17571847121E+03  0.14728193967E+03  0.29149178837E+03  0.12500000000E+03 0.  0.
         25    1    1    2    0    0 -0.53313751250E+02  0.64855451328E+02  0.86534728161E+02  0.17367165807E+03  0.12500000000E+03 0.  0.
</event>
<event>
 5    0  0.5489207E-005  0.3736560E+03  0.7546771E-02  0.1053304E+00
         21   -1    0    0  502  501  0.00000000000E+00  0.00000000000E+00  0.16383385334E+04  0.16383385334E+04  0.00000000000E+00 0. -1.
         21   -1    0    0  501  502 -0.00000000000E+00 -0.00000000000E+00 -0.85219762626E+02  0.85219762626E+02  0.00000000000E+00 0. -1.
         25    1    1    2    0    0  0.22558986165E+03 -0.11046727403E+03  0.64019982036E+03  0.69898112585E+03  0.12500000000E+03 0.  0.
         25    1    1    2    0    0  0.41942068032E+02  0.50824471087E+02  0.45509324344E+03  0.47652610018E+03  0.12500000000E+03 0.  0.
         25    1    1    2    0    0 -0.26753192968E+03  0.59642802941E+02  0.45782570694E+03  0.54805106995E+03  0.12500000000E+03 0.  0.
</event>
<event>
 5    0  0.5489207E-005  0.3634168E+03  0.7546771E-02  0.1057239E+00
         21   -1    0    0  502  501  0.00000000000E+00  0.00000000000E+00  0.96472759841E+02  0.96472759841E+02  0.00000000000E+00 0. -1.
         21   -1    0    0  501  502 -0.00000000000E+00 -0.00000000000E+00 -0.13690056949E+04  0.13690056949E+04  0.00000000000E+00 0. -1.
         25    1    1    2    0    0  0.14456252812E+03 -0.42276158204E+02 -0.11141960179E+03  0.22522194776E+03  0.12500000000E+03 0.  0.
         25    1    1    2    0    0 -0.69400573668E+00  0.98623172476E+02 -0.88983345954E+03  0.90396659093E+03  0.12500000000E+03 0.  0.
         25    1    1    2    0    0 -0.14386852238E+03 -0.56347014271E+02 -0.27127987371E+03  0.33628991604E+03  0.12500000000E+03 0.  0.
</event>
<event>
 5    0  0.5489207E-005  0.3789728E+03  0.7546771E-02  0.1051314E+00
         21   -1    0    0  502  501  0.00000000000E+00  0.00000000000E+00  0.28578304433E+03  0.28578304433E+03  0.00000000000E+00 0.  1.
         21   -1    0    0  501  502 -0.00000000000E+00 -0.00000000000E+00 -0.50255032317E+03  0.50255032317E+03  0.00000000000E+00 0.  1.
         25    1    1    2    0    0  0.47066019731E+02 -0.17011953835E+03  0.47491466961E+02  0.22144143013E+03  0.12500000000E+03 0.  0.
         25    1    1    2    0    0 -0.10628321281E+03  0.26040706194E+03 -0.25796403233E+03  0.40159482219E+03  0.12500000000E+03 0.  0.
         25    1    1    2    0    0  0.59217193080E+02 -0.90287523585E+02 -0.62947134732E+01  0.16529711519E+03  0.12500000000E+03 0.  0.
</event>
<event>
 5    0  0.5489207E-005  0.3612335E+03  0.7546771E-02  0.1058097E+00
         21   -1    0    0  502  501  0.00000000000E+00  0.00000000000E+00  0.20259285788E+04  0.20259285788E+04  0.00000000000E+00 0. -1.
         21   -1    0    0  501  502 -0.00000000000E+00 -0.00000000000E+00 -0.64409786359E+02  0.64409786359E+02  0.00000000000E+00 0. -1.
         25    1    1    2    0    0  0.88438149586E+02 -0.13776071838E+03  0.29353727749E+03  0.35859232439E+03  0.12500000000E+03 0.  0.
         25    1    1    2    0    0 -0.16643216454E+03  0.21408719835E+03  0.11273591365E+04  0.11662318022E+04  0.12500000000E+03 0.  0.
         25    1    1    2    0    0  0.77994014955E+02 -0.76326479979E+02  0.54062237851E+03  0.56551423860E+03  0.12500000000E+03 0.  0.
</event>
<event>
 5    0  0.5489207E-005  0.3223937E+03  0.7546771E-02  0.1074553E+00
         21   -1    0    0  502  501  0.00000000000E+00  0.00000000000E+00  0.36005337211E+03  0.36005337211E+03  0.00000000000E+00 0. -1.
         21   -1    0    0  501  502 -0.00000000000E+00 -0.00000000000E+00 -0.28867308159E+03  0.28867308159E+03  0.00000000000E+00 0. -1.
         25    1    1    2    0    0  0.24869276188E+02 -0.12791501242E+03 -0.17332800913E+03  0.25029648429E+03  0.12500000000E+03 0.  0.
         25    1    1    2    0    0 -0.26662192133E+02  0.12857915645E+03  0.99446850159E+02  0.20678043420E+03  0.12500000000E+03 0.  0.
         25    1    1    2    0    0  0.17929159450E+01 -0.66414403495E+00  0.14526144949E+03  0.19164953520E+03  0.12500000000E+03 0.  0.
</event>
<event>
 5    0  0.5489207E-005  0.3259083E+03  0.7546771E-02  0.1072962E+00
         21   -1    0    0  502  501  0.00000000000E+00  0.00000000000E+00  0.22032692357E+03  0.22032692357E+03  0.00000000000E+00 0. -1.
         21   -1    0    0  501  502 -0.00000000000E+00 -0.00000000000E+00 -0.48208458076E+03  0.48208458076E+03  0.00000000000E+00 0. -1.
         25    1    1    2    0    0 -0.46916025596E+02  0.31517708995E+02  0.50405333897E+02  0.14615121321E+03  0.12500000000E+03 0.  0.
         25    1    1    2    0    0 -0.39789079423E+02  0.14540201765E+03 -0.24461792460E+03  0.31334940021E+03  0.12500000000E+03 0.  0.
         25    1    1    2    0    0  0.86705105019E+02 -0.17691972665E+03 -0.67545066485E+02  0.24291089090E+03  0.12500000000E+03 0.  0.
</event>
<event>
 5    0  0.5489207E-005  0.2670388E+03  0.7546771E-02  0.1102986E+00
         21   -1    0    0  502  501  0.00000000000E+00  0.00000000000E+00  0.12397246622E+04  0.12397246622E+04  0.00000000000E+00 0.  1.
         21   -1    0    0  501  502 -0.00000000000E+00 -0.00000000000E+00 -0.57520600769E+02  0.57520600769E+02  0.00000000000E+00 0.  1.
         25    1    1    2    0    0  0.85420407840E+01  0.96880445465E+02  0.72736008015E+03  0.74440343455E+03  0.12500000000E+03 0.  0.
         25    1    1    2    0    0  0.22451964652E+02 -0.16110538126E+02  0.86887056754E+02  0.15471910285E+03  0.12500000000E+03 0.  0.
         25    1    1    2    0    0 -0.30994005436E+02 -0.80769907340E+02  0.36795692451E+03  0.39812272555E+03  0.12500000000E+03 0.  0.
</event>
<event>
 5    0  0.5489207E-005  0.3707994E+03  0.7546771E-02  0.1054388E+00
         21   -1    0    0  502  501  0.00000000000E+00  0.00000000000E+00  0.21501167274E+03  0.21501167274E+03  0.00000000000E+00 0. -1.
         21   -1    0    0  501  502 -0.00000000000E+00 -0.00000000000E+00 -0.63946400841E+03  0.63946400841E+03  0.00000000000E+00 0. -1.
         25    1    1    2    0    0  0.12599043899E+03  0.47086972513E+02 -0.68731938130E+02  0.19606084009E+03  0.12500000000E+03 0.  0.
         25    1    1    2    0    0  0.73898896908E+02 -0.12103867327E+03 -0.36511808353E+03  0.41115401288E+03  0.12500000000E+03 0.  0.
         25    1    1    2    0    0 -0.19988933590E+03  0.73951700756E+02  0.93976859878E+01  0.24726082818E+03  0.12500000000E+03 0.  0.
</event>
<event>
 5    0  0.5489207E-005  0.3837388E+03  0.7546771E-02  0.1049560E+00
         21   -1    0    0  502  501  0.00000000000E+00  0.00000000000E+00  0.10528668253E+03  0.10528668253E+03  0.00000000000E+00 0. -1.
         21   -1    0    0  501  502 -0.00000000000E+00 -0.00000000000E+00 -0.13986146239E+04  0.13986146239E+04  0.00000000000E+00 0. -1.
         25    1    1    2    0    0 -0.62885236706E+02  0.30089710242E+02 -0.12568280227E+02  0.14367639098E+03  0.12500000000E+03 0.  0.
         25    1    1    2    0    0  0.33888089280E+02  0.63705557076E+01 -0.80606277613E+02  0.15268057691E+03  0.12500000000E+03 0.  0.
         25    1    1    2    0    0  0.28997147426E+02 -0.36460265950E+02 -0.12001533835E+04  0.12075443385E+04  0.12500000000E+03 0.  0.
</event>
<event>
 5    0  0.5489207E-005  0.5223578E+03  0.7546771E-02  0.1008103E+00
         21   -1    0    0  502  501  0.00000000000E+00  0.00000000000E+00  0.29532486343E+03  0.29532486343E+03  0.00000000000E+00 0. -1.
         21   -1    0    0  501  502 -0.00000000000E+00 -0.00000000000E+00 -0.92392381968E+03  0.92392381968E+03  0.00000000000E+00 0. -1.
         25    1    1    2    0    0 -0.23080124127E+02 -0.17223540008E+03 -0.49676921946E+03  0.54092733576E+03  0.12500000000E+03 0.  0.
         25    1    1    2    0    0 -0.11565882930E+03 -0.38643714136E+02  0.18498652990E+03  0.25439205507E+03  0.12500000000E+03 0.  0.
         25    1    1    2    0    0  0.13873895343E+03  0.21087911421E+03 -0.31681626670E+03  0.42392929228E+03  0.12500000000E+03 0.  0.
</event>
<event>
 5    0  0.5489207E-005  0.2821270E+03  0.7546771E-02  0.1094533E+00
         21   -1    0    0  502  501  0.00000000000E+00  0.00000000000E+00  0.74712338883E+02  0.74712338883E+02  0.00000000000E+00 0.  1.
         21   -1    0    0  501  502 -0.00000000000E+00 -0.00000000000E+00 -0.10653614536E+04  0.10653614536E+04  0.00000000000E+00 0.  1.
         25    1    1    2    0    0 -0.40035652137E+02 -0.49813463712E+02 -0.36899589089E+03  0.39480020530E+03  0.12500000000E+03 0.  0.
         25    1    1    2    0    0 -0.11491506305E+03  0.27693268846E+02 -0.13394908248E+03  0.21803611066E+03  0.12500000000E+03 0.  0.
         25    1    1    2    0    0  0.15495071519E+03  0.22120194866E+02 -0.48770414133E+03  0.52723747650E+03  0.12500000000E+03 0.  0.
</event>
<event>
 5    0  0.5489207E-005  0.4017569E+03  0.7546771E-02  0.1043173E+00
         21   -1    0    0  502  501  0.00000000000E+00  0.00000000000E+00  0.23786008710E+04  0.23786008710E+04  0.00000000000E+00 0. -1.
         21   -1    0    0  501  502 -0.00000000000E+00 -0.00000000000E+00 -0.67858625938E+02  0.67858625938E+02  0.00000000000E+00 0. -1.
         25    1    1    2    0    0 -0.78783905795E+02  0.23632765571E+03  0.14724503589E+04  0.14985969185E+04  0.12500000000E+03 0.  0.
         25    1    1    2    0    0 -0.59005450292E+02 -0.19639354613E+03  0.35640398938E+03  0.42976839317E+03  0.12500000000E+03 0.  0.
         25    1    1    2    0    0  0.13778935609E+03 -0.39934109580E+02  0.48188789678E+03  0.51809418528E+03  0.12500000000E+03 0.  0.
</event>
<event>
 5    0  0.5489207E-005  0.2723297E+03  0.7546771E-02  0.1099954E+00
         21   -1    0    0  502  501  0.00000000000E+00  0.00000000000E+00  0.32757300684E+03  0.32757300684E+03  0.00000000000E+00 0.  1.
         21   -1    0    0  501  502 -0.00000000000E+00 -0.00000000000E+00 -0.22640288415E+03  0.22640288415E+03  0.00000000000E+00 0.  1.
         25    1    1    2    0    0  0.60740833601E+02  0.14181447562E+03  0.14863326329E+02  0.19911482323E+03  0.12500000000E+03 0.  0.
         25    1    1    2    0    0 -0.96362411957E+02 -0.13831103591E+03  0.25768043000E+02  0.21143473965E+03  0.12500000000E+03 0.  0.
         25    1    1    2    0    0  0.35621578355E+02 -0.35034397070E+01  0.60538753355E+02  0.14342632810E+03  0.12500000000E+03 0.  0.
</event>
<event>
 5    0  0.5489207E-005  0.2830590E+03  0.7546771E-02  0.1094030E+00
         21   -1    0    0  502  501  0.00000000000E+00  0.00000000000E+00  0.37032700671E+03  0.37032700671E+03  0.00000000000E+00 0. -1.
         21   -1    0    0  501  502 -0.00000000000E+00 -0.00000000000E+00 -0.21635573325E+03  0.21635573325E+03  0.00000000000E+00 0. -1.
         25    1    1    2    0    0  0.82757797545E+02 -0.75081734360E+02  0.21913877749E+03  0.27592195217E+03  0.12500000000E+03 0.  0.
         25    1    1    2    0    0 -0.18804087373E+02  0.80246756005E+02 -0.79504071895E+02  0.16952590657E+03  0.12500000000E+03 0.  0.
         25    1    1    2    0    0 -0.63953710172E+02 -0.51650216454E+01  0.14336567866E+02  0.14123488121E+03  0.12500000000E+03 0.  0.
</event>
<event>
 5    0  0.5489207E-005  0.2700521E+03  0.7546771E-02  0.1101250E+00
         21   -1    0    0  502  501  0.00000000000E+00  0.00000000000E+00  0.38190102917E+03  0.38190102917E+03  0.00000000000E+00 0. -1.
         21   -1    0    0  501  502 -0.00000000000E+00 -0.00000000000E+00 -0.19096079956E+03  0.19096079956E+03  0.00000000000E+00 0. -1.
         25    1    1    2    0    0 -0.98671101605E+02 -0.33880180297E+02 -0.67634852205E+02  0.17630464016E+03  0.12500000000E+03 0.  0.
         25    1    1    2    0    0  0.85083132386E+02  0.72438486326E+02  0.12525068876E+03  0.20928260499E+03  0.12500000000E+03 0.  0.
         25    1    1    2    0    0  0.13587969219E+02 -0.38558306029E+02  0.13332439306E+03  0.18727458358E+03  0.12500000000E+03 0.  0.
</event>
<event>
 5    0  0.5489207E-005  0.2741203E+03  0.7546771E-02  0.1098944E+00
         21   -1    0    0  502  501  0.00000000000E+00  0.00000000000E+00  0.84591655979E+02  0.84591655979E+02  0.00000000000E+00 0.  1.
         21   -1    0    0  501  502 -0.00000000000E+00 -0.00000000000E+00 -0.88829003890E+03  0.88829003890E+03  0.00000000000E+00 0.  1.
         25    1    1    2    0    0 -0.38713454220E+02  0.15451371566E+03 -0.20224567237E+03  0.28618443679E+03  0.12500000000E+03 0.  0.
         25    1    1    2    0    0  0.11756651664E+02 -0.12666360542E+03 -0.21876157695E+03  0.28224725924E+03  0.12500000000E+03 0.  0.
         25    1    1    2    0    0  0.26956802556E+02 -0.27850110239E+02 -0.38269113359E+03  0.40444999885E+03  0.12500000000E+03 0.  0.
</event>
<event>
 5    0  0.5489207E-005  0.2484012E+03  0.7546771E-02  0.1114319E+00
         21   -1    0    0  502  501  0.00000000000E+00  0.00000000000E+00  0.17713973811E+04  0.17713973811E+04  0.00000000000E+00 0.  1.
         21   -1    0    0  501  502 -0.00000000000E+00 -0.00000000000E+00 -0.34833037551E+02  0.34833037551E+02  0.00000000000E+00 0.  1.
         25    1    1    2    0    0 -0.31313068569E+02  0.49984310594E+01  0.14673407889E+03  0.19534938568E+03  0.12500000000E+03 0.  0.
         25    1    1    2    0    0  0.39307476421E+02  0.17854904719E+02  0.81383910242E+03  0.82451377184E+03  0.12500000000E+03 0.  0.
         25    1    1    2    0    0 -0.79944078523E+01 -0.22853335778E+02  0.77599116224E+03  0.78636726114E+03  0.12500000000E+03 0.  0.
</event>
<event>
 5    0  0.6354515E-005  0.2612839E+03  0.7546771E-02  0.1106374E+00
         21   -1    0    0  502  501  0.00000000000E+00  0.00000000000E+00  0.62467216794E+03  0.62467216794E+03  0.00000000000E+00 0.  1.
         21   -1    0    0  501  502 -0.00000000000E+00 -0.00000000000E+00 -0.10928815917E+03  0.10928815917E+03  0.00000000000E+00 0.  1.
         25    1    1    2    0    0 -0.60996563734E+02  0.73606062485E+02  0.24738735648E+03  0.29319607325E+03  0.12500000000E+03 0.  0.
         25    1    1    2    0    0 -0.78722375230E+02 -0.30917017034E+02  0.16119236888E+03  0.22081905282E+03  0.12500000000E+03 0.  0.
         25    1    1    2    0    0  0.13971893896E+03 -0.42689045451E+02  0.10680428341E+03  0.21994520104E+03  0.12500000000E+03 0.  0.
</event>
<event>
 5    0  0.5489207E-005  0.3208346E+03  0.7546771E-02  0.1075266E+00
         21   -1    0    0  502  501  0.00000000000E+00  0.00000000000E+00  0.82301665981E+03  0.82301665981E+03  0.00000000000E+00 0. -1.
         21   -1    0    0  501  502 -0.00000000000E+00 -0.00000000000E+00 -0.12507019072E+03  0.12507019072E+03  0.00000000000E+00 0. -1.
         25    1    1    2    0    0  0.14509860929E+03  0.12031691391E+03  0.95464014011E+02  0.24549571109E+03  0.12500000000E+03 0.  0.
         25    1    1    2    0    0  0.90105168013E+01 -0.30283253394E+02  0.13422712016E+03  0.18611873801E+03  0.12500000000E+03 0.  0.
         25    1    1    2    0    0 -0.15410912609E+03 -0.90033660512E+02  0.46825533491E+03  0.51647240143E+03  0.12500000000E+03 0.  0.
</event>
<event>
 5    0  0.5489207E-005  0.2566775E+03  0.7546771E-02  0.1109156E+00
         21   -1    0    0  502  501  0.00000000000E+00  0.00000000000E+00  0.82374742949E+02  0.82374742949E+02  0.00000000000E+00 0.  1.
         21   -1    0    0  501  502 -0.00000000000E+00 -0.00000000000E+00 -0.79980050080E+03  0.79980050080E+03  0.00000000000E+00 0.  1.
         25    1    1    2    0    0  0.10577678756E+02  0.10877687371E+03 -0.40277241353E+03  0.43565457950E+03  0.12500000000E+03 0.  0.
         25    1    1    2    0    0 -0.28764892572E+02 -0.13642324529E+03 -0.17720136465E+03  0.25780621508E+03  0.12500000000E+03 0.  0.
         25    1    1    2    0    0  0.18187213815E+02  0.27646371579E+02 -0.13745197968E+03  0.18871444917E+03  0.12500000000E+03 0.  0.
</event>
<event>
 5    0  0.5489207E-005  0.3363564E+03  0.7546771E-02  0.1068358E+00
         21   -1    0    0  502  501  0.00000000000E+00  0.00000000000E+00  0.12165572529E+04  0.12165572529E+04  0.00000000000E+00 0.  1.
         21   -1    0    0  501  502 -0.00000000000E+00 -0.00000000000E+00 -0.92996529547E+02  0.92996529547E+02  0.00000000000E+00 0.  1.
         25    1    1    2    0    0 -0.79091043577E+02  0.11787567884E+03  0.18147000720E+03  0.26211911862E+03  0.12500000000E+03 0.  0.
         25    1    1    2    0    0  0.14767853404E+03  0.52446228151E+02  0.65168616329E+03  0.68182065948E+03  0.12500000000E+03 0.  0.
         25    1    1    2    0    0 -0.68587490467E+02 -0.17032190699E+03  0.29040455286E+03  0.36561400434E+03  0.12500000000E+03 0.  0.
</event>
<event>
 5    0  0.5489207E-005  0.2494085E+03  0.7546771E-02  0.1113679E+00
         21   -1    0    0  502  501  0.00000000000E+00  0.00000000000E+00  0.78155195135E+03  0.78155195135E+03  0.00000000000E+00 0. -1.
         21   -1    0    0  501  502 -0.00000000000E+00 -0.00000000000E+00 -0.79591114384E+02  0.79591114384E+02  0.00000000000E+00 0. -1.
         25    1    1    2    0    0  0.76511036128E+02 -0.76889482049E+01  0.46681511968E+03  0.48934079590E+03  0.12500000000E+03 0.  0.
         25    1    1    2    0    0 -0.75809428438E+01  0.15656957921E+02  0.45178576407E+02  0.13404743486E+03  0.12500000000E+03 0.  0.
         25    1    1    2    0    0 -0.68930093284E+02 -0.79680097165E+01  0.18996714088E+03  0.23775483497E+03  0.12500000000E+03 0.  0.
</event>
<event>
 5    0  0.5489207E-005  0.2914795E+03  0.7546771E-02  0.1089579E+00
         21   -1    0    0  502  501  0.00000000000E+00  0.00000000000E+00  0.67007354330E+02  0.67007354330E+02  0.00000000000E+00 0.  1.
         21   -1    0    0  501  502 -0.00000000000E+00 -0.00000000000E+00 -0.12679245972E+04  0.12679245972E+04  0.00000000000E+00 0.  1.
         25    1    1    2    0    0  0.23229477497E+02 -0.17270793742E+03 -0.26956824001E+03  0.34447013847E+03  0.12500000000E+03 0.  0.
         25    1    1    2    0    0 -0.80268793987E+02  0.10804910326E+03 -0.55603389862E+03  0.58559062870E+03  0.12500000000E+03 0.  0.
         25    1    1    2    0    0  0.57039316490E+02  0.64658834154E+02 -0.37531510423E+03  0.40487118436E+03  0.12500000000E+03 0.  0.
</event>
<event>
 5    0  0.5707585E-005  0.3097923E+03  0.7546771E-02  0.1080445E+00
         21   -1    0    0  502  501  0.00000000000E+00  0.00000000000E+00  0.54342852338E+03  0.54342852338E+03  0.00000000000E+00 0.  1.
         21   -1    0    0  501  502 -0.00000000000E+00 -0.00000000000E+00 -0.17660333033E+03  0.17660333033E+03  0.00000000000E+00 0.  1.
         25    1    1    2    0    0  0.42482195198E+02  0.19066523032E+02  0.40350544785E+03  0.42498225334E+03  0.12500000000E+03 0.  0.
         25    1    1    2    0    0 -0.81597996674E+01  0.57460013587E+02 -0.43054113992E+02  0.14438452903E+03  0.12500000000E+03 0.  0.
         25    1    1    2    0    0 -0.34322395531E+02 -0.76526536619E+02  0.63738591910E+01  0.15066507134E+03  0.12500000000E+03 0.  0.
</event>
<event>
 5    0  0.5489207E-005  0.3222560E+03  0.7546771E-02  0.1074616E+00
         21   -1    0    0  502  501  0.00000000000E+00  0.00000000000E+00  0.22908203256E+03  0.22908203256E+03  0.00000000000E+00 0.  1.
         21   -1    0    0  501  502 -0.00000000000E+00 -0.00000000000E+00 -0.45332650762E+03  0.45332650762E+03  0.00000000000E+00 0.  1.
         25    1    1    2    0    0  0.58580084321E+02 -0.55170474306E+02 -0.14223599190E+03  0.20574616620E+03  0.12500000000E+03 0.  0.
         25    1    1    2    0    0 -0.15289720872E+03 -0.12275418243E+03 -0.39641436332E+02  0.23588681441E+03  0.12500000000E+03 0.  0.
         25    1    1    2    0    0  0.94317124400E+02  0.17792465673E+03 -0.42367046826E+02  0.24077555957E+03  0.12500000000E+03 0.  0.
</event>
<event>
 5    0  0.5489207E-005  0.2447334E+03  0.7546771E-02  0.1116679E+00
         21   -1    0    0  502  501  0.00000000000E+00  0.00000000000E+00  0.65812792887E+02  0.65812792887E+02  0.00000000000E+00 0. -1.
         21   -1    0    0  501  502 -0.00000000000E+00 -0.00000000000E+00 -0.91007264370E+03  0.91007264370E+03  0.00000000000E+00 0. -1.
         25    1    1    2    0    0 -0.23351031260E-01  0.11602019424E+03 -0.47486761959E+03  0.50456411104E+03  0.12500000000E+03 0.  0.
         25    1    1    2    0    0 -0.86963321102E+01 -0.10274291803E+03 -0.24876012957E+03  0.29688101229E+03  0.12500000000E+03 0.  0.
         25    1    1    2    0    0  0.87196831414E+01 -0.13277276211E+02 -0.12063210166E+03  0.17444031325E+03  0.12500000000E+03 0.  0.
</event>
<event>
 5    0  0.5489207E-005  0.2765324E+03  0.7546771E-02  0.1097598E+00
         21   -1    0    0  502  501  0.00000000000E+00  0.00000000000E+00  0.72485731019E+02  0.72485731019E+02  0.00000000000E+00 0. -1.
         21   -1    0    0  501  502 -0.00000000000E+00 -0.00000000000E+00 -0.10549684282E+04  0.10549684282E+04  0.00000000000E+00 0. -1.
         25    1    1    2    0    0  0.10305693271E+02  0.84688387474E+02 -0.60064040230E+03  0.61941280513E+03  0.12500000000E+03 0.  0.
         25    1    1    2    0    0 -0.58228182297E+01 -0.14888759412E+03 -0.21818087657E+03  0.29228293792E+03  0.12500000000E+03 0.  0.
         25    1    1    2    0    0 -0.44828750412E+01  0.64199206647E+02 -0.16366141828E+03  0.21575841614E+03  0.12500000000E+03 0.  0.
</event>
<event>
 5    0  0.5489207E-005  0.3051952E+03  0.7546771E-02  0.1082672E+00
         21   -1    0    0  502  501  0.00000000000E+00  0.00000000000E+00  0.98430634482E+02  0.98430634482E+02  0.00000000000E+00 0. -1.
         21   -1    0    0  501  502 -0.00000000000E+00 -0.00000000000E+00 -0.94629172301E+03  0.94629172301E+03  0.00000000000E+00 0. -1.
         25    1    1    2    0    0  0.15411975867E+02  0.68144203393E+02 -0.48734134219E+03  0.50794462815E+03  0.12500000000E+03 0.  0.
         25    1    1    2    0    0 -0.55575866021E+02  0.40664209686E+02 -0.53729815284E+01  0.14281499839E+03  0.12500000000E+03 0.  0.
         25    1    1    2    0    0  0.40163890153E+02 -0.10880841308E+03 -0.35514676481E+03  0.39396273095E+03  0.12500000000E+03 0.  0.
</event>
<event>
 5    0  0.5818604E-005  0.3541531E+03  0.7546771E-02  0.1060923E+00
         21   -1    0    0  502  501  0.00000000000E+00  0.00000000000E+00  0.63500094936E+03  0.63500094936E+03  0.00000000000E+00 0.  1.
         21   -1    0    0  501  502 -0.00000000000E+00 -0.00000000000E+00 -0.19751850265E+03  0.19751850265E+03  0.00000000000E+00 0.  1.
         25    1    1    2    0    0  0.11123011120E+03 -0.89358025707E+02  0.88753980892E+02  0.20942603353E+03  0.12500000000E+03 0.  0.
         25    1    1    2    0    0 -0.19353991102E+03 -0.28858015779E+00  0.38141163974E+03  0.44559804686E+03  0.12500000000E+03 0.  0.
         25    1    1    2    0    0  0.82309799821E+02  0.89646605865E+02 -0.32683173916E+02  0.17749537162E+03  0.12500000000E+03 0.  0.
</event>
<event>
 5    0  0.5489207E-005  0.2584337E+03  0.7546771E-02  0.1108088E+00
         21   -1    0    0  502  501  0.00000000000E+00  0.00000000000E+00  0.72119528181E+02  0.72119528181E+02  0.00000000000E+00 0. -1.
         21   -1    0    0  501  502 -0.00000000000E+00 -0.00000000000E+00 -0.92607365102E+03  0.92607365102E+03  0.00000000000E+00 0. -1.
         25    1    1    2    0    0 -0.56434883494E+02 -0.11715360037E+03 -0.22863386978E+03  0.29121866108E+03  0.12500000000E+03 0.  0.
         25    1    1    2    0    0 -0.40781756006E+02  0.10151831063E+03 -0.37795167066E+03  0.41284571497E+03  0.12500000000E+03 0.  0.
         25    1    1    2    0    0  0.97216639500E+02  0.15635289737E+02 -0.24736858240E+03  0.29412880314E+03  0.12500000000E+03 0.  0.
</event>
<event>
 5    0  0.5489207E-005  0.2908676E+03  0.7546771E-02  0.1089897E+00
         21   -1    0    0  502  501  0.00000000000E+00  0.00000000000E+00  0.23436449894E+03  0.23436449894E+03  0.00000000000E+00 0.  1.
         21   -1    0    0  501  502 -0.00000000000E+00 -0.00000000000E+00 -0.36099306080E+03  0.36099306080E+03  0.00000000000E+00 0.  1.
         25    1    1    2    0    0 -0.10906510590E+03  0.15627555538E+02 -0.85195684196E+02  0.18714358771E+03  0.12500000000E+03 0.  0.
         25    1    1    2    0    0  0.12500059925E+03  0.13777974797E+02  0.11028287704E+03  0.20881162652E+03  0.12500000000E+03 0.  0.
         25    1    1    2    0    0 -0.15935493352E+02 -0.29405530335E+02 -0.15171575471E+03  0.19940234550E+03  0.12500000000E+03 0.  0.
</event>
<event>
 5    0  0.5489207E-005  0.2794528E+03  0.7546771E-02  0.1095988E+00
         21   -1    0    0  502  501  0.00000000000E+00  0.00000000000E+00  0.42209410068E+02  0.42209410068E+02  0.00000000000E+00 0.  1.
         21   -1    0    0  501  502 -0.00000000000E+00 -0.00000000000E+00 -0.18501527225E+04  0.18501527225E+04  0.00000000000E+00 0.  1.
         25    1    1    2    0    0 -0.83576562309E+02 -0.15910540947E+03 -0.98292848319E+03  0.10070119047E+04  0.12500000000E+03 0.  0.
         25    1    1    2    0    0  0.39712502904E+02  0.30533457986E+02 -0.30041888733E+03  0.32922011300E+03  0.12500000000E+03 0.  0.
         25    1    1    2    0    0  0.43864059405E+02  0.12857195149E+03 -0.52459594196E+03  0.55613011494E+03  0.12500000000E+03 0.  0.
</event>
<event>
 5    0  0.5514738E-005  0.3379988E+03  0.7546771E-02  0.1067651E+00
         21   -1    0    0  502  501  0.00000000000E+00  0.00000000000E+00  0.45248705358E+03  0.45248705358E+03  0.00000000000E+00 0.  1.
         21   -1    0    0  501  502 -0.00000000000E+00 -0.00000000000E+00 -0.25247830148E+03  0.25247830148E+03  0.00000000000E+00 0.  1.
         25    1    1    2    0    0 -0.73763881240E+02  0.10375425270E+03  0.78837060380E+02  0.19505470314E+03  0.12500000000E+03 0.  0.
         25    1    1    2    0    0 -0.55214195083E+02 -0.23568024238E+03  0.64550086573E+02  0.27997410177E+03  0.12500000000E+03 0.  0.
         25    1    1    2    0    0  0.12897807632E+03  0.13192598967E+03  0.56621605145E+02  0.22993655015E+03  0.12500000000E+03 0.  0.
</event>
<event>
 5    0  0.5489207E-005  0.2500108E+03  0.7546771E-02  0.1113298E+00
         21   -1    0    0  502  501  0.00000000000E+00  0.00000000000E+00  0.27890222291E+03  0.27890222291E+03  0.00000000000E+00 0.  1.
         21   -1    0    0  501  502 -0.00000000000E+00 -0.00000000000E+00 -0.22411231408E+03  0.22411231408E+03  0.00000000000E+00 0.  1.
         25    1    1    2    0    0  0.13124210493E+03  0.64598700691E+02 -0.31544864298E+02  0.19498092394E+03  0.12500000000E+03 0.  0.
         25    1    1    2    0    0 -0.42350706379E+02 -0.39019636660E+02  0.20400919092E+02  0.13913055694E+03  0.12500000000E+03 0.  0.
         25    1    1    2    0    0 -0.88891398549E+02 -0.25579064031E+02  0.65933854032E+02  0.16890305610E+03  0.12500000000E+03 0.  0.
</event>
<event>
 5    0  0.5489207E-005  0.5525573E+03  0.7546771E-02  0.1000904E+00
         21   -1    0    0  502  501  0.00000000000E+00  0.00000000000E+00  0.17209861069E+03  0.17209861069E+03  0.00000000000E+00 0. -1.
         21   -1    0    0  501  502 -0.00000000000E+00 -0.00000000000E+00 -0.17740963818E+04  0.17740963818E+04  0.00000000000E+00 0.  1.
         25    1    1    2    0    0  0.32860260245E+03  0.23338701535E+03 -0.31859211414E+03  0.52874862125E+03  0.12500000000E+03 0.  0.
         25    1    1    2    0    0 -0.28700321839E+03 -0.24173355158E+03 -0.11945440072E+04  0.12583188557E+04  0.12500000000E+03 0.  0.
         25    1    1    2    0    0 -0.41599384061E+02  0.83465362294E+01 -0.88861649738E+02  0.15912751558E+03  0.12500000000E+03 0.  0.
</event>
<event>
 5    0  0.5489207E-005  0.2639248E+03  0.7546771E-02  0.1104808E+00
         21   -1    0    0  502  501  0.00000000000E+00  0.00000000000E+00  0.19391315759E+03  0.19391315759E+03  0.00000000000E+00 0.  1.
         21   -1    0    0  501  502 -0.00000000000E+00 -0.00000000000E+00 -0.35921389160E+03  0.35921389160E+03  0.00000000000E+00 0.  1.
         25    1    1    2    0    0 -0.24641558161E+02  0.53682558649E+02  0.86556946426E+02  0.16311385124E+03  0.12500000000E+03 0.  0.
         25    1    1    2    0    0  0.85899717746E+02 -0.12732707120E+02 -0.14003275659E+03  0.20682131480E+03  0.12500000000E+03 0.  0.
         25    1    1    2    0    0 -0.61258159584E+02 -0.40949851528E+02 -0.11182492385E+03  0.18319188315E+03  0.12500000000E+03 0.  0.
</event>
<event>
 5    0  0.5489207E-005  0.3083950E+03  0.7546771E-02  0.1081118E+00
         21   -1    0    0  502  501  0.00000000000E+00  0.00000000000E+00  0.28013423914E+04  0.28013423914E+04  0.00000000000E+00 0.  1.
         21   -1    0    0  501  502 -0.00000000000E+00 -0.00000000000E+00 -0.33950683130E+02  0.33950683130E+02  0.00000000000E+00 0.  1.
         25    1    1    2    0    0  0.30785942773E+02  0.20878358437E+03  0.69985661763E+03  0.74159466329E+03  0.12500000000E+03 0.  0.
         25    1    1    2    0    0 -0.53953913974E+01 -0.10556467397E+03  0.91267391277E+03  0.92723874040E+03  0.12500000000E+03 0.  0.
         25    1    1    2    0    0 -0.25390551375E+02 -0.10321891040E+03  0.11548611779E+04  0.11664596709E+04  0.12500000000E+03 0.  0.
</event>
<event>
 5    0  0.5489207E-005  0.3432075E+03  0.7546771E-02  0.1065438E+00
         21   -1    0    0  502  501  0.00000000000E+00  0.00000000000E+00  0.81097022420E+02  0.81097022420E+02  0.00000000000E+00 0.  1.
         21   -1    0    0  501  502 -0.00000000000E+00 -0.00000000000E+00 -0.14524750484E+04  0.14524750484E+04  0.00000000000E+00 0.  1.
         25    1    1    2    0    0  0.21410261223E+02  0.16950336412E+02 -0.26232134873E+03  0.29186161650E+03  0.12500000000E+03 0.  0.
         25    1    1    2    0    0  0.13547578943E+03  0.51124691847E+02 -0.96914863913E+03  0.98784690532E+03  0.12500000000E+03 0.  0.
         25    1    1    2    0    0 -0.15688605066E+03 -0.68075028259E+02 -0.13990803808E+03  0.25386354895E+03  0.12500000000E+03 0.  0.
</event>
<event>
 5    0  0.5489207E-005  0.2368814E+03  0.7546771E-02  0.1121888E+00
         21   -1    0    0  502  501  0.00000000000E+00  0.00000000000E+00  0.23403433368E+03  0.23403433368E+03  0.00000000000E+00 0. -1.
         21   -1    0    0  501  502 -0.00000000000E+00 -0.00000000000E+00 -0.23976318156E+03  0.23976318156E+03  0.00000000000E+00 0. -1.
         25    1    1    2    0    0 -0.85636164346E+01 -0.58242618317E+02  0.71708261928E+02  0.15566827854E+03  0.12500000000E+03 0.  0.
         25    1    1    2    0    0 -0.65959668650E+02  0.65762942492E+02 -0.64098716826E+01  0.15601771998E+03  0.12500000000E+03 0.  0.
         25    1    1    2    0    0  0.74523285084E+02 -0.75203241749E+01 -0.71027238130E+02  0.16211151672E+03  0.12500000000E+03 0.  0.
</event>
<event>
 5    0  0.5489207E-005  0.2442817E+03  0.7546771E-02  0.1116973E+00
         21   -1    0    0  502  501  0.00000000000E+00  0.00000000000E+00  0.48133613680E+02  0.48133613680E+02  0.00000000000E+00 0.  1.
         21   -1    0    0  501  502 -0.00000000000E+00 -0.00000000000E+00 -0.12397480695E+04  0.12397480695E+04  0.00000000000E+00 0.  1.
         25    1    1    2    0    0 -0.77600691869E+02 -0.60003860652E+02 -0.42431435107E+03  0.45308939427E+03  0.12500000000E+03 0.  0.
         25    1    1    2    0    0  0.70580162563E+02  0.87723314357E+02 -0.24648453331E+03  0.29842346488E+03  0.12500000000E+03 0.  0.
         25    1    1    2    0    0  0.70205293062E+01 -0.27719453705E+02 -0.52081557148E+03  0.53636882408E+03  0.12500000000E+03 0.  0.
</event>
<event>
 5    0  0.5489207E-005  0.2232208E+03  0.7546771E-02  0.1131504E+00
         21   -1    0    0  502  501  0.00000000000E+00  0.00000000000E+00  0.86890140226E+02  0.86890140226E+02  0.00000000000E+00 0. -1.
         21   -1    0    0  501  502 -0.00000000000E+00 -0.00000000000E+00 -0.57345422953E+03  0.57345422953E+03  0.00000000000E+00 0. -1.
         25    1    1    2    0    0 -0.33098601079E+01 -0.56252716784E+02 -0.23249963009E+03  0.26991924962E+03  0.12500000000E+03 0.  0.
         25    1    1    2    0    0  0.62288034501E+02  0.69996793952E+02 -0.11594788965E+03  0.19454630174E+03  0.12500000000E+03 0.  0.
         25    1    1    2    0    0 -0.58978174393E+02 -0.13744077168E+02 -0.13811656956E+03  0.19587881841E+03  0.12500000000E+03 0.  0.
</event>
<event>
 5    0  0.5489207E-005  0.3251422E+03  0.7546771E-02  0.1073307E+00
         21   -1    0    0  502  501  0.00000000000E+00  0.00000000000E+00  0.17759181577E+04  0.17759181577E+04  0.00000000000E+00 0.  1.
         21   -1    0    0  501  502 -0.00000000000E+00 -0.00000000000E+00 -0.59528335535E+02  0.59528335535E+02  0.00000000000E+00 0.  1.
         25    1    1    2    0    0  0.49407634858E+02 -0.59017124715E+02  0.58589573166E+03  0.60400574813E+03  0.12500000000E+03 0.  0.
         25    1    1    2    0    0  0.12969647805E+03  0.16601333360E+03  0.55367361284E+03  0.60544287336E+03  0.12500000000E+03 0.  0.
         25    1    1    2    0    0 -0.17910411291E+03 -0.10699620888E+03  0.57682047767E+03  0.62599787175E+03  0.12500000000E+03 0.  0.
</event>
<event>
 5    0  0.5489207E-005  0.2164110E+03  0.7546771E-02  0.1136587E+00
         21   -1    0    0  502  501  0.00000000000E+00  0.00000000000E+00  0.18200288953E+03  0.18200288953E+03  0.00000000000E+00 0. -1.
         21   -1    0    0  501  502 -0.00000000000E+00 -0.00000000000E+00 -0.25732407573E+03  0.25732407573E+03  0.00000000000E+00 0. -1.
         25    1    1    2    0    0  0.56855185420E+02  0.17049491835E+02  0.16736114571E+02  0.13938541822E+03  0.12500000000E+03 0.  0.
         25    1    1    2    0    0 -0.38473257331E+02  0.50062004583E+02 -0.26293650193E+02  0.14248772534E+03  0.12500000000E+03 0.  0.
         25    1    1    2    0    0 -0.18381928088E+02 -0.67111496418E+02 -0.65763650582E+02  0.15745382171E+03  0.12500000000E+03 0.  0.
</event>
<event>
 5    0  0.5861606E-005  0.2759671E+03  0.7546771E-02  0.1097912E+00
         21   -1    0    0  502  501  0.00000000000E+00  0.00000000000E+00  0.32025252431E+03  0.32025252431E+03  0.00000000000E+00 0. -1.
         21   -1    0    0  501  502 -0.00000000000E+00 -0.00000000000E+00 -0.23780566999E+03  0.23780566999E+03  0.00000000000E+00 0. -1.
         25    1    1    2    0    0  0.68451148495E+02 -0.95468061698E+02  0.30338181550E+02  0.17419849538E+03  0.12500000000E+03 0.  0.
         25    1    1    2    0    0 -0.53075361031E+02 -0.49966913538E+02  0.11131970034E+03  0.18256714404E+03  0.12500000000E+03 0.  0.
         25    1    1    2    0    0 -0.15375787464E+02  0.14543497524E+03 -0.59211027580E+02  0.20129255488E+03  0.12500000000E+03 0.  0.
</event>
<event>
 5    0  0.5489207E-005  0.2636510E+03  0.7546771E-02  0.1104969E+00
         21   -1    0    0  502  501  0.00000000000E+00  0.00000000000E+00  0.60120075906E+03  0.60120075906E+03  0.00000000000E+00 0. -1.
         21   -1    0    0  501  502 -0.00000000000E+00 -0.00000000000E+00 -0.11562170806E+03  0.11562170806E+03  0.00000000000E+00 0. -1.
         25    1    1    2    0    0  0.70751101995E+02  0.30547567858E+02  0.91204384218E+02  0.17286443254E+03  0.12500000000E+03 0.  0.
         25    1    1    2    0    0 -0.36477063383E+02  0.95061577876E+02  0.29929205992E+03  0.33995296274E+03  0.12500000000E+03 0.  0.
         25    1    1    2    0    0 -0.34274038613E+02 -0.12560914573E+03  0.95082606859E+02  0.20400507185E+03  0.12500000000E+03 0.  0.
</event>
<event>
 5    0  0.5489207E-005  0.5586076E+03  0.7546771E-02  0.9995210E-01
         21   -1    0    0  502  501  0.00000000000E+00  0.00000000000E+00  0.99909815211E+03  0.99909815211E+03  0.00000000000E+00 0. -1.
         21   -1    0    0  501  502 -0.00000000000E+00 -0.00000000000E+00 -0.31232406418E+03  0.31232406418E+03  0.00000000000E+00 0. -1.
         25    1    1    2    0    0 -0.15978036728E+03 -0.26660956004E+03  0.44889802869E+03  0.56012932742E+03  0.12500000000E+03 0.  0.
         25    1    1    2    0    0 -0.22308742152E+03  0.89485004732E+02  0.65372767301E+02  0.27870084754E+03  0.12500000000E+03 0.  0.
         25    1    1    2    0    0  0.38286778880E+03  0.17712455531E+03  0.17250329194E+03  0.47259204133E+03  0.12500000000E+03 0.  0.
</event>
<event>
 5    0  0.5489207E-005  0.2995144E+03  0.7546771E-02  0.1085484E+00
         21   -1    0    0  502  501  0.00000000000E+00  0.00000000000E+00  0.15040952475E+03  0.15040952475E+03  0.00000000000E+00 0.  1.
         21   -1    0    0  501  502 -0.00000000000E+00 -0.00000000000E+00 -0.59643062146E+03  0.59643062146E+03  0.00000000000E+00 0.  1.
         25    1    1    2    0    0  0.10473417745E+03  0.86014780599E+02 -0.15622603451E+03  0.24165960412E+03  0.12500000000E+03 0.  0.
         25    1    1    2    0    0  0.14930018080E+02 -0.15992498382E+03 -0.23137329524E+03  0.30815176073E+03  0.12500000000E+03 0.  0.
         25    1    1    2    0    0 -0.11966419553E+03  0.73910203216E+02 -0.58421766960E+02  0.19702878136E+03  0.12500000000E+03 0.  0.
</event>
<event>
 5    0  0.5489207E-005  0.2448139E+03  0.7546771E-02  0.1116627E+00
         21   -1    0    0  502  501  0.00000000000E+00  0.00000000000E+00  0.73035760273E+02  0.73035760273E+02  0.00000000000E+00 0. -1.
         21   -1    0    0  501  502 -0.00000000000E+00 -0.00000000000E+00 -0.82060960770E+03  0.82060960770E+03  0.00000000000E+00 0. -1.
         25    1    1    2    0    0 -0.56039866993E+02  0.46689703351E+01 -0.52511141274E+03  0.54270550188E+03  0.12500000000E+03 0.  0.
         25    1    1    2    0    0  0.15521489075E+02 -0.28860779086E+02 -0.15326840564E+03  0.20047460028E+03  0.12500000000E+03 0.  0.
         25    1    1    2    0    0  0.40518377918E+02  0.24191808751E+02 -0.69194029049E+02  0.15046526581E+03  0.12500000000E+03 0.  0.
</event>
<event>
 5    0  0.5489207E-005  0.2703643E+03  0.7546771E-02  0.1101071E+00
         21   -1    0    0  502  501  0.00000000000E+00  0.00000000000E+00  0.21007171221E+03  0.21007171221E+03  0.00000000000E+00 0.  1.
         21   -1    0    0  501  502 -0.00000000000E+00 -0.00000000000E+00 -0.34796143818E+03  0.34796143818E+03  0.00000000000E+00 0.  1.
         25    1    1    2    0    0  0.59697900562E+02 -0.43869141133E+02 -0.32546009225E+02  0.14890461239E+03  0.12500000000E+03 0.  0.
         25    1    1    2    0    0 -0.16899557601E+03  0.78903247222E+02 -0.44779234896E+02  0.22894411329E+03  0.12500000000E+03 0.  0.
         25    1    1    2    0    0  0.10929767544E+03 -0.35034106089E+02 -0.60564481848E+02  0.18018442471E+03  0.12500000000E+03 0.  0.
</event>
<event>
 5    0  0.5489207E-005  0.2693449E+03  0.7546771E-02  0.1101655E+00
         21   -1    0    0  502  501  0.00000000000E+00  0.00000000000E+00  0.84741049680E+02  0.84741049680E+02  0.00000000000E+00 0.  1.
         21   -1    0    0  501  502 -0.00000000000E+00 -0.00000000000E+00 -0.85609807296E+03  0.85609807296E+03  0.00000000000E+00 0.  1.
         25    1    1    2    0    0 -0.50188274668E+02 -0.27218627476E+02 -0.21315776928E+03  0.25361575503E+03  0.12500000000E+03 0.  0.
         25    1    1    2    0    0  0.11404727792E+02 -0.21681328519E+01 -0.53692997905E+03  0.55141052857E+03  0.12500000000E+03 0.  0.
         25    1    1    2    0    0  0.38783546876E+02  0.29386760328E+02 -0.21269274953E+02  0.13581283904E+03  0.12500000000E+03 0.  0.
</event>
<event>
 5    0  0.5816254E-005  0.2834454E+03  0.7546771E-02  0.1093822E+00
         21   -1    0    0  502  501  0.00000000000E+00  0.00000000000E+00  0.37888485158E+03  0.37888485158E+03  0.00000000000E+00 0.  1.
         21   -1    0    0  501  502 -0.00000000000E+00 -0.00000000000E+00 -0.21204668915E+03  0.21204668915E+03  0.00000000000E+00 0.  1.
         25    1    1    2    0    0 -0.20326514731E+02  0.36068908556E+02 -0.81625605769E+02  0.15492537843E+03  0.12500000000E+03 0.  0.
         25    1    1    2    0    0 -0.57853345475E+02 -0.11351490806E+03  0.18694509529E+03  0.25846878455E+03  0.12500000000E+03 0.  0.
         25    1    1    2    0    0  0.78179860206E+02  0.77445999507E+02  0.61518672908E+02  0.17753737775E+03  0.12500000000E+03 0.  0.
</event>
<event>
 5    0  0.5489207E-005  0.4058119E+03  0.7546771E-02  0.1041786E+00
         21   -1    0    0  502  501  0.00000000000E+00  0.00000000000E+00  0.10488685247E+03  0.10488685247E+03  0.00000000000E+00 0. -1.
         21   -1    0    0  501  502 -0.00000000000E+00 -0.00000000000E+00 -0.15701044474E+04  0.15701044474E+04  0.00000000000E+00 0. -1.
         25    1    1    2    0    0 -0.33659997644E+02  0.72779640374E+02 -0.16674493341E+03  0.22329071703E+03  0.12500000000E+03 0.  0.
         25    1    1    2    0    0 -0.25606496681E+03 -0.82555189874E+02 -0.39047118615E+03  0.49038492413E+03  0.12500000000E+03 0.  0.
         25    1    1    2    0    0  0.28972496445E+03  0.97755495004E+01 -0.90800147540E+03  0.96131565873E+03  0.12500000000E+03 0.  0.
</event>
<event>
 5    0  0.5489207E-005  0.2312898E+03  0.7546771E-02  0.1125735E+00
         21   -1    0    0  502  501  0.00000000000E+00  0.00000000000E+00  0.78654414786E+02  0.78654414786E+02  0.00000000000E+00 0. -1.
         21   -1    0    0  501  502 -0.00000000000E+00 -0.00000000000E+00 -0.68012669970E+03  0.68012669970E+03  0.00000000000E+00 0. -1.
         25    1    1    2    0    0 -0.12873052446E+02  0.30148176202E+02 -0.11060082585E+03  0.17009459335E+03  0.12500000000E+03 0.  0.
         25    1    1    2    0    0 -0.20453102151E+02 -0.11394259867E+03 -0.27319206713E+03  0.32196296483E+03  0.12500000000E+03 0.  0.
         25    1    1    2    0    0  0.33326154597E+02  0.83794422466E+02 -0.21767939193E+03  0.26672355630E+03  0.12500000000E+03 0.  0.
</event>
<event>
 5    0  0.5489207E-005  0.2858999E+03  0.7546771E-02  0.1092509E+00
         21   -1    0    0  502  501  0.00000000000E+00  0.00000000000E+00  0.40178242571E+03  0.40178242571E+03  0.00000000000E+00 0. -1.
         21   -1    0    0  501  502 -0.00000000000E+00 -0.00000000000E+00 -0.20344034762E+03  0.20344034762E+03  0.00000000000E+00 0. -1.
         25    1    1    2    0    0 -0.12090020721E+03 -0.34985411990E+02 -0.82041948402E+02  0.19543981286E+03  0.12500000000E+03 0.  0.
         25    1    1    2    0    0  0.77574603543E+02 -0.28351975700E+02  0.11604115314E+03  0.18950515260E+03  0.12500000000E+03 0.  0.
         25    1    1    2    0    0  0.43325603665E+02  0.63337387690E+02  0.16434287336E+03  0.22027780786E+03  0.12500000000E+03 0.  0.
</event>
<event>
 5    0  0.5489207E-005  0.2822678E+03  0.7546771E-02  0.1094457E+00
         21   -1    0    0  502  501  0.00000000000E+00  0.00000000000E+00  0.18639275635E+03  0.18639275635E+03  0.00000000000E+00 0. -1.
         21   -1    0    0  501  502 -0.00000000000E+00 -0.00000000000E+00 -0.42745823217E+03  0.42745823217E+03  0.00000000000E+00 0. -1.
         25    1    1    2    0    0  0.74259800698E+00  0.32311225799E+02 -0.60679639729E+02  0.14265898304E+03  0.12500000000E+03 0.  0.
         25    1    1    2    0    0 -0.12518994568E+03  0.28929956049E+02  0.38643438228E+02  0.18337878878E+03  0.12500000000E+03 0.  0.
         25    1    1    2    0    0  0.12444734767E+03 -0.61241181848E+02 -0.21902927432E+03  0.28781321669E+03  0.12500000000E+03 0.  0.
</event>
<event>
 5    0  0.6890657E-005  0.2690050E+03  0.7546771E-02  0.1101850E+00
         21   -1    0    0  502  501  0.00000000000E+00  0.00000000000E+00  0.65564399633E+03  0.65564399633E+03  0.00000000000E+00 0. -1.
         21   -1    0    0  501  502 -0.00000000000E+00 -0.00000000000E+00 -0.11037040008E+03  0.11037040008E+03  0.00000000000E+00 0. -1.
         25    1    1    2    0    0  0.91070252179E+02 -0.20937355276E+02  0.23424626101E+03  0.28147553086E+03  0.12500000000E+03 0.  0.
         25    1    1    2    0    0  0.38573952038E+02  0.94163559080E+02  0.21213720244E+03  0.26642432001E+03  0.12500000000E+03 0.  0.
         25    1    1    2    0    0 -0.12964420422E+03 -0.73226203804E+02  0.98890132791E+02  0.21811454554E+03  0.12500000000E+03 0.  0.
</event>
<event>
 5    0  0.5489207E-005  0.2649754E+03  0.7546771E-02  0.1104190E+00
         21   -1    0    0  502  501  0.00000000000E+00  0.00000000000E+00  0.21048671784E+03  0.21048671784E+03  0.00000000000E+00 0.  1.
         21   -1    0    0  501  502 -0.00000000000E+00 -0.00000000000E+00 -0.33356957312E+03  0.33356957312E+03  0.00000000000E+00 0.  1.
         25    1    1    2    0    0  0.10214577833E+03 -0.34426739708E+02 -0.17142953762E+02  0.16594529611E+03  0.12500000000E+03 0.  0.
         25    1    1    2    0    0 -0.81304861077E+02  0.12326215520E+03 -0.53651063409E+01  0.19354023795E+03  0.12500000000E+03 0.  0.
         25    1    1    2    0    0 -0.20840917257E+02 -0.88835415496E+02 -0.10057479517E+03  0.18457075690E+03  0.12500000000E+03 0.  0.
</event>
<event>
 5    0  0.5489207E-005  0.4568187E+03  0.7546771E-02  0.1025708E+00
         21   -1    0    0  502  501  0.00000000000E+00  0.00000000000E+00  0.10491586015E+04  0.10491586015E+04  0.00000000000E+00 0.  1.
         21   -1    0    0  501  502 -0.00000000000E+00 -0.00000000000E+00 -0.19890544187E+03  0.19890544187E+03  0.00000000000E+00 0.  1.
         25    1    1    2    0    0 -0.70203075635E+02  0.10744572607E+03  0.24731259048E+03  0.30538757881E+03  0.12500000000E+03 0.  0.
         25    1    1    2    0    0  0.19976116442E+03 -0.22755554416E+03  0.64387924859E+03  0.72242060827E+03  0.12500000000E+03 0.  0.
         25    1    1    2    0    0 -0.12955808878E+03  0.12010981808E+03 -0.40938679410E+02  0.22025585632E+03  0.12500000000E+03 0.  0.
</event>
<event>
 5    0  0.6455445E-005  0.2757064E+03  0.7546771E-02  0.1098057E+00
         21   -1    0    0  502  501  0.00000000000E+00  0.00000000000E+00  0.11712846779E+04  0.11712846779E+04  0.00000000000E+00 0.  1.
         21   -1    0    0  501  502 -0.00000000000E+00 -0.00000000000E+00 -0.64898000064E+02  0.64898000064E+02  0.00000000000E+00 0.  1.
         25    1    1    2    0    0 -0.84806631960E+01 -0.86470410630E+02  0.19453206383E+03  0.24701574327E+03  0.12500000000E+03 0.  0.
         25    1    1    2    0    0 -0.58701107302E+02  0.16968443523E+03  0.51020781467E+03  0.55513569666E+03  0.12500000000E+03 0.  0.
         25    1    1    2    0    0  0.67181770498E+02 -0.83214024597E+02  0.40164679935E+03  0.43403123805E+03  0.12500000000E+03 0.  0.
</event>
<event>
 5    0  0.5489207E-005  0.2300637E+03  0.7546771E-02  0.1126595E+00
         21   -1    0    0  502  501  0.00000000000E+00  0.00000000000E+00  0.56941460751E+02  0.56941460751E+02  0.00000000000E+00 0. -1.
         21   -1    0    0  501  502 -0.00000000000E+00 -0.00000000000E+00 -0.92953869970E+03  0.92953869970E+03  0.00000000000E+00 0. -1.
         25    1    1    2    0    0  0.98685161053E+02 -0.69999448333E+02 -0.34046137281E+03  0.38233183251E+03  0.12500000000E+03 0.  0.
         25    1    1    2    0    0 -0.54491126099E+02  0.63684036327E+02 -0.24018709822E+03  0.28344273047E+03  0.12500000000E+03 0.  0.
         25    1    1    2    0    0 -0.44194034954E+02  0.63154120060E+01 -0.29194876792E+03  0.32070559747E+03  0.12500000000E+03 0.  0.
</event>
<event>
 5    0  0.5489207E-005  0.2496845E+03  0.7546771E-02  0.1113504E+00
         21   -1    0    0  502  501  0.00000000000E+00  0.00000000000E+00  0.59486261198E+03  0.59486261198E+03  0.00000000000E+00 0. -1.
         21   -1    0    0  501  502 -0.00000000000E+00 -0.00000000000E+00 -0.10480122317E+03  0.10480122317E+03  0.00000000000E+00 0. -1.
         25    1    1    2    0    0  0.14506934639E+02 -0.94851564922E+02  0.29554686503E+03  0.33493315744E+03  0.12500000000E+03 0.  0.
         25    1    1    2    0    0  0.11042967317E+02  0.76720308302E+02  0.20964030282E+02  0.14856797568E+03  0.12500000000E+03 0.  0.
         25    1    1    2    0    0 -0.25549901955E+02  0.18131256620E+02  0.17355049349E+03  0.21616270203E+03  0.12500000000E+03 0.  0.
</event>
<event>
 5    0  0.5489207E-005  0.2918105E+03  0.7546771E-02  0.1089408E+00
         21   -1    0    0  502  501  0.00000000000E+00  0.00000000000E+00  0.99724703776E+02  0.99724703776E+02  0.00000000000E+00 0.  1.
         21   -1    0    0  501  502 -0.00000000000E+00 -0.00000000000E+00 -0.85388425583E+03  0.85388425583E+03  0.00000000000E+00 0.  1.
         25    1    1    2    0    0 -0.15014096247E+02  0.21524607807E+02 -0.21589277891E+03  0.25084541816E+03  0.12500000000E+03 0.  0.
         25    1    1    2    0    0 -0.42336862508E+02  0.11910738964E+03 -0.63353341053E+02  0.18872632571E+03  0.12500000000E+03 0.  0.
         25    1    1    2    0    0  0.57350958755E+02 -0.14063199745E+03 -0.47491343209E+03  0.51403721573E+03  0.12500000000E+03 0.  0.
</event>
<event>
 5    0  0.5489207E-005  0.4709892E+03  0.7546771E-02  0.1021641E+00
         21   -1    0    0  502  501  0.00000000000E+00  0.00000000000E+00  0.11418360889E+03  0.11418360889E+03  0.00000000000E+00 0.  1.
         21   -1    0    0  501  502 -0.00000000000E+00 -0.00000000000E+00 -0.19427553063E+04  0.19427553063E+04  0.00000000000E+00 0.  1.
         25    1    1    2    0    0 -0.16589935245E+03 -0.54409780739E+02 -0.25473182454E+03  0.33316110490E+03  0.12500000000E+03 0.  0.
         25    1    1    2    0    0 -0.13028727384E+03  0.15151937323E+03 -0.19888519026E+03  0.30840430135E+03  0.12500000000E+03 0.  0.
         25    1    1    2    0    0  0.29618662630E+03 -0.97109592490E+02 -0.13749546827E+04  0.14153735090E+04  0.12500000000E+03 0.  0.
</event>
<event>
 5    0  0.5489207E-005  0.2332555E+03  0.7546771E-02  0.1124369E+00
         21   -1    0    0  502  501  0.00000000000E+00  0.00000000000E+00  0.36442781557E+03  0.36442781557E+03  0.00000000000E+00 0. -1.
         21   -1    0    0  501  502 -0.00000000000E+00 -0.00000000000E+00 -0.14929740254E+03  0.14929740254E+03  0.00000000000E+00 0. -1.
         25    1    1    2    0    0  0.68499513645E+02 -0.88972832974E+01  0.47143838447E+02  0.15039576631E+03  0.12500000000E+03 0.  0.
         25    1    1    2    0    0  0.63158298139E+02 -0.15125547153E+01  0.80355847998E+02  0.16147235291E+03  0.12500000000E+03 0.  0.
         25    1    1    2    0    0 -0.13165781178E+03  0.10409838013E+02  0.87630726592E+02  0.20185709890E+03  0.12500000000E+03 0.  0.
</event>
<event>
 5    0  0.5489207E-005  0.5447899E+03  0.7546771E-02  0.1002707E+00
         21   -1    0    0  502  501  0.00000000000E+00  0.00000000000E+00  0.71328952075E+03  0.71328952075E+03  0.00000000000E+00 0. -1.
         21   -1    0    0  501  502 -0.00000000000E+00 -0.00000000000E+00 -0.41609473197E+03  0.41609473197E+03  0.00000000000E+00 0. -1.
         25    1    1    2    0    0  0.27124601328E+03 -0.21206073717E+03 -0.14990451913E+03  0.39577837337E+03  0.12500000000E+03 0.  0.
         25    1    1    2    0    0  0.73146145175E+02  0.14701910508E+03  0.12370330079E+03  0.24060856684E+03  0.12500000000E+03 0.  0.
         25    1    1    2    0    0 -0.34439215845E+03  0.65041632095E+02  0.32339600713E+03  0.49299731250E+03  0.12500000000E+03 0.  0.
</event>
<event>
 5    0  0.5489207E-005  0.2620907E+03  0.7546771E-02  0.1105894E+00
         21   -1    0    0  502  501  0.00000000000E+00  0.00000000000E+00  0.76743777891E+02  0.76743777891E+02  0.00000000000E+00 0. -1.
         21   -1    0    0  501  502 -0.00000000000E+00 -0.00000000000E+00 -0.89507608997E+03  0.89507608997E+03  0.00000000000E+00 0. -1.
         25    1    1    2    0    0 -0.10129316209E+03  0.12309962336E+03 -0.20349283388E+03  0.28713786827E+03  0.12500000000E+03 0.  0.
         25    1    1    2    0    0  0.49910479970E+02 -0.46182976351E+02 -0.24237890037E+03  0.28106307950E+03  0.12500000000E+03 0.  0.
         25    1    1    2    0    0  0.51382682125E+02 -0.76916647009E+02 -0.37246057783E+03  0.40361892008E+03  0.12500000000E+03 0.  0.
</event>
<event>
 5    0  0.5489207E-005  0.2577092E+03  0.7546771E-02  0.1108527E+00
         21   -1    0    0  502  501  0.00000000000E+00  0.00000000000E+00  0.14359299888E+04  0.14359299888E+04  0.00000000000E+00 0.  1.
         21   -1    0    0  501  502 -0.00000000000E+00 -0.00000000000E+00 -0.46251568879E+02  0.46251568879E+02  0.00000000000E+00 0.  1.
         25    1    1    2    0    0 -0.88447239833E+02 -0.21068776062E+02  0.17999721010E+03  0.23725682962E+03  0.12500000000E+03 0.  0.
         25    1    1    2    0    0  0.57945411443E+02 -0.25738831003E+01  0.87139967124E+03  0.88222824860E+03  0.12500000000E+03 0.  0.
         25    1    1    2    0    0  0.30501828390E+02  0.23642659162E+02  0.33828153853E+03  0.36269647941E+03  0.12500000000E+03 0.  0.
</event>
<event>
 5    0  0.5489207E-005  0.4627370E+03  0.7546771E-02  0.1023990E+00
         21   -1    0    0  502  501  0.00000000000E+00  0.00000000000E+00  0.40157383305E+03  0.40157383305E+03  0.00000000000E+00 0.  1.
         21   -1    0    0  501  502 -0.00000000000E+00 -0.00000000000E+00 -0.53321580517E+03  0.53321580517E+03  0.00000000000E+00 0.  1.
         25    1    1    2    0    0  0.15165880788E+03 -0.25098014257E+03 -0.15236436529E+01  0.31877695566E+03  0.12500000000E+03 0.  0.
         25    1    1    2    0    0 -0.16182885619E+03  0.29970001402E+03  0.75212873326E+02  0.37052753395E+03  0.12500000000E+03 0.  0.
         25    1    1    2    0    0  0.10170048310E+02 -0.48719871451E+02 -0.20533120180E+03  0.24548514861E+03  0.12500000000E+03 0.  0.
</event>
<event>
 5    0  0.5489207E-005  0.3980914E+03  0.7546771E-02  0.1044443E+00
         21   -1    0    0  502  501  0.00000000000E+00  0.00000000000E+00  0.18397463614E+03  0.18397463614E+03  0.00000000000E+00 0. -1.
         21   -1    0    0  501  502 -0.00000000000E+00 -0.00000000000E+00 -0.86140543076E+03  0.86140543076E+03  0.00000000000E+00 0. -1.
         25    1    1    2    0    0  0.42505309086E+02  0.77099990340E+02 -0.16631940324E+03  0.22591647507E+03  0.12500000000E+03 0.  0.
         25    1    1    2    0    0 -0.17733752468E+02  0.90212373864E+02  0.92234216362E+02  0.18051290547E+03  0.12500000000E+03 0.  0.
         25    1    1    2    0    0 -0.24771556618E+02 -0.16731236420E+03 -0.60334560773E+03  0.63895068636E+03  0.12500000000E+03 0.  0.
</event>
<event>
 5    0  0.5489207E-005  0.2701030E+03  0.7546771E-02  0.1101221E+00
         21   -1    0    0  502  501  0.00000000000E+00  0.00000000000E+00  0.28135846793E+04  0.28135846793E+04  0.00000000000E+00 0.  1.
         21   -1    0    0  501  502 -0.00000000000E+00 -0.00000000000E+00 -0.25929787126E+02  0.25929787126E+02  0.00000000000E+00 0.  1.
         25    1    1    2    0    0  0.63405594960E+02 -0.43594884700E+02  0.33424352156E+03  0.36505412633E+03  0.12500000000E+03 0.  0.
         25    1    1    2    0    0 -0.10262286148E+03 -0.97288076597E+01  0.17140819362E+04  0.17217223892E+04  0.12500000000E+03 0.  0.
         25    1    1    2    0    0  0.39217266522E+02  0.53323692360E+02  0.73932943440E+03  0.75273795091E+03  0.12500000000E+03 0.  0.
</event>
<event>
 5    0  0.5489207E-005  0.4092980E+03  0.7546771E-02  0.1040607E+00
         21   -1    0    0  502  501  0.00000000000E+00  0.00000000000E+00  0.18552319182E+03  0.18552319182E+03  0.00000000000E+00 0. -1.
         21   -1    0    0  501  502 -0.00000000000E+00 -0.00000000000E+00 -0.90298608282E+03  0.90298608282E+03  0.00000000000E+00 0. -1.
         25    1    1    2    0    0  0.16613920852E+03  0.21500460883E+03 -0.29512425472E+03  0.42018156093E+03  0.12500000000E+03 0.  0.
         25    1    1    2    0    0 -0.23265710849E+03 -0.19474181065E+03 -0.40943834099E+03  0.52470797403E+03  0.12500000000E+03 0.  0.
         25    1    1    2    0    0  0.66517899973E+02 -0.20262798182E+02 -0.12900295294E+02  0.14361973968E+03  0.12500000000E+03 0.  0.
</event>
<event>
 5    0  0.5489207E-005  0.3374967E+03  0.7546771E-02  0.1067867E+00
         21   -1    0    0  502  501  0.00000000000E+00  0.00000000000E+00  0.45543962878E+02  0.45543962878E+02  0.00000000000E+00 0.  1.
         21   -1    0    0  501  502 -0.00000000000E+00 -0.00000000000E+00 -0.25009683238E+04  0.25009683238E+04  0.00000000000E+00 0.  1.
         25    1    1    2    0    0 -0.32926296287E+02  0.12098633110E+03 -0.10250905905E+04  0.10402680193E+04  0.12500000000E+03 0.  0.
         25    1    1    2    0    0  0.15325120379E+03 -0.48789760469E+02 -0.31453802437E+03  0.37473396025E+03  0.12500000000E+03 0.  0.
         25    1    1    2    0    0 -0.12032490750E+03 -0.72196570627E+02 -0.11157957460E+04  0.11315103071E+04  0.12500000000E+03 0.  0.
</event>
<event>
 5    0  0.5489207E-005  0.3973355E+03  0.7546771E-02  0.1044706E+00
         21   -1    0    0  502  501  0.00000000000E+00  0.00000000000E+00  0.57255250095E+03  0.57255250095E+03  0.00000000000E+00 0.  1.
         21   -1    0    0  501  502 -0.00000000000E+00 -0.00000000000E+00 -0.27573974766E+03  0.27573974766E+03  0.00000000000E+00 0.  1.
         25    1    1    2    0    0 -0.93374647157E+02  0.35509977610E+02 -0.31873576044E+02  0.16315853668E+03  0.12500000000E+03 0.  0.
         25    1    1    2    0    0  0.30660001592E+03  0.62522385288E+01  0.27100554870E+03  0.42791549128E+03  0.12500000000E+03 0.  0.
         25    1    1    2    0    0 -0.21322536876E+03 -0.41762216139E+02  0.57680780630E+02  0.25721822065E+03  0.12500000000E+03 0.  0.
</event>
<event>
 5    0  0.5489207E-005  0.2685086E+03  0.7546771E-02  0.1102136E+00
         21   -1    0    0  502  501  0.00000000000E+00  0.00000000000E+00  0.75450371790E+03  0.75450371790E+03  0.00000000000E+00 0.  1.
         21   -1    0    0  501  502 -0.00000000000E+00 -0.00000000000E+00 -0.95555326165E+02  0.95555326165E+02  0.00000000000E+00 0.  1.
         25    1    1    2    0    0  0.61413014362E+02  0.51795572322E+02  0.21292395344E+02  0.15010897956E+03  0.12500000000E+03 0.  0.
         25    1    1    2    0    0 -0.67102278055E+02 -0.67060751400E+02  0.28355752804E+03  0.32408290885E+03  0.12500000000E+03 0.  0.
         25    1    1    2    0    0  0.56892636936E+01  0.15265179079E+02  0.35409846836E+03  0.37586715566E+03  0.12500000000E+03 0.  0.
</event>
<event>
 5    0  0.5489207E-005  0.4235860E+03  0.7546771E-02  0.1035905E+00
         21   -1    0    0  502  501  0.00000000000E+00  0.00000000000E+00  0.44809838087E+03  0.44809838087E+03  0.00000000000E+00 0. -1.
         21   -1    0    0  501  502 -0.00000000000E+00 -0.00000000000E+00 -0.40041459025E+03  0.40041459025E+03  0.00000000000E+00 0. -1.
         25    1    1    2    0    0  0.56115515836E+02  0.24133001982E+03  0.10983816687E+03  0.29846030303E+03  0.12500000000E+03 0.  0.
         25    1    1    2    0    0 -0.15914829046E+03 -0.26781282751E+02 -0.16473411833E+03  0.26231230472E+03  0.12500000000E+03 0.  0.
         25    1    1    2    0    0  0.10303277463E+03 -0.21454873707E+03  0.10257974208E+03  0.28774036337E+03  0.12500000000E+03 0.  0.
</event>
<event>
 5    0  0.5489207E-005  0.2832181E+03  0.7546771E-02  0.1093944E+00
         21   -1    0    0  502  501  0.00000000000E+00  0.00000000000E+00  0.23978135503E+03  0.23978135503E+03  0.00000000000E+00 0. -1.
         21   -1    0    0  501  502 -0.00000000000E+00 -0.00000000000E+00 -0.33452352324E+03  0.33452352324E+03  0.00000000000E+00 0. -1.
         25    1    1    2    0    0  0.10277453441E+02  0.61082561203E+02 -0.16715283316E+03  0.21771948688E+03  0.12500000000E+03 0.  0.
         25    1    1    2    0    0  0.48554908887E+02  0.28233188913E+02 -0.55851654857E+02  0.14798344327E+03  0.12500000000E+03 0.  0.
         25    1    1    2    0    0 -0.58832362328E+02 -0.89315750116E+02  0.12826231980E+03  0.20860194811E+03  0.12500000000E+03 0.  0.
</event>
<event>
 5    0  0.5489207E-005  0.3833352E+03  0.7546771E-02  0.1049708E+00
         21   -1    0    0  502  501  0.00000000000E+00  0.00000000000E+00  0.20108415048E+03  0.20108415048E+03  0.00000000000E+00 0.  1.
         21   -1    0    0  501  502 -0.00000000000E+00 -0.00000000000E+00 -0.73076822082E+03  0.73076822082E+03  0.00000000000E+00 0.  1.
         25    1    1    2    0    0  0.28107780461E+03  0.50381085438E+02 -0.38045825157E+03  0.49185004544E+03  0.12500000000E+03 0.  0.
         25    1    1    2    0    0 -0.50942067498E+02  0.30593695516E+02 -0.33184474856E+02  0.14232806406E+03  0.12500000000E+03 0.  0.
         25    1    1    2    0    0 -0.23013573711E+03 -0.80974780953E+02 -0.11604134392E+03  0.29767426181E+03  0.12500000000E+03 0.  0.
</event>
<event>
 5    0  0.5489207E-005  0.3296954E+03  0.7546771E-02  0.1071272E+00
         21   -1    0    0  502  501  0.00000000000E+00  0.00000000000E+00  0.55804736183E+02  0.55804736183E+02  0.00000000000E+00 0.  1.
         21   -1    0    0  501  502 -0.00000000000E+00 -0.00000000000E+00 -0.19478460904E+04  0.19478460904E+04  0.00000000000E+00 0.  1.
         25    1    1    2    0    0 -0.65312419396E+02  0.16795464838E+03 -0.89948637174E+03  0.92583757160E+03  0.12500000000E+03 0.  0.
         25    1    1    2    0    0  0.52926159068E+02  0.18222079626E+02 -0.67566735766E+03  0.68940887774E+03  0.12500000000E+03 0.  0.
         25    1    1    2    0    0  0.12386260328E+02 -0.18617672801E+03 -0.31688762480E+03  0.38840437722E+03  0.12500000000E+03 0.  0.
</event>
<event>
 5    0  0.5489207E-005  0.3555328E+03  0.7546771E-02  0.1060367E+00
         21   -1    0    0  502  501  0.00000000000E+00  0.00000000000E+00  0.62245325519E+03  0.62245325519E+03  0.00000000000E+00 0.  1.
         21   -1    0    0  501  502 -0.00000000000E+00 -0.00000000000E+00 -0.20307322782E+03  0.20307322782E+03  0.00000000000E+00 0.  1.
         25    1    1    2    0    0  0.11252253018E+03  0.20872591692E+02  0.15967290921E+03  0.23284635024E+03  0.12500000000E+03 0.  0.
         25    1    1    2    0    0 -0.42019714486E+01  0.16092486583E+03 -0.37265957430E+02  0.20719126572E+03  0.12500000000E+03 0.  0.
         25    1    1    2    0    0 -0.10832055873E+03 -0.18179745752E+03  0.29697307558E+03  0.38548886706E+03  0.12500000000E+03 0.  0.
</event>
<event>
 5    0  0.5489207E-005  0.3100053E+03  0.7546771E-02  0.1080343E+00
         21   -1    0    0  502  501  0.00000000000E+00  0.00000000000E+00  0.11938511947E+03  0.11938511947E+03  0.00000000000E+00 0.  1.
         21   -1    0    0  501  502 -0.00000000000E+00 -0.00000000000E+00 -0.80498532156E+03  0.80498532156E+03  0.00000000000E+00 0.  1.
         25    1    1    2    0    0  0.41814233361E+02  0.11806368214E+03 -0.41464512004E+03  0.45082484262E+03  0.12500000000E+03 0.  0.
         25    1    1    2    0    0 -0.92992278058E+02  0.55906611646E+02 -0.14355969222E+03  0.21910613464E+03  0.12500000000E+03 0.  0.
         25    1    1    2    0    0  0.51178044697E+02 -0.17397029378E+03 -0.12739538982E+03  0.25443946377E+03  0.12500000000E+03 0.  0.
</event>
<event>
 5    0  0.5489207E-005  0.5064411E+03  0.7546771E-02  0.1012111E+00
         21   -1    0    0  502  501  0.00000000000E+00  0.00000000000E+00  0.20731671922E+04  0.20731671922E+04  0.00000000000E+00 0. -1.
         21   -1    0    0  501  502 -0.00000000000E+00 -0.00000000000E+00 -0.12371533111E+03  0.12371533111E+03  0.00000000000E+00 0. -1.
         25    1    1    2    0    0  0.30567341293E+03 -0.23559160445E+03  0.88782600726E+03  0.97611457250E+03  0.12500000000E+03 0.  0.
         25    1    1    2    0    0 -0.13397979389E+02  0.27888987747E+02  0.64221441969E+03  0.65499745217E+03  0.12500000000E+03 0.  0.
         25    1    1    2    0    0 -0.29227543354E+03  0.20770261671E+03  0.41941143409E+03  0.56577049860E+03  0.12500000000E+03 0.  0.
</event>
<event>
 5    0  0.5489207E-005  0.3276855E+03  0.7546771E-02  0.1072166E+00
         21   -1    0    0  502  501  0.00000000000E+00  0.00000000000E+00  0.35246879552E+03  0.35246879552E+03  0.00000000000E+00 0.  1.
         21   -1    0    0  501  502 -0.00000000000E+00 -0.00000000000E+00 -0.30464486344E+03  0.30464486344E+03  0.00000000000E+00 0.  1.
         25    1    1    2    0    0  0.77229288061E+02  0.68831912618E+02  0.15037800616E+03  0.22122554072E+03  0.12500000000E+03 0.  0.
         25    1    1    2    0    0 -0.18771627915E+03 -0.30269006556E+02 -0.13061967405E+03  0.26237399540E+03  0.12500000000E+03 0.  0.
         25    1    1    2    0    0  0.11048699109E+03 -0.38562906062E+02  0.28065599964E+02  0.17351412284E+03  0.12500000000E+03 0.  0.
</event>
<event>
 5    0  0.5489207E-005  0.4220883E+03  0.7546771E-02  0.1036389E+00
         21   -1    0    0  502  501  0.00000000000E+00  0.00000000000E+00  0.58137455624E+03  0.58137455624E+03  0.00000000000E+00 0.  1.
         21   -1    0    0  501  502 -0.00000000000E+00 -0.00000000000E+00 -0.30644370585E+03  0.30644370585E+03  0.00000000000E+00 0.  1.
         25    1    1    2    0    0 -0.13775621650E+03 -0.10054982541E+03 -0.10582831335E+03  0.23645649596E+03  0.12500000000E+03 0.  0.
         25    1    1    2    0    0  0.17106504267E+03  0.18408224814E+03  0.40776709209E+03  0.49502376134E+03  0.12500000000E+03 0.  0.
         25    1    1    2    0    0 -0.33308826166E+02 -0.83532422733E+02 -0.27007928355E+02  0.15633800479E+03  0.12500000000E+03 0.  0.
</event>
<event>
 5    0  0.5489207E-005  0.3532437E+03  0.7546771E-02  0.1061292E+00
         21   -1    0    0  502  501  0.00000000000E+00  0.00000000000E+00  0.10100794927E+03  0.10100794927E+03  0.00000000000E+00 0. -1.
         21   -1    0    0  501  502 -0.00000000000E+00 -0.00000000000E+00 -0.12353593178E+04  0.12353593178E+04  0.00000000000E+00 0. -1.
         25    1    1    2    0    0  0.10670275364E+03  0.11179859498E+03 -0.11015563248E+03  0.22725242978E+03  0.12500000000E+03 0.  0.
         25    1    1    2    0    0 -0.13622307269E+03 -0.14778249168E+03 -0.88591409719E+03  0.91698701081E+03  0.12500000000E+03 0.  0.
         25    1    1    2    0    0  0.29520319049E+02  0.35983896705E+02 -0.13828163882E+03  0.19212782644E+03  0.12500000000E+03 0.  0.
</event>
<event>
 5    0  0.6504145E-005  0.2886511E+03  0.7546771E-02  0.1091056E+00
         21   -1    0    0  502  501  0.00000000000E+00  0.00000000000E+00  0.16569392084E+03  0.16569392084E+03  0.00000000000E+00 0.  1.
         21   -1    0    0  501  502 -0.00000000000E+00 -0.00000000000E+00 -0.50285147578E+03  0.50285147578E+03  0.00000000000E+00 0.  1.
         25    1    1    2    0    0  0.12079265714E+03  0.10507624067E+02 -0.59277545777E+02  0.18395679823E+03  0.12500000000E+03 0.  0.
         25    1    1    2    0    0 -0.16328309155E+03 -0.10773202714E+03 -0.17873878381E+03  0.29298482980E+03  0.12500000000E+03 0.  0.
         25    1    1    2    0    0  0.42490434416E+02  0.97224403070E+02 -0.99141225352E+02  0.19160376858E+03  0.12500000000E+03 0.  0.
</event>
<event>
 5    0  0.5489207E-005  0.5884405E+03  0.7546771E-02  0.9929683E-01
         21   -1    0    0  502  501  0.00000000000E+00  0.00000000000E+00  0.13707621041E+04  0.13707621041E+04  0.00000000000E+00 0. -1.
         21   -1    0    0  501  502 -0.00000000000E+00 -0.00000000000E+00 -0.25260565921E+03  0.25260565921E+03  0.00000000000E+00 0.  1.
         25    1    1    2    0    0  0.24440174045E+03  0.10954436412E+03  0.25259820315E+03  0.38879690158E+03  0.12500000000E+03 0.  0.
         25    1    1    2    0    0  0.35500793898E+02 -0.34344506772E+03  0.74498664099E+03  0.83056903155E+03  0.12500000000E+03 0.  0.
         25    1    1    2    0    0 -0.27990253435E+03  0.23390070360E+03  0.12057160075E+03  0.40400183018E+03  0.12500000000E+03 0.  0.
</event>
<event>
 5    0  0.5489207E-005  0.2702454E+03  0.7546771E-02  0.1101139E+00
         21   -1    0    0  502  501  0.00000000000E+00  0.00000000000E+00  0.15848574911E+03  0.15848574911E+03  0.00000000000E+00 0. -1.
         21   -1    0    0  501  502 -0.00000000000E+00 -0.00000000000E+00 -0.46081489259E+03  0.46081489259E+03  0.00000000000E+00 0. -1.
         25    1    1    2    0    0 -0.23600835511E+02 -0.29161179783E+02 -0.25733003890E+03  0.28853270657E+03  0.12500000000E+03 0.  0.
         25    1    1    2    0    0 -0.84543762311E+02 -0.21246784708E+02 -0.78189525115E+00  0.15239647295E+03  0.12500000000E+03 0.  0.
         25    1    1    2    0    0  0.10814459782E+03  0.50407964492E+02 -0.44217209330E+02  0.17837146219E+03  0.12500000000E+03 0.  0.
</event>
<event>
 5    0  0.5489207E-005  0.3045879E+03  0.7546771E-02  0.1082969E+00
         21   -1    0    0  502  501  0.00000000000E+00  0.00000000000E+00  0.11100533086E+03  0.11100533086E+03  0.00000000000E+00 0. -1.
         21   -1    0    0  501  502 -0.00000000000E+00 -0.00000000000E+00 -0.83575954666E+03  0.83575954666E+03  0.00000000000E+00 0. -1.
         25    1    1    2    0    0 -0.32023019097E+02  0.40087935772E+02 -0.18512653552E+02  0.13638267738E+03  0.12500000000E+03 0.  0.
         25    1    1    2    0    0 -0.56894359019E+02  0.99380456337E+02 -0.44936706557E+03  0.48028033772E+03  0.12500000000E+03 0.  0.
         25    1    1    2    0    0  0.88917378115E+02 -0.13946839211E+03 -0.25687449668E+03  0.33010186242E+03  0.12500000000E+03 0.  0.
</event>
<event>
 5    0  0.5489207E-005  0.2843603E+03  0.7546771E-02  0.1093331E+00
         21   -1    0    0  502  501  0.00000000000E+00  0.00000000000E+00  0.22751081834E+03  0.22751081834E+03  0.00000000000E+00 0. -1.
         21   -1    0    0  501  502 -0.00000000000E+00 -0.00000000000E+00 -0.35541516461E+03  0.35541516461E+03  0.00000000000E+00 0. -1.
         25    1    1    2    0    0  0.57630732461E+02  0.12118548369E+03 -0.11053833812E+02  0.18372373288E+03  0.12500000000E+03 0.  0.
         25    1    1    2    0    0 -0.27478347686E+02 -0.19409620300E+03 -0.88026784964E+02  0.24860030266E+03  0.12500000000E+03 0.  0.
         25    1    1    2    0    0 -0.30152384775E+02  0.72910719309E+02 -0.28823727497E+02  0.15060194741E+03  0.12500000000E+03 0.  0.
</event>
<event>
 5    0  0.5489207E-005  0.3598875E+03  0.7546771E-02  0.1058628E+00
         21   -1    0    0  502  501  0.00000000000E+00  0.00000000000E+00  0.16691737657E+03  0.16691737657E+03  0.00000000000E+00 0.  1.
         21   -1    0    0  501  502 -0.00000000000E+00 -0.00000000000E+00 -0.77594680395E+03  0.77594680395E+03  0.00000000000E+00 0.  1.
         25    1    1    2    0    0 -0.93693619548E+01 -0.66514617637E+02 -0.57492616161E+02  0.15310904681E+03  0.12500000000E+03 0.  0.
         25    1    1    2    0    0 -0.21005867682E+01  0.11444492290E+03 -0.61731036148E+03  0.64015555550E+03  0.12500000000E+03 0.  0.
         25    1    1    2    0    0  0.11469948723E+02 -0.47930305259E+02  0.65773550270E+02  0.14959957821E+03  0.12500000000E+03 0.  0.
</event>
<event>
 5    0  0.5489207E-005  0.2492818E+03  0.7546771E-02  0.1113760E+00
         21   -1    0    0  502  501  0.00000000000E+00  0.00000000000E+00  0.15029050105E+04  0.15029050105E+04  0.00000000000E+00 0. -1.
         21   -1    0    0  501  502 -0.00000000000E+00 -0.00000000000E+00 -0.41347547966E+02  0.41347547966E+02  0.00000000000E+00 0. -1.
         25    1    1    2    0    0 -0.20752186231E+02  0.38650195113E+00  0.25463091143E+03  0.28441642652E+03  0.12500000000E+03 0.  0.
         25    1    1    2    0    0  0.84831628677E+02 -0.86911813351E+02  0.40164104412E+03  0.43782484722E+03  0.12500000000E+03 0.  0.
         25    1    1    2    0    0 -0.64079442446E+02  0.86525311400E+02  0.80528550694E+03  0.82201128468E+03  0.12500000000E+03 0.  0.
</event>
<event>
 5    0  0.5489207E-005  0.2942035E+03  0.7546771E-02  0.1088175E+00
         21   -1    0    0  502  501  0.00000000000E+00  0.00000000000E+00  0.28223696146E+03  0.28223696146E+03  0.00000000000E+00 0. -1.
         21   -1    0    0  501  502 -0.00000000000E+00 -0.00000000000E+00 -0.30667740423E+03  0.30667740423E+03  0.00000000000E+00 0. -1.
         25    1    1    2    0    0 -0.11432126901E+03  0.49350968096E+02 -0.75618464716E+02  0.19195838821E+03  0.12500000000E+03 0.  0.
         25    1    1    2    0    0  0.11957427965E+03 -0.47153489250E+02 -0.96321997761E+02  0.20352981883E+03  0.12500000000E+03 0.  0.
         25    1    1    2    0    0 -0.52530106412E+01 -0.21974788459E+01  0.14750001970E+03  0.19342615864E+03  0.12500000000E+03 0.  0.
</event>
<event>
 5    0  0.5545357E-005  0.2923570E+03  0.7546771E-02  0.1089125E+00
         21   -1    0    0  502  501  0.00000000000E+00  0.00000000000E+00  0.59717650714E+03  0.59717650714E+03  0.00000000000E+00 0. -1.
         21   -1    0    0  501  502 -0.00000000000E+00 -0.00000000000E+00 -0.14312786390E+03  0.14312786390E+03  0.00000000000E+00 0. -1.
         25    1    1    2    0    0 -0.18758716838E+02 -0.99607774263E+02  0.12631254409E+03  0.20458117446E+03  0.12500000000E+03 0.  0.
         25    1    1    2    0    0 -0.59649109716E+01  0.18630598033E+03  0.30689046097E+03  0.38020028077E+03  0.12500000000E+03 0.  0.
         25    1    1    2    0    0  0.24723627809E+02 -0.86698206066E+02  0.20845638191E+02  0.15552291580E+03  0.12500000000E+03 0.  0.
</event>
<event>
 5    0  0.5489207E-005  0.2459281E+03  0.7546771E-02  0.1115906E+00
         21   -1    0    0  502  501  0.00000000000E+00  0.00000000000E+00  0.22316489448E+04  0.22316489448E+04  0.00000000000E+00 0. -1.
         21   -1    0    0  501  502 -0.00000000000E+00 -0.00000000000E+00 -0.27101323625E+02  0.27101323625E+02  0.00000000000E+00 0. -1.
         25    1    1    2    0    0 -0.54409911319E+02  0.23577476233E+02  0.44801426753E+03  0.46889030673E+03  0.12500000000E+03 0.  0.
         25    1    1    2    0    0  0.84315890674E+02  0.60350231119E+02  0.12520603623E+04  0.12625495913E+04  0.12500000000E+03 0.  0.
         25    1    1    2    0    0 -0.29905979355E+02 -0.83927707353E+02  0.50447299141E+03  0.52731037039E+03  0.12500000000E+03 0.  0.
</event>
<event>
 5    0  0.5489207E-005  0.3052100E+03  0.7546771E-02  0.1082665E+00
         21   -1    0    0  502  501  0.00000000000E+00  0.00000000000E+00  0.19529713439E+03  0.19529713439E+03  0.00000000000E+00 0.  1.
         21   -1    0    0  501  502 -0.00000000000E+00 -0.00000000000E+00 -0.47698158358E+03  0.47698158358E+03  0.00000000000E+00 0.  1.
         25    1    1    2    0    0 -0.58177328667E+01 -0.10416390147E+03 -0.92265084445E+02  0.18714115045E+03  0.12500000000E+03 0.  0.
         25    1    1    2    0    0  0.17599508751E+03  0.92348194540E+02 -0.89987520727E+02  0.25144624426E+03  0.12500000000E+03 0.  0.
         25    1    1    2    0    0 -0.17017735465E+03  0.11815706933E+02 -0.99431844015E+02  0.23369132326E+03  0.12500000000E+03 0.  0.
</event>
<event>
 5    0  0.5489207E-005  0.2716047E+03  0.7546771E-02  0.1100365E+00
         21   -1    0    0  502  501  0.00000000000E+00  0.00000000000E+00  0.12452879326E+04  0.12452879326E+04  0.00000000000E+00 0.  1.
         21   -1    0    0  501  502 -0.00000000000E+00 -0.00000000000E+00 -0.59238584929E+02  0.59238584929E+02  0.00000000000E+00 0.  1.
         25    1    1    2    0    0  0.68603522513E+01  0.11021751457E+03  0.27141117995E+03  0.31856552474E+03  0.12500000000E+03 0.  0.
         25    1    1    2    0    0 -0.68164417723E+02 -0.15647818279E+03  0.42385023452E+03  0.47371492571E+03  0.12500000000E+03 0.  0.
         25    1    1    2    0    0  0.61304065471E+02  0.46260668223E+02  0.49078793321E+03  0.51224606710E+03  0.12500000000E+03 0.  0.
</event>
<event>
 5    0  0.5489207E-005  0.3742700E+03  0.7546771E-02  0.1053072E+00
         21   -1    0    0  502  501  0.00000000000E+00  0.00000000000E+00  0.10203145996E+04  0.10203145996E+04  0.00000000000E+00 0.  1.
         21   -1    0    0  501  502 -0.00000000000E+00 -0.00000000000E+00 -0.13728906227E+03  0.13728906227E+03  0.00000000000E+00 0.  1.
         25    1    1    2    0    0 -0.13331609681E+03 -0.78927300323E+02 -0.14887627430E+02  0.19962299931E+03  0.12500000000E+03 0.  0.
         25    1    1    2    0    0  0.11495812401E+03 -0.14615260759E+02  0.55847565125E+03  0.58390840819E+03  0.12500000000E+03 0.  0.
         25    1    1    2    0    0  0.18357972797E+02  0.93542561082E+02  0.33943751352E+03  0.37407225436E+03  0.12500000000E+03 0.  0.
</event>
<event>
 5    0  0.5489207E-005  0.3563870E+03  0.7546771E-02  0.1060024E+00
         21   -1    0    0  502  501  0.00000000000E+00  0.00000000000E+00  0.67359073602E+02  0.67359073602E+02  0.00000000000E+00 0. -1.
         21   -1    0    0  501  502 -0.00000000000E+00 -0.00000000000E+00 -0.18855917171E+04  0.18855917171E+04  0.00000000000E+00 0. -1.
         25    1    1    2    0    0 -0.10528788094E+03  0.30343430583E+02 -0.43977171648E+03  0.47013872875E+03  0.12500000000E+03 0.  0.
         25    1    1    2    0    0  0.17455474446E+03 -0.13547062067E+03 -0.12161224294E+04  0.12423366738E+04  0.12500000000E+03 0.  0.
         25    1    1    2    0    0 -0.69266863519E+02  0.10512719009E+03 -0.16233849761E+03  0.24047538810E+03  0.12500000000E+03 0.  0.
</event>
<event>
 5    0  0.5489207E-005  0.2692343E+03  0.7546771E-02  0.1101719E+00
         21   -1    0    0  502  501  0.00000000000E+00  0.00000000000E+00  0.56859751421E+03  0.56859751421E+03  0.00000000000E+00 0. -1.
         21   -1    0    0  501  502 -0.00000000000E+00 -0.00000000000E+00 -0.12748400150E+03  0.12748400150E+03  0.00000000000E+00 0. -1.
         25    1    1    2    0    0  0.47635740093E+02 -0.19543420774E+02  0.29374489981E+03  0.32336075085E+03  0.12500000000E+03 0.  0.
         25    1    1    2    0    0 -0.86301611060E+01  0.84745592736E+02 -0.17544955301E+02  0.15227974463E+03  0.12500000000E+03 0.  0.
         25    1    1    2    0    0 -0.39005578987E+02 -0.65202171962E+02  0.16491356821E+03  0.22044102023E+03  0.12500000000E+03 0.  0.
</event>
<event>
 5    0  0.5489207E-005  0.4144547E+03  0.7546771E-02  0.1038886E+00
         21   -1    0    0  502  501  0.00000000000E+00  0.00000000000E+00  0.43751125780E+03  0.43751125780E+03  0.00000000000E+00 0.  1.
         21   -1    0    0  501  502 -0.00000000000E+00 -0.00000000000E+00 -0.39261318976E+03  0.39261318976E+03  0.00000000000E+00 0.  1.
         25    1    1    2    0    0 -0.20445994508E+03 -0.18238643619E+02 -0.14808432930E+03  0.28229503334E+03  0.12500000000E+03 0.  0.
         25    1    1    2    0    0  0.49853475840E+02 -0.13800053846E+03  0.22119751523E+03  0.29339880438E+03  0.12500000000E+03 0.  0.
         25    1    1    2    0    0  0.15460646924E+03  0.15623918208E+03 -0.28215117889E+02  0.25443060984E+03  0.12500000000E+03 0.  0.
</event>
<event>
 5    0  0.5489207E-005  0.4851890E+03  0.7546771E-02  0.1017719E+00
         21   -1    0    0  502  501  0.00000000000E+00  0.00000000000E+00  0.12353401685E+03  0.12353401685E+03  0.00000000000E+00 0. -1.
         21   -1    0    0  501  502 -0.00000000000E+00 -0.00000000000E+00 -0.19056156419E+04  0.19056156419E+04  0.00000000000E+00 0. -1.
         25    1    1    2    0    0  0.32911814976E+02 -0.21186265181E+02 -0.27824764983E+03  0.30753666453E+03  0.12500000000E+03 0.  0.
         25    1    1    2    0    0  0.35449477454E+03  0.83041268936E+02 -0.99618211621E+03  0.10679729426E+04  0.12500000000E+03 0.  0.
         25    1    1    2    0    0 -0.38740658952E+03 -0.61855003755E+02 -0.50765185899E+03  0.65364005158E+03  0.12500000000E+03 0.  0.
</event>
<event>
 5    0  0.5489207E-005  0.4926532E+03  0.7546771E-02  0.1015715E+00
         21   -1    0    0  502  501  0.00000000000E+00  0.00000000000E+00  0.10126722300E+04  0.10126722300E+04  0.00000000000E+00 0. -1.
         21   -1    0    0  501  502 -0.00000000000E+00 -0.00000000000E+00 -0.23967004911E+03  0.23967004911E+03  0.00000000000E+00 0. -1.
         25    1    1    2    0    0  0.61027996127E+02  0.56605002470E+02 -0.84557092904E+02  0.17234687284E+03  0.12500000000E+03 0.  0.
         25    1    1    2    0    0 -0.10113384640E+03 -0.48485546982E+02 -0.40173815202E+02  0.17267842535E+03  0.12500000000E+03 0.  0.
         25    1    1    2    0    0  0.40105850273E+02 -0.81194554881E+01  0.89773308900E+03  0.90731698092E+03  0.12500000000E+03 0.  0.
</event>
<event>
 5    0  0.5489207E-005  0.2784535E+03  0.7546771E-02  0.1096537E+00
         21   -1    0    0  502  501  0.00000000000E+00  0.00000000000E+00  0.43687616754E+02  0.43687616754E+02  0.00000000000E+00 0.  1.
         21   -1    0    0  501  502 -0.00000000000E+00 -0.00000000000E+00 -0.17747898006E+04  0.17747898006E+04  0.00000000000E+00 0.  1.
         25    1    1    2    0    0 -0.92991715545E+02 -0.36165797699E+02 -0.77663538057E+03  0.79293312356E+03  0.12500000000E+03 0.  0.
         25    1    1    2    0    0  0.52932631069E+02  0.50126649943E+01 -0.12314965622E+03  0.18335165140E+03  0.12500000000E+03 0.  0.
         25    1    1    2    0    0  0.40059084476E+02  0.31153132704E+02 -0.83131714704E+03  0.84219264238E+03  0.12500000000E+03 0.  0.
</event>
<event>
 5    0  0.5489207E-005  0.3599459E+03  0.7546771E-02  0.1058605E+00
         21   -1    0    0  502  501  0.00000000000E+00  0.00000000000E+00  0.27036391526E+03  0.27036391526E+03  0.00000000000E+00 0. -1.
         21   -1    0    0  501  502 -0.00000000000E+00 -0.00000000000E+00 -0.47920984858E+03  0.47920984858E+03  0.00000000000E+00 0. -1.
         25    1    1    2    0    0  0.65863163379E+02 -0.12684284319E+03 -0.85566240565E+02  0.20826340217E+03  0.12500000000E+03 0.  0.
         25    1    1    2    0    0  0.61114812208E+02  0.24166768518E+03  0.28917553373E+02  0.28035605081E+03  0.12500000000E+03 0.  0.
         25    1    1    2    0    0 -0.12697797559E+03 -0.11482484199E+03 -0.15219724613E+03  0.26095431085E+03  0.12500000000E+03 0.  0.
</event>
<event>
 5    0  0.5489207E-005  0.2626730E+03  0.7546771E-02  0.1105548E+00
         21   -1    0    0  502  501  0.00000000000E+00  0.00000000000E+00  0.13034317020E+03  0.13034317020E+03  0.00000000000E+00 0.  1.
         21   -1    0    0  501  502 -0.00000000000E+00 -0.00000000000E+00 -0.52934948628E+03  0.52934948628E+03  0.00000000000E+00 0.  1.
         25    1    1    2    0    0  0.34159609324E+02  0.22883296978E+02  0.49128594928E+02  0.14046046785E+03  0.12500000000E+03 0.  0.
         25    1    1    2    0    0 -0.25040548096E+02  0.68555130777E+01 -0.16893273377E+03  0.21174818924E+03  0.12500000000E+03 0.  0.
         25    1    1    2    0    0 -0.91190612275E+01 -0.29738810055E+02 -0.27920217724E+03  0.30748399938E+03  0.12500000000E+03 0.  0.
</event>
<event>
 5    0  0.5489207E-005  0.4691894E+03  0.7546771E-02  0.1022149E+00
         21   -1    0    0  502  501  0.00000000000E+00  0.00000000000E+00  0.42852928199E+03  0.42852928199E+03  0.00000000000E+00 0.  1.
         21   -1    0    0  501  502 -0.00000000000E+00 -0.00000000000E+00 -0.51370740283E+03  0.51370740283E+03  0.00000000000E+00 0.  1.
         25    1    1    2    0    0  0.29457144948E+01 -0.20435991092E+03 -0.13394869420E+03  0.27447933092E+03  0.12500000000E+03 0.  0.
         25    1    1    2    0    0 -0.21327206646E+02  0.40654119441E+03  0.83301889455E+01  0.42594011850E+03  0.12500000000E+03 0.  0.
         25    1    1    2    0    0  0.18381492151E+02 -0.20218128349E+03  0.40440384409E+02  0.24181723541E+03  0.12500000000E+03 0.  0.
</event>
<event>
 5    0  0.5489207E-005  0.4937087E+03  0.7546771E-02  0.1015434E+00
         21   -1    0    0  502  501  0.00000000000E+00  0.00000000000E+00  0.31571571049E+03  0.31571571049E+03  0.00000000000E+00 0. -1.
         21   -1    0    0  501  502 -0.00000000000E+00 -0.00000000000E+00 -0.77205003686E+03  0.77205003686E+03  0.00000000000E+00 0. -1.
         25    1    1    2    0    0  0.27359163213E+03 -0.44249691194E+02 -0.59186690712E+03  0.66538849711E+03  0.12500000000E+03 0.  0.
         25    1    1    2    0    0 -0.58856286876E+02  0.45560968858E+02  0.15115955099E+02  0.14626467956E+03  0.12500000000E+03 0.  0.
         25    1    1    2    0    0 -0.21473534526E+03 -0.13112776642E+01  0.12041662565E+03  0.27611257068E+03  0.12500000000E+03 0.  0.
</event>
<event>
 5    0  0.5489207E-005  0.3805495E+03  0.7546771E-02  0.1050731E+00
         21   -1    0    0  502  501  0.00000000000E+00  0.00000000000E+00  0.73873268344E+02  0.73873268344E+02  0.00000000000E+00 0.  1.
         21   -1    0    0  501  502 -0.00000000000E+00 -0.00000000000E+00 -0.19603561713E+04  0.19603561713E+04  0.00000000000E+00 0.  1.
         25    1    1    2    0    0  0.27129814392E+02 -0.20412214940E+03 -0.11101139277E+04  0.11359488594E+04  0.12500000000E+03 0.  0.
         25    1    1    2    0    0  0.97912092273E+02  0.18548304164E+03 -0.60033995210E+03  0.64809242754E+03  0.12500000000E+03 0.  0.
         25    1    1    2    0    0 -0.12504190667E+03  0.18639107752E+02 -0.17602902318E+03  0.25018815272E+03  0.12500000000E+03 0.  0.
</event>
<event>
 5    0  0.5489207E-005  0.2106671E+03  0.7546771E-02  0.1141039E+00
         21   -1    0    0  502  501  0.00000000000E+00  0.00000000000E+00  0.14738817082E+03  0.14738817082E+03  0.00000000000E+00 0. -1.
         21   -1    0    0  501  502 -0.00000000000E+00 -0.00000000000E+00 -0.30111395947E+03  0.30111395947E+03  0.00000000000E+00 0. -1.
         25    1    1    2    0    0  0.13877726708E+02  0.63921508593E+02 -0.21471751724E+02  0.14270454331E+03  0.12500000000E+03 0.  0.
         25    1    1    2    0    0 -0.21522167090E+01 -0.13106736593E+02 -0.11293493041E+03  0.16898436936E+03  0.12500000000E+03 0.  0.
         25    1    1    2    0    0 -0.11725509999E+02 -0.50814771999E+02 -0.19319106513E+02  0.13681321762E+03  0.12500000000E+03 0.  0.
</event>
<event>
 5    0  0.5489207E-005  0.4204604E+03  0.7546771E-02  0.1036917E+00
         21   -1    0    0  502  501  0.00000000000E+00  0.00000000000E+00  0.21476913423E+04  0.21476913423E+04  0.00000000000E+00 0. -1.
         21   -1    0    0  501  502 -0.00000000000E+00 -0.00000000000E+00 -0.82314858227E+02  0.82314858227E+02  0.00000000000E+00 0. -1.
         25    1    1    2    0    0 -0.16854272861E+03  0.70417947637E+02  0.17421580572E+03  0.28167620716E+03  0.12500000000E+03 0.  0.
         25    1    1    2    0    0  0.10587863343E+03 -0.20658621847E+03  0.88604350490E+03  0.92443833935E+03  0.12500000000E+03 0.  0.
         25    1    1    2    0    0  0.62664095179E+02  0.13616827084E+03  0.10051171734E+04  0.10238916540E+04  0.12500000000E+03 0.  0.
</event>
<event>
 5    0  0.5489207E-005  0.2722189E+03  0.7546771E-02  0.1100016E+00
         21   -1    0    0  502  501  0.00000000000E+00  0.00000000000E+00  0.48565657601E+03  0.48565657601E+03  0.00000000000E+00 0.  1.
         21   -1    0    0  501  502 -0.00000000000E+00 -0.00000000000E+00 -0.15258336155E+03  0.15258336155E+03  0.00000000000E+00 0.  1.
         25    1    1    2    0    0  0.13384614276E+03  0.35708953630E+02  0.11982744731E+03  0.22175106861E+03  0.12500000000E+03 0.  0.
         25    1    1    2    0    0 -0.12053050488E+03 -0.89086498052E+02  0.19973064140E+03  0.27925138470E+03  0.12500000000E+03 0.  0.
         25    1    1    2    0    0 -0.13315637872E+02  0.53377544422E+02  0.13515125746E+02  0.13723748425E+03  0.12500000000E+03 0.  0.
</event>
<event>
 5    0  0.5489207E-005  0.2458835E+03  0.7546771E-02  0.1115934E+00
         21   -1    0    0  502  501  0.00000000000E+00  0.00000000000E+00  0.84149805659E+03  0.84149805659E+03  0.00000000000E+00 0.  1.
         21   -1    0    0  501  502 -0.00000000000E+00 -0.00000000000E+00 -0.71846481385E+02  0.71846481385E+02  0.00000000000E+00 0.  1.
         25    1    1    2    0    0 -0.55343111731E+02  0.89138386697E+02  0.47402248411E+03  0.50132906104E+03  0.12500000000E+03 0.  0.
         25    1    1    2    0    0  0.43077375354E+02 -0.66093503940E+02  0.21528786569E+03  0.26114723174E+03  0.12500000000E+03 0.  0.
         25    1    1    2    0    0  0.12265736376E+02 -0.23044882757E+02  0.80341225401E+02  0.15086824520E+03  0.12500000000E+03 0.  0.
</event>
<event>
 5    0  0.5489207E-005  0.2372021E+03  0.7546771E-02  0.1121671E+00
         21   -1    0    0  502  501  0.00000000000E+00  0.00000000000E+00  0.83412984848E+03  0.83412984848E+03  0.00000000000E+00 0. -1.
         21   -1    0    0  501  502 -0.00000000000E+00 -0.00000000000E+00 -0.67453314813E+02  0.67453314813E+02  0.00000000000E+00 0. -1.
         25    1    1    2    0    0  0.90848290533E+02 -0.29400865495E+02  0.13870706250E+03  0.20971998467E+03  0.12500000000E+03 0.  0.
         25    1    1    2    0    0  0.24335509106E+01 -0.20113583346E+02  0.28396676162E+03  0.31092217694E+03  0.12500000000E+03 0.  0.
         25    1    1    2    0    0 -0.93281841444E+02  0.49514448841E+02  0.34400270955E+03  0.38094100168E+03  0.12500000000E+03 0.  0.
</event>
<event>
 5    0  0.5489207E-005  0.2934913E+03  0.7546771E-02  0.1088540E+00
         21   -1    0    0  502  501  0.00000000000E+00  0.00000000000E+00  0.17556308638E+04  0.17556308638E+04  0.00000000000E+00 0.  1.
         21   -1    0    0  501  502 -0.00000000000E+00 -0.00000000000E+00 -0.49063363317E+02  0.49063363317E+02  0.00000000000E+00 0.  1.
         25    1    1    2    0    0 -0.35909586090E+02 -0.54666631014E+02  0.10321685542E+04  0.10417652630E+04  0.12500000000E+03 0.  0.
         25    1    1    2    0    0  0.33840485099E+02 -0.80086180319E+02  0.18172699048E+03  0.23708368518E+03  0.12500000000E+03 0.  0.
         25    1    1    2    0    0  0.20691009905E+01  0.13475281133E+03  0.49267195581E+03  0.52584527894E+03  0.12500000000E+03 0.  0.
</event>
<event>
 5    0  0.5489207E-005  0.6485911E+03  0.7546771E-02  0.9809426E-01
         21   -1    0    0  502  501  0.00000000000E+00  0.00000000000E+00  0.20747877937E+03  0.20747877937E+03  0.00000000000E+00 0. -1.
         21   -1    0    0  501  502 -0.00000000000E+00 -0.00000000000E+00 -0.20275345981E+04  0.20275345981E+04  0.00000000000E+00 0. -1.
         25    1    1    2    0    0 -0.19914378213E+03  0.42278540851E+03 -0.89856618293E+03  0.10205155230E+04  0.12500000000E+03 0.  0.
         25    1    1    2    0    0  0.10069278837E+03  0.11105804483E+03 -0.42754761217E+03  0.46999456127E+03  0.12500000000E+03 0.  0.
         25    1    1    2    0    0  0.98450993764E+02 -0.53384345334E+03 -0.49394202361E+03  0.74450329317E+03  0.12500000000E+03 0.  0.
</event>
<event>
 5    0  0.5489207E-005  0.2658404E+03  0.7546771E-02  0.1103684E+00
         21   -1    0    0  502  501  0.00000000000E+00  0.00000000000E+00  0.37934576143E+02  0.37934576143E+02  0.00000000000E+00 0.  1.
         21   -1    0    0  501  502 -0.00000000000E+00 -0.00000000000E+00 -0.18629738138E+04  0.18629738138E+04  0.00000000000E+00 0.  1.
         25    1    1    2    0    0 -0.10556300739E+03 -0.70105390968E+01 -0.98595429452E+03  0.99946163862E+03  0.12500000000E+03 0.  0.
         25    1    1    2    0    0  0.94103796059E+01  0.85293688668E+02 -0.43516712187E+03  0.46082425340E+03  0.12500000000E+03 0.  0.
         25    1    1    2    0    0  0.96152627779E+02 -0.78283149572E+02 -0.40391782127E+03  0.44062249792E+03  0.12500000000E+03 0.  0.
</event>
<event>
 5    0  0.5489207E-005  0.2612693E+03  0.7546771E-02  0.1106383E+00
         21   -1    0    0  502  501  0.00000000000E+00  0.00000000000E+00  0.23089494363E+03  0.23089494363E+03  0.00000000000E+00 0.  1.
         21   -1    0    0  501  502 -0.00000000000E+00 -0.00000000000E+00 -0.29563948286E+03  0.29563948286E+03  0.00000000000E+00 0.  1.
         25    1    1    2    0    0  0.48592157981E+02 -0.38290593079E+02 -0.16096291903E+03  0.21298222611E+03  0.12500000000E+03 0.  0.
         25    1    1    2    0    0 -0.16410340377E+02 -0.33882146226E+00  0.12305468628E+03  0.17617284095E+03  0.12500000000E+03 0.  0.
         25    1    1    2    0    0 -0.32181817605E+02  0.38629414542E+02 -0.26836306482E+02  0.13737935943E+03  0.12500000000E+03 0.  0.
</event>
<event>
 5    0  0.5489207E-005  0.5843723E+03  0.7546771E-02  0.9938370E-01
         21   -1    0    0  502  501  0.00000000000E+00  0.00000000000E+00  0.39311259581E+03  0.39311259581E+03  0.00000000000E+00 0.  1.
         21   -1    0    0  501  502 -0.00000000000E+00 -0.00000000000E+00 -0.86868488096E+03  0.86868488096E+03  0.00000000000E+00 0.  1.
         25    1    1    2    0    0 -0.16466023286E+03 -0.15178707392E+03 -0.70971366802E+03  0.75463289000E+03  0.12500000000E+03 0.  0.
         25    1    1    2    0    0  0.70075972289E+02 -0.78881628576E+02  0.43242549085E+02  0.16919772833E+03  0.12500000000E+03 0.  0.
         25    1    1    2    0    0  0.94584260572E+02  0.23066870250E+03  0.19089883379E+03  0.33796685844E+03  0.12500000000E+03 0.  0.
</event>
<event>
 5    0  0.5489207E-005  0.2404596E+03  0.7546771E-02  0.1119487E+00
         21   -1    0    0  502  501  0.00000000000E+00  0.00000000000E+00  0.12591440811E+03  0.12591440811E+03  0.00000000000E+00 0.  1.
         21   -1    0    0  501  502 -0.00000000000E+00 -0.00000000000E+00 -0.45920740735E+03  0.45920740735E+03  0.00000000000E+00 0.  1.
         25    1    1    2    0    0 -0.62354297820E+02  0.83704127371E+02 -0.19452885393E+02  0.16400565279E+03  0.12500000000E+03 0.  0.
         25    1    1    2    0    0  0.52914139568E+02 -0.71037922595E+02 -0.19432866682E+03  0.24745691213E+03  0.12500000000E+03 0.  0.
         25    1    1    2    0    0  0.94401582513E+01 -0.12666204776E+02 -0.11951144703E+03  0.17365925055E+03  0.12500000000E+03 0.  0.
</event>
<event>
 5    0  0.5489207E-005  0.5429108E+03  0.7546771E-02  0.1003148E+00
         21   -1    0    0  502  501  0.00000000000E+00  0.00000000000E+00  0.49714732317E+03  0.49714732317E+03  0.00000000000E+00 0.  1.
         21   -1    0    0  501  502 -0.00000000000E+00 -0.00000000000E+00 -0.59288683126E+03  0.59288683126E+03  0.00000000000E+00 0.  1.
         25    1    1    2    0    0 -0.71005852866E+02 -0.19917775529E+03  0.96970878502E+02  0.26408703229E+03  0.12500000000E+03 0.  0.
         25    1    1    2    0    0 -0.20242926265E+02 -0.13269487729E+02  0.26733740695E+03  0.29610833241E+03  0.12500000000E+03 0.  0.
         25    1    1    2    0    0  0.91248779131E+02  0.21244724302E+03 -0.46004779354E+03  0.52983878973E+03  0.12500000000E+03 0.  0.
</event>
<event>
 5    0  0.5489207E-005  0.3297219E+03  0.7546771E-02  0.1071260E+00
         21   -1    0    0  502  501  0.00000000000E+00  0.00000000000E+00  0.98328420030E+02  0.98328420030E+02  0.00000000000E+00 0.  1.
         21   -1    0    0  501  502 -0.00000000000E+00 -0.00000000000E+00 -0.11056468607E+04  0.11056468607E+04  0.00000000000E+00 0.  1.
         25    1    1    2    0    0 -0.14036818909E+03  0.39595688232E+00 -0.41159908153E+03  0.45248446295E+03  0.12500000000E+03 0.  0.
         25    1    1    2    0    0 -0.78296212421E+02 -0.50802369731E+02 -0.39756378325E+03  0.42707509808E+03  0.12500000000E+03 0.  0.
         25    1    1    2    0    0  0.21866440151E+03  0.50406412849E+02 -0.19815557594E+03  0.32441571975E+03  0.12500000000E+03 0.  0.
</event>
<event>
 5    0  0.5489207E-005  0.4671634E+03  0.7546771E-02  0.1022724E+00
         21   -1    0    0  502  501  0.00000000000E+00  0.00000000000E+00  0.40675376916E+03  0.40675376916E+03  0.00000000000E+00 0. -1.
         21   -1    0    0  501  502 -0.00000000000E+00 -0.00000000000E+00 -0.53654486495E+03  0.53654486495E+03  0.00000000000E+00 0. -1.
         25    1    1    2    0    0  0.16046573964E+03 -0.22079295353E+03  0.67789658066E+02  0.30776487724E+03  0.12500000000E+03 0.  0.
         25    1    1    2    0    0  0.55513707520E+02 -0.76834511439E+02 -0.19088335402E+03  0.24707644305E+03  0.12500000000E+03 0.  0.
         25    1    1    2    0    0 -0.21597944716E+03  0.29762746496E+03 -0.66973998439E+01  0.38845731382E+03  0.12500000000E+03 0.  0.
</event>
<event>
 5    0  0.5489207E-005  0.2178603E+03  0.7546771E-02  0.1135488E+00
         21   -1    0    0  502  501  0.00000000000E+00  0.00000000000E+00  0.26898775687E+03  0.26898775687E+03  0.00000000000E+00 0.  1.
         21   -1    0    0  501  502 -0.00000000000E+00 -0.00000000000E+00 -0.17645075717E+03  0.17645075717E+03  0.00000000000E+00 0.  1.
         25    1    1    2    0    0  0.27755182333E+02  0.30585205463E+02  0.15007742778E+02  0.13249919729E+03  0.12500000000E+03 0.  0.
         25    1    1    2    0    0 -0.33766311577E+02 -0.92229483788E+02  0.13797478531E+02  0.15956757782E+03  0.12500000000E+03 0.  0.
         25    1    1    2    0    0  0.60111292440E+01  0.61644278325E+02  0.63731778387E+02  0.15337173893E+03  0.12500000000E+03 0.  0.
</event>
<event>
 5    0  0.5489207E-005  0.2274907E+03  0.7546771E-02  0.1128418E+00
         21   -1    0    0  502  501  0.00000000000E+00  0.00000000000E+00  0.10216513102E+03  0.10216513102E+03  0.00000000000E+00 0.  1.
         21   -1    0    0  501  502 -0.00000000000E+00 -0.00000000000E+00 -0.50655259910E+03  0.50655259910E+03  0.00000000000E+00 0.  1.
         25    1    1    2    0    0 -0.36321121846E+02 -0.42640707529E+01 -0.12074370600E+03  0.17759912368E+03  0.12500000000E+03 0.  0.
         25    1    1    2    0    0 -0.37310028087E+02  0.82558729864E+02 -0.98064599665E+02  0.18289244867E+03  0.12500000000E+03 0.  0.
         25    1    1    2    0    0  0.73631149933E+02 -0.78294659111E+02 -0.18557916241E+03  0.24822615778E+03  0.12500000000E+03 0.  0.
</event>
<event>
 5    0  0.5489207E-005  0.3979786E+03  0.7546771E-02  0.1044482E+00
         21   -1    0    0  502  501  0.00000000000E+00  0.00000000000E+00  0.23270529151E+03  0.23270529151E+03  0.00000000000E+00 0. -1.
         21   -1    0    0  501  502 -0.00000000000E+00 -0.00000000000E+00 -0.68063333064E+03  0.68063333064E+03  0.00000000000E+00 0. -1.
         25    1    1    2    0    0  0.10817992537E+03  0.22338828765E+02  0.15737468137E+03  0.22933318525E+03  0.12500000000E+03 0.  0.
         25    1    1    2    0    0  0.29158507173E+02 -0.94731273625E+01 -0.19764701467E+03  0.23585864642E+03  0.12500000000E+03 0.  0.
         25    1    1    2    0    0 -0.13733843254E+03 -0.12865701402E+02 -0.40765570583E+03  0.44814679048E+03  0.12500000000E+03 0.  0.
</event>
<event>
 5    0  0.6042146E-005  0.3405587E+03  0.7546771E-02  0.1066558E+00
         21   -1    0    0  502  501  0.00000000000E+00  0.00000000000E+00  0.44266934438E+03  0.44266934438E+03  0.00000000000E+00 0. -1.
         21   -1    0    0  501  502 -0.00000000000E+00 -0.00000000000E+00 -0.26200191492E+03  0.26200191492E+03  0.00000000000E+00 0. -1.
         25    1    1    2    0    0 -0.92623138788E+02 -0.45482623546E+02 -0.76118268643E+02  0.17907178925E+03  0.12500000000E+03 0.  0.
         25    1    1    2    0    0  0.14873868765E+03  0.18009896599E+03  0.17035421175E+03  0.31496728753E+03  0.12500000000E+03 0.  0.
         25    1    1    2    0    0 -0.56115548864E+02 -0.13461634245E+03  0.86431486358E+02  0.21063218252E+03  0.12500000000E+03 0.  0.
</event>
<event>
 5    0  0.5489207E-005  0.3735022E+03  0.7546771E-02  0.1053362E+00
         21   -1    0    0  502  501  0.00000000000E+00  0.00000000000E+00  0.12154051085E+04  0.12154051085E+04  0.00000000000E+00 0.  1.
         21   -1    0    0  501  502 -0.00000000000E+00 -0.00000000000E+00 -0.11477975145E+03  0.11477975145E+03  0.00000000000E+00 0.  1.
         25    1    1    2    0    0  0.96839113840E+02  0.14181251780E+03  0.16866242180E+03  0.27122060523E+03  0.12500000000E+03 0.  0.
         25    1    1    2    0    0 -0.14902990324E+03 -0.16124537416E+03  0.22324204891E+03  0.33715277717E+03  0.12500000000E+03 0.  0.
         25    1    1    2    0    0  0.52190789401E+02  0.19432856364E+02  0.70872088635E+03  0.72181147757E+03  0.12500000000E+03 0.  0.
</event>
<event>
 5    0  0.5489207E-005  0.4149266E+03  0.7546771E-02  0.1038730E+00
         21   -1    0    0  502  501  0.00000000000E+00  0.00000000000E+00  0.17699988774E+04  0.17699988774E+04  0.00000000000E+00 0. -1.
         21   -1    0    0  501  502 -0.00000000000E+00 -0.00000000000E+00 -0.97267924658E+02  0.97267924658E+02  0.00000000000E+00 0. -1.
         25    1    1    2    0    0 -0.20688842031E+03 -0.27927691609E+03  0.69469429716E+03  0.78678051629E+03  0.12500000000E+03 0.  0.
         25    1    1    2    0    0  0.16855644696E+03  0.21726622701E+03  0.53457620355E+03  0.61401352315E+03  0.12500000000E+03 0.  0.
         25    1    1    2    0    0  0.38331973349E+02  0.62010689084E+02  0.44346045203E+03  0.46647276261E+03  0.12500000000E+03 0.  0.
</event>
<event>
 5    0  0.5489207E-005  0.2636517E+03  0.7546771E-02  0.1104969E+00
         21   -1    0    0  502  501  0.00000000000E+00  0.00000000000E+00  0.57023778046E+03  0.57023778046E+03  0.00000000000E+00 0.  1.
         21   -1    0    0  501  502 -0.00000000000E+00 -0.00000000000E+00 -0.12190039794E+03  0.12190039794E+03  0.00000000000E+00 0.  1.
         25    1    1    2    0    0 -0.73954241867E+02  0.61474827738E+02  0.32741564631E+03  0.36342040364E+03  0.12500000000E+03 0.  0.
         25    1    1    2    0    0  0.20541943619E+02  0.18498517103E+01 -0.13399690024E+02  0.12739680173E+03  0.12500000000E+03 0.  0.
         25    1    1    2    0    0  0.53412298248E+02 -0.63324679448E+02  0.13432142623E+03  0.20132097302E+03  0.12500000000E+03 0.  0.
</event>
<event>
 5    0  0.5489207E-005  0.4362452E+03  0.7546771E-02  0.1031905E+00
         21   -1    0    0  502  501  0.00000000000E+00  0.00000000000E+00  0.83298266204E+03  0.83298266204E+03  0.00000000000E+00 0. -1.
         21   -1    0    0  501  502 -0.00000000000E+00 -0.00000000000E+00 -0.22846794108E+03  0.22846794108E+03  0.00000000000E+00 0. -1.
         25    1    1    2    0    0  0.21917296917E+02  0.14313768706E+03  0.12742375208E+03  0.22984903297E+03  0.12500000000E+03 0.  0.
         25    1    1    2    0    0  0.20844500219E+03  0.13236608467E+03  0.31198452924E+03  0.41704849333E+03  0.12500000000E+03 0.  0.
         25    1    1    2    0    0 -0.23036229911E+03 -0.27550377173E+03  0.16510643964E+03  0.41455307682E+03  0.12500000000E+03 0.  0.
</event>
<event>
 5    0  0.5489207E-005  0.3508258E+03  0.7546771E-02  0.1062277E+00
         21   -1    0    0  502  501  0.00000000000E+00  0.00000000000E+00  0.17947580695E+03  0.17947580695E+03  0.00000000000E+00 0. -1.
         21   -1    0    0  501  502 -0.00000000000E+00 -0.00000000000E+00 -0.68576788312E+03  0.68576788312E+03  0.00000000000E+00 0. -1.
         25    1    1    2    0    0  0.18481157179E+03 -0.14252460397E+02 -0.31821036139E+03  0.38889752350E+03  0.12500000000E+03 0.  0.
         25    1    1    2    0    0 -0.24169703830E+03 -0.52767945596E+02 -0.77786804551E+02  0.28788487520E+03  0.12500000000E+03 0.  0.
         25    1    1    2    0    0  0.56885466515E+02  0.67020405993E+02 -0.11029491023E+03  0.18846129137E+03  0.12500000000E+03 0.  0.
</event>
<event>
 5    0  0.5489207E-005  0.2860683E+03  0.7546771E-02  0.1092420E+00
         21   -1    0    0  502  501  0.00000000000E+00  0.00000000000E+00  0.15082560833E+04  0.15082560833E+04  0.00000000000E+00 0.  1.
         21   -1    0    0  501  502 -0.00000000000E+00 -0.00000000000E+00 -0.54258072254E+02  0.54258072254E+02  0.00000000000E+00 0.  1.
         25    1    1    2    0    0  0.30195977143E+02  0.97096118686E+02  0.14645697733E+03  0.21774778876E+03  0.12500000000E+03 0.  0.
         25    1    1    2    0    0  0.53940306496E+02 -0.80156015814E+02  0.55214018242E+03  0.57429811472E+03  0.12500000000E+03 0.  0.
         25    1    1    2    0    0 -0.84136283639E+02 -0.16940102871E+02  0.75540085130E+03  0.77046825207E+03  0.12500000000E+03 0.  0.
</event>
<event>
 5    0  0.5489207E-005  0.2507142E+03  0.7546771E-02  0.1112854E+00
         21   -1    0    0  502  501  0.00000000000E+00  0.00000000000E+00  0.20090824373E+03  0.20090824373E+03  0.00000000000E+00 0.  1.
         21   -1    0    0  501  502 -0.00000000000E+00 -0.00000000000E+00 -0.31286723223E+03  0.31286723223E+03  0.00000000000E+00 0.  1.
         25    1    1    2    0    0  0.66392715290E+02  0.22269272225E+02 -0.17505525037E+03  0.22621506097E+03  0.12500000000E+03 0.  0.
         25    1    1    2    0    0 -0.33176446232E+02  0.21490255433E+02  0.74072656538E+02  0.15057976660E+03  0.12500000000E+03 0.  0.
         25    1    1    2    0    0 -0.33216269058E+02 -0.43759527658E+02 -0.10976394673E+02  0.13698064838E+03  0.12500000000E+03 0.  0.
</event>
<event>
 5    0  0.5489207E-005  0.7446576E+03  0.7546771E-02  0.9643769E-01
         21   -1    0    0  502  501  0.00000000000E+00  0.00000000000E+00  0.11722083885E+04  0.11722083885E+04  0.00000000000E+00 0.  1.
         21   -1    0    0  501  502 -0.00000000000E+00 -0.00000000000E+00 -0.47305155963E+03  0.47305155963E+03  0.00000000000E+00 0.  1.
         25    1    1    2    0    0  0.27511332549E+03  0.16337643661E+03  0.26438449283E+03  0.43347821393E+03  0.12500000000E+03 0.  0.
         25    1    1    2    0    0 -0.62248251193E+03 -0.23996394151E+03  0.61983926891E+02  0.68156744206E+03  0.12500000000E+03 0.  0.
         25    1    1    2    0    0  0.34736918644E+03  0.76587504904E+02  0.37278840913E+03  0.53021429212E+03  0.12500000000E+03 0.  0.
</event>
<event>
 5    0  0.5489207E-005  0.2314151E+03  0.7546771E-02  0.1125648E+00
         21   -1    0    0  502  501  0.00000000000E+00  0.00000000000E+00  0.10143847501E+03  0.10143847501E+03  0.00000000000E+00 0.  1.
         21   -1    0    0  501  502 -0.00000000000E+00 -0.00000000000E+00 -0.52793534603E+03  0.52793534603E+03  0.00000000000E+00 0.  1.
         25    1    1    2    0    0 -0.14725575511E+02 -0.11070212700E+02 -0.22592204311E+03  0.25885355271E+03  0.12500000000E+03 0.  0.
         25    1    1    2    0    0  0.16419573373E+02  0.91525231822E+02 -0.14179108648E+03  0.21065655142E+03  0.12500000000E+03 0.  0.
         25    1    1    2    0    0 -0.16939978621E+01 -0.80455019122E+02 -0.58783741417E+02  0.15986371691E+03  0.12500000000E+03 0.  0.
</event>
<event>
 5    0  0.5489207E-005  0.3620696E+03  0.7546771E-02  0.1057767E+00
         21   -1    0    0  502  501  0.00000000000E+00  0.00000000000E+00  0.11117393698E+03  0.11117393698E+03  0.00000000000E+00 0. -1.
         21   -1    0    0  501  502 -0.00000000000E+00 -0.00000000000E+00 -0.11791829251E+04  0.11791829251E+04  0.00000000000E+00 0. -1.
         25    1    1    2    0    0 -0.10199789479E+03 -0.70490976941E+02 -0.64336733383E+03  0.66702254431E+03  0.12500000000E+03 0.  0.
         25    1    1    2    0    0 -0.40053743152E+02 -0.11102423579E+03 -0.26647271236E+03  0.31711731222E+03  0.12500000000E+03 0.  0.
         25    1    1    2    0    0  0.14205163795E+03  0.18151521274E+03 -0.15816894191E+03  0.30621700554E+03  0.12500000000E+03 0.  0.
</event>
<event>
 5    0  0.5489207E-005  0.3438085E+03  0.7546771E-02  0.1065185E+00
         21   -1    0    0  502  501  0.00000000000E+00  0.00000000000E+00  0.21028207502E+03  0.21028207502E+03  0.00000000000E+00 0.  1.
         21   -1    0    0  501  502 -0.00000000000E+00 -0.00000000000E+00 -0.56212261296E+03  0.56212261296E+03  0.00000000000E+00 0.  1.
         25    1    1    2    0    0 -0.12825594067E+02  0.21683716515E+03 -0.10179981791E+03  0.27050148794E+03  0.12500000000E+03 0.  0.
         25    1    1    2    0    0  0.11427445374E+03 -0.68257909692E+02 -0.19117701195E+02  0.18359814681E+03  0.12500000000E+03 0.  0.
         25    1    1    2    0    0 -0.10144885967E+03 -0.14857925546E+03 -0.23092301884E+03  0.31830505323E+03  0.12500000000E+03 0.  0.
</event>
<event>
 5    0  0.5489207E-005  0.3309800E+03  0.7546771E-02  0.1070704E+00
         21   -1    0    0  502  501  0.00000000000E+00  0.00000000000E+00  0.94027515290E+03  0.94027515290E+03  0.00000000000E+00 0. -1.
         21   -1    0    0  501  502 -0.00000000000E+00 -0.00000000000E+00 -0.11650606275E+03  0.11650606275E+03  0.00000000000E+00 0. -1.
         25    1    1    2    0    0 -0.11839584008E+03  0.12275022842E+03  0.61248800787E+03  0.64795968494E+03  0.12500000000E+03 0.  0.
         25    1    1    2    0    0  0.36203194483E+02 -0.14928985389E+03  0.12089504252E+03  0.23203177168E+03  0.12500000000E+03 0.  0.
         25    1    1    2    0    0  0.82192645601E+02  0.26539625473E+02  0.90386039761E+02  0.17678975902E+03  0.12500000000E+03 0.  0.
</event>
<event>
 5    0  0.5858357E-005  0.3680789E+03  0.7546771E-02  0.1055430E+00
         21   -1    0    0  502  501  0.00000000000E+00  0.00000000000E+00  0.13549382741E+03  0.13549382741E+03  0.00000000000E+00 0. -1.
         21   -1    0    0  501  502 -0.00000000000E+00 -0.00000000000E+00 -0.99991302139E+03  0.99991302139E+03  0.00000000000E+00 0. -1.
         25    1    1    2    0    0 -0.13038504571E+03  0.15507285641E+03 -0.53385934036E+03  0.58453284444E+03  0.12500000000E+03 0.  0.
         25    1    1    2    0    0  0.31340570781E+02  0.26578562701E+02  0.11432570083E+02  0.13207707988E+03  0.12500000000E+03 0.  0.
         25    1    1    2    0    0  0.99044474926E+02 -0.18165141911E+03 -0.34199242371E+03  0.41879692448E+03  0.12500000000E+03 0.  0.
</event>
<event>
 5    0  0.5489207E-005  0.3484295E+03  0.7546771E-02  0.1063261E+00
         21   -1    0    0  502  501  0.00000000000E+00  0.00000000000E+00  0.89821608623E+02  0.89821608623E+02  0.00000000000E+00 0.  1.
         21   -1    0    0  501  502 -0.00000000000E+00 -0.00000000000E+00 -0.13516029348E+04  0.13516029348E+04  0.00000000000E+00 0.  1.
         25    1    1    2    0    0  0.64333091594E+02  0.37981614305E+02 -0.17500337469E+02  0.14667178158E+03  0.12500000000E+03 0.  0.
         25    1    1    2    0    0 -0.13656193038E+03 -0.86531192568E+02 -0.65750720494E+03  0.68853288423E+03  0.12500000000E+03 0.  0.
         25    1    1    2    0    0  0.72228838784E+02  0.48549578263E+02 -0.58677378376E+03  0.60621987761E+03  0.12500000000E+03 0.  0.
</event>
<event>
 5    0  0.5489207E-005  0.2406908E+03  0.7546771E-02  0.1119334E+00
         21   -1    0    0  502  501  0.00000000000E+00  0.00000000000E+00  0.24128341439E+02  0.24128341439E+02  0.00000000000E+00 0.  1.
         21   -1    0    0  501  502 -0.00000000000E+00 -0.00000000000E+00 -0.24009955107E+04  0.24009955107E+04  0.00000000000E+00 0.  1.
         25    1    1    2    0    0 -0.82189608204E+01 -0.67187752766E+02 -0.11093524249E+04  0.11184227949E+04  0.12500000000E+03 0.  0.
         25    1    1    2    0    0  0.24771537181E+02  0.34529122446E+02 -0.10051453487E+04  0.10137790989E+04  0.12500000000E+03 0.  0.
         25    1    1    2    0    0 -0.16552576361E+02  0.32658630319E+02 -0.26236939563E+03  0.29292195835E+03  0.12500000000E+03 0.  0.
</event>
<event>
 5    0  0.5489207E-005  0.3166041E+03  0.7546771E-02  0.1077223E+00
         21   -1    0    0  502  501  0.00000000000E+00  0.00000000000E+00  0.20281775954E+03  0.20281775954E+03  0.00000000000E+00 0. -1.
         21   -1    0    0  501  502 -0.00000000000E+00 -0.00000000000E+00 -0.49422759067E+03  0.49422759067E+03  0.00000000000E+00 0. -1.
         25    1    1    2    0    0  0.80089606968E+02 -0.16915686602E+03 -0.63672624385E+01  0.22515313122E+03  0.12500000000E+03 0.  0.
         25    1    1    2    0    0 -0.94176361003E+02  0.87166779918E+02 -0.26576849202E+03  0.32050760653E+03  0.12500000000E+03 0.  0.
         25    1    1    2    0    0  0.14086754035E+02  0.81990086105E+02 -0.19274076677E+02  0.15138461246E+03  0.12500000000E+03 0.  0.
</event>
<event>
 5    0  0.5489207E-005  0.2771209E+03  0.7546771E-02  0.1097272E+00
         21   -1    0    0  502  501  0.00000000000E+00  0.00000000000E+00  0.80692303343E+02  0.80692303343E+02  0.00000000000E+00 0. -1.
         21   -1    0    0  501  502 -0.00000000000E+00 -0.00000000000E+00 -0.95171385989E+03  0.95171385989E+03  0.00000000000E+00 0. -1.
         25    1    1    2    0    0  0.86658343077E+02  0.79497043159E+02 -0.47981854888E+03  0.50958835166E+03  0.12500000000E+03 0.  0.
         25    1    1    2    0    0 -0.14725058989E+03 -0.16482003995E+02 -0.23209912878E+03  0.30240601558E+03  0.12500000000E+03 0.  0.
         25    1    1    2    0    0  0.60592246818E+02 -0.63015039164E+02 -0.15910387889E+03  0.22041179599E+03  0.12500000000E+03 0.  0.
</event>
<event>
 5    0  0.5489207E-005  0.2733004E+03  0.7546771E-02  0.1099405E+00
         21   -1    0    0  502  501  0.00000000000E+00  0.00000000000E+00  0.57117261950E+02  0.57117261950E+02  0.00000000000E+00 0.  1.
         21   -1    0    0  501  502 -0.00000000000E+00 -0.00000000000E+00 -0.13077152852E+04  0.13077152852E+04  0.00000000000E+00 0.  1.
         25    1    1    2    0    0  0.15919540549E+03  0.13629194830E+02 -0.34374081018E+03  0.39913866846E+03  0.12500000000E+03 0.  0.
         25    1    1    2    0    0 -0.13472164281E+03 -0.64205225213E+02 -0.54886937088E+03  0.58237000118E+03  0.12500000000E+03 0.  0.
         25    1    1    2    0    0 -0.24473762680E+02  0.50576030383E+02 -0.35798784217E+03  0.38332387749E+03  0.12500000000E+03 0.  0.
</event>
<event>
 5    0  0.5489207E-005  0.2268349E+03  0.7546771E-02  0.1128888E+00
         21   -1    0    0  502  501  0.00000000000E+00  0.00000000000E+00  0.39394383473E+02  0.39394383473E+02  0.00000000000E+00 0.  1.
         21   -1    0    0  501  502 -0.00000000000E+00 -0.00000000000E+00 -0.13061275810E+04  0.13061275810E+04  0.00000000000E+00 0.  1.
         25    1    1    2    0    0  0.21052206023E+02 -0.40588795769E+02 -0.26678831035E+03  0.29814702457E+03  0.12500000000E+03 0.  0.
         25    1    1    2    0    0  0.48768551017E+02 -0.41666815732E+02 -0.35931422652E+03  0.38580592075E+03  0.12500000000E+03 0.  0.
         25    1    1    2    0    0 -0.69820757040E+02  0.82255611502E+02 -0.64063066061E+03  0.66156901912E+03  0.12500000000E+03 0.  0.
</event>
<event>
 5    0  0.5489207E-005  0.3281620E+03  0.7546771E-02  0.1071953E+00
         21   -1    0    0  502  501  0.00000000000E+00  0.00000000000E+00  0.90935843560E+03  0.90935843560E+03  0.00000000000E+00 0. -1.
         21   -1    0    0  501  502 -0.00000000000E+00 -0.00000000000E+00 -0.11842447080E+03  0.11842447080E+03  0.00000000000E+00 0. -1.
         25    1    1    2    0    0  0.13442899906E+03  0.20792918365E+02  0.47834302045E+03  0.51277728739E+03  0.12500000000E+03 0.  0.
         25    1    1    2    0    0 -0.12154231166E+02 -0.77404191188E+02 -0.55039493895E+01  0.14762935889E+03  0.12500000000E+03 0.  0.
         25    1    1    2    0    0 -0.12227476790E+03  0.56611272822E+02  0.31809489373E+03  0.36737626011E+03  0.12500000000E+03 0.  0.
</event>
<event>
 5    0  0.5489207E-005  0.4184307E+03  0.7546771E-02  0.1037578E+00
         21   -1    0    0  502  501  0.00000000000E+00  0.00000000000E+00  0.19107729918E+03  0.19107729918E+03  0.00000000000E+00 0. -1.
         21   -1    0    0  501  502 -0.00000000000E+00 -0.00000000000E+00 -0.91630043729E+03  0.91630043729E+03  0.00000000000E+00 0. -1.
         25    1    1    2    0    0 -0.14748617259E+03 -0.16342862010E+03 -0.24542724771E+02  0.25433920325E+03  0.12500000000E+03 0.  0.
         25    1    1    2    0    0 -0.98445872693E+02  0.13477908329E+03 -0.32278490565E+03  0.38428125958E+03  0.12500000000E+03 0.  0.
         25    1    1    2    0    0  0.24593204528E+03  0.28649536808E+02 -0.37789550768E+03  0.46875727363E+03  0.12500000000E+03 0.  0.
</event>
<event>
 5    0  0.5489207E-005  0.3117495E+03  0.7546771E-02  0.1079510E+00
         21   -1    0    0  502  501  0.00000000000E+00  0.00000000000E+00  0.12165652803E+04  0.12165652803E+04  0.00000000000E+00 0. -1.
         21   -1    0    0  501  502 -0.00000000000E+00 -0.00000000000E+00 -0.79887017266E+02  0.79887017266E+02  0.00000000000E+00 0. -1.
         25    1    1    2    0    0 -0.83661621311E+02 -0.17197377816E+02  0.92806438310E+03  0.94033159889E+03  0.12500000000E+03 0.  0.
         25    1    1    2    0    0  0.93491690638E+02  0.68276318052E+00  0.15088172817E+03  0.21709780810E+03  0.12500000000E+03 0.  0.
         25    1    1    2    0    0 -0.98300693268E+01  0.16514614636E+02  0.57732151764E+02  0.13902289059E+03  0.12500000000E+03 0.  0.
</event>
<event>
 5    0  0.5489207E-005  0.3977929E+03  0.7546771E-02  0.1044547E+00
         21   -1    0    0  502  501  0.00000000000E+00  0.00000000000E+00  0.16593187577E+03  0.16593187577E+03  0.00000000000E+00 0.  1.
         21   -1    0    0  501  502 -0.00000000000E+00 -0.00000000000E+00 -0.95363942899E+03  0.95363942899E+03  0.00000000000E+00 0.  1.
         25    1    1    2    0    0 -0.10221770920E+03 -0.17056148092E+03  0.27555336476E+02  0.23648250552E+03  0.12500000000E+03 0.  0.
         25    1    1    2    0    0  0.88786984248E+02  0.12874033350E+03 -0.40179609095E+03  0.44891235308E+03  0.12500000000E+03 0.  0.
         25    1    1    2    0    0  0.13430724953E+02  0.41821147418E+02 -0.41346679874E+03  0.43417644617E+03  0.12500000000E+03 0.  0.
</event>
<event>
 5    0  0.5489207E-005  0.3187226E+03  0.7546771E-02  0.1076239E+00
         21   -1    0    0  502  501  0.00000000000E+00  0.00000000000E+00  0.50955329089E+02  0.50955329089E+02  0.00000000000E+00 0. -1.
         21   -1    0    0  501  502 -0.00000000000E+00 -0.00000000000E+00 -0.19935915082E+04  0.19935915082E+04  0.00000000000E+00 0. -1.
         25    1    1    2    0    0 -0.76361779280E+02 -0.61472321513E+02 -0.16030480788E+03  0.22568251832E+03  0.12500000000E+03 0.  0.
         25    1    1    2    0    0 -0.68863366652E+02  0.33324181785E+01 -0.46553510873E+03  0.48693039106E+03  0.12500000000E+03 0.  0.
         25    1    1    2    0    0  0.14522514593E+03  0.58139903334E+02 -0.13167962625E+04  0.13319339279E+04  0.12500000000E+03 0.  0.
</event>
<event>
 5    0  0.5489207E-005  0.3615253E+03  0.7546771E-02  0.1057982E+00
         21   -1    0    0  502  501  0.00000000000E+00  0.00000000000E+00  0.60136713636E+03  0.60136713636E+03  0.00000000000E+00 0. -1.
         21   -1    0    0  501  502 -0.00000000000E+00 -0.00000000000E+00 -0.21733899388E+03  0.21733899388E+03  0.00000000000E+00 0. -1.
         25    1    1    2    0    0  0.96961636268E+02  0.41758517121E+02  0.85459966217E+02  0.18459073239E+03  0.12500000000E+03 0.  0.
         25    1    1    2    0    0 -0.24640842487E+03 -0.15024715664E+03  0.86051726442E+02  0.32606934776E+03  0.12500000000E+03 0.  0.
         25    1    1    2    0    0  0.14944678860E+03  0.10848863952E+03  0.21251644982E+03  0.30804605009E+03  0.12500000000E+03 0.  0.
</event>
<event>
 5    0  0.5489207E-005  0.3741733E+03  0.7546771E-02  0.1053109E+00
         21   -1    0    0  502  501  0.00000000000E+00  0.00000000000E+00  0.63171601222E+03  0.63171601222E+03  0.00000000000E+00 0. -1.
         21   -1    0    0  501  502 -0.00000000000E+00 -0.00000000000E+00 -0.22162757983E+03  0.22162757983E+03  0.00000000000E+00 0. -1.
         25    1    1    2    0    0 -0.48381408215E+02 -0.15461257229E+03  0.28547211818E+03  0.35123373760E+03  0.12500000000E+03 0.  0.
         25    1    1    2    0    0  0.66096941986E+02 -0.10867071663E+03  0.11047338113E+03  0.20977964232E+03  0.12500000000E+03 0.  0.
         25    1    1    2    0    0 -0.17715533771E+02  0.26328328893E+03  0.14142933079E+02  0.29233021213E+03  0.12500000000E+03 0.  0.
</event>
<event>
 5    0  0.5489207E-005  0.4747365E+03  0.7546771E-02  0.1020592E+00
         21   -1    0    0  502  501  0.00000000000E+00  0.00000000000E+00  0.92887477180E+02  0.92887477180E+02  0.00000000000E+00 0.  1.
         21   -1    0    0  501  502 -0.00000000000E+00 -0.00000000000E+00 -0.24263198216E+04  0.24263198216E+04  0.00000000000E+00 0.  1.
         25    1    1    2    0    0 -0.22910987523E+03 -0.13573070405E+03 -0.92036147214E+03  0.96623206237E+03  0.12500000000E+03 0.  0.
         25    1    1    2    0    0 -0.81649263414E+02  0.10729691520E+01 -0.97012416161E+03  0.98154655642E+03  0.12500000000E+03 0.  0.
         25    1    1    2    0    0  0.31075913865E+03  0.13465773490E+03 -0.44294671067E+03  0.57142867999E+03  0.12500000000E+03 0.  0.
</event>
<event>
 5    0  0.5489207E-005  0.6751849E+03  0.7546771E-02  0.9760636E-01
         21   -1    0    0  502  501  0.00000000000E+00  0.00000000000E+00  0.21861431585E+03  0.21861431585E+03  0.00000000000E+00 0. -1.
         21   -1    0    0  501  502 -0.00000000000E+00 -0.00000000000E+00 -0.20852920876E+04  0.20852920876E+04  0.00000000000E+00 0. -1.
         25    1    1    2    0    0 -0.35901457664E+03 -0.71217023513E+02 -0.23258974106E+03  0.45131620658E+03  0.12500000000E+03 0.  0.
         25    1    1    2    0    0  0.57407969084E+03  0.10137850793E+02 -0.13363321260E+04  0.14598215023E+04  0.12500000000E+03 0.  0.
         25    1    1    2    0    0 -0.21506511421E+03  0.61079172720E+02 -0.29775590466E+03  0.39276869459E+03  0.12500000000E+03 0.  0.
</event>
<event>
 5    0  0.5489207E-005  0.2638742E+03  0.7546771E-02  0.1104838E+00
         21   -1    0    0  502  501  0.00000000000E+00  0.00000000000E+00  0.20401328321E+03  0.20401328321E+03  0.00000000000E+00 0. -1.
         21   -1    0    0  501  502 -0.00000000000E+00 -0.00000000000E+00 -0.34129943126E+03  0.34129943126E+03  0.00000000000E+00 0. -1.
         25    1    1    2    0    0 -0.62389079061E+02 -0.65419424428E+02 -0.78465189734E+02  0.17307190494E+03  0.12500000000E+03 0.  0.
         25    1    1    2    0    0  0.25823727721E+02  0.15118375478E+03 -0.82764931721E+02  0.21447243773E+03  0.12500000000E+03 0.  0.
         25    1    1    2    0    0  0.36565351341E+02 -0.85764330349E+02  0.23943973412E+02  0.15776837180E+03  0.12500000000E+03 0.  0.
</event>
<event>
 5    0  0.5489207E-005  0.3667942E+03  0.7546771E-02  0.1055926E+00
         21   -1    0    0  502  501  0.00000000000E+00  0.00000000000E+00  0.67182549981E+03  0.67182549981E+03  0.00000000000E+00 0.  1.
         21   -1    0    0  501  502 -0.00000000000E+00 -0.00000000000E+00 -0.20025731229E+03  0.20025731229E+03  0.00000000000E+00 0.  1.
         25    1    1    2    0    0  0.21578650756E+03  0.13597426064E+02  0.13672905022E+03  0.28472537648E+03  0.12500000000E+03 0.  0.
         25    1    1    2    0    0 -0.30076538100E+02 -0.12223275747E+02 -0.52957809349E+02  0.13958343808E+03  0.12500000000E+03 0.  0.
         25    1    1    2    0    0 -0.18570996946E+03 -0.13741503168E+01  0.38779694665E+03  0.44777399754E+03  0.12500000000E+03 0.  0.
</event>
<event>
 5    0  0.5489207E-005  0.2894909E+03  0.7546771E-02  0.1090615E+00
         21   -1    0    0  502  501  0.00000000000E+00  0.00000000000E+00  0.13293488990E+03  0.13293488990E+03  0.00000000000E+00 0.  1.
         21   -1    0    0  501  502 -0.00000000000E+00 -0.00000000000E+00 -0.63042130506E+03  0.63042130506E+03  0.00000000000E+00 0.  1.
         25    1    1    2    0    0 -0.36100905190E+01  0.14182669759E+03 -0.49815427490E+02  0.19553624145E+03  0.12500000000E+03 0.  0.
         25    1    1    2    0    0 -0.13587741147E+02  0.36007889685E+02 -0.18207551262E+03  0.22418226318E+03  0.12500000000E+03 0.  0.
         25    1    1    2    0    0  0.17197831666E+02 -0.17783458728E+03 -0.26559547505E+03  0.34363769033E+03  0.12500000000E+03 0.  0.
</event>
<event>
 5    0  0.5489207E-005  0.3698633E+03  0.7546771E-02  0.1054745E+00
         21   -1    0    0  502  501  0.00000000000E+00  0.00000000000E+00  0.26775515203E+03  0.26775515203E+03  0.00000000000E+00 0. -1.
         21   -1    0    0  501  502 -0.00000000000E+00 -0.00000000000E+00 -0.51091025750E+03  0.51091025750E+03  0.00000000000E+00 0. -1.
         25    1    1    2    0    0 -0.47718745290E+02 -0.64801571795E+01  0.88340074043E+02  0.16046195740E+03  0.12500000000E+03 0.  0.
         25    1    1    2    0    0  0.16699816053E+03  0.11139568373E+03 -0.78371792956E+01  0.23660897141E+03  0.12500000000E+03 0.  0.
         25    1    1    2    0    0 -0.11927941524E+03 -0.10491552655E+03 -0.32365800022E+03  0.38159448072E+03  0.12500000000E+03 0.  0.
</event>
<event>
 5    0  0.5489207E-005  0.2378508E+03  0.7546771E-02  0.1121233E+00
         21   -1    0    0  502  501  0.00000000000E+00  0.00000000000E+00  0.96762975341E+02  0.96762975341E+02  0.00000000000E+00 0.  1.
         21   -1    0    0  501  502 -0.00000000000E+00 -0.00000000000E+00 -0.58465553749E+03  0.58465553749E+03  0.00000000000E+00 0.  1.
         25    1    1    2    0    0  0.84589139447E+02  0.29998940324E+01 -0.14086846448E+03  0.20647819779E+03  0.12500000000E+03 0.  0.
         25    1    1    2    0    0  0.12001851394E+02  0.64422099327E+02 -0.95661599421E+02  0.17050041913E+03  0.12500000000E+03 0.  0.
         25    1    1    2    0    0 -0.96590990841E+02 -0.67421993360E+02 -0.25136249825E+03  0.30443989592E+03  0.12500000000E+03 0.  0.
</event>
<event>
 5    0  0.5489207E-005  0.3383452E+03  0.7546771E-02  0.1067503E+00
         21   -1    0    0  502  501  0.00000000000E+00  0.00000000000E+00  0.46041272350E+03  0.46041272350E+03  0.00000000000E+00 0. -1.
         21   -1    0    0  501  502 -0.00000000000E+00 -0.00000000000E+00 -0.24864104989E+03  0.24864104989E+03  0.00000000000E+00 0. -1.
         25    1    1    2    0    0  0.35226600805E+02 -0.12559743702E+03  0.16980302749E+03  0.24793889919E+03  0.12500000000E+03 0.  0.
         25    1    1    2    0    0 -0.68406281061E+02 -0.53284265857E+02  0.15149798233E+03  0.21469809251E+03  0.12500000000E+03 0.  0.
         25    1    1    2    0    0  0.33179680256E+02  0.17888170287E+03 -0.10952933621E+03  0.24641678168E+03  0.12500000000E+03 0.  0.
</event>
<event>
 5    0  0.5489207E-005  0.2596063E+03  0.7546771E-02  0.1107380E+00
         21   -1    0    0  502  501  0.00000000000E+00  0.00000000000E+00  0.78675112709E+02  0.78675112709E+02  0.00000000000E+00 0.  1.
         21   -1    0    0  501  502 -0.00000000000E+00 -0.00000000000E+00 -0.85662942368E+03  0.85662942368E+03  0.00000000000E+00 0.  1.
         25    1    1    2    0    0 -0.98428372258E+01 -0.27055813072E+02 -0.68688099980E+02  0.14550585399E+03  0.12500000000E+03 0.  0.
         25    1    1    2    0    0  0.50149072745E+00  0.97211692201E+02 -0.17257618744E+03  0.23421764465E+03  0.12500000000E+03 0.  0.
         25    1    1    2    0    0  0.93413464983E+01 -0.70155879129E+02 -0.53669002355E+03  0.55558103775E+03  0.12500000000E+03 0.  0.
</event>
<event>
 5    0  0.5489207E-005  0.3325787E+03  0.7546771E-02  0.1070002E+00
         21   -1    0    0  502  501  0.00000000000E+00  0.00000000000E+00  0.14200295831E+03  0.14200295831E+03  0.00000000000E+00 0.  1.
         21   -1    0    0  501  502 -0.00000000000E+00 -0.00000000000E+00 -0.77891753325E+03  0.77891753325E+03  0.00000000000E+00 0.  1.
         25    1    1    2    0    0  0.12043971912E+03 -0.51383501131E+02 -0.40830398261E+02  0.18557508333E+03  0.12500000000E+03 0.  0.
         25    1    1    2    0    0  0.65212336299E+02 -0.12902437455E+02 -0.42053158606E+03  0.44372394186E+03  0.12500000000E+03 0.  0.
         25    1    1    2    0    0 -0.18565205542E+03  0.64285938586E+02 -0.17555259061E+03  0.29162146638E+03  0.12500000000E+03 0.  0.
</event>
<event>
 5    0  0.5489207E-005  0.2817023E+03  0.7546771E-02  0.1094763E+00
         21   -1    0    0  502  501  0.00000000000E+00  0.00000000000E+00  0.50715815312E+02  0.50715815312E+02  0.00000000000E+00 0. -1.
         21   -1    0    0  501  502 -0.00000000000E+00 -0.00000000000E+00 -0.15647229355E+04  0.15647229355E+04  0.00000000000E+00 0. -1.
         25    1    1    2    0    0 -0.96089622646E+02  0.12192642206E+03 -0.40104959428E+03  0.44784488950E+03  0.12500000000E+03 0.  0.
         25    1    1    2    0    0  0.53015538333E+02  0.34199484371E+02 -0.58144890166E+03  0.59807029459E+03  0.12500000000E+03 0.  0.
         25    1    1    2    0    0  0.43074084313E+02 -0.15612590643E+03 -0.53150862426E+03  0.56952356673E+03  0.12500000000E+03 0.  0.
</event>
<event>
 5    0  0.5489207E-005  0.5517830E+03  0.7546771E-02  0.1001082E+00
         21   -1    0    0  502  501  0.00000000000E+00  0.00000000000E+00  0.26577352836E+03  0.26577352836E+03  0.00000000000E+00 0. -1.
         21   -1    0    0  501  502 -0.00000000000E+00 -0.00000000000E+00 -0.11455785270E+04  0.11455785270E+04  0.00000000000E+00 0. -1.
         25    1    1    2    0    0  0.16815692593E+03  0.18817538836E+03  0.90557416957E+02  0.29582490478E+03  0.12500000000E+03 0.  0.
         25    1    1    2    0    0  0.72760646035E+02 -0.15384055091E+03 -0.69898431025E+03  0.73018154776E+03  0.12500000000E+03 0.  0.
         25    1    1    2    0    0 -0.24091757196E+03 -0.34334837454E+02 -0.27137810530E+03  0.38534560277E+03  0.12500000000E+03 0.  0.
</event>
<event>
 5    0  0.5489207E-005  0.2360356E+03  0.7546771E-02  0.1122462E+00
         21   -1    0    0  502  501  0.00000000000E+00  0.00000000000E+00  0.14313007533E+04  0.14313007533E+04  0.00000000000E+00 0. -1.
         21   -1    0    0  501  502 -0.00000000000E+00 -0.00000000000E+00 -0.38924588406E+02  0.38924588406E+02  0.00000000000E+00 0. -1.
         25    1    1    2    0    0 -0.67604214811E+02  0.30709764518E+02  0.23639155120E+03  0.27752366562E+03  0.12500000000E+03 0.  0.
         25    1    1    2    0    0  0.13125946984E+02  0.83322435511E+01  0.79385779157E+03  0.80378909547E+03  0.12500000000E+03 0.  0.
         25    1    1    2    0    0  0.54478267826E+02 -0.39042008069E+02  0.36212682208E+03  0.38891258058E+03  0.12500000000E+03 0.  0.
</event>
<event>
 5    0  0.5489207E-005  0.4933633E+03  0.7546771E-02  0.1015526E+00
         21   -1    0    0  502  501  0.00000000000E+00  0.00000000000E+00  0.34609712136E+03  0.34609712136E+03  0.00000000000E+00 0. -1.
         21   -1    0    0  501  502 -0.00000000000E+00 -0.00000000000E+00 -0.70329209393E+03  0.70329209393E+03  0.00000000000E+00 0. -1.
         25    1    1    2    0    0  0.29967405707E+03 -0.26264147513E+03 -0.17598491397E+03  0.45318955734E+03  0.12500000000E+03 0.  0.
         25    1    1    2    0    0 -0.29916879585E+03  0.19530974027E+03 -0.16685535859E+02  0.37888160441E+03  0.12500000000E+03 0.  0.
         25    1    1    2    0    0 -0.50526121739E+00  0.67331734867E+02 -0.16452452275E+03  0.21731805354E+03  0.12500000000E+03 0.  0.
</event>
<event>
 5    0  0.5489207E-005  0.5253422E+03  0.7546771E-02  0.1007368E+00
         21   -1    0    0  502  501  0.00000000000E+00  0.00000000000E+00  0.18927710945E+03  0.18927710945E+03  0.00000000000E+00 0.  1.
         21   -1    0    0  501  502 -0.00000000000E+00 -0.00000000000E+00 -0.14580974025E+04  0.14580974025E+04  0.00000000000E+00 0.  1.
         25    1    1    2    0    0 -0.26087755017E+03 -0.85815440757E+02 -0.93583269492E+03  0.98327474235E+03  0.12500000000E+03 0.  0.
         25    1    1    2    0    0 -0.88138471130E+02 -0.74141654713E+01 -0.21515414594E+03  0.26408268867E+03  0.12500000000E+03 0.  0.
         25    1    1    2    0    0  0.34901602130E+03  0.93229606228E+02 -0.11783345223E+03  0.40001708096E+03  0.12500000000E+03 0.  0.
</event>
<event>
 5    0  0.5489207E-005  0.2527835E+03  0.7546771E-02  0.1111558E+00
         21   -1    0    0  502  501  0.00000000000E+00  0.00000000000E+00  0.51814761618E+03  0.51814761618E+03  0.00000000000E+00 0. -1.
         21   -1    0    0  501  502 -0.00000000000E+00 -0.00000000000E+00 -0.12332299763E+03  0.12332299763E+03  0.00000000000E+00 0. -1.
         25    1    1    2    0    0  0.16313717224E+02  0.28434316369E+02  0.59294836969E+02  0.14218131174E+03  0.12500000000E+03 0.  0.
         25    1    1    2    0    0 -0.30043886647E+02 -0.88594151737E+02  0.32370125063E+03  0.35938705946E+03  0.12500000000E+03 0.  0.
         25    1    1    2    0    0  0.13730169422E+02  0.60159835368E+02  0.11828530953E+02  0.13990224261E+03  0.12500000000E+03 0.  0.
</event>
<event>
 5    0  0.5489207E-005  0.2402952E+03  0.7546771E-02  0.1119596E+00
         21   -1    0    0  502  501  0.00000000000E+00  0.00000000000E+00  0.11361764362E+03  0.11361764362E+03  0.00000000000E+00 0. -1.
         21   -1    0    0  501  502 -0.00000000000E+00 -0.00000000000E+00 -0.50821138783E+03  0.50821138783E+03  0.00000000000E+00 0. -1.
         25    1    1    2    0    0 -0.21801338741E+02  0.59854105395E+01 -0.13805240480E+03  0.18760221209E+03  0.12500000000E+03 0.  0.
         25    1    1    2    0    0 -0.85614726096E+02  0.69098205009E+02 -0.14990256261E+03  0.22405405941E+03  0.12500000000E+03 0.  0.
         25    1    1    2    0    0  0.10741606484E+03 -0.75083615549E+02 -0.10663877681E+03  0.21017275996E+03  0.12500000000E+03 0.  0.
</event>
<event>
 5    0  0.5489207E-005  0.2555999E+03  0.7546771E-02  0.1109816E+00
         21   -1    0    0  502  501  0.00000000000E+00  0.00000000000E+00  0.48450256665E+02  0.48450256665E+02  0.00000000000E+00 0. -1.
         21   -1    0    0  501  502 -0.00000000000E+00 -0.00000000000E+00 -0.13484201934E+04  0.13484201934E+04  0.00000000000E+00 0. -1.
         25    1    1    2    0    0 -0.29744680512E+02  0.46286331537E+02 -0.66601698123E+03  0.67987556935E+03  0.12500000000E+03 0.  0.
         25    1    1    2    0    0 -0.25668312875E+02 -0.65937883892E+02 -0.51514116445E+03  0.53479162870E+03  0.12500000000E+03 0.  0.
         25    1    1    2    0    0  0.55412993387E+02  0.19651552355E+02 -0.11881179101E+03  0.18220325197E+03  0.12500000000E+03 0.  0.
</event>
<event>
 5    0  0.5489207E-005  0.3341552E+03  0.7546771E-02  0.1069313E+00
         21   -1    0    0  502  501  0.00000000000E+00  0.00000000000E+00  0.69354284801E+03  0.69354284801E+03  0.00000000000E+00 0.  1.
         21   -1    0    0  501  502 -0.00000000000E+00 -0.00000000000E+00 -0.16099895019E+03  0.16099895019E+03  0.00000000000E+00 0.  1.
         25    1    1    2    0    0 -0.10406966119E+03  0.73984050150E+02 -0.67509685240E+02  0.19101489905E+03  0.12500000000E+03 0.  0.
         25    1    1    2    0    0  0.69957336633E+02 -0.35652005920E+02  0.29424119875E+03  0.32919291839E+03  0.12500000000E+03 0.  0.
         25    1    1    2    0    0  0.34112324554E+02 -0.38332044230E+02  0.30581238431E+03  0.33433398077E+03  0.12500000000E+03 0.  0.
</event>
<event>
 5    0  0.5489207E-005  0.5891108E+03  0.7546771E-02  0.9928259E-01
         21   -1    0    0  502  501  0.00000000000E+00  0.00000000000E+00  0.35358299067E+03  0.35358299067E+03  0.00000000000E+00 0. -1.
         21   -1    0    0  501  502 -0.00000000000E+00 -0.00000000000E+00 -0.98152777124E+03  0.98152777124E+03  0.00000000000E+00 0. -1.
         25    1    1    2    0    0 -0.42994909834E+03 -0.29192592513E+03 -0.33644196769E+03  0.63158148370E+03  0.12500000000E+03 0.  0.
         25    1    1    2    0    0  0.37276630896E+03  0.27957508725E+03 -0.29498757960E+03  0.56547291944E+03  0.12500000000E+03 0.  0.
         25    1    1    2    0    0  0.57182789389E+02  0.12350837879E+02  0.34847667177E+01  0.13805635877E+03  0.12500000000E+03 0.  0.
</event>
<event>
 5    0  0.5489207E-005  0.3125895E+03  0.7546771E-02  0.1079111E+00
         21   -1    0    0  502  501  0.00000000000E+00  0.00000000000E+00  0.14145312293E+03  0.14145312293E+03  0.00000000000E+00 0. -1.
         21   -1    0    0  501  502 -0.00000000000E+00 -0.00000000000E+00 -0.69077459586E+03  0.69077459586E+03  0.00000000000E+00 0. -1.
         25    1    1    2    0    0  0.15259082103E+03  0.33024806569E+02 -0.31834119406E+03  0.37595307200E+03  0.12500000000E+03 0.  0.
         25    1    1    2    0    0 -0.44110669809E+02  0.11191690716E+03 -0.10304336918E+03  0.20177730604E+03  0.12500000000E+03 0.  0.
         25    1    1    2    0    0 -0.10848015122E+03 -0.14494171373E+03 -0.12793690969E+03  0.25449734075E+03  0.12500000000E+03 0.  0.
</event>
<event>
 5    0  0.5489207E-005  0.2970647E+03  0.7546771E-02  0.1086717E+00
         21   -1    0    0  502  501  0.00000000000E+00  0.00000000000E+00  0.58927505463E+03  0.58927505463E+03  0.00000000000E+00 0.  1.
         21   -1    0    0  501  502 -0.00000000000E+00 -0.00000000000E+00 -0.14975597260E+03  0.14975597260E+03  0.00000000000E+00 0.  1.
         25    1    1    2    0    0  0.10771739165E+03 -0.39789953220E+02  0.94323127550E+02  0.19418581110E+03  0.12500000000E+03 0.  0.
         25    1    1    2    0    0  0.37008175914E+02 -0.10063537642E+03  0.63394607461E+02  0.17646801502E+03  0.12500000000E+03 0.  0.
         25    1    1    2    0    0 -0.14472556757E+03  0.14042532964E+03  0.28180134702E+03  0.36837720110E+03  0.12500000000E+03 0.  0.
</event>
<event>
 5    0  0.5489207E-005  0.3171664E+03  0.7546771E-02  0.1076961E+00
         21   -1    0    0  502  501  0.00000000000E+00  0.00000000000E+00  0.13333075739E+04  0.13333075739E+04  0.00000000000E+00 0. -1.
         21   -1    0    0  501  502 -0.00000000000E+00 -0.00000000000E+00 -0.75447340327E+02  0.75447340327E+02  0.00000000000E+00 0. -1.
         25    1    1    2    0    0 -0.16167691849E+03  0.14346156187E+03  0.63798278601E+03  0.68510413876E+03  0.12500000000E+03 0.  0.
         25    1    1    2    0    0  0.37012050991E+02  0.17169294411E+02  0.26716484003E+03  0.29776958934E+03  0.12500000000E+03 0.  0.
         25    1    1    2    0    0  0.12466486750E+03 -0.16063085628E+03  0.35271260753E+03  0.42588118612E+03  0.12500000000E+03 0.  0.
</event>
<event>
 5    0  0.5489207E-005  0.2943220E+03  0.7546771E-02  0.1088114E+00
         21   -1    0    0  502  501  0.00000000000E+00  0.00000000000E+00  0.17321236013E+04  0.17321236013E+04  0.00000000000E+00 0. -1.
         21   -1    0    0  501  502 -0.00000000000E+00 -0.00000000000E+00 -0.50011123611E+02  0.50011123611E+02  0.00000000000E+00 0. -1.
         25    1    1    2    0    0  0.15986655617E+03  0.82167662117E+02  0.92004194286E+03  0.94573305805E+03  0.12500000000E+03 0.  0.
         25    1    1    2    0    0 -0.86843361507E+02 -0.80389016828E+02  0.57282117854E+03  0.59812479137E+03  0.12500000000E+03 0.  0.
         25    1    1    2    0    0 -0.73023194665E+02 -0.17786452898E+01  0.18924935632E+03  0.23827687551E+03  0.12500000000E+03 0.  0.
</event>
<event>
 5    0  0.5489207E-005  0.2209826E+03  0.7546771E-02  0.1133153E+00
         21   -1    0    0  502  501  0.00000000000E+00  0.00000000000E+00  0.40196603879E+02  0.40196603879E+02  0.00000000000E+00 0. -1.
         21   -1    0    0  501  502 -0.00000000000E+00 -0.00000000000E+00 -0.12148614142E+04  0.12148614142E+04  0.00000000000E+00 0. -1.
         25    1    1    2    0    0  0.23774221340E+02  0.17316190892E+02 -0.39979638213E+03  0.41991333777E+03  0.12500000000E+03 0.  0.
         25    1    1    2    0    0 -0.64328417189E+02 -0.84335434803E+02 -0.39922518499E+03  0.43157427999E+03  0.12500000000E+03 0.  0.
         25    1    1    2    0    0  0.40554195850E+02  0.67019243911E+02 -0.37564324321E+03  0.40357040034E+03  0.12500000000E+03 0.  0.
</event>
<event>
 5    0  0.5489207E-005  0.3814402E+03  0.7546771E-02  0.1050403E+00
         21   -1    0    0  502  501  0.00000000000E+00  0.00000000000E+00  0.33181002867E+03  0.33181002867E+03  0.00000000000E+00 0.  1.
         21   -1    0    0  501  502 -0.00000000000E+00 -0.00000000000E+00 -0.43849380591E+03  0.43849380591E+03  0.00000000000E+00 0.  1.
         25    1    1    2    0    0  0.24802983366E+02  0.16649977767E+03 -0.11447163626E+03  0.23888515956E+03  0.12500000000E+03 0.  0.
         25    1    1    2    0    0  0.28355929873E+01 -0.16379164368E+03 -0.20011956817E+03  0.28724307597E+03  0.12500000000E+03 0.  0.
         25    1    1    2    0    0 -0.27638576353E+02 -0.27081339903E+01  0.20790742719E+03  0.24417559905E+03  0.12500000000E+03 0.  0.
</event>
<event>
 5    0  0.5489207E-005  0.3789379E+03  0.7546771E-02  0.1051327E+00
         21   -1    0    0  502  501  0.00000000000E+00  0.00000000000E+00  0.15945329257E+03  0.15945329257E+03  0.00000000000E+00 0. -1.
         21   -1    0    0  501  502 -0.00000000000E+00 -0.00000000000E+00 -0.90053896045E+03  0.90053896045E+03  0.00000000000E+00 0. -1.
         25    1    1    2    0    0 -0.55932858105E+02 -0.11536545947E+03 -0.32329339239E+03  0.36956906177E+03  0.12500000000E+03 0.  0.
         25    1    1    2    0    0 -0.13245506226E+03  0.19284191108E+03 -0.80792544542E+02  0.27728105135E+03  0.12500000000E+03 0.  0.
         25    1    1    2    0    0  0.18838792036E+03 -0.77476451602E+02 -0.33699973095E+03  0.41314213989E+03  0.12500000000E+03 0.  0.
</event>
<event>
 5    0  0.5489207E-005  0.3761306E+03  0.7546771E-02  0.1052373E+00
         21   -1    0    0  502  501  0.00000000000E+00  0.00000000000E+00  0.55079531109E+03  0.55079531109E+03  0.00000000000E+00 0.  1.
         21   -1    0    0  501  502 -0.00000000000E+00 -0.00000000000E+00 -0.25685441866E+03  0.25685441866E+03  0.00000000000E+00 0.  1.
         25    1    1    2    0    0 -0.87407092910E+01  0.17212238052E+03  0.32775659543E+03  0.39083487526E+03  0.12500000000E+03 0.  0.
         25    1    1    2    0    0 -0.41159869310E+02 -0.20449674820E+03 -0.10053405493E+03  0.26314473407E+03  0.12500000000E+03 0.  0.
         25    1    1    2    0    0  0.49900578601E+02  0.32374367681E+02  0.66718351928E+02  0.15367012042E+03  0.12500000000E+03 0.  0.
</event>
<event>
 5    0  0.5489207E-005  0.3668768E+03  0.7546771E-02  0.1055894E+00
         21   -1    0    0  502  501  0.00000000000E+00  0.00000000000E+00  0.23411995767E+03  0.23411995767E+03  0.00000000000E+00 0. -1.
         21   -1    0    0  501  502 -0.00000000000E+00 -0.00000000000E+00 -0.57491276716E+03  0.57491276716E+03  0.00000000000E+00 0. -1.
         25    1    1    2    0    0  0.11920480923E+03 -0.18517927488E+02 -0.39367873572E+03  0.43030297134E+03  0.12500000000E+03 0.  0.
         25    1    1    2    0    0 -0.17444494225E+03  0.53320155723E+02  0.79935022713E+02  0.23513546040E+03  0.12500000000E+03 0.  0.
         25    1    1    2    0    0  0.55240133017E+02 -0.34802228235E+02 -0.27049096485E+02  0.14359429308E+03  0.12500000000E+03 0.  0.
</event>
<event>
 5    0  0.5489207E-005  0.3197564E+03  0.7546771E-02  0.1075761E+00
         21   -1    0    0  502  501  0.00000000000E+00  0.00000000000E+00  0.45448904265E+03  0.45448904265E+03  0.00000000000E+00 0.  1.
         21   -1    0    0  501  502 -0.00000000000E+00 -0.00000000000E+00 -0.22496507491E+03  0.22496507491E+03  0.00000000000E+00 0.  1.
         25    1    1    2    0    0  0.10811230342E+03  0.63967120928E+02 -0.25907228391E+02  0.17909842879E+03  0.12500000000E+03 0.  0.
         25    1    1    2    0    0 -0.17555434896E+03 -0.91701383529E+02  0.35208649727E+02  0.23683986615E+03  0.12500000000E+03 0.  0.
         25    1    1    2    0    0  0.67442045542E+02  0.27734262600E+02  0.22022254640E+03  0.26351582263E+03  0.12500000000E+03 0.  0.
</event>
<event>
 5    0  0.5489207E-005  0.2486504E+03  0.7546771E-02  0.1114161E+00
         21   -1    0    0  502  501  0.00000000000E+00  0.00000000000E+00  0.23813809136E+04  0.23813809136E+04  0.00000000000E+00 0. -1.
         21   -1    0    0  501  502 -0.00000000000E+00 -0.00000000000E+00 -0.25962680637E+02  0.25962680637E+02  0.00000000000E+00 0. -1.
         25    1    1    2    0    0 -0.20415525040E+02 -0.30091206216E+02  0.12140376645E+04  0.12209974305E+04  0.12500000000E+03 0.  0.
         25    1    1    2    0    0 -0.85951122614E+02  0.44397507109E+02  0.59813725279E+03  0.61866946529E+03  0.12500000000E+03 0.  0.
         25    1    1    2    0    0  0.10636664765E+03 -0.14306300892E+02  0.54324331568E+03  0.56767669849E+03  0.12500000000E+03 0.  0.
</event>
<event>
 5    0  0.5489207E-005  0.2956014E+03  0.7546771E-02  0.1087460E+00
         21   -1    0    0  502  501  0.00000000000E+00  0.00000000000E+00  0.68287118862E+02  0.68287118862E+02  0.00000000000E+00 0. -1.
         21   -1    0    0  501  502 -0.00000000000E+00 -0.00000000000E+00 -0.12795999803E+04  0.12795999803E+04  0.00000000000E+00 0. -1.
         25    1    1    2    0    0 -0.40427225048E+02 -0.12897652169E+03 -0.65687106482E+03  0.68218318615E+03  0.12500000000E+03 0.  0.
         25    1    1    2    0    0 -0.58104532111E+02  0.57986854244E+02 -0.10243751595E+03  0.18126515548E+03  0.12500000000E+03 0.  0.
         25    1    1    2    0    0  0.98531757159E+02  0.70989667450E+02 -0.45200428066E+03  0.48443875752E+03  0.12500000000E+03 0.  0.
</event>
<event>
 5    0  0.5489207E-005  0.3329142E+03  0.7546771E-02  0.1069855E+00
         21   -1    0    0  502  501  0.00000000000E+00  0.00000000000E+00  0.34127549367E+03  0.34127549367E+03  0.00000000000E+00 0.  1.
         21   -1    0    0  501  502 -0.00000000000E+00 -0.00000000000E+00 -0.32475766540E+03  0.32475766540E+03  0.00000000000E+00 0.  1.
         25    1    1    2    0    0 -0.11294347260E+03  0.22216862352E+03 -0.13749077759E+02  0.27915795246E+03  0.12500000000E+03 0.  0.
         25    1    1    2    0    0  0.73999238029E+02 -0.51014124217E+02  0.67652568928E+02  0.16816717332E+03  0.12500000000E+03 0.  0.
         25    1    1    2    0    0  0.38944234568E+02 -0.17115449931E+03 -0.37385662891E+02  0.21870803330E+03  0.12500000000E+03 0.  0.
</event>
<event>
 5    0  0.5969711E-005  0.3387343E+03  0.7546771E-02  0.1067336E+00
         21   -1    0    0  502  501  0.00000000000E+00  0.00000000000E+00  0.50867724500E+03  0.50867724500E+03  0.00000000000E+00 0. -1.
         21   -1    0    0  501  502 -0.00000000000E+00 -0.00000000000E+00 -0.22556719920E+03  0.22556719920E+03  0.00000000000E+00 0. -1.
         25    1    1    2    0    0 -0.17921681738E+03 -0.25255541403E+02  0.15592836380E+03  0.26962040843E+03  0.12500000000E+03 0.  0.
         25    1    1    2    0    0  0.24218450495E+03  0.60205857196E+01 -0.28373730838E+01  0.27262177568E+03  0.12500000000E+03 0.  0.
         25    1    1    2    0    0 -0.62967687566E+02  0.19234955683E+02  0.13001905508E+03  0.19200226010E+03  0.12500000000E+03 0.  0.
</event>
<event>
 5    0  0.5489207E-005  0.2633261E+03  0.7546771E-02  0.1105161E+00
         21   -1    0    0  502  501  0.00000000000E+00  0.00000000000E+00  0.11209696325E+03  0.11209696325E+03  0.00000000000E+00 0. -1.
         21   -1    0    0  501  502 -0.00000000000E+00 -0.00000000000E+00 -0.61857706808E+03  0.61857706808E+03  0.00000000000E+00 0. -1.
         25    1    1    2    0    0 -0.32376245609E+02  0.13123124697E+03 -0.27826641503E+03  0.33365709823E+03  0.12500000000E+03 0.  0.
         25    1    1    2    0    0  0.47360042749E+02  0.10889644697E+02 -0.80081661120E+02  0.15620381064E+03  0.12500000000E+03 0.  0.
         25    1    1    2    0    0 -0.14983797140E+02 -0.14212089167E+03 -0.14813202868E+03  0.24081312245E+03  0.12500000000E+03 0.  0.
</event>
<event>
 5    0  0.5489207E-005  0.3171198E+03  0.7546771E-02  0.1076983E+00
         21   -1    0    0  502  501  0.00000000000E+00  0.00000000000E+00  0.10769396511E+04  0.10769396511E+04  0.00000000000E+00 0. -1.
         21   -1    0    0  501  502 -0.00000000000E+00 -0.00000000000E+00 -0.93380305616E+02  0.93380305616E+02  0.00000000000E+00 0. -1.
         25    1    1    2    0    0 -0.10746155790E+03 -0.14005743211E+03  0.35451903278E+03  0.41529846535E+03  0.12500000000E+03 0.  0.
         25    1    1    2    0    0  0.52279367097E+02  0.18598394795E+03  0.53639280516E+03  0.58366548857E+03  0.12500000000E+03 0.  0.
         25    1    1    2    0    0  0.55182190803E+02 -0.45926515847E+02  0.92647507527E+02  0.17135600279E+03  0.12500000000E+03 0.  0.
</event>
<event>
 5    0  0.5489207E-005  0.2832134E+03  0.7546771E-02  0.1093947E+00
         21   -1    0    0  502  501  0.00000000000E+00  0.00000000000E+00  0.35733102890E+03  0.35733102890E+03  0.00000000000E+00 0. -1.
         21   -1    0    0  501  502 -0.00000000000E+00 -0.00000000000E+00 -0.22446927579E+03  0.22446927579E+03  0.00000000000E+00 0. -1.
         25    1    1    2    0    0 -0.35711685176E+02  0.42163362384E+02 -0.90948442610E+02  0.16416361594E+03  0.12500000000E+03 0.  0.
         25    1    1    2    0    0 -0.97763519195E+01 -0.13047765347E+03  0.17230483210E+03  0.24986786563E+03  0.12500000000E+03 0.  0.
         25    1    1    2    0    0  0.45488037096E+02  0.88314291084E+02  0.51505363628E+02  0.16776882312E+03  0.12500000000E+03 0.  0.
</event>
<event>
 5    0  0.5489207E-005  0.4293862E+03  0.7546771E-02  0.1034054E+00
         21   -1    0    0  502  501  0.00000000000E+00  0.00000000000E+00  0.44547198573E+03  0.44547198573E+03  0.00000000000E+00 0. -1.
         21   -1    0    0  501  502 -0.00000000000E+00 -0.00000000000E+00 -0.41388130740E+03  0.41388130740E+03  0.00000000000E+00 0. -1.
         25    1    1    2    0    0  0.27642384686E+03 -0.15288271465E+02 -0.13218507687E+01  0.30376079676E+03  0.12500000000E+03 0.  0.
         25    1    1    2    0    0 -0.27973639477E+03  0.17193446184E+03 -0.61233701338E+01  0.35139209637E+03  0.12500000000E+03 0.  0.
         25    1    1    2    0    0  0.33125479114E+01 -0.15664619037E+03  0.39035899234E+02  0.20420040000E+03  0.12500000000E+03 0.  0.
</event>
<event>
 5    0  0.5489207E-005  0.2468861E+03  0.7546771E-02  0.1115289E+00
         21   -1    0    0  502  501  0.00000000000E+00  0.00000000000E+00  0.60324003372E+03  0.60324003372E+03  0.00000000000E+00 0.  1.
         21   -1    0    0  501  502 -0.00000000000E+00 -0.00000000000E+00 -0.10104224960E+03  0.10104224960E+03  0.00000000000E+00 0.  1.
         25    1    1    2    0    0  0.97732745888E+02 -0.22757727682E+02  0.14913855380E+03  0.21894499770E+03  0.12500000000E+03 0.  0.
         25    1    1    2    0    0 -0.53523575289E+02 -0.44132916064E+02  0.56588638753E+02  0.15375227292E+03  0.12500000000E+03 0.  0.
         25    1    1    2    0    0 -0.44209170599E+02  0.66890643745E+02  0.29647059156E+03  0.33158501270E+03  0.12500000000E+03 0.  0.
</event>
<event>
 5    0  0.5489207E-005  0.4204629E+03  0.7546771E-02  0.1036916E+00
         21   -1    0    0  502  501  0.00000000000E+00  0.00000000000E+00  0.20231850363E+04  0.20231850363E+04  0.00000000000E+00 0. -1.
         21   -1    0    0  501  502 -0.00000000000E+00 -0.00000000000E+00 -0.87381553522E+02  0.87381553522E+02  0.00000000000E+00 0. -1.
         25    1    1    2    0    0  0.61116897815E+02 -0.25412274651E+03  0.39932384261E+03  0.49335400756E+03  0.12500000000E+03 0.  0.
         25    1    1    2    0    0 -0.77271383842E+02  0.28860986044E+03  0.70887949322E+03  0.77935977200E+03  0.12500000000E+03 0.  0.
         25    1    1    2    0    0  0.16154486027E+02 -0.34487113932E+02  0.82760014691E+03  0.83785281023E+03  0.12500000000E+03 0.  0.
</event>
<event>
 5    0  0.5489207E-005  0.3503353E+03  0.7546771E-02  0.1062478E+00
         21   -1    0    0  502  501  0.00000000000E+00  0.00000000000E+00  0.70146772798E+02  0.70146772798E+02  0.00000000000E+00 0. -1.
         21   -1    0    0  501  502 -0.00000000000E+00 -0.00000000000E+00 -0.17496858027E+04  0.17496858027E+04  0.00000000000E+00 0. -1.
         25    1    1    2    0    0 -0.63179223770E+02 -0.11024812952E+03 -0.61961226588E+03  0.64474074201E+03  0.12500000000E+03 0.  0.
         25    1    1    2    0    0 -0.89827286948E+02  0.14501700276E+03 -0.88182339163E+03  0.90682763885E+03  0.12500000000E+03 0.  0.
         25    1    1    2    0    0  0.15300651072E+03 -0.34768873242E+02 -0.17810337242E+03  0.26826419466E+03  0.12500000000E+03 0.  0.
</event>
<event>
 5    0  0.5489207E-005  0.2433194E+03  0.7546771E-02  0.1117601E+00
         21   -1    0    0  502  501  0.00000000000E+00  0.00000000000E+00  0.15967395615E+03  0.15967395615E+03  0.00000000000E+00 0. -1.
         21   -1    0    0  501  502 -0.00000000000E+00 -0.00000000000E+00 -0.37078250984E+03  0.37078250984E+03  0.00000000000E+00 0. -1.
         25    1    1    2    0    0  0.57636508256E+02 -0.24568239594E+02 -0.33253971091E+02  0.14372331778E+03  0.12500000000E+03 0.  0.
         25    1    1    2    0    0  0.11239799233E+02  0.35870537460E+02  0.30391932075E+02  0.13402125981E+03  0.12500000000E+03 0.  0.
         25    1    1    2    0    0 -0.68876307490E+02 -0.11302297866E+02 -0.20824651467E+03  0.25271188841E+03  0.12500000000E+03 0.  0.
</event>
<event>
 5    0  0.5489207E-005  0.3010443E+03  0.7546771E-02  0.1084720E+00
         21   -1    0    0  502  501  0.00000000000E+00  0.00000000000E+00  0.10760775109E+03  0.10760775109E+03  0.00000000000E+00 0. -1.
         21   -1    0    0  501  502 -0.00000000000E+00 -0.00000000000E+00 -0.84220366112E+03  0.84220366112E+03  0.00000000000E+00 0. -1.
         25    1    1    2    0    0 -0.38472336392E+02 -0.18901135735E+03 -0.30232995189E+03  0.37978127084E+03  0.12500000000E+03 0.  0.
         25    1    1    2    0    0 -0.27456492526E+02  0.18680277560E+03 -0.22546502006E+03  0.31954438068E+03  0.12500000000E+03 0.  0.
         25    1    1    2    0    0  0.65928828917E+02  0.22085817492E+01 -0.20680093808E+03  0.25048576068E+03  0.12500000000E+03 0.  0.
</event>
<event>
 5    0  0.5489207E-005  0.3163430E+03  0.7546771E-02  0.1077345E+00
         21   -1    0    0  502  501  0.00000000000E+00  0.00000000000E+00  0.23289883222E+03  0.23289883222E+03  0.00000000000E+00 0. -1.
         21   -1    0    0  501  502 -0.00000000000E+00 -0.00000000000E+00 -0.42968384012E+03  0.42968384012E+03  0.00000000000E+00 0. -1.
         25    1    1    2    0    0  0.68986911983E+02 -0.73632753424E+02 -0.12637791673E+03  0.20439509348E+03  0.12500000000E+03 0.  0.
         25    1    1    2    0    0 -0.17184329640E+03  0.10474911192E+03  0.64101583751E+02  0.24543126941E+03  0.12500000000E+03 0.  0.
         25    1    1    2    0    0  0.10285638442E+03 -0.31116358494E+02 -0.13450867492E+03  0.21275630945E+03  0.12500000000E+03 0.  0.
</event>
<event>
 5    0  0.5489207E-005  0.3349043E+03  0.7546771E-02  0.1068987E+00
         21   -1    0    0  502  501  0.00000000000E+00  0.00000000000E+00  0.27165671796E+03  0.27165671796E+03  0.00000000000E+00 0.  1.
         21   -1    0    0  501  502 -0.00000000000E+00 -0.00000000000E+00 -0.41287719535E+03  0.41287719535E+03  0.00000000000E+00 0.  1.
         25    1    1    2    0    0  0.19243396541E+03 -0.11382926716E+03  0.30774690863E+01  0.25616870207E+03  0.12500000000E+03 0.  0.
         25    1    1    2    0    0 -0.12164829591E+02  0.12423612547E+03 -0.24929565612E+02  0.17840706598E+03  0.12500000000E+03 0.  0.
         25    1    1    2    0    0 -0.18026913582E+03 -0.10406858310E+02 -0.11936838087E+03  0.24995814526E+03  0.12500000000E+03 0.  0.
</event>
<event>
 5    0  0.5489207E-005  0.2395774E+03  0.7546771E-02  0.1120075E+00
         21   -1    0    0  502  501  0.00000000000E+00  0.00000000000E+00  0.54665739061E+02  0.54665739061E+02  0.00000000000E+00 0.  1.
         21   -1    0    0  501  502 -0.00000000000E+00 -0.00000000000E+00 -0.10499694021E+04  0.10499694021E+04  0.00000000000E+00 0.  1.
         25    1    1    2    0    0 -0.23734105757E+02  0.71447002302E+02 -0.35198022335E+03  0.38102894844E+03  0.12500000000E+03 0.  0.
         25    1    1    2    0    0  0.13129267445E+02  0.66252891052E+02 -0.23165997958E+03  0.27175939612E+03  0.12500000000E+03 0.  0.
         25    1    1    2    0    0  0.10604838312E+02 -0.13769989335E+03 -0.41166346011E+03  0.45184679662E+03  0.12500000000E+03 0.  0.
</event>
<event>
 5    0  0.5489207E-005  0.2587659E+03  0.7546771E-02  0.1107887E+00
         21   -1    0    0  502  501  0.00000000000E+00  0.00000000000E+00  0.37282200829E+04  0.37282200829E+04  0.00000000000E+00 0. -1.
         21   -1    0    0  501  502 -0.00000000000E+00 -0.00000000000E+00 -0.17960257544E+02  0.17960257544E+02  0.00000000000E+00 0. -1.
         25    1    1    2    0    0 -0.26503322357E+02 -0.32712732546E+02  0.10893762034E+04  0.10973322475E+04  0.12500000000E+03 0.  0.
         25    1    1    2    0    0 -0.10733418637E+03 -0.13114199309E+02  0.72560437106E+03  0.74419037423E+03  0.12500000000E+03 0.  0.
         25    1    1    2    0    0  0.13383750873E+03  0.45826931855E+02  0.18952792509E+04  0.19046577187E+04  0.12500000000E+03 0.  0.
</event>
<event>
 5    0  0.5489207E-005  0.6043172E+03  0.7546771E-02  0.9896490E-01
         21   -1    0    0  502  501  0.00000000000E+00  0.00000000000E+00  0.14309743380E+04  0.14309743380E+04  0.00000000000E+00 0. -1.
         21   -1    0    0  501  502 -0.00000000000E+00 -0.00000000000E+00 -0.25521021340E+03  0.25521021340E+03  0.00000000000E+00 0. -1.
         25    1    1    2    0    0 -0.17553556215E+01  0.16824307517E+03 -0.50884261040E+01  0.20966569986E+03  0.12500000000E+03 0.  0.
         25    1    1    2    0    0 -0.38766044182E+03 -0.23727068137E+03  0.64526868223E+03  0.79910867012E+03  0.12500000000E+03 0.  0.
         25    1    1    2    0    0  0.38941579744E+03  0.69027606200E+02  0.53558386846E+03  0.67741018140E+03  0.12500000000E+03 0.  0.
</event>
<event>
 5    0  0.5489207E-005  0.4112942E+03  0.7546771E-02  0.1039938E+00
         21   -1    0    0  502  501  0.00000000000E+00  0.00000000000E+00  0.15828508080E+03  0.15828508080E+03  0.00000000000E+00 0. -1.
         21   -1    0    0  501  502 -0.00000000000E+00 -0.00000000000E+00 -0.10687232857E+04  0.10687232857E+04  0.00000000000E+00 0. -1.
         25    1    1    2    0    0 -0.19063181423E+03 -0.15992286379E+03 -0.22574207354E+03  0.35846937767E+03  0.12500000000E+03 0.  0.
         25    1    1    2    0    0  0.11545198431E+03  0.23741714584E+03 -0.63020767488E+03  0.69460980075E+03  0.12500000000E+03 0.  0.
         25    1    1    2    0    0  0.75179829917E+02 -0.77494282047E+02 -0.54488456476E+02  0.17392918808E+03  0.12500000000E+03 0.  0.
</event>
<event>
 5    0  0.5489207E-005  0.3678234E+03  0.7546771E-02  0.1055528E+00
         21   -1    0    0  502  501  0.00000000000E+00  0.00000000000E+00  0.28884694758E+03  0.28884694758E+03  0.00000000000E+00 0. -1.
         21   -1    0    0  501  502 -0.00000000000E+00 -0.00000000000E+00 -0.46839363927E+03  0.46839363927E+03  0.00000000000E+00 0. -1.
         25    1    1    2    0    0 -0.64250165686E+02  0.30677204697E+02 -0.30085412404E+03  0.33347770335E+03  0.12500000000E+03 0.  0.
         25    1    1    2    0    0  0.12376665821E+03  0.55787309381E+02  0.17258747034E+03  0.25266943719E+03  0.12500000000E+03 0.  0.
         25    1    1    2    0    0 -0.59516492522E+02 -0.86464514079E+02 -0.51280037989E+02  0.17109344632E+03  0.12500000000E+03 0.  0.
</event>
<event>
 5    0  0.5489207E-005  0.2439506E+03  0.7546771E-02  0.1117189E+00
         21   -1    0    0  502  501  0.00000000000E+00  0.00000000000E+00  0.62311955267E+03  0.62311955267E+03  0.00000000000E+00 0.  1.
         21   -1    0    0  501  502 -0.00000000000E+00 -0.00000000000E+00 -0.95506366684E+02  0.95506366684E+02  0.00000000000E+00 0.  1.
         25    1    1    2    0    0  0.24631209783E+01  0.80950391084E+02  0.78733300275E+02  0.16847244687E+03  0.12500000000E+03 0.  0.
         25    1    1    2    0    0  0.64879897774E+02  0.18391086823E+02  0.16657521044E+03  0.21890622180E+03  0.12500000000E+03 0.  0.
         25    1    1    2    0    0 -0.67343018753E+02 -0.99341477907E+02  0.28230467528E+03  0.33124725069E+03  0.12500000000E+03 0.  0.
</event>
<event>
 5    0  0.5489207E-005  0.3906660E+03  0.7546771E-02  0.1047061E+00
         21   -1    0    0  502  501  0.00000000000E+00  0.00000000000E+00  0.86825861832E+02  0.86825861832E+02  0.00000000000E+00 0.  1.
         21   -1    0    0  501  502 -0.00000000000E+00 -0.00000000000E+00 -0.17577701695E+04  0.17577701695E+04  0.00000000000E+00 0.  1.
         25    1    1    2    0    0 -0.16785532624E+03 -0.28973224949E+02 -0.29487297475E+03  0.36275326263E+03  0.12500000000E+03 0.  0.
         25    1    1    2    0    0  0.20353451174E+03  0.27009749552E+02 -0.24465770619E+03  0.34298428133E+03  0.12500000000E+03 0.  0.
         25    1    1    2    0    0 -0.35679185501E+02  0.19634753971E+01 -0.11314136267E+04  0.11388584874E+04  0.12500000000E+03 0.  0.
</event>
<event>
 5    0  0.5489207E-005  0.3060712E+03  0.7546771E-02  0.1082244E+00
         21   -1    0    0  502  501  0.00000000000E+00  0.00000000000E+00  0.34675166268E+02  0.34675166268E+02  0.00000000000E+00 0. -1.
         21   -1    0    0  501  502 -0.00000000000E+00 -0.00000000000E+00 -0.27016337808E+04  0.27016337808E+04  0.00000000000E+00 0.  1.
         25    1    1    2    0    0  0.17799648662E+03  0.10386489384E+03 -0.87849173772E+03  0.91095740771E+03  0.12500000000E+03 0.  0.
         25    1    1    2    0    0 -0.15409055817E+03 -0.62958964460E+01 -0.81930372278E+03  0.84301075236E+03  0.12500000000E+03 0.  0.
         25    1    1    2    0    0 -0.23905928448E+02 -0.97568997391E+02 -0.96916315404E+03  0.98234078700E+03  0.12500000000E+03 0.  0.
</event>
<event>
 5    0  0.5489207E-005  0.3142171E+03  0.7546771E-02  0.1078342E+00
         21   -1    0    0  502  501  0.00000000000E+00  0.00000000000E+00  0.44777144687E+03  0.44777144687E+03  0.00000000000E+00 0. -1.
         21   -1    0    0  501  502 -0.00000000000E+00 -0.00000000000E+00 -0.22049727070E+03  0.22049727070E+03  0.00000000000E+00 0. -1.
         25    1    1    2    0    0  0.60035439136E+02 -0.19706076513E+03  0.83455116743E+02  0.25500383452E+03  0.12500000000E+03 0.  0.
         25    1    1    2    0    0 -0.68171502576E+02  0.48775927045E+02  0.15853278706E+03  0.21859572136E+03  0.12500000000E+03 0.  0.
         25    1    1    2    0    0  0.81360634398E+01  0.14828483809E+03 -0.14713727628E+02  0.19466916170E+03  0.12500000000E+03 0.  0.
</event>
<event>
 5    0  0.5489207E-005  0.4989503E+03  0.7546771E-02  0.1014053E+00
         21   -1    0    0  502  501  0.00000000000E+00  0.00000000000E+00  0.16314966697E+03  0.16314966697E+03  0.00000000000E+00 0. -1.
         21   -1    0    0  501  502 -0.00000000000E+00 -0.00000000000E+00 -0.15259083013E+04  0.15259083013E+04  0.00000000000E+00 0. -1.
         25    1    1    2    0    0 -0.30439591476E+03  0.47101442499E+02 -0.29088955824E+03  0.44172067407E+03  0.12500000000E+03 0.  0.
         25    1    1    2    0    0  0.20654618929E+03 -0.72105273036E+02 -0.10562416303E+04  0.10858783911E+04  0.12500000000E+03 0.  0.
         25    1    1    2    0    0  0.97849725465E+02  0.25003830537E+02 -0.15627445761E+02  0.16145890306E+03  0.12500000000E+03 0.  0.
</event>
<event>
 5    0  0.5489207E-005  0.3174480E+03  0.7546771E-02  0.1076830E+00
         21   -1    0    0  502  501  0.00000000000E+00  0.00000000000E+00  0.17242263171E+03  0.17242263171E+03  0.00000000000E+00 0.  1.
         21   -1    0    0  501  502 -0.00000000000E+00 -0.00000000000E+00 -0.58445478237E+03  0.58445478237E+03  0.00000000000E+00 0.  1.
         25    1    1    2    0    0 -0.13413932023E+03 -0.59488649792E+02 -0.64442945447E+02  0.20324898500E+03  0.12500000000E+03 0.  0.
         25    1    1    2    0    0  0.19769312528E+03  0.87058618000E+02 -0.32368759581E+03  0.40873027100E+03  0.12500000000E+03 0.  0.
         25    1    1    2    0    0 -0.63553805042E+02 -0.27569968208E+02 -0.23901609402E+02  0.14489815808E+03  0.12500000000E+03 0.  0.
</event>
<event>
 5    0  0.5489207E-005  0.2450898E+03  0.7546771E-02  0.1116448E+00
         21   -1    0    0  502  501  0.00000000000E+00  0.00000000000E+00  0.42558229236E+03  0.42558229236E+03  0.00000000000E+00 0. -1.
         21   -1    0    0  501  502 -0.00000000000E+00 -0.00000000000E+00 -0.14114543557E+03  0.14114543557E+03  0.00000000000E+00 0. -1.
         25    1    1    2    0    0 -0.18480806928E+02  0.73621707192E+02  0.54491780377E+02  0.15606424998E+03  0.12500000000E+03 0.  0.
         25    1    1    2    0    0  0.96102092056E+02 -0.10511146996E+03  0.13644068893E+03  0.23350609159E+03  0.12500000000E+03 0.  0.
         25    1    1    2    0    0 -0.77621285128E+02  0.31489762767E+02  0.93504387477E+02  0.17715738636E+03  0.12500000000E+03 0.  0.
</event>
<event>
 5    0  0.5489207E-005  0.3767144E+03  0.7546771E-02  0.1052155E+00
         21   -1    0    0  502  501  0.00000000000E+00  0.00000000000E+00  0.34359076640E+03  0.34359076640E+03  0.00000000000E+00 0.  1.
         21   -1    0    0  501  502 -0.00000000000E+00 -0.00000000000E+00 -0.41303129811E+03  0.41303129811E+03  0.00000000000E+00 0.  1.
         25    1    1    2    0    0  0.20481350079E+02  0.13757256602E+03 -0.15065026571E+03  0.24013787536E+03  0.12500000000E+03 0.  0.
         25    1    1    2    0    0 -0.18199747144E+03 -0.62989134867E+02 -0.82865511110E+02  0.24409507093E+03  0.12500000000E+03 0.  0.
         25    1    1    2    0    0  0.16151612136E+03 -0.74583431151E+02  0.16407524511E+03  0.27238911821E+03  0.12500000000E+03 0.  0.
</event>
<event>
 5    0  0.5489207E-005  0.4403800E+03  0.7546771E-02  0.1030630E+00
         21   -1    0    0  502  501  0.00000000000E+00  0.00000000000E+00  0.15365669908E+04  0.15365669908E+04  0.00000000000E+00 0. -1.
         21   -1    0    0  501  502 -0.00000000000E+00 -0.00000000000E+00 -0.12621290463E+03  0.12621290463E+03  0.00000000000E+00 0. -1.
         25    1    1    2    0    0  0.79488674508E+02  0.17519790611E+03  0.12326208194E+04  0.12537909874E+04  0.12500000000E+03 0.  0.
         25    1    1    2    0    0  0.51978725872E+01 -0.37109908785E+01  0.10028081488E+02  0.12556413402E+03  0.12500000000E+03 0.  0.
         25    1    1    2    0    0 -0.84686547096E+02 -0.17148691524E+03  0.16770518532E+03  0.28342477404E+03  0.12500000000E+03 0.  0.
</event>
<event>
 5    0  0.5489207E-005  0.2812792E+03  0.7546771E-02  0.1094992E+00
         21   -1    0    0  502  501  0.00000000000E+00  0.00000000000E+00  0.23493756162E+03  0.23493756162E+03  0.00000000000E+00 0. -1.
         21   -1    0    0  501  502 -0.00000000000E+00 -0.00000000000E+00 -0.33676166512E+03  0.33676166512E+03  0.00000000000E+00 0. -1.
         25    1    1    2    0    0 -0.21374346393E+02  0.13928990709E+03 -0.14852279650E+03  0.23988030761E+03  0.12500000000E+03 0.  0.
         25    1    1    2    0    0  0.70375373573E+02 -0.20426387650E+02  0.47552517727E+02  0.15249974577E+03  0.12500000000E+03 0.  0.
         25    1    1    2    0    0 -0.49001027180E+02 -0.11886351944E+03 -0.85382472210E+00  0.17931917336E+03  0.12500000000E+03 0.  0.
</event>
<event>
 5    0  0.5489207E-005  0.4063282E+03  0.7546771E-02  0.1041610E+00
         21   -1    0    0  502  501  0.00000000000E+00  0.00000000000E+00  0.63356181722E+03  0.63356181722E+03  0.00000000000E+00 0.  1.
         21   -1    0    0  501  502 -0.00000000000E+00 -0.00000000000E+00 -0.26059427445E+03  0.26059427445E+03  0.00000000000E+00 0.  1.
         25    1    1    2    0    0  0.16906843795E+03 -0.19490327581E+03  0.72249209223E+02  0.29566259802E+03  0.12500000000E+03 0.  0.
         25    1    1    2    0    0 -0.20287608260E+03  0.16853744342E+01  0.27815693172E+02  0.23991719022E+03  0.12500000000E+03 0.  0.
         25    1    1    2    0    0  0.33807644645E+02  0.19321790138E+03  0.27290264037E+03  0.35857630342E+03  0.12500000000E+03 0.  0.
</event>
<event>
 5    0  0.5489207E-005  0.3597110E+03  0.7546771E-02  0.1058698E+00
         21   -1    0    0  502  501  0.00000000000E+00  0.00000000000E+00  0.38084088241E+03  0.38084088241E+03  0.00000000000E+00 0.  1.
         21   -1    0    0  501  502 -0.00000000000E+00 -0.00000000000E+00 -0.33975347658E+03  0.33975347658E+03  0.00000000000E+00 0.  1.
         25    1    1    2    0    0  0.29756828325E+02  0.73424628445E+02 -0.99988121530E+02  0.17860366553E+03  0.12500000000E+03 0.  0.
         25    1    1    2    0    0  0.45485300501E+02 -0.17875118431E+03 -0.97458522572E+02  0.24319552232E+03  0.12500000000E+03 0.  0.
         25    1    1    2    0    0 -0.75242128826E+02  0.10532655586E+03  0.23853404993E+03  0.29879517114E+03  0.12500000000E+03 0.  0.
</event>
<event>
 5    0  0.5489207E-005  0.4380019E+03  0.7546771E-02  0.1031362E+00
         21   -1    0    0  502  501  0.00000000000E+00  0.00000000000E+00  0.18289259015E+03  0.18289259015E+03  0.00000000000E+00 0.  1.
         21   -1    0    0  501  502 -0.00000000000E+00 -0.00000000000E+00 -0.10489525353E+04  0.10489525353E+04  0.00000000000E+00 0.  1.
         25    1    1    2    0    0 -0.22219454468E+03  0.15847686253E+03 -0.64703327972E+03  0.71327582092E+03  0.12500000000E+03 0.  0.
         25    1    1    2    0    0  0.10038423792E+03 -0.23027012666E+03 -0.11664478417E+03  0.30386235721E+03  0.12500000000E+03 0.  0.
         25    1    1    2    0    0  0.12181030676E+03  0.71793264125E+02 -0.10238188123E+03  0.21470694728E+03  0.12500000000E+03 0.  0.
</event>
<event>
 5    0  0.5489207E-005  0.4194714E+03  0.7546771E-02  0.1037238E+00
         21   -1    0    0  502  501  0.00000000000E+00  0.00000000000E+00  0.22204941359E+03  0.22204941359E+03  0.00000000000E+00 0. -1.
         21   -1    0    0  501  502 -0.00000000000E+00 -0.00000000000E+00 -0.79241947783E+03  0.79241947783E+03  0.00000000000E+00 0. -1.
         25    1    1    2    0    0  0.81642890512E+00  0.18588717334E+02 -0.69524569467E+03  0.70663836786E+03  0.12500000000E+03 0.  0.
         25    1    1    2    0    0  0.30781795305E+02 -0.62946662419E+02  0.47006828795E+02  0.15081260950E+03  0.12500000000E+03 0.  0.
         25    1    1    2    0    0 -0.31598224210E+02  0.44357945085E+02  0.77868801640E+02  0.15701791406E+03  0.12500000000E+03 0.  0.
</event>
<event>
 5    0  0.5489207E-005  0.3984670E+03  0.7546771E-02  0.1044312E+00
         21   -1    0    0  502  501  0.00000000000E+00  0.00000000000E+00  0.65444138023E+03  0.65444138023E+03  0.00000000000E+00 0. -1.
         21   -1    0    0  501  502 -0.00000000000E+00 -0.00000000000E+00 -0.24261288987E+03  0.24261288987E+03  0.00000000000E+00 0. -1.
         25    1    1    2    0    0  0.16471567498E+03  0.79023173859E+01  0.20577380269E+03  0.29182453302E+03  0.12500000000E+03 0.  0.
         25    1    1    2    0    0 -0.25800035605E+03 -0.56616675320E+02  0.29830242889E+03  0.41758708161E+03  0.12500000000E+03 0.  0.
         25    1    1    2    0    0  0.93284681074E+02  0.48714357934E+02 -0.92247741216E+02  0.18764265547E+03  0.12500000000E+03 0.  0.
</event>
<event>
 5    0  0.5489207E-005  0.5196176E+03  0.7546771E-02  0.1008782E+00
         21   -1    0    0  502  501  0.00000000000E+00  0.00000000000E+00  0.41003866331E+03  0.41003866331E+03  0.00000000000E+00 0.  1.
         21   -1    0    0  501  502 -0.00000000000E+00 -0.00000000000E+00 -0.65848042491E+03  0.65848042491E+03  0.00000000000E+00 0.  1.
         25    1    1    2    0    0 -0.15793418168E+03  0.34796252695E+03 -0.30487595564E+01  0.40206395118E+03  0.12500000000E+03 0.  0.
         25    1    1    2    0    0  0.15731676077E+03  0.17894707883E+02 -0.18771274510E+03  0.27555373063E+03  0.12500000000E+03 0.  0.
         25    1    1    2    0    0  0.61742090730E+00 -0.36585723483E+03 -0.57680256943E+02  0.39090140640E+03  0.12500000000E+03 0.  0.
</event>
<event>
 5    0  0.5489207E-005  0.3841931E+03  0.7546771E-02  0.1049395E+00
         21   -1    0    0  502  501  0.00000000000E+00  0.00000000000E+00  0.70317068966E+03  0.70317068966E+03  0.00000000000E+00 0.  1.
         21   -1    0    0  501  502 -0.00000000000E+00 -0.00000000000E+00 -0.20991249898E+03  0.20991249898E+03  0.00000000000E+00 0.  1.
         25    1    1    2    0    0  0.14468755761E+03 -0.30357574063E+01  0.51270401850E+02  0.19798322974E+03  0.12500000000E+03 0.  0.
         25    1    1    2    0    0 -0.23621390290E+03  0.62681325664E+02  0.47236464768E+03  0.54633260646E+03  0.12500000000E+03 0.  0.
         25    1    1    2    0    0  0.91526345288E+02 -0.59645568257E+02 -0.30376858844E+02  0.16876735243E+03  0.12500000000E+03 0.  0.
</event>
<event>
 5    0  0.5489207E-005  0.2938948E+03  0.7546771E-02  0.1088333E+00
         21   -1    0    0  502  501  0.00000000000E+00  0.00000000000E+00  0.53780933074E+02  0.53780933074E+02  0.00000000000E+00 0.  1.
         21   -1    0    0  501  502 -0.00000000000E+00 -0.00000000000E+00 -0.16060368079E+04  0.16060368079E+04  0.00000000000E+00 0.  1.
         25    1    1    2    0    0  0.37047207066E+02 -0.70918454788E+02 -0.10821878871E+04  0.10923175114E+04  0.12500000000E+03 0.  0.
         25    1    1    2    0    0 -0.42818308643E+02 -0.13413523562E+02 -0.95213187720E+02  0.16341322249E+03  0.12500000000E+03 0.  0.
         25    1    1    2    0    0  0.57711015772E+01  0.84331978350E+02 -0.37485480003E+03  0.40408700708E+03  0.12500000000E+03 0.  0.
</event>
<event>
 5    0  0.5489207E-005  0.3777945E+03  0.7546771E-02  0.1051752E+00
         21   -1    0    0  502  501  0.00000000000E+00  0.00000000000E+00  0.18750206893E+03  0.18750206893E+03  0.00000000000E+00 0.  1.
         21   -1    0    0  501  502 -0.00000000000E+00 -0.00000000000E+00 -0.76121109011E+03  0.76121109011E+03  0.00000000000E+00 0.  1.
         25    1    1    2    0    0 -0.20371531949E+03  0.15657924872E+03 -0.27485973699E+03  0.39647177396E+03  0.12500000000E+03 0.  0.
         25    1    1    2    0    0  0.79348464190E+02 -0.92234844176E+02 -0.31887949419E+03  0.36347293856E+03  0.12500000000E+03 0.  0.
         25    1    1    2    0    0  0.12436685530E+03 -0.64344404547E+02  0.20030210000E+02  0.18876844653E+03  0.12500000000E+03 0.  0.
</event>
<event>
 5    0  0.5489207E-005  0.2801362E+03  0.7546771E-02  0.1095615E+00
         21   -1    0    0  502  501  0.00000000000E+00  0.00000000000E+00  0.53753530194E+03  0.53753530194E+03  0.00000000000E+00 0. -1.
         21   -1    0    0  501  502 -0.00000000000E+00 -0.00000000000E+00 -0.14599283519E+03  0.14599283519E+03  0.00000000000E+00 0. -1.
         25    1    1    2    0    0  0.10141656485E+03  0.81510988349E+02  0.22013594821E+03  0.28462992911E+03  0.12500000000E+03 0.  0.
         25    1    1    2    0    0  0.49201647374E+02 -0.69249258163E+02  0.22809472474E+02  0.15284480330E+03  0.12500000000E+03 0.  0.
         25    1    1    2    0    0 -0.15061821223E+03 -0.12261730186E+02  0.14859704606E+03  0.24605340473E+03  0.12500000000E+03 0.  0.
</event>
<event>
 5    0  0.5489207E-005  0.3071133E+03  0.7546771E-02  0.1081738E+00
         21   -1    0    0  502  501  0.00000000000E+00  0.00000000000E+00  0.16064159917E+04  0.16064159917E+04  0.00000000000E+00 0. -1.
         21   -1    0    0  501  502 -0.00000000000E+00 -0.00000000000E+00 -0.58713684088E+02  0.58713684088E+02  0.00000000000E+00 0. -1.
         25    1    1    2    0    0  0.89991945829E+01  0.12901413291E+03  0.67484561322E+03  0.69840334598E+03  0.12500000000E+03 0.  0.
         25    1    1    2    0    0  0.12966083347E+03 -0.19217258164E+01  0.49215744991E+03  0.52407974610E+03  0.12500000000E+03 0.  0.
         25    1    1    2    0    0 -0.13866002806E+03 -0.12709240709E+03  0.38069924447E+03  0.44264658370E+03  0.12500000000E+03 0.  0.
</event>
<event>
 5    0  0.5489207E-005  0.2596298E+03  0.7546771E-02  0.1107366E+00
         21   -1    0    0  502  501  0.00000000000E+00  0.00000000000E+00  0.94366461709E+03  0.94366461709E+03  0.00000000000E+00 0.  1.
         21   -1    0    0  501  502 -0.00000000000E+00 -0.00000000000E+00 -0.71431789507E+02  0.71431789507E+02  0.00000000000E+00 0.  1.
         25    1    1    2    0    0 -0.41969124074E+02 -0.11722259285E+03  0.35008066105E+03  0.39202552582E+03  0.12500000000E+03 0.  0.
         25    1    1    2    0    0  0.97791855689E+02  0.22417286935E+02  0.34229081849E+03  0.37796003256E+03  0.12500000000E+03 0.  0.
         25    1    1    2    0    0 -0.55822731615E+02  0.94805305913E+02  0.17986134805E+03  0.24511084822E+03  0.12500000000E+03 0.  0.
</event>
<event>
 5    0  0.5489207E-005  0.2669762E+03  0.7546771E-02  0.1103023E+00
         21   -1    0    0  502  501  0.00000000000E+00  0.00000000000E+00  0.62312655299E+02  0.62312655299E+02  0.00000000000E+00 0.  1.
         21   -1    0    0  501  502 -0.00000000000E+00 -0.00000000000E+00 -0.11438489933E+04  0.11438489933E+04  0.00000000000E+00 0.  1.
         25    1    1    2    0    0 -0.11159679401E+03 -0.18228934123E+02 -0.24972102453E+03  0.30128346879E+03  0.12500000000E+03 0.  0.
         25    1    1    2    0    0  0.81021813766E+02 -0.83765042766E+02 -0.26984263168E+03  0.31940751802E+03  0.12500000000E+03 0.  0.
         25    1    1    2    0    0  0.30574980241E+02  0.10199397689E+03 -0.56197268177E+03  0.58547066177E+03  0.12500000000E+03 0.  0.
</event>
<event>
 5    0  0.5489207E-005  0.2528687E+03  0.7546771E-02  0.1111505E+00
         21   -1    0    0  502  501  0.00000000000E+00  0.00000000000E+00  0.63573301936E+03  0.63573301936E+03  0.00000000000E+00 0. -1.
         21   -1    0    0  501  502 -0.00000000000E+00 -0.00000000000E+00 -0.10058086467E+03  0.10058086467E+03  0.00000000000E+00 0. -1.
         25    1    1    2    0    0 -0.13976708225E+03 -0.34687891851E+02  0.22855921349E+03  0.29766155478E+03  0.12500000000E+03 0.  0.
         25    1    1    2    0    0  0.30808576255E+02  0.65049212579E+02  0.15793643531E+03  0.21389129488E+03  0.12500000000E+03 0.  0.
         25    1    1    2    0    0  0.10895850600E+03 -0.30361320728E+02  0.14865650588E+03  0.22476103436E+03  0.12500000000E+03 0.  0.
</event>
<event>
 5    0  0.5489207E-005  0.2669903E+03  0.7546771E-02  0.1103015E+00
         21   -1    0    0  502  501  0.00000000000E+00  0.00000000000E+00  0.25790676512E+03  0.25790676512E+03  0.00000000000E+00 0. -1.
         21   -1    0    0  501  502 -0.00000000000E+00 -0.00000000000E+00 -0.27639370648E+03  0.27639370648E+03  0.00000000000E+00 0. -1.
         25    1    1    2    0    0  0.30157465589E+02  0.19744363581E+02 -0.82507841113E+02  0.15405147344E+03  0.12500000000E+03 0.  0.
         25    1    1    2    0    0 -0.65314203698E+02  0.11162384719E+03  0.75752229834E+02  0.19516461972E+03  0.12500000000E+03 0.  0.
         25    1    1    2    0    0  0.35156738109E+02 -0.13136821077E+03 -0.11731330077E+02  0.18508437844E+03  0.12500000000E+03 0.  0.
</event>
<event>
 5    0  0.5489207E-005  0.2237399E+03  0.7546771E-02  0.1131125E+00
         21   -1    0    0  502  501  0.00000000000E+00  0.00000000000E+00  0.99483373631E+02  0.99483373631E+02  0.00000000000E+00 0. -1.
         21   -1    0    0  501  502 -0.00000000000E+00 -0.00000000000E+00 -0.50319519536E+03  0.50319519536E+03  0.00000000000E+00 0. -1.
         25    1    1    2    0    0 -0.22741767498E+02 -0.46794708807E+02 -0.11798227154E+03  0.17958771995E+03  0.12500000000E+03 0.  0.
         25    1    1    2    0    0 -0.22748383298E+02  0.34861129376E+02 -0.30807878147E+02  0.13530304002E+03  0.12500000000E+03 0.  0.
         25    1    1    2    0    0  0.45490150796E+02  0.11933579431E+02 -0.25492167204E+03  0.28778780901E+03  0.12500000000E+03 0.  0.
</event>
<event>
 5    0  0.5489207E-005  0.3027804E+03  0.7546771E-02  0.1083859E+00
         21   -1    0    0  502  501  0.00000000000E+00  0.00000000000E+00  0.44152850341E+03  0.44152850341E+03  0.00000000000E+00 0.  1.
         21   -1    0    0  501  502 -0.00000000000E+00 -0.00000000000E+00 -0.20763318883E+03  0.20763318883E+03  0.00000000000E+00 0.  1.
         25    1    1    2    0    0  0.18795486919E+02  0.15822401492E+03  0.18064168804E+03  0.27137525437E+03  0.12500000000E+03 0.  0.
         25    1    1    2    0    0 -0.32390300508E+02 -0.13786520801E+02 -0.72460230709E+02  0.14871006945E+03  0.12500000000E+03 0.  0.
         25    1    1    2    0    0  0.13594813589E+02 -0.14443749412E+03  0.12571385724E+03  0.22907636842E+03  0.12500000000E+03 0.  0.
</event>
<event>
 5    0  0.5489207E-005  0.5109319E+03  0.7546771E-02  0.1010964E+00
         21   -1    0    0  502  501  0.00000000000E+00  0.00000000000E+00  0.53688420961E+03  0.53688420961E+03  0.00000000000E+00 0.  1.
         21   -1    0    0  501  502 -0.00000000000E+00 -0.00000000000E+00 -0.48623410786E+03  0.48623410786E+03  0.00000000000E+00 0.  1.
         25    1    1    2    0    0  0.42899533729E+02  0.14911466580E+03  0.21821922982E+03  0.29549989139E+03  0.12500000000E+03 0.  0.
         25    1    1    2    0    0  0.83658284787E+02 -0.36641804930E+03 -0.20211682876E+03  0.44467640812E+03  0.12500000000E+03 0.  0.
         25    1    1    2    0    0 -0.12655781852E+03  0.21730338350E+03  0.34547700694E+02  0.28294201797E+03  0.12500000000E+03 0.  0.
</event>
<event>
 5    0  0.5489207E-005  0.3308925E+03  0.7546771E-02  0.1070743E+00
         21   -1    0    0  502  501  0.00000000000E+00  0.00000000000E+00  0.10357297614E+04  0.10357297614E+04  0.00000000000E+00 0.  1.
         21   -1    0    0  501  502 -0.00000000000E+00 -0.00000000000E+00 -0.10571276732E+03  0.10571276732E+03  0.00000000000E+00 0. -1.
         25    1    1    2    0    0 -0.24186777376E+01  0.36672601864E+01  0.36856551319E+03  0.38921052955E+03  0.12500000000E+03 0.  0.
         25    1    1    2    0    0  0.15321246373E+03 -0.14595166836E+03  0.36712899913E+03  0.44179706942E+03  0.12500000000E+03 0.  0.
         25    1    1    2    0    0 -0.15079378600E+03  0.14228440817E+03  0.19432248181E+03  0.31043492980E+03  0.12500000000E+03 0.  0.
</event>
<event>
 5    0  0.5489207E-005  0.4018542E+03  0.7546771E-02  0.1043140E+00
         21   -1    0    0  502  501  0.00000000000E+00  0.00000000000E+00  0.12898897135E+03  0.12898897135E+03  0.00000000000E+00 0.  1.
         21   -1    0    0  501  502 -0.00000000000E+00 -0.00000000000E+00 -0.12519426385E+04  0.12519426385E+04  0.00000000000E+00 0.  1.
         25    1    1    2    0    0 -0.97211620876E+02  0.15931592597E+03 -0.27057489472E+03  0.35166381269E+03  0.12500000000E+03 0.  0.
         25    1    1    2    0    0 -0.15403330563E+03  0.37016920752E+02 -0.16263276935E+03  0.25917355060E+03  0.12500000000E+03 0.  0.
         25    1    1    2    0    0  0.25124492651E+03 -0.19633284673E+03 -0.68974600303E+03  0.77009424651E+03  0.12500000000E+03 0.  0.
</event>
<event>
 5    0  0.5489207E-005  0.3049047E+03  0.7546771E-02  0.1082814E+00
         21   -1    0    0  502  501  0.00000000000E+00  0.00000000000E+00  0.38740350679E+03  0.38740350679E+03  0.00000000000E+00 0.  1.
         21   -1    0    0  501  502 -0.00000000000E+00 -0.00000000000E+00 -0.23997433824E+03  0.23997433824E+03  0.00000000000E+00 0.  1.
         25    1    1    2    0    0  0.17621906677E+03 -0.92259876417E+02  0.48844672985E+02  0.23994967466E+03  0.12500000000E+03 0.  0.
         25    1    1    2    0    0 -0.26057158183E+02 -0.32050595993E+02  0.82355780494E+02  0.15528583573E+03  0.12500000000E+03 0.  0.
         25    1    1    2    0    0 -0.15016190859E+03  0.12431047241E+03  0.16228715072E+02  0.23214233464E+03  0.12500000000E+03 0.  0.
</event>
<event>
 5    0  0.5489207E-005  0.3389007E+03  0.7546771E-02  0.1067265E+00
         21   -1    0    0  502  501  0.00000000000E+00  0.00000000000E+00  0.22044212544E+03  0.22044212544E+03  0.00000000000E+00 0. -1.
         21   -1    0    0  501  502 -0.00000000000E+00 -0.00000000000E+00 -0.52101516287E+03  0.52101516287E+03  0.00000000000E+00 0. -1.
         25    1    1    2    0    0  0.31837064464E+02 -0.98399661511E+02  0.11478668215E+03  0.19873870901E+03  0.12500000000E+03 0.  0.
         25    1    1    2    0    0  0.34288061412E+02  0.14210015561E+03 -0.29395007067E+03  0.35128303322E+03  0.12500000000E+03 0.  0.
         25    1    1    2    0    0 -0.66125125876E+02 -0.43700494095E+02 -0.12140964890E+03  0.19143554608E+03  0.12500000000E+03 0.  0.
</event>
<event>
 5    0  0.5489207E-005  0.2388756E+03  0.7546771E-02  0.1120544E+00
         21   -1    0    0  502  501  0.00000000000E+00  0.00000000000E+00  0.15345599723E+02  0.15345599723E+02  0.00000000000E+00 0. -1.
         21   -1    0    0  501  502 -0.00000000000E+00 -0.00000000000E+00 -0.37184295306E+04  0.37184295306E+04  0.00000000000E+00 0. -1.
         25    1    1    2    0    0  0.85876535748E+02  0.31677587964E+02 -0.10076957911E+04  0.10195361967E+04  0.12500000000E+03 0.  0.
         25    1    1    2    0    0 -0.16018685881E+02  0.67385729361E+02 -0.13789556810E+04  0.13863409411E+04  0.12500000000E+03 0.  0.
         25    1    1    2    0    0 -0.69857849868E+02 -0.99063317326E+02 -0.13164324587E+04  0.13278979924E+04  0.12500000000E+03 0.  0.
</event>
<event>
 5    0  0.5489207E-005  0.3323910E+03  0.7546771E-02  0.1070084E+00
         21   -1    0    0  502  501  0.00000000000E+00  0.00000000000E+00  0.33415467000E+03  0.33415467000E+03  0.00000000000E+00 0. -1.
         21   -1    0    0  501  502 -0.00000000000E+00 -0.00000000000E+00 -0.33063670405E+03  0.33063670405E+03  0.00000000000E+00 0. -1.
         25    1    1    2    0    0 -0.11609745437E+03 -0.15813867978E+03  0.11717171565E+02  0.23291361717E+03  0.12500000000E+03 0.  0.
         25    1    1    2    0    0  0.18728187670E+03  0.14316714104E+03  0.57624734294E+02  0.27297791416E+03  0.12500000000E+03 0.  0.
         25    1    1    2    0    0 -0.71184422325E+02  0.14971538731E+02 -0.65823939914E+02  0.15889984273E+03  0.12500000000E+03 0.  0.
</event>
<event>
 5    0  0.5489207E-005  0.2164574E+03  0.7546771E-02  0.1136552E+00
         21   -1    0    0  502  501  0.00000000000E+00  0.00000000000E+00  0.91548978161E+03  0.91548978161E+03  0.00000000000E+00 0.  1.
         21   -1    0    0  501  502 -0.00000000000E+00 -0.00000000000E+00 -0.51178932314E+02  0.51178932314E+02  0.00000000000E+00 0.  1.
         25    1    1    2    0    0 -0.50871686533E+02  0.59485367885E+02  0.28520905577E+03  0.32108510239E+03  0.12500000000E+03 0.  0.
         25    1    1    2    0    0 -0.23681328479E+02  0.14479224664E+01  0.27387887385E+03  0.30198930335E+03  0.12500000000E+03 0.  0.
         25    1    1    2    0    0  0.74553015013E+02 -0.60933290351E+02  0.30522291968E+03  0.34359430819E+03  0.12500000000E+03 0.  0.
</event>
<event>
 5    0  0.5489207E-005  0.4437707E+03  0.7546771E-02  0.1029596E+00
         21   -1    0    0  502  501  0.00000000000E+00  0.00000000000E+00  0.15520538664E+04  0.15520538664E+04  0.00000000000E+00 0.  1.
         21   -1    0    0  501  502 -0.00000000000E+00 -0.00000000000E+00 -0.12688505154E+03  0.12688505154E+03  0.00000000000E+00 0.  1.
         25    1    1    2    0    0 -0.32392624038E+03  0.24864441581E+02  0.91680694598E+03  0.98066631729E+03  0.12500000000E+03 0.  0.
         25    1    1    2    0    0  0.20075001995E+03  0.10429251911E+03  0.30997573577E+03  0.40359318232E+03  0.12500000000E+03 0.  0.
         25    1    1    2    0    0  0.12317622043E+03 -0.12915696069E+03  0.19838613310E+03  0.29467941832E+03  0.12500000000E+03 0.  0.
</event>
<event>
 5    0  0.5489207E-005  0.3137660E+03  0.7546771E-02  0.1078555E+00
         21   -1    0    0  502  501  0.00000000000E+00  0.00000000000E+00  0.12467466319E+04  0.12467466319E+04  0.00000000000E+00 0. -1.
         21   -1    0    0  501  502 -0.00000000000E+00 -0.00000000000E+00 -0.78964803382E+02  0.78964803382E+02  0.00000000000E+00 0. -1.
         25    1    1    2    0    0  0.48065388356E+02 -0.15005109881E+03  0.25823973477E+03  0.32731998782E+03  0.12500000000E+03 0.  0.
         25    1    1    2    0    0 -0.54046364350E+02 -0.53917174785E+02  0.52865896073E+03  0.54857394032E+03  0.12500000000E+03 0.  0.
         25    1    1    2    0    0  0.59809759938E+01  0.20396827360E+03  0.38088313298E+03  0.44981750711E+03  0.12500000000E+03 0.  0.
</event>
<event>
 5    0  0.5489207E-005  0.3647535E+03  0.7546771E-02  0.1056717E+00
         21   -1    0    0  502  501  0.00000000000E+00  0.00000000000E+00  0.74875046237E+03  0.74875046237E+03  0.00000000000E+00 0. -1.
         21   -1    0    0  501  502 -0.00000000000E+00 -0.00000000000E+00 -0.17768949808E+03  0.17768949808E+03  0.00000000000E+00 0. -1.
         25    1    1    2    0    0 -0.17827818829E+03 -0.10219987127E+03  0.43137892612E+02  0.24436408060E+03  0.12500000000E+03 0.  0.
         25    1    1    2    0    0  0.21219303262E+03  0.13350905981E+03  0.44275044802E+03  0.52393082689E+03  0.12500000000E+03 0.  0.
         25    1    1    2    0    0 -0.33914844327E+02 -0.31309188541E+02  0.85172623659E+02  0.15814505295E+03  0.12500000000E+03 0.  0.
</event>
<event>
 5    0  0.5489207E-005  0.4736106E+03  0.7546771E-02  0.1020906E+00
         21   -1    0    0  502  501  0.00000000000E+00  0.00000000000E+00  0.33888645263E+03  0.33888645263E+03  0.00000000000E+00 0. -1.
         21   -1    0    0  501  502 -0.00000000000E+00 -0.00000000000E+00 -0.66189437665E+03  0.66189437665E+03  0.00000000000E+00 0. -1.
         25    1    1    2    0    0 -0.26816468724E+02  0.21432479119E+03  0.15124508720E+03  0.29181212366E+03  0.12500000000E+03 0.  0.
         25    1    1    2    0    0 -0.11614039829E+03 -0.19916951866E+03 -0.44457545161E+03  0.51616801668E+03  0.12500000000E+03 0.  0.
         25    1    1    2    0    0  0.14295686701E+03 -0.15155272532E+02 -0.29677559614E+02  0.19280068894E+03  0.12500000000E+03 0.  0.
</event>
<event>
 5    0  0.5489207E-005  0.2478700E+03  0.7546771E-02  0.1114658E+00
         21   -1    0    0  502  501  0.00000000000E+00  0.00000000000E+00  0.11790928003E+03  0.11790928003E+03  0.00000000000E+00 0.  1.
         21   -1    0    0  501  502 -0.00000000000E+00 -0.00000000000E+00 -0.52107451800E+03  0.52107451800E+03  0.00000000000E+00 0.  1.
         25    1    1    2    0    0 -0.48306686387E+02  0.27664990702E+02 -0.10912538468E+03  0.17502067661E+03  0.12500000000E+03 0.  0.
         25    1    1    2    0    0 -0.27267059350E+02 -0.24060774078E+02 -0.28990212651E+03  0.31779027098E+03  0.12500000000E+03 0.  0.
         25    1    1    2    0    0  0.75573745737E+02 -0.36042166237E+01 -0.41377267771E+01  0.14617285044E+03  0.12500000000E+03 0.  0.
</event>
<event>
 5    0  0.5489207E-005  0.5248530E+03  0.7546771E-02  0.1007488E+00
         21   -1    0    0  502  501  0.00000000000E+00  0.00000000000E+00  0.30819593261E+03  0.30819593261E+03  0.00000000000E+00 0.  1.
         21   -1    0    0  501  502 -0.00000000000E+00 -0.00000000000E+00 -0.89381657308E+03  0.89381657308E+03  0.00000000000E+00 0.  1.
         25    1    1    2    0    0 -0.21684960299E+03 -0.15892835961E+03  0.73806969492E+02  0.30553959245E+03  0.12500000000E+03 0.  0.
         25    1    1    2    0    0 -0.13781249153E+03  0.13257470802E+03 -0.28349156198E+03  0.36408900250E+03  0.12500000000E+03 0.  0.
         25    1    1    2    0    0  0.35466209452E+03  0.26353651587E+02 -0.37593604799E+03  0.53238391074E+03  0.12500000000E+03 0.  0.
</event>
<event>
 5    0  0.5489207E-005  0.3305960E+03  0.7546771E-02  0.1070873E+00
         21   -1    0    0  502  501  0.00000000000E+00  0.00000000000E+00  0.32303775357E+03  0.32303775357E+03  0.00000000000E+00 0. -1.
         21   -1    0    0  501  502 -0.00000000000E+00 -0.00000000000E+00 -0.33833113084E+03  0.33833113084E+03  0.00000000000E+00 0. -1.
         25    1    1    2    0    0 -0.12704698389E+03  0.88534606171E+02 -0.59716619601E+02  0.20777484752E+03  0.12500000000E+03 0.  0.
         25    1    1    2    0    0  0.13550052780E+03 -0.11803945610E+01  0.17384980799E+03  0.25339799151E+03  0.12500000000E+03 0.  0.
         25    1    1    2    0    0 -0.84535439143E+01 -0.87354211610E+02 -0.12942656566E+03  0.20019604539E+03  0.12500000000E+03 0.  0.
</event>
<event>
 5    0  0.5489207E-005  0.3675652E+03  0.7546771E-02  0.1055628E+00
         21   -1    0    0  502  501  0.00000000000E+00  0.00000000000E+00  0.39542547982E+03  0.39542547982E+03  0.00000000000E+00 0.  1.
         21   -1    0    0  501  502 -0.00000000000E+00 -0.00000000000E+00 -0.34166777302E+03  0.34166777302E+03  0.00000000000E+00 0.  1.
         25    1    1    2    0    0 -0.47776463811E+02 -0.13479074349E+03 -0.31371435137E+02  0.19251052430E+03  0.12500000000E+03 0.  0.
         25    1    1    2    0    0 -0.16270582787E+03 -0.71138124571E+02  0.19609835777E+02  0.21804441027E+03  0.12500000000E+03 0.  0.
         25    1    1    2    0    0  0.21048229169E+03  0.20592886806E+03  0.65519306159E+02  0.32653831826E+03  0.12500000000E+03 0.  0.
</event>
<event>
 5    0  0.5489207E-005  0.4633990E+03  0.7546771E-02  0.1023800E+00
         21   -1    0    0  502  501  0.00000000000E+00  0.00000000000E+00  0.55553168312E+03  0.55553168312E+03  0.00000000000E+00 0.  1.
         21   -1    0    0  501  502 -0.00000000000E+00 -0.00000000000E+00 -0.38654617776E+03  0.38654617776E+03  0.00000000000E+00 0.  1.
         25    1    1    2    0    0 -0.79361804739E+01 -0.73696982512E+02 -0.31778406670E+03  0.34943660546E+03  0.12500000000E+03 0.  0.
         25    1    1    2    0    0  0.54724728417E+02  0.13344824344E+03  0.25334953865E+03  0.31719744373E+03  0.12500000000E+03 0.  0.
         25    1    1    2    0    0 -0.46788547944E+02 -0.59751260926E+02  0.23342003341E+03  0.27544381169E+03  0.12500000000E+03 0.  0.
</event>
<event>
 5    0  0.5489207E-005  0.3809270E+03  0.7546771E-02  0.1050592E+00
         21   -1    0    0  502  501  0.00000000000E+00  0.00000000000E+00  0.22799315667E+04  0.22799315667E+04  0.00000000000E+00 0.  1.
         21   -1    0    0  501  502 -0.00000000000E+00 -0.00000000000E+00 -0.63644631397E+02  0.63644631397E+02  0.00000000000E+00 0.  1.
         25    1    1    2    0    0  0.21905299537E+03 -0.57238998390E+02  0.11245611704E+04  0.11539165237E+04  0.12500000000E+03 0.  0.
         25    1    1    2    0    0 -0.87823877681E+02  0.16168374723E+03  0.80224825826E+03  0.83251542658E+03  0.12500000000E+03 0.  0.
         25    1    1    2    0    0 -0.13122911769E+03 -0.10444474883E+03  0.28947750662E+03  0.35714424779E+03  0.12500000000E+03 0.  0.
</event>
<event>
 5    0  0.5489207E-005  0.2108117E+03  0.7546771E-02  0.1140925E+00
         21   -1    0    0  502  501  0.00000000000E+00  0.00000000000E+00  0.20111235399E+03  0.20111235399E+03  0.00000000000E+00 0. -1.
         21   -1    0    0  501  502 -0.00000000000E+00 -0.00000000000E+00 -0.22097879715E+03  0.22097879715E+03  0.00000000000E+00 0. -1.
         25    1    1    2    0    0 -0.15495579642E+02  0.31020687127E+02 -0.40522266595E+02  0.13590235505E+03  0.12500000000E+03 0.  0.
         25    1    1    2    0    0 -0.57235674237E+02 -0.23718563266E+02  0.22837716878E+02  0.14136850413E+03  0.12500000000E+03 0.  0.
         25    1    1    2    0    0  0.72731253879E+02 -0.73021238608E+01 -0.21818934360E+01  0.14482029196E+03  0.12500000000E+03 0.  0.
</event>
<event>
 5    0  0.5489207E-005  0.3539973E+03  0.7546771E-02  0.1060986E+00
         21   -1    0    0  502  501  0.00000000000E+00  0.00000000000E+00  0.27002302901E+03  0.27002302901E+03  0.00000000000E+00 0.  1.
         21   -1    0    0  501  502 -0.00000000000E+00 -0.00000000000E+00 -0.46408675991E+03  0.46408675991E+03  0.00000000000E+00 0.  1.
         25    1    1    2    0    0 -0.18133277473E+03 -0.90070495173E+02 -0.21379308081E+03  0.31988552749E+03  0.12500000000E+03 0.  0.
         25    1    1    2    0    0  0.13149920664E+03 -0.13948237279E+02  0.11887419989E+03  0.21735379010E+03  0.12500000000E+03 0.  0.
         25    1    1    2    0    0  0.49833568091E+02  0.10401873245E+03 -0.99144849974E+02  0.19687047134E+03  0.12500000000E+03 0.  0.
</event>
<event>
 5    0  0.5489207E-005  0.5189298E+03  0.7546771E-02  0.1008953E+00
         21   -1    0    0  502  501  0.00000000000E+00  0.00000000000E+00  0.44721805019E+03  0.44721805019E+03  0.00000000000E+00 0. -1.
         21   -1    0    0  501  502 -0.00000000000E+00 -0.00000000000E+00 -0.60214069106E+03  0.60214069106E+03  0.00000000000E+00 0. -1.
         25    1    1    2    0    0  0.36048800733E+03  0.37922653647E+01  0.60978843644E+02  0.38640575058E+03  0.12500000000E+03 0.  0.
         25    1    1    2    0    0 -0.43251147291E+03 -0.54500767146E+02 -0.23163006230E+03  0.50922882242E+03  0.12500000000E+03 0.  0.
         25    1    1    2    0    0  0.72023465578E+02  0.50708501782E+02  0.15728577787E+02  0.15372416826E+03  0.12500000000E+03 0.  0.
</event>
<event>
 5    0  0.5489207E-005  0.2326486E+03  0.7546771E-02  0.1124789E+00
         21   -1    0    0  502  501  0.00000000000E+00  0.00000000000E+00  0.12257762452E+03  0.12257762452E+03  0.00000000000E+00 0.  1.
         21   -1    0    0  501  502 -0.00000000000E+00 -0.00000000000E+00 -0.44156000016E+03  0.44156000016E+03  0.00000000000E+00 0.  1.
         25    1    1    2    0    0 -0.25273735897E+02  0.58867955833E+02 -0.11919330700E+03  0.18421792091E+03  0.12500000000E+03 0.  0.
         25    1    1    2    0    0  0.51005273109E+02 -0.55066820558E+01  0.21635965188E+01  0.13513527512E+03  0.12500000000E+03 0.  0.
         25    1    1    2    0    0 -0.25731537211E+02 -0.53361273777E+02 -0.20195266515E+03  0.24478442865E+03  0.12500000000E+03 0.  0.
</event>
<event>
 5    0  0.5489207E-005  0.5102169E+03  0.7546771E-02  0.1011146E+00
         21   -1    0    0  502  501  0.00000000000E+00  0.00000000000E+00  0.17223109519E+04  0.17223109519E+04  0.00000000000E+00 0. -1.
         21   -1    0    0  501  502 -0.00000000000E+00 -0.00000000000E+00 -0.15114650711E+03  0.15114650711E+03  0.00000000000E+00 0. -1.
         25    1    1    2    0    0 -0.29219034696E+03 -0.16799918976E+03  0.83274608448E+03  0.90702258397E+03  0.12500000000E+03 0.  0.
         25    1    1    2    0    0  0.68325723695E+02 -0.12407496040E+03  0.87216597498E+02  0.20807386956E+03  0.12500000000E+03 0.  0.
         25    1    1    2    0    0  0.22386462326E+03  0.29207415015E+03  0.65120176285E+03  0.75836100550E+03  0.12500000000E+03 0.  0.
</event>
<event>
 5    0  0.5489207E-005  0.2453275E+03  0.7546771E-02  0.1116294E+00
         21   -1    0    0  502  501  0.00000000000E+00  0.00000000000E+00  0.41856497710E+02  0.41856497710E+02  0.00000000000E+00 0. -1.
         21   -1    0    0  501  502 -0.00000000000E+00 -0.00000000000E+00 -0.14379033482E+04  0.14379033482E+04  0.00000000000E+00 0. -1.
         25    1    1    2    0    0  0.11063949974E+03  0.60500052678E+02 -0.71886220352E+03  0.74046554472E+03  0.12500000000E+03 0.  0.
         25    1    1    2    0    0 -0.28955481179E+02 -0.15733023836E+02 -0.41068051475E+03  0.43054550645E+03  0.12500000000E+03 0.  0.
         25    1    1    2    0    0 -0.81684018562E+02 -0.44767028843E+02 -0.26650413224E+03  0.30874879475E+03  0.12500000000E+03 0.  0.
</event>
<event>
 5    0  0.5489207E-005  0.3240978E+03  0.7546771E-02  0.1073779E+00
         21   -1    0    0  502  501  0.00000000000E+00  0.00000000000E+00  0.13437138682E+03  0.13437138682E+03  0.00000000000E+00 0. -1.
         21   -1    0    0  501  502 -0.00000000000E+00 -0.00000000000E+00 -0.78170964012E+03  0.78170964012E+03  0.00000000000E+00 0. -1.
         25    1    1    2    0    0  0.42740830725E+02 -0.16445470708E+03 -0.81846675955E+02  0.22626534789E+03  0.12500000000E+03 0.  0.
         25    1    1    2    0    0  0.94633269731E+02  0.12759529499E+03 -0.33795532476E+03  0.39379539939E+03  0.12500000000E+03 0.  0.
         25    1    1    2    0    0 -0.13737410046E+03  0.36859412086E+02 -0.22753625259E+03  0.29602027967E+03  0.12500000000E+03 0.  0.
</event>
<event>
 5    0  0.5489207E-005  0.3436235E+03  0.7546771E-02  0.1065263E+00
         21   -1    0    0  502  501  0.00000000000E+00  0.00000000000E+00  0.44245623614E+03  0.44245623614E+03  0.00000000000E+00 0. -1.
         21   -1    0    0  501  502 -0.00000000000E+00 -0.00000000000E+00 -0.26686726509E+03  0.26686726509E+03  0.00000000000E+00 0. -1.
         25    1    1    2    0    0 -0.11486869119E+02 -0.11541338164E+03  0.14991289759E+02  0.17117808152E+03  0.12500000000E+03 0.  0.
         25    1    1    2    0    0 -0.10295990550E+03  0.10635321374E+03  0.27286574082E+03  0.33465274648E+03  0.12500000000E+03 0.  0.
         25    1    1    2    0    0  0.11444677462E+03  0.90601679028E+01 -0.11226805954E+03  0.20349267323E+03  0.12500000000E+03 0.  0.
</event>
<event>
 5    0  0.5489207E-005  0.2957832E+03  0.7546771E-02  0.1087368E+00
         21   -1    0    0  502  501  0.00000000000E+00  0.00000000000E+00  0.80575769080E+02  0.80575769080E+02  0.00000000000E+00 0.  1.
         21   -1    0    0  501  502 -0.00000000000E+00 -0.00000000000E+00 -0.10857817962E+04  0.10857817962E+04  0.00000000000E+00 0.  1.
         25    1    1    2    0    0  0.74482980672E+01  0.40996802883E+02 -0.68078200405E+03  0.69341571371E+03  0.12500000000E+03 0.  0.
         25    1    1    2    0    0  0.10079888862E+03 -0.71765358846E+02 -0.16975532721E+03  0.24444335498E+03  0.12500000000E+03 0.  0.
         25    1    1    2    0    0 -0.10824718669E+03  0.30768555964E+02 -0.15466869586E+03  0.22849849659E+03  0.12500000000E+03 0.  0.
</event>
<event>
 5    0  0.5489207E-005  0.2305737E+03  0.7546771E-02  0.1126237E+00
         21   -1    0    0  502  501  0.00000000000E+00  0.00000000000E+00  0.73667711160E+03  0.73667711160E+03  0.00000000000E+00 0. -1.
         21   -1    0    0  501  502 -0.00000000000E+00 -0.00000000000E+00 -0.72167609919E+02  0.72167609919E+02  0.00000000000E+00 0. -1.
         25    1    1    2    0    0  0.26430881927E+01 -0.20993028348E+01  0.11020410627E+03  0.16667734707E+03  0.12500000000E+03 0.  0.
         25    1    1    2    0    0 -0.92543878855E+02  0.64806609734E+01  0.37352941763E+03  0.40466726371E+03  0.12500000000E+03 0.  0.
         25    1    1    2    0    0  0.89900790662E+02 -0.43813581386E+01  0.18077597778E+03  0.23750011074E+03  0.12500000000E+03 0.  0.
</event>
<event>
 5    0  0.5489207E-005  0.2262747E+03  0.7546771E-02  0.1129290E+00
         21   -1    0    0  502  501  0.00000000000E+00  0.00000000000E+00  0.85612244445E+02  0.85612244445E+02  0.00000000000E+00 0.  1.
         21   -1    0    0  501  502 -0.00000000000E+00 -0.00000000000E+00 -0.59804812636E+03  0.59804812636E+03  0.00000000000E+00 0.  1.
         25    1    1    2    0    0 -0.65493771750E+01 -0.11678531169E+03 -0.20031221605E+03  0.26349893219E+03  0.12500000000E+03 0.  0.
         25    1    1    2    0    0  0.14115665172E+02  0.84815938115E+02 -0.15867132219E+03  0.21953264870E+03  0.12500000000E+03 0.  0.
         25    1    1    2    0    0 -0.75662879967E+01  0.31969373575E+02 -0.15345234368E+03  0.20062878992E+03  0.12500000000E+03 0.  0.
</event>
<event>
 5    0  0.5489207E-005  0.2811983E+03  0.7546771E-02  0.1095036E+00
         21   -1    0    0  502  501  0.00000000000E+00  0.00000000000E+00  0.53517753820E+03  0.53517753820E+03  0.00000000000E+00 0. -1.
         21   -1    0    0  501  502 -0.00000000000E+00 -0.00000000000E+00 -0.14775004315E+03  0.14775004315E+03  0.00000000000E+00 0. -1.
         25    1    1    2    0    0  0.80793964434E+02  0.93280864549E+02  0.29090620585E+03  0.33982407947E+03  0.12500000000E+03 0.  0.
         25    1    1    2    0    0 -0.12382505251E+03 -0.73144996162E+02  0.85733101956E+02  0.20894496611E+03  0.12500000000E+03 0.  0.
         25    1    1    2    0    0  0.43031088075E+02 -0.20135868386E+02  0.10788187240E+02  0.13415853577E+03  0.12500000000E+03 0.  0.
</event>
<event>
 5    0  0.5489207E-005  0.4343894E+03  0.7546771E-02  0.1032482E+00
         21   -1    0    0  502  501  0.00000000000E+00  0.00000000000E+00  0.10042022867E+04  0.10042022867E+04  0.00000000000E+00 0.  1.
         21   -1    0    0  501  502 -0.00000000000E+00 -0.00000000000E+00 -0.18790456516E+03  0.18790456516E+03  0.00000000000E+00 0.  1.
         25    1    1    2    0    0  0.11125035745E+03  0.34465331936E+03  0.25615134607E+03  0.46086989994E+03  0.12500000000E+03 0.  0.
         25    1    1    2    0    0  0.19548490598E+02 -0.20399952598E+03  0.30829694429E+03  0.39073002949E+03  0.12500000000E+03 0.  0.
         25    1    1    2    0    0 -0.13079884805E+03 -0.14065379338E+03  0.25184943118E+03  0.34050692244E+03  0.12500000000E+03 0.  0.
</event>
<event>
 5    0  0.5489207E-005  0.2909362E+03  0.7546771E-02  0.1089861E+00
         21   -1    0    0  502  501  0.00000000000E+00  0.00000000000E+00  0.52707762658E+03  0.52707762658E+03  0.00000000000E+00 0.  1.
         21   -1    0    0  501  502 -0.00000000000E+00 -0.00000000000E+00 -0.16059093751E+03  0.16059093751E+03  0.00000000000E+00 0.  1.
         25    1    1    2    0    0  0.74789154837E+02  0.10656817479E+03  0.25352764254E+03  0.31120967062E+03  0.12500000000E+03 0.  0.
         25    1    1    2    0    0 -0.96826041402E+02 -0.14497520356E+03  0.21984318290E+02  0.21564183775E+03  0.12500000000E+03 0.  0.
         25    1    1    2    0    0  0.22036886565E+02  0.38407028760E+02  0.90974728241E+02  0.16081705571E+03  0.12500000000E+03 0.  0.
</event>
<event>
 5    0  0.5489207E-005  0.2366723E+03  0.7546771E-02  0.1122030E+00
         21   -1    0    0  502  501  0.00000000000E+00  0.00000000000E+00  0.85359476662E+03  0.85359476662E+03  0.00000000000E+00 0. -1.
         21   -1    0    0  501  502 -0.00000000000E+00 -0.00000000000E+00 -0.65621040563E+02  0.65621040563E+02  0.00000000000E+00 0. -1.
         25    1    1    2    0    0 -0.71097115426E+02 -0.48469131716E+02  0.30412231962E+03  0.33988151147E+03  0.12500000000E+03 0.  0.
         25    1    1    2    0    0  0.64606289753E+02  0.16042235124E+02  0.40221440692E+03  0.42641852108E+03  0.12500000000E+03 0.  0.
         25    1    1    2    0    0  0.64908256738E+01  0.32426896592E+02  0.81636999514E+02  0.15291577463E+03  0.12500000000E+03 0.  0.
</event>
<event>
 5    0  0.5489207E-005  0.2973400E+03  0.7546771E-02  0.1086578E+00
         21   -1    0    0  502  501  0.00000000000E+00  0.00000000000E+00  0.22272204769E+03  0.22272204769E+03  0.00000000000E+00 0.  1.
         21   -1    0    0  501  502 -0.00000000000E+00 -0.00000000000E+00 -0.39695703628E+03  0.39695703628E+03  0.00000000000E+00 0.  1.
         25    1    1    2    0    0 -0.71711835363E+02 -0.48022758690E+02 -0.12390540237E+03  0.19602632838E+03  0.12500000000E+03 0.  0.
         25    1    1    2    0    0 -0.16094912667E+02  0.60057838517E+02  0.12739004204E+03  0.18899527241E+03  0.12500000000E+03 0.  0.
         25    1    1    2    0    0  0.87806748030E+02 -0.12035079827E+02 -0.17771962825E+03  0.23465748318E+03  0.12500000000E+03 0.  0.
</event>
<event>
 5    0  0.5489207E-005  0.2735945E+03  0.7546771E-02  0.1099240E+00
         21   -1    0    0  502  501  0.00000000000E+00  0.00000000000E+00  0.14860064584E+03  0.14860064584E+03  0.00000000000E+00 0. -1.
         21   -1    0    0  501  502 -0.00000000000E+00 -0.00000000000E+00 -0.50372571455E+03  0.50372571455E+03  0.00000000000E+00 0. -1.
         25    1    1    2    0    0 -0.14790749102E+02 -0.51191506231E+02 -0.19469644834E+03  0.23742586962E+03  0.12500000000E+03 0.  0.
         25    1    1    2    0    0 -0.69888821074E+02 -0.67149717676E+02  0.97343434680E+01  0.15847173041E+03  0.12500000000E+03 0.  0.
         25    1    1    2    0    0  0.84679570176E+02  0.11834122391E+03 -0.17016296383E+03  0.25642876036E+03  0.12500000000E+03 0.  0.
</event>
<event>
 5    0  0.5489207E-005  0.3302189E+03  0.7546771E-02  0.1071040E+00
         21   -1    0    0  502  501  0.00000000000E+00  0.00000000000E+00  0.77408695833E+03  0.77408695833E+03  0.00000000000E+00 0. -1.
         21   -1    0    0  501  502 -0.00000000000E+00 -0.00000000000E+00 -0.14086858496E+03  0.14086858496E+03  0.00000000000E+00 0. -1.
         25    1    1    2    0    0  0.28056321094E+02  0.97031761945E+02  0.52344782875E+02  0.16901862700E+03  0.12500000000E+03 0.  0.
         25    1    1    2    0    0 -0.17149439355E+03  0.35854906343E+01  0.44053092010E+03  0.48899455450E+03  0.12500000000E+03 0.  0.
         25    1    1    2    0    0  0.14343807246E+03 -0.10061725258E+03  0.14034267039E+03  0.25694236179E+03  0.12500000000E+03 0.  0.
</event>
<event>
 5    0  0.5489207E-005  0.3747103E+03  0.7546771E-02  0.1052906E+00
         21   -1    0    0  502  501  0.00000000000E+00  0.00000000000E+00  0.48069947144E+03  0.48069947144E+03  0.00000000000E+00 0.  1.
         21   -1    0    0  501  502 -0.00000000000E+00 -0.00000000000E+00 -0.29209061100E+03  0.29209061100E+03  0.00000000000E+00 0.  1.
         25    1    1    2    0    0  0.16236089744E+02 -0.10610805591E+03  0.12737735607E+03  0.20826070436E+03  0.12500000000E+03 0.  0.
         25    1    1    2    0    0  0.98999059966E+02 -0.82177091504E+02 -0.15045372272E+03  0.23412648488E+03  0.12500000000E+03 0.  0.
         25    1    1    2    0    0 -0.11523514971E+03  0.18828514742E+03  0.21168522709E+03  0.33040289320E+03  0.12500000000E+03 0.  0.
</event>
<event>
 5    0  0.5489207E-005  0.5293922E+03  0.7546771E-02  0.1006380E+00
         21   -1    0    0  502  501  0.00000000000E+00  0.00000000000E+00  0.42858808265E+03  0.42858808265E+03  0.00000000000E+00 0.  1.
         21   -1    0    0  501  502 -0.00000000000E+00 -0.00000000000E+00 -0.65390547892E+03  0.65390547892E+03  0.00000000000E+00 0.  1.
         25    1    1    2    0    0 -0.22324360614E+03  0.10400009823E+03 -0.19527599141E+03  0.33824760300E+03  0.12500000000E+03 0.  0.
         25    1    1    2    0    0  0.26236710003E+03 -0.34749741081E+03  0.51644504698E+02  0.45594199254E+03  0.12500000000E+03 0.  0.
         25    1    1    2    0    0 -0.39123493888E+02  0.24349731258E+03 -0.81685909556E+02  0.28830396603E+03  0.12500000000E+03 0.  0.
</event>
<event>
 5    0  0.5489207E-005  0.2846450E+03  0.7546771E-02  0.1093179E+00
         21   -1    0    0  502  501  0.00000000000E+00  0.00000000000E+00  0.10329586704E+03  0.10329586704E+03  0.00000000000E+00 0.  1.
         21   -1    0    0  501  502 -0.00000000000E+00 -0.00000000000E+00 -0.78437560770E+03  0.78437560770E+03  0.00000000000E+00 0.  1.
         25    1    1    2    0    0  0.21117043074E+02  0.11309173471E+03 -0.20791727337E+03  0.26849629892E+03  0.12500000000E+03 0.  0.
         25    1    1    2    0    0  0.40989404863E+02 -0.14072085929E+03 -0.94302430042E+02  0.21447713133E+03  0.12500000000E+03 0.  0.
         25    1    1    2    0    0 -0.62106447936E+02  0.27629124588E+02 -0.37886003724E+03  0.40469804449E+03  0.12500000000E+03 0.  0.
</event>
<event>
 5    0  0.5489207E-005  0.2880838E+03  0.7546771E-02  0.1091354E+00
         21   -1    0    0  502  501  0.00000000000E+00  0.00000000000E+00  0.44107207503E+03  0.44107207503E+03  0.00000000000E+00 0. -1.
         21   -1    0    0  501  502 -0.00000000000E+00 -0.00000000000E+00 -0.18816030674E+03  0.18816030674E+03  0.00000000000E+00 0. -1.
         25    1    1    2    0    0 -0.20066424964E+02  0.40562585117E+02  0.13202072783E+03  0.18735649788E+03  0.12500000000E+03 0.  0.
         25    1    1    2    0    0  0.16736428253E+03  0.21242853151E+02  0.88523700951E+01  0.21015571925E+03  0.12500000000E+03 0.  0.
         25    1    1    2    0    0 -0.14729785757E+03 -0.61805438268E+02  0.11203867037E+03  0.23172016464E+03  0.12500000000E+03 0.  0.
</event>
<event>
 5    0  0.5489207E-005  0.3516247E+03  0.7546771E-02  0.1061950E+00
         21   -1    0    0  502  501  0.00000000000E+00  0.00000000000E+00  0.69030532259E+03  0.69030532259E+03  0.00000000000E+00 0.  1.
         21   -1    0    0  501  502 -0.00000000000E+00 -0.00000000000E+00 -0.17910902729E+03  0.17910902729E+03  0.00000000000E+00 0.  1.
         25    1    1    2    0    0  0.21932076319E+02 -0.21238926277E+03  0.21404000040E+03  0.32715185570E+03  0.12500000000E+03 0.  0.
         25    1    1    2    0    0  0.72141543906E+02 -0.45640398147E+02  0.11104600664E+03  0.18773295899E+03  0.12500000000E+03 0.  0.
         25    1    1    2    0    0 -0.94073620225E+02  0.25802966092E+03  0.18611028826E+03  0.35452953520E+03  0.12500000000E+03 0.  0.
</event>
<event>
 5    0  0.5489207E-005  0.2355130E+03  0.7546771E-02  0.1122819E+00
         21   -1    0    0  502  501  0.00000000000E+00  0.00000000000E+00  0.81731265179E+03  0.81731265179E+03  0.00000000000E+00 0.  1.
         21   -1    0    0  501  502 -0.00000000000E+00 -0.00000000000E+00 -0.67864346685E+02  0.67864346685E+02  0.00000000000E+00 0.  1.
         25    1    1    2    0    0 -0.70709857357E+02  0.47603306371E+01  0.39923197178E+03  0.42430379678E+03  0.12500000000E+03 0.  0.
         25    1    1    2    0    0  0.18324432868E+02 -0.56865769741E+01  0.28217177864E+03  0.30921519150E+03  0.12500000000E+03 0.  0.
         25    1    1    2    0    0  0.52385424489E+02  0.92624633701E+00  0.68044554689E+02  0.15165801019E+03  0.12500000000E+03 0.  0.
</event>
<event>
 5    0  0.5489207E-005  0.2368883E+03  0.7546771E-02  0.1121883E+00
         21   -1    0    0  502  501  0.00000000000E+00  0.00000000000E+00  0.39320656172E+03  0.39320656172E+03  0.00000000000E+00 0.  1.
         21   -1    0    0  501  502 -0.00000000000E+00 -0.00000000000E+00 -0.14271391365E+03  0.14271391365E+03  0.00000000000E+00 0.  1.
         25    1    1    2    0    0  0.58740932787E+01 -0.20718722152E+02  0.18387714897E+03  0.22338213073E+03  0.12500000000E+03 0.  0.
         25    1    1    2    0    0 -0.76131107911E+02 -0.36920026940E+01  0.79352590798E+02  0.16652750566E+03  0.12500000000E+03 0.  0.
         25    1    1    2    0    0  0.70257014633E+02  0.24410724846E+02 -0.12737091692E+02  0.14601083897E+03  0.12500000000E+03 0.  0.
</event>
<event>
 5    0  0.5889942E-005  0.3467036E+03  0.7546771E-02  0.1063976E+00
         21   -1    0    0  502  501  0.00000000000E+00  0.00000000000E+00  0.29665124036E+03  0.29665124036E+03  0.00000000000E+00 0. -1.
         21   -1    0    0  501  502 -0.00000000000E+00 -0.00000000000E+00 -0.40520101682E+03  0.40520101682E+03  0.00000000000E+00 0. -1.
         25    1    1    2    0    0  0.25884597534E+02  0.82216065794E+02  0.82745541022E+02  0.17291997693E+03  0.12500000000E+03 0.  0.
         25    1    1    2    0    0  0.16696636666E+03  0.22762084919E+02  0.35931357157E+01  0.20984229967E+03  0.12500000000E+03 0.  0.
         25    1    1    2    0    0 -0.19285096419E+03 -0.10497815071E+03 -0.19488845320E+03  0.31908998058E+03  0.12500000000E+03 0.  0.
</event>
<event>
 5    0  0.5489207E-005  0.5412211E+03  0.7546771E-02  0.1003547E+00
         21   -1    0    0  502  501  0.00000000000E+00  0.00000000000E+00  0.98382949223E+02  0.98382949223E+02  0.00000000000E+00 0.  1.
         21   -1    0    0  501  502 -0.00000000000E+00 -0.00000000000E+00 -0.29773480400E+04  0.29773480400E+04  0.00000000000E+00 0.  1.
         25    1    1    2    0    0  0.41048485525E+03  0.17321806482E+03 -0.14192537650E+04  0.14927855049E+04  0.12500000000E+03 0.  0.
         25    1    1    2    0    0 -0.11479070666E+03  0.63229598055E+02 -0.72217495035E+03  0.74453780785E+03  0.12500000000E+03 0.  0.
         25    1    1    2    0    0 -0.29569414858E+03 -0.23644766287E+03 -0.73753637544E+03  0.83840767642E+03  0.12500000000E+03 0.  0.
</event>
<event>
 5    0  0.5489207E-005  0.4164843E+03  0.7546771E-02  0.1038217E+00
         21   -1    0    0  502  501  0.00000000000E+00  0.00000000000E+00  0.65418519319E+02  0.65418519319E+02  0.00000000000E+00 0. -1.
         21   -1    0    0  501  502 -0.00000000000E+00 -0.00000000000E+00 -0.26515295288E+04  0.26515295288E+04  0.00000000000E+00 0. -1.
         25    1    1    2    0    0  0.72257589131E+02  0.48181157532E+02 -0.10563432605E+04  0.10672528600E+04  0.12500000000E+03 0.  0.
         25    1    1    2    0    0  0.24861969554E+02 -0.31077689793E+02 -0.21363067260E+02  0.13291095130E+03  0.12500000000E+03 0.  0.
         25    1    1    2    0    0 -0.97119558686E+02 -0.17103467739E+02 -0.15084046817E+04  0.15167842369E+04  0.12500000000E+03 0.  0.
</event>
<event>
 5    0  0.5489207E-005  0.2620437E+03  0.7546771E-02  0.1105922E+00
         21   -1    0    0  502  501  0.00000000000E+00  0.00000000000E+00  0.65399654735E+03  0.65399654735E+03  0.00000000000E+00 0.  1.
         21   -1    0    0  501  502 -0.00000000000E+00 -0.00000000000E+00 -0.10499580257E+03  0.10499580257E+03  0.00000000000E+00 0.  1.
         25    1    1    2    0    0 -0.24857382682E+02  0.50818439688E+02  0.45589208382E+03  0.47609137293E+03  0.12500000000E+03 0.  0.
         25    1    1    2    0    0 -0.19164858726E+02 -0.19643033315E+02  0.23948142972E+02  0.13019851812E+03  0.12500000000E+03 0.  0.
         25    1    1    2    0    0  0.44022241408E+02 -0.31175406373E+02  0.69160517987E+02  0.15270245888E+03  0.12500000000E+03 0.  0.
</event>
<event>
 5    0  0.5489207E-005  0.3220139E+03  0.7546771E-02  0.1074726E+00
         21   -1    0    0  502  501  0.00000000000E+00  0.00000000000E+00  0.15150252058E+03  0.15150252058E+03  0.00000000000E+00 0. -1.
         21   -1    0    0  501  502 -0.00000000000E+00 -0.00000000000E+00 -0.68443070016E+03  0.68443070016E+03  0.00000000000E+00 0. -1.
         25    1    1    2    0    0 -0.16649806955E+03 -0.81895217985E+02 -0.11810213420E+03  0.25298527229E+03  0.12500000000E+03 0.  0.
         25    1    1    2    0    0 -0.24026179930E+02 -0.60428178256E+02 -0.14177943541E+03  0.19988804455E+03  0.12500000000E+03 0.  0.
         25    1    1    2    0    0  0.19052424948E+03  0.14232339624E+03 -0.27304660998E+03  0.38305990390E+03  0.12500000000E+03 0.  0.
</event>
<event>
 5    0  0.5489207E-005  0.3171729E+03  0.7546771E-02  0.1076958E+00
         21   -1    0    0  502  501  0.00000000000E+00  0.00000000000E+00  0.39163927240E+03  0.39163927240E+03  0.00000000000E+00 0. -1.
         21   -1    0    0  501  502 -0.00000000000E+00 -0.00000000000E+00 -0.25686551117E+03  0.25686551117E+03  0.00000000000E+00 0. -1.
         25    1    1    2    0    0 -0.91902311486E+02  0.29930728009E+02  0.16813272381E+03  0.23072818673E+03  0.12500000000E+03 0.  0.
         25    1    1    2    0    0 -0.88282739203E+02  0.75778949049E+02 -0.35038255603E+02  0.17432432566E+03  0.12500000000E+03 0.  0.
         25    1    1    2    0    0  0.18018505069E+03 -0.10570967706E+03  0.16792930243E+01  0.24345227118E+03  0.12500000000E+03 0.  0.
</event>
<event>
 5    0  0.5489207E-005  0.2092260E+03  0.7546771E-02  0.1142180E+00
         21   -1    0    0  502  501  0.00000000000E+00  0.00000000000E+00  0.10692528776E+04  0.10692528776E+04  0.00000000000E+00 0. -1.
         21   -1    0    0  501  502 -0.00000000000E+00 -0.00000000000E+00 -0.40940284422E+02  0.40940284422E+02  0.00000000000E+00 0. -1.
         25    1    1    2    0    0  0.68404001035E+02  0.48831862960E+02  0.44070593231E+03  0.46573638141E+03  0.12500000000E+03 0.  0.
         25    1    1    2    0    0 -0.24265314704E+02 -0.21387758705E+02  0.29820249951E+03  0.32495533914E+03  0.12500000000E+03 0.  0.
         25    1    1    2    0    0 -0.44138686331E+02 -0.27444104255E+02  0.28940416132E+03  0.31950144143E+03  0.12500000000E+03 0.  0.
</event>
<event>
 5    0  0.5489207E-005  0.2261030E+03  0.7546771E-02  0.1129413E+00
         21   -1    0    0  502  501  0.00000000000E+00  0.00000000000E+00  0.55269247788E+03  0.55269247788E+03  0.00000000000E+00 0.  1.
         21   -1    0    0  501  502 -0.00000000000E+00 -0.00000000000E+00 -0.92497345611E+02  0.92497345611E+02  0.00000000000E+00 0.  1.
         25    1    1    2    0    0 -0.20404405033E+01 -0.99406879796E+02  0.17333985590E+03  0.23570659047E+03  0.12500000000E+03 0.  0.
         25    1    1    2    0    0  0.44451268737E+02  0.47159410948E+02  0.19452956364E+03  0.24013886912E+03  0.12500000000E+03 0.  0.
         25    1    1    2    0    0 -0.42410828233E+02  0.52247468848E+02  0.92325712730E+02  0.16934436390E+03  0.12500000000E+03 0.  0.
</event>
<event>
 5    0  0.5489207E-005  0.3182359E+03  0.7546771E-02  0.1076464E+00
         21   -1    0    0  502  501  0.00000000000E+00  0.00000000000E+00  0.31615652152E+03  0.31615652152E+03  0.00000000000E+00 0. -1.
         21   -1    0    0  501  502 -0.00000000000E+00 -0.00000000000E+00 -0.32032890487E+03  0.32032890487E+03  0.00000000000E+00 0. -1.
         25    1    1    2    0    0  0.26783966981E+02  0.21717136629E+03 -0.46658725550E+02  0.25628659718E+03  0.12500000000E+03 0.  0.
         25    1    1    2    0    0  0.17233572888E+02 -0.19595310281E+03  0.69682084223E+02  0.24325954739E+03  0.12500000000E+03 0.  0.
         25    1    1    2    0    0 -0.44017539869E+02 -0.21218263485E+02 -0.27195742019E+02  0.13693928182E+03  0.12500000000E+03 0.  0.
</event>
<event>
 5    0  0.5489207E-005  0.3441251E+03  0.7546771E-02  0.1065053E+00
         21   -1    0    0  502  501  0.00000000000E+00  0.00000000000E+00  0.55077938753E+03  0.55077938753E+03  0.00000000000E+00 0.  1.
         21   -1    0    0  501  502 -0.00000000000E+00 -0.00000000000E+00 -0.21500815083E+03  0.21500815083E+03  0.00000000000E+00 0.  1.
         25    1    1    2    0    0 -0.14590491446E+03  0.35749715291E+02  0.34339236789E+01  0.19545607701E+03  0.12500000000E+03 0.  0.
         25    1    1    2    0    0  0.14335032223E+03  0.74668011719E+02  0.66753836135E+01  0.20443626783E+03  0.12500000000E+03 0.  0.
         25    1    1    2    0    0  0.25545922296E+01 -0.11041772701E+03  0.32566192941E+03  0.36589519352E+03  0.12500000000E+03 0.  0.
</event>
<event>
 5    0  0.5489207E-005  0.3165051E+03  0.7546771E-02  0.1077269E+00
         21   -1    0    0  502  501  0.00000000000E+00  0.00000000000E+00  0.20070383491E+03  0.20070383491E+03  0.00000000000E+00 0. -1.
         21   -1    0    0  501  502 -0.00000000000E+00 -0.00000000000E+00 -0.49912093733E+03  0.49912093733E+03  0.00000000000E+00 0. -1.
         25    1    1    2    0    0 -0.11737894601E+03 -0.22716646172E+02 -0.36490858311E+02  0.17677795598E+03  0.12500000000E+03 0.  0.
         25    1    1    2    0    0  0.78463472316E+02  0.71460873704E+02  0.58015212048E+02  0.17393659128E+03  0.12500000000E+03 0.  0.
         25    1    1    2    0    0  0.38915473695E+02 -0.48744227532E+02 -0.31994145616E+03  0.34911022497E+03  0.12500000000E+03 0.  0.
</event>
<event>
 5    0  0.5489207E-005  0.2625574E+03  0.7546771E-02  0.1105616E+00
         21   -1    0    0  502  501  0.00000000000E+00  0.00000000000E+00  0.41048921249E+02  0.41048921249E+02  0.00000000000E+00 0. -1.
         21   -1    0    0  501  502 -0.00000000000E+00 -0.00000000000E+00 -0.16793715294E+04  0.16793715294E+04  0.00000000000E+00 0. -1.
         25    1    1    2    0    0  0.62687523735E+02 -0.34725520684E+02 -0.72575776167E+03  0.73992223649E+03  0.12500000000E+03 0.  0.
         25    1    1    2    0    0  0.44186433967E+02 -0.59717912096E+02 -0.57709970074E+03  0.59513673602E+03  0.12500000000E+03 0.  0.
         25    1    1    2    0    0 -0.10687395770E+03  0.94443432779E+02 -0.33546514576E+03  0.38536147816E+03  0.12500000000E+03 0.  0.
</event>
<event>
 5    0  0.5489207E-005  0.4339494E+03  0.7546771E-02  0.1032620E+00
         21   -1    0    0  502  501  0.00000000000E+00  0.00000000000E+00  0.49263958768E+03  0.49263958768E+03  0.00000000000E+00 0. -1.
         21   -1    0    0  501  502 -0.00000000000E+00 -0.00000000000E+00 -0.38225122436E+03  0.38225122436E+03  0.00000000000E+00 0. -1.
         25    1    1    2    0    0 -0.17785461638E+03 -0.13760491538E+03  0.11476934400E+03  0.28171684300E+03  0.12500000000E+03 0.  0.
         25    1    1    2    0    0  0.30535379943E+03  0.40623278234E+02 -0.12697614943E+03  0.35586392917E+03  0.12500000000E+03 0.  0.
         25    1    1    2    0    0 -0.12749918305E+03  0.96981637149E+02  0.12259516875E+03  0.23731003987E+03  0.12500000000E+03 0.  0.
</event>
<event>
 5    0  0.5489207E-005  0.2244698E+03  0.7546771E-02  0.1130594E+00
         21   -1    0    0  502  501  0.00000000000E+00  0.00000000000E+00  0.21453192244E+03  0.21453192244E+03  0.00000000000E+00 0. -1.
         21   -1    0    0  501  502 -0.00000000000E+00 -0.00000000000E+00 -0.23486795516E+03  0.23486795516E+03  0.00000000000E+00 0. -1.
         25    1    1    2    0    0  0.18697202007E+02  0.41262757028E+02  0.29410654188E+01  0.13298815867E+03  0.12500000000E+03 0.  0.
         25    1    1    2    0    0  0.35116346016E+02 -0.59827164384E+02  0.60820056468E+02  0.15535934676E+03  0.12500000000E+03 0.  0.
         25    1    1    2    0    0 -0.53813548023E+02  0.18564407356E+02 -0.84097154603E+02  0.16105237218E+03  0.12500000000E+03 0.  0.
</event>
<event>
 5    0  0.5489207E-005  0.3694026E+03  0.7546771E-02  0.1054922E+00
         21   -1    0    0  502  501  0.00000000000E+00  0.00000000000E+00  0.62010334252E+02  0.62010334252E+02  0.00000000000E+00 0.  1.
         21   -1    0    0  501  502 -0.00000000000E+00 -0.00000000000E+00 -0.22005737482E+04  0.22005737482E+04  0.00000000000E+00 0.  1.
         25    1    1    2    0    0  0.11346343753E+03  0.14662185848E+02 -0.13636422657E+04  0.13741303287E+04  0.12500000000E+03 0.  0.
         25    1    1    2    0    0 -0.11171214226E+03 -0.12533964360E+03 -0.64131998160E+03  0.67461540731E+03  0.12500000000E+03 0.  0.
         25    1    1    2    0    0 -0.17512952688E+01  0.11067745775E+03 -0.13360116662E+03  0.21383834645E+03  0.12500000000E+03 0.  0.
</event>
<event>
 5    0  0.5489207E-005  0.7342855E+03  0.7546771E-02  0.9660332E-01
         21   -1    0    0  502  501  0.00000000000E+00  0.00000000000E+00  0.82286119253E+03  0.82286119253E+03  0.00000000000E+00 0. -1.
         21   -1    0    0  501  502 -0.00000000000E+00 -0.00000000000E+00 -0.65524439673E+03  0.65524439673E+03  0.00000000000E+00 0. -1.
         25    1    1    2    0    0  0.38281353182E+03  0.24746998626E+03  0.53328178274E+03  0.71260231129E+03  0.12500000000E+03 0.  0.
         25    1    1    2    0    0 -0.13844869088E+03 -0.33414344310E+03 -0.23774462792E+03  0.45051902144E+03  0.12500000000E+03 0.  0.
         25    1    1    2    0    0 -0.24436484094E+03  0.86673456844E+02 -0.12792035902E+03  0.31498425653E+03  0.12500000000E+03 0.  0.
</event>
<event>
 5    0  0.5489207E-005  0.2481887E+03  0.7546771E-02  0.1114455E+00
         21   -1    0    0  502  501  0.00000000000E+00  0.00000000000E+00  0.78445527833E+02  0.78445527833E+02  0.00000000000E+00 0. -1.
         21   -1    0    0  501  502 -0.00000000000E+00 -0.00000000000E+00 -0.78522834335E+03  0.78522834335E+03  0.00000000000E+00 0. -1.
         25    1    1    2    0    0 -0.17440764596E+02 -0.11030748512E+02 -0.53543376511E+03  0.55021829714E+03  0.12500000000E+03 0.  0.
         25    1    1    2    0    0  0.45283496968E+01 -0.32896962777E+02 -0.82545835279E+02  0.15343249667E+03  0.12500000000E+03 0.  0.
         25    1    1    2    0    0  0.12912414899E+02  0.43927711289E+02 -0.88803215124E+02  0.16002307738E+03  0.12500000000E+03 0.  0.
</event>
<event>
 5    0  0.5489207E-005  0.2603554E+03  0.7546771E-02  0.1106930E+00
         21   -1    0    0  502  501  0.00000000000E+00  0.00000000000E+00  0.17839657919E+03  0.17839657919E+03  0.00000000000E+00 0.  1.
         21   -1    0    0  501  502 -0.00000000000E+00 -0.00000000000E+00 -0.37996760227E+03  0.37996760227E+03  0.00000000000E+00 0.  1.
         25    1    1    2    0    0  0.61027838884E+02 -0.14577061790E+03 -0.30703232039E+02  0.20381648270E+03  0.12500000000E+03 0.  0.
         25    1    1    2    0    0  0.86080957746E+01  0.66933936888E+02 -0.47339373196E+02  0.14973398904E+03  0.12500000000E+03 0.  0.
         25    1    1    2    0    0 -0.69635934659E+02  0.78836681014E+02 -0.12352841785E+03  0.20481370971E+03  0.12500000000E+03 0.  0.
</event>
<event>
 5    0  0.5489207E-005  0.2670286E+03  0.7546771E-02  0.1102992E+00
         21   -1    0    0  502  501  0.00000000000E+00  0.00000000000E+00  0.75401636859E+02  0.75401636859E+02  0.00000000000E+00 0. -1.
         21   -1    0    0  501  502 -0.00000000000E+00 -0.00000000000E+00 -0.94565921909E+03  0.94565921909E+03  0.00000000000E+00 0. -1.
         25    1    1    2    0    0  0.13120016154E+03 -0.10228540247E+03 -0.32319340644E+03  0.38438881866E+03  0.12500000000E+03 0.  0.
         25    1    1    2    0    0 -0.51733340431E+02  0.22503645008E+02 -0.13890447118E+03  0.19519786030E+03  0.12500000000E+03 0.  0.
         25    1    1    2    0    0 -0.79466821106E+02  0.79781757466E+02 -0.40815970461E+03  0.44147417699E+03  0.12500000000E+03 0.  0.
</event>
<event>
 5    0  0.5489207E-005  0.2137208E+03  0.7546771E-02  0.1138653E+00
         21   -1    0    0  502  501  0.00000000000E+00  0.00000000000E+00  0.32998912629E+02  0.32998912629E+02  0.00000000000E+00 0.  1.
         21   -1    0    0  501  502 -0.00000000000E+00 -0.00000000000E+00 -0.13841845028E+04  0.13841845028E+04  0.00000000000E+00 0.  1.
         25    1    1    2    0    0  0.61795895342E+02 -0.57457857280E+01 -0.57995370326E+03  0.59650904826E+03  0.12500000000E+03 0.  0.
         25    1    1    2    0    0 -0.67453689457E+02  0.67267278202E+01 -0.28372439903E+03  0.31736380338E+03  0.12500000000E+03 0.  0.
         25    1    1    2    0    0  0.56577941155E+01 -0.98094209216E+00 -0.48750748783E+03  0.50331056374E+03  0.12500000000E+03 0.  0.
</event>
<event>
 5    0  0.5489207E-005  0.5107904E+03  0.7546771E-02  0.1011000E+00
         21   -1    0    0  502  501  0.00000000000E+00  0.00000000000E+00  0.33563925201E+03  0.33563925201E+03  0.00000000000E+00 0.  1.
         21   -1    0    0  501  502 -0.00000000000E+00 -0.00000000000E+00 -0.77734292157E+03  0.77734292157E+03  0.00000000000E+00 0.  1.
         25    1    1    2    0    0  0.69491376580E+02 -0.83127426487E+02 -0.16739401695E+03  0.23534013123E+03  0.12500000000E+03 0.  0.
         25    1    1    2    0    0  0.34375198514E+03  0.77659672104E+01 -0.10298196286E+02  0.36600107975E+03  0.12500000000E+03 0.  0.
         25    1    1    2    0    0 -0.41324336172E+03  0.75361459277E+02 -0.26401145633E+03  0.51164096261E+03  0.12500000000E+03 0.  0.
</event>
<event>
 5    0  0.6292268E-005  0.3331507E+03  0.7546771E-02  0.1069751E+00
         21   -1    0    0  502  501  0.00000000000E+00  0.00000000000E+00  0.17317342547E+03  0.17317342547E+03  0.00000000000E+00 0. -1.
         21   -1    0    0  501  502 -0.00000000000E+00 -0.00000000000E+00 -0.64091457533E+03  0.64091457533E+03  0.00000000000E+00 0. -1.
         25    1    1    2    0    0 -0.18628303831E+03 -0.76644753157E+02 -0.33246183286E+03  0.40832788156E+03  0.12500000000E+03 0.  0.
         25    1    1    2    0    0  0.11632626926E+03 -0.60351721861E+02 -0.38357201481E+02  0.18512267867E+03  0.12500000000E+03 0.  0.
         25    1    1    2    0    0  0.69956769056E+02  0.13699647502E+03 -0.96922115516E+02  0.22063744057E+03  0.12500000000E+03 0.  0.
</event>
<event>
 5    0  0.5881324E-005  0.3404279E+03  0.7546771E-02  0.1066614E+00
         21   -1    0    0  502  501  0.00000000000E+00  0.00000000000E+00  0.95837515301E+03  0.95837515301E+03  0.00000000000E+00 0.  1.
         21   -1    0    0  501  502 -0.00000000000E+00 -0.00000000000E+00 -0.12092463437E+03  0.12092463437E+03  0.00000000000E+00 0.  1.
         25    1    1    2    0    0 -0.17638949269E+03  0.13369999862E+03  0.17773503143E+03  0.31016718743E+03  0.12500000000E+03 0.  0.
         25    1    1    2    0    0  0.13886195944E+03 -0.55242484340E+02  0.17792569123E+03  0.26385019889E+03  0.12500000000E+03 0.  0.
         25    1    1    2    0    0  0.37527533254E+02 -0.78457514278E+02  0.48178979598E+03  0.50528240105E+03  0.12500000000E+03 0.  0.
</event>
<event>
 5    0  0.5489207E-005  0.2909215E+03  0.7546771E-02  0.1089869E+00
         21   -1    0    0  502  501  0.00000000000E+00  0.00000000000E+00  0.25024659005E+03  0.25024659005E+03  0.00000000000E+00 0.  1.
         21   -1    0    0  501  502 -0.00000000000E+00 -0.00000000000E+00 -0.33820776012E+03  0.33820776012E+03  0.00000000000E+00 0.  1.
         25    1    1    2    0    0  0.24385622312E+02 -0.13123106882E+02  0.66726527562E+02  0.14437556577E+03  0.12500000000E+03 0.  0.
         25    1    1    2    0    0 -0.14122270345E+03  0.10429961941E+03 -0.41175492591E+02  0.21941441103E+03  0.12500000000E+03 0.  0.
         25    1    1    2    0    0  0.11683708114E+03 -0.91176512527E+02 -0.11351220504E+03  0.22466437337E+03  0.12500000000E+03 0.  0.
</event>
<event>
 5    0  0.5489207E-005  0.2453384E+03  0.7546771E-02  0.1116287E+00
         21   -1    0    0  502  501  0.00000000000E+00  0.00000000000E+00  0.55155157944E+02  0.55155157944E+02  0.00000000000E+00 0. -1.
         21   -1    0    0  501  502 -0.00000000000E+00 -0.00000000000E+00 -0.10913019007E+04  0.10913019007E+04  0.00000000000E+00 0. -1.
         25    1    1    2    0    0 -0.42966206757E+02  0.33615501729E+02 -0.11755037458E+03  0.18005329057E+03  0.12500000000E+03 0.  0.
         25    1    1    2    0    0  0.90921565156E+02  0.66392644906E+01 -0.57510270616E+03  0.59554927040E+03  0.12500000000E+03 0.  0.
         25    1    1    2    0    0 -0.47955358399E+02 -0.40254766220E+02 -0.34349366201E+03  0.37085449767E+03  0.12500000000E+03 0.  0.
</event>
<event>
 5    0  0.5489207E-005  0.3014147E+03  0.7546771E-02  0.1084536E+00
         21   -1    0    0  502  501  0.00000000000E+00  0.00000000000E+00  0.67422056528E+02  0.67422056528E+02  0.00000000000E+00 0. -1.
         21   -1    0    0  501  502 -0.00000000000E+00 -0.00000000000E+00 -0.13474942103E+04  0.13474942103E+04  0.00000000000E+00 0. -1.
         25    1    1    2    0    0 -0.38165167683E+02  0.10280024272E+02 -0.10275935731E+03  0.16657354063E+03  0.12500000000E+03 0.  0.
         25    1    1    2    0    0  0.49762614574E+02  0.14979170395E+03 -0.44750005791E+03  0.49070884872E+03  0.12500000000E+03 0.  0.
         25    1    1    2    0    0 -0.11597446891E+02 -0.16007172822E+03 -0.72981273852E+03  0.75763387744E+03  0.12500000000E+03 0.  0.
</event>
<event>
 5    0  0.5489207E-005  0.3556367E+03  0.7546771E-02  0.1060325E+00
         21   -1    0    0  502  501  0.00000000000E+00  0.00000000000E+00  0.75347106189E+02  0.75347106189E+02  0.00000000000E+00 0.  1.
         21   -1    0    0  501  502 -0.00000000000E+00 -0.00000000000E+00 -0.16785970219E+04  0.16785970219E+04  0.00000000000E+00 0.  1.
         25    1    1    2    0    0 -0.31983250642E+02  0.16822057847E+03 -0.67542356041E+03  0.70791459746E+03  0.12500000000E+03 0.  0.
         25    1    1    2    0    0 -0.44794809189E+02 -0.17012133431E+03 -0.17163450945E+03  0.27573764369E+03  0.12500000000E+03 0.  0.
         25    1    1    2    0    0  0.76778059831E+02  0.19007558405E+01 -0.75619184587E+03  0.77029188696E+03  0.12500000000E+03 0.  0.
</event>
<event>
 5    0  0.5489207E-005  0.2775929E+03  0.7546771E-02  0.1097011E+00
         21   -1    0    0  502  501  0.00000000000E+00  0.00000000000E+00  0.58300333525E+02  0.58300333525E+02  0.00000000000E+00 0.  1.
         21   -1    0    0  501  502 -0.00000000000E+00 -0.00000000000E+00 -0.13217385115E+04  0.13217385115E+04  0.00000000000E+00 0.  1.
         25    1    1    2    0    0 -0.54989441840E+02  0.76480439523E+02 -0.52896286725E+03  0.55163376553E+03  0.12500000000E+03 0.  0.
         25    1    1    2    0    0 -0.30453585727E+02 -0.73748421708E+02 -0.62288667499E+03  0.64029607251E+03  0.12500000000E+03 0.  0.
         25    1    1    2    0    0  0.85443027567E+02 -0.27320178151E+01 -0.11158863571E+03  0.18810900696E+03  0.12500000000E+03 0.  0.
</event>
<event>
 5    0  0.5489207E-005  0.2650564E+03  0.7546771E-02  0.1104143E+00
         21   -1    0    0  502  501  0.00000000000E+00  0.00000000000E+00  0.25224008713E+03  0.25224008713E+03  0.00000000000E+00 0.  1.
         21   -1    0    0  501  502 -0.00000000000E+00 -0.00000000000E+00 -0.27852392880E+03  0.27852392880E+03  0.00000000000E+00 0.  1.
         25    1    1    2    0    0  0.34706428897E+02  0.51463897097E+02 -0.92952425868E+01  0.13987305118E+03  0.12500000000E+03 0.  0.
         25    1    1    2    0    0  0.10342768922E+03 -0.10630364607E+03 -0.29926894548E+02  0.19626097697E+03  0.12500000000E+03 0.  0.
         25    1    1    2    0    0 -0.13813411811E+03  0.54839748969E+02  0.12938295467E+02  0.19462998778E+03  0.12500000000E+03 0.  0.
</event>
<event>
 5    0  0.5489207E-005  0.2565016E+03  0.7546771E-02  0.1109264E+00
         21   -1    0    0  502  501  0.00000000000E+00  0.00000000000E+00  0.96044035595E+03  0.96044035595E+03  0.00000000000E+00 0. -1.
         21   -1    0    0  501  502 -0.00000000000E+00 -0.00000000000E+00 -0.68503044980E+02  0.68503044980E+02  0.00000000000E+00 0. -1.
         25    1    1    2    0    0  0.11934716625E+03  0.76669208768E+02  0.35277688041E+03  0.40024797440E+03  0.12500000000E+03 0.  0.
         25    1    1    2    0    0 -0.13796770985E+03 -0.29730530279E+02  0.31761451400E+03  0.36935480624E+03  0.12500000000E+03 0.  0.
         25    1    1    2    0    0  0.18620543598E+02 -0.46938678489E+02  0.22154591657E+03  0.25934062029E+03  0.12500000000E+03 0.  0.
</event>
<event>
 5    0  0.5489207E-005  0.2483941E+03  0.7546771E-02  0.1114324E+00
         21   -1    0    0  502  501  0.00000000000E+00  0.00000000000E+00  0.99618895986E+03  0.99618895986E+03  0.00000000000E+00 0.  1.
         21   -1    0    0  501  502 -0.00000000000E+00 -0.00000000000E+00 -0.61935669507E+02  0.61935669507E+02  0.00000000000E+00 0.  1.
         25    1    1    2    0    0  0.21592946474E+02  0.73532465582E+02  0.18515590043E+03  0.23617998708E+03  0.12500000000E+03 0.  0.
         25    1    1    2    0    0  0.32015315602E+02 -0.13292115839E+03  0.48218165140E+03  0.51654347322E+03  0.12500000000E+03 0.  0.
         25    1    1    2    0    0 -0.53608262076E+02  0.59388692812E+02  0.26691573852E+03  0.30540116906E+03  0.12500000000E+03 0.  0.
</event>
<event>
 5    0  0.5489207E-005  0.2878453E+03  0.7546771E-02  0.1091480E+00
         21   -1    0    0  502  501  0.00000000000E+00  0.00000000000E+00  0.10954646869E+03  0.10954646869E+03  0.00000000000E+00 0.  1.
         21   -1    0    0  501  502 -0.00000000000E+00 -0.00000000000E+00 -0.75634515663E+03  0.75634515663E+03  0.00000000000E+00 0.  1.
         25    1    1    2    0    0  0.99593855652E+02 -0.17891020883E+03 -0.29569839430E+03  0.38077596996E+03  0.12500000000E+03 0.  0.
         25    1    1    2    0    0 -0.50521724912E+02  0.46131680107E+02 -0.18573043937E+03  0.23409693015E+03  0.12500000000E+03 0.  0.
         25    1    1    2    0    0 -0.49072130740E+02  0.13277852873E+03 -0.16536985427E+03  0.25101872521E+03  0.12500000000E+03 0.  0.
</event>
<event>
 5    0  0.5489207E-005  0.4352730E+03  0.7546771E-02  0.1032207E+00
         21   -1    0    0  502  501  0.00000000000E+00  0.00000000000E+00  0.53036313077E+03  0.53036313077E+03  0.00000000000E+00 0.  1.
         21   -1    0    0  501  502 -0.00000000000E+00 -0.00000000000E+00 -0.35723186423E+03  0.35723186423E+03  0.00000000000E+00 0.  1.
         25    1    1    2    0    0  0.12490498302E+03  0.83147401306E+01  0.37012771589E+02  0.18073553870E+03  0.12500000000E+03 0.  0.
         25    1    1    2    0    0 -0.26723664524E+03  0.10800769989E+03 -0.14702979496E+03  0.34687728147E+03  0.12500000000E+03 0.  0.
         25    1    1    2    0    0  0.14233166221E+03 -0.11632244002E+03  0.28314828991E+03  0.35998217484E+03  0.12500000000E+03 0.  0.
</event>
<event>
 5    0  0.5489207E-005  0.3555612E+03  0.7546771E-02  0.1060355E+00
         21   -1    0    0  502  501  0.00000000000E+00  0.00000000000E+00  0.43193757459E+03  0.43193757459E+03  0.00000000000E+00 0.  1.
         21   -1    0    0  501  502 -0.00000000000E+00 -0.00000000000E+00 -0.29268988764E+03  0.29268988764E+03  0.00000000000E+00 0.  1.
         25    1    1    2    0    0  0.50293406436E+02  0.82340962295E+02  0.39720690097E+02  0.16282565530E+03  0.12500000000E+03 0.  0.
         25    1    1    2    0    0 -0.29549400730E+01 -0.86938173482E+01 -0.19400382460E+03  0.23096925789E+03  0.12500000000E+03 0.  0.
         25    1    1    2    0    0 -0.47338466363E+02 -0.73647144947E+02  0.29353082145E+03  0.33083254903E+03  0.12500000000E+03 0.  0.
</event>
<event>
 5    0  0.5489207E-005  0.2771722E+03  0.7546771E-02  0.1097243E+00
         21   -1    0    0  502  501  0.00000000000E+00  0.00000000000E+00  0.29061871811E+03  0.29061871811E+03  0.00000000000E+00 0. -1.
         21   -1    0    0  501  502 -0.00000000000E+00 -0.00000000000E+00 -0.26434791287E+03  0.26434791287E+03  0.00000000000E+00 0. -1.
         25    1    1    2    0    0 -0.88039266200E+01  0.51991704856E+02  0.13067011971E+03  0.18836222202E+03  0.12500000000E+03 0.  0.
         25    1    1    2    0    0 -0.45473197904E+02  0.49437071537E+02 -0.13281886225E+03  0.19436482691E+03  0.12500000000E+03 0.  0.
         25    1    1    2    0    0  0.54277124524E+02 -0.10142877639E+03  0.28419547784E+02  0.17223958205E+03  0.12500000000E+03 0.  0.
</event>
<event>
 5    0  0.5489207E-005  0.2984563E+03  0.7546771E-02  0.1086015E+00
         21   -1    0    0  502  501  0.00000000000E+00  0.00000000000E+00  0.24948268221E+03  0.24948268221E+03  0.00000000000E+00 0.  1.
         21   -1    0    0  501  502 -0.00000000000E+00 -0.00000000000E+00 -0.35704347484E+03  0.35704347484E+03  0.00000000000E+00 0.  1.
         25    1    1    2    0    0 -0.29212628592E+02  0.63300475986E+02  0.64395501816E+02  0.15694619646E+03  0.12500000000E+03 0.  0.
         25    1    1    2    0    0  0.17688564044E+03 -0.26732571164E+02 -0.98282181434E+02  0.23934817180E+03  0.12500000000E+03 0.  0.
         25    1    1    2    0    0 -0.14767301185E+03 -0.36567904822E+02 -0.73674113011E+02  0.21023178879E+03  0.12500000000E+03 0.  0.
</event>
<event>
 5    0  0.5489207E-005  0.3856303E+03  0.7546771E-02  0.1048872E+00
         21   -1    0    0  502  501  0.00000000000E+00  0.00000000000E+00  0.58572135312E+02  0.58572135312E+02  0.00000000000E+00 0.  1.
         21   -1    0    0  501  502 -0.00000000000E+00 -0.00000000000E+00 -0.25389336199E+04  0.25389336199E+04  0.00000000000E+00 0.  1.
         25    1    1    2    0    0  0.29188402367E+03  0.46402370216E+02 -0.14144933223E+04  0.14504364247E+04  0.12500000000E+03 0.  0.
         25    1    1    2    0    0 -0.22224007975E+03 -0.91057854448E+02 -0.61575295300E+03  0.67265064115E+03  0.12500000000E+03 0.  0.
         25    1    1    2    0    0 -0.69643943925E+02  0.44655484232E+02 -0.45011520924E+03  0.47441868933E+03  0.12500000000E+03 0.  0.
</event>
<event>
 5    0  0.5489207E-005  0.2426433E+03  0.7546771E-02  0.1118044E+00
         21   -1    0    0  502  501  0.00000000000E+00  0.00000000000E+00  0.52424009006E+03  0.52424009006E+03  0.00000000000E+00 0. -1.
         21   -1    0    0  501  502 -0.00000000000E+00 -0.00000000000E+00 -0.11230686553E+03  0.11230686553E+03  0.00000000000E+00 0. -1.
         25    1    1    2    0    0 -0.78326605103E+02 -0.20601651903E+02  0.15097615821E+03  0.21208084655E+03  0.12500000000E+03 0.  0.
         25    1    1    2    0    0  0.91670961470E+02  0.88328815129E+02  0.20326730458E+03  0.27045913161E+03  0.12500000000E+03 0.  0.
         25    1    1    2    0    0 -0.13344356367E+02 -0.67727163226E+02  0.57689761749E+02  0.15400697743E+03  0.12500000000E+03 0.  0.
</event>
<event>
 5    0  0.5489207E-005  0.3014597E+03  0.7546771E-02  0.1084513E+00
         21   -1    0    0  502  501  0.00000000000E+00  0.00000000000E+00  0.11105817735E+04  0.11105817735E+04  0.00000000000E+00 0. -1.
         21   -1    0    0  501  502 -0.00000000000E+00 -0.00000000000E+00 -0.81829139293E+02  0.81829139293E+02  0.00000000000E+00 0. -1.
         25    1    1    2    0    0 -0.19686622552E+02  0.19126386485E+03  0.24559371677E+03  0.33602187849E+03  0.12500000000E+03 0.  0.
         25    1    1    2    0    0  0.22030277029E+02 -0.22477097943E+02  0.38833466612E+03  0.40916911657E+03  0.12500000000E+03 0.  0.
         25    1    1    2    0    0 -0.23436544770E+01 -0.16878676691E+03  0.39482425134E+03  0.44721991776E+03  0.12500000000E+03 0.  0.
</event>
<event>
 5    0  0.5526435E-005  0.3299802E+03  0.7546771E-02  0.1071146E+00
         21   -1    0    0  502  501  0.00000000000E+00  0.00000000000E+00  0.35902414937E+03  0.35902414937E+03  0.00000000000E+00 0. -1.
         21   -1    0    0  501  502 -0.00000000000E+00 -0.00000000000E+00 -0.30328586452E+03  0.30328586452E+03  0.00000000000E+00 0. -1.
         25    1    1    2    0    0 -0.11906564157E+03 -0.11555588841E+02 -0.11185474919E+03  0.20602583225E+03  0.12500000000E+03 0.  0.
         25    1    1    2    0    0 -0.14243162814E+02  0.14297080844E+03  0.30887271542E+02  0.19293144714E+03  0.12500000000E+03 0.  0.
         25    1    1    2    0    0  0.13330880439E+03 -0.13141521960E+03  0.13670576250E+03  0.26335273450E+03  0.12500000000E+03 0.  0.
</event>
<event>
 5    0  0.5489207E-005  0.2773166E+03  0.7546771E-02  0.1097164E+00
         21   -1    0    0  502  501  0.00000000000E+00  0.00000000000E+00  0.21081914773E+03  0.21081914773E+03  0.00000000000E+00 0. -1.
         21   -1    0    0  501  502 -0.00000000000E+00 -0.00000000000E+00 -0.36478896187E+03  0.36478896187E+03  0.00000000000E+00 0. -1.
         25    1    1    2    0    0 -0.18254101909E+03 -0.16690986961E+02 -0.10977429776E+03  0.24753829834E+03  0.12500000000E+03 0.  0.
         25    1    1    2    0    0  0.12810512946E+03  0.18288343604E+02  0.12615765104E+02  0.18035948890E+03  0.12500000000E+03 0.  0.
         25    1    1    2    0    0  0.54435889626E+02 -0.15973566428E+01 -0.56811281481E+02  0.14771032236E+03  0.12500000000E+03 0.  0.
</event>
<event>
 5    0  0.5489207E-005  0.2565759E+03  0.7546771E-02  0.1109218E+00
         21   -1    0    0  502  501  0.00000000000E+00  0.00000000000E+00  0.49585272854E+03  0.49585272854E+03  0.00000000000E+00 0. -1.
         21   -1    0    0  501  502 -0.00000000000E+00 -0.00000000000E+00 -0.13276358664E+03  0.13276358664E+03  0.00000000000E+00 0. -1.
         25    1    1    2    0    0  0.22531484620E+02 -0.14281170796E+03  0.19363883041E+03  0.27207324082E+03  0.12500000000E+03 0.  0.
         25    1    1    2    0    0  0.10853452572E+02  0.12380546998E+03  0.60587697565E+02  0.18639061384E+03  0.12500000000E+03 0.  0.
         25    1    1    2    0    0 -0.33384937191E+02  0.19006237974E+02  0.10886261392E+03  0.17015246052E+03  0.12500000000E+03 0.  0.
</event>
<event>
 5    0  0.5489207E-005  0.3014693E+03  0.7546771E-02  0.1084508E+00
         21   -1    0    0  502  501  0.00000000000E+00  0.00000000000E+00  0.78236881025E+03  0.78236881025E+03  0.00000000000E+00 0.  1.
         21   -1    0    0  501  502 -0.00000000000E+00 -0.00000000000E+00 -0.11616484751E+03  0.11616484751E+03  0.00000000000E+00 0.  1.
         25    1    1    2    0    0  0.15228966074E+02  0.89506366827E+02  0.33238333231E+03  0.36653375112E+03  0.12500000000E+03 0.  0.
         25    1    1    2    0    0 -0.12607733465E+02  0.46729397798E+02 -0.17310083999E+02  0.13515631902E+03  0.12500000000E+03 0.  0.
         25    1    1    2    0    0 -0.26212326095E+01 -0.13623576463E+03  0.35113071443E+03  0.39684358763E+03  0.12500000000E+03 0.  0.
</event>
<event>
 5    0  0.5489207E-005  0.2918783E+03  0.7546771E-02  0.1089373E+00
         21   -1    0    0  502  501  0.00000000000E+00  0.00000000000E+00  0.29404458165E+03  0.29404458165E+03  0.00000000000E+00 0.  1.
         21   -1    0    0  501  502 -0.00000000000E+00 -0.00000000000E+00 -0.28972797081E+03  0.28972797081E+03  0.00000000000E+00 0.  1.
         25    1    1    2    0    0 -0.32412017949E+01 -0.55735925242E+02  0.20874981526E+03  0.24963670427E+03  0.12500000000E+03 0.  0.
         25    1    1    2    0    0  0.99015046965E+01  0.53784819489E+02 -0.13017232398E+03  0.18857539747E+03  0.12500000000E+03 0.  0.
         25    1    1    2    0    0 -0.66603029016E+01  0.19511057526E+01 -0.74260880430E+02  0.14556045071E+03  0.12500000000E+03 0.  0.
</event>
<event>
 5    0  0.5489207E-005  0.2787245E+03  0.7546771E-02  0.1096388E+00
         21   -1    0    0  502  501  0.00000000000E+00  0.00000000000E+00  0.29550062509E+03  0.29550062509E+03  0.00000000000E+00 0. -1.
         21   -1    0    0  501  502 -0.00000000000E+00 -0.00000000000E+00 -0.26290086564E+03  0.26290086564E+03  0.00000000000E+00 0. -1.
         25    1    1    2    0    0  0.94984180313E+01 -0.19071661956E+02  0.20460542077E+03  0.24071212359E+03  0.12500000000E+03 0.  0.
         25    1    1    2    0    0  0.36786444676E+02  0.21378886571E+02 -0.67495547547E+02  0.14829345313E+03  0.12500000000E+03 0.  0.
         25    1    1    2    0    0 -0.46284862708E+02 -0.23072246156E+01 -0.10451011378E+03  0.16939591401E+03  0.12500000000E+03 0.  0.
</event>
<event>
 5    0  0.5489207E-005  0.2755771E+03  0.7546771E-02  0.1098129E+00
         21   -1    0    0  502  501  0.00000000000E+00  0.00000000000E+00  0.10612601374E+03  0.10612601374E+03  0.00000000000E+00 0.  1.
         21   -1    0    0  501  502 -0.00000000000E+00 -0.00000000000E+00 -0.71559008926E+03  0.71559008926E+03  0.00000000000E+00 0.  1.
         25    1    1    2    0    0 -0.83418959366E+02 -0.42369027951E+02 -0.13109959033E+03  0.20387731580E+03  0.12500000000E+03 0.  0.
         25    1    1    2    0    0 -0.56336798460E+02 -0.87634908069E+02 -0.20701803098E+03  0.26331573657E+03  0.12500000000E+03 0.  0.
         25    1    1    2    0    0  0.13975575783E+03  0.13000393602E+03 -0.27134645420E+03  0.35452305064E+03  0.12500000000E+03 0.  0.
</event>
<event>
 5    0  0.5489207E-005  0.3364507E+03  0.7546771E-02  0.1068318E+00
         21   -1    0    0  502  501  0.00000000000E+00  0.00000000000E+00  0.13479843777E+04  0.13479843777E+04  0.00000000000E+00 0. -1.
         21   -1    0    0  501  502 -0.00000000000E+00 -0.00000000000E+00 -0.83976533237E+02  0.83976533237E+02  0.00000000000E+00 0. -1.
         25    1    1    2    0    0 -0.26031078770E+01 -0.66564028783E+02  0.81882290459E+03  0.83098345060E+03  0.12500000000E+03 0.  0.
         25    1    1    2    0    0 -0.10222766684E+03 -0.52119099370E+02  0.88948748294E+02  0.19158229618E+03  0.12500000000E+03 0.  0.
         25    1    1    2    0    0  0.10483077472E+03  0.11868312815E+03  0.35623619156E+03  0.40939516414E+03  0.12500000000E+03 0.  0.
</event>
<event>
 5    0  0.5489207E-005  0.2250865E+03  0.7546771E-02  0.1130147E+00
         21   -1    0    0  502  501  0.00000000000E+00  0.00000000000E+00  0.40419030995E+03  0.40419030995E+03  0.00000000000E+00 0. -1.
         21   -1    0    0  501  502 -0.00000000000E+00 -0.00000000000E+00 -0.12534674837E+03  0.12534674837E+03  0.00000000000E+00 0. -1.
         25    1    1    2    0    0 -0.35385442702E+01  0.42604195484E+02  0.12060393838E+03  0.17887970461E+03  0.12500000000E+03 0.  0.
         25    1    1    2    0    0  0.16547016300E+02 -0.10986044887E+03  0.60578307917E+02  0.17787032739E+03  0.12500000000E+03 0.  0.
         25    1    1    2    0    0 -0.13008472030E+02  0.67256253389E+02  0.97661315285E+02  0.17278702633E+03  0.12500000000E+03 0.  0.
</event>
<event>
 5    0  0.5489207E-005  0.2740007E+03  0.7546771E-02  0.1099012E+00
         21   -1    0    0  502  501  0.00000000000E+00  0.00000000000E+00  0.47810012204E+03  0.47810012204E+03  0.00000000000E+00 0. -1.
         21   -1    0    0  501  502 -0.00000000000E+00 -0.00000000000E+00 -0.15703062719E+03  0.15703062719E+03  0.00000000000E+00 0. -1.
         25    1    1    2    0    0  0.29771853330E+02  0.46611067507E+02  0.18112861790E+03  0.22691745434E+03  0.12500000000E+03 0.  0.
         25    1    1    2    0    0 -0.58425453877E+02  0.11076062223E+03  0.37676509880E+02  0.18090320200E+03  0.12500000000E+03 0.  0.
         25    1    1    2    0    0  0.28653600547E+02 -0.15737168974E+03  0.10226436708E+03  0.22731009289E+03  0.12500000000E+03 0.  0.
</event>
<event>
 5    0  0.5489207E-005  0.2997563E+03  0.7546771E-02  0.1085363E+00
         21   -1    0    0  502  501  0.00000000000E+00  0.00000000000E+00  0.60265845793E+03  0.60265845793E+03  0.00000000000E+00 0. -1.
         21   -1    0    0  501  502 -0.00000000000E+00 -0.00000000000E+00 -0.14909575594E+03  0.14909575594E+03  0.00000000000E+00 0. -1.
         25    1    1    2    0    0  0.61099465708E+01 -0.46232075455E+02  0.62384027132E+02  0.14728035541E+03  0.12500000000E+03 0.  0.
         25    1    1    2    0    0  0.10103090574E+02  0.17529294275E+03  0.36260211355E+03  0.42182340021E+03  0.12500000000E+03 0.  0.
         25    1    1    2    0    0 -0.16213037145E+02 -0.12906086730E+03  0.28576561312E+02  0.18265045825E+03  0.12500000000E+03 0.  0.
</event>
<event>
 5    0  0.5489207E-005  0.2964659E+03  0.7546771E-02  0.1087021E+00
         21   -1    0    0  502  501  0.00000000000E+00  0.00000000000E+00  0.69758434145E+02  0.69758434145E+02  0.00000000000E+00 0.  1.
         21   -1    0    0  501  502 -0.00000000000E+00 -0.00000000000E+00 -0.12599480425E+04  0.12599480425E+04  0.00000000000E+00 0.  1.
         25    1    1    2    0    0 -0.10746326128E+03 -0.63362002145E+02 -0.63149604108E+03  0.65572505346E+03  0.12500000000E+03 0.  0.
         25    1    1    2    0    0  0.16743063410E+02 -0.93063432142E+02 -0.24822823970E+03  0.29357007947E+03  0.12500000000E+03 0.  0.
         25    1    1    2    0    0  0.90720197872E+02  0.15642543429E+03 -0.31046532755E+03  0.38041134368E+03  0.12500000000E+03 0.  0.
</event>
<event>
 5    0  0.5489207E-005  0.2422433E+03  0.7546771E-02  0.1118307E+00
         21   -1    0    0  502  501  0.00000000000E+00  0.00000000000E+00  0.19767372432E+03  0.19767372432E+03  0.00000000000E+00 0.  1.
         21   -1    0    0  501  502 -0.00000000000E+00 -0.00000000000E+00 -0.29686201474E+03  0.29686201474E+03  0.00000000000E+00 0.  1.
         25    1    1    2    0    0  0.91078599406E+02 -0.28998687773E+02 -0.56766678992E+02  0.16728326577E+03  0.12500000000E+03 0.  0.
         25    1    1    2    0    0 -0.71014508465E+02  0.90456031077E+02 -0.70233646572E+02  0.18380184733E+03  0.12500000000E+03 0.  0.
         25    1    1    2    0    0 -0.20064090941E+02 -0.61457343304E+02  0.27812035141E+02  0.14345062597E+03  0.12500000000E+03 0.  0.
</event>
<event>
 5    0  0.5489207E-005  0.4040344E+03  0.7546771E-02  0.1042392E+00
         21   -1    0    0  502  501  0.00000000000E+00  0.00000000000E+00  0.65388790569E+03  0.65388790569E+03  0.00000000000E+00 0.  1.
         21   -1    0    0  501  502 -0.00000000000E+00 -0.00000000000E+00 -0.24965108206E+03  0.24965108206E+03  0.00000000000E+00 0.  1.
         25    1    1    2    0    0 -0.63910305994E+02 -0.37089131692E+02  0.12594606570E+03  0.19221743513E+03  0.12500000000E+03 0.  0.
         25    1    1    2    0    0  0.25579543701E+03 -0.15712339734E+03  0.24911183573E+03  0.40963492806E+03  0.12500000000E+03 0.  0.
         25    1    1    2    0    0 -0.19188513102E+03  0.19421252903E+03  0.29178922203E+02  0.30168662456E+03  0.12500000000E+03 0.  0.
</event>
<event>
 5    0  0.5489207E-005  0.2421303E+03  0.7546771E-02  0.1118382E+00
         21   -1    0    0  502  501  0.00000000000E+00  0.00000000000E+00  0.21598038171E+02  0.21598038171E+02  0.00000000000E+00 0.  1.
         21   -1    0    0  501  502 -0.00000000000E+00 -0.00000000000E+00 -0.27144642677E+04  0.27144642677E+04  0.00000000000E+00 0.  1.
         25    1    1    2    0    0 -0.90033817070E+02 -0.37155207747E+02 -0.51191008597E+03  0.53587641653E+03  0.12500000000E+03 0.  0.
         25    1    1    2    0    0  0.72406889282E+02 -0.29462561750E+02 -0.11352818982E+04  0.11448147398E+04  0.12500000000E+03 0.  0.
         25    1    1    2    0    0  0.17626927788E+02  0.66617769497E+02 -0.10456742454E+04  0.10553711495E+04  0.12500000000E+03 0.  0.
</event>
<event>
 5    0  0.5489207E-005  0.3002467E+03  0.7546771E-02  0.1085117E+00
         21   -1    0    0  502  501  0.00000000000E+00  0.00000000000E+00  0.12702821549E+03  0.12702821549E+03  0.00000000000E+00 0.  1.
         21   -1    0    0  501  502 -0.00000000000E+00 -0.00000000000E+00 -0.70966957678E+03  0.70966957678E+03  0.00000000000E+00 0.  1.
         25    1    1    2    0    0  0.39800296747E+02 -0.94262335683E+02 -0.19437708785E+03  0.25273880555E+03  0.12500000000E+03 0.  0.
         25    1    1    2    0    0  0.90266228574E+02  0.69290381673E+02 -0.16322088664E+02  0.16982508528E+03  0.12500000000E+03 0.  0.
         25    1    1    2    0    0 -0.13006652532E+03  0.24971954011E+02 -0.37194218479E+03  0.41413390144E+03  0.12500000000E+03 0.  0.
</event>
<event>
 5    0  0.5489207E-005  0.2538446E+03  0.7546771E-02  0.1110899E+00
         21   -1    0    0  502  501  0.00000000000E+00  0.00000000000E+00  0.10779178382E+03  0.10779178382E+03  0.00000000000E+00 0. -1.
         21   -1    0    0  501  502 -0.00000000000E+00 -0.00000000000E+00 -0.59779212624E+03  0.59779212624E+03  0.00000000000E+00 0. -1.
         25    1    1    2    0    0 -0.92993045138E+02  0.21942082797E+02 -0.13648103353E+03  0.20828162174E+03  0.12500000000E+03 0.  0.
         25    1    1    2    0    0  0.48803202125E+02  0.34002835323E+02 -0.32127983236E+03  0.34983378343E+03  0.12500000000E+03 0.  0.
         25    1    1    2    0    0  0.44189843013E+02 -0.55944918120E+02 -0.32239476527E+02  0.14746850489E+03  0.12500000000E+03 0.  0.
</event>
<event>
 5    0  0.5489207E-005  0.3697668E+03  0.7546771E-02  0.1054782E+00
         21   -1    0    0  502  501  0.00000000000E+00  0.00000000000E+00  0.22335769579E+03  0.22335769579E+03  0.00000000000E+00 0. -1.
         21   -1    0    0  501  502 -0.00000000000E+00 -0.00000000000E+00 -0.61214600018E+03  0.61214600018E+03  0.00000000000E+00 0. -1.
         25    1    1    2    0    0 -0.88252027367E+02 -0.48650140487E+02 -0.70483513736E+02  0.17535159598E+03  0.12500000000E+03 0.  0.
         25    1    1    2    0    0  0.15682431967E+03  0.17827167427E+03 -0.37333504722E+03  0.45975940944E+03  0.12500000000E+03 0.  0.
         25    1    1    2    0    0 -0.68572292299E+02 -0.12962153378E+03  0.55030256567E+02  0.20039269056E+03  0.12500000000E+03 0.  0.
</event>
<event>
 5    0  0.5489207E-005  0.2675035E+03  0.7546771E-02  0.1102717E+00
         21   -1    0    0  502  501  0.00000000000E+00  0.00000000000E+00  0.48333439854E+03  0.48333439854E+03  0.00000000000E+00 0.  1.
         21   -1    0    0  501  502 -0.00000000000E+00 -0.00000000000E+00 -0.14805091697E+03  0.14805091697E+03  0.00000000000E+00 0.  1.
         25    1    1    2    0    0  0.10428281429E+03  0.27724724714E+02  0.18347843089E+03  0.24684590400E+03  0.12500000000E+03 0.  0.
         25    1    1    2    0    0 -0.20798412721E+01 -0.76066320798E+02 -0.15373272914E+02  0.14714533095E+03  0.12500000000E+03 0.  0.
         25    1    1    2    0    0 -0.10220297302E+03  0.48341596084E+02  0.16717832360E+03  0.23739408056E+03  0.12500000000E+03 0.  0.
</event>
<event>
 5    0  0.5489207E-005  0.3041929E+03  0.7546771E-02  0.1083163E+00
         21   -1    0    0  502  501  0.00000000000E+00  0.00000000000E+00  0.17718205910E+03  0.17718205910E+03  0.00000000000E+00 0. -1.
         21   -1    0    0  501  502 -0.00000000000E+00 -0.00000000000E+00 -0.52224984406E+03  0.52224984406E+03  0.00000000000E+00 0.  1.
         25    1    1    2    0    0 -0.67026698472E+02  0.18816675795E+03 -0.17982251503E+03  0.29641262459E+03  0.12500000000E+03 0.  0.
         25    1    1    2    0    0  0.92644444601E+02 -0.72591036595E+02 -0.15375977696E+03  0.23047672490E+03  0.12500000000E+03 0.  0.
         25    1    1    2    0    0 -0.25617746129E+02 -0.11557572135E+03 -0.11485492977E+02  0.17254255368E+03  0.12500000000E+03 0.  0.
</event>
<event>
 5    0  0.5489207E-005  0.2033758E+03  0.7546771E-02  0.1146922E+00
         21   -1    0    0  502  501  0.00000000000E+00  0.00000000000E+00  0.42302408147E+02  0.42302408147E+02  0.00000000000E+00 0.  1.
         21   -1    0    0  501  502 -0.00000000000E+00 -0.00000000000E+00 -0.97776265488E+03  0.97776265488E+03  0.00000000000E+00 0.  1.
         25    1    1    2    0    0  0.83266941914E+01  0.29031866908E+02 -0.21397364836E+03  0.24964355655E+03  0.12500000000E+03 0.  0.
         25    1    1    2    0    0  0.31963201649E+02 -0.47016838564E+02 -0.34844721076E+03  0.37452995616E+03  0.12500000000E+03 0.  0.
         25    1    1    2    0    0 -0.40289895840E+02  0.17984971656E+02 -0.37303938761E+03  0.39589155033E+03  0.12500000000E+03 0.  0.
</event>
<event>
 5    0  0.5489207E-005  0.4760263E+03  0.7546771E-02  0.1020233E+00
         21   -1    0    0  502  501  0.00000000000E+00  0.00000000000E+00  0.12708092248E+04  0.12708092248E+04  0.00000000000E+00 0. -1.
         21   -1    0    0  501  502 -0.00000000000E+00 -0.00000000000E+00 -0.17831242501E+03  0.17831242501E+03  0.00000000000E+00 0. -1.
         25    1    1    2    0    0 -0.71951722980E+02 -0.18309114038E+03  0.55154594089E+03  0.59877152658E+03  0.12500000000E+03 0.  0.
         25    1    1    2    0    0  0.12771816555E+03  0.35305647248E+03  0.48330897206E+03  0.62463858754E+03  0.12500000000E+03 0.  0.
         25    1    1    2    0    0 -0.55766442572E+02 -0.16996533210E+03  0.57641886868E+02  0.22571153571E+03  0.12500000000E+03 0.  0.
</event>
<event>
 5    0  0.5489207E-005  0.2164586E+03  0.7546771E-02  0.1136551E+00
         21   -1    0    0  502  501  0.00000000000E+00  0.00000000000E+00  0.65590454853E+02  0.65590454853E+02  0.00000000000E+00 0.  1.
         21   -1    0    0  501  502 -0.00000000000E+00 -0.00000000000E+00 -0.71434660586E+03  0.71434660586E+03  0.00000000000E+00 0.  1.
         25    1    1    2    0    0  0.34530764761E+02  0.80492957728E+02 -0.20014149081E+03  0.25170042968E+03  0.12500000000E+03 0.  0.
         25    1    1    2    0    0 -0.28148617661E+02  0.27567566295E+01 -0.22075010351E+03  0.25525585710E+03  0.12500000000E+03 0.  0.
         25    1    1    2    0    0 -0.63821471008E+01 -0.83249714358E+02 -0.22786455668E+03  0.27298077393E+03  0.12500000000E+03 0.  0.
</event>
<event>
 5    0  0.5489207E-005  0.2556621E+03  0.7546771E-02  0.1109778E+00
         21   -1    0    0  502  501  0.00000000000E+00  0.00000000000E+00  0.29898251726E+02  0.29898251726E+02  0.00000000000E+00 0. -1.
         21   -1    0    0  501  502 -0.00000000000E+00 -0.00000000000E+00 -0.21861844706E+04  0.21861844706E+04  0.00000000000E+00 0. -1.
         25    1    1    2    0    0  0.19359149089E+02  0.28552902301E+00 -0.23411004518E+03  0.26609654532E+03  0.12500000000E+03 0.  0.
         25    1    1    2    0    0 -0.89209987467E+02  0.41504240202E+00 -0.14044906891E+04  0.14128615254E+04  0.12500000000E+03 0.  0.
         25    1    1    2    0    0  0.69850838378E+02 -0.70057142503E+00 -0.51768548461E+03  0.53712465164E+03  0.12500000000E+03 0.  0.
</event>
<event>
 5    0  0.5489207E-005  0.2212522E+03  0.7546771E-02  0.1132953E+00
         21   -1    0    0  502  501  0.00000000000E+00  0.00000000000E+00  0.23524559603E+03  0.23524559603E+03  0.00000000000E+00 0.  1.
         21   -1    0    0  501  502 -0.00000000000E+00 -0.00000000000E+00 -0.20809122334E+03  0.20809122334E+03  0.00000000000E+00 0.  1.
         25    1    1    2    0    0  0.35277919217E+02 -0.43712482890E+02  0.21943579576E+02  0.13878700742E+03  0.12500000000E+03 0.  0.
         25    1    1    2    0    0  0.31840534606E+02 -0.24119800012E+02  0.50951448604E+02  0.14077156855E+03  0.12500000000E+03 0.  0.
         25    1    1    2    0    0 -0.67118453823E+02  0.67832282902E+02 -0.45740655487E+02  0.16377824340E+03  0.12500000000E+03 0.  0.
</event>
<event>
 5    0  0.5489207E-005  0.3156302E+03  0.7546771E-02  0.1077678E+00
         21   -1    0    0  502  501  0.00000000000E+00  0.00000000000E+00  0.61437784321E+03  0.61437784321E+03  0.00000000000E+00 0.  1.
         21   -1    0    0  501  502 -0.00000000000E+00 -0.00000000000E+00 -0.16215174863E+03  0.16215174863E+03  0.00000000000E+00 0.  1.
         25    1    1    2    0    0  0.65767059339E+02  0.79583163356E+02  0.20960807259E+03  0.26498930182E+03  0.12500000000E+03 0.  0.
         25    1    1    2    0    0 -0.66268727783E+01  0.13691455067E+03  0.55207368785E+02  0.19355196511E+03  0.12500000000E+03 0.  0.
         25    1    1    2    0    0 -0.59140186561E+02 -0.21649771403E+03  0.18741065320E+03  0.31798832491E+03  0.12500000000E+03 0.  0.
</event>
<event>
 5    0  0.5489207E-005  0.2210260E+03  0.7546771E-02  0.1133120E+00
         21   -1    0    0  502  501  0.00000000000E+00  0.00000000000E+00  0.60699840838E+03  0.60699840838E+03  0.00000000000E+00 0.  1.
         21   -1    0    0  501  502 -0.00000000000E+00 -0.00000000000E+00 -0.80482099340E+02  0.80482099340E+02  0.00000000000E+00 0.  1.
         25    1    1    2    0    0 -0.52740917295E+02 -0.78155253809E+02  0.23571221185E+03  0.28297543156E+03  0.12500000000E+03 0.  0.
         25    1    1    2    0    0 -0.17970600326E+02  0.32333317415E+02  0.13920849343E+03  0.19071547009E+03  0.12500000000E+03 0.  0.
         25    1    1    2    0    0  0.70711517622E+02  0.45821936394E+02  0.15159560377E+03  0.21378960606E+03  0.12500000000E+03 0.  0.
</event>
<event>
 5    0  0.5489207E-005  0.5040016E+03  0.7546771E-02  0.1012740E+00
         21   -1    0    0  502  501  0.00000000000E+00  0.00000000000E+00  0.62480086618E+03  0.62480086618E+03  0.00000000000E+00 0. -1.
         21   -1    0    0  501  502 -0.00000000000E+00 -0.00000000000E+00 -0.40655774089E+03  0.40655774089E+03  0.00000000000E+00 0. -1.
         25    1    1    2    0    0  0.56755634690E+02  0.18497972763E+03  0.25555066071E+03  0.34404918528E+03  0.12500000000E+03 0.  0.
         25    1    1    2    0    0 -0.16815146168E+03  0.18507393296E+03 -0.14613420879E+01  0.27956110289E+03  0.12500000000E+03 0.  0.
         25    1    1    2    0    0  0.11139582699E+03 -0.37005366059E+03 -0.35846193324E+02  0.40774831890E+03  0.12500000000E+03 0.  0.
</event>
<event>
 5    0  0.5489207E-005  0.3064723E+03  0.7546771E-02  0.1082049E+00
         21   -1    0    0  502  501  0.00000000000E+00  0.00000000000E+00  0.40283334671E+03  0.40283334671E+03  0.00000000000E+00 0.  1.
         21   -1    0    0  501  502 -0.00000000000E+00 -0.00000000000E+00 -0.23316155532E+03  0.23316155532E+03  0.00000000000E+00 0.  1.
         25    1    1    2    0    0  0.88148267759E+02  0.24796517638E+02 -0.12638162509E+03  0.19995574399E+03  0.12500000000E+03 0.  0.
         25    1    1    2    0    0 -0.93097936774E+02 -0.27862308054E+02  0.60853108053E+02  0.16962203513E+03  0.12500000000E+03 0.  0.
         25    1    1    2    0    0  0.49496690153E+01  0.30657904166E+01  0.23520030842E+03  0.26641712290E+03  0.12500000000E+03 0.  0.
</event>
<event>
 5    0  0.5489207E-005  0.3297506E+03  0.7546771E-02  0.1071247E+00
         21   -1    0    0  502  501  0.00000000000E+00  0.00000000000E+00  0.79932648436E+02  0.79932648436E+02  0.00000000000E+00 0.  1.
         21   -1    0    0  501  502 -0.00000000000E+00 -0.00000000000E+00 -0.13603385214E+04  0.13603385214E+04  0.00000000000E+00 0.  1.
         25    1    1    2    0    0 -0.66244162437E+00  0.86996274651E+02 -0.49923925780E+02  0.16026911430E+03  0.12500000000E+03 0.  0.
         25    1    1    2    0    0 -0.86550127073E+02  0.20333689354E+00 -0.81299030524E+03  0.82708476123E+03  0.12500000000E+03 0.  0.
         25    1    1    2    0    0  0.87212568698E+02 -0.87199611545E+02 -0.41749164193E+03  0.45291729430E+03  0.12500000000E+03 0.  0.
</event>
<event>
 5    0  0.5489207E-005  0.3007485E+03  0.7546771E-02  0.1084867E+00
         21   -1    0    0  502  501  0.00000000000E+00  0.00000000000E+00  0.77359346867E+03  0.77359346867E+03  0.00000000000E+00 0. -1.
         21   -1    0    0  501  502 -0.00000000000E+00 -0.00000000000E+00 -0.11692142340E+03  0.11692142340E+03  0.00000000000E+00 0. -1.
         25    1    1    2    0    0 -0.10071997414E+03  0.62793660675E+02  0.42432688911E+03  0.45800203693E+03  0.12500000000E+03 0.  0.
         25    1    1    2    0    0  0.14227814583E+03 -0.58355752347E+02  0.44616236867E+02  0.20313560299E+03  0.12500000000E+03 0.  0.
         25    1    1    2    0    0 -0.41558171689E+02 -0.44379083279E+01  0.18772891929E+03  0.22937725215E+03  0.12500000000E+03 0.  0.
</event>
<event>
 5    0  0.5489207E-005  0.3599318E+03  0.7546771E-02  0.1058611E+00
         21   -1    0    0  502  501  0.00000000000E+00  0.00000000000E+00  0.32348427758E+03  0.32348427758E+03  0.00000000000E+00 0.  1.
         21   -1    0    0  501  502 -0.00000000000E+00 -0.00000000000E+00 -0.40048599558E+03  0.40048599558E+03  0.00000000000E+00 0.  1.
         25    1    1    2    0    0  0.77573502331E+02  0.20247498927E+01 -0.82687037991E+02  0.16877172194E+03  0.12500000000E+03 0.  0.
         25    1    1    2    0    0 -0.81843578046E+02  0.63829121917E+00  0.24396113621E+03  0.28607833658E+03  0.12500000000E+03 0.  0.
         25    1    1    2    0    0  0.42700757149E+01 -0.26630411119E+01 -0.23827581622E+03  0.26912021464E+03  0.12500000000E+03 0.  0.
</event>
<event>
 5    0  0.5489207E-005  0.3123203E+03  0.7546771E-02  0.1079239E+00
         21   -1    0    0  502  501  0.00000000000E+00  0.00000000000E+00  0.69652074322E+03  0.69652074322E+03  0.00000000000E+00 0. -1.
         21   -1    0    0  501  502 -0.00000000000E+00 -0.00000000000E+00 -0.14004461578E+03  0.14004461578E+03  0.00000000000E+00 0. -1.
         25    1    1    2    0    0 -0.28205783628E+02  0.93479972653E+02  0.14691771335E+03  0.21620334413E+03  0.12500000000E+03 0.  0.
         25    1    1    2    0    0  0.22426594643E+02 -0.21243229238E+03  0.36680959703E+03  0.44249826153E+03  0.12500000000E+03 0.  0.
         25    1    1    2    0    0  0.57791889851E+01  0.11895231972E+03  0.42748817061E+02  0.17786375334E+03  0.12500000000E+03 0.  0.
</event>
<event>
 5    0  0.5489207E-005  0.3961197E+03  0.7546771E-02  0.1045132E+00
         21   -1    0    0  502  501  0.00000000000E+00  0.00000000000E+00  0.49340290239E+03  0.49340290239E+03  0.00000000000E+00 0.  1.
         21   -1    0    0  501  502 -0.00000000000E+00 -0.00000000000E+00 -0.31801761568E+03  0.31801761568E+03  0.00000000000E+00 0.  1.
         25    1    1    2    0    0 -0.12461793145E+03  0.14817438932E+02  0.36309173842E+02  0.18081078906E+03  0.12500000000E+03 0.  0.
         25    1    1    2    0    0 -0.53126034315E+01 -0.23602967315E+03 -0.70802965143E+02  0.27636260644E+03  0.12500000000E+03 0.  0.
         25    1    1    2    0    0  0.12993053489E+03  0.22121223422E+03  0.20987907801E+03  0.35424712257E+03  0.12500000000E+03 0.  0.
</event>
<event>
 5    0  0.5489207E-005  0.5230637E+03  0.7546771E-02  0.1007928E+00
         21   -1    0    0  502  501  0.00000000000E+00  0.00000000000E+00  0.72889437619E+03  0.72889437619E+03  0.00000000000E+00 0. -1.
         21   -1    0    0  501  502 -0.00000000000E+00 -0.00000000000E+00 -0.37535699972E+03  0.37535699972E+03  0.00000000000E+00 0. -1.
         25    1    1    2    0    0  0.28412006777E+03  0.32073441945E+03  0.14915125064E+03  0.47060161102E+03  0.12500000000E+03 0.  0.
         25    1    1    2    0    0 -0.27666977626E+03 -0.14790674323E+03  0.24393051533E+03  0.41659292613E+03  0.12500000000E+03 0.  0.
         25    1    1    2    0    0 -0.74502915101E+01 -0.17282767622E+03 -0.39544389498E+02  0.21705683876E+03  0.12500000000E+03 0.  0.
</event>
<event>
 5    0  0.6206521E-005  0.5635483E+03  0.7546771E-02  0.9984058E-01
         21   -1    0    0  502  501  0.00000000000E+00  0.00000000000E+00  0.28483264252E+03  0.28483264252E+03  0.00000000000E+00 0. -1.
         21   -1    0    0  501  502 -0.00000000000E+00 -0.00000000000E+00 -0.11149940944E+04  0.11149940944E+04  0.00000000000E+00 0. -1.
         25    1    1    2    0    0  0.11423098426E+03  0.25901615931E+03 -0.33551027076E+02  0.31126959371E+03  0.12500000000E+03 0.  0.
         25    1    1    2    0    0  0.17791775899E+03 -0.29471907410E+03 -0.21460461280E+03  0.42449287560E+03  0.12500000000E+03 0.  0.
         25    1    1    2    0    0 -0.29214874325E+03  0.35702914789E+02 -0.58200581204E+03  0.66406426764E+03  0.12500000000E+03 0.  0.
</event>
<event>
 5    0  0.5489207E-005  0.3190600E+03  0.7546771E-02  0.1076083E+00
         21   -1    0    0  502  501  0.00000000000E+00  0.00000000000E+00  0.13954134769E+03  0.13954134769E+03  0.00000000000E+00 0.  1.
         21   -1    0    0  501  502 -0.00000000000E+00 -0.00000000000E+00 -0.72952792060E+03  0.72952792060E+03  0.00000000000E+00 0.  1.
         25    1    1    2    0    0  0.18037874542E+02 -0.41334707245E+01 -0.44191207973E+02  0.13386677467E+03  0.12500000000E+03 0.  0.
         25    1    1    2    0    0 -0.37866323905E+02 -0.12209222887E+03 -0.52576798744E+03  0.55533534684E+03  0.12500000000E+03 0.  0.
         25    1    1    2    0    0  0.19828449363E+02  0.12622569959E+03 -0.20027377508E+02  0.17986714678E+03  0.12500000000E+03 0.  0.
</event>
<event>
 5    0  0.5489207E-005  0.2824742E+03  0.7546771E-02  0.1094345E+00
         21   -1    0    0  502  501  0.00000000000E+00  0.00000000000E+00  0.43028251904E+03  0.43028251904E+03  0.00000000000E+00 0. -1.
         21   -1    0    0  501  502 -0.00000000000E+00 -0.00000000000E+00 -0.18544025536E+03  0.18544025536E+03  0.00000000000E+00 0. -1.
         25    1    1    2    0    0  0.11632739280E+03  0.62994689832E+01 -0.21058838678E+02  0.17216335357E+03  0.12500000000E+03 0.  0.
         25    1    1    2    0    0 -0.15000555949E+03  0.29897343425E+02  0.77668504934E+02  0.21225672116E+03  0.12500000000E+03 0.  0.
         25    1    1    2    0    0  0.33678166688E+02 -0.36196812409E+02  0.18823259743E+03  0.23130269967E+03  0.12500000000E+03 0.  0.
</event>
<event>
 5    0  0.5489207E-005  0.2745364E+03  0.7546771E-02  0.1098711E+00
         21   -1    0    0  502  501  0.00000000000E+00  0.00000000000E+00  0.28063429912E+03  0.28063429912E+03  0.00000000000E+00 0. -1.
         21   -1    0    0  501  502 -0.00000000000E+00 -0.00000000000E+00 -0.26857101976E+03  0.26857101976E+03  0.00000000000E+00 0. -1.
         25    1    1    2    0    0 -0.69603587221E+02 -0.84792922613E+02  0.17618823990E+01  0.16632078436E+03  0.12500000000E+03 0.  0.
         25    1    1    2    0    0  0.23876519988E+02  0.13875211483E+03 -0.89025142596E+02  0.20826116678E+03  0.12500000000E+03 0.  0.
         25    1    1    2    0    0  0.45727067233E+02 -0.53959192214E+02  0.99326539555E+02  0.17462336774E+03  0.12500000000E+03 0.  0.
</event>
<event>
 5    0  0.5489207E-005  0.2812481E+03  0.7546771E-02  0.1095009E+00
         21   -1    0    0  502  501  0.00000000000E+00  0.00000000000E+00  0.30613488767E+02  0.30613488767E+02  0.00000000000E+00 0.  1.
         21   -1    0    0  501  502 -0.00000000000E+00 -0.00000000000E+00 -0.25838436742E+04  0.25838436742E+04  0.00000000000E+00 0.  1.
         25    1    1    2    0    0 -0.16580967360E+02  0.77038511747E+02 -0.15027749350E+04  0.15100223065E+04  0.12500000000E+03 0.  0.
         25    1    1    2    0    0 -0.60204507304E+02 -0.12394483310E+03 -0.53238200540E+03  0.56395257249E+03  0.12500000000E+03 0.  0.
         25    1    1    2    0    0  0.76785474664E+02  0.46906321352E+02 -0.51807324508E+03  0.54048228405E+03  0.12500000000E+03 0.  0.
</event>
<event>
 5    0  0.5489207E-005  0.3944399E+03  0.7546771E-02  0.1045722E+00
         21   -1    0    0  502  501  0.00000000000E+00  0.00000000000E+00  0.55392713144E+03  0.55392713144E+03  0.00000000000E+00 0.  1.
         21   -1    0    0  501  502 -0.00000000000E+00 -0.00000000000E+00 -0.28087236826E+03  0.28087236826E+03  0.00000000000E+00 0.  1.
         25    1    1    2    0    0  0.33045866253E+02 -0.16075677545E+03  0.33800069605E+03  0.39598515207E+03  0.12500000000E+03 0.  0.
         25    1    1    2    0    0 -0.36627954279E+02  0.21933198311E+03  0.49029366539E+02  0.25976336276E+03  0.12500000000E+03 0.  0.
         25    1    1    2    0    0  0.35820880262E+01 -0.58575207656E+02 -0.11397529941E+03  0.17905098487E+03  0.12500000000E+03 0.  0.
</event>
<event>
 5    0  0.5489207E-005  0.2411843E+03  0.7546771E-02  0.1119006E+00
         21   -1    0    0  502  501  0.00000000000E+00  0.00000000000E+00  0.17374054205E+03  0.17374054205E+03  0.00000000000E+00 0. -1.
         21   -1    0    0  501  502 -0.00000000000E+00 -0.00000000000E+00 -0.33480875870E+03  0.33480875870E+03  0.00000000000E+00 0. -1.
         25    1    1    2    0    0  0.19188680902E+02 -0.89791095890E+02 -0.14510759680E+02  0.15577614876E+03  0.12500000000E+03 0.  0.
         25    1    1    2    0    0  0.75703722293E+01  0.61838015749E+02 -0.16981329044E+03  0.21986997143E+03  0.12500000000E+03 0.  0.
         25    1    1    2    0    0 -0.26759053131E+02  0.27953080141E+02  0.23255833467E+02  0.13290318056E+03  0.12500000000E+03 0.  0.
</event>
<event>
 5    0  0.5489207E-005  0.3178801E+03  0.7546771E-02  0.1076629E+00
         21   -1    0    0  502  501  0.00000000000E+00  0.00000000000E+00  0.14036376444E+04  0.14036376444E+04  0.00000000000E+00 0. -1.
         21   -1    0    0  501  502 -0.00000000000E+00 -0.00000000000E+00 -0.71989896929E+02  0.71989896929E+02  0.00000000000E+00 0. -1.
         25    1    1    2    0    0 -0.46813529695E+01 -0.17896907845E+03  0.54175624182E+03  0.58410330564E+03  0.12500000000E+03 0.  0.
         25    1    1    2    0    0  0.30309831817E+02  0.23786643522E+03  0.56414316167E+03  0.62560501418E+03  0.12500000000E+03 0.  0.
         25    1    1    2    0    0 -0.25628478847E+02 -0.58897356765E+02  0.22574834402E+03  0.26591922155E+03  0.12500000000E+03 0.  0.
</event>
<event>
 5    0  0.6047987E-005  0.3127777E+03  0.7546771E-02  0.1079022E+00
         21   -1    0    0  502  501  0.00000000000E+00  0.00000000000E+00  0.20370396390E+03  0.20370396390E+03  0.00000000000E+00 0.  1.
         21   -1    0    0  501  502 -0.00000000000E+00 -0.00000000000E+00 -0.48025523575E+03  0.48025523575E+03  0.00000000000E+00 0.  1.
         25    1    1    2    0    0 -0.64660059507E+02  0.14510298862E+03 -0.29254875847E+03  0.35559186813E+03  0.12500000000E+03 0.  0.
         25    1    1    2    0    0  0.12310365646E+01 -0.34262674024E+02  0.62233158372E+02  0.14378251731E+03  0.12500000000E+03 0.  0.
         25    1    1    2    0    0  0.63429022942E+02 -0.11084031460E+03 -0.46235671757E+02  0.18458481420E+03  0.12500000000E+03 0.  0.
</event>
<event>
 5    0  0.5489207E-005  0.3051105E+03  0.7546771E-02  0.1082713E+00
         21   -1    0    0  502  501  0.00000000000E+00  0.00000000000E+00  0.15692750553E+03  0.15692750553E+03  0.00000000000E+00 0. -1.
         21   -1    0    0  501  502 -0.00000000000E+00 -0.00000000000E+00 -0.59321920656E+03  0.59321920656E+03  0.00000000000E+00 0. -1.
         25    1    1    2    0    0 -0.72018710163E+02  0.27563256776E-01 -0.16720758880E+03  0.22083947366E+03  0.12500000000E+03 0.  0.
         25    1    1    2    0    0 -0.15275085270E+03 -0.14766546577E+02 -0.10796364111E+03  0.22545957886E+03  0.12500000000E+03 0.  0.
         25    1    1    2    0    0  0.22476956286E+03  0.14738983320E+02 -0.16112047111E+03  0.30384765957E+03  0.12500000000E+03 0.  0.
</event>
<event>
 5    0  0.5489207E-005  0.2705931E+03  0.7546771E-02  0.1100941E+00
         21   -1    0    0  502  501  0.00000000000E+00  0.00000000000E+00  0.16382054135E+03  0.16382054135E+03  0.00000000000E+00 0.  1.
         21   -1    0    0  501  502 -0.00000000000E+00 -0.00000000000E+00 -0.44695646124E+03  0.44695646124E+03  0.00000000000E+00 0.  1.
         25    1    1    2    0    0 -0.31903986843E+02  0.15545378011E+03 -0.56959071219E+02  0.20988825103E+03  0.12500000000E+03 0.  0.
         25    1    1    2    0    0  0.15928261592E+02 -0.48992698782E+02 -0.18799196236E+03  0.23155986691E+03  0.12500000000E+03 0.  0.
         25    1    1    2    0    0  0.15975725250E+02 -0.10646108132E+03 -0.38184886309E+02  0.16932888465E+03  0.12500000000E+03 0.  0.
</event>
<event>
 5    0  0.5489207E-005  0.2366940E+03  0.7546771E-02  0.1122015E+00
         21   -1    0    0  502  501  0.00000000000E+00  0.00000000000E+00  0.83686206003E+02  0.83686206003E+02  0.00000000000E+00 0. -1.
         21   -1    0    0  501  502 -0.00000000000E+00 -0.00000000000E+00 -0.66945369014E+03  0.66945369014E+03  0.00000000000E+00 0. -1.
         25    1    1    2    0    0  0.60088576664E+02  0.32393198485E+02 -0.37475873137E+03  0.40091029308E+03  0.12500000000E+03 0.  0.
         25    1    1    2    0    0  0.91851164531E+01 -0.40984846974E+02 -0.62439502203E+02  0.14590344575E+03  0.12500000000E+03 0.  0.
         25    1    1    2    0    0 -0.69273693117E+02  0.85916484897E+01 -0.14856925056E+03  0.20632615732E+03  0.12500000000E+03 0.  0.
</event>
<event>
 5    0  0.5489207E-005  0.3263420E+03  0.7546771E-02  0.1072767E+00
         21   -1    0    0  502  501  0.00000000000E+00  0.00000000000E+00  0.32785661372E+03  0.32785661372E+03  0.00000000000E+00 0. -1.
         21   -1    0    0  501  502 -0.00000000000E+00 -0.00000000000E+00 -0.32483431553E+03  0.32483431553E+03  0.00000000000E+00 0. -1.
         25    1    1    2    0    0  0.12328904766E+03  0.10746750679E+03  0.47804646841E+02  0.21132850860E+03  0.12500000000E+03 0.  0.
         25    1    1    2    0    0 -0.61583467522E+02  0.87713803763E+02  0.65713337889E+02  0.17728360787E+03  0.12500000000E+03 0.  0.
         25    1    1    2    0    0 -0.61705580137E+02 -0.19518131056E+03 -0.11049568654E+03  0.26407881277E+03  0.12500000000E+03 0.  0.
</event>
<event>
 5    0  0.5489207E-005  0.3948087E+03  0.7546771E-02  0.1045592E+00
         21   -1    0    0  502  501  0.00000000000E+00  0.00000000000E+00  0.23506339147E+03  0.23506339147E+03  0.00000000000E+00 0. -1.
         21   -1    0    0  501  502 -0.00000000000E+00 -0.00000000000E+00 -0.66311421824E+03  0.66311421824E+03  0.00000000000E+00 0. -1.
         25    1    1    2    0    0 -0.51175338669E+01 -0.28677371920E+03 -0.30439800026E+03  0.43651861099E+03  0.12500000000E+03 0.  0.
         25    1    1    2    0    0  0.98345139819E+01  0.28055005244E+03 -0.37342022166E+02  0.30955528781E+03  0.12500000000E+03 0.  0.
         25    1    1    2    0    0 -0.47169801150E+01  0.62236667608E+01 -0.86310804342E+02  0.15210371092E+03  0.12500000000E+03 0.  0.
</event>
<event>
 5    0  0.5805924E-005  0.3618493E+03  0.7546771E-02  0.1057854E+00
         21   -1    0    0  502  501  0.00000000000E+00  0.00000000000E+00  0.64520390869E+03  0.64520390869E+03  0.00000000000E+00 0. -1.
         21   -1    0    0  501  502 -0.00000000000E+00 -0.00000000000E+00 -0.20293565829E+03  0.20293565829E+03  0.00000000000E+00 0. -1.
         25    1    1    2    0    0 -0.94306124168E+02 -0.17984454334E+03  0.19025665793E+03  0.30505786453E+03  0.12500000000E+03 0.  0.
         25    1    1    2    0    0  0.21217892285E+03  0.21169107558E+02  0.13230114492E+03  0.28035088614E+03  0.12500000000E+03 0.  0.
         25    1    1    2    0    0 -0.11787279868E+03  0.15867543578E+03  0.11971044755E+03  0.26273081631E+03  0.12500000000E+03 0.  0.
</event>
<event>
 5    0  0.5489207E-005  0.3481245E+03  0.7546771E-02  0.1063387E+00
         21   -1    0    0  502  501  0.00000000000E+00  0.00000000000E+00  0.26807775371E+04  0.26807775371E+04  0.00000000000E+00 0. -1.
         21   -1    0    0  501  502 -0.00000000000E+00 -0.00000000000E+00 -0.45207291795E+02  0.45207291795E+02  0.00000000000E+00 0. -1.
         25    1    1    2    0    0  0.10865878128E+03  0.24739881240E+02  0.17916851433E+04  0.17994942193E+04  0.12500000000E+03 0.  0.
         25    1    1    2    0    0 -0.13436655412E+03  0.95194936634E+02  0.48147089427E+03  0.52398059969E+03  0.12500000000E+03 0.  0.
         25    1    1    2    0    0  0.25707772833E+02 -0.11993481787E+03  0.36241420771E+03  0.40251000991E+03  0.12500000000E+03 0.  0.
</event>
<event>
 5    0  0.5489207E-005  0.2732455E+03  0.7546771E-02  0.1099436E+00
         21   -1    0    0  502  501  0.00000000000E+00  0.00000000000E+00  0.88700007006E+02  0.88700007006E+02  0.00000000000E+00 0.  1.
         21   -1    0    0  501  502 -0.00000000000E+00 -0.00000000000E+00 -0.84174858125E+03  0.84174858125E+03  0.00000000000E+00 0.  1.
         25    1    1    2    0    0  0.24222971441E+02 -0.74651556687E+01 -0.11390439166E+03  0.17100202144E+03  0.12500000000E+03 0.  0.
         25    1    1    2    0    0 -0.14030097309E+03 -0.90134188841E+02 -0.26818026514E+03  0.33963832183E+03  0.12500000000E+03 0.  0.
         25    1    1    2    0    0  0.11607800165E+03  0.97599344510E+02 -0.37096391744E+03  0.41980824499E+03  0.12500000000E+03 0.  0.
</event>
<event>
 5    0  0.5489207E-005  0.5466867E+03  0.7546771E-02  0.1002264E+00
         21   -1    0    0  502  501  0.00000000000E+00  0.00000000000E+00  0.91443394758E+03  0.91443394758E+03  0.00000000000E+00 0. -1.
         21   -1    0    0  501  502 -0.00000000000E+00 -0.00000000000E+00 -0.32683207244E+03  0.32683207244E+03  0.00000000000E+00 0. -1.
         25    1    1    2    0    0  0.14273049282E+02 -0.38230557451E+02 -0.28692881629E+03  0.31562389180E+03  0.12500000000E+03 0.  0.
         25    1    1    2    0    0 -0.34069656654E+02  0.46899611034E+02  0.22498258220E+03  0.26382281424E+03  0.12500000000E+03 0.  0.
         25    1    1    2    0    0  0.19796607372E+02 -0.86690535824E+01  0.64954810923E+03  0.66181931398E+03  0.12500000000E+03 0.  0.
</event>
<event>
 5    0  0.5489207E-005  0.3318896E+03  0.7546771E-02  0.1070304E+00
         21   -1    0    0  502  501  0.00000000000E+00  0.00000000000E+00  0.30021908090E+03  0.30021908090E+03  0.00000000000E+00 0.  1.
         21   -1    0    0  501  502 -0.00000000000E+00 -0.00000000000E+00 -0.36690111759E+03  0.36690111759E+03  0.00000000000E+00 0.  1.
         25    1    1    2    0    0  0.55420212003E+02  0.16950610017E+03  0.13465261857E+03  0.25604695972E+03  0.12500000000E+03 0.  0.
         25    1    1    2    0    0 -0.85529456585E+02 -0.15131535496E+03 -0.67233687531E+02  0.22440363930E+03  0.12500000000E+03 0.  0.
         25    1    1    2    0    0  0.30109244583E+02 -0.18190745215E+02 -0.13410096772E+03  0.18666959947E+03  0.12500000000E+03 0.  0.
</event>
<event>
 5    0  0.5489207E-005  0.3009336E+03  0.7546771E-02  0.1084775E+00
         21   -1    0    0  502  501  0.00000000000E+00  0.00000000000E+00  0.98831104624E+03  0.98831104624E+03  0.00000000000E+00 0.  1.
         21   -1    0    0  501  502 -0.00000000000E+00 -0.00000000000E+00 -0.91632124825E+02  0.91632124825E+02  0.00000000000E+00 0.  1.
         25    1    1    2    0    0 -0.51560182725E+02 -0.33538592960E+02  0.76887555762E+02  0.15912254992E+03  0.12500000000E+03 0.  0.
         25    1    1    2    0    0 -0.37467321837E+02 -0.37166140039E+02  0.70164643927E+03  0.71464526019E+03  0.12500000000E+03 0.  0.
         25    1    1    2    0    0  0.89027504562E+02  0.70704732999E+02  0.11814492638E+03  0.20617536096E+03  0.12500000000E+03 0.  0.
</event>
<event>
 5    0  0.5489207E-005  0.2531007E+03  0.7546771E-02  0.1111361E+00
         21   -1    0    0  502  501  0.00000000000E+00  0.00000000000E+00  0.75683672281E+02  0.75683672281E+02  0.00000000000E+00 0.  1.
         21   -1    0    0  501  502 -0.00000000000E+00 -0.00000000000E+00 -0.84641714746E+03  0.84641714746E+03  0.00000000000E+00 0.  1.
         25    1    1    2    0    0  0.64302020849E+02 -0.47730536050E+02 -0.20039887643E+03  0.24939459423E+03  0.12500000000E+03 0.  0.
         25    1    1    2    0    0 -0.48562896515E+02  0.88281011024E+02 -0.11228986141E+03  0.19592321149E+03  0.12500000000E+03 0.  0.
         25    1    1    2    0    0 -0.15739124334E+02 -0.40550474974E+02 -0.45804473734E+03  0.47678301402E+03  0.12500000000E+03 0.  0.
</event>
<event>
 5    0  0.5489207E-005  0.3535418E+03  0.7546771E-02  0.1061171E+00
         21   -1    0    0  502  501  0.00000000000E+00  0.00000000000E+00  0.24111777996E+04  0.24111777996E+04  0.00000000000E+00 0. -1.
         21   -1    0    0  501  502 -0.00000000000E+00 -0.00000000000E+00 -0.51838479743E+02  0.51838479743E+02  0.00000000000E+00 0. -1.
         25    1    1    2    0    0  0.65243157617E+02  0.20630343645E+03  0.53734195396E+03  0.59260370653E+03  0.12500000000E+03 0.  0.
         25    1    1    2    0    0  0.95558516118E+02 -0.13165941909E+03  0.83074139635E+03  0.85569965539E+03  0.12500000000E+03 0.  0.
         25    1    1    2    0    0 -0.16080167373E+03 -0.74644017366E+02  0.99125596953E+03  0.10147129174E+04  0.12500000000E+03 0.  0.
</event>
<event>
 5    0  0.5489207E-005  0.3152740E+03  0.7546771E-02  0.1077845E+00
         21   -1    0    0  502  501  0.00000000000E+00  0.00000000000E+00  0.26736626494E+03  0.26736626494E+03  0.00000000000E+00 0.  1.
         21   -1    0    0  501  502 -0.00000000000E+00 -0.00000000000E+00 -0.37176591630E+03  0.37176591630E+03  0.00000000000E+00 0.  1.
         25    1    1    2    0    0 -0.17394923404E+03  0.31910086174E+02 -0.10659042438E+02  0.21682989833E+03  0.12500000000E+03 0.  0.
         25    1    1    2    0    0  0.33795082638E+01 -0.82053043999E+02 -0.13454187314E+03  0.20117315609E+03  0.12500000000E+03 0.  0.
         25    1    1    2    0    0  0.17056972578E+03  0.50142957825E+02  0.40801264215E+02  0.22112912683E+03  0.12500000000E+03 0.  0.
</event>
<event>
 5    0  0.5489207E-005  0.4356164E+03  0.7546771E-02  0.1032100E+00
         21   -1    0    0  502  501  0.00000000000E+00  0.00000000000E+00  0.13527179398E+04  0.13527179398E+04  0.00000000000E+00 0.  1.
         21   -1    0    0  501  502 -0.00000000000E+00 -0.00000000000E+00 -0.14028175366E+03  0.14028175366E+03  0.00000000000E+00 0.  1.
         25    1    1    2    0    0 -0.54157543151E+02  0.10165542847E+03  0.56381540579E+03  0.58888001955E+03  0.12500000000E+03 0.  0.
         25    1    1    2    0    0  0.30289663206E+03 -0.20181447983E+02  0.42948653172E+03  0.54058980889E+03  0.12500000000E+03 0.  0.
         25    1    1    2    0    0 -0.24873908890E+03 -0.81473980489E+02  0.21913424866E+03  0.36352986505E+03  0.12500000000E+03 0.  0.
</event>
<event>
 5    0  0.5489207E-005  0.3157422E+03  0.7546771E-02  0.1077626E+00
         21   -1    0    0  502  501  0.00000000000E+00  0.00000000000E+00  0.13252144056E+03  0.13252144056E+03  0.00000000000E+00 0. -1.
         21   -1    0    0  501  502 -0.00000000000E+00 -0.00000000000E+00 -0.75227917663E+03  0.75227917663E+03  0.00000000000E+00 0. -1.
         25    1    1    2    0    0  0.44105665328E+02 -0.10126603085E+03 -0.17623224637E+03  0.24265803794E+03  0.12500000000E+03 0.  0.
         25    1    1    2    0    0  0.90514368361E+02 -0.65475745884E+02 -0.32823581491E+03  0.36856976866E+03  0.12500000000E+03 0.  0.
         25    1    1    2    0    0 -0.13462003369E+03  0.16674177673E+03 -0.11528967479E+03  0.27357281059E+03  0.12500000000E+03 0.  0.
</event>
<event>
 5    0  0.5489207E-005  0.2400151E+03  0.7546771E-02  0.1119783E+00
         21   -1    0    0  502  501  0.00000000000E+00  0.00000000000E+00  0.15278138763E+03  0.15278138763E+03  0.00000000000E+00 0.  1.
         21   -1    0    0  501  502 -0.00000000000E+00 -0.00000000000E+00 -0.37705681801E+03  0.37705681801E+03  0.00000000000E+00 0.  1.
         25    1    1    2    0    0  0.22161332746E+02  0.27907158304E+02  0.92455384547E+01  0.13030891809E+03  0.12500000000E+03 0.  0.
         25    1    1    2    0    0  0.62095951769E+02  0.26353843526E+02 -0.38555222683E+02  0.14717994935E+03  0.12500000000E+03 0.  0.
         25    1    1    2    0    0 -0.84257284515E+02 -0.54261001830E+02 -0.19496574616E+03  0.25234933819E+03  0.12500000000E+03 0.  0.
</event>
<event>
 5    0  0.5489207E-005  0.4896128E+03  0.7546771E-02  0.1016526E+00
         21   -1    0    0  502  501  0.00000000000E+00  0.00000000000E+00  0.20990557956E+03  0.20990557956E+03  0.00000000000E+00 0. -1.
         21   -1    0    0  501  502 -0.00000000000E+00 -0.00000000000E+00 -0.11420404511E+04  0.11420404511E+04  0.00000000000E+00 0.  1.
         25    1    1    2    0    0  0.14209081696E+03  0.12848900603E+03  0.95729008603E+02  0.24796828028E+03  0.12500000000E+03 0.  0.
         25    1    1    2    0    0 -0.13850150317E+03 -0.18753122426E+03 -0.67566690795E+03  0.72560415996E+03  0.12500000000E+03 0.  0.
         25    1    1    2    0    0 -0.35893137938E+01  0.59042218234E+02 -0.35219697222E+03  0.37837359045E+03  0.12500000000E+03 0.  0.
</event>
<event>
 5    0  0.5489207E-005  0.3722108E+03  0.7546771E-02  0.1053851E+00
         21   -1    0    0  502  501  0.00000000000E+00  0.00000000000E+00  0.70112729862E+03  0.70112729862E+03  0.00000000000E+00 0.  1.
         21   -1    0    0  501  502 -0.00000000000E+00 -0.00000000000E+00 -0.19759733048E+03  0.19759733048E+03  0.00000000000E+00 0.  1.
         25    1    1    2    0    0  0.79262384545E+02 -0.22730591357E+03  0.26881238549E+01  0.27126136834E+03  0.12500000000E+03 0.  0.
         25    1    1    2    0    0 -0.23543408588E+02  0.44422420446E+02  0.27507519924E+03  0.30629888795E+03  0.12500000000E+03 0.  0.
         25    1    1    2    0    0 -0.55718975957E+02  0.18288349312E+03  0.22576664506E+03  0.32116437280E+03  0.12500000000E+03 0.  0.
</event>
<event>
 5    0  0.5489207E-005  0.4562026E+03  0.7546771E-02  0.1025888E+00
         21   -1    0    0  502  501  0.00000000000E+00  0.00000000000E+00  0.37575505500E+03  0.37575505500E+03  0.00000000000E+00 0.  1.
         21   -1    0    0  501  502 -0.00000000000E+00 -0.00000000000E+00 -0.55387357004E+03  0.55387357004E+03  0.00000000000E+00 0.  1.
         25    1    1    2    0    0  0.19290339296E+03  0.21930215657E+02  0.15761495705E+02  0.23144346636E+03  0.12500000000E+03 0.  0.
         25    1    1    2    0    0 -0.21309597181E+03  0.26101453960E+03 -0.82006198379E+02  0.36863057341E+03  0.12500000000E+03 0.  0.
         25    1    1    2    0    0  0.20192578844E+02 -0.28294475526E+03 -0.11187381237E+03  0.32955458525E+03  0.12500000000E+03 0.  0.
</event>
<event>
 5    0  0.5489207E-005  0.2230993E+03  0.7546771E-02  0.1131593E+00
         21   -1    0    0  502  501  0.00000000000E+00  0.00000000000E+00  0.71386052319E+02  0.71386052319E+02  0.00000000000E+00 0. -1.
         21   -1    0    0  501  502 -0.00000000000E+00 -0.00000000000E+00 -0.69724135929E+03  0.69724135929E+03  0.00000000000E+00 0. -1.
         25    1    1    2    0    0  0.50419283859E+02 -0.35430259979E+02 -0.71917551082E+02  0.15682646990E+03  0.12500000000E+03 0.  0.
         25    1    1    2    0    0 -0.92455111159E+01  0.13135353511E+02 -0.28127262193E+03  0.30821632798E+03  0.12500000000E+03 0.  0.
         25    1    1    2    0    0 -0.41173772743E+02  0.22294906468E+02 -0.27266513396E+03  0.30358461373E+03  0.12500000000E+03 0.  0.
</event>
<event>
 5    0  0.5489207E-005  0.4112299E+03  0.7546771E-02  0.1039959E+00
         21   -1    0    0  502  501  0.00000000000E+00  0.00000000000E+00  0.69786263838E+03  0.69786263838E+03  0.00000000000E+00 0. -1.
         21   -1    0    0  501  502 -0.00000000000E+00 -0.00000000000E+00 -0.24232563050E+03  0.24232563050E+03  0.00000000000E+00 0. -1.
         25    1    1    2    0    0  0.30300674194E+03  0.14546342045E+03  0.26381886279E+03  0.44519443473E+03  0.12500000000E+03 0.  0.
         25    1    1    2    0    0 -0.21206561968E+03 -0.21890119546E+02  0.51481404781E+02  0.25244076419E+03  0.12500000000E+03 0.  0.
         25    1    1    2    0    0 -0.90941122257E+02 -0.12357330090E+03  0.14023674031E+03  0.24255306996E+03  0.12500000000E+03 0.  0.
</event>
<event>
 5    0  0.5489207E-005  0.2121559E+03  0.7546771E-02  0.1139870E+00
         21   -1    0    0  502  501  0.00000000000E+00  0.00000000000E+00  0.11814006428E+03  0.11814006428E+03  0.00000000000E+00 0. -1.
         21   -1    0    0  501  502 -0.00000000000E+00 -0.00000000000E+00 -0.38098943319E+03  0.38098943319E+03  0.00000000000E+00 0. -1.
         25    1    1    2    0    0 -0.30301653661E+02 -0.72833391997E+02 -0.59716313417E+02  0.15941747487E+03  0.12500000000E+03 0.  0.
         25    1    1    2    0    0  0.21968408646E+02  0.43956884108E+02 -0.14790473366E+03  0.19978896085E+03  0.12500000000E+03 0.  0.
         25    1    1    2    0    0  0.83332450143E+01  0.28876507889E+02 -0.55228321833E+02  0.13992306176E+03  0.12500000000E+03 0.  0.
</event>
<event>
 5    0  0.5489207E-005  0.3045165E+03  0.7546771E-02  0.1083004E+00
         21   -1    0    0  502  501  0.00000000000E+00  0.00000000000E+00  0.16974001173E+03  0.16974001173E+03  0.00000000000E+00 0.  1.
         21   -1    0    0  501  502 -0.00000000000E+00 -0.00000000000E+00 -0.54630800868E+03  0.54630800868E+03  0.00000000000E+00 0.  1.
         25    1    1    2    0    0  0.19405954938E+03  0.43630284832E+02 -0.73471600052E+02  0.24614180156E+03  0.12500000000E+03 0.  0.
         25    1    1    2    0    0 -0.10027488795E+03  0.58141543061E+02 -0.11931185539E+03  0.20807645474E+03  0.12500000000E+03 0.  0.
         25    1    1    2    0    0 -0.93784661432E+02 -0.10177182789E+03 -0.18378454152E+03  0.26182976411E+03  0.12500000000E+03 0.  0.
</event>
<event>
 5    0  0.5489207E-005  0.3377318E+03  0.7546771E-02  0.1067766E+00
         21   -1    0    0  502  501  0.00000000000E+00  0.00000000000E+00  0.26897710913E+03  0.26897710913E+03  0.00000000000E+00 0.  1.
         21   -1    0    0  501  502 -0.00000000000E+00 -0.00000000000E+00 -0.42406120720E+03  0.42406120720E+03  0.00000000000E+00 0. -1.
         25    1    1    2    0    0  0.62640667792E+02  0.10002690853E+03 -0.21800291354E+03  0.27763196143E+03  0.12500000000E+03 0.  0.
         25    1    1    2    0    0 -0.12918663930E+03 -0.17194155681E+03  0.13697028204E+02  0.24912987639E+03  0.12500000000E+03 0.  0.
         25    1    1    2    0    0  0.66545971504E+02  0.71914648279E+02  0.49221787270E+02  0.16627647850E+03  0.12500000000E+03 0.  0.
</event>
<event>
 5    0  0.5489207E-005  0.2571938E+03  0.7546771E-02  0.1108841E+00
         21   -1    0    0  502  501  0.00000000000E+00  0.00000000000E+00  0.22991300969E+04  0.22991300969E+04  0.00000000000E+00 0.  1.
         21   -1    0    0  501  502 -0.00000000000E+00 -0.00000000000E+00 -0.28771163888E+02  0.28771163888E+02  0.00000000000E+00 0.  1.
         25    1    1    2    0    0  0.10541204193E+02  0.44111394577E+02  0.88423986136E+03  0.89418234412E+03  0.12500000000E+03 0.  0.
         25    1    1    2    0    0  0.45053955537E+02  0.43405234170E+02  0.25322449568E+03  0.28924300938E+03  0.12500000000E+03 0.  0.
         25    1    1    2    0    0 -0.55595159730E+02 -0.87516628747E+02  0.11328945759E+04  0.11444759072E+04  0.12500000000E+03 0.  0.
</event>
<event>
 5    0  0.5489207E-005  0.4295168E+03  0.7546771E-02  0.1034013E+00
         21   -1    0    0  502  501  0.00000000000E+00  0.00000000000E+00  0.61755142791E+03  0.61755142791E+03  0.00000000000E+00 0. -1.
         21   -1    0    0  501  502 -0.00000000000E+00 -0.00000000000E+00 -0.29873580392E+03  0.29873580392E+03  0.00000000000E+00 0. -1.
         25    1    1    2    0    0  0.16865917506E+03  0.13192627770E+02 -0.47467159091E+01  0.21039841747E+03  0.12500000000E+03 0.  0.
         25    1    1    2    0    0 -0.42619618478E+02  0.96396426437E+02  0.43829838993E+03  0.46780250269E+03  0.12500000000E+03 0.  0.
         25    1    1    2    0    0 -0.12603955658E+03 -0.10958905421E+03 -0.11473605003E+03  0.23808631167E+03  0.12500000000E+03 0.  0.
</event>
<event>
 5    0  0.5489207E-005  0.4014494E+03  0.7546771E-02  0.1043279E+00
         21   -1    0    0  502  501  0.00000000000E+00  0.00000000000E+00  0.16091510661E+03  0.16091510661E+03  0.00000000000E+00 0. -1.
         21   -1    0    0  501  502 -0.00000000000E+00 -0.00000000000E+00 -0.10015317441E+04  0.10015317441E+04  0.00000000000E+00 0. -1.
         25    1    1    2    0    0  0.16652279523E+03 -0.67196928888E+02 -0.42409297179E+03  0.47720552941E+03  0.12500000000E+03 0.  0.
         25    1    1    2    0    0 -0.21292251964E+03 -0.14001477630E+03 -0.29892029513E+03  0.41221169294E+03  0.12500000000E+03 0.  0.
         25    1    1    2    0    0  0.46399724409E+02  0.20721170519E+03 -0.11760337056E+03  0.27302962836E+03  0.12500000000E+03 0.  0.
</event>
<event>
 5    0  0.5489207E-005  0.2680950E+03  0.7546771E-02  0.1102375E+00
         21   -1    0    0  502  501  0.00000000000E+00  0.00000000000E+00  0.95924035984E+02  0.95924035984E+02  0.00000000000E+00 0. -1.
         21   -1    0    0  501  502 -0.00000000000E+00 -0.00000000000E+00 -0.74928984724E+03  0.74928984724E+03  0.00000000000E+00 0. -1.
         25    1    1    2    0    0  0.11421611668E+03 -0.84713829067E+02 -0.21390059535E+03  0.28565752018E+03  0.12500000000E+03 0.  0.
         25    1    1    2    0    0  0.24996470184E+02  0.64654109752E+02 -0.27375234518E+03  0.30882086057E+03  0.12500000000E+03 0.  0.
         25    1    1    2    0    0 -0.13921258686E+03  0.20059719315E+02 -0.16571287073E+03  0.25073550248E+03  0.12500000000E+03 0.  0.
</event>
<event>
 5    0  0.5489207E-005  0.4094061E+03  0.7546771E-02  0.1040570E+00
         21   -1    0    0  502  501  0.00000000000E+00  0.00000000000E+00  0.11880501351E+04  0.11880501351E+04  0.00000000000E+00 0.  1.
         21   -1    0    0  501  502 -0.00000000000E+00 -0.00000000000E+00 -0.14108271755E+03  0.14108271755E+03  0.00000000000E+00 0.  1.
         25    1    1    2    0    0  0.29898601379E+03  0.48694450321E+02  0.37859105456E+03  0.50071945491E+03  0.12500000000E+03 0.  0.
         25    1    1    2    0    0 -0.93578094388E+02  0.27146703332E+02  0.50178154520E+03  0.52621623156E+03  0.12500000000E+03 0.  0.
         25    1    1    2    0    0 -0.20540791940E+03 -0.75841153653E+02  0.16659481781E+03  0.30219716620E+03  0.12500000000E+03 0.  0.
</event>
<event>
 5    0  0.5489207E-005  0.3238712E+03  0.7546771E-02  0.1073881E+00
         21   -1    0    0  502  501  0.00000000000E+00  0.00000000000E+00  0.10415654912E+04  0.10415654912E+04  0.00000000000E+00 0. -1.
         21   -1    0    0  501  502 -0.00000000000E+00 -0.00000000000E+00 -0.10070660708E+03  0.10070660708E+03  0.00000000000E+00 0. -1.
         25    1    1    2    0    0  0.52441723263E+02 -0.13369920580E+03  0.23705589490E+03  0.30404951780E+03  0.12500000000E+03 0.  0.
         25    1    1    2    0    0  0.10288182314E+03  0.13966620541E+03  0.53770606672E+03  0.57865718060E+03  0.12500000000E+03 0.  0.
         25    1    1    2    0    0 -0.15532354641E+03 -0.59669996109E+01  0.16609692251E+03  0.25956539989E+03  0.12500000000E+03 0.  0.
</event>
<event>
 5    0  0.5489207E-005  0.2452581E+03  0.7546771E-02  0.1116339E+00
         21   -1    0    0  502  501  0.00000000000E+00  0.00000000000E+00  0.20930940200E+03  0.20930940200E+03  0.00000000000E+00 0. -1.
         21   -1    0    0  501  502 -0.00000000000E+00 -0.00000000000E+00 -0.28738084807E+03  0.28738084807E+03  0.00000000000E+00 0. -1.
         25    1    1    2    0    0 -0.10437680793E+03 -0.59422758492E+02  0.28169215322E+02  0.17562484720E+03  0.12500000000E+03 0.  0.
         25    1    1    2    0    0  0.10856845388E+03  0.25640737933E+01 -0.58931676028E+02  0.17576013795E+03  0.12500000000E+03 0.  0.
         25    1    1    2    0    0 -0.41916459507E+01  0.56858684699E+02 -0.47308985365E+02  0.14530526493E+03  0.12500000000E+03 0.  0.
</event>
<event>
 5    0  0.5489207E-005  0.2703420E+03  0.7546771E-02  0.1101084E+00
         21   -1    0    0  502  501  0.00000000000E+00  0.00000000000E+00  0.17158626732E+03  0.17158626732E+03  0.00000000000E+00 0.  1.
         21   -1    0    0  501  502 -0.00000000000E+00 -0.00000000000E+00 -0.42593620192E+03  0.42593620192E+03  0.00000000000E+00 0.  1.
         25    1    1    2    0    0 -0.32468690208E+02 -0.52537730584E+02  0.29806713229E+02  0.14257583642E+03  0.12500000000E+03 0.  0.
         25    1    1    2    0    0  0.27300086286E+02  0.12214843611E+03 -0.55914874211E+02  0.18551821558E+03  0.12500000000E+03 0.  0.
         25    1    1    2    0    0  0.51686039219E+01 -0.69610705522E+02 -0.22824177362E+03  0.26942841723E+03  0.12500000000E+03 0.  0.
</event>
<event>
 5    0  0.5489207E-005  0.3256384E+03  0.7546771E-02  0.1073083E+00
         21   -1    0    0  502  501  0.00000000000E+00  0.00000000000E+00  0.75612704840E+03  0.75612704840E+03  0.00000000000E+00 0. -1.
         21   -1    0    0  501  502 -0.00000000000E+00 -0.00000000000E+00 -0.14024144976E+03  0.14024144976E+03  0.00000000000E+00 0. -1.
         25    1    1    2    0    0 -0.18695186151E+03  0.47264642612E+02  0.11861644259E+03  0.25861130180E+03  0.12500000000E+03 0.  0.
         25    1    1    2    0    0  0.10635162220E+03 -0.99372072820E+02  0.42103924728E+03  0.46269268867E+03  0.12500000000E+03 0.  0.
         25    1    1    2    0    0  0.80600239311E+02  0.52107430208E+02  0.76229908771E+02  0.17506450769E+03  0.12500000000E+03 0.  0.
</event>
<event>
 5    0  0.5489207E-005  0.3021379E+03  0.7546771E-02  0.1084177E+00
         21   -1    0    0  502  501  0.00000000000E+00  0.00000000000E+00  0.63159606680E+03  0.63159606680E+03  0.00000000000E+00 0.  1.
         21   -1    0    0  501  502 -0.00000000000E+00 -0.00000000000E+00 -0.14453429589E+03  0.14453429589E+03  0.00000000000E+00 0.  1.
         25    1    1    2    0    0  0.15839825386E+03 -0.56308111474E+02  0.39684105301E+03  0.44874094041E+03  0.12500000000E+03 0.  0.
         25    1    1    2    0    0 -0.61118877818E+02  0.35440744933E+02 -0.66323003173E+00  0.14358622323E+03  0.12500000000E+03 0.  0.
         25    1    1    2    0    0 -0.97279376043E+02  0.20867366541E+02  0.90883947932E+02  0.18380319905E+03  0.12500000000E+03 0.  0.
</event>
<event>
 5    0  0.5489207E-005  0.2914378E+03  0.7546771E-02  0.1089601E+00
         21   -1    0    0  502  501  0.00000000000E+00  0.00000000000E+00  0.55190436258E+03  0.55190436258E+03  0.00000000000E+00 0. -1.
         21   -1    0    0  501  502 -0.00000000000E+00 -0.00000000000E+00 -0.15389616492E+03  0.15389616492E+03  0.00000000000E+00 0. -1.
         25    1    1    2    0    0  0.67837656988E+02 -0.42222329115E+02  0.10626836501E+03  0.18249010434E+03  0.12500000000E+03 0.  0.
         25    1    1    2    0    0 -0.42756472244E+02 -0.88352120155E+01 -0.60256230123E+02  0.14547161290E+03  0.12500000000E+03 0.  0.
         25    1    1    2    0    0 -0.25081184744E+02  0.51057541130E+02  0.35199606277E+03  0.37783881026E+03  0.12500000000E+03 0.  0.
</event>
<event>
 5    0  0.5489207E-005  0.3147438E+03  0.7546771E-02  0.1078094E+00
         21   -1    0    0  502  501  0.00000000000E+00  0.00000000000E+00  0.29643168387E+03  0.29643168387E+03  0.00000000000E+00 0. -1.
         21   -1    0    0  501  502 -0.00000000000E+00 -0.00000000000E+00 -0.33418717376E+03  0.33418717376E+03  0.00000000000E+00 0. -1.
         25    1    1    2    0    0  0.16426078170E+03  0.15724282143E+02 -0.85886381295E+02  0.22412123493E+03  0.12500000000E+03 0.  0.
         25    1    1    2    0    0 -0.15182912369E+03 -0.52685548990E+02 -0.84208893846E+02  0.22032700169E+03  0.12500000000E+03 0.  0.
         25    1    1    2    0    0 -0.12431658014E+02  0.36961266847E+02  0.13233978525E+03  0.18617062101E+03  0.12500000000E+03 0.  0.
</event>
<event>
 5    0  0.5489207E-005  0.3256046E+03  0.7546771E-02  0.1073098E+00
         21   -1    0    0  502  501  0.00000000000E+00  0.00000000000E+00  0.20007262569E+04  0.20007262569E+04  0.00000000000E+00 0. -1.
         21   -1    0    0  501  502 -0.00000000000E+00 -0.00000000000E+00 -0.52989920033E+02  0.52989920033E+02  0.00000000000E+00 0. -1.
         25    1    1    2    0    0  0.20254006824E+03 -0.48084877178E+02  0.12576329136E+04  0.12808591570E+04  0.12500000000E+03 0.  0.
         25    1    1    2    0    0 -0.42412915304E+02  0.45777552046E+01  0.35276950586E+03  0.37668439772E+03  0.12500000000E+03 0.  0.
         25    1    1    2    0    0 -0.16012715294E+03  0.43507121974E+02  0.33733391745E+03  0.39617262227E+03  0.12500000000E+03 0.  0.
</event>
<event>
 5    0  0.5489207E-005  0.5753872E+03  0.7546771E-02  0.9957828E-01
         21   -1    0    0  502  501  0.00000000000E+00  0.00000000000E+00  0.42465498474E+03  0.42465498474E+03  0.00000000000E+00 0.  1.
         21   -1    0    0  501  502 -0.00000000000E+00 -0.00000000000E+00 -0.77962216451E+03  0.77962216451E+03  0.00000000000E+00 0.  1.
         25    1    1    2    0    0  0.16347701557E+03 -0.30836339072E+02  0.23160424681E+03  0.31135372420E+03  0.12500000000E+03 0.  0.
         25    1    1    2    0    0 -0.19083530223E+03  0.29084190856E+03 -0.41669137345E+03  0.55701331138E+03  0.12500000000E+03 0.  0.
         25    1    1    2    0    0  0.27358286653E+02 -0.26000556948E+03 -0.16988005314E+03  0.33591011367E+03  0.12500000000E+03 0.  0.
</event>
<event>
 5    0  0.5489207E-005  0.2176230E+03  0.7546771E-02  0.1135668E+00
         21   -1    0    0  502  501  0.00000000000E+00  0.00000000000E+00  0.37572594705E+03  0.37572594705E+03  0.00000000000E+00 0.  1.
         21   -1    0    0  501  502 -0.00000000000E+00 -0.00000000000E+00 -0.12604874517E+03  0.12604874517E+03  0.00000000000E+00 0.  1.
         25    1    1    2    0    0  0.63412054060E+02 -0.56908830103E+02  0.83423041273E+02  0.17275447131E+03  0.12500000000E+03 0.  0.
         25    1    1    2    0    0 -0.14283799015E+02 -0.15613036182E+02  0.10476193810E+03  0.16446232848E+03  0.12500000000E+03 0.  0.
         25    1    1    2    0    0 -0.49128255046E+02  0.72521866285E+02  0.61492222505E+02  0.16455789243E+03  0.12500000000E+03 0.  0.
</event>
<event>
 5    0  0.5489207E-005  0.2996548E+03  0.7546771E-02  0.1085413E+00
         21   -1    0    0  502  501  0.00000000000E+00  0.00000000000E+00  0.21517646914E+04  0.21517646914E+04  0.00000000000E+00 0. -1.
         21   -1    0    0  501  502 -0.00000000000E+00 -0.00000000000E+00 -0.41729926760E+02  0.41729926760E+02  0.00000000000E+00 0. -1.
         25    1    1    2    0    0  0.12432991830E+03 -0.15810596348E+02  0.47788022583E+03  0.50961006052E+03  0.12500000000E+03 0.  0.
         25    1    1    2    0    0 -0.42246647225E+01  0.10269230031E+03  0.33189451019E+03  0.36924588316E+03  0.12500000000E+03 0.  0.
         25    1    1    2    0    0 -0.12010525358E+03 -0.86881703964E+02  0.13002600286E+04  0.13146386745E+04  0.12500000000E+03 0.  0.
</event>
<event>
 5    0  0.6054146E-005  0.3210123E+03  0.7546771E-02  0.1075184E+00
         21   -1    0    0  502  501  0.00000000000E+00  0.00000000000E+00  0.45002792572E+03  0.45002792572E+03  0.00000000000E+00 0. -1.
         21   -1    0    0  501  502 -0.00000000000E+00 -0.00000000000E+00 -0.22898334378E+03  0.22898334378E+03  0.00000000000E+00 0. -1.
         25    1    1    2    0    0 -0.10534764653E+03 -0.74930874428E+02  0.18616409520E+01  0.17983667112E+03  0.12500000000E+03 0.  0.
         25    1    1    2    0    0 -0.50610676462E+01  0.29370604891E+02  0.28621960442E+03  0.31374338048E+03  0.12500000000E+03 0.  0.
         25    1    1    2    0    0  0.11040871418E+03  0.45560269536E+02 -0.67036663434E+02  0.18543121790E+03  0.12500000000E+03 0.  0.
</event>
<event>
 5    0  0.5489207E-005  0.5366309E+03  0.7546771E-02  0.1004637E+00
         21   -1    0    0  502  501  0.00000000000E+00  0.00000000000E+00  0.14642849321E+03  0.14642849321E+03  0.00000000000E+00 0. -1.
         21   -1    0    0  501  502 -0.00000000000E+00 -0.00000000000E+00 -0.19666442670E+04  0.19666442670E+04  0.00000000000E+00 0. -1.
         25    1    1    2    0    0  0.14586171540E+03 -0.27148628427E+03 -0.45502397798E+03  0.56360647894E+03  0.12500000000E+03 0.  0.
         25    1    1    2    0    0 -0.23847071870E+03 -0.11193458833E+03 -0.36574940164E+03  0.46775555640E+03  0.12500000000E+03 0.  0.
         25    1    1    2    0    0  0.92609003305E+02  0.38342087259E+03 -0.99944239414E+03  0.10817107248E+04  0.12500000000E+03 0.  0.
</event>
<event>
 5    0  0.5489207E-005  0.2337630E+03  0.7546771E-02  0.1124019E+00
         21   -1    0    0  502  501  0.00000000000E+00  0.00000000000E+00  0.18959407103E+03  0.18959407103E+03  0.00000000000E+00 0. -1.
         21   -1    0    0  501  502 -0.00000000000E+00 -0.00000000000E+00 -0.28822167882E+03  0.28822167882E+03  0.00000000000E+00 0. -1.
         25    1    1    2    0    0 -0.74650233842E+00 -0.32695260899E+02 -0.94629422243E+01  0.12955340453E+03  0.12500000000E+03 0.  0.
         25    1    1    2    0    0  0.11704766171E+02  0.88188288017E+02 -0.13422297902E+03  0.20385039561E+03  0.12500000000E+03 0.  0.
         25    1    1    2    0    0 -0.10958263833E+02 -0.55493027118E+02  0.45058313458E+02  0.14441194970E+03  0.12500000000E+03 0.  0.
</event>
<event>
 5    0  0.5489207E-005  0.3177565E+03  0.7546771E-02  0.1076686E+00
         21   -1    0    0  502  501  0.00000000000E+00  0.00000000000E+00  0.95028287093E+02  0.95028287093E+02  0.00000000000E+00 0. -1.
         21   -1    0    0  501  502 -0.00000000000E+00 -0.00000000000E+00 -0.10625171952E+04  0.10625171952E+04  0.00000000000E+00 0. -1.
         25    1    1    2    0    0  0.18614197295E+03  0.11712778214E+03 -0.43409442848E+03  0.50242484441E+03  0.12500000000E+03 0.  0.
         25    1    1    2    0    0 -0.88825322884E+01 -0.10385355867E+03 -0.24129049176E+03  0.29105079014E+03  0.12500000000E+03 0.  0.
         25    1    1    2    0    0 -0.17725944066E+03 -0.13274223474E+02 -0.29210398789E+03  0.36406984777E+03  0.12500000000E+03 0.  0.
</event>
<event>
 5    0  0.6207273E-005  0.3633778E+03  0.7546771E-02  0.1057254E+00
         21   -1    0    0  502  501  0.00000000000E+00  0.00000000000E+00  0.18567331331E+03  0.18567331331E+03  0.00000000000E+00 0. -1.
         21   -1    0    0  501  502 -0.00000000000E+00 -0.00000000000E+00 -0.71115984611E+03  0.71115984611E+03  0.00000000000E+00 0. -1.
         25    1    1    2    0    0 -0.18013809758E+03 -0.15707301101E+03 -0.10632650072E+03  0.28991721188E+03  0.12500000000E+03 0.  0.
         25    1    1    2    0    0  0.61338473778E+02  0.90761923033E+02 -0.20428188012E+02  0.16745878867E+03  0.12500000000E+03 0.  0.
         25    1    1    2    0    0  0.11879962380E+03  0.66311087979E+02 -0.39873184407E+03  0.43945715887E+03  0.12500000000E+03 0.  0.
</event>
<event>
 5    0  0.6058065E-005  0.3014478E+03  0.7546771E-02  0.1084519E+00
         21   -1    0    0  502  501  0.00000000000E+00  0.00000000000E+00  0.16686799211E+03  0.16686799211E+03  0.00000000000E+00 0.  1.
         21   -1    0    0  501  502 -0.00000000000E+00 -0.00000000000E+00 -0.54456702264E+03  0.54456702264E+03  0.00000000000E+00 0.  1.
         25    1    1    2    0    0  0.27320493925E+02 -0.81239897326E+01 -0.25854627631E+03  0.28858895611E+03  0.12500000000E+03 0.  0.
         25    1    1    2    0    0 -0.12702280983E+03  0.10296162743E+03 -0.74229410028E+01  0.20595142873E+03  0.12500000000E+03 0.  0.
         25    1    1    2    0    0  0.99702315909E+02 -0.94837637701E+02 -0.11172981322E+03  0.21689462991E+03  0.12500000000E+03 0.  0.
</event>
<event>
 5    0  0.5489207E-005  0.2326000E+03  0.7546771E-02  0.1124823E+00
         21   -1    0    0  502  501  0.00000000000E+00  0.00000000000E+00  0.75376091219E+03  0.75376091219E+03  0.00000000000E+00 0. -1.
         21   -1    0    0  501  502 -0.00000000000E+00 -0.00000000000E+00 -0.71777074498E+02  0.71777074498E+02  0.00000000000E+00 0. -1.
         25    1    1    2    0    0  0.91327448202E+02  0.59831608941E+02  0.25222763077E+03  0.30193426759E+03  0.12500000000E+03 0.  0.
         25    1    1    2    0    0 -0.77517279529E+02  0.21970210661E+02  0.20082841596E+03  0.24989732179E+03  0.12500000000E+03 0.  0.
         25    1    1    2    0    0 -0.13810168672E+02 -0.81801819602E+02  0.22892779096E+03  0.27370639730E+03  0.12500000000E+03 0.  0.
</event>
<event>
 5    0  0.5489207E-005  0.2470273E+03  0.7546771E-02  0.1115198E+00
         21   -1    0    0  502  501  0.00000000000E+00  0.00000000000E+00  0.63817431813E+02  0.63817431813E+02  0.00000000000E+00 0.  1.
         21   -1    0    0  501  502 -0.00000000000E+00 -0.00000000000E+00 -0.95620392442E+03  0.95620392442E+03  0.00000000000E+00 0.  1.
         25    1    1    2    0    0  0.16979814919E+02 -0.54702620264E+02 -0.45077361051E+03  0.47127756016E+03  0.12500000000E+03 0.  0.
         25    1    1    2    0    0  0.50688566876E+01  0.53450810648E+02 -0.63958590959E+02  0.15032758837E+03  0.12500000000E+03 0.  0.
         25    1    1    2    0    0 -0.22048671607E+02  0.12518096154E+01 -0.37765429114E+03  0.39841620771E+03  0.12500000000E+03 0.  0.
</event>
<event>
 5    0  0.5489207E-005  0.2287553E+03  0.7546771E-02  0.1127519E+00
         21   -1    0    0  502  501  0.00000000000E+00  0.00000000000E+00  0.43046495475E+03  0.43046495475E+03  0.00000000000E+00 0. -1.
         21   -1    0    0  501  502 -0.00000000000E+00 -0.00000000000E+00 -0.12156389756E+03  0.12156389756E+03  0.00000000000E+00 0. -1.
         25    1    1    2    0    0  0.19812677970E+02  0.60146444142E+01  0.14742729883E+03  0.19439271230E+03  0.12500000000E+03 0.  0.
         25    1    1    2    0    0 -0.36029019594E+02 -0.29007229848E+02  0.18434752290E+03  0.22748300780E+03  0.12500000000E+03 0.  0.
         25    1    1    2    0    0  0.16216341624E+02  0.22992585433E+02 -0.22873764548E+02  0.13015313221E+03  0.12500000000E+03 0.  0.
</event>
<event>
 5    0  0.5489207E-005  0.2774252E+03  0.7546771E-02  0.1097104E+00
         21   -1    0    0  502  501  0.00000000000E+00  0.00000000000E+00  0.60389433521E+02  0.60389433521E+02  0.00000000000E+00 0.  1.
         21   -1    0    0  501  502 -0.00000000000E+00 -0.00000000000E+00 -0.12744738285E+04  0.12744738285E+04  0.00000000000E+00 0.  1.
         25    1    1    2    0    0 -0.86867409141E+02 -0.31898223840E+02 -0.57774432823E+03  0.59831175173E+03  0.12500000000E+03 0.  0.
         25    1    1    2    0    0  0.96605798622E+02  0.11419328169E+03 -0.21954278974E+03  0.29359295365E+03  0.12500000000E+03 0.  0.
         25    1    1    2    0    0 -0.97383894815E+01 -0.82295057847E+02 -0.41679727703E+03  0.44295855666E+03  0.12500000000E+03 0.  0.
</event>
<event>
 5    0  0.5489207E-005  0.2360528E+03  0.7546771E-02  0.1122451E+00
         21   -1    0    0  502  501  0.00000000000E+00  0.00000000000E+00  0.23923972574E+03  0.23923972574E+03  0.00000000000E+00 0.  1.
         21   -1    0    0  501  502 -0.00000000000E+00 -0.00000000000E+00 -0.23290834082E+03  0.23290834082E+03  0.00000000000E+00 0.  1.
         25    1    1    2    0    0  0.10080302200E+03 -0.22035222867E+02 -0.80377033992E+02  0.18092061211E+03  0.12500000000E+03 0.  0.
         25    1    1    2    0    0 -0.33380712781E+02  0.10759522717E+02  0.70783835035E+02  0.14786950537E+03  0.12500000000E+03 0.  0.
         25    1    1    2    0    0 -0.67422309220E+02  0.11275700150E+02  0.15924583882E+02  0.14335794909E+03  0.12500000000E+03 0.  0.
</event>
<event>
 5    0  0.5489207E-005  0.3046840E+03  0.7546771E-02  0.1082922E+00
         21   -1    0    0  502  501  0.00000000000E+00  0.00000000000E+00  0.14562627631E+04  0.14562627631E+04  0.00000000000E+00 0.  1.
         21   -1    0    0  501  502 -0.00000000000E+00 -0.00000000000E+00 -0.63746985624E+02  0.63746985624E+02  0.00000000000E+00 0.  1.
         25    1    1    2    0    0  0.19282476995E+03 -0.31010589457E+02  0.50159923291E+03  0.55260278593E+03  0.12500000000E+03 0.  0.
         25    1    1    2    0    0 -0.14549598847E+02 -0.48140350036E+02  0.22403520737E+03  0.26143059934E+03  0.12500000000E+03 0.  0.
         25    1    1    2    0    0 -0.17827517110E+03  0.79150939493E+02  0.66688133715E+03  0.70597636341E+03  0.12500000000E+03 0.  0.
</event>
<event>
 5    0  0.5489207E-005  0.2588754E+03  0.7546771E-02  0.1107821E+00
         21   -1    0    0  502  501  0.00000000000E+00  0.00000000000E+00  0.38211226693E+02  0.38211226693E+02  0.00000000000E+00 0. -1.
         21   -1    0    0  501  502 -0.00000000000E+00 -0.00000000000E+00 -0.17538428719E+04  0.17538428719E+04  0.00000000000E+00 0. -1.
         25    1    1    2    0    0  0.39645376907E+02  0.15879833628E+03 -0.64151757689E+03  0.67376440168E+03  0.12500000000E+03 0.  0.
         25    1    1    2    0    0 -0.25059920260E+01 -0.10902315093E+03 -0.68819712068E+03  0.70790720037E+03  0.12500000000E+03 0.  0.
         25    1    1    2    0    0 -0.37139384881E+02 -0.49775185358E+02 -0.38591694764E+03  0.41038249653E+03  0.12500000000E+03 0.  0.
</event>
<event>
 5    0  0.5489207E-005  0.2190403E+03  0.7546771E-02  0.1134601E+00
         21   -1    0    0  502  501  0.00000000000E+00  0.00000000000E+00  0.13673992843E+03  0.13673992843E+03  0.00000000000E+00 0. -1.
         21   -1    0    0  501  502 -0.00000000000E+00 -0.00000000000E+00 -0.35087516888E+03  0.35087516888E+03  0.00000000000E+00 0. -1.
         25    1    1    2    0    0  0.54141426670E+01  0.73420186044E+02 -0.54926800495E+02  0.15511863225E+03  0.12500000000E+03 0.  0.
         25    1    1    2    0    0 -0.30458982375E+02  0.41527420911E+01 -0.23631335596E+02  0.13087564669E+03  0.12500000000E+03 0.  0.
         25    1    1    2    0    0  0.25044839708E+02 -0.77572928136E+02 -0.13557710435E+03  0.20162081837E+03  0.12500000000E+03 0.  0.
</event>
<event>
 5    0  0.5489207E-005  0.4366582E+03  0.7546771E-02  0.1031777E+00
         21   -1    0    0  502  501  0.00000000000E+00  0.00000000000E+00  0.41045819501E+03  0.41045819501E+03  0.00000000000E+00 0. -1.
         21   -1    0    0  501  502 -0.00000000000E+00 -0.00000000000E+00 -0.46453059084E+03  0.46453059084E+03  0.00000000000E+00 0. -1.
         25    1    1    2    0    0 -0.15080602526E+03 -0.15369066186E+03  0.45740414292E+00  0.24897487025E+03  0.12500000000E+03 0.  0.
         25    1    1    2    0    0  0.29922732364E+03  0.14389780907E+03  0.10997379494E+03  0.37143344793E+03  0.12500000000E+03 0.  0.
         25    1    1    2    0    0 -0.14842129838E+03  0.97928527869E+01 -0.16450359491E+03  0.25458046767E+03  0.12500000000E+03 0.  0.
</event>
<event>
 5    0  0.5489207E-005  0.2975892E+03  0.7546771E-02  0.1086452E+00
         21   -1    0    0  502  501  0.00000000000E+00  0.00000000000E+00  0.81104941161E+02  0.81104941161E+02  0.00000000000E+00 0. -1.
         21   -1    0    0  501  502 -0.00000000000E+00 -0.00000000000E+00 -0.10919104742E+04  0.10919104742E+04  0.00000000000E+00 0. -1.
         25    1    1    2    0    0 -0.76412745208E+02  0.19506010708E+02 -0.19276930349E+03  0.24290820582E+03  0.12500000000E+03 0.  0.
         25    1    1    2    0    0  0.20296939923E+03 -0.71179830291E+02 -0.55695916495E+03  0.60999316118E+03  0.12500000000E+03 0.  0.
         25    1    1    2    0    0 -0.12655665402E+03  0.51673819583E+02 -0.26107706464E+03  0.32011404841E+03  0.12500000000E+03 0.  0.
</event>
<event>
 5    0  0.6073956E-005  0.5552298E+03  0.7546771E-02  0.1000291E+00
         21   -1    0    0  502  501  0.00000000000E+00  0.00000000000E+00  0.75500724344E+03  0.75500724344E+03  0.00000000000E+00 0.  1.
         21   -1    0    0  501  502 -0.00000000000E+00 -0.00000000000E+00 -0.40831407145E+03  0.40831407145E+03  0.00000000000E+00 0.  1.
         25    1    1    2    0    0 -0.12282431890E+03  0.28343558074E+03  0.85357161317E+02  0.34399474812E+03  0.12500000000E+03 0.  0.
         25    1    1    2    0    0  0.12693275328E+03 -0.30228865974E+03 -0.15545075162E+03  0.38377114774E+03  0.12500000000E+03 0.  0.
         25    1    1    2    0    0 -0.41084343721E+01  0.18853079001E+02  0.41678676229E+03  0.43555541902E+03  0.12500000000E+03 0.  0.
</event>
<event>
 5    0  0.5489207E-005  0.2640391E+03  0.7546771E-02  0.1104740E+00
         21   -1    0    0  502  501  0.00000000000E+00  0.00000000000E+00  0.48454935776E+03  0.48454935776E+03  0.00000000000E+00 0.  1.
         21   -1    0    0  501  502 -0.00000000000E+00 -0.00000000000E+00 -0.14387933387E+03  0.14387933387E+03  0.00000000000E+00 0.  1.
         25    1    1    2    0    0 -0.24178314988E+02  0.55583393961E+02  0.16547201946E+02  0.13990323260E+03  0.12500000000E+03 0.  0.
         25    1    1    2    0    0  0.20867827484E+02  0.10230725456E+03  0.16498339643E+03  0.23183347829E+03  0.12500000000E+03 0.  0.
         25    1    1    2    0    0  0.33104875043E+01 -0.15789064852E+03  0.15913942552E+03  0.25669198074E+03  0.12500000000E+03 0.  0.
</event>
<event>
 5    0  0.5489207E-005  0.3797977E+03  0.7546771E-02  0.1051009E+00
         21   -1    0    0  502  501  0.00000000000E+00  0.00000000000E+00  0.18789600921E+03  0.18789600921E+03  0.00000000000E+00 0. -1.
         21   -1    0    0  501  502 -0.00000000000E+00 -0.00000000000E+00 -0.76769234953E+03  0.76769234953E+03  0.00000000000E+00 0. -1.
         25    1    1    2    0    0  0.47900857804E+02 -0.20819109942E+03 -0.60941685971E+02  0.25490569853E+03  0.12500000000E+03 0.  0.
         25    1    1    2    0    0 -0.49491993249E+02 -0.77681497195E+02 -0.13286503463E+03  0.20435750495E+03  0.12500000000E+03 0.  0.
         25    1    1    2    0    0  0.15911354456E+01  0.28587259661E+03 -0.38598961972E+03  0.49632515525E+03  0.12500000000E+03 0.  0.
</event>
<event>
 5    0  0.5489207E-005  0.3484888E+03  0.7546771E-02  0.1063237E+00
         21   -1    0    0  502  501  0.00000000000E+00  0.00000000000E+00  0.10378875033E+04  0.10378875033E+04  0.00000000000E+00 0.  1.
         21   -1    0    0  501  502 -0.00000000000E+00 -0.00000000000E+00 -0.11701115173E+03  0.11701115173E+03  0.00000000000E+00 0.  1.
         25    1    1    2    0    0 -0.20058208712E+03  0.12320857707E+03  0.17541818330E+03  0.31907689695E+03  0.12500000000E+03 0.  0.
         25    1    1    2    0    0  0.16987827428E+02 -0.70086870708E+02  0.22286210872E+03  0.26550569717E+03  0.12500000000E+03 0.  0.
         25    1    1    2    0    0  0.18359425969E+03 -0.53121706365E+02  0.52259605956E+03  0.57031606093E+03  0.12500000000E+03 0.  0.
</event>
<event>
 5    0  0.5489207E-005  0.3558980E+03  0.7546771E-02  0.1060220E+00
         21   -1    0    0  502  501  0.00000000000E+00  0.00000000000E+00  0.18082770257E+03  0.18082770257E+03  0.00000000000E+00 0.  1.
         21   -1    0    0  501  502 -0.00000000000E+00 -0.00000000000E+00 -0.70046445801E+03  0.70046445801E+03  0.00000000000E+00 0.  1.
         25    1    1    2    0    0 -0.67968844398E+02  0.96726526926E+02  0.35809271169E+02  0.17573584928E+03  0.12500000000E+03 0.  0.
         25    1    1    2    0    0  0.61316700053E+02  0.95373986576E+01 -0.14579479820E+02  0.14031486347E+03  0.12500000000E+03 0.  0.
         25    1    1    2    0    0  0.66521443450E+01 -0.10626392558E+03 -0.54086654679E+03  0.56524144782E+03  0.12500000000E+03 0.  0.
</event>
<event>
 5    0  0.5489207E-005  0.2321113E+03  0.7546771E-02  0.1125162E+00
         21   -1    0    0  502  501  0.00000000000E+00  0.00000000000E+00  0.15329313358E+04  0.15329313358E+04  0.00000000000E+00 0.  1.
         21   -1    0    0  501  502 -0.00000000000E+00 -0.00000000000E+00 -0.35145516796E+02  0.35145516796E+02  0.00000000000E+00 0.  1.
         25    1    1    2    0    0  0.10715116546E+03  0.62909578700E+02  0.61850545182E+03  0.64312750003E+03  0.12500000000E+03 0.  0.
         25    1    1    2    0    0 -0.79587967542E+02 -0.20646072490E+02  0.39972784270E+03  0.42681126171E+03  0.12500000000E+03 0.  0.
         25    1    1    2    0    0 -0.27563197922E+02 -0.42263506210E+02  0.47955252444E+03  0.49813809083E+03  0.12500000000E+03 0.  0.
</event>
<event>
 5    0  0.5489207E-005  0.3620615E+03  0.7546771E-02  0.1057771E+00
         21   -1    0    0  502  501  0.00000000000E+00  0.00000000000E+00  0.32571961695E+03  0.32571961695E+03  0.00000000000E+00 0.  1.
         21   -1    0    0  501  502 -0.00000000000E+00 -0.00000000000E+00 -0.40245823710E+03  0.40245823710E+03  0.00000000000E+00 0.  1.
         25    1    1    2    0    0 -0.19322786294E+02  0.22105566976E+03 -0.62605152481E+02  0.26226586572E+03  0.12500000000E+03 0.  0.
         25    1    1    2    0    0  0.15580373886E+03 -0.14900698278E+03  0.55765309257E+02  0.25536768723E+03  0.12500000000E+03 0.  0.
         25    1    1    2    0    0 -0.13648095257E+03 -0.72048686980E+02 -0.69898776926E+02  0.21054430110E+03  0.12500000000E+03 0.  0.
</event>
<event>
 5    0  0.5489207E-005  0.4001789E+03  0.7546771E-02  0.1043718E+00
         21   -1    0    0  502  501  0.00000000000E+00  0.00000000000E+00  0.11049829355E+03  0.11049829355E+03  0.00000000000E+00 0. -1.
         21   -1    0    0  501  502 -0.00000000000E+00 -0.00000000000E+00 -0.14492816806E+04  0.14492816806E+04  0.00000000000E+00 0. -1.
         25    1    1    2    0    0  0.16403178003E+03  0.24757716249E+03 -0.93713947254E+03  0.99098752123E+03  0.12500000000E+03 0.  0.
         25    1    1    2    0    0 -0.23011273423E+02 -0.11629171477E+03 -0.15445092484E+03  0.23137279402E+03  0.12500000000E+03 0.  0.
         25    1    1    2    0    0 -0.14102050661E+03 -0.13128544772E+03 -0.24719298969E+03  0.33741965891E+03  0.12500000000E+03 0.  0.
</event>
<event>
 5    0  0.5489207E-005  0.4389531E+03  0.7546771E-02  0.1031069E+00
         21   -1    0    0  502  501  0.00000000000E+00  0.00000000000E+00  0.25785966310E+03  0.25785966310E+03  0.00000000000E+00 0.  1.
         21   -1    0    0  501  502 -0.00000000000E+00 -0.00000000000E+00 -0.74722749814E+03  0.74722749814E+03  0.00000000000E+00 0.  1.
         25    1    1    2    0    0 -0.14827344053E+03  0.12970586031E+03 -0.71325581931E+02  0.24396918249E+03  0.12500000000E+03 0.  0.
         25    1    1    2    0    0 -0.92767281256E+02 -0.23295555608E+03 -0.37399876441E+03  0.46730518439E+03  0.12500000000E+03 0.  0.
         25    1    1    2    0    0  0.24104072179E+03  0.10324969578E+03 -0.44043488703E+02  0.29381279437E+03  0.12500000000E+03 0.  0.
</event>
<event>
 5    0  0.5489207E-005  0.2818644E+03  0.7546771E-02  0.1094675E+00
         21   -1    0    0  502  501  0.00000000000E+00  0.00000000000E+00  0.49397748618E+03  0.49397748618E+03  0.00000000000E+00 0. -1.
         21   -1    0    0  501  502 -0.00000000000E+00 -0.00000000000E+00 -0.16083234106E+03  0.16083234106E+03  0.00000000000E+00 0. -1.
         25    1    1    2    0    0 -0.36781223814E+02  0.11775268716E+03  0.25488151028E+03  0.30952889694E+03  0.12500000000E+03 0.  0.
         25    1    1    2    0    0  0.64275225569E+02 -0.11847326514E+03 -0.18605735386E+02  0.18476577758E+03  0.12500000000E+03 0.  0.
         25    1    1    2    0    0 -0.27494001755E+02  0.72057797642E+00  0.96869370219E+02  0.16051515272E+03  0.12500000000E+03 0.  0.
</event>
<event>
 5    0  0.5489207E-005  0.2228388E+03  0.7546771E-02  0.1131784E+00
         21   -1    0    0  502  501  0.00000000000E+00  0.00000000000E+00  0.17573987859E+03  0.17573987859E+03  0.00000000000E+00 0. -1.
         21   -1    0    0  501  502 -0.00000000000E+00 -0.00000000000E+00 -0.28256046986E+03  0.28256046986E+03  0.00000000000E+00 0. -1.
         25    1    1    2    0    0 -0.36768664913E+02 -0.19414362820E+02 -0.12823634041E+03  0.18384344210E+03  0.12500000000E+03 0.  0.
         25    1    1    2    0    0  0.65659581490E+01 -0.40277858031E+02  0.33591755357E+01  0.13153593317E+03  0.12500000000E+03 0.  0.
         25    1    1    2    0    0  0.30202706764E+02  0.59692220850E+02  0.18056573603E+02  0.14292097319E+03  0.12500000000E+03 0.  0.
</event>
<event>
 5    0  0.5489207E-005  0.2596310E+03  0.7546771E-02  0.1107365E+00
         21   -1    0    0  502  501  0.00000000000E+00  0.00000000000E+00  0.48421655062E+02  0.48421655062E+02  0.00000000000E+00 0. -1.
         21   -1    0    0  501  502 -0.00000000000E+00 -0.00000000000E+00 -0.13921096158E+04  0.13921096158E+04  0.00000000000E+00 0. -1.
         25    1    1    2    0    0  0.75841861414E+02  0.29447467404E+02 -0.45214163282E+03  0.47610523775E+03  0.12500000000E+03 0.  0.
         25    1    1    2    0    0  0.55587836904E+02  0.77486628689E+02 -0.38263557026E+03  0.41367760982E+03  0.12500000000E+03 0.  0.
         25    1    1    2    0    0 -0.13142969832E+03 -0.10693409609E+03 -0.50891075769E+03  0.55074842333E+03  0.12500000000E+03 0.  0.
</event>
<event>
 5    0  0.5489207E-005  0.3307349E+03  0.7546771E-02  0.1070812E+00
         21   -1    0    0  502  501  0.00000000000E+00  0.00000000000E+00  0.63257136277E+03  0.63257136277E+03  0.00000000000E+00 0.  1.
         21   -1    0    0  501  502 -0.00000000000E+00 -0.00000000000E+00 -0.17292209125E+03  0.17292209125E+03  0.00000000000E+00 0.  1.
         25    1    1    2    0    0  0.32425238673E+02  0.32789780058E+02  0.17886933119E+03  0.22303767265E+03  0.12500000000E+03 0.  0.
         25    1    1    2    0    0  0.17850628746E+03  0.90386058931E+02  0.12990766374E+03  0.26932347727E+03  0.12500000000E+03 0.  0.
         25    1    1    2    0    0 -0.21093152613E+03 -0.12317583899E+03  0.15087227659E+03  0.31313230410E+03  0.12500000000E+03 0.  0.
</event>
<event>
 5    0  0.5489207E-005  0.2510758E+03  0.7546771E-02  0.1112627E+00
         21   -1    0    0  502  501  0.00000000000E+00  0.00000000000E+00  0.42132367643E+02  0.42132367643E+02  0.00000000000E+00 0. -1.
         21   -1    0    0  501  502 -0.00000000000E+00 -0.00000000000E+00 -0.14962143907E+04  0.14962143907E+04  0.00000000000E+00 0. -1.
         25    1    1    2    0    0 -0.21268791629E+02  0.54013139396E+02 -0.44232239865E+03  0.46329675703E+03  0.12500000000E+03 0.  0.
         25    1    1    2    0    0 -0.79308405173E+02 -0.10115463771E+03 -0.68384269081E+03  0.70695679475E+03  0.12500000000E+03 0.  0.
         25    1    1    2    0    0  0.10057719680E+03  0.47141498315E+02 -0.32791693355E+03  0.36809320653E+03  0.12500000000E+03 0.  0.
</event>
<event>
 5    0  0.5489207E-005  0.2987875E+03  0.7546771E-02  0.1085848E+00
         21   -1    0    0  502  501  0.00000000000E+00  0.00000000000E+00  0.30078319232E+02  0.30078319232E+02  0.00000000000E+00 0.  1.
         21   -1    0    0  501  502 -0.00000000000E+00 -0.00000000000E+00 -0.29680507636E+04  0.29680507636E+04  0.00000000000E+00 0.  1.
         25    1    1    2    0    0 -0.13422980963E+03 -0.10136655575E+03 -0.56775167570E+03  0.60519400665E+03  0.12500000000E+03 0.  0.
         25    1    1    2    0    0  0.48967782346E+02  0.88405253361E+02 -0.15875578027E+04  0.15956748132E+04  0.12500000000E+03 0.  0.
         25    1    1    2    0    0  0.85262027288E+02  0.12961302389E+02 -0.78266296592E+03  0.79726026295E+03  0.12500000000E+03 0.  0.
</event>
<event>
 5    0  0.5489207E-005  0.4613062E+03  0.7546771E-02  0.1024403E+00
         21   -1    0    0  502  501  0.00000000000E+00  0.00000000000E+00  0.44630642569E+03  0.44630642569E+03  0.00000000000E+00 0. -1.
         21   -1    0    0  501  502 -0.00000000000E+00 -0.00000000000E+00 -0.47681011498E+03  0.47681011498E+03  0.00000000000E+00 0. -1.
         25    1    1    2    0    0 -0.74424416958E+02  0.12731019959E+02 -0.96380572093E+02  0.17497224747E+03  0.12500000000E+03 0.  0.
         25    1    1    2    0    0  0.18189317754E+03 -0.20806713022E+02 -0.28460070347E+03  0.36075006273E+03  0.12500000000E+03 0.  0.
         25    1    1    2    0    0 -0.10746876058E+03  0.80756930627E+01  0.35047758627E+03  0.38739423047E+03  0.12500000000E+03 0.  0.
</event>
<event>
 5    0  0.6768588E-005  0.6006577E+03  0.7546771E-02  0.9904042E-01
         21   -1    0    0  502  501  0.00000000000E+00  0.00000000000E+00  0.38253929749E+03  0.38253929749E+03  0.00000000000E+00 0. -1.
         21   -1    0    0  501  502 -0.00000000000E+00 -0.00000000000E+00 -0.94314416314E+03  0.94314416314E+03  0.00000000000E+00 0. -1.
         25    1    1    2    0    0 -0.12212311146E+03 -0.25526281172E+03 -0.27984893980E+02  0.31061440999E+03  0.12500000000E+03 0.  0.
         25    1    1    2    0    0  0.29072837567E+03  0.17262376573E+03  0.73884915178E+02  0.36797545245E+03  0.12500000000E+03 0.  0.
         25    1    1    2    0    0 -0.16860526421E+03  0.82639045994E+02 -0.60650488685E+03  0.64709359819E+03  0.12500000000E+03 0.  0.
</event>
<event>
 5    0  0.5489207E-005  0.3963605E+03  0.7546771E-02  0.1045047E+00
         21   -1    0    0  502  501  0.00000000000E+00  0.00000000000E+00  0.14588489976E+03  0.14588489976E+03  0.00000000000E+00 0. -1.
         21   -1    0    0  501  502 -0.00000000000E+00 -0.00000000000E+00 -0.10768876412E+04  0.10768876412E+04  0.00000000000E+00 0. -1.
         25    1    1    2    0    0 -0.58192499089E+02  0.21811798589E+03 -0.47304950539E+03  0.53885309433E+03  0.12500000000E+03 0.  0.
         25    1    1    2    0    0 -0.13450755742E+03 -0.59628646237E+02 -0.68602964051E+02  0.20488832356E+03  0.12500000000E+03 0.  0.
         25    1    1    2    0    0  0.19270005651E+03 -0.15848933966E+03 -0.38935027203E+03  0.47903112309E+03  0.12500000000E+03 0.  0.
</event>
<event>
 5    0  0.5489207E-005  0.2674199E+03  0.7546771E-02  0.1102765E+00
         21   -1    0    0  502  501  0.00000000000E+00  0.00000000000E+00  0.17328726909E+03  0.17328726909E+03  0.00000000000E+00 0. -1.
         21   -1    0    0  501  502 -0.00000000000E+00 -0.00000000000E+00 -0.41268713474E+03  0.41268713474E+03  0.00000000000E+00 0. -1.
         25    1    1    2    0    0 -0.69474611340E+02  0.96172112306E+02 -0.32437344202E+02  0.17536527052E+03  0.12500000000E+03 0.  0.
         25    1    1    2    0    0  0.37261975445E+02  0.63243483775E+02 -0.11846399896E+03  0.18720820522E+03  0.12500000000E+03 0.  0.
         25    1    1    2    0    0  0.32212635895E+02 -0.15941559608E+03 -0.88498522498E+02  0.22340092809E+03  0.12500000000E+03 0.  0.
</event>
<event>
 5    0  0.5489207E-005  0.3629072E+03  0.7546771E-02  0.1057439E+00
         21   -1    0    0  502  501  0.00000000000E+00  0.00000000000E+00  0.11658560442E+04  0.11658560442E+04  0.00000000000E+00 0.  1.
         21   -1    0    0  501  502 -0.00000000000E+00 -0.00000000000E+00 -0.11296559434E+03  0.11296559434E+03  0.00000000000E+00 0.  1.
         25    1    1    2    0    0 -0.14025417806E+03  0.74386167335E+02  0.91277711555E+02  0.22172315391E+03  0.12500000000E+03 0.  0.
         25    1    1    2    0    0  0.16978408877E+03 -0.13552157911E+02  0.85148661723E+03  0.87730539557E+03  0.12500000000E+03 0.  0.
         25    1    1    2    0    0 -0.29529910711E+02 -0.60834009425E+02  0.11012612109E+03  0.17979308907E+03  0.12500000000E+03 0.  0.
</event>
<event>
 5    0  0.5489207E-005  0.2531828E+03  0.7546771E-02  0.1111310E+00
         21   -1    0    0  502  501  0.00000000000E+00  0.00000000000E+00  0.97635569517E+03  0.97635569517E+03  0.00000000000E+00 0. -1.
         21   -1    0    0  501  502 -0.00000000000E+00 -0.00000000000E+00 -0.65653857877E+02  0.65653857877E+02  0.00000000000E+00 0. -1.
         25    1    1    2    0    0  0.61550045402E+02 -0.36799368678E+02  0.47209374895E+03  0.49359913839E+03  0.12500000000E+03 0.  0.
         25    1    1    2    0    0  0.42861255513E+02 -0.24869847408E+02  0.28926841430E+03  0.31899343574E+03  0.12500000000E+03 0.  0.
         25    1    1    2    0    0 -0.10441130091E+03  0.61669216086E+02  0.14933967405E+03  0.22941697892E+03  0.12500000000E+03 0.  0.
</event>
<event>
 5    0  0.5489207E-005  0.3043101E+03  0.7546771E-02  0.1083106E+00
         21   -1    0    0  502  501  0.00000000000E+00  0.00000000000E+00  0.74225136954E+03  0.74225136954E+03  0.00000000000E+00 0. -1.
         21   -1    0    0  501  502 -0.00000000000E+00 -0.00000000000E+00 -0.12476182299E+03  0.12476182299E+03  0.00000000000E+00 0. -1.
         25    1    1    2    0    0  0.33643580005E+02 -0.16617366086E+03  0.18227563314E+03  0.27855875946E+03  0.12500000000E+03 0.  0.
         25    1    1    2    0    0 -0.18260126821E+02 -0.54340570239E+02  0.11163968831E+03  0.17712918961E+03  0.12500000000E+03 0.  0.
         25    1    1    2    0    0 -0.15383453184E+02  0.22051423110E+03  0.32357422511E+03  0.41132524346E+03  0.12500000000E+03 0.  0.
</event>
<event>
 5    0  0.5509282E-005  0.5253493E+03  0.7546771E-02  0.1007366E+00
         21   -1    0    0  502  501  0.00000000000E+00  0.00000000000E+00  0.33490332431E+03  0.33490332431E+03  0.00000000000E+00 0. -1.
         21   -1    0    0  501  502 -0.00000000000E+00 -0.00000000000E+00 -0.82409425767E+03  0.82409425767E+03  0.00000000000E+00 0. -1.
         25    1    1    2    0    0 -0.16392620366E+03 -0.24515255904E+03 -0.29473994040E+03  0.43527946186E+03  0.12500000000E+03 0.  0.
         25    1    1    2    0    0  0.16891796443E+03 -0.60037236220E+02  0.13552873421E+03  0.25715906796E+03  0.12500000000E+03 0.  0.
         25    1    1    2    0    0 -0.49917607628E+01  0.30518979526E+03 -0.32997972717E+03  0.46655905216E+03  0.12500000000E+03 0.  0.
</event>
<event>
 5    0  0.5489207E-005  0.2347549E+03  0.7546771E-02  0.1123337E+00
         21   -1    0    0  502  501  0.00000000000E+00  0.00000000000E+00  0.74351018029E+02  0.74351018029E+02  0.00000000000E+00 0. -1.
         21   -1    0    0  501  502 -0.00000000000E+00 -0.00000000000E+00 -0.74121176226E+03  0.74121176226E+03  0.00000000000E+00 0. -1.
         25    1    1    2    0    0  0.52173445123E+01  0.99935745270E+02 -0.34586817383E+03  0.38113536642E+03  0.12500000000E+03 0.  0.
         25    1    1    2    0    0  0.42657342907E+02 -0.69285492593E+02 -0.21149975990E+03  0.25879968475E+03  0.12500000000E+03 0.  0.
         25    1    1    2    0    0 -0.47874687420E+02 -0.30650252677E+02 -0.10949281050E+03  0.17562772912E+03  0.12500000000E+03 0.  0.
</event>
<event>
 5    0  0.5489207E-005  0.2978311E+03  0.7546771E-02  0.1086330E+00
         21   -1    0    0  502  501  0.00000000000E+00  0.00000000000E+00  0.50850546899E+02  0.50850546899E+02  0.00000000000E+00 0.  1.
         21   -1    0    0  501  502 -0.00000000000E+00 -0.00000000000E+00 -0.17443929917E+04  0.17443929917E+04  0.00000000000E+00 0.  1.
         25    1    1    2    0    0 -0.14364645355E+02  0.11162520357E+03 -0.37970043885E+03  0.41528779464E+03  0.12500000000E+03 0.  0.
         25    1    1    2    0    0 -0.77693051006E+02 -0.19591013738E+03 -0.79043478570E+03  0.82754404266E+03  0.12500000000E+03 0.  0.
         25    1    1    2    0    0  0.92057696361E+02  0.84284933805E+02 -0.52340722028E+03  0.55241170133E+03  0.12500000000E+03 0.  0.
</event>
<event>
 5    0  0.5489207E-005  0.2808403E+03  0.7546771E-02  0.1095231E+00
         21   -1    0    0  502  501  0.00000000000E+00  0.00000000000E+00  0.56863302436E+03  0.56863302436E+03  0.00000000000E+00 0.  1.
         21   -1    0    0  501  502 -0.00000000000E+00 -0.00000000000E+00 -0.13870330088E+03  0.13870330088E+03  0.00000000000E+00 0.  1.
         25    1    1    2    0    0 -0.12328294162E+03 -0.11401616653E+03  0.20698129649E+03  0.29438856469E+03  0.12500000000E+03 0.  0.
         25    1    1    2    0    0 -0.23911340148E+02  0.58620986245E+02  0.52995133793E+02  0.14980539517E+03  0.12500000000E+03 0.  0.
         25    1    1    2    0    0  0.14719428177E+03  0.55395180284E+02  0.16995329320E+03  0.26314236538E+03  0.12500000000E+03 0.  0.
</event>
<event>
 5    0  0.5755824E-005  0.2902675E+03  0.7546771E-02  0.1090210E+00
         21   -1    0    0  502  501  0.00000000000E+00  0.00000000000E+00  0.16906804831E+03  0.16906804831E+03  0.00000000000E+00 0.  1.
         21   -1    0    0  501  502 -0.00000000000E+00 -0.00000000000E+00 -0.49835085234E+03  0.49835085234E+03  0.00000000000E+00 0.  1.
         25    1    1    2    0    0 -0.12104506631E+03  0.10311411424E+03 -0.32694083876E+02  0.20488614339E+03  0.12500000000E+03 0.  0.
         25    1    1    2    0    0  0.92172391692E+02  0.39900493037E+02 -0.16211908622E+03  0.22802499260E+03  0.12500000000E+03 0.  0.
         25    1    1    2    0    0  0.28872674621E+02 -0.14301460728E+03 -0.13446963393E+03  0.23450776466E+03  0.12500000000E+03 0.  0.
</event>
<event>
 5    0  0.5489207E-005  0.3354997E+03  0.7546771E-02  0.1068729E+00
         21   -1    0    0  502  501  0.00000000000E+00  0.00000000000E+00  0.89738696804E+03  0.89738696804E+03  0.00000000000E+00 0.  1.
         21   -1    0    0  501  502 -0.00000000000E+00 -0.00000000000E+00 -0.12543087185E+03  0.12543087185E+03  0.00000000000E+00 0.  1.
         25    1    1    2    0    0 -0.23429225381E+01  0.53933003382E+01  0.97498938359E+01  0.12551747848E+03  0.12500000000E+03 0.  0.
         25    1    1    2    0    0 -0.68218549846E+02 -0.16303086019E+03  0.19498891756E+03  0.29133916642E+03  0.12500000000E+03 0.  0.
         25    1    1    2    0    0  0.70561472384E+02  0.15763755985E+03  0.56721728479E+03  0.60596119498E+03  0.12500000000E+03 0.  0.
</event>
<event>
 5    0  0.5489207E-005  0.3690319E+03  0.7546771E-02  0.1055064E+00
         21   -1    0    0  502  501  0.00000000000E+00  0.00000000000E+00  0.90040998917E+02  0.90040998917E+02  0.00000000000E+00 0.  1.
         21   -1    0    0  501  502 -0.00000000000E+00 -0.00000000000E+00 -0.15124724526E+04  0.15124724526E+04  0.00000000000E+00 0.  1.
         25    1    1    2    0    0  0.80564239502E+02  0.19999413410E+03 -0.72607343041E+03  0.76765609274E+03  0.12500000000E+03 0.  0.
         25    1    1    2    0    0  0.46377740338E+02 -0.81039544170E+01 -0.59408992385E+02  0.14618822542E+03  0.12500000000E+03 0.  0.
         25    1    1    2    0    0 -0.12694197984E+03 -0.19189017968E+03 -0.63694903093E+03  0.68866913341E+03  0.12500000000E+03 0.  0.
</event>
<event>
 5    0  0.5489207E-005  0.3067133E+03  0.7546771E-02  0.1081932E+00
         21   -1    0    0  502  501  0.00000000000E+00  0.00000000000E+00  0.44705294213E+03  0.44705294213E+03  0.00000000000E+00 0.  1.
         21   -1    0    0  501  502 -0.00000000000E+00 -0.00000000000E+00 -0.21042927387E+03  0.21042927387E+03  0.00000000000E+00 0.  1.
         25    1    1    2    0    0  0.30425426828E+02  0.90329377583E+01 -0.31785692304E+02  0.13282556530E+03  0.12500000000E+03 0.  0.
         25    1    1    2    0    0 -0.46871732734E+02 -0.74111908182E+02  0.33482555762E+03  0.36799821779E+03  0.12500000000E+03 0.  0.
         25    1    1    2    0    0  0.16446305906E+02  0.65078970424E+02 -0.66416197059E+02  0.15665843291E+03  0.12500000000E+03 0.  0.
</event>
<event>
 5    0  0.5489207E-005  0.3216804E+03  0.7546771E-02  0.1074879E+00
         21   -1    0    0  502  501  0.00000000000E+00  0.00000000000E+00  0.30407679685E+03  0.30407679685E+03  0.00000000000E+00 0. -1.
         21   -1    0    0  501  502 -0.00000000000E+00 -0.00000000000E+00 -0.34030308995E+03  0.34030308995E+03  0.00000000000E+00 0. -1.
         25    1    1    2    0    0  0.21077707323E+03  0.13364412444E+03 -0.32535922701E+02  0.28101834969E+03  0.12500000000E+03 0.  0.
         25    1    1    2    0    0 -0.12720433824E+03 -0.65791548311E+02 -0.40459319097E+02  0.19434872780E+03  0.12500000000E+03 0.  0.
         25    1    1    2    0    0 -0.83572734989E+02 -0.67852576130E+02  0.36768948691E+02  0.16901280930E+03  0.12500000000E+03 0.  0.
</event>
<event>
 5    0  0.5489207E-005  0.9345152E+03  0.7546771E-02  0.9383435E-01
         21   -1    0    0  502  501  0.00000000000E+00  0.00000000000E+00  0.72231211873E+03  0.72231211873E+03  0.00000000000E+00 0. -1.
         21   -1    0    0  501  502 -0.00000000000E+00 -0.00000000000E+00 -0.12090598332E+04  0.12090598332E+04  0.00000000000E+00 0. -1.
         25    1    1    2    0    0  0.52357186185E+03  0.55039730215E+03 -0.57727913847E+03  0.96225822337E+03  0.12500000000E+03 0.  0.
         25    1    1    2    0    0 -0.21991235898E+02 -0.11647938378E+03  0.22253736462E+03  0.28142306223E+03  0.12500000000E+03 0.  0.
         25    1    1    2    0    0 -0.50158062596E+03 -0.43391791837E+03 -0.13200594064E+03  0.68769066635E+03  0.12500000000E+03 0.  0.
</event>
<event>
 5    0  0.5489207E-005  0.2626084E+03  0.7546771E-02  0.1105586E+00
         21   -1    0    0  502  501  0.00000000000E+00  0.00000000000E+00  0.26913783427E+03  0.26913783427E+03  0.00000000000E+00 0. -1.
         21   -1    0    0  501  502 -0.00000000000E+00 -0.00000000000E+00 -0.25623728732E+03  0.25623728732E+03  0.00000000000E+00 0. -1.
         25    1    1    2    0    0 -0.39557241452E+02 -0.11163728977E+03 -0.10079144589E+03  0.19952838240E+03  0.12500000000E+03 0.  0.
         25    1    1    2    0    0  0.37918208564E+02  0.86767792730E+00  0.14108171797E+02  0.13138715279E+03  0.12500000000E+03 0.  0.
         25    1    1    2    0    0  0.16390328881E+01  0.11076961184E+03  0.99583821040E+02  0.19445958641E+03  0.12500000000E+03 0.  0.
</event>
<event>
 5    0  0.5676192E-005  0.2982902E+03  0.7546771E-02  0.1086098E+00
         21   -1    0    0  502  501  0.00000000000E+00  0.00000000000E+00  0.23204065340E+03  0.23204065340E+03  0.00000000000E+00 0.  1.
         21   -1    0    0  501  502 -0.00000000000E+00 -0.00000000000E+00 -0.38345451666E+03  0.38345451666E+03  0.00000000000E+00 0.  1.
         25    1    1    2    0    0  0.11554475143E+03 -0.54922649723E+02  0.41699171743E+02  0.18365976141E+03  0.12500000000E+03 0.  0.
         25    1    1    2    0    0 -0.15107565609E+03 -0.18035165939E+02 -0.11983402807E+02  0.19727575374E+03  0.12500000000E+03 0.  0.
         25    1    1    2    0    0  0.35530904658E+02  0.72957815663E+02 -0.18112963220E+03  0.23455965491E+03  0.12500000000E+03 0.  0.
</event>
<event>
 5    0  0.5489207E-005  0.2244579E+03  0.7546771E-02  0.1130602E+00
         21   -1    0    0  502  501  0.00000000000E+00  0.00000000000E+00  0.36027190941E+03  0.36027190941E+03  0.00000000000E+00 0. -1.
         21   -1    0    0  501  502 -0.00000000000E+00 -0.00000000000E+00 -0.13984257900E+03  0.13984257900E+03  0.00000000000E+00 0. -1.
         25    1    1    2    0    0 -0.61379572770E+02 -0.13782420477E+02  0.11007192491E+03  0.17803998349E+03  0.12500000000E+03 0.  0.
         25    1    1    2    0    0  0.14573651630E+02  0.84299475113E+02  0.60293521338E+02  0.16303098338E+03  0.12500000000E+03 0.  0.
         25    1    1    2    0    0  0.46805921141E+02 -0.70517054636E+02  0.50063884165E+02  0.15904352155E+03  0.12500000000E+03 0.  0.
</event>
<event>
 5    0  0.5489207E-005  0.3282107E+03  0.7546771E-02  0.1071931E+00
         21   -1    0    0  502  501  0.00000000000E+00  0.00000000000E+00  0.70758287865E+03  0.70758287865E+03  0.00000000000E+00 0.  1.
         21   -1    0    0  501  502 -0.00000000000E+00 -0.00000000000E+00 -0.15223977214E+03  0.15223977214E+03  0.00000000000E+00 0.  1.
         25    1    1    2    0    0 -0.88058048793E+02 -0.54792209280E+02  0.11111473743E+03  0.19679403200E+03  0.12500000000E+03 0.  0.
         25    1    1    2    0    0 -0.83489535339E+02  0.93343720473E+02  0.40741459572E+03  0.44417924926E+03  0.12500000000E+03 0.  0.
         25    1    1    2    0    0  0.17154758413E+03 -0.38551511193E+02  0.36813773351E+02  0.21884936953E+03  0.12500000000E+03 0.  0.
</event>
<event>
 5    0  0.5489207E-005  0.2628327E+03  0.7546771E-02  0.1105453E+00
         21   -1    0    0  502  501  0.00000000000E+00  0.00000000000E+00  0.15965107014E+03  0.15965107014E+03  0.00000000000E+00 0. -1.
         21   -1    0    0  501  502 -0.00000000000E+00 -0.00000000000E+00 -0.43270001888E+03  0.43270001888E+03  0.00000000000E+00 0. -1.
         25    1    1    2    0    0  0.40266586909E+02 -0.60123698785E+02 -0.49163708614E+02  0.15257236782E+03  0.12500000000E+03 0.  0.
         25    1    1    2    0    0 -0.44142503800E+02 -0.53249105778E+02 -0.23012603066E+03  0.27086346726E+03  0.12500000000E+03 0.  0.
         25    1    1    2    0    0  0.38759168910E+01  0.11337280456E+03  0.62407905301E+01  0.16891525394E+03  0.12500000000E+03 0.  0.
</event>
<event>
 5    0  0.5489207E-005  0.3924854E+03  0.7546771E-02  0.1046413E+00
         21   -1    0    0  502  501  0.00000000000E+00  0.00000000000E+00  0.16725077593E+04  0.16725077593E+04  0.00000000000E+00 0. -1.
         21   -1    0    0  501  502 -0.00000000000E+00 -0.00000000000E+00 -0.92104076487E+02  0.92104076487E+02  0.00000000000E+00 0. -1.
         25    1    1    2    0    0  0.33835571783E+02  0.13107634165E+03  0.69252620199E+03  0.71661942040E+03  0.12500000000E+03 0.  0.
         25    1    1    2    0    0  0.98111121615E+02  0.13201787156E+03  0.52577912063E+03  0.56490989927E+03  0.12500000000E+03 0.  0.
         25    1    1    2    0    0 -0.13194669340E+03 -0.26309421320E+03  0.36209836016E+03  0.48308251609E+03  0.12500000000E+03 0.  0.
</event>
<event>
 5    0  0.5489207E-005  0.2537514E+03  0.7546771E-02  0.1110957E+00
         21   -1    0    0  502  501  0.00000000000E+00  0.00000000000E+00  0.86685264184E+02  0.86685264184E+02  0.00000000000E+00 0.  1.
         21   -1    0    0  501  502 -0.00000000000E+00 -0.00000000000E+00 -0.74279969969E+03  0.74279969969E+03  0.00000000000E+00 0.  1.
         25    1    1    2    0    0  0.84494447610E+02 -0.32675136923E+02 -0.37774788229E+03  0.40807528573E+03  0.12500000000E+03 0.  0.
         25    1    1    2    0    0  0.77100745439E+01 -0.25160033951E+02 -0.20180385770E+03  0.23883523513E+03  0.12500000000E+03 0.  0.
         25    1    1    2    0    0 -0.92204522154E+02  0.57835170874E+02 -0.76562695513E+02  0.18257444301E+03  0.12500000000E+03 0.  0.
</event>
<event>
 5    0  0.6833652E-005  0.2807608E+03  0.7546771E-02  0.1095274E+00
         21   -1    0    0  502  501  0.00000000000E+00  0.00000000000E+00  0.57035290591E+03  0.57035290591E+03  0.00000000000E+00 0.  1.
         21   -1    0    0  501  502 -0.00000000000E+00 -0.00000000000E+00 -0.13820678156E+03  0.13820678156E+03  0.00000000000E+00 0.  1.
         25    1    1    2    0    0 -0.16927611963E+02  0.74101594119E+02  0.29994355811E+03  0.33371953546E+03  0.12500000000E+03 0.  0.
         25    1    1    2    0    0  0.57112808499E+02  0.71243548492E+02  0.62451205882E+02  0.16692114669E+03  0.12500000000E+03 0.  0.
         25    1    1    2    0    0 -0.40185196536E+02 -0.14534514261E+03  0.69751360352E+02  0.20791900532E+03  0.12500000000E+03 0.  0.
</event>
<event>
 5    0  0.5489207E-005  0.2027919E+03  0.7546771E-02  0.1147405E+00
         21   -1    0    0  502  501  0.00000000000E+00  0.00000000000E+00  0.86453275243E+02  0.86453275243E+02  0.00000000000E+00 0.  1.
         21   -1    0    0  501  502 -0.00000000000E+00 -0.00000000000E+00 -0.47568517475E+03  0.47568517475E+03  0.00000000000E+00 0.  1.
         25    1    1    2    0    0 -0.45469231353E+02 -0.39647887272E+02 -0.13389938699E+03  0.19285603906E+03  0.12500000000E+03 0.  0.
         25    1    1    2    0    0  0.40790393767E+02 -0.10148072436E+02 -0.13470112082E+03  0.18851056084E+03  0.12500000000E+03 0.  0.
         25    1    1    2    0    0  0.46788375857E+01  0.49795959707E+02 -0.12063139170E+03  0.18077185010E+03  0.12500000000E+03 0.  0.
</event>
<event>
 5    0  0.5626169E-005  0.2515989E+03  0.7546771E-02  0.1112299E+00
         21   -1    0    0  502  501  0.00000000000E+00  0.00000000000E+00  0.15082117729E+03  0.15082117729E+03  0.00000000000E+00 0.  1.
         21   -1    0    0  501  502 -0.00000000000E+00 -0.00000000000E+00 -0.41971553519E+03  0.41971553519E+03  0.00000000000E+00 0.  1.
         25    1    1    2    0    0  0.50137756610E+02 -0.60618762113E+02 -0.88921030298E+02  0.17239599354E+03  0.12500000000E+03 0.  0.
         25    1    1    2    0    0  0.76833818239E+02 -0.35034840937E+02 -0.55845356468E+02  0.16085577249E+03  0.12500000000E+03 0.  0.
         25    1    1    2    0    0 -0.12697157485E+03  0.95653603051E+02 -0.12412797113E+03  0.23728494645E+03  0.12500000000E+03 0.  0.
</event>
<event>
 5    0  0.5489207E-005  0.2859584E+03  0.7546771E-02  0.1092478E+00
         21   -1    0    0  502  501  0.00000000000E+00  0.00000000000E+00  0.12471838862E+04  0.12471838862E+04  0.00000000000E+00 0.  1.
         21   -1    0    0  501  502 -0.00000000000E+00 -0.00000000000E+00 -0.65565496533E+02  0.65565496533E+02  0.00000000000E+00 0.  1.
         25    1    1    2    0    0  0.11480665229E+03 -0.12615119646E+03  0.34139097148E+03  0.40158123361E+03  0.12500000000E+03 0.  0.
         25    1    1    2    0    0  0.19841640015E+02  0.14788914461E+01  0.37247145408E+03  0.39339021582E+03  0.12500000000E+03 0.  0.
         25    1    1    2    0    0 -0.13464829230E+03  0.12467230502E+03  0.46775596412E+03  0.51777793332E+03  0.12500000000E+03 0.  0.
</event>
<event>
 5    0  0.5489207E-005  0.2437339E+03  0.7546771E-02  0.1117330E+00
         21   -1    0    0  502  501  0.00000000000E+00  0.00000000000E+00  0.17502032327E+04  0.17502032327E+04  0.00000000000E+00 0.  1.
         21   -1    0    0  501  502 -0.00000000000E+00 -0.00000000000E+00 -0.33942469223E+02  0.33942469223E+02  0.00000000000E+00 0.  1.
         25    1    1    2    0    0  0.89541870010E+02 -0.98067589061E+02  0.70081165335E+03  0.72415258888E+03  0.12500000000E+03 0.  0.
         25    1    1    2    0    0 -0.19984631182E+02 -0.19546986686E+01  0.50054759545E+03  0.51631008284E+03  0.12500000000E+03 0.  0.
         25    1    1    2    0    0 -0.69557238828E+02  0.10002228773E+03  0.51490151468E+03  0.54368303021E+03  0.12500000000E+03 0.  0.
</event>
<event>
 5    0  0.5489207E-005  0.2101217E+03  0.7546771E-02  0.1141470E+00
         21   -1    0    0  502  501  0.00000000000E+00  0.00000000000E+00  0.10416510969E+03  0.10416510969E+03  0.00000000000E+00 0.  1.
         21   -1    0    0  501  502 -0.00000000000E+00 -0.00000000000E+00 -0.42385718312E+03  0.42385718312E+03  0.00000000000E+00 0.  1.
         25    1    1    2    0    0 -0.44938592231E+02  0.83403389960E+00 -0.77915696098E+02  0.15400009215E+03  0.12500000000E+03 0.  0.
         25    1    1    2    0    0  0.84236370797E+02 -0.18650877160E+02 -0.11172930401E+03  0.18855253581E+03  0.12500000000E+03 0.  0.
         25    1    1    2    0    0 -0.39297778566E+02  0.17816843261E+02 -0.13004707332E+03  0.18546966486E+03  0.12500000000E+03 0.  0.
</event>
<event>
 5    0  0.5489207E-005  0.2106362E+03  0.7546771E-02  0.1141063E+00
         21   -1    0    0  502  501  0.00000000000E+00  0.00000000000E+00  0.41723500290E+03  0.41723500290E+03  0.00000000000E+00 0.  1.
         21   -1    0    0  501  502 -0.00000000000E+00 -0.00000000000E+00 -0.10633724772E+03  0.10633724772E+03  0.00000000000E+00 0.  1.
         25    1    1    2    0    0 -0.18508846724E+02  0.31151514706E+02  0.83019515538E+02  0.15437044483E+03  0.12500000000E+03 0.  0.
         25    1    1    2    0    0  0.12304951036E+02  0.49223166359E+02  0.14841905032E+03  0.20056805933E+03  0.12500000000E+03 0.  0.
         25    1    1    2    0    0  0.62038956883E+01 -0.80374681065E+02  0.79459189329E+02  0.16863374647E+03  0.12500000000E+03 0.  0.
</event>
<event>
 5    0  0.5489207E-005  0.2879595E+03  0.7546771E-02  0.1091419E+00
         21   -1    0    0  502  501  0.00000000000E+00  0.00000000000E+00  0.36574192541E+02  0.36574192541E+02  0.00000000000E+00 0. -1.
         21   -1    0    0  501  502 -0.00000000000E+00 -0.00000000000E+00 -0.22671910953E+04  0.22671910953E+04  0.00000000000E+00 0. -1.
         25    1    1    2    0    0  0.50397234730E+01  0.73937553566E+02 -0.46468536945E+03  0.48687745195E+03  0.12500000000E+03 0.  0.
         25    1    1    2    0    0  0.69878664009E+02  0.81753768268E+02 -0.12147263647E+04  0.12258677936E+04  0.12500000000E+03 0.  0.
         25    1    1    2    0    0 -0.74918387482E+02 -0.15569132183E+03 -0.55120516864E+03  0.59102004231E+03  0.12500000000E+03 0.  0.
</event>
<event>
 5    0  0.5489207E-005  0.6241185E+03  0.7546771E-02  0.9856594E-01
         21   -1    0    0  502  501  0.00000000000E+00  0.00000000000E+00  0.82073279912E+03  0.82073279912E+03  0.00000000000E+00 0.  1.
         21   -1    0    0  501  502 -0.00000000000E+00 -0.00000000000E+00 -0.47460496930E+03  0.47460496930E+03  0.00000000000E+00 0.  1.
         25    1    1    2    0    0 -0.82685983579E+02  0.28310486041E+03 -0.83166176236E+02  0.33094855603E+03  0.12500000000E+03 0.  0.
         25    1    1    2    0    0 -0.27978580364E+03  0.96630713286E+02  0.12424900521E+03  0.34450022636E+03  0.12500000000E+03 0.  0.
         25    1    1    2    0    0  0.36247178722E+03 -0.37973557369E+03  0.30504500085E+03  0.61988898603E+03  0.12500000000E+03 0.  0.
</event>
<event>
 5    0  0.5489207E-005  0.3190018E+03  0.7546771E-02  0.1076110E+00
         21   -1    0    0  502  501  0.00000000000E+00  0.00000000000E+00  0.74512898617E+02  0.74512898617E+02  0.00000000000E+00 0.  1.
         21   -1    0    0  501  502 -0.00000000000E+00 -0.00000000000E+00 -0.13656983644E+04  0.13656983644E+04  0.00000000000E+00 0.  1.
         25    1    1    2    0    0  0.19112150129E+02  0.71987418120E+02 -0.85333862504E+03  0.86565540005E+03  0.12500000000E+03 0.  0.
         25    1    1    2    0    0  0.10439348199E+02 -0.11351280666E+03 -0.40008660175E+03  0.43438281062E+03  0.12500000000E+03 0.  0.
         25    1    1    2    0    0 -0.29551498328E+02  0.41525388545E+02 -0.37760238962E+02  0.14017305231E+03  0.12500000000E+03 0.  0.
</event>
<event>
 5    0  0.5489207E-005  0.3504581E+03  0.7546771E-02  0.1062427E+00
         21   -1    0    0  502  501  0.00000000000E+00  0.00000000000E+00  0.81032276772E+03  0.81032276772E+03  0.00000000000E+00 0.  1.
         21   -1    0    0  501  502 -0.00000000000E+00 -0.00000000000E+00 -0.15157034622E+03  0.15157034622E+03  0.00000000000E+00 0.  1.
         25    1    1    2    0    0 -0.19568732897E+03  0.18693398479E+03  0.41933759967E+03  0.51449671319E+03  0.12500000000E+03 0.  0.
         25    1    1    2    0    0  0.10388883200E+03 -0.10115156774E+03  0.74875862905E+02  0.20556245746E+03  0.12500000000E+03 0.  0.
         25    1    1    2    0    0  0.91798496962E+02 -0.85782417056E+02  0.16453895893E+03  0.24183394329E+03  0.12500000000E+03 0.  0.
</event>
<event>
 5    0  0.5865685E-005  0.2777288E+03  0.7546771E-02  0.1096936E+00
         21   -1    0    0  502  501  0.00000000000E+00  0.00000000000E+00  0.54657085308E+03  0.54657085308E+03  0.00000000000E+00 0. -1.
         21   -1    0    0  501  502 -0.00000000000E+00 -0.00000000000E+00 -0.14112222832E+03  0.14112222832E+03  0.00000000000E+00 0. -1.
         25    1    1    2    0    0  0.15719133521E+02 -0.95771812370E+02  0.17493806165E+03  0.23589755535E+03  0.12500000000E+03 0.  0.
         25    1    1    2    0    0 -0.53718218706E+02  0.37009536837E+02  0.26877942629E+03  0.30351726942E+03  0.12500000000E+03 0.  0.
         25    1    1    2    0    0  0.37999085185E+02  0.58762275534E+02 -0.38268863180E+02  0.14827825663E+03  0.12500000000E+03 0.  0.
</event>
<event>
 5    0  0.5489207E-005  0.7654106E+03  0.7546771E-02  0.9611479E-01
         21   -1    0    0  502  501  0.00000000000E+00  0.00000000000E+00  0.26941322331E+04  0.26941322331E+04  0.00000000000E+00 0.  1.
         21   -1    0    0  501  502 -0.00000000000E+00 -0.00000000000E+00 -0.21745533381E+03  0.21745533381E+03  0.00000000000E+00 0. -1.
         25    1    1    2    0    0  0.19971035805E+03  0.38292176297E+03  0.10573030747E+04  0.11489247562E+04  0.12500000000E+03 0.  0.
         25    1    1    2    0    0 -0.20080800145E+03  0.25895593906E+03  0.74428866944E+03  0.82278348019E+03  0.12500000000E+03 0.  0.
         25    1    1    2    0    0  0.10976434004E+01 -0.64187770203E+03  0.67508515511E+03  0.93987933046E+03  0.12500000000E+03 0.  0.
</event>
<event>
 5    0  0.5489207E-005  0.4355601E+03  0.7546771E-02  0.1032118E+00
         21   -1    0    0  502  501  0.00000000000E+00  0.00000000000E+00  0.54263972471E+03  0.54263972471E+03  0.00000000000E+00 0. -1.
         21   -1    0    0  501  502 -0.00000000000E+00 -0.00000000000E+00 -0.34961061488E+03  0.34961061488E+03  0.00000000000E+00 0. -1.
         25    1    1    2    0    0  0.28543404081E+03 -0.92503059333E+02  0.14661335199E+03  0.35658082200E+03  0.12500000000E+03 0.  0.
         25    1    1    2    0    0 -0.22511257232E+03  0.79277220243E+02 -0.13941503566E+03  0.30335144640E+03  0.12500000000E+03 0.  0.
         25    1    1    2    0    0 -0.60321468486E+02  0.13225839090E+02  0.18583079351E+03  0.23231807118E+03  0.12500000000E+03 0.  0.
</event>
<event>
 5    0  0.5489207E-005  0.2445016E+03  0.7546771E-02  0.1116830E+00
         21   -1    0    0  502  501  0.00000000000E+00  0.00000000000E+00  0.12643125780E+04  0.12643125780E+04  0.00000000000E+00 0.  1.
         21   -1    0    0  501  502 -0.00000000000E+00 -0.00000000000E+00 -0.47283418898E+02  0.47283418898E+02  0.00000000000E+00 0.  1.
         25    1    1    2    0    0 -0.82332306761E+01 -0.10810425264E+03  0.30005918012E+03  0.34265847006E+03  0.12500000000E+03 0.  0.
         25    1    1    2    0    0  0.50190117321E+02  0.64818344485E+01  0.28320197590E+03  0.31367088040E+03  0.12500000000E+03 0.  0.
         25    1    1    2    0    0 -0.41956886645E+02  0.10162241820E+03  0.63376800312E+03  0.65526664648E+03  0.12500000000E+03 0.  0.
</event>
<event>
 5    0  0.5489207E-005  0.2355324E+03  0.7546771E-02  0.1122805E+00
         21   -1    0    0  502  501  0.00000000000E+00  0.00000000000E+00  0.44559535508E+02  0.44559535508E+02  0.00000000000E+00 0. -1.
         21   -1    0    0  501  502 -0.00000000000E+00 -0.00000000000E+00 -0.12449748201E+04  0.12449748201E+04  0.00000000000E+00 0. -1.
         25    1    1    2    0    0  0.10076473369E+02  0.14110268151E+02 -0.71863365137E+03  0.72963001574E+03  0.12500000000E+03 0.  0.
         25    1    1    2    0    0  0.13371667206E+02 -0.26963419918E+02 -0.36417653112E+03  0.38620638694E+03  0.12500000000E+03 0.  0.
         25    1    1    2    0    0 -0.23448140575E+02  0.12853151767E+02 -0.11760510207E+03  0.17369795289E+03  0.12500000000E+03 0.  0.
</event>
<event>
 5    0  0.5489207E-005  0.2147437E+03  0.7546771E-02  0.1137864E+00
         21   -1    0    0  502  501  0.00000000000E+00  0.00000000000E+00  0.72496289214E+02  0.72496289214E+02  0.00000000000E+00 0.  1.
         21   -1    0    0  501  502 -0.00000000000E+00 -0.00000000000E+00 -0.63609957669E+03  0.63609957669E+03  0.00000000000E+00 0.  1.
         25    1    1    2    0    0 -0.58726783205E+02 -0.64713544985E+02 -0.24558317939E+03  0.28908956392E+03  0.12500000000E+03 0.  0.
         25    1    1    2    0    0  0.48411792433E+02  0.62669232826E+02 -0.16472877933E+03  0.22143103922E+03  0.12500000000E+03 0.  0.
         25    1    1    2    0    0  0.10314990773E+02  0.20443121596E+01 -0.15329132875E+03  0.19807526276E+03  0.12500000000E+03 0.  0.
</event>
<event>
 5    0  0.5489207E-005  0.2635045E+03  0.7546771E-02  0.1105056E+00
         21   -1    0    0  502  501  0.00000000000E+00  0.00000000000E+00  0.15895736930E+03  0.15895736930E+03  0.00000000000E+00 0. -1.
         21   -1    0    0  501  502 -0.00000000000E+00 -0.00000000000E+00 -0.43681297608E+03  0.43681297608E+03  0.00000000000E+00 0. -1.
         25    1    1    2    0    0  0.60261787843E+02 -0.94030816763E+02 -0.10065278584E+03  0.19552304435E+03  0.12500000000E+03 0.  0.
         25    1    1    2    0    0 -0.11937226928E+03  0.35458895210E+02 -0.11785494795E+02  0.17683599693E+03  0.12500000000E+03 0.  0.
         25    1    1    2    0    0  0.59110481433E+02  0.58571921552E+02 -0.16541732615E+03  0.22341130410E+03  0.12500000000E+03 0.  0.
</event>
<event>
 5    0  0.5489207E-005  0.3752147E+03  0.7546771E-02  0.1052717E+00
         21   -1    0    0  502  501  0.00000000000E+00  0.00000000000E+00  0.12160265738E+04  0.12160265738E+04  0.00000000000E+00 0. -1.
         21   -1    0    0  501  502 -0.00000000000E+00 -0.00000000000E+00 -0.11577549638E+03  0.11577549638E+03  0.00000000000E+00 0. -1.
         25    1    1    2    0    0  0.17799016843E+03  0.76317060918E+02  0.63818749423E+03  0.67853745043E+03  0.12500000000E+03 0.  0.
         25    1    1    2    0    0 -0.22452378908E+03 -0.75262223430E+02  0.44423236564E+03  0.51869328974E+03  0.12500000000E+03 0.  0.
         25    1    1    2    0    0  0.46533620657E+02 -0.10548374880E+01  0.17831217510E+02  0.13457132998E+03  0.12500000000E+03 0.  0.
</event>
<event>
 5    0  0.5489207E-005  0.3143008E+03  0.7546771E-02  0.1078303E+00
         21   -1    0    0  502  501  0.00000000000E+00  0.00000000000E+00  0.27776568308E+04  0.27776568308E+04  0.00000000000E+00 0. -1.
         21   -1    0    0  501  502 -0.00000000000E+00 -0.00000000000E+00 -0.35564153820E+02  0.35564153820E+02  0.00000000000E+00 0. -1.
         25    1    1    2    0    0 -0.16933753615E+03  0.12035619117E+03  0.80525675107E+03  0.84096625916E+03  0.12500000000E+03 0.  0.
         25    1    1    2    0    0  0.27261149363E+02  0.28348924972E+02  0.64076777151E+03  0.65402994489E+03  0.12500000000E+03 0.  0.
         25    1    1    2    0    0  0.14207638678E+03 -0.14870511615E+03  0.12960681544E+04  0.13182247805E+04  0.12500000000E+03 0.  0.
</event>
<event>
 5    0  0.5489207E-005  0.3321604E+03  0.7546771E-02  0.1070185E+00
         21   -1    0    0  502  501  0.00000000000E+00  0.00000000000E+00  0.48647427183E+03  0.48647427183E+03  0.00000000000E+00 0. -1.
         21   -1    0    0  501  502 -0.00000000000E+00 -0.00000000000E+00 -0.22679619057E+03  0.22679619057E+03  0.00000000000E+00 0. -1.
         25    1    1    2    0    0 -0.18434783209E+02 -0.23555072489E+03  0.70570823687E+02  0.27645836284E+03  0.12500000000E+03 0.  0.
         25    1    1    2    0    0 -0.17177148412E+01  0.16672611084E+03  0.12351235586E+02  0.20875368164E+03  0.12500000000E+03 0.  0.
         25    1    1    2    0    0  0.20152498050E+02  0.68824614057E+02  0.17675602198E+03  0.22805841792E+03  0.12500000000E+03 0.  0.
</event>
<event>
 5    0  0.5489207E-005  0.3381577E+03  0.7546771E-02  0.1067583E+00
         21   -1    0    0  502  501  0.00000000000E+00  0.00000000000E+00  0.17361334836E+03  0.17361334836E+03  0.00000000000E+00 0.  1.
         21   -1    0    0  501  502 -0.00000000000E+00 -0.00000000000E+00 -0.65865112676E+03  0.65865112676E+03  0.00000000000E+00 0.  1.
         25    1    1    2    0    0 -0.32735658001E+02  0.10051519315E+01 -0.28629462493E+03  0.31410546939E+03  0.12500000000E+03 0.  0.
         25    1    1    2    0    0 -0.46055646678E+02 -0.49151733828E+02 -0.30052994810E+03  0.33238571755E+03  0.12500000000E+03 0.  0.
         25    1    1    2    0    0  0.78791304679E+02  0.48146581896E+02  0.10178679462E+03  0.18577328818E+03  0.12500000000E+03 0.  0.
</event>
<event>
 5    0  0.5489207E-005  0.5269556E+03  0.7546771E-02  0.1006973E+00
         21   -1    0    0  502  501  0.00000000000E+00  0.00000000000E+00  0.11952277339E+03  0.11952277339E+03  0.00000000000E+00 0.  1.
         21   -1    0    0  501  502 -0.00000000000E+00 -0.00000000000E+00 -0.23232577342E+04  0.23232577342E+04  0.00000000000E+00 0.  1.
         25    1    1    2    0    0  0.25007284032E+03 -0.67454454536E+02 -0.78557513960E+03  0.83656430049E+03  0.12500000000E+03 0.  0.
         25    1    1    2    0    0 -0.26899611152E+03  0.27789747537E+03 -0.44552974497E+03  0.60308180912E+03  0.12500000000E+03 0.  0.
         25    1    1    2    0    0  0.18923271203E+02 -0.21044302084E+03 -0.97263007628E+03  0.10031343980E+04  0.12500000000E+03 0.  0.
</event>
<event>
 5    0  0.5489207E-005  0.2658251E+03  0.7546771E-02  0.1103693E+00
         21   -1    0    0  502  501  0.00000000000E+00  0.00000000000E+00  0.55401055619E+03  0.55401055619E+03  0.00000000000E+00 0. -1.
         21   -1    0    0  501  502 -0.00000000000E+00 -0.00000000000E+00 -0.12754805602E+03  0.12754805602E+03  0.00000000000E+00 0. -1.
         25    1    1    2    0    0  0.65531952572E+02 -0.10363820354E+03  0.23913032520E+03  0.29638425476E+03  0.12500000000E+03 0.  0.
         25    1    1    2    0    0 -0.63676814369E+02 -0.39042090654E+02  0.65106929689E+02  0.15950841302E+03  0.12500000000E+03 0.  0.
         25    1    1    2    0    0 -0.18551382038E+01  0.14268029419E+03  0.12222524529E+03  0.22566594443E+03  0.12500000000E+03 0.  0.
</event>
<event>
 5    0  0.5489207E-005  0.3694292E+03  0.7546771E-02  0.1054911E+00
         21   -1    0    0  502  501  0.00000000000E+00  0.00000000000E+00  0.48021467834E+03  0.48021467834E+03  0.00000000000E+00 0. -1.
         21   -1    0    0  501  502 -0.00000000000E+00 -0.00000000000E+00 -0.28420185933E+03  0.28420185933E+03  0.00000000000E+00 0. -1.
         25    1    1    2    0    0  0.82697910730E+02 -0.27620065742E+03  0.14101592905E+03  0.34443611867E+03  0.12500000000E+03 0.  0.
         25    1    1    2    0    0 -0.82407765953E+02  0.79550547192E+02  0.76446355971E+02  0.18597950099E+03  0.12500000000E+03 0.  0.
         25    1    1    2    0    0 -0.29014477702E+00  0.19665011023E+03 -0.21449466007E+02  0.23400091801E+03  0.12500000000E+03 0.  0.
</event>
<event>
 5    0  0.5489207E-005  0.2378629E+03  0.7546771E-02  0.1121225E+00
         21   -1    0    0  502  501  0.00000000000E+00  0.00000000000E+00  0.37372069453E+03  0.37372069453E+03  0.00000000000E+00 0.  1.
         21   -1    0    0  501  502 -0.00000000000E+00 -0.00000000000E+00 -0.15139313625E+03  0.15139313625E+03  0.00000000000E+00 0.  1.
         25    1    1    2    0    0  0.23286015576E+02  0.24436070612E+02 -0.10419121018E+02  0.12989579728E+03  0.12500000000E+03 0.  0.
         25    1    1    2    0    0 -0.83842163987E+02  0.64111164235E+01  0.19792899439E+03  0.24873981928E+03  0.12500000000E+03 0.  0.
         25    1    1    2    0    0  0.60556148412E+02 -0.30847187036E+02  0.34817684905E+02  0.14647821422E+03  0.12500000000E+03 0.  0.
</event>
<event>
 5    0  0.5489207E-005  0.4045182E+03  0.7546771E-02  0.1042226E+00
         21   -1    0    0  502  501  0.00000000000E+00  0.00000000000E+00  0.11154304123E+03  0.11154304123E+03  0.00000000000E+00 0.  1.
         21   -1    0    0  501  502 -0.00000000000E+00 -0.00000000000E+00 -0.14670118395E+04  0.14670118395E+04  0.00000000000E+00 0.  1.
         25    1    1    2    0    0  0.15275022645E+03  0.16480229919E+02 -0.86082066828E+03  0.88331277167E+03  0.12500000000E+03 0.  0.
         25    1    1    2    0    0 -0.25990970784E+03 -0.79238831736E+02 -0.38569968239E+03  0.48807898303E+03  0.12500000000E+03 0.  0.
         25    1    1    2    0    0  0.10715948139E+03  0.62758601817E+02 -0.10894844764E+03  0.20716312606E+03  0.12500000000E+03 0.  0.
</event>
<event>
 5    0  0.5949027E-005  0.2582964E+03  0.7546771E-02  0.1108171E+00
         21   -1    0    0  502  501  0.00000000000E+00  0.00000000000E+00  0.14128331732E+03  0.14128331732E+03  0.00000000000E+00 0. -1.
         21   -1    0    0  501  502 -0.00000000000E+00 -0.00000000000E+00 -0.47222144863E+03  0.47222144863E+03  0.00000000000E+00 0. -1.
         25    1    1    2    0    0 -0.12686874190E+03  0.91103072203E+02 -0.89278763956E+02  0.21906881369E+03  0.12500000000E+03 0.  0.
         25    1    1    2    0    0  0.24061101326E+02 -0.78154729658E+02 -0.11639909528E+03  0.18936960619E+03  0.12500000000E+03 0.  0.
         25    1    1    2    0    0  0.10280764058E+03 -0.12948342545E+02 -0.12526027207E+03  0.20506634608E+03  0.12500000000E+03 0.  0.
</event>
<event>
 5    0  0.5489207E-005  0.3692229E+03  0.7546771E-02  0.1054990E+00
         21   -1    0    0  502  501  0.00000000000E+00  0.00000000000E+00  0.12774832872E+03  0.12774832872E+03  0.00000000000E+00 0.  1.
         21   -1    0    0  501  502 -0.00000000000E+00 -0.00000000000E+00 -0.10671417436E+04  0.10671417436E+04  0.00000000000E+00 0.  1.
         25    1    1    2    0    0 -0.14334372812E+03 -0.16168849681E+02 -0.24377241106E+03  0.30961079516E+03  0.12500000000E+03 0.  0.
         25    1    1    2    0    0 -0.14078056953E+03 -0.87612208295E+02 -0.18136830352E+03  0.27570732548E+03  0.12500000000E+03 0.  0.
         25    1    1    2    0    0  0.28412429765E+03  0.10378105798E+03 -0.51425270035E+03  0.60957195172E+03  0.12500000000E+03 0.  0.
</event>
<event>
 5    0  0.5489207E-005  0.4222952E+03  0.7546771E-02  0.1036322E+00
         21   -1    0    0  502  501  0.00000000000E+00  0.00000000000E+00  0.25226495479E+03  0.25226495479E+03  0.00000000000E+00 0. -1.
         21   -1    0    0  501  502 -0.00000000000E+00 -0.00000000000E+00 -0.70692825143E+03  0.70692825143E+03  0.00000000000E+00 0. -1.
         25    1    1    2    0    0  0.21418927623E+03 -0.29576126135E+02 -0.20527937976E+03  0.32328998909E+03  0.12500000000E+03 0.  0.
         25    1    1    2    0    0 -0.15474251325E+03 -0.15420217292E+03 -0.30870554816E+03  0.39830600172E+03  0.12500000000E+03 0.  0.
         25    1    1    2    0    0 -0.59446762979E+02  0.18377829906E+03  0.59321631280E+02  0.23759721541E+03  0.12500000000E+03 0.  0.
</event>
<event>
 5    0  0.5489207E-005  0.3188680E+03  0.7546771E-02  0.1076171E+00
         21   -1    0    0  502  501  0.00000000000E+00  0.00000000000E+00  0.31991978455E+04  0.31991978455E+04  0.00000000000E+00 0. -1.
         21   -1    0    0  501  502 -0.00000000000E+00 -0.00000000000E+00 -0.31781974164E+02  0.31781974164E+02  0.00000000000E+00 0. -1.
         25    1    1    2    0    0 -0.11343058132E+03 -0.88874924096E+01  0.14832026410E+04  0.14928029202E+04  0.12500000000E+03 0.  0.
         25    1    1    2    0    0 -0.20149051419E+02 -0.71011292888E+02  0.12710489611E+04  0.12793119438E+04  0.12500000000E+03 0.  0.
         25    1    1    2    0    0  0.13357963274E+03  0.79898785297E+02  0.41316426922E+03  0.45886495566E+03  0.12500000000E+03 0.  0.
</event>
<event>
 5    0  0.5489207E-005  0.3170712E+03  0.7546771E-02  0.1077005E+00
         21   -1    0    0  502  501  0.00000000000E+00  0.00000000000E+00  0.36566033931E+03  0.36566033931E+03  0.00000000000E+00 0.  1.
         21   -1    0    0  501  502 -0.00000000000E+00 -0.00000000000E+00 -0.27493857563E+03  0.27493857563E+03  0.00000000000E+00 0.  1.
         25    1    1    2    0    0  0.60736127649E+02 -0.21547052734E+03  0.31693187082E+02  0.25835224687E+03  0.12500000000E+03 0.  0.
         25    1    1    2    0    0 -0.73976133650E+02  0.36308210656E+02 -0.16719530829E+02  0.15064958421E+03  0.12500000000E+03 0.  0.
         25    1    1    2    0    0  0.13240006002E+02  0.17916231668E+03  0.75748107421E+02  0.23159708387E+03  0.12500000000E+03 0.  0.
</event>
<event>
 5    0  0.5489207E-005  0.2870665E+03  0.7546771E-02  0.1091891E+00
         21   -1    0    0  502  501  0.00000000000E+00  0.00000000000E+00  0.68607331613E+03  0.68607331613E+03  0.00000000000E+00 0.  1.
         21   -1    0    0  501  502 -0.00000000000E+00 -0.00000000000E+00 -0.12011425415E+03  0.12011425415E+03  0.00000000000E+00 0.  1.
         25    1    1    2    0    0  0.99143179853E+02 -0.32779444392E+02  0.30451809360E+03  0.34534060204E+03  0.12500000000E+03 0.  0.
         25    1    1    2    0    0  0.54473253788E+01  0.92354471036E+02  0.10655228286E+02  0.15587673195E+03  0.12500000000E+03 0.  0.
         25    1    1    2    0    0 -0.10459050523E+03 -0.59575026644E+02  0.25078574010E+03  0.30497023629E+03  0.12500000000E+03 0.  0.
</event>
<event>
 5    0  0.6161339E-005  0.4491512E+03  0.7546771E-02  0.1027975E+00
         21   -1    0    0  502  501  0.00000000000E+00  0.00000000000E+00  0.24075750944E+03  0.24075750944E+03  0.00000000000E+00 0.  1.
         21   -1    0    0  501  502 -0.00000000000E+00 -0.00000000000E+00 -0.83792517723E+03  0.83792517723E+03  0.00000000000E+00 0.  1.
         25    1    1    2    0    0  0.60609492501E+02  0.18744956229E+03  0.42981694050E+02  0.23724096402E+03  0.12500000000E+03 0.  0.
         25    1    1    2    0    0 -0.78835450518E+02 -0.31734054408E+03 -0.32367582904E+03  0.47677152965E+03  0.12500000000E+03 0.  0.
         25    1    1    2    0    0  0.18225958017E+02  0.12989098179E+03 -0.31647353281E+03  0.36467019300E+03  0.12500000000E+03 0.  0.
</event>
<event>
 5    0  0.5489207E-005  0.4477456E+03  0.7546771E-02  0.1028396E+00
         21   -1    0    0  502  501  0.00000000000E+00  0.00000000000E+00  0.71694813698E+03  0.71694813698E+03  0.00000000000E+00 0.  1.
         21   -1    0    0  501  502 -0.00000000000E+00 -0.00000000000E+00 -0.27962430056E+03  0.27962430056E+03  0.00000000000E+00 0.  1.
         25    1    1    2    0    0 -0.94106427097E+02  0.40891350256E+02 -0.58486866566E+02  0.17197045010E+03  0.12500000000E+03 0.  0.
         25    1    1    2    0    0  0.12021042004E+03  0.17411797315E+03  0.51821211890E+03  0.57352978461E+03  0.12500000000E+03 0.  0.
         25    1    1    2    0    0 -0.26103992943E+02 -0.21500932341E+03 -0.22401415912E+02  0.25107220283E+03  0.12500000000E+03 0.  0.
</event>
<event>
 5    0  0.5489207E-005  0.2188778E+03  0.7546771E-02  0.1134722E+00
         21   -1    0    0  502  501  0.00000000000E+00  0.00000000000E+00  0.15407147271E+03  0.15407147271E+03  0.00000000000E+00 0.  1.
         21   -1    0    0  501  502 -0.00000000000E+00 -0.00000000000E+00 -0.31094324567E+03  0.31094324567E+03  0.00000000000E+00 0.  1.
         25    1    1    2    0    0  0.63847365995E+02 -0.83144170944E+01  0.14930252246E+02  0.14139847279E+03  0.12500000000E+03 0.  0.
         25    1    1    2    0    0 -0.66866690329E+01 -0.25118227343E+01 -0.36437047487E+02  0.13039815653E+03  0.12500000000E+03 0.  0.
         25    1    1    2    0    0 -0.57160696962E+02  0.10826239829E+02 -0.13536497771E+03  0.19321808905E+03  0.12500000000E+03 0.  0.
</event>
<event>
 5    0  0.5489207E-005  0.4205988E+03  0.7546771E-02  0.1036872E+00
         21   -1    0    0  502  501  0.00000000000E+00  0.00000000000E+00  0.10722846837E+04  0.10722846837E+04  0.00000000000E+00 0.  1.
         21   -1    0    0  501  502 -0.00000000000E+00 -0.00000000000E+00 -0.16497794432E+03  0.16497794432E+03  0.00000000000E+00 0.  1.
         25    1    1    2    0    0  0.33115379371E+03 -0.60511148236E+02  0.40688201431E+03  0.54268076041E+03  0.12500000000E+03 0.  0.
         25    1    1    2    0    0 -0.27767301321E+03  0.53967869589E+02  0.45680944693E+03  0.55164726412E+03  0.12500000000E+03 0.  0.
         25    1    1    2    0    0 -0.53480780500E+02  0.65432786462E+01  0.43615278092E+02  0.14293460344E+03  0.12500000000E+03 0.  0.
</event>
<event>
 5    0  0.5489207E-005  0.4037845E+03  0.7546771E-02  0.1042477E+00
         21   -1    0    0  502  501  0.00000000000E+00  0.00000000000E+00  0.58673311336E+03  0.58673311336E+03  0.00000000000E+00 0. -1.
         21   -1    0    0  501  502 -0.00000000000E+00 -0.00000000000E+00 -0.27788091915E+03  0.27788091915E+03  0.00000000000E+00 0. -1.
         25    1    1    2    0    0  0.36247511043E+02  0.15636670226E+03  0.15322819821E+03  0.25469257617E+03  0.12500000000E+03 0.  0.
         25    1    1    2    0    0 -0.12567795645E+03 -0.29069615624E+03 -0.19407136477E+02  0.34102909104E+03  0.12500000000E+03 0.  0.
         25    1    1    2    0    0  0.89430445404E+02  0.13432945399E+03  0.17503113248E+03  0.26889236529E+03  0.12500000000E+03 0.  0.
</event>
<event>
 5    0  0.5489207E-005  0.2341746E+03  0.7546771E-02  0.1123736E+00
         21   -1    0    0  502  501  0.00000000000E+00  0.00000000000E+00  0.18395553326E+04  0.18395553326E+04  0.00000000000E+00 0. -1.
         21   -1    0    0  501  502 -0.00000000000E+00 -0.00000000000E+00 -0.29810327477E+02  0.29810327477E+02  0.00000000000E+00 0. -1.
         25    1    1    2    0    0 -0.75504974985E+02 -0.86456881188E+02  0.87144346626E+03  0.88781445609E+03  0.12500000000E+03 0.  0.
         25    1    1    2    0    0  0.71846364127E+01  0.23609386053E+02  0.51486420036E+03  0.53039529308E+03  0.12500000000E+03 0.  0.
         25    1    1    2    0    0  0.68320338572E+02  0.62847495135E+02  0.42343733850E+03  0.45115591091E+03  0.12500000000E+03 0.  0.
</event>
<event>
 5    0  0.5489207E-005  0.3371186E+03  0.7546771E-02  0.1068030E+00
         21   -1    0    0  502  501  0.00000000000E+00  0.00000000000E+00  0.47454502127E+02  0.47454502127E+02  0.00000000000E+00 0.  1.
         21   -1    0    0  501  502 -0.00000000000E+00 -0.00000000000E+00 -0.23949028031E+04  0.23949028031E+04  0.00000000000E+00 0.  1.
         25    1    1    2    0    0  0.52689388057E+02 -0.19760588717E+03 -0.49527454358E+03  0.55022371067E+03  0.12500000000E+03 0.  0.
         25    1    1    2    0    0 -0.55545257495E+02 -0.52484395648E+01 -0.46839685797E+03  0.48798917847E+03  0.12500000000E+03 0.  0.
         25    1    1    2    0    0  0.28558694386E+01  0.20285432674E+03 -0.13837768994E+04  0.14041444161E+04  0.12500000000E+03 0.  0.
</event>
<event>
 5    0  0.5489207E-005  0.3823688E+03  0.7546771E-02  0.1050062E+00
         21   -1    0    0  502  501  0.00000000000E+00  0.00000000000E+00  0.32858651818E+03  0.32858651818E+03  0.00000000000E+00 0. -1.
         21   -1    0    0  501  502 -0.00000000000E+00 -0.00000000000E+00 -0.44495411531E+03  0.44495411531E+03  0.00000000000E+00 0. -1.
         25    1    1    2    0    0  0.15545375696E+03 -0.23953101627E+03 -0.82947451394E+02  0.32256202195E+03  0.12500000000E+03 0.  0.
         25    1    1    2    0    0  0.69588455710E+01  0.48477112265E+02 -0.94545609589E+02  0.16420209572E+03  0.12500000000E+03 0.  0.
         25    1    1    2    0    0 -0.16241260254E+03  0.19105390400E+03  0.61125463850E+02  0.28677651582E+03  0.12500000000E+03 0.  0.
</event>
<event>
 5    0  0.5489207E-005  0.3035448E+03  0.7546771E-02  0.1083482E+00
         21   -1    0    0  502  501  0.00000000000E+00  0.00000000000E+00  0.29324178588E+03  0.29324178588E+03  0.00000000000E+00 0.  1.
         21   -1    0    0  501  502 -0.00000000000E+00 -0.00000000000E+00 -0.31420986312E+03  0.31420986312E+03  0.00000000000E+00 0.  1.
         25    1    1    2    0    0 -0.47731013078E+02  0.99244919395E+02 -0.82335784367E+02  0.18582783705E+03  0.12500000000E+03 0.  0.
         25    1    1    2    0    0  0.83238809969E+02  0.95514193199E+02  0.58927530416E+02  0.18748097084E+03  0.12500000000E+03 0.  0.
         25    1    1    2    0    0 -0.35507796891E+02 -0.19475911259E+03  0.24401767045E+01  0.23414284111E+03  0.12500000000E+03 0.  0.
</event>
<event>
 5    0  0.5489207E-005  0.2712381E+03  0.7546771E-02  0.1100573E+00
         21   -1    0    0  502  501  0.00000000000E+00  0.00000000000E+00  0.82373686833E+03  0.82373686833E+03  0.00000000000E+00 0.  1.
         21   -1    0    0  501  502 -0.00000000000E+00 -0.00000000000E+00 -0.89312647285E+02  0.89312647285E+02  0.00000000000E+00 0.  1.
         25    1    1    2    0    0  0.72336900392E+02  0.15445210829E+02  0.47569217206E+03  0.49737231955E+03  0.12500000000E+03 0.  0.
         25    1    1    2    0    0  0.37267174440E+01  0.44759431542E+02  0.21292088638E+03  0.25095338012E+03  0.12500000000E+03 0.  0.
         25    1    1    2    0    0 -0.76063617836E+02 -0.60204642371E+02  0.45811162606E+02  0.16472381595E+03  0.12500000000E+03 0.  0.
</event>
<event>
 5    0  0.5489207E-005  0.4633521E+03  0.7546771E-02  0.1023813E+00
         21   -1    0    0  502  501  0.00000000000E+00  0.00000000000E+00  0.13353063239E+03  0.13353063239E+03  0.00000000000E+00 0. -1.
         21   -1    0    0  501  502 -0.00000000000E+00 -0.00000000000E+00 -0.16078345870E+04  0.16078345870E+04  0.00000000000E+00 0. -1.
         25    1    1    2    0    0  0.98415094220E+02 -0.11891843914E+03 -0.22924491455E+02  0.19994413781E+03  0.12500000000E+03 0.  0.
         25    1    1    2    0    0 -0.95986546763E+02 -0.12969635741E+03 -0.91114004376E+03  0.93372144756E+03  0.12500000000E+03 0.  0.
         25    1    1    2    0    0 -0.24285474565E+01  0.24861479655E+03 -0.54023941937E+03  0.60769963399E+03  0.12500000000E+03 0.  0.
</event>
<event>
 5    0  0.5489207E-005  0.2210299E+03  0.7546771E-02  0.1133118E+00
         21   -1    0    0  502  501  0.00000000000E+00  0.00000000000E+00  0.18895848946E+03  0.18895848946E+03  0.00000000000E+00 0.  1.
         21   -1    0    0  501  502 -0.00000000000E+00 -0.00000000000E+00 -0.25854465305E+03  0.25854465305E+03  0.00000000000E+00 0.  1.
         25    1    1    2    0    0  0.48998849226E+02 -0.62264461351E+02  0.88737369672E+00  0.14799843852E+03  0.12500000000E+03 0.  0.
         25    1    1    2    0    0  0.18074055013E+02  0.10318393639E+02 -0.77023286203E+02  0.14829270828E+03  0.12500000000E+03 0.  0.
         25    1    1    2    0    0 -0.67072904239E+02  0.51946067712E+02  0.65497489163E+01  0.15121199570E+03  0.12500000000E+03 0.  0.
</event>
<event>
 5    0  0.5489207E-005  0.3807332E+03  0.7546771E-02  0.1050663E+00
         21   -1    0    0  502  501  0.00000000000E+00  0.00000000000E+00  0.55017395321E+03  0.55017395321E+03  0.00000000000E+00 0.  1.
         21   -1    0    0  501  502 -0.00000000000E+00 -0.00000000000E+00 -0.26347628559E+03  0.26347628559E+03  0.00000000000E+00 0.  1.
         25    1    1    2    0    0 -0.11366153974E+03  0.21126104495E+02  0.92574566524E+01  0.17051673938E+03  0.12500000000E+03 0.  0.
         25    1    1    2    0    0  0.79474745660E+01 -0.24520583838E+03  0.23580618655E+03  0.36251706600E+03  0.12500000000E+03 0.  0.
         25    1    1    2    0    0  0.10571406517E+03  0.22407973388E+03  0.41634024422E+02  0.28061643341E+03  0.12500000000E+03 0.  0.
</event>
<event>
 5    0  0.5489207E-005  0.2523390E+03  0.7546771E-02  0.1111836E+00
         21   -1    0    0  502  501  0.00000000000E+00  0.00000000000E+00  0.33161297790E+02  0.33161297790E+02  0.00000000000E+00 0. -1.
         21   -1    0    0  501  502 -0.00000000000E+00 -0.00000000000E+00 -0.19201584982E+04  0.19201584982E+04  0.00000000000E+00 0. -1.
         25    1    1    2    0    0  0.56997984417E+02  0.26040043251E+02 -0.41309448489E+03  0.43611799725E+03  0.12500000000E+03 0.  0.
         25    1    1    2    0    0  0.37083123095E+02 -0.11624612227E+03 -0.60404329618E+03  0.62879378386E+03  0.12500000000E+03 0.  0.
         25    1    1    2    0    0 -0.94081107512E+02  0.90206079024E+02 -0.86985941932E+03  0.88840801485E+03  0.12500000000E+03 0.  0.
</event>
<event>
 5    0  0.5489207E-005  0.3541020E+03  0.7546771E-02  0.1060944E+00
         21   -1    0    0  502  501  0.00000000000E+00  0.00000000000E+00  0.15876980496E+03  0.15876980496E+03  0.00000000000E+00 0. -1.
         21   -1    0    0  501  502 -0.00000000000E+00 -0.00000000000E+00 -0.78974843376E+03  0.78974843376E+03  0.00000000000E+00 0.  1.
         25    1    1    2    0    0  0.36271714558E+02  0.14400432578E+03 -0.16349351974E+03  0.25378734034E+03  0.12500000000E+03 0.  0.
         25    1    1    2    0    0  0.11805147493E+03 -0.22100621133E+03 -0.36020625824E+03  0.45623836386E+03  0.12500000000E+03 0.  0.
         25    1    1    2    0    0 -0.15432318948E+03  0.77001885555E+02 -0.10727885081E+03  0.23849253452E+03  0.12500000000E+03 0.  0.
</event>
<event>
 5    0  0.5489207E-005  0.2395108E+03  0.7546771E-02  0.1120119E+00
         21   -1    0    0  502  501  0.00000000000E+00  0.00000000000E+00  0.18484457914E+03  0.18484457914E+03  0.00000000000E+00 0.  1.
         21   -1    0    0  501  502 -0.00000000000E+00 -0.00000000000E+00 -0.31034406414E+03  0.31034406414E+03  0.00000000000E+00 0.  1.
         25    1    1    2    0    0  0.21916469310E+02 -0.71692315423E+02 -0.74463730024E+01  0.14594714176E+03  0.12500000000E+03 0.  0.
         25    1    1    2    0    0  0.57094042097E+02  0.13814249775E+02  0.19078561242E+02  0.13942580335E+03  0.12500000000E+03 0.  0.
         25    1    1    2    0    0 -0.79010511407E+02  0.57878065648E+02 -0.13713167324E+03  0.20981569818E+03  0.12500000000E+03 0.  0.
</event>
<event>
 5    0  0.5489207E-005  0.2702488E+03  0.7546771E-02  0.1101137E+00
         21   -1    0    0  502  501  0.00000000000E+00  0.00000000000E+00  0.24357733867E+03  0.24357733867E+03  0.00000000000E+00 0.  1.
         21   -1    0    0  501  502 -0.00000000000E+00 -0.00000000000E+00 -0.29984068783E+03  0.29984068783E+03  0.00000000000E+00 0.  1.
         25    1    1    2    0    0  0.61981330963E+00  0.11227807141E+02  0.11622260087E+03  0.17105303498E+03  0.12500000000E+03 0.  0.
         25    1    1    2    0    0  0.72055688983E+02  0.47624740506E+02 -0.15199986672E+03  0.21491649007E+03  0.12500000000E+03 0.  0.
         25    1    1    2    0    0 -0.72675502292E+02 -0.58852547648E+02 -0.20486083315E+02  0.15744850145E+03  0.12500000000E+03 0.  0.
</event>
<event>
 5    0  0.5489207E-005  0.2619788E+03  0.7546771E-02  0.1105960E+00
         21   -1    0    0  502  501  0.00000000000E+00  0.00000000000E+00  0.10160343559E+04  0.10160343559E+04  0.00000000000E+00 0.  1.
         21   -1    0    0  501  502 -0.00000000000E+00 -0.00000000000E+00 -0.67549799336E+02  0.67549799336E+02  0.00000000000E+00 0.  1.
         25    1    1    2    0    0  0.27079433269E+02 -0.64927544224E+02  0.10901412373E+03  0.18016093050E+03  0.12500000000E+03 0.  0.
         25    1    1    2    0    0  0.44319647491E+02  0.11893685311E+03  0.49901761459E+03  0.52986204417E+03  0.12500000000E+03 0.  0.
         25    1    1    2    0    0 -0.71399080760E+02 -0.54009308884E+02  0.34045281826E+03  0.37356118058E+03  0.12500000000E+03 0.  0.
</event>
<event>
 5    0  0.5489207E-005  0.2389415E+03  0.7546771E-02  0.1120500E+00
         21   -1    0    0  502  501  0.00000000000E+00  0.00000000000E+00  0.22121433043E+03  0.22121433043E+03  0.00000000000E+00 0.  1.
         21   -1    0    0  501  502 -0.00000000000E+00 -0.00000000000E+00 -0.25808925835E+03  0.25808925835E+03  0.00000000000E+00 0.  1.
         25    1    1    2    0    0 -0.12792116372E+03 -0.47706959320E+02  0.17439980552E+02  0.18592721967E+03  0.12500000000E+03 0.  0.
         25    1    1    2    0    0  0.82518203942E+02  0.15187524864E+02 -0.17212327745E+02  0.15152946618E+03  0.12500000000E+03 0.  0.
         25    1    1    2    0    0  0.45402959775E+02  0.32519434456E+02 -0.37102580720E+02  0.14184690293E+03  0.12500000000E+03 0.  0.
</event>
<event>
 5    0  0.5489207E-005  0.2635149E+03  0.7546771E-02  0.1105050E+00
         21   -1    0    0  502  501  0.00000000000E+00  0.00000000000E+00  0.26954068651E+03  0.26954068651E+03  0.00000000000E+00 0.  1.
         21   -1    0    0  501  502 -0.00000000000E+00 -0.00000000000E+00 -0.25762374959E+03  0.25762374959E+03  0.00000000000E+00 0.  1.
         25    1    1    2    0    0 -0.86277647574E+02  0.35334064699E+02  0.84637456828E+02  0.17742837343E+03  0.12500000000E+03 0.  0.
         25    1    1    2    0    0 -0.21274155154E+02 -0.93776982054E+02  0.61520537336E+01  0.15782762688E+03  0.12500000000E+03 0.  0.
         25    1    1    2    0    0  0.10755180273E+03  0.58442917354E+02 -0.78872573641E+02  0.19190843580E+03  0.12500000000E+03 0.  0.
</event>
<event>
 5    0  0.5489207E-005  0.4544015E+03  0.7546771E-02  0.1026418E+00
         21   -1    0    0  502  501  0.00000000000E+00  0.00000000000E+00  0.92976520416E+02  0.92976520416E+02  0.00000000000E+00 0.  1.
         21   -1    0    0  501  502 -0.00000000000E+00 -0.00000000000E+00 -0.22207830923E+04  0.22207830923E+04  0.00000000000E+00 0.  1.
         25    1    1    2    0    0 -0.63570511598E+02  0.14163495636E+03 -0.90799364464E+03  0.92961235443E+03  0.12500000000E+03 0.  0.
         25    1    1    2    0    0  0.28769911936E+03 -0.15632356855E+03 -0.43681705580E+03  0.56003748231E+03  0.12500000000E+03 0.  0.
         25    1    1    2    0    0 -0.22412860776E+03  0.14688612192E+02 -0.78299587144E+03  0.82410977597E+03  0.12500000000E+03 0.  0.
</event>
<event>
 5    0  0.5489207E-005  0.3779660E+03  0.7546771E-02  0.1051688E+00
         21   -1    0    0  502  501  0.00000000000E+00  0.00000000000E+00  0.14993525889E+04  0.14993525889E+04  0.00000000000E+00 0. -1.
         21   -1    0    0  501  502 -0.00000000000E+00 -0.00000000000E+00 -0.95279991908E+02  0.95279991908E+02  0.00000000000E+00 0. -1.
         25    1    1    2    0    0  0.58731305535E+02  0.78689404620E+02  0.81796587002E+02  0.17876540575E+03  0.12500000000E+03 0.  0.
         25    1    1    2    0    0  0.16423804829E+03 -0.29303355852E+01  0.33730846337E+03  0.39545508321E+03  0.12500000000E+03 0.  0.
         25    1    1    2    0    0 -0.22296935383E+03 -0.75759069035E+02  0.98496754660E+03  0.10204120918E+04  0.12500000000E+03 0.  0.
</event>
<event>
 5    0  0.5489207E-005  0.3366838E+03  0.7546771E-02  0.1068217E+00
         21   -1    0    0  502  501  0.00000000000E+00  0.00000000000E+00  0.23057696113E+03  0.23057696113E+03  0.00000000000E+00 0. -1.
         21   -1    0    0  501  502 -0.00000000000E+00 -0.00000000000E+00 -0.49161894852E+03  0.49161894852E+03  0.00000000000E+00 0. -1.
         25    1    1    2    0    0  0.19263684555E+03 -0.87513038030E+02  0.22981236237E+02  0.24682103498E+03  0.12500000000E+03 0.  0.
         25    1    1    2    0    0 -0.83997282717E+02  0.80990713314E+02 -0.32352510601E+02  0.17403081362E+03  0.12500000000E+03 0.  0.
         25    1    1    2    0    0 -0.10863956283E+03  0.65223247161E+01 -0.25167071303E+03  0.30134406104E+03  0.12500000000E+03 0.  0.
</event>
<event>
 5    0  0.5489207E-005  0.2635378E+03  0.7546771E-02  0.1105036E+00
         21   -1    0    0  502  501  0.00000000000E+00  0.00000000000E+00  0.93480952368E+02  0.93480952368E+02  0.00000000000E+00 0. -1.
         21   -1    0    0  501  502 -0.00000000000E+00 -0.00000000000E+00 -0.74295556836E+03  0.74295556836E+03  0.00000000000E+00 0. -1.
         25    1    1    2    0    0 -0.21485741130E+02  0.83638612448E+02 -0.13894411406E+03  0.20588229986E+03  0.12500000000E+03 0.  0.
         25    1    1    2    0    0  0.22170373838E+02  0.43277391659E+02 -0.39765569378E+03  0.41966594918E+03  0.12500000000E+03 0.  0.
         25    1    1    2    0    0 -0.68463270821E+00 -0.12691600411E+03 -0.11287480815E+03  0.21088827169E+03  0.12500000000E+03 0.  0.
</event>
<event>
 5    0  0.5489207E-005  0.2756579E+03  0.7546771E-02  0.1098084E+00
         21   -1    0    0  502  501  0.00000000000E+00  0.00000000000E+00  0.40794352193E+03  0.40794352193E+03  0.00000000000E+00 0.  1.
         21   -1    0    0  501  502 -0.00000000000E+00 -0.00000000000E+00 -0.18626916032E+03  0.18626916032E+03  0.00000000000E+00 0.  1.
         25    1    1    2    0    0  0.39681269622E+02  0.47112704119E+02  0.13178880464E+03  0.19180067538E+03  0.12500000000E+03 0.  0.
         25    1    1    2    0    0 -0.15716406330E+03  0.58778497472E+01 -0.16023024932E+01  0.20090460245E+03  0.12500000000E+03 0.  0.
         25    1    1    2    0    0  0.11748279368E+03 -0.52990553866E+02  0.91487859457E+02  0.20150740442E+03  0.12500000000E+03 0.  0.
</event>
<event>
 5    0  0.5489207E-005  0.2203794E+03  0.7546771E-02  0.1133601E+00
         21   -1    0    0  502  501  0.00000000000E+00  0.00000000000E+00  0.70583552905E+03  0.70583552905E+03  0.00000000000E+00 0.  1.
         21   -1    0    0  501  502 -0.00000000000E+00 -0.00000000000E+00 -0.68807933318E+02  0.68807933318E+02  0.00000000000E+00 0.  1.
         25    1    1    2    0    0 -0.23359289224E+02  0.37196998209E+02  0.84971205456E+02  0.15739878915E+03  0.12500000000E+03 0.  0.
         25    1    1    2    0    0  0.18926902520E+02  0.35615585986E+02  0.26576604717E+03  0.29645115860E+03  0.12500000000E+03 0.  0.
         25    1    1    2    0    0  0.44323867042E+01 -0.72812584195E+02  0.28629034311E+03  0.32079351463E+03  0.12500000000E+03 0.  0.
</event>
<event>
 5    0  0.5489207E-005  0.4273569E+03  0.7546771E-02  0.1034698E+00
         21   -1    0    0  502  501  0.00000000000E+00  0.00000000000E+00  0.12397701304E+03  0.12397701304E+03  0.00000000000E+00 0.  1.
         21   -1    0    0  501  502 -0.00000000000E+00 -0.00000000000E+00 -0.14731272264E+04  0.14731272264E+04  0.00000000000E+00 0.  1.
         25    1    1    2    0    0 -0.34690844336E+02  0.53353320438E+02 -0.10157582178E+04  0.10253973808E+04  0.12500000000E+03 0.  0.
         25    1    1    2    0    0  0.63609674254E+02  0.12803245847E+03 -0.28794775874E+03  0.34493102621E+03  0.12500000000E+03 0.  0.
         25    1    1    2    0    0 -0.28918829918E+02 -0.18138577891E+03 -0.45444236811E+02  0.22677583243E+03  0.12500000000E+03 0.  0.
</event>
<event>
 5    0  0.5489207E-005  0.2572270E+03  0.7546771E-02  0.1108821E+00
         21   -1    0    0  502  501  0.00000000000E+00  0.00000000000E+00  0.72906952895E+02  0.72906952895E+02  0.00000000000E+00 0. -1.
         21   -1    0    0  501  502 -0.00000000000E+00 -0.00000000000E+00 -0.90753642924E+03  0.90753642924E+03  0.00000000000E+00 0. -1.
         25    1    1    2    0    0  0.35616367701E+02 -0.93914778221E+02 -0.34362661516E+03  0.37920016069E+03  0.12500000000E+03 0.  0.
         25    1    1    2    0    0  0.24407694034E+02  0.52079671133E+02 -0.41594263176E+03  0.43811105965E+03  0.12500000000E+03 0.  0.
         25    1    1    2    0    0 -0.60024061736E+02  0.41835107088E+02 -0.75060229426E+02  0.16313216180E+03  0.12500000000E+03 0.  0.
</event>
<event>
 5    0  0.5489207E-005  0.2671132E+03  0.7546771E-02  0.1102943E+00
         21   -1    0    0  502  501  0.00000000000E+00  0.00000000000E+00  0.13117191354E+03  0.13117191354E+03  0.00000000000E+00 0.  1.
         21   -1    0    0  501  502 -0.00000000000E+00 -0.00000000000E+00 -0.54393868083E+03  0.54393868083E+03  0.00000000000E+00 0.  1.
         25    1    1    2    0    0 -0.33931903228E+02 -0.89214357128E+02 -0.32330503373E+02  0.16056412122E+03  0.12500000000E+03 0.  0.
         25    1    1    2    0    0 -0.71853284384E+02  0.65898553836E+02 -0.95468724349E+02  0.18505348201E+03  0.12500000000E+03 0.  0.
         25    1    1    2    0    0  0.10578518761E+03  0.23315803293E+02 -0.28496753957E+03  0.32949299114E+03  0.12500000000E+03 0.  0.
</event>
<event>
 5    0  0.5489207E-005  0.3347091E+03  0.7546771E-02  0.1069072E+00
         21   -1    0    0  502  501  0.00000000000E+00  0.00000000000E+00  0.17480182437E+03  0.17480182437E+03  0.00000000000E+00 0.  1.
         21   -1    0    0  501  502 -0.00000000000E+00 -0.00000000000E+00 -0.64089825584E+03  0.64089825584E+03  0.00000000000E+00 0.  1.
         25    1    1    2    0    0 -0.39581162826E+02  0.49423602994E+02  0.29590128714E+01  0.14015390377E+03  0.12500000000E+03 0.  0.
         25    1    1    2    0    0  0.13303603442E+03 -0.19708547962E+03 -0.29543135124E+03  0.39930684445E+03  0.12500000000E+03 0.  0.
         25    1    1    2    0    0 -0.93454871595E+02  0.14766187662E+03 -0.17362409311E+03  0.27623933200E+03  0.12500000000E+03 0.  0.
</event>
<event>
 5    0  0.5489207E-005  0.3678945E+03  0.7546771E-02  0.1055501E+00
         21   -1    0    0  502  501  0.00000000000E+00  0.00000000000E+00  0.19152020277E+03  0.19152020277E+03  0.00000000000E+00 0. -1.
         21   -1    0    0  501  502 -0.00000000000E+00 -0.00000000000E+00 -0.70669497202E+03  0.70669497202E+03  0.00000000000E+00 0. -1.
         25    1    1    2    0    0  0.17620220827E+02  0.16192996099E+03 -0.49968539573E+03  0.54022428597E+03  0.12500000000E+03 0.  0.
         25    1    1    2    0    0  0.88865970990E+02 -0.92339622545E+02 -0.57222467319E+00  0.17902260788E+03  0.12500000000E+03 0.  0.
         25    1    1    2    0    0 -0.10648619182E+03 -0.69590338440E+02 -0.14917148854E+02  0.17896828094E+03  0.12500000000E+03 0.  0.
</event>
<event>
 5    0  0.5489207E-005  0.2506633E+03  0.7546771E-02  0.1112886E+00
         21   -1    0    0  502  501  0.00000000000E+00  0.00000000000E+00  0.11658581601E+04  0.11658581601E+04  0.00000000000E+00 0.  1.
         21   -1    0    0  501  502 -0.00000000000E+00 -0.00000000000E+00 -0.53893441951E+02  0.53893441951E+02  0.00000000000E+00 0.  1.
         25    1    1    2    0    0 -0.36746958747E+02  0.12568528134E+03  0.32883497413E+03  0.37537257376E+03  0.12500000000E+03 0.  0.
         25    1    1    2    0    0  0.66884730738E+02 -0.16267609940E+02  0.42791445130E+03  0.45108090180E+03  0.12500000000E+03 0.  0.
         25    1    1    2    0    0 -0.30137771991E+02 -0.10941767140E+03  0.35521529268E+03  0.39329812645E+03  0.12500000000E+03 0.  0.
</event>
<event>
 5    0  0.5489207E-005  0.3454292E+03  0.7546771E-02  0.1064507E+00
         21   -1    0    0  502  501  0.00000000000E+00  0.00000000000E+00  0.14019411330E+03  0.14019411330E+03  0.00000000000E+00 0.  1.
         21   -1    0    0  501  502 -0.00000000000E+00 -0.00000000000E+00 -0.85111492619E+03  0.85111492619E+03  0.00000000000E+00 0.  1.
         25    1    1    2    0    0  0.15591711852E+02 -0.16378163107E+03 -0.46836155949E+03  0.51191315139E+03  0.12500000000E+03 0.  0.
         25    1    1    2    0    0  0.50113239860E+02 -0.14689428073E+02  0.14295128319E+02  0.13622212302E+03  0.12500000000E+03 0.  0.
         25    1    1    2    0    0 -0.65704951713E+02  0.17847105914E+03 -0.25685438173E+03  0.34317376508E+03  0.12500000000E+03 0.  0.
</event>
<event>
 5    0  0.5489207E-005  0.4623124E+03  0.7546771E-02  0.1024113E+00
         21   -1    0    0  502  501  0.00000000000E+00  0.00000000000E+00  0.38953044461E+03  0.38953044461E+03  0.00000000000E+00 0. -1.
         21   -1    0    0  501  502 -0.00000000000E+00 -0.00000000000E+00 -0.54869325301E+03  0.54869325301E+03  0.00000000000E+00 0. -1.
         25    1    1    2    0    0  0.19209251895E+03  0.19184691267E+03 -0.10045560708E+03  0.31531112053E+03  0.12500000000E+03 0.  0.
         25    1    1    2    0    0 -0.31640920051E+03 -0.18723690997E+03  0.82497740069E+02  0.39699284596E+03  0.12500000000E+03 0.  0.
         25    1    1    2    0    0  0.12431668157E+03 -0.46100027037E+01 -0.14120494138E+03  0.22591973113E+03  0.12500000000E+03 0.  0.
</event>
<event>
 5    0  0.5489207E-005  0.2447256E+03  0.7546771E-02  0.1116684E+00
         21   -1    0    0  502  501  0.00000000000E+00  0.00000000000E+00  0.46454570373E+02  0.46454570373E+02  0.00000000000E+00 0.  1.
         21   -1    0    0  501  502 -0.00000000000E+00 -0.00000000000E+00 -0.12892297082E+04  0.12892297082E+04  0.00000000000E+00 0.  1.
         25    1    1    2    0    0  0.96279448623E+02 -0.10424987862E+03 -0.51779395966E+03  0.55124708986E+03  0.12500000000E+03 0.  0.
         25    1    1    2    0    0 -0.84887737979E+02  0.48825675297E+02 -0.32807140069E+03  0.36448006609E+03  0.12500000000E+03 0.  0.
         25    1    1    2    0    0 -0.11391710644E+02  0.55424203320E+02 -0.39690977748E+03  0.41995712263E+03  0.12500000000E+03 0.  0.
</event>
<event>
 5    0  0.5489207E-005  0.2980799E+03  0.7546771E-02  0.1086204E+00
         21   -1    0    0  502  501  0.00000000000E+00  0.00000000000E+00  0.48761387683E+03  0.48761387683E+03  0.00000000000E+00 0. -1.
         21   -1    0    0  501  502 -0.00000000000E+00 -0.00000000000E+00 -0.18221712650E+03  0.18221712650E+03  0.00000000000E+00 0. -1.
         25    1    1    2    0    0 -0.26855013318E+01  0.75010805742E+02  0.14560666253E+02  0.14652933460E+03  0.12500000000E+03 0.  0.
         25    1    1    2    0    0  0.29604087413E+02 -0.60442788646E+02 -0.56571600272E+02  0.15282368484E+03  0.12500000000E+03 0.  0.
         25    1    1    2    0    0 -0.26918586081E+02 -0.14568017096E+02  0.34740768436E+03  0.37047798389E+03  0.12500000000E+03 0.  0.
</event>
<event>
 5    0  0.5489207E-005  0.2944591E+03  0.7546771E-02  0.1088044E+00
         21   -1    0    0  502  501  0.00000000000E+00  0.00000000000E+00  0.53994486457E+03  0.53994486457E+03  0.00000000000E+00 0.  1.
         21   -1    0    0  501  502 -0.00000000000E+00 -0.00000000000E+00 -0.16058335352E+03  0.16058335352E+03  0.00000000000E+00 0.  1.
         25    1    1    2    0    0  0.84438456131E+02  0.12364256658E+03  0.62846891799E+02  0.20491966463E+03  0.12500000000E+03 0.  0.
         25    1    1    2    0    0 -0.81130750861E+02 -0.18697747611E+03  0.22420923156E+03  0.32777668438E+03  0.12500000000E+03 0.  0.
         25    1    1    2    0    0 -0.33077052692E+01  0.63334909535E+02  0.92305387698E+02  0.16783186908E+03  0.12500000000E+03 0.  0.
</event>
<event>
 5    0  0.5489207E-005  0.3353875E+03  0.7546771E-02  0.1068778E+00
         21   -1    0    0  502  501  0.00000000000E+00  0.00000000000E+00  0.79110593392E+03  0.79110593392E+03  0.00000000000E+00 0. -1.
         21   -1    0    0  501  502 -0.00000000000E+00 -0.00000000000E+00 -0.14218675545E+03  0.14218675545E+03  0.00000000000E+00 0. -1.
         25    1    1    2    0    0  0.51792172421E+02  0.80115758060E+02 -0.12487710932E+02  0.15773999727E+03  0.12500000000E+03 0.  0.
         25    1    1    2    0    0 -0.13263625288E+03 -0.11410628099E+03  0.53747361878E+03  0.57889162183E+03  0.12500000000E+03 0.  0.
         25    1    1    2    0    0  0.80844080461E+02  0.33990522933E+02  0.12393327062E+03  0.19666107027E+03  0.12500000000E+03 0.  0.
</event>
<event>
 5    0  0.5489207E-005  0.6418161E+03  0.7546771E-02  0.9822258E-01
         21   -1    0    0  502  501  0.00000000000E+00  0.00000000000E+00  0.23319427622E+03  0.23319427622E+03  0.00000000000E+00 0. -1.
         21   -1    0    0  501  502 -0.00000000000E+00 -0.00000000000E+00 -0.17664578182E+04  0.17664578182E+04  0.00000000000E+00 0. -1.
         25    1    1    2    0    0 -0.28924186157E+03 -0.16578189265E+03 -0.45329216022E+03  0.57640547615E+03  0.12500000000E+03 0.  0.
         25    1    1    2    0    0  0.32444916280E+02  0.43237217307E+03 -0.27491058195E+03  0.52839303241E+03  0.12500000000E+03 0.  0.
         25    1    1    2    0    0  0.25679694529E+03 -0.26659028042E+03 -0.80506079983E+03  0.89485358587E+03  0.12500000000E+03 0.  0.
</event>
<event>
 5    0  0.5489207E-005  0.3967063E+03  0.7546771E-02  0.1044926E+00
         21   -1    0    0  502  501  0.00000000000E+00  0.00000000000E+00  0.84860632604E+03  0.84860632604E+03  0.00000000000E+00 0. -1.
         21   -1    0    0  501  502 -0.00000000000E+00 -0.00000000000E+00 -0.18545217020E+03  0.18545217020E+03  0.00000000000E+00 0. -1.
         25    1    1    2    0    0 -0.42990960298E+01 -0.13042892244E+03  0.30004339538E+03  0.35025879738E+03  0.12500000000E+03 0.  0.
         25    1    1    2    0    0 -0.22207431283E+02  0.93464322279E+02 -0.11007255260E+03  0.19227510598E+03  0.12500000000E+03 0.  0.
         25    1    1    2    0    0  0.26506527313E+02  0.36964600157E+02  0.47318331306E+03  0.49152459289E+03  0.12500000000E+03 0.  0.
</event>
<event>
 5    0  0.5489207E-005  0.6824077E+03  0.7546771E-02  0.9747799E-01
         21   -1    0    0  502  501  0.00000000000E+00  0.00000000000E+00  0.16403428974E+04  0.16403428974E+04  0.00000000000E+00 0. -1.
         21   -1    0    0  501  502 -0.00000000000E+00 -0.00000000000E+00 -0.28389204987E+03  0.28389204987E+03  0.00000000000E+00 0. -1.
         25    1    1    2    0    0  0.12067934432E+03  0.55562731759E+03  0.40536975639E+03  0.70939048457E+03  0.12500000000E+03 0.  0.
         25    1    1    2    0    0 -0.19338507580E+03 -0.32260557671E+03  0.26715899649E+03  0.47798648001E+03  0.12500000000E+03 0.  0.
         25    1    1    2    0    0  0.72705731484E+02 -0.23302174088E+03  0.68392209461E+03  0.73685798266E+03  0.12500000000E+03 0.  0.
</event>
<event>
 5    0  0.5489207E-005  0.3343107E+03  0.7546771E-02  0.1069245E+00
         21   -1    0    0  502  501  0.00000000000E+00  0.00000000000E+00  0.80036431097E+03  0.80036431097E+03  0.00000000000E+00 0. -1.
         21   -1    0    0  501  502 -0.00000000000E+00 -0.00000000000E+00 -0.13964093120E+03  0.13964093120E+03  0.00000000000E+00 0. -1.
         25    1    1    2    0    0 -0.39715783658E+02 -0.84576429405E+02 -0.22276992417E+02  0.15764447429E+03  0.12500000000E+03 0.  0.
         25    1    1    2    0    0 -0.17073013221E+02  0.14424344050E+03  0.20127263373E+03  0.27790885375E+03  0.12500000000E+03 0.  0.
         25    1    1    2    0    0  0.56788796879E+02 -0.59667011090E+02  0.48172773846E+03  0.50445191413E+03  0.12500000000E+03 0.  0.
</event>
<event>
 5    0  0.5489207E-005  0.3509283E+03  0.7546771E-02  0.1062235E+00
         21   -1    0    0  502  501  0.00000000000E+00  0.00000000000E+00  0.36114748350E+03  0.36114748350E+03  0.00000000000E+00 0. -1.
         21   -1    0    0  501  502 -0.00000000000E+00 -0.00000000000E+00 -0.34099821048E+03  0.34099821048E+03  0.00000000000E+00 0. -1.
         25    1    1    2    0    0  0.11419367148E+03 -0.44338005327E+02 -0.19074203489E+03  0.25886980743E+03  0.12500000000E+03 0.  0.
         25    1    1    2    0    0 -0.98219839093E+02 -0.93045524467E+02  0.36058004506E+02  0.18769599384E+03  0.12500000000E+03 0.  0.
         25    1    1    2    0    0 -0.15973832390E+02  0.13738352979E+03  0.17483330341E+03  0.25557989271E+03  0.12500000000E+03 0.  0.
</event>
<event>
 5    0  0.5489207E-005  0.6824233E+03  0.7546771E-02  0.9747772E-01
         21   -1    0    0  502  501  0.00000000000E+00  0.00000000000E+00  0.80803163603E+03  0.80803163603E+03  0.00000000000E+00 0. -1.
         21   -1    0    0  501  502 -0.00000000000E+00 -0.00000000000E+00 -0.57634076387E+03  0.57634076387E+03  0.00000000000E+00 0. -1.
         25    1    1    2    0    0 -0.26247720983E+03 -0.13698347521E+02  0.65851715251E+03  0.71996650655E+03  0.12500000000E+03 0.  0.
         25    1    1    2    0    0  0.73896800134E+02  0.17677479278E+03 -0.16703757223E+03  0.28326068377E+03  0.12500000000E+03 0.  0.
         25    1    1    2    0    0  0.18858040970E+03 -0.16307644526E+03 -0.25978870811E+03  0.38114520958E+03  0.12500000000E+03 0.  0.
</event>
<event>
 5    0  0.5489207E-005  0.3380714E+03  0.7546771E-02  0.1067620E+00
         21   -1    0    0  502  501  0.00000000000E+00  0.00000000000E+00  0.13886867684E+03  0.13886867684E+03  0.00000000000E+00 0. -1.
         21   -1    0    0  501  502 -0.00000000000E+00 -0.00000000000E+00 -0.82302430164E+03  0.82302430164E+03  0.00000000000E+00 0. -1.
         25    1    1    2    0    0 -0.48935659446E+02  0.22324398896E+03 -0.13149631157E+03  0.29180277128E+03  0.12500000000E+03 0.  0.
         25    1    1    2    0    0 -0.44764933178E+02 -0.14087449228E+03 -0.35990483000E+03  0.40866368627E+03  0.12500000000E+03 0.  0.
         25    1    1    2    0    0  0.93700592623E+02 -0.82369496678E+02 -0.19275448323E+03  0.26142652093E+03  0.12500000000E+03 0.  0.
</event>
<event>
 5    0  0.5489207E-005  0.3941889E+03  0.7546771E-02  0.1045811E+00
         21   -1    0    0  502  501  0.00000000000E+00  0.00000000000E+00  0.15737464071E+03  0.15737464071E+03  0.00000000000E+00 0.  1.
         21   -1    0    0  501  502 -0.00000000000E+00 -0.00000000000E+00 -0.98735636921E+03  0.98735636921E+03  0.00000000000E+00 0.  1.
         25    1    1    2    0    0 -0.11874319660E+03  0.14865751712E+03 -0.57729962466E+02  0.23485474809E+03  0.12500000000E+03 0.  0.
         25    1    1    2    0    0  0.18040618856E+03  0.43743056210E+02 -0.50452723753E+03  0.55193530531E+03  0.12500000000E+03 0.  0.
         25    1    1    2    0    0 -0.61662991956E+02 -0.19240057333E+03 -0.26772452850E+03  0.35794095652E+03  0.12500000000E+03 0.  0.
</event>
<event>
 5    0  0.5489207E-005  0.2485667E+03  0.7546771E-02  0.1114214E+00
         21   -1    0    0  502  501  0.00000000000E+00  0.00000000000E+00  0.17030241241E+04  0.17030241241E+04  0.00000000000E+00 0.  1.
         21   -1    0    0  501  502 -0.00000000000E+00 -0.00000000000E+00 -0.36279821978E+02  0.36279821978E+02  0.00000000000E+00 0.  1.
         25    1    1    2    0    0 -0.45722231822E+02 -0.64468568201E+02  0.52861798154E+03  0.54891592178E+03  0.12500000000E+03 0.  0.
         25    1    1    2    0    0  0.30157484034E+02 -0.98625852840E+00  0.92761372488E+03  0.93648420656E+03  0.12500000000E+03 0.  0.
         25    1    1    2    0    0  0.15564747788E+02  0.65454826729E+02  0.21051259569E+03  0.25390381774E+03  0.12500000000E+03 0.  0.
</event>
<event>
 5    0  0.5489207E-005  0.2442920E+03  0.7546771E-02  0.1116966E+00
         21   -1    0    0  502  501  0.00000000000E+00  0.00000000000E+00  0.98237165525E+02  0.98237165525E+02  0.00000000000E+00 0.  1.
         21   -1    0    0  501  502 -0.00000000000E+00 -0.00000000000E+00 -0.60749481742E+03  0.60749481742E+03  0.00000000000E+00 0.  1.
         25    1    1    2    0    0  0.44984265003E+02  0.21068705585E+02 -0.21196613525E+03  0.25104206210E+03  0.12500000000E+03 0.  0.
         25    1    1    2    0    0 -0.47410517287E+01 -0.12211131470E+03 -0.12005985185E+03  0.21206842946E+03  0.12500000000E+03 0.  0.
         25    1    1    2    0    0 -0.40243213274E+02  0.10104260911E+03 -0.17723166480E+03  0.24262149138E+03  0.12500000000E+03 0.  0.
</event>
<event>
 5    0  0.5489207E-005  0.4322133E+03  0.7546771E-02  0.1033163E+00
         21   -1    0    0  502  501  0.00000000000E+00  0.00000000000E+00  0.16006893935E+03  0.16006893935E+03  0.00000000000E+00 0.  1.
         21   -1    0    0  501  502 -0.00000000000E+00 -0.00000000000E+00 -0.11670489976E+04  0.11670489976E+04  0.00000000000E+00 0.  1.
         25    1    1    2    0    0 -0.26664730309E+03  0.18628268444E+03 -0.52297300829E+03  0.62843280481E+03  0.12500000000E+03 0.  0.
         25    1    1    2    0    0  0.10426241020E+03 -0.10773386691E+02 -0.37266229098E+03  0.40680326838E+03  0.12500000000E+03 0.  0.
         25    1    1    2    0    0  0.16238489289E+03 -0.17550929775E+03 -0.11134475896E+03  0.29188186374E+03  0.12500000000E+03 0.  0.
</event>
<event>
 5    0  0.5489207E-005  0.3354981E+03  0.7546771E-02  0.1068730E+00
         21   -1    0    0  502  501  0.00000000000E+00  0.00000000000E+00  0.25740889413E+03  0.25740889413E+03  0.00000000000E+00 0.  1.
         21   -1    0    0  501  502 -0.00000000000E+00 -0.00000000000E+00 -0.43727697816E+03  0.43727697816E+03  0.00000000000E+00 0.  1.
         25    1    1    2    0    0 -0.23459668778E+03  0.42899430778E+02 -0.56985321687E+02  0.27522407955E+03  0.12500000000E+03 0.  0.
         25    1    1    2    0    0  0.24229717049E+03 -0.17613951476E+02 -0.87755403123E+02  0.28695675787E+03  0.12500000000E+03 0.  0.
         25    1    1    2    0    0 -0.77004827086E+01 -0.25285479302E+02 -0.35127359227E+02  0.13250503486E+03  0.12500000000E+03 0.  0.
</event>
<event>
 5    0  0.5489207E-005  0.4891161E+03  0.7546771E-02  0.1016659E+00
         21   -1    0    0  502  501  0.00000000000E+00  0.00000000000E+00  0.63074018150E+03  0.63074018150E+03  0.00000000000E+00 0.  1.
         21   -1    0    0  501  502 -0.00000000000E+00 -0.00000000000E+00 -0.37929179054E+03  0.37929179054E+03  0.00000000000E+00 0.  1.
         25    1    1    2    0    0  0.37197074627E+03  0.99515033175E+02 -0.10079368510E+02  0.40495934559E+03  0.12500000000E+03 0.  0.
         25    1    1    2    0    0 -0.84655194558E+02 -0.68693454310E+02  0.23700455606E+03  0.28927746581E+03  0.12500000000E+03 0.  0.
         25    1    1    2    0    0 -0.28731555171E+03 -0.30821578866E+02  0.24523203411E+02  0.31579516064E+03  0.12500000000E+03 0.  0.
</event>
<event>
 5    0  0.6157568E-005  0.3716418E+03  0.7546771E-02  0.1054067E+00
         21   -1    0    0  502  501  0.00000000000E+00  0.00000000000E+00  0.28103277711E+03  0.28103277711E+03  0.00000000000E+00 0.  1.
         21   -1    0    0  501  502 -0.00000000000E+00 -0.00000000000E+00 -0.49146452865E+03  0.49146452865E+03  0.00000000000E+00 0.  1.
         25    1    1    2    0    0  0.93740856195E+01  0.44730923078E+02 -0.33131941603E+03  0.35705221522E+03  0.12500000000E+03 0.  0.
         25    1    1    2    0    0 -0.18970893612E+02 -0.16748012946E+03  0.14698148828E+02  0.21035808553E+03  0.12500000000E+03 0.  0.
         25    1    1    2    0    0  0.95968079929E+01  0.12274920638E+03  0.10618951565E+03  0.20508700501E+03  0.12500000000E+03 0.  0.
</event>
<event>
 5    0  0.5489207E-005  0.2812716E+03  0.7546771E-02  0.1094996E+00
         21   -1    0    0  502  501  0.00000000000E+00  0.00000000000E+00  0.13806279386E+04  0.13806279386E+04  0.00000000000E+00 0. -1.
         21   -1    0    0  501  502 -0.00000000000E+00 -0.00000000000E+00 -0.57302721451E+02  0.57302721451E+02  0.00000000000E+00 0. -1.
         25    1    1    2    0    0 -0.10576176361E+03 -0.32691677094E+02  0.72102458344E+03  0.74010522652E+03  0.12500000000E+03 0.  0.
         25    1    1    2    0    0  0.11926460320E+03  0.56696330938E+02  0.50590143792E+03  0.53758700171E+03  0.12500000000E+03 0.  0.
         25    1    1    2    0    0 -0.13502839594E+02 -0.24004653844E+02  0.96399195780E+02  0.16023843181E+03  0.12500000000E+03 0.  0.
</event>
<event>
 5    0  0.5489207E-005  0.3635301E+03  0.7546771E-02  0.1057195E+00
         21   -1    0    0  502  501  0.00000000000E+00  0.00000000000E+00  0.15918618861E+04  0.15918618861E+04  0.00000000000E+00 0. -1.
         21   -1    0    0  501  502 -0.00000000000E+00 -0.00000000000E+00 -0.83018572025E+02  0.83018572025E+02  0.00000000000E+00 0. -1.
         25    1    1    2    0    0  0.78719258689E+02  0.19354326446E+03  0.51127719176E+03  0.56629063538E+03  0.12500000000E+03 0.  0.
         25    1    1    2    0    0  0.96111364958E+02  0.34484639957E+02  0.44489773558E+03  0.47327114849E+03  0.12500000000E+03 0.  0.
         25    1    1    2    0    0 -0.17483062365E+03 -0.22802790441E+03  0.55266838669E+03  0.63531867421E+03  0.12500000000E+03 0.  0.
</event>
<event>
 5    0  0.5489207E-005  0.3299428E+03  0.7546771E-02  0.1071162E+00
         21   -1    0    0  502  501  0.00000000000E+00  0.00000000000E+00  0.59447131738E+03  0.59447131738E+03  0.00000000000E+00 0.  1.
         21   -1    0    0  501  502 -0.00000000000E+00 -0.00000000000E+00 -0.18312447325E+03  0.18312447325E+03  0.00000000000E+00 0.  1.
         25    1    1    2    0    0  0.94534913128E+01  0.39293459563E+02  0.12833641107E+03  0.18365342052E+03  0.12500000000E+03 0.  0.
         25    1    1    2    0    0  0.12668689742E+03  0.12527864973E+02  0.34818126333E+03  0.39123101809E+03  0.12500000000E+03 0.  0.
         25    1    1    2    0    0 -0.13614038873E+03 -0.51821324536E+02 -0.65170830273E+02  0.20271135202E+03  0.12500000000E+03 0.  0.
</event>
<event>
 5    0  0.5489207E-005  0.3258962E+03  0.7546771E-02  0.1072967E+00
         21   -1    0    0  502  501  0.00000000000E+00  0.00000000000E+00  0.48044711268E+02  0.48044711268E+02  0.00000000000E+00 0. -1.
         21   -1    0    0  501  502 -0.00000000000E+00 -0.00000000000E+00 -0.22106142241E+04  0.22106142241E+04  0.00000000000E+00 0. -1.
         25    1    1    2    0    0 -0.14798774959E+02 -0.74440346485E+02 -0.52909057696E+03  0.54892823534E+03  0.12500000000E+03 0.  0.
         25    1    1    2    0    0 -0.15429653161E+03 -0.10832416800E+03 -0.74854199341E+03  0.78197292852E+03  0.12500000000E+03 0.  0.
         25    1    1    2    0    0  0.16909530657E+03  0.18276451448E+03 -0.88493694242E+03  0.92775777146E+03  0.12500000000E+03 0.  0.
</event>
<event>
 5    0  0.5489207E-005  0.1992716E+03  0.7546771E-02  0.1150355E+00
         21   -1    0    0  502  501  0.00000000000E+00  0.00000000000E+00  0.10489449888E+03  0.10489449888E+03  0.00000000000E+00 0.  1.
         21   -1    0    0  501  502 -0.00000000000E+00 -0.00000000000E+00 -0.37856307200E+03  0.37856307200E+03  0.00000000000E+00 0.  1.
         25    1    1    2    0    0 -0.35733507619E+01 -0.22687585758E+02 -0.91953606403E+02  0.15686924846E+03  0.12500000000E+03 0.  0.
         25    1    1    2    0    0  0.77618837571E+01  0.32665094151E+02 -0.14811739908E+03  0.19670032823E+03  0.12500000000E+03 0.  0.
         25    1    1    2    0    0 -0.41885329952E+01 -0.99775083933E+01 -0.33597567638E+02  0.12988799419E+03  0.12500000000E+03 0.  0.
</event>
<event>
 5    0  0.5489207E-005  0.3016359E+03  0.7546771E-02  0.1084426E+00
         21   -1    0    0  502  501  0.00000000000E+00  0.00000000000E+00  0.33563413712E+03  0.33563413712E+03  0.00000000000E+00 0.  1.
         21   -1    0    0  501  502 -0.00000000000E+00 -0.00000000000E+00 -0.27108160846E+03  0.27108160846E+03  0.00000000000E+00 0.  1.
         25    1    1    2    0    0 -0.80013911499E+02  0.61045761977E+02 -0.59289720681E+02  0.17108209160E+03  0.12500000000E+03 0.  0.
         25    1    1    2    0    0 -0.23523752849E+02  0.11042900366E+03  0.10562491135E+03  0.19882040563E+03  0.12500000000E+03 0.  0.
         25    1    1    2    0    0  0.10353766435E+03 -0.17147476564E+03  0.18217337999E+02  0.23681324835E+03  0.12500000000E+03 0.  0.
</event>
<event>
 5    0  0.5489207E-005  0.3121665E+03  0.7546771E-02  0.1079312E+00
         21   -1    0    0  502  501  0.00000000000E+00  0.00000000000E+00  0.29895882413E+03  0.29895882413E+03  0.00000000000E+00 0. -1.
         21   -1    0    0  501  502 -0.00000000000E+00 -0.00000000000E+00 -0.32595760074E+03  0.32595760074E+03  0.00000000000E+00 0. -1.
         25    1    1    2    0    0 -0.68953138284E+02 -0.83601832055E+02  0.18841672046E+03  0.25073823432E+03  0.12500000000E+03 0.  0.
         25    1    1    2    0    0  0.93491450408E+02  0.70484843475E+02 -0.84271204054E+02  0.19088059171E+03  0.12500000000E+03 0.  0.
         25    1    1    2    0    0 -0.24538312124E+02  0.13116988580E+02 -0.13114429301E+03  0.18329759884E+03  0.12500000000E+03 0.  0.
</event>
<event>
 5    0  0.5489207E-005  0.5710135E+03  0.7546771E-02  0.9967438E-01
         21   -1    0    0  502  501  0.00000000000E+00  0.00000000000E+00  0.24916529416E+03  0.24916529416E+03  0.00000000000E+00 0.  1.
         21   -1    0    0  501  502 -0.00000000000E+00 -0.00000000000E+00 -0.13085949184E+04  0.13085949184E+04  0.00000000000E+00 0.  1.
         25    1    1    2    0    0  0.80672794754E+02  0.13909993054E+03  0.14289803658E+03  0.24880060159E+03  0.12500000000E+03 0.  0.
         25    1    1    2    0    0 -0.15260049835E+03 -0.14045965816E+03 -0.25862115794E+03  0.35429610639E+03  0.12500000000E+03 0.  0.
         25    1    1    2    0    0  0.71927703592E+02  0.13597276215E+01 -0.94370650293E+03  0.95466350463E+03  0.12500000000E+03 0.  0.
</event>
<event>
 5    0  0.5489207E-005  0.2375490E+03  0.7546771E-02  0.1121436E+00
         21   -1    0    0  502  501  0.00000000000E+00  0.00000000000E+00  0.81151335216E+02  0.81151335216E+02  0.00000000000E+00 0.  1.
         21   -1    0    0  501  502 -0.00000000000E+00 -0.00000000000E+00 -0.69536159242E+03  0.69536159242E+03  0.00000000000E+00 0.  1.
         25    1    1    2    0    0  0.30951120766E+02  0.56409220778E+01 -0.15219040763E+03  0.19944099893E+03  0.12500000000E+03 0.  0.
         25    1    1    2    0    0  0.63697761929E+01 -0.42617368419E+02 -0.46772981111E+02  0.14024808698E+03  0.12500000000E+03 0.  0.
         25    1    1    2    0    0 -0.37320896959E+02  0.36976446341E+02 -0.41524686846E+03  0.43682384172E+03  0.12500000000E+03 0.  0.
</event>
<event>
 5    0  0.5562192E-005  0.2876150E+03  0.7546771E-02  0.1091601E+00
         21   -1    0    0  502  501  0.00000000000E+00  0.00000000000E+00  0.59273623638E+03  0.59273623638E+03  0.00000000000E+00 0.  1.
         21   -1    0    0  501  502 -0.00000000000E+00 -0.00000000000E+00 -0.13956024828E+03  0.13956024828E+03  0.00000000000E+00 0.  1.
         25    1    1    2    0    0  0.12693897683E+03 -0.11846077918E+03  0.72727128629E+02  0.22596613747E+03  0.12500000000E+03 0.  0.
         25    1    1    2    0    0 -0.51782762748E+02  0.44123113606E+01  0.92374221622E+02  0.16388691171E+03  0.12500000000E+03 0.  0.
         25    1    1    2    0    0 -0.75156214085E+02  0.11404846782E+03  0.28807463786E+03  0.34244343548E+03  0.12500000000E+03 0.  0.
</event>
<event>
 5    0  0.5489207E-005  0.6072339E+03  0.7546771E-02  0.9890511E-01
         21   -1    0    0  502  501  0.00000000000E+00  0.00000000000E+00  0.49243569413E+03  0.49243569413E+03  0.00000000000E+00 0.  1.
         21   -1    0    0  501  502 -0.00000000000E+00 -0.00000000000E+00 -0.74879434773E+03  0.74879434773E+03  0.00000000000E+00 0.  1.
         25    1    1    2    0    0 -0.92313678413E+02 -0.18564213441E+03 -0.17225634544E+03  0.29712298100E+03  0.12500000000E+03 0.  0.
         25    1    1    2    0    0  0.31188029000E+02  0.43351458484E+03 -0.33670644513E+03  0.56382960069E+03  0.12500000000E+03 0.  0.
         25    1    1    2    0    0  0.61125649413E+02 -0.24787245043E+03  0.25260413698E+03  0.38027746017E+03  0.12500000000E+03 0.  0.
</event>
<event>
 5    0  0.5489207E-005  0.2460110E+03  0.7546771E-02  0.1115852E+00
         21   -1    0    0  502  501  0.00000000000E+00  0.00000000000E+00  0.61874099448E+03  0.61874099448E+03  0.00000000000E+00 0. -1.
         21   -1    0    0  501  502 -0.00000000000E+00 -0.00000000000E+00 -0.97813770052E+02  0.97813770052E+02  0.00000000000E+00 0. -1.
         25    1    1    2    0    0 -0.75837845522E+02 -0.86932464177E+02  0.11389109314E+03  0.20470665167E+03  0.12500000000E+03 0.  0.
         25    1    1    2    0    0 -0.30349969228E+02  0.11459885158E+02  0.18621887426E+03  0.22661623669E+03  0.12500000000E+03 0.  0.
         25    1    1    2    0    0  0.10618781475E+03  0.75472579019E+02  0.22081725703E+03  0.28523187618E+03  0.12500000000E+03 0.  0.
</event>
<event>
 5    0  0.5489207E-005  0.4215103E+03  0.7546771E-02  0.1036576E+00
         21   -1    0    0  502  501  0.00000000000E+00  0.00000000000E+00  0.72983584886E+03  0.72983584886E+03  0.00000000000E+00 0.  1.
         21   -1    0    0  501  502 -0.00000000000E+00 -0.00000000000E+00 -0.24343963217E+03  0.24343963217E+03  0.00000000000E+00 0.  1.
         25    1    1    2    0    0  0.25212350997E+03  0.28994786986E+02  0.12370360420E+03  0.30876292466E+03  0.12500000000E+03 0.  0.
         25    1    1    2    0    0 -0.30990192383E+03  0.11419252643E+03  0.18848290576E+03  0.40028732337E+03  0.12500000000E+03 0.  0.
         25    1    1    2    0    0  0.57778413860E+02 -0.14318731341E+03  0.17420970673E+03  0.26422523299E+03  0.12500000000E+03 0.  0.
</event>
<event>
 5    0  0.5489207E-005  0.3010816E+03  0.7546771E-02  0.1084701E+00
         21   -1    0    0  502  501  0.00000000000E+00  0.00000000000E+00  0.38372871184E+03  0.38372871184E+03  0.00000000000E+00 0.  1.
         21   -1    0    0  501  502 -0.00000000000E+00 -0.00000000000E+00 -0.23623498628E+03  0.23623498628E+03  0.00000000000E+00 0.  1.
         25    1    1    2    0    0 -0.14921915986E+03  0.29462154499E+01  0.12752842138E+03  0.23273060846E+03  0.12500000000E+03 0.  0.
         25    1    1    2    0    0  0.97530852567E+02 -0.68100112207E+02  0.11698793696E+03  0.20847318743E+03  0.12500000000E+03 0.  0.
         25    1    1    2    0    0  0.51688307295E+02  0.65153896757E+02 -0.97022632771E+02  0.17875990223E+03  0.12500000000E+03 0.  0.
</event>
<event>
 5    0  0.5489207E-005  0.4621783E+03  0.7546771E-02  0.1024151E+00
         21   -1    0    0  502  501  0.00000000000E+00  0.00000000000E+00  0.39296622664E+03  0.39296622664E+03  0.00000000000E+00 0. -1.
         21   -1    0    0  501  502 -0.00000000000E+00 -0.00000000000E+00 -0.54358048417E+03  0.54358048417E+03  0.00000000000E+00 0. -1.
         25    1    1    2    0    0  0.62938558179E+01  0.19132956323E+02  0.14962706141E+03  0.19600750022E+03  0.12500000000E+03 0.  0.
         25    1    1    2    0    0 -0.13854238867E+03  0.54408763858E+02  0.15251989474E+03  0.24706603436E+03  0.12500000000E+03 0.  0.
         25    1    1    2    0    0  0.13224853286E+03 -0.73541720181E+02 -0.45276121368E+03  0.49347317623E+03  0.12500000000E+03 0.  0.
</event>
<event>
 5    0  0.5489207E-005  0.5621907E+03  0.7546771E-02  0.9987110E-01
         21   -1    0    0  502  501  0.00000000000E+00  0.00000000000E+00  0.95420047383E+02  0.95420047383E+02  0.00000000000E+00 0.  1.
         21   -1    0    0  501  502 -0.00000000000E+00 -0.00000000000E+00 -0.33122847705E+04  0.33122847705E+04  0.00000000000E+00 0.  1.
         25    1    1    2    0    0  0.88649208174E+02  0.13128418500E+03 -0.10030989337E+03  0.22534705246E+03  0.12500000000E+03 0.  0.
         25    1    1    2    0    0 -0.27115800824E+03  0.10833790481E+03 -0.15163252266E+04  0.15492356050E+04  0.12500000000E+03 0.  0.
         25    1    1    2    0    0  0.18250880007E+03 -0.23962208981E+03 -0.16002296032E+04  0.16331221605E+04  0.12500000000E+03 0.  0.
</event>
<event>
 5    0  0.5530942E-005  0.4138622E+03  0.7546771E-02  0.1039083E+00
         21   -1    0    0  502  501  0.00000000000E+00  0.00000000000E+00  0.30493170966E+03  0.30493170966E+03  0.00000000000E+00 0. -1.
         21   -1    0    0  501  502 -0.00000000000E+00 -0.00000000000E+00 -0.56170584654E+03  0.56170584654E+03  0.00000000000E+00 0. -1.
         25    1    1    2    0    0  0.16103172177E+03  0.86424585151E+02 -0.28146530389E+03  0.35811749696E+03  0.12500000000E+03 0.  0.
         25    1    1    2    0    0  0.10479457502E+02 -0.20585353451E+03  0.88468402039E+02  0.25678231025E+03  0.12500000000E+03 0.  0.
         25    1    1    2    0    0 -0.17151117927E+03  0.11942894936E+03 -0.63777235035E+02  0.25173774899E+03  0.12500000000E+03 0.  0.
</event>
<event>
 5    0  0.5489207E-005  0.2830754E+03  0.7546771E-02  0.1094021E+00
         21   -1    0    0  502  501  0.00000000000E+00  0.00000000000E+00  0.55561860980E+02  0.55561860980E+02  0.00000000000E+00 0.  1.
         21   -1    0    0  501  502 -0.00000000000E+00 -0.00000000000E+00 -0.14422065081E+04  0.14422065081E+04  0.00000000000E+00 0.  1.
         25    1    1    2    0    0 -0.16060051334E+03 -0.53815898335E+01 -0.88250937703E+03  0.90568719044E+03  0.12500000000E+03 0.  0.
         25    1    1    2    0    0  0.76618194751E+02  0.47426819381E+02 -0.24485036509E+03  0.28930321853E+03  0.12500000000E+03 0.  0.
         25    1    1    2    0    0  0.83982318594E+02 -0.42045229547E+02 -0.25928490497E+03  0.30277796008E+03  0.12500000000E+03 0.  0.
</event>
<event>
 5    0  0.5489207E-005  0.2255794E+03  0.7546771E-02  0.1129790E+00
         21   -1    0    0  502  501  0.00000000000E+00  0.00000000000E+00  0.55258197365E+03  0.55258197365E+03  0.00000000000E+00 0.  1.
         21   -1    0    0  501  502 -0.00000000000E+00 -0.00000000000E+00 -0.92087810624E+02  0.92087810624E+02  0.00000000000E+00 0.  1.
         25    1    1    2    0    0 -0.69275072202E+01  0.34167622442E+02  0.32290010263E+03  0.34800128313E+03  0.12500000000E+03 0.  0.
         25    1    1    2    0    0 -0.10561027160E+02  0.15607520412E+02  0.55256924179E+02  0.13796179782E+03  0.12500000000E+03 0.  0.
         25    1    1    2    0    0  0.17488534381E+02 -0.49775142854E+02  0.82337136220E+02  0.15870670333E+03  0.12500000000E+03 0.  0.
</event>
<event>
 5    0  0.5489207E-005  0.3537227E+03  0.7546771E-02  0.1061097E+00
         21   -1    0    0  502  501  0.00000000000E+00  0.00000000000E+00  0.12747463615E+03  0.12747463615E+03  0.00000000000E+00 0. -1.
         21   -1    0    0  501  502 -0.00000000000E+00 -0.00000000000E+00 -0.98152638871E+03  0.98152638871E+03  0.00000000000E+00 0. -1.
         25    1    1    2    0    0 -0.81338095223E+02 -0.12044862728E+03 -0.44294694615E+03  0.48264972253E+03  0.12500000000E+03 0.  0.
         25    1    1    2    0    0  0.16340365585E+03  0.99567776146E+02 -0.41669819056E+03  0.47526506163E+03  0.12500000000E+03 0.  0.
         25    1    1    2    0    0 -0.82065560623E+02  0.20880851137E+02  0.55933841465E+01  0.15108624071E+03  0.12500000000E+03 0.  0.
</event>
<event>
 5    0  0.5489207E-005  0.2157213E+03  0.7546771E-02  0.1137114E+00
         21   -1    0    0  502  501  0.00000000000E+00  0.00000000000E+00  0.13845470998E+03  0.13845470998E+03  0.00000000000E+00 0. -1.
         21   -1    0    0  501  502 -0.00000000000E+00 -0.00000000000E+00 -0.33610765852E+03  0.33610765852E+03  0.00000000000E+00 0. -1.
         25    1    1    2    0    0 -0.76519524996E+02  0.51657116315E+01 -0.60287016880E+02  0.15856054581E+03  0.12500000000E+03 0.  0.
         25    1    1    2    0    0 -0.10874984313E+02  0.88408398612E+01 -0.93352488144E+02  0.15664007398E+03  0.12500000000E+03 0.  0.
         25    1    1    2    0    0  0.87394509309E+02 -0.14006551493E+02 -0.44013443513E+02  0.15936174871E+03  0.12500000000E+03 0.  0.
</event>
<event>
 5    0  0.5489207E-005  0.3150060E+03  0.7546771E-02  0.1077971E+00
         21   -1    0    0  502  501  0.00000000000E+00  0.00000000000E+00  0.26146329716E+03  0.26146329716E+03  0.00000000000E+00 0.  1.
         21   -1    0    0  501  502 -0.00000000000E+00 -0.00000000000E+00 -0.37951318662E+03  0.37951318662E+03  0.00000000000E+00 0.  1.
         25    1    1    2    0    0  0.16346524870E+03 -0.91953243716E+02 -0.12408472186E+02  0.22573271085E+03  0.12500000000E+03 0.  0.
         25    1    1    2    0    0 -0.63543415729E+02  0.12206981333E+03 -0.15822151648E+03  0.24412671563E+03  0.12500000000E+03 0.  0.
         25    1    1    2    0    0 -0.99921832976E+02 -0.30116569614E+02  0.52580099200E+02  0.17111705731E+03  0.12500000000E+03 0.  0.
</event>
<event>
 5    0  0.5489207E-005  0.2329475E+03  0.7546771E-02  0.1124582E+00
         21   -1    0    0  502  501  0.00000000000E+00  0.00000000000E+00  0.19481997482E+03  0.19481997482E+03  0.00000000000E+00 0. -1.
         21   -1    0    0  501  502 -0.00000000000E+00 -0.00000000000E+00 -0.27853691187E+03  0.27853691187E+03  0.00000000000E+00 0. -1.
         25    1    1    2    0    0  0.10146708331E+03  0.25908330377E+01 -0.29656811305E+02  0.16372784695E+03  0.12500000000E+03 0.  0.
         25    1    1    2    0    0  0.16445586452E+02  0.25030957850E+02 -0.42941417065E+01  0.12860966456E+03  0.12500000000E+03 0.  0.
         25    1    1    2    0    0 -0.11791266976E+03 -0.27621790887E+02 -0.49765984045E+02  0.18101937518E+03  0.12500000000E+03 0.  0.
</event>
<event>
 5    0  0.5489207E-005  0.2132521E+03  0.7546771E-02  0.1139016E+00
         21   -1    0    0  502  501  0.00000000000E+00  0.00000000000E+00  0.76194431551E+02  0.76194431551E+02  0.00000000000E+00 0. -1.
         21   -1    0    0  501  502 -0.00000000000E+00 -0.00000000000E+00 -0.59684758246E+03  0.59684758246E+03  0.00000000000E+00 0. -1.
         25    1    1    2    0    0 -0.43321863463E+02 -0.45765904389E+02 -0.14472999996E+03  0.20135310960E+03  0.12500000000E+03 0.  0.
         25    1    1    2    0    0  0.15107746541E+01 -0.24304952360E+02 -0.23020224738E+03  0.26308000275E+03  0.12500000000E+03 0.  0.
         25    1    1    2    0    0  0.41811088809E+02  0.70070856749E+02 -0.14572090357E+03  0.20860890166E+03  0.12500000000E+03 0.  0.
</event>
<event>
 5    0  0.5489207E-005  0.2416923E+03  0.7546771E-02  0.1118671E+00
         21   -1    0    0  502  501  0.00000000000E+00  0.00000000000E+00  0.33866312841E+02  0.33866312841E+02  0.00000000000E+00 0. -1.
         21   -1    0    0  501  502 -0.00000000000E+00 -0.00000000000E+00 -0.17248747882E+04  0.17248747882E+04  0.00000000000E+00 0. -1.
         25    1    1    2    0    0  0.19298585277E+02 -0.53035637355E+02 -0.56990136375E+03  0.58617214078E+03  0.12500000000E+03 0.  0.
         25    1    1    2    0    0  0.33622919708E+02 -0.77270194011E+02 -0.40478131238E+03  0.43194223510E+03  0.12500000000E+03 0.  0.
         25    1    1    2    0    0 -0.52921504985E+02  0.13030583137E+03 -0.71632579920E+03  0.74062672513E+03  0.12500000000E+03 0.  0.
</event>
<event>
 5    0  0.5489207E-005  0.6729054E+03  0.7546771E-02  0.9764723E-01
         21   -1    0    0  502  501  0.00000000000E+00  0.00000000000E+00  0.88716626433E+03  0.88716626433E+03  0.00000000000E+00 0. -1.
         21   -1    0    0  501  502 -0.00000000000E+00 -0.00000000000E+00 -0.51039098006E+03  0.51039098006E+03  0.00000000000E+00 0. -1.
         25    1    1    2    0    0  0.18460629010E+02  0.26461153486E+03 -0.11989953113E+03  0.31679797469E+03  0.12500000000E+03 0.  0.
         25    1    1    2    0    0 -0.26485022709E+03  0.20110808175E+03  0.39235185826E+03  0.52929678255E+03  0.12500000000E+03 0.  0.
         25    1    1    2    0    0  0.24638959808E+03 -0.46571961661E+03  0.10432295714E+03  0.55146248714E+03  0.12500000000E+03 0.  0.
</event>
<event>
 5    0  0.5489207E-005  0.3121353E+03  0.7546771E-02  0.1079327E+00
         21   -1    0    0  502  501  0.00000000000E+00  0.00000000000E+00  0.95159734106E+02  0.95159734106E+02  0.00000000000E+00 0. -1.
         21   -1    0    0  501  502 -0.00000000000E+00 -0.00000000000E+00 -0.10238409304E+04  0.10238409304E+04  0.00000000000E+00 0. -1.
         25    1    1    2    0    0  0.11012404799E+03  0.11196292560E+03 -0.54345734863E+03  0.57933918600E+03  0.12500000000E+03 0.  0.
         25    1    1    2    0    0 -0.26806637446E+02 -0.58104031963E+02 -0.20971546673E+02  0.14198408401E+03  0.12500000000E+03 0.  0.
         25    1    1    2    0    0 -0.83317410539E+02 -0.53858893634E+02 -0.36425230102E+03  0.39767739453E+03  0.12500000000E+03 0.  0.
</event>
<event>
 5    0  0.5489207E-005  0.2548724E+03  0.7546771E-02  0.1110264E+00
         21   -1    0    0  502  501  0.00000000000E+00  0.00000000000E+00  0.10244524035E+03  0.10244524035E+03  0.00000000000E+00 0. -1.
         21   -1    0    0  501  502 -0.00000000000E+00 -0.00000000000E+00 -0.63409432359E+03  0.63409432359E+03  0.00000000000E+00 0. -1.
         25    1    1    2    0    0  0.13200457742E+02 -0.10466062929E+03 -0.20359830256E+03  0.26116157492E+03  0.12500000000E+03 0.  0.
         25    1    1    2    0    0 -0.11231473706E+02  0.14308545046E+03 -0.27455374695E+03  0.33407237554E+03  0.12500000000E+03 0.  0.
         25    1    1    2    0    0 -0.19689840361E+01 -0.38424821175E+02 -0.53497033725E+02  0.14130561347E+03  0.12500000000E+03 0.  0.
</event>
<event>
 5    0  0.5489207E-005  0.2571944E+03  0.7546771E-02  0.1108841E+00
         21   -1    0    0  502  501  0.00000000000E+00  0.00000000000E+00  0.53795447118E+02  0.53795447118E+02  0.00000000000E+00 0.  1.
         21   -1    0    0  501  502 -0.00000000000E+00 -0.00000000000E+00 -0.12296387944E+04  0.12296387944E+04  0.00000000000E+00 0.  1.
         25    1    1    2    0    0  0.79552449703E+01  0.10235109016E+03 -0.38450192021E+03  0.41713997438E+03  0.12500000000E+03 0.  0.
         25    1    1    2    0    0  0.55020241842E+02 -0.14403119425E+03 -0.54369542631E+03  0.57879351113E+03  0.12500000000E+03 0.  0.
         25    1    1    2    0    0 -0.62975486812E+02  0.41680104096E+02 -0.24764600078E+03  0.28750075603E+03  0.12500000000E+03 0.  0.
</event>
<event>
 5    0  0.5489207E-005  0.2918233E+03  0.7546771E-02  0.1089401E+00
         21   -1    0    0  502  501  0.00000000000E+00  0.00000000000E+00  0.18136017849E+03  0.18136017849E+03  0.00000000000E+00 0.  1.
         21   -1    0    0  501  502 -0.00000000000E+00 -0.00000000000E+00 -0.46956735479E+03  0.46956735479E+03  0.00000000000E+00 0.  1.
         25    1    1    2    0    0  0.55463177032E+02 -0.80591773363E+02  0.39313792880E+02  0.16352911744E+03  0.12500000000E+03 0.  0.
         25    1    1    2    0    0  0.42503840842E+02  0.13196224255E+03 -0.12363115055E+03  0.22389790381E+03  0.12500000000E+03 0.  0.
         25    1    1    2    0    0 -0.97967017874E+02 -0.51370469185E+02 -0.20388981863E+03  0.26350051202E+03  0.12500000000E+03 0.  0.
</event>
<event>
 5    0  0.5489207E-005  0.2408491E+03  0.7546771E-02  0.1119228E+00
         21   -1    0    0  502  501  0.00000000000E+00  0.00000000000E+00  0.74472631902E+03  0.74472631902E+03  0.00000000000E+00 0. -1.
         21   -1    0    0  501  502 -0.00000000000E+00 -0.00000000000E+00 -0.77892071143E+02  0.77892071143E+02  0.00000000000E+00 0. -1.
         25    1    1    2    0    0 -0.75051327254E+02 -0.43539617331E+02  0.35070304369E+03  0.38229049799E+03  0.12500000000E+03 0.  0.
         25    1    1    2    0    0  0.73711339047E+02  0.68674349884E+02  0.99265423980E+02  0.18875421117E+03  0.12500000000E+03 0.  0.
         25    1    1    2    0    0  0.13399882066E+01 -0.25134732553E+02  0.21686578020E+03  0.25157368100E+03  0.12500000000E+03 0.  0.
</event>
<event>
 5    0  0.5489207E-005  0.2928593E+03  0.7546771E-02  0.1088866E+00
         21   -1    0    0  502  501  0.00000000000E+00  0.00000000000E+00  0.41523828164E+02  0.41523828164E+02  0.00000000000E+00 0. -1.
         21   -1    0    0  501  502 -0.00000000000E+00 -0.00000000000E+00 -0.20654789607E+04  0.20654789607E+04  0.00000000000E+00 0. -1.
         25    1    1    2    0    0 -0.12140385811E+02  0.56696203415E+02 -0.16372683563E+03  0.21399375027E+03  0.12500000000E+03 0.  0.
         25    1    1    2    0    0 -0.10106771716E+02 -0.14819748568E+03 -0.10049492878E+04  0.10235295367E+04  0.12500000000E+03 0.  0.
         25    1    1    2    0    0  0.22247157527E+02  0.91501282263E+02 -0.85527900917E+03  0.86947950188E+03  0.12500000000E+03 0.  0.
</event>
<event>
 5    0  0.5489207E-005  0.2701510E+03  0.7546771E-02  0.1101193E+00
         21   -1    0    0  502  501  0.00000000000E+00  0.00000000000E+00  0.71695963394E+02  0.71695963394E+02  0.00000000000E+00 0. -1.
         21   -1    0    0  501  502 -0.00000000000E+00 -0.00000000000E+00 -0.10179312116E+04  0.10179312116E+04  0.00000000000E+00 0. -1.
         25    1    1    2    0    0 -0.12904471624E+02  0.14999639628E+03 -0.28745563375E+03  0.34773723652E+03  0.12500000000E+03 0.  0.
         25    1    1    2    0    0  0.74379298635E+02 -0.42019437438E+02 -0.20317350129E+03  0.25338189520E+03  0.12500000000E+03 0.  0.
         25    1    1    2    0    0 -0.61474827011E+02 -0.10797695884E+03 -0.45560611320E+03  0.48850804331E+03  0.12500000000E+03 0.  0.
</event>
<event>
 5    0  0.5489207E-005  0.2713643E+03  0.7546771E-02  0.1100501E+00
         21   -1    0    0  502  501  0.00000000000E+00  0.00000000000E+00  0.18240010440E+03  0.18240010440E+03  0.00000000000E+00 0.  1.
         21   -1    0    0  501  502 -0.00000000000E+00 -0.00000000000E+00 -0.40372002100E+03  0.40372002100E+03  0.00000000000E+00 0.  1.
         25    1    1    2    0    0 -0.31968719828E+02 -0.39564628797E+02 -0.12058304153E+03  0.18097687367E+03  0.12500000000E+03 0.  0.
         25    1    1    2    0    0  0.13903861335E+02  0.15227395851E+03  0.18086759169E+02  0.19832500260E+03  0.12500000000E+03 0.  0.
         25    1    1    2    0    0  0.18064858493E+02 -0.11270932971E+03 -0.11882363424E+03  0.20681824912E+03  0.12500000000E+03 0.  0.
</event>
<event>
 5    0  0.5489207E-005  0.2998731E+03  0.7546771E-02  0.1085304E+00
         21   -1    0    0  502  501  0.00000000000E+00  0.00000000000E+00  0.31834055752E+03  0.31834055752E+03  0.00000000000E+00 0. -1.
         21   -1    0    0  501  502 -0.00000000000E+00 -0.00000000000E+00 -0.28247701053E+03  0.28247701053E+03  0.00000000000E+00 0. -1.
         25    1    1    2    0    0 -0.10777205554E+03 -0.45134159823E+02  0.64958126716E+02  0.18302039931E+03  0.12500000000E+03 0.  0.
         25    1    1    2    0    0 -0.68590989988E+02 -0.80137051769E+02 -0.37535159466E+02  0.16781108179E+03  0.12500000000E+03 0.  0.
         25    1    1    2    0    0  0.17636304553E+03  0.12527121159E+03  0.84405797454E+01  0.24998608695E+03  0.12500000000E+03 0.  0.
</event>
<event>
 5    0  0.5489207E-005  0.2383711E+03  0.7546771E-02  0.1120883E+00
         21   -1    0    0  502  501  0.00000000000E+00  0.00000000000E+00  0.26935512074E+02  0.26935512074E+02  0.00000000000E+00 0.  1.
         21   -1    0    0  501  502 -0.00000000000E+00 -0.00000000000E+00 -0.21095111703E+04  0.21095111703E+04  0.00000000000E+00 0.  1.
         25    1    1    2    0    0 -0.76668952581E+02 -0.85727986660E+02 -0.51321700680E+03  0.54059607107E+03  0.12500000000E+03 0.  0.
         25    1    1    2    0    0  0.20734855433E+02  0.74028304070E+02 -0.65638418186E+03  0.67258852074E+03  0.12500000000E+03 0.  0.
         25    1    1    2    0    0  0.55934097147E+02  0.11699682590E+02 -0.91297446954E+03  0.92326209054E+03  0.12500000000E+03 0.  0.
</event>
<event>
 5    0  0.5489207E-005  0.3161606E+03  0.7546771E-02  0.1077430E+00
         21   -1    0    0  502  501  0.00000000000E+00  0.00000000000E+00  0.42097483601E+03  0.42097483601E+03  0.00000000000E+00 0.  1.
         21   -1    0    0  501  502 -0.00000000000E+00 -0.00000000000E+00 -0.23744302659E+03  0.23744302659E+03  0.00000000000E+00 0.  1.
         25    1    1    2    0    0 -0.63099961144E+02  0.48229482473E+01 -0.93560424428E+02  0.16847379305E+03  0.12500000000E+03 0.  0.
         25    1    1    2    0    0  0.18348688811E+03 -0.10070324045E+02  0.10616794319E+03  0.24630363719E+03  0.12500000000E+03 0.  0.
         25    1    1    2    0    0 -0.12038692696E+03  0.52473757977E+01  0.17092429067E+03  0.24364043235E+03  0.12500000000E+03 0.  0.
</event>
<event>
 5    0  0.5489207E-005  0.2893329E+03  0.7546771E-02  0.1090698E+00
         21   -1    0    0  502  501  0.00000000000E+00  0.00000000000E+00  0.11856285163E+04  0.11856285163E+04  0.00000000000E+00 0. -1.
         21   -1    0    0  501  502 -0.00000000000E+00 -0.00000000000E+00 -0.70606877353E+02  0.70606877353E+02  0.00000000000E+00 0. -1.
         25    1    1    2    0    0  0.41053027557E+02 -0.11087696038E+03  0.61321118033E+03  0.63689245804E+03  0.12500000000E+03 0.  0.
         25    1    1    2    0    0 -0.39880011679E+02  0.16807648005E+03  0.37968465791E+03  0.43546016802E+03  0.12500000000E+03 0.  0.
         25    1    1    2    0    0 -0.11730158784E+01 -0.57199519669E+02  0.12212580066E+03  0.18388276755E+03  0.12500000000E+03 0.  0.
</event>
<event>
 5    0  0.5489207E-005  0.3273081E+03  0.7546771E-02  0.1072334E+00
         21   -1    0    0  502  501  0.00000000000E+00  0.00000000000E+00  0.32350990092E+03  0.32350990092E+03  0.00000000000E+00 0.  1.
         21   -1    0    0  501  502 -0.00000000000E+00 -0.00000000000E+00 -0.33115096334E+03  0.33115096334E+03  0.00000000000E+00 0.  1.
         25    1    1    2    0    0 -0.19589511026E+02  0.24189095570E+03 -0.15596992072E+02  0.27342869190E+03  0.12500000000E+03 0.  0.
         25    1    1    2    0    0  0.84769610738E+02 -0.10337740686E+03  0.13486285563E+02  0.18352017615E+03  0.12500000000E+03 0.  0.
         25    1    1    2    0    0 -0.65180099711E+02 -0.13851354884E+03 -0.55303559152E+01  0.19771199621E+03  0.12500000000E+03 0.  0.
</event>
<event>
 5    0  0.5489207E-005  0.2965590E+03  0.7546771E-02  0.1086974E+00
         21   -1    0    0  502  501  0.00000000000E+00  0.00000000000E+00  0.87774771024E+02  0.87774771024E+02  0.00000000000E+00 0.  1.
         21   -1    0    0  501  502 -0.00000000000E+00 -0.00000000000E+00 -0.10019645987E+04  0.10019645987E+04  0.00000000000E+00 0.  1.
         25    1    1    2    0    0 -0.12604831347E+03 -0.28919644909E+01 -0.52602313808E+03  0.55517734337E+03  0.12500000000E+03 0.  0.
         25    1    1    2    0    0 -0.22996006081E+02 -0.75565336506E+02 -0.10147955220E+03  0.17933777040E+03  0.12500000000E+03 0.  0.
         25    1    1    2    0    0  0.14904431955E+03  0.78457300997E+02 -0.28668713735E+03  0.35522425592E+03  0.12500000000E+03 0.  0.
</event>
<event>
 5    0  0.5489207E-005  0.3773068E+03  0.7546771E-02  0.1051934E+00
         21   -1    0    0  502  501  0.00000000000E+00  0.00000000000E+00  0.13998246224E+03  0.13998246224E+03  0.00000000000E+00 0. -1.
         21   -1    0    0  501  502 -0.00000000000E+00 -0.00000000000E+00 -0.10169878026E+04  0.10169878026E+04  0.00000000000E+00 0. -1.
         25    1    1    2    0    0  0.14323469721E+03  0.19929647081E+03 -0.64823213515E+03  0.70431893543E+03  0.12500000000E+03 0.  0.
         25    1    1    2    0    0  0.16079672099E+02 -0.11117801424E+03 -0.11979072661E+03  0.20638295687E+03  0.12500000000E+03 0.  0.
         25    1    1    2    0    0 -0.15931436931E+03 -0.88118456569E+02 -0.10898247855E+03  0.24626837249E+03  0.12500000000E+03 0.  0.
</event>
<event>
 5    0  0.7464054E-005  0.2809092E+03  0.7546771E-02  0.1095193E+00
         21   -1    0    0  502  501  0.00000000000E+00  0.00000000000E+00  0.47494718124E+03  0.47494718124E+03  0.00000000000E+00 0. -1.
         21   -1    0    0  501  502 -0.00000000000E+00 -0.00000000000E+00 -0.16614474637E+03  0.16614474637E+03  0.00000000000E+00 0. -1.
         25    1    1    2    0    0 -0.87960157890E+02  0.15413383313E+03  0.83287948946E+02  0.23249969964E+03  0.12500000000E+03 0.  0.
         25    1    1    2    0    0  0.51891752351E+02 -0.91658305393E+02  0.20597309353E+03  0.26295230398E+03  0.12500000000E+03 0.  0.
         25    1    1    2    0    0  0.36068405539E+02 -0.62475527736E+02  0.19541392402E+02  0.14563992399E+03  0.12500000000E+03 0.  0.
</event>
<event>
 5    0  0.5489207E-005  0.2738754E+03  0.7546771E-02  0.1099082E+00
         21   -1    0    0  502  501  0.00000000000E+00  0.00000000000E+00  0.12749853820E+04  0.12749853820E+04  0.00000000000E+00 0. -1.
         21   -1    0    0  501  502 -0.00000000000E+00 -0.00000000000E+00 -0.58830290717E+02  0.58830290717E+02  0.00000000000E+00 0. -1.
         25    1    1    2    0    0 -0.87372793514E+02 -0.36371050059E+02  0.39533845523E+03  0.42529325473E+03  0.12500000000E+03 0.  0.
         25    1    1    2    0    0 -0.32854375265E+02 -0.84002660896E+02  0.51001553529E+03  0.53280081010E+03  0.12500000000E+03 0.  0.
         25    1    1    2    0    0  0.12022716878E+03  0.12037371096E+03  0.31080110078E+03  0.37572160791E+03  0.12500000000E+03 0.  0.
</event>
<event>
 5    0  0.5489207E-005  0.2139996E+03  0.7546771E-02  0.1138437E+00
         21   -1    0    0  502  501  0.00000000000E+00  0.00000000000E+00  0.40593560310E+03  0.40593560310E+03  0.00000000000E+00 0.  1.
         21   -1    0    0  501  502 -0.00000000000E+00 -0.00000000000E+00 -0.11281550636E+03  0.11281550636E+03  0.00000000000E+00 0.  1.
         25    1    1    2    0    0  0.43219609711E+02 -0.28707074018E+02  0.14306799956E+03  0.19694030380E+03  0.12500000000E+03 0.  0.
         25    1    1    2    0    0  0.26128063912E+00  0.72806073890E+02  0.66579117294E+02  0.15924374877E+03  0.12500000000E+03 0.  0.
         25    1    1    2    0    0 -0.43480890350E+02 -0.44098999872E+02  0.83472979881E+02  0.16256705689E+03  0.12500000000E+03 0.  0.
</event>
<event>
 5    0  0.5489207E-005  0.2371316E+03  0.7546771E-02  0.1121719E+00
         21   -1    0    0  502  501  0.00000000000E+00  0.00000000000E+00  0.31873465135E+02  0.31873465135E+02  0.00000000000E+00 0. -1.
         21   -1    0    0  501  502 -0.00000000000E+00 -0.00000000000E+00 -0.17642075700E+04  0.17642075700E+04  0.00000000000E+00 0. -1.
         25    1    1    2    0    0  0.62908641117E+02 -0.62320702004E+02 -0.47297086262E+03  0.49715973681E+03  0.12500000000E+03 0.  0.
         25    1    1    2    0    0  0.51095695893E+02  0.96116267081E+01 -0.66795548592E+03  0.68153700170E+03  0.12500000000E+03 0.  0.
         25    1    1    2    0    0 -0.11400433701E+03  0.52709075296E+02 -0.59140775633E+03  0.61738429663E+03  0.12500000000E+03 0.  0.
</event>
<event>
 5    0  0.5489207E-005  0.3891859E+03  0.7546771E-02  0.1047590E+00
         21   -1    0    0  502  501  0.00000000000E+00  0.00000000000E+00  0.77683547538E+03  0.77683547538E+03  0.00000000000E+00 0. -1.
         21   -1    0    0  501  502 -0.00000000000E+00 -0.00000000000E+00 -0.19497775379E+03  0.19497775379E+03  0.00000000000E+00 0. -1.
         25    1    1    2    0    0 -0.50241303543E+02 -0.10133432900E+02  0.24332836941E+00  0.13509971966E+03  0.12500000000E+03 0.  0.
         25    1    1    2    0    0  0.12718868017E+03  0.44673340400E+02 -0.47418721891E+02  0.18985837588E+03  0.12500000000E+03 0.  0.
         25    1    1    2    0    0 -0.76947376630E+02 -0.34539907500E+02  0.62903311512E+03  0.64685513362E+03  0.12500000000E+03 0.  0.
</event>
<event>
 5    0  0.5489207E-005  0.3070307E+03  0.7546771E-02  0.1081778E+00
         21   -1    0    0  502  501  0.00000000000E+00  0.00000000000E+00  0.58931063919E+03  0.58931063919E+03  0.00000000000E+00 0. -1.
         21   -1    0    0  501  502 -0.00000000000E+00 -0.00000000000E+00 -0.15996296738E+03  0.15996296738E+03  0.00000000000E+00 0. -1.
         25    1    1    2    0    0  0.48913404894E+01 -0.18560433357E+03  0.14839991005E+03  0.26855246630E+03  0.12500000000E+03 0.  0.
         25    1    1    2    0    0 -0.52896671211E+02  0.20016027542E+03  0.11734163456E+03  0.26880523224E+03  0.12500000000E+03 0.  0.
         25    1    1    2    0    0  0.48005330722E+02 -0.14555941849E+02  0.16360612719E+03  0.21191590803E+03  0.12500000000E+03 0.  0.
</event>
<event>
 5    0  0.5489207E-005  0.2641656E+03  0.7546771E-02  0.1104666E+00
         21   -1    0    0  502  501  0.00000000000E+00  0.00000000000E+00  0.33089256222E+03  0.33089256222E+03  0.00000000000E+00 0. -1.
         21   -1    0    0  501  502 -0.00000000000E+00 -0.00000000000E+00 -0.21089456405E+03  0.21089456405E+03  0.00000000000E+00 0. -1.
         25    1    1    2    0    0  0.84131577571E+02 -0.85522895313E+02  0.11916126496E+03  0.21027766176E+03  0.12500000000E+03 0.  0.
         25    1    1    2    0    0 -0.12200705598E+03  0.23102707364E+02  0.41758793128E+02  0.18107527053E+03  0.12500000000E+03 0.  0.
         25    1    1    2    0    0  0.37875478405E+02  0.62420187949E+02 -0.40922059925E+02  0.15043419397E+03  0.12500000000E+03 0.  0.
</event>
<event>
 5    0  0.5489207E-005  0.3933180E+03  0.7546771E-02  0.1046118E+00
         21   -1    0    0  502  501  0.00000000000E+00  0.00000000000E+00  0.53827274301E+03  0.53827274301E+03  0.00000000000E+00 0.  1.
         21   -1    0    0  501  502 -0.00000000000E+00 -0.00000000000E+00 -0.28739897998E+03  0.28739897998E+03  0.00000000000E+00 0. -1.
         25    1    1    2    0    0 -0.12757400257E+03  0.90135168327E+02  0.67489330779E+02  0.21113806969E+03  0.12500000000E+03 0.  0.
         25    1    1    2    0    0  0.21647062167E+03 -0.25851275791E+02 -0.11232554593E+03  0.27526323179E+03  0.12500000000E+03 0.  0.
         25    1    1    2    0    0 -0.88896619100E+02 -0.64283892536E+02  0.29570997817E+03  0.33927042152E+03  0.12500000000E+03 0.  0.
</event>
<event>
 5    0  0.5489207E-005  0.2319004E+03  0.7546771E-02  0.1125309E+00
         21   -1    0    0  502  501  0.00000000000E+00  0.00000000000E+00  0.53298123313E+02  0.53298123313E+02  0.00000000000E+00 0.  1.
         21   -1    0    0  501  502 -0.00000000000E+00 -0.00000000000E+00 -0.10089994074E+04  0.10089994074E+04  0.00000000000E+00 0.  1.
         25    1    1    2    0    0 -0.57193682203E+02 -0.40251354138E+02 -0.41702776741E+03  0.44094041274E+03  0.12500000000E+03 0.  0.
         25    1    1    2    0    0 -0.15045877305E+02 -0.54243914775E+02 -0.23225213684E+03  0.26969396690E+03  0.12500000000E+03 0.  0.
         25    1    1    2    0    0  0.72239559509E+02  0.94495268913E+02 -0.30642137983E+03  0.35166315107E+03  0.12500000000E+03 0.  0.
</event>
<event>
 5    0  0.5489207E-005  0.3339445E+03  0.7546771E-02  0.1069405E+00
         21   -1    0    0  502  501  0.00000000000E+00  0.00000000000E+00  0.45679956831E+03  0.45679956831E+03  0.00000000000E+00 0.  1.
         21   -1    0    0  501  502 -0.00000000000E+00 -0.00000000000E+00 -0.24413092907E+03  0.24413092907E+03  0.00000000000E+00 0.  1.
         25    1    1    2    0    0  0.28614311849E+02  0.78918637091E+02  0.17220196108E+02  0.15155350632E+03  0.12500000000E+03 0.  0.
         25    1    1    2    0    0  0.16043161215E+01  0.48622688039E+02  0.30813382699E+03  0.33606278425E+03  0.12500000000E+03 0.  0.
         25    1    1    2    0    0 -0.30218627970E+02 -0.12754132513E+03 -0.11268538386E+03  0.21331420681E+03  0.12500000000E+03 0.  0.
</event>
<event>
 5    0  0.5489207E-005  0.2435802E+03  0.7546771E-02  0.1117431E+00
         21   -1    0    0  502  501  0.00000000000E+00  0.00000000000E+00  0.31312619166E+03  0.31312619166E+03  0.00000000000E+00 0. -1.
         21   -1    0    0  501  502 -0.00000000000E+00 -0.00000000000E+00 -0.18948050030E+03  0.18948050030E+03  0.00000000000E+00 0. -1.
         25    1    1    2    0    0  0.71644302380E+02  0.10023175923E+03  0.17316779411E+02  0.17636377880E+03  0.12500000000E+03 0.  0.
         25    1    1    2    0    0 -0.32081203768E+02 -0.17778286984E+02 -0.12725383697E+02  0.13089005506E+03  0.12500000000E+03 0.  0.
         25    1    1    2    0    0 -0.39563098612E+02 -0.82453472246E+02  0.11905429565E+03  0.19535285811E+03  0.12500000000E+03 0.  0.
</event>
<event>
 5    0  0.5489207E-005  0.3919716E+03  0.7546771E-02  0.1046596E+00
         21   -1    0    0  502  501  0.00000000000E+00  0.00000000000E+00  0.38216506185E+03  0.38216506185E+03  0.00000000000E+00 0.  1.
         21   -1    0    0  501  502 -0.00000000000E+00 -0.00000000000E+00 -0.40202973403E+03  0.40202973403E+03  0.00000000000E+00 0.  1.
         25    1    1    2    0    0 -0.56805344749E+02  0.57073824355E+02 -0.21246246860E+01  0.14870703631E+03  0.12500000000E+03 0.  0.
         25    1    1    2    0    0  0.36868101010E+02 -0.31843019132E+03  0.60413507498E+01  0.34411995225E+03  0.12500000000E+03 0.  0.
         25    1    1    2    0    0  0.19937243739E+02  0.26135636696E+03 -0.23781398237E+02  0.29136780732E+03  0.12500000000E+03 0.  0.
</event>
<event>
 5    0  0.5785817E-005  0.4423022E+03  0.7546771E-02  0.1030043E+00
         21   -1    0    0  502  501  0.00000000000E+00  0.00000000000E+00  0.12970855498E+03  0.12970855498E+03  0.00000000000E+00 0.  1.
         21   -1    0    0  501  502 -0.00000000000E+00 -0.00000000000E+00 -0.15082370599E+04  0.15082370599E+04  0.00000000000E+00 0.  1.
         25    1    1    2    0    0 -0.25002636882E+03 -0.68822415361E+02 -0.70865986558E+03  0.76490098382E+03  0.12500000000E+03 0.  0.
         25    1    1    2    0    0  0.30109561267E+03  0.12212997701E+03 -0.63433373174E+03  0.72358730121E+03  0.12500000000E+03 0.  0.
         25    1    1    2    0    0 -0.51069243843E+02 -0.53307561646E+02 -0.35534907633E+02  0.14945732988E+03  0.12500000000E+03 0.  0.
</event>
<event>
 5    0  0.5489207E-005  0.2563046E+03  0.7546771E-02  0.1109384E+00
         21   -1    0    0  502  501  0.00000000000E+00  0.00000000000E+00  0.14902273034E+03  0.14902273034E+03  0.00000000000E+00 0. -1.
         21   -1    0    0  501  502 -0.00000000000E+00 -0.00000000000E+00 -0.44081915020E+03  0.44081915020E+03  0.00000000000E+00 0. -1.
         25    1    1    2    0    0  0.79371596877E+02 -0.73815639975E+02 -0.16761353002E+03  0.23551622989E+03  0.12500000000E+03 0.  0.
         25    1    1    2    0    0 -0.41298536967E+02 -0.22543667152E+02  0.22591993557E+02  0.13545916085E+03  0.12500000000E+03 0.  0.
         25    1    1    2    0    0 -0.38073059910E+02  0.96359307127E+02 -0.14677488339E+03  0.21886648980E+03  0.12500000000E+03 0.  0.
</event>
<event>
 5    0  0.5489207E-005  0.2715057E+03  0.7546771E-02  0.1100421E+00
         21   -1    0    0  502  501  0.00000000000E+00  0.00000000000E+00  0.32998639667E+03  0.32998639667E+03  0.00000000000E+00 0. -1.
         21   -1    0    0  501  502 -0.00000000000E+00 -0.00000000000E+00 -0.22338901640E+03  0.22338901640E+03  0.00000000000E+00 0. -1.
         25    1    1    2    0    0  0.15114829646E+03  0.38059914714E+01  0.12126641973E+03  0.23063138912E+03  0.12500000000E+03 0.  0.
         25    1    1    2    0    0 -0.11117050215E+03 -0.25046582144E+02 -0.64128455322E+02  0.18089685074E+03  0.12500000000E+03 0.  0.
         25    1    1    2    0    0 -0.39977794308E+02  0.21240590673E+02  0.49459415850E+02  0.14184717320E+03  0.12500000000E+03 0.  0.
</event>
<event>
 5    0  0.5489207E-005  0.3304136E+03  0.7546771E-02  0.1070954E+00
         21   -1    0    0  502  501  0.00000000000E+00  0.00000000000E+00  0.14998858217E+03  0.14998858217E+03  0.00000000000E+00 0. -1.
         21   -1    0    0  501  502 -0.00000000000E+00 -0.00000000000E+00 -0.72787641954E+03  0.72787641954E+03  0.00000000000E+00 0. -1.
         25    1    1    2    0    0 -0.39483720081E+02 -0.50542875844E+02  0.83306857695E+00  0.14049640726E+03  0.12500000000E+03 0.  0.
         25    1    1    2    0    0  0.32169436999E+02  0.20148583923E+03 -0.20404639427E+03  0.31446994626E+03  0.12500000000E+03 0.  0.
         25    1    1    2    0    0  0.73142830818E+01 -0.15094296338E+03 -0.37467451169E+03  0.42289864819E+03  0.12500000000E+03 0.  0.
</event>
<event>
 5    0  0.5489207E-005  0.2766052E+03  0.7546771E-02  0.1097558E+00
         21   -1    0    0  502  501  0.00000000000E+00  0.00000000000E+00  0.65050231915E+03  0.65050231915E+03  0.00000000000E+00 0.  1.
         21   -1    0    0  501  502 -0.00000000000E+00 -0.00000000000E+00 -0.11761747112E+03  0.11761747112E+03  0.00000000000E+00 0.  1.
         25    1    1    2    0    0 -0.13485389195E+03  0.49998309211E+02  0.13914911500E+03  0.23595101039E+03  0.12500000000E+03 0.  0.
         25    1    1    2    0    0  0.13857091610E+03  0.48741373764E+02  0.16752433441E+03  0.25547411400E+03  0.12500000000E+03 0.  0.
         25    1    1    2    0    0 -0.37170241497E+01 -0.98739682974E+02  0.22621139861E+03  0.27669466588E+03  0.12500000000E+03 0.  0.
</event>
<event>
 5    0  0.5848289E-005  0.3138203E+03  0.7546771E-02  0.1078529E+00
         21   -1    0    0  502  501  0.00000000000E+00  0.00000000000E+00  0.16792741629E+03  0.16792741629E+03  0.00000000000E+00 0.  1.
         21   -1    0    0  501  502 -0.00000000000E+00 -0.00000000000E+00 -0.58646270530E+03  0.58646270530E+03  0.00000000000E+00 0.  1.
         25    1    1    2    0    0  0.98787069293E+02 -0.33841611587E+02 -0.82508898355E+02  0.18258383839E+03  0.12500000000E+03 0.  0.
         25    1    1    2    0    0  0.10186041408E+03  0.80855147447E+02 -0.30972644556E+02  0.18302295904E+03  0.12500000000E+03 0.  0.
         25    1    1    2    0    0 -0.20064748337E+03 -0.47013535859E+02 -0.30505374609E+03  0.38878332416E+03  0.12500000000E+03 0.  0.
</event>
<event>
 5    0  0.5489207E-005  0.2663644E+03  0.7546771E-02  0.1103379E+00
         21   -1    0    0  502  501  0.00000000000E+00  0.00000000000E+00  0.30048865706E+03  0.30048865706E+03  0.00000000000E+00 0. -1.
         21   -1    0    0  501  502 -0.00000000000E+00 -0.00000000000E+00 -0.23611541301E+03  0.23611541301E+03  0.00000000000E+00 0. -1.
         25    1    1    2    0    0  0.14184942663E+02  0.18636558728E+02 -0.66661225246E+02  0.14358709159E+03  0.12500000000E+03 0.  0.
         25    1    1    2    0    0 -0.97057394203E+02  0.51699244014E+02 -0.21457570853E+02  0.16786416219E+03  0.12500000000E+03 0.  0.
         25    1    1    2    0    0  0.82872451540E+02 -0.70335802742E+02  0.15249204015E+03  0.22515281629E+03  0.12500000000E+03 0.  0.
</event>
<event>
 5    0  0.5489207E-005  0.4782585E+03  0.7546771E-02  0.1019615E+00
         21   -1    0    0  502  501  0.00000000000E+00  0.00000000000E+00  0.42945720970E+03  0.42945720970E+03  0.00000000000E+00 0. -1.
         21   -1    0    0  501  502 -0.00000000000E+00 -0.00000000000E+00 -0.53260537642E+03  0.53260537642E+03  0.00000000000E+00 0. -1.
         25    1    1    2    0    0  0.69005045824E+02  0.16919320865E+03  0.28424060756E+03  0.36028566609E+03  0.12500000000E+03 0.  0.
         25    1    1    2    0    0  0.31653537457E+02 -0.77191334897E+02 -0.38874325113E+03  0.41678143422E+03  0.12500000000E+03 0.  0.
         25    1    1    2    0    0 -0.10065858328E+03 -0.92001873755E+02  0.13544768546E+01  0.18499548581E+03  0.12500000000E+03 0.  0.
</event>
<event>
 5    0  0.5489207E-005  0.4484440E+03  0.7546771E-02  0.1028187E+00
         21   -1    0    0  502  501  0.00000000000E+00  0.00000000000E+00  0.17671102138E+03  0.17671102138E+03  0.00000000000E+00 0. -1.
         21   -1    0    0  501  502 -0.00000000000E+00 -0.00000000000E+00 -0.11380275071E+04  0.11380275071E+04  0.00000000000E+00 0. -1.
         25    1    1    2    0    0 -0.16401645491E+03 -0.15317372930E+03  0.20269072322E+02  0.25768085711E+03  0.12500000000E+03 0.  0.
         25    1    1    2    0    0 -0.26187942550E+01  0.27957382208E+02 -0.51818594517E+03  0.53378848533E+03  0.12500000000E+03 0.  0.
         25    1    1    2    0    0  0.16663524916E+03  0.12521634710E+03 -0.46339961286E+03  0.52326918602E+03  0.12500000000E+03 0.  0.
</event>
<event>
 5    0  0.5489207E-005  0.3023793E+03  0.7546771E-02  0.1084057E+00
         21   -1    0    0  502  501  0.00000000000E+00  0.00000000000E+00  0.39950489740E+03  0.39950489740E+03  0.00000000000E+00 0.  1.
         21   -1    0    0  501  502 -0.00000000000E+00 -0.00000000000E+00 -0.22886644978E+03  0.22886644978E+03  0.00000000000E+00 0.  1.
         25    1    1    2    0    0 -0.68420061894E+02 -0.66027195607E+02 -0.94601994305E+02  0.18334511926E+03  0.12500000000E+03 0.  0.
         25    1    1    2    0    0  0.43336672568E+02  0.95319308402E+02  0.26854153042E+03  0.31417095872E+03  0.12500000000E+03 0.  0.
         25    1    1    2    0    0  0.25083389326E+02 -0.29292112795E+02 -0.33010885040E+01  0.13085526920E+03  0.12500000000E+03 0.  0.
</event>
<event>
 5    0  0.5489207E-005  0.2690138E+03  0.7546771E-02  0.1101845E+00
         21   -1    0    0  502  501  0.00000000000E+00  0.00000000000E+00  0.20469960924E+04  0.20469960924E+04  0.00000000000E+00 0. -1.
         21   -1    0    0  501  502 -0.00000000000E+00 -0.00000000000E+00 -0.35353470871E+02  0.35353470871E+02  0.00000000000E+00 0. -1.
         25    1    1    2    0    0  0.36501688903E+02  0.76585524492E+01  0.41585857350E+03  0.43583756134E+03  0.12500000000E+03 0.  0.
         25    1    1    2    0    0 -0.11033995262E+03 -0.77641970701E+02  0.40420655626E+03  0.44408458753E+03  0.12500000000E+03 0.  0.
         25    1    1    2    0    0  0.73838263715E+02  0.69983418252E+02  0.11915774917E+04  0.12024274144E+04  0.12500000000E+03 0.  0.
</event>
<event>
 5    0  0.5489207E-005  0.2651640E+03  0.7546771E-02  0.1104080E+00
         21   -1    0    0  502  501  0.00000000000E+00  0.00000000000E+00  0.47145185985E+03  0.47145185985E+03  0.00000000000E+00 0.  1.
         21   -1    0    0  501  502 -0.00000000000E+00 -0.00000000000E+00 -0.14913913210E+03  0.14913913210E+03  0.00000000000E+00 0.  1.
         25    1    1    2    0    0  0.18649070779E+02  0.23886286476E+02  0.24896683116E+03  0.28022816693E+03  0.12500000000E+03 0.  0.
         25    1    1    2    0    0 -0.38263796269E+02 -0.28178708693E+02  0.14306447462E+03  0.19583309636E+03  0.12500000000E+03 0.  0.
         25    1    1    2    0    0  0.19614725490E+02  0.42924222175E+01 -0.69718578034E+02  0.14452972866E+03  0.12500000000E+03 0.  0.
</event>
<event>
 5    0  0.5489207E-005  0.2730965E+03  0.7546771E-02  0.1099520E+00
         21   -1    0    0  502  501  0.00000000000E+00  0.00000000000E+00  0.65411354250E+03  0.65411354250E+03  0.00000000000E+00 0. -1.
         21   -1    0    0  501  502 -0.00000000000E+00 -0.00000000000E+00 -0.11401949489E+03  0.11401949489E+03  0.00000000000E+00 0. -1.
         25    1    1    2    0    0  0.10097397093E+03 -0.52216461244E+02  0.80410052510E+02  0.18711781897E+03  0.12500000000E+03 0.  0.
         25    1    1    2    0    0 -0.21595743041E+02  0.11757468294E+03  0.33386929366E+03  0.37601048846E+03  0.12500000000E+03 0.  0.
         25    1    1    2    0    0 -0.79378227891E+02 -0.65358221693E+02  0.12581470145E+03  0.20500472996E+03  0.12500000000E+03 0.  0.
</event>
<event>
 5    0  0.5489207E-005  0.4237728E+03  0.7546771E-02  0.1035845E+00
         21   -1    0    0  502  501  0.00000000000E+00  0.00000000000E+00  0.35465389560E+03  0.35465389560E+03  0.00000000000E+00 0.  1.
         21   -1    0    0  501  502 -0.00000000000E+00 -0.00000000000E+00 -0.50636247424E+03  0.50636247424E+03  0.00000000000E+00 0.  1.
         25    1    1    2    0    0 -0.30314073703E+03  0.12751316822E+03  0.17662358254E+02  0.35226534518E+03  0.12500000000E+03 0.  0.
         25    1    1    2    0    0  0.65787767946E+02  0.58872400641E+02 -0.50742874375E+02  0.16122601920E+03  0.12500000000E+03 0.  0.
         25    1    1    2    0    0  0.23735296908E+03 -0.18638556886E+03 -0.11862806252E+03  0.34752500547E+03  0.12500000000E+03 0.  0.
</event>
<event>
 5    0  0.5489207E-005  0.3863506E+03  0.7546771E-02  0.1048611E+00
         21   -1    0    0  502  501  0.00000000000E+00  0.00000000000E+00  0.90595434999E+02  0.90595434999E+02  0.00000000000E+00 0.  1.
         21   -1    0    0  501  502 -0.00000000000E+00 -0.00000000000E+00 -0.16476191954E+04  0.16476191954E+04  0.00000000000E+00 0.  1.
         25    1    1    2    0    0  0.58396043707E+02 -0.19623505016E+03 -0.10050686750E+04  0.10332987633E+04  0.12500000000E+03 0.  0.
         25    1    1    2    0    0 -0.10989064164E+02  0.26066722431E+03 -0.38418737912E+03  0.48092941648E+03  0.12500000000E+03 0.  0.
         25    1    1    2    0    0 -0.47406979542E+02 -0.64432174148E+02 -0.16776770628E+03  0.22398645058E+03  0.12500000000E+03 0.  0.
</event>
<event>
 5    0  0.5489207E-005  0.3180362E+03  0.7546771E-02  0.1076557E+00
         21   -1    0    0  502  501  0.00000000000E+00  0.00000000000E+00  0.57771214300E+02  0.57771214300E+02  0.00000000000E+00 0.  1.
         21   -1    0    0  501  502 -0.00000000000E+00 -0.00000000000E+00 -0.17508207278E+04  0.17508207278E+04  0.00000000000E+00 0.  1.
         25    1    1    2    0    0 -0.19777072878E+03  0.54470557190E+01 -0.10784240362E+04  0.11035245052E+04  0.12500000000E+03 0.  0.
         25    1    1    2    0    0  0.11281723121E+03  0.56100336114E+02 -0.37841669259E+03  0.41797029631E+03  0.12500000000E+03 0.  0.
         25    1    1    2    0    0  0.84953497572E+02 -0.61547391833E+02 -0.23620878465E+03  0.28709714060E+03  0.12500000000E+03 0.  0.
</event>
<event>
 5    0  0.5489207E-005  0.2670972E+03  0.7546771E-02  0.1102953E+00
         21   -1    0    0  502  501  0.00000000000E+00  0.00000000000E+00  0.61785829841E+03  0.61785829841E+03  0.00000000000E+00 0.  1.
         21   -1    0    0  501  502 -0.00000000000E+00 -0.00000000000E+00 -0.11546486289E+03  0.11546486289E+03  0.00000000000E+00 0.  1.
         25    1    1    2    0    0 -0.23144776675E+02 -0.37024258979E+02  0.13458088183E+03  0.18879483625E+03  0.12500000000E+03 0.  0.
         25    1    1    2    0    0  0.20761215987E+01  0.17870368342E+02 -0.27241704363E+02  0.12919276606E+03  0.12500000000E+03 0.  0.
         25    1    1    2    0    0  0.21068655077E+02  0.19153890637E+02  0.39505425806E+03  0.41533555899E+03  0.12500000000E+03 0.  0.
</event>
<event>
 5    0  0.5489207E-005  0.6086557E+03  0.7546771E-02  0.9887609E-01
         21   -1    0    0  502  501  0.00000000000E+00  0.00000000000E+00  0.73369591746E+03  0.73369591746E+03  0.00000000000E+00 0. -1.
         21   -1    0    0  501  502 -0.00000000000E+00 -0.00000000000E+00 -0.50492542537E+03  0.50492542537E+03  0.00000000000E+00 0. -1.
         25    1    1    2    0    0  0.41680428464E+01  0.34294569894E+03 -0.67968634570E+01  0.36510316673E+03  0.12500000000E+03 0.  0.
         25    1    1    2    0    0  0.19128217991E+03 -0.48974183329E+03  0.51273443330E+02  0.54285348080E+03  0.12500000000E+03 0.  0.
         25    1    1    2    0    0 -0.19545022275E+03  0.14679613435E+03  0.18429391222E+03  0.33066469530E+03  0.12500000000E+03 0.  0.
</event>
<event>
 5    0  0.5489207E-005  0.3380795E+03  0.7546771E-02  0.1067617E+00
         21   -1    0    0  502  501  0.00000000000E+00  0.00000000000E+00  0.76854596546E+03  0.76854596546E+03  0.00000000000E+00 0. -1.
         21   -1    0    0  501  502 -0.00000000000E+00 -0.00000000000E+00 -0.14871948519E+03  0.14871948519E+03  0.00000000000E+00 0. -1.
         25    1    1    2    0    0 -0.21242375235E+02  0.82002515706E+02  0.41488546646E+03  0.44150945784E+03  0.12500000000E+03 0.  0.
         25    1    1    2    0    0 -0.15242585233E+03 -0.24648774804E+02  0.14593882732E+03  0.24650424718E+03  0.12500000000E+03 0.  0.
         25    1    1    2    0    0  0.17366822757E+03 -0.57353740902E+02  0.59002186499E+02  0.22925174563E+03  0.12500000000E+03 0.  0.
</event>
<event>
 5    0  0.5489207E-005  0.6653284E+03  0.7546771E-02  0.9778434E-01
         21   -1    0    0  502  501  0.00000000000E+00  0.00000000000E+00  0.10246412628E+04  0.10246412628E+04  0.00000000000E+00 0. -1.
         21   -1    0    0  501  502 -0.00000000000E+00 -0.00000000000E+00 -0.43201639918E+03  0.43201639918E+03  0.00000000000E+00 0. -1.
         25    1    1    2    0    0  0.21196480344E+03 -0.50588937285E+03  0.33362704167E+02  0.56355230946E+03  0.12500000000E+03 0.  0.
         25    1    1    2    0    0 -0.85766789961E+02  0.34706216293E+02  0.27215483471E+03  0.31345449074E+03  0.12500000000E+03 0.  0.
         25    1    1    2    0    0 -0.12619801348E+03  0.47118315656E+03  0.28710732473E+03  0.57965086177E+03  0.12500000000E+03 0.  0.
</event>
<event>
 5    0  0.5489207E-005  0.3376539E+03  0.7546771E-02  0.1067800E+00
         21   -1    0    0  502  501  0.00000000000E+00  0.00000000000E+00  0.14535734903E+03  0.14535734903E+03  0.00000000000E+00 0. -1.
         21   -1    0    0  501  502 -0.00000000000E+00 -0.00000000000E+00 -0.78434394244E+03  0.78434394244E+03  0.00000000000E+00 0. -1.
         25    1    1    2    0    0  0.25130088526E+02 -0.20353867049E+01 -0.97124545539E+02  0.16029298642E+03  0.12500000000E+03 0.  0.
         25    1    1    2    0    0  0.89614383764E+02  0.18892021463E+03 -0.10588200893E+03  0.26562677781E+03  0.12500000000E+03 0.  0.
         25    1    1    2    0    0 -0.11474447229E+03 -0.18688482793E+03 -0.43598003894E+03  0.50378152724E+03  0.12500000000E+03 0.  0.
</event>
<event>
 5    0  0.5489207E-005  0.2348799E+03  0.7546771E-02  0.1123251E+00
         21   -1    0    0  502  501  0.00000000000E+00  0.00000000000E+00  0.24156421375E+03  0.24156421375E+03  0.00000000000E+00 0. -1.
         21   -1    0    0  501  502 -0.00000000000E+00 -0.00000000000E+00 -0.22838060790E+03  0.22838060790E+03  0.00000000000E+00 0. -1.
         25    1    1    2    0    0 -0.45828210769E+02 -0.12648651158E+02  0.56144068995E+02  0.14504264808E+03  0.12500000000E+03 0.  0.
         25    1    1    2    0    0  0.85690643686E+02  0.82842244525E+02 -0.32403715137E+02  0.17572912294E+03  0.12500000000E+03 0.  0.
         25    1    1    2    0    0 -0.39862432917E+02 -0.70193593366E+02 -0.10556748012E+02  0.14917305064E+03  0.12500000000E+03 0.  0.
</event>
<event>
 5    0  0.5489207E-005  0.3707411E+03  0.7546771E-02  0.1054410E+00
         21   -1    0    0  502  501  0.00000000000E+00  0.00000000000E+00  0.28317022377E+03  0.28317022377E+03  0.00000000000E+00 0.  1.
         21   -1    0    0  501  502 -0.00000000000E+00 -0.00000000000E+00 -0.48539345805E+03  0.48539345805E+03  0.00000000000E+00 0.  1.
         25    1    1    2    0    0  0.16310546689E+02 -0.79394071274E+02 -0.34752386567E+03  0.37811015551E+03  0.12500000000E+03 0.  0.
         25    1    1    2    0    0  0.10020440855E+03  0.80463512842E+02  0.12458779224E+03  0.21831724249E+03  0.12500000000E+03 0.  0.
         25    1    1    2    0    0 -0.11651495524E+03 -0.10694415680E+01  0.20712839154E+02  0.17213628381E+03  0.12500000000E+03 0.  0.
</event>
<event>
 5    0  0.5489207E-005  0.2239780E+03  0.7546771E-02  0.1130952E+00
         21   -1    0    0  502  501  0.00000000000E+00  0.00000000000E+00  0.86640644901E+03  0.86640644901E+03  0.00000000000E+00 0. -1.
         21   -1    0    0  501  502 -0.00000000000E+00 -0.00000000000E+00 -0.57901412839E+02  0.57901412839E+02  0.00000000000E+00 0. -1.
         25    1    1    2    0    0 -0.92034463206E+02 -0.32073674127E+02  0.32003976794E+03  0.35714075104E+03  0.12500000000E+03 0.  0.
         25    1    1    2    0    0  0.36923765623E+02  0.39144061514E+02  0.33498851986E+03  0.36157700488E+03  0.12500000000E+03 0.  0.
         25    1    1    2    0    0  0.55110697582E+02 -0.70703873868E+01  0.15347674837E+03  0.20559010593E+03  0.12500000000E+03 0.  0.
</event>
<event>
 5    0  0.5489207E-005  0.2299500E+03  0.7546771E-02  0.1126675E+00
         21   -1    0    0  502  501  0.00000000000E+00  0.00000000000E+00  0.78923210707E+02  0.78923210707E+02  0.00000000000E+00 0. -1.
         21   -1    0    0  501  502 -0.00000000000E+00 -0.00000000000E+00 -0.66998063987E+03  0.66998063987E+03  0.00000000000E+00 0. -1.
         25    1    1    2    0    0  0.61770381649E+01  0.46161064404E+02 -0.16272613737E+03  0.21041339180E+03  0.12500000000E+03 0.  0.
         25    1    1    2    0    0  0.27351639013E+02 -0.38848567763E+02 -0.57329693609E+02  0.14549576332E+03  0.12500000000E+03 0.  0.
         25    1    1    2    0    0 -0.33528677178E+02 -0.73124966415E+01 -0.37100159819E+03  0.39299469546E+03  0.12500000000E+03 0.  0.
</event>
<event>
 5    0  0.5489207E-005  0.3393416E+03  0.7546771E-02  0.1067077E+00
         21   -1    0    0  502  501  0.00000000000E+00  0.00000000000E+00  0.19789061829E+03  0.19789061829E+03  0.00000000000E+00 0. -1.
         21   -1    0    0  501  502 -0.00000000000E+00 -0.00000000000E+00 -0.58190076555E+03  0.58190076555E+03  0.00000000000E+00 0. -1.
         25    1    1    2    0    0 -0.26564426994E+01 -0.62180064801E+01  0.12105208507E+03  0.17413881702E+03  0.12500000000E+03 0.  0.
         25    1    1    2    0    0 -0.52483608251E+02  0.12865245422E+02 -0.42693897674E+03  0.44813160292E+03  0.12500000000E+03 0.  0.
         25    1    1    2    0    0  0.55140050950E+02 -0.66472389419E+01 -0.78123255584E+02  0.15752096390E+03  0.12500000000E+03 0.  0.
</event>
<event>
 5    0  0.5489207E-005  0.3791401E+03  0.7546771E-02  0.1051252E+00
         21   -1    0    0  502  501  0.00000000000E+00  0.00000000000E+00  0.93802948331E+03  0.93802948331E+03  0.00000000000E+00 0.  1.
         21   -1    0    0  501  502 -0.00000000000E+00 -0.00000000000E+00 -0.15324379391E+03  0.15324379391E+03  0.00000000000E+00 0.  1.
         25    1    1    2    0    0 -0.22881342187E+03 -0.48352808372E+02  0.47794449368E+03  0.54657983419E+03  0.12500000000E+03 0.  0.
         25    1    1    2    0    0  0.27732458848E+03  0.56131510469E+02  0.25441872351E+03  0.40051661728E+03  0.12500000000E+03 0.  0.
         25    1    1    2    0    0 -0.48511166606E+02 -0.77787020965E+01  0.52422472199E+02  0.14417682575E+03  0.12500000000E+03 0.  0.
</event>
<event>
 5    0  0.5489207E-005  0.2238502E+03  0.7546771E-02  0.1131045E+00
         21   -1    0    0  502  501  0.00000000000E+00  0.00000000000E+00  0.25253351868E+04  0.25253351868E+04  0.00000000000E+00 0.  1.
         21   -1    0    0  501  502 -0.00000000000E+00 -0.00000000000E+00 -0.19842488247E+02  0.19842488247E+02  0.00000000000E+00 0.  1.
         25    1    1    2    0    0 -0.61068708970E+01  0.46248015560E+02  0.15335753220E+04  0.15393681954E+04  0.12500000000E+03 0.  0.
         25    1    1    2    0    0  0.13049299549E+02 -0.23049685817E+02  0.40093663632E+03  0.42080489372E+03  0.12500000000E+03 0.  0.
         25    1    1    2    0    0 -0.69424286518E+01 -0.23198329743E+02  0.57098074025E+03  0.58500458592E+03  0.12500000000E+03 0.  0.
</event>
<event>
 5    0  0.5489207E-005  0.3740697E+03  0.7546771E-02  0.1053148E+00
         21   -1    0    0  502  501  0.00000000000E+00  0.00000000000E+00  0.32344803883E+03  0.32344803883E+03  0.00000000000E+00 0. -1.
         21   -1    0    0  501  502 -0.00000000000E+00 -0.00000000000E+00 -0.43261399269E+03  0.43261399269E+03  0.00000000000E+00 0. -1.
         25    1    1    2    0    0  0.14298397628E+03  0.39966868240E+02 -0.18703705189E+03  0.26953594715E+03  0.12500000000E+03 0.  0.
         25    1    1    2    0    0  0.12217225955E+03  0.31231887793E+02  0.44287505247E+02  0.18299692604E+03  0.12500000000E+03 0.  0.
         25    1    1    2    0    0 -0.26515623582E+03 -0.71198756033E+02  0.33583592780E+02  0.30352915834E+03  0.12500000000E+03 0.  0.
</event>
<event>
 5    0  0.5489207E-005  0.3405243E+03  0.7546771E-02  0.1066573E+00
         21   -1    0    0  502  501  0.00000000000E+00  0.00000000000E+00  0.19415115167E+03  0.19415115167E+03  0.00000000000E+00 0. -1.
         21   -1    0    0  501  502 -0.00000000000E+00 -0.00000000000E+00 -0.59725002069E+03  0.59725002069E+03  0.00000000000E+00 0. -1.
         25    1    1    2    0    0  0.27103444181E+02  0.10286852772E+03  0.24002335421E+02  0.16588442600E+03  0.12500000000E+03 0.  0.
         25    1    1    2    0    0 -0.18861474911E+03 -0.13109996524E+02 -0.27074013442E+03  0.35309009612E+03  0.12500000000E+03 0.  0.
         25    1    1    2    0    0  0.16151130493E+03 -0.89758531198E+02 -0.15636107003E+03  0.27242665024E+03  0.12500000000E+03 0.  0.
</event>
<event>
 5    0  0.7866528E-005  0.6369540E+03  0.7546771E-02  0.9831572E-01
         21   -1    0    0  502  501  0.00000000000E+00  0.00000000000E+00  0.68693948904E+03  0.68693948904E+03  0.00000000000E+00 0. -1.
         21   -1    0    0  501  502 -0.00000000000E+00 -0.00000000000E+00 -0.59060574410E+03  0.59060574410E+03  0.00000000000E+00 0. -1.
         25    1    1    2    0    0 -0.23490817487E+03  0.36913101444E+03  0.70604102175E+01  0.45509823756E+03  0.12500000000E+03 0.  0.
         25    1    1    2    0    0 -0.15850904065E+03 -0.33111939102E+03 -0.35786379917E+02  0.38944939603E+03  0.12500000000E+03 0.  0.
         25    1    1    2    0    0  0.39341721552E+03 -0.38011623413E+02  0.12505971465E+03  0.43299759955E+03  0.12500000000E+03 0.  0.
</event>
<event>
 5    0  0.5489207E-005  0.3859549E+03  0.7546771E-02  0.1048754E+00
         21   -1    0    0  502  501  0.00000000000E+00  0.00000000000E+00  0.32776343097E+03  0.32776343097E+03  0.00000000000E+00 0.  1.
         21   -1    0    0  501  502 -0.00000000000E+00 -0.00000000000E+00 -0.45447775213E+03  0.45447775213E+03  0.00000000000E+00 0.  1.
         25    1    1    2    0    0 -0.23117178419E+03  0.30763840047E+02 -0.66292004685E+02  0.27277543428E+03  0.12500000000E+03 0.  0.
         25    1    1    2    0    0  0.25067576904E+03  0.75595670939E+02  0.70543180059E+02  0.29858731872E+03  0.12500000000E+03 0.  0.
         25    1    1    2    0    0 -0.19503984841E+02 -0.10635951099E+03 -0.13096549654E+03  0.21087843011E+03  0.12500000000E+03 0.  0.
</event>
<event>
 5    0  0.5489207E-005  0.3462252E+03  0.7546771E-02  0.1064175E+00
         21   -1    0    0  502  501  0.00000000000E+00  0.00000000000E+00  0.64661025235E+03  0.64661025235E+03  0.00000000000E+00 0.  1.
         21   -1    0    0  501  502 -0.00000000000E+00 -0.00000000000E+00 -0.18538506907E+03  0.18538506907E+03  0.00000000000E+00 0.  1.
         25    1    1    2    0    0 -0.40663310488E+02  0.50768174088E+02  0.38818038629E+03  0.41296479828E+03  0.12500000000E+03 0.  0.
         25    1    1    2    0    0 -0.11679221830E+03  0.28757058826E+01  0.11581249707E+03  0.20660645299E+03  0.12500000000E+03 0.  0.
         25    1    1    2    0    0  0.15745552879E+03 -0.53643879971E+02 -0.42767700084E+02  0.21242407014E+03  0.12500000000E+03 0.  0.
</event>
<event>
 5    0  0.5489207E-005  0.3254897E+03  0.7546771E-02  0.1073150E+00
         21   -1    0    0  502  501  0.00000000000E+00  0.00000000000E+00  0.15596429620E+03  0.15596429620E+03  0.00000000000E+00 0. -1.
         21   -1    0    0  501  502 -0.00000000000E+00 -0.00000000000E+00 -0.67928055410E+03  0.67928055410E+03  0.00000000000E+00 0. -1.
         25    1    1    2    0    0 -0.24352022692E+03  0.62885503889E+02 -0.31870348786E+03  0.42479830589E+03  0.12500000000E+03 0.  0.
         25    1    1    2    0    0  0.12464407882E+03 -0.37436264527E+02 -0.11934489106E+03  0.21634653524E+03  0.12500000000E+03 0.  0.
         25    1    1    2    0    0  0.11887614810E+03 -0.25449239362E+02 -0.85267878977E+02  0.19410000916E+03  0.12500000000E+03 0.  0.
</event>
<event>
 5    0  0.5489207E-005  0.3054718E+03  0.7546771E-02  0.1082537E+00
         21   -1    0    0  502  501  0.00000000000E+00  0.00000000000E+00  0.12756123693E+04  0.12756123693E+04  0.00000000000E+00 0. -1.
         21   -1    0    0  501  502 -0.00000000000E+00 -0.00000000000E+00 -0.73151525415E+02  0.73151525415E+02  0.00000000000E+00 0. -1.
         25    1    1    2    0    0 -0.14006586539E+03 -0.13289350441E+03  0.57568684624E+03  0.61993505716E+03  0.12500000000E+03 0.  0.
         25    1    1    2    0    0 -0.42455866327E+00 -0.19514257607E+02  0.17033933349E+03  0.21218264546E+03  0.12500000000E+03 0.  0.
         25    1    1    2    0    0  0.14049042405E+03  0.15240776201E+03  0.45643466419E+03  0.51664619213E+03  0.12500000000E+03 0.  0.
</event>
<event>
 5    0  0.5489207E-005  0.2845262E+03  0.7546771E-02  0.1093242E+00
         21   -1    0    0  502  501  0.00000000000E+00  0.00000000000E+00  0.25615701480E+03  0.25615701480E+03  0.00000000000E+00 0. -1.
         21   -1    0    0  501  502 -0.00000000000E+00 -0.00000000000E+00 -0.31603734051E+03  0.31603734051E+03  0.00000000000E+00 0. -1.
         25    1    1    2    0    0  0.66545304639E+02  0.18069378507E+02 -0.38178717502E+02  0.14777481003E+03  0.12500000000E+03 0.  0.
         25    1    1    2    0    0 -0.20600892268E+02 -0.12495583631E+03  0.10962152133E+03  0.20899817159E+03  0.12500000000E+03 0.  0.
         25    1    1    2    0    0 -0.45944412371E+02  0.10688645780E+03 -0.13132312954E+03  0.21542137369E+03  0.12500000000E+03 0.  0.
</event>
<event>
 5    0  0.5489207E-005  0.2900552E+03  0.7546771E-02  0.1090320E+00
         21   -1    0    0  502  501  0.00000000000E+00  0.00000000000E+00  0.51491788872E+02  0.51491788872E+02  0.00000000000E+00 0.  1.
         21   -1    0    0  501  502 -0.00000000000E+00 -0.00000000000E+00 -0.16338923260E+04  0.16338923260E+04  0.00000000000E+00 0.  1.
         25    1    1    2    0    0  0.11110206454E+02 -0.17230971613E+02 -0.60570632374E+03  0.61880973949E+03  0.12500000000E+03 0.  0.
         25    1    1    2    0    0 -0.36275749208E+02  0.17964527552E+03 -0.48892324226E+03  0.53689784114E+03  0.12500000000E+03 0.  0.
         25    1    1    2    0    0  0.25165542754E+02 -0.16241430390E+03 -0.48777097115E+03  0.52967653427E+03  0.12500000000E+03 0.  0.
</event>
<event>
 5    0  0.5489207E-005  0.3246469E+03  0.7546771E-02  0.1073530E+00
         21   -1    0    0  502  501  0.00000000000E+00  0.00000000000E+00  0.31276725522E+03  0.31276725522E+03  0.00000000000E+00 0. -1.
         21   -1    0    0  501  502 -0.00000000000E+00 -0.00000000000E+00 -0.33697784725E+03  0.33697784725E+03  0.00000000000E+00 0. -1.
         25    1    1    2    0    0  0.87571008520E+02 -0.17163180185E+03 -0.81254740377E+02  0.24362571657E+03  0.12500000000E+03 0.  0.
         25    1    1    2    0    0  0.64326145894E+02  0.31584969720E+01 -0.13318406464E+01  0.14062219934E+03  0.12500000000E+03 0.  0.
         25    1    1    2    0    0 -0.15189715441E+03  0.16847330488E+03  0.58375988998E+02  0.26549718655E+03  0.12500000000E+03 0.  0.
</event>
<event>
 5    0  0.5489207E-005  0.2704715E+03  0.7546771E-02  0.1101010E+00
         21   -1    0    0  502  501  0.00000000000E+00  0.00000000000E+00  0.27833910482E+03  0.27833910482E+03  0.00000000000E+00 0.  1.
         21   -1    0    0  501  502 -0.00000000000E+00 -0.00000000000E+00 -0.26282633405E+03  0.26282633405E+03  0.00000000000E+00 0.  1.
         25    1    1    2    0    0  0.19218784763E+02  0.72049459527E+02 -0.53080121127E+02  0.15492896942E+03  0.12500000000E+03 0.  0.
         25    1    1    2    0    0  0.28422766944E+02 -0.11426633028E+03 -0.73295896051E+02  0.18671351396E+03  0.12500000000E+03 0.  0.
         25    1    1    2    0    0 -0.47641551707E+02  0.42216870751E+02  0.14188878795E+03  0.19952295550E+03  0.12500000000E+03 0.  0.
</event>
<event>
 5    0  0.5489207E-005  0.2095077E+03  0.7546771E-02  0.1141956E+00
         21   -1    0    0  502  501  0.00000000000E+00  0.00000000000E+00  0.37230763181E+02  0.37230763181E+02  0.00000000000E+00 0.  1.
         21   -1    0    0  501  502 -0.00000000000E+00 -0.00000000000E+00 -0.11789570412E+04  0.11789570412E+04  0.00000000000E+00 0.  1.
         25    1    1    2    0    0  0.12358198646E+02 -0.15196280415E+02 -0.35686334796E+03  0.37862923966E+03  0.12500000000E+03 0.  0.
         25    1    1    2    0    0 -0.13266604583E+02 -0.42019960220E+02 -0.22565402177E+03  0.26169909705E+03  0.12500000000E+03 0.  0.
         25    1    1    2    0    0  0.90840593627E+00  0.57216240636E+02 -0.55920890826E+03  0.57585946764E+03  0.12500000000E+03 0.  0.
</event>
<event>
 5    0  0.6150426E-005  0.2941823E+03  0.7546771E-02  0.1088186E+00
         21   -1    0    0  502  501  0.00000000000E+00  0.00000000000E+00  0.35915280970E+03  0.35915280970E+03  0.00000000000E+00 0. -1.
         21   -1    0    0  501  502 -0.00000000000E+00 -0.00000000000E+00 -0.24096488346E+03  0.24096488346E+03  0.00000000000E+00 0. -1.
         25    1    1    2    0    0  0.39271166215E+02 -0.12376233851E+03  0.88004215215E+02  0.20057188942E+03  0.12500000000E+03 0.  0.
         25    1    1    2    0    0  0.73781279476E+02 -0.52113236021E+02  0.22283211197E+02  0.15582364413E+03  0.12500000000E+03 0.  0.
         25    1    1    2    0    0 -0.11305244569E+03  0.17587557453E+03  0.79004998267E+01  0.24372215962E+03  0.12500000000E+03 0.  0.
</event>
<event>
 5    0  0.5489207E-005  0.2523950E+03  0.7546771E-02  0.1111801E+00
         21   -1    0    0  502  501  0.00000000000E+00  0.00000000000E+00  0.56260122499E+03  0.56260122499E+03  0.00000000000E+00 0.  1.
         21   -1    0    0  501  502 -0.00000000000E+00 -0.00000000000E+00 -0.11322981398E+03  0.11322981398E+03  0.00000000000E+00 0.  1.
         25    1    1    2    0    0  0.43513659688E+02  0.46449102722E+02  0.21243538650E+03  0.25456777322E+03  0.12500000000E+03 0.  0.
         25    1    1    2    0    0  0.75889839502E+02 -0.13537108185E+02  0.18810442942E+03  0.23864366198E+03  0.12500000000E+03 0.  0.
         25    1    1    2    0    0 -0.11940349919E+03 -0.32911994536E+02  0.48831595088E+02  0.18261960377E+03  0.12500000000E+03 0.  0.
</event>
<event>
 5    0  0.5489207E-005  0.3114019E+03  0.7546771E-02  0.1079676E+00
         21   -1    0    0  502  501  0.00000000000E+00  0.00000000000E+00  0.15648626199E+03  0.15648626199E+03  0.00000000000E+00 0. -1.
         21   -1    0    0  501  502 -0.00000000000E+00 -0.00000000000E+00 -0.61967840763E+03  0.61967840763E+03  0.00000000000E+00 0. -1.
         25    1    1    2    0    0  0.60096536233E+02  0.12096376371E+03 -0.42618491561E+02  0.18890516568E+03  0.12500000000E+03 0.  0.
         25    1    1    2    0    0 -0.31465499475E+02  0.63623782861E+02 -0.46910411956E+02  0.15120730853E+03  0.12500000000E+03 0.  0.
         25    1    1    2    0    0 -0.28631036757E+02 -0.18458754657E+03 -0.37366324212E+03  0.43605219541E+03  0.12500000000E+03 0.  0.
</event>
<event>
 5    0  0.5489207E-005  0.2405384E+03  0.7546771E-02  0.1119435E+00
         21   -1    0    0  502  501  0.00000000000E+00  0.00000000000E+00  0.33010869807E+03  0.33010869807E+03  0.00000000000E+00 0.  1.
         21   -1    0    0  501  502 -0.00000000000E+00 -0.00000000000E+00 -0.17527179724E+03  0.17527179724E+03  0.00000000000E+00 0.  1.
         25    1    1    2    0    0 -0.35813524927E+02  0.32070022382E+02  0.71208697879E+02  0.15167983899E+03  0.12500000000E+03 0.  0.
         25    1    1    2    0    0  0.21640890667E+02 -0.11097549743E+03 -0.24069491014E+02  0.17025930100E+03  0.12500000000E+03 0.  0.
         25    1    1    2    0    0  0.14172634260E+02  0.78905475045E+02  0.10769769397E+03  0.18344135532E+03  0.12500000000E+03 0.  0.
</event>
<event>
 5    0  0.5489207E-005  0.2861583E+03  0.7546771E-02  0.1092372E+00
         21   -1    0    0  502  501  0.00000000000E+00  0.00000000000E+00  0.12391876425E+04  0.12391876425E+04  0.00000000000E+00 0. -1.
         21   -1    0    0  501  502 -0.00000000000E+00 -0.00000000000E+00 -0.66080841249E+02  0.66080841249E+02  0.00000000000E+00 0. -1.
         25    1    1    2    0    0  0.89628769087E+02  0.11920046045E+02  0.20283850707E+03  0.25484085955E+03  0.12500000000E+03 0.  0.
         25    1    1    2    0    0 -0.93172019917E+02  0.38633148740E+02  0.15207432538E+03  0.22119029345E+03  0.12500000000E+03 0.  0.
         25    1    1    2    0    0  0.35432508308E+01 -0.50553194785E+02  0.81819396880E+03  0.82923733075E+03  0.12500000000E+03 0.  0.
</event>
<event>
 5    0  0.5489207E-005  0.2676189E+03  0.7546771E-02  0.1102650E+00
         21   -1    0    0  502  501  0.00000000000E+00  0.00000000000E+00  0.23629325347E+02  0.23629325347E+02  0.00000000000E+00 0. -1.
         21   -1    0    0  501  502 -0.00000000000E+00 -0.00000000000E+00 -0.30309732308E+04  0.30309732308E+04  0.00000000000E+00 0. -1.
         25    1    1    2    0    0  0.13655887099E+02 -0.83272471522E+01 -0.21536902137E+04  0.21573739506E+04  0.12500000000E+03 0.  0.
         25    1    1    2    0    0  0.33057047394E+02 -0.31121233929E+02 -0.34070937137E+03  0.36574468598E+03  0.12500000000E+03 0.  0.
         25    1    1    2    0    0 -0.46712934492E+02  0.39448481082E+02 -0.51294432044E+03  0.53148391958E+03  0.12500000000E+03 0.  0.
</event>
<event>
 5    0  0.5489207E-005  0.2726843E+03  0.7546771E-02  0.1099753E+00
         21   -1    0    0  502  501  0.00000000000E+00  0.00000000000E+00  0.35274494852E+03  0.35274494852E+03  0.00000000000E+00 0. -1.
         21   -1    0    0  501  502 -0.00000000000E+00 -0.00000000000E+00 -0.21079452352E+03  0.21079452352E+03  0.00000000000E+00 0. -1.
         25    1    1    2    0    0 -0.16762251108E+02 -0.19721939744E+02 -0.11410254530E+03  0.17121424828E+03  0.12500000000E+03 0.  0.
         25    1    1    2    0    0  0.76383605375E+02 -0.17070997250E+02  0.17049352137E+03  0.22543051024E+03  0.12500000000E+03 0.  0.
         25    1    1    2    0    0 -0.59621354267E+02  0.36792936994E+02  0.85559448933E+02  0.16689471351E+03  0.12500000000E+03 0.  0.
</event>
<event>
 5    0  0.5489207E-005  0.3652528E+03  0.7546771E-02  0.1056523E+00
         21   -1    0    0  502  501  0.00000000000E+00  0.00000000000E+00  0.31231399003E+03  0.31231399003E+03  0.00000000000E+00 0. -1.
         21   -1    0    0  501  502 -0.00000000000E+00 -0.00000000000E+00 -0.42716504391E+03  0.42716504391E+03  0.00000000000E+00 0. -1.
         25    1    1    2    0    0 -0.15007682956E+03  0.35862021263E+02  0.17139504783E+02  0.19931859412E+03  0.12500000000E+03 0.  0.
         25    1    1    2    0    0  0.26783890021E+01 -0.22243037589E+03 -0.64189842634E+02  0.26311172871E+03  0.12500000000E+03 0.  0.
         25    1    1    2    0    0  0.14739844055E+03  0.18656835463E+03 -0.67800716027E+02  0.27704871110E+03  0.12500000000E+03 0.  0.
</event>
<event>
 5    0  0.5489207E-005  0.3310596E+03  0.7546771E-02  0.1070669E+00
         21   -1    0    0  502  501  0.00000000000E+00  0.00000000000E+00  0.45415083201E+03  0.45415083201E+03  0.00000000000E+00 0.  1.
         21   -1    0    0  501  502 -0.00000000000E+00 -0.00000000000E+00 -0.24133051127E+03  0.24133051127E+03  0.00000000000E+00 0.  1.
         25    1    1    2    0    0 -0.95175966205E+02 -0.15264299297E+03 -0.19543592904E+02  0.21992112192E+03  0.12500000000E+03 0.  0.
         25    1    1    2    0    0  0.13297281230E+03  0.12839214944E+03  0.25712736600E+03  0.34044940181E+03  0.12500000000E+03 0.  0.
         25    1    1    2    0    0 -0.37796846092E+02  0.24250843526E+02 -0.24763452354E+02  0.13511081955E+03  0.12500000000E+03 0.  0.
</event>
<event>
 5    0  0.5489207E-005  0.3571626E+03  0.7546771E-02  0.1059713E+00
         21   -1    0    0  502  501  0.00000000000E+00  0.00000000000E+00  0.13599722328E+04  0.13599722328E+04  0.00000000000E+00 0.  1.
         21   -1    0    0  501  502 -0.00000000000E+00 -0.00000000000E+00 -0.93799809537E+02  0.93799809537E+02  0.00000000000E+00 0.  1.
         25    1    1    2    0    0 -0.83214206471E+02 -0.12253562002E+03  0.57354983236E+02  0.20212416094E+03  0.12500000000E+03 0.  0.
         25    1    1    2    0    0 -0.13348907543E+02  0.32213173090E+01  0.42440232573E+03  0.44264082991E+03  0.12500000000E+03 0.  0.
         25    1    1    2    0    0  0.96563114014E+02  0.11931430272E+03  0.78441511432E+03  0.80900705152E+03  0.12500000000E+03 0.  0.
</event>
<event>
 5    0  0.5489207E-005  0.2660831E+03  0.7546771E-02  0.1103542E+00
         21   -1    0    0  502  501  0.00000000000E+00  0.00000000000E+00  0.10971358121E+04  0.10971358121E+04  0.00000000000E+00 0. -1.
         21   -1    0    0  501  502 -0.00000000000E+00 -0.00000000000E+00 -0.64531884853E+02  0.64531884853E+02  0.00000000000E+00 0. -1.
         25    1    1    2    0    0  0.59133303973E+02 -0.41800905791E+02  0.65577389556E+03  0.67149718202E+03  0.12500000000E+03 0.  0.
         25    1    1    2    0    0  0.50425230894E+02 -0.14787830446E+02  0.19389857014E+03  0.23660735268E+03  0.12500000000E+03 0.  0.
         25    1    1    2    0    0 -0.10955853487E+03  0.56588736237E+02  0.18293146157E+03  0.25356316228E+03  0.12500000000E+03 0.  0.
</event>
<event>
 5    0  0.6263005E-005  0.3195789E+03  0.7546771E-02  0.1075843E+00
         21   -1    0    0  502  501  0.00000000000E+00  0.00000000000E+00  0.63970397367E+03  0.63970397367E+03  0.00000000000E+00 0. -1.
         21   -1    0    0  501  502 -0.00000000000E+00 -0.00000000000E+00 -0.15965307144E+03  0.15965307144E+03  0.00000000000E+00 0. -1.
         25    1    1    2    0    0 -0.14533033916E+03 -0.74569277031E+02  0.10211640553E+03  0.22963937998E+03  0.12500000000E+03 0.  0.
         25    1    1    2    0    0 -0.66534757111E+02 -0.19899161668E+00  0.23815586766E+03  0.27707423338E+03  0.12500000000E+03 0.  0.
         25    1    1    2    0    0  0.21186509627E+03  0.74768268648E+02  0.13977862904E+03  0.29264343176E+03  0.12500000000E+03 0.  0.
</event>
<event>
 5    0  0.5489207E-005  0.5588248E+03  0.7546771E-02  0.9994717E-01
         21   -1    0    0  502  501  0.00000000000E+00  0.00000000000E+00  0.13985570152E+03  0.13985570152E+03  0.00000000000E+00 0. -1.
         21   -1    0    0  501  502 -0.00000000000E+00 -0.00000000000E+00 -0.22329099175E+04  0.22329099175E+04  0.00000000000E+00 0. -1.
         25    1    1    2    0    0  0.14835692401E+02  0.20638248962E+02 -0.19158622913E+03  0.23016584951E+03  0.12500000000E+03 0.  0.
         25    1    1    2    0    0 -0.18663663392E+01  0.28750230218E+03 -0.17484309754E+04  0.17763155499E+04  0.12500000000E+03 0.  0.
         25    1    1    2    0    0 -0.12969326062E+02 -0.30814055114E+03 -0.15303701150E+03  0.36628421965E+03  0.12500000000E+03 0.  0.
</event>
<event>
 5    0  0.5489207E-005  0.3322210E+03  0.7546771E-02  0.1070158E+00
         21   -1    0    0  502  501  0.00000000000E+00  0.00000000000E+00  0.12538857364E+03  0.12538857364E+03  0.00000000000E+00 0.  1.
         21   -1    0    0  501  502 -0.00000000000E+00 -0.00000000000E+00 -0.88022988027E+03  0.88022988027E+03  0.00000000000E+00 0.  1.
         25    1    1    2    0    0  0.25760489837E+02 -0.64966501100E+02  0.44741355927E+02  0.15003678893E+03  0.12500000000E+03 0.  0.
         25    1    1    2    0    0 -0.55582448152E+02  0.95913381003E+02 -0.36669354417E+03  0.40296146284E+03  0.12500000000E+03 0.  0.
         25    1    1    2    0    0  0.29821958314E+02 -0.30946879904E+02 -0.43288911839E+03  0.45262020215E+03  0.12500000000E+03 0.  0.
</event>
<event>
 5    0  0.5489207E-005  0.3007146E+03  0.7546771E-02  0.1084884E+00
         21   -1    0    0  502  501  0.00000000000E+00  0.00000000000E+00  0.93957772965E+02  0.93957772965E+02  0.00000000000E+00 0.  1.
         21   -1    0    0  501  502 -0.00000000000E+00 -0.00000000000E+00 -0.96244580313E+03  0.96244580313E+03  0.00000000000E+00 0.  1.
         25    1    1    2    0    0 -0.70058756212E+02 -0.34238056274E+02 -0.56556246088E+02  0.15781027467E+03  0.12500000000E+03 0.  0.
         25    1    1    2    0    0 -0.16719256464E+01 -0.11957418517E+03 -0.33033675464E+03  0.37289160967E+03  0.12500000000E+03 0.  0.
         25    1    1    2    0    0  0.71730681858E+02  0.15381224145E+03 -0.48159502944E+03  0.52570169176E+03  0.12500000000E+03 0.  0.
</event>
<event>
 5    0  0.5489207E-005  0.3047388E+03  0.7546771E-02  0.1082895E+00
         21   -1    0    0  502  501  0.00000000000E+00  0.00000000000E+00  0.47094742487E+02  0.47094742487E+02  0.00000000000E+00 0. -1.
         21   -1    0    0  501  502 -0.00000000000E+00 -0.00000000000E+00 -0.19718914407E+04  0.19718914407E+04  0.00000000000E+00 0. -1.
         25    1    1    2    0    0 -0.78194855296E+02  0.17568432621E+03 -0.11095057126E+04  0.11329639642E+04  0.12500000000E+03 0.  0.
         25    1    1    2    0    0  0.72782110903E+02 -0.10207955285E+03 -0.27897323312E+03  0.33040662157E+03  0.12500000000E+03 0.  0.
         25    1    1    2    0    0  0.54127443930E+01 -0.73604773357E+02 -0.53631775245E+03  0.55561559739E+03  0.12500000000E+03 0.  0.
</event>
<event>
 5    0  0.5489207E-005  0.5830497E+03  0.7546771E-02  0.9941210E-01
         21   -1    0    0  502  501  0.00000000000E+00  0.00000000000E+00  0.31837542303E+03  0.31837542303E+03  0.00000000000E+00 0. -1.
         21   -1    0    0  501  502 -0.00000000000E+00 -0.00000000000E+00 -0.10677548551E+04  0.10677548551E+04  0.00000000000E+00 0. -1.
         25    1    1    2    0    0  0.12736498700E+03  0.39635315152E+03 -0.69862443031E+02  0.44025381495E+03  0.12500000000E+03 0.  0.
         25    1    1    2    0    0 -0.19857511572E+03 -0.37145571331E+01 -0.18906287728E+03  0.30135634402E+03  0.12500000000E+03 0.  0.
         25    1    1    2    0    0  0.71210128718E+02 -0.39263859439E+03 -0.49045411174E+03  0.64452011913E+03  0.12500000000E+03 0.  0.
</event>
<event>
 5    0  0.5801066E-005  0.4425077E+03  0.7546771E-02  0.1029980E+00
         21   -1    0    0  502  501  0.00000000000E+00  0.00000000000E+00  0.46517783996E+03  0.46517783996E+03  0.00000000000E+00 0. -1.
         21   -1    0    0  501  502 -0.00000000000E+00 -0.00000000000E+00 -0.42094243126E+03  0.42094243126E+03  0.00000000000E+00 0. -1.
         25    1    1    2    0    0 -0.17038669052E+03 -0.11137289918E+02  0.10328266169E+03  0.23547393006E+03  0.12500000000E+03 0.  0.
         25    1    1    2    0    0  0.75761661840E+01  0.19316599014E+03 -0.23159765344E+03  0.32654704274E+03  0.12500000000E+03 0.  0.
         25    1    1    2    0    0  0.16281052433E+03 -0.18202870022E+03  0.17255040045E+03  0.32409929842E+03  0.12500000000E+03 0.  0.
</event>
<event>
 5    0  0.5489207E-005  0.2929131E+03  0.7546771E-02  0.1088838E+00
         21   -1    0    0  502  501  0.00000000000E+00  0.00000000000E+00  0.11852420089E+03  0.11852420089E+03  0.00000000000E+00 0. -1.
         21   -1    0    0  501  502 -0.00000000000E+00 -0.00000000000E+00 -0.72388655824E+03  0.72388655824E+03  0.00000000000E+00 0. -1.
         25    1    1    2    0    0  0.10739051759E+03 -0.16439542497E+03 -0.34371037180E+03  0.41511492228E+03  0.12500000000E+03 0.  0.
         25    1    1    2    0    0 -0.71110953478E+02  0.14787414340E+03 -0.15051489155E+03  0.25534929522E+03  0.12500000000E+03 0.  0.
         25    1    1    2    0    0 -0.36279564108E+02  0.16521281566E+02 -0.11113709401E+03  0.17194654164E+03  0.12500000000E+03 0.  0.
</event>
<event>
 5    0  0.5489207E-005  0.3424586E+03  0.7546771E-02  0.1065754E+00
         21   -1    0    0  502  501  0.00000000000E+00  0.00000000000E+00  0.10352653472E+04  0.10352653472E+04  0.00000000000E+00 0.  1.
         21   -1    0    0  501  502 -0.00000000000E+00 -0.00000000000E+00 -0.11328295138E+03  0.11328295138E+03  0.00000000000E+00 0.  1.
         25    1    1    2    0    0 -0.17226593449E+03  0.11328447852E+03  0.18414253482E+03  0.30338490139E+03  0.12500000000E+03 0.  0.
         25    1    1    2    0    0  0.18847213010E+03 -0.26839392995E+01  0.54225646944E+03  0.58753385094E+03  0.12500000000E+03 0.  0.
         25    1    1    2    0    0 -0.16206195607E+02 -0.11060053922E+03  0.19558339157E+03  0.25762954627E+03  0.12500000000E+03 0.  0.
</event>
<event>
 5    0  0.5489207E-005  0.4876637E+03  0.7546771E-02  0.1017050E+00
         21   -1    0    0  502  501  0.00000000000E+00  0.00000000000E+00  0.33828989972E+03  0.33828989972E+03  0.00000000000E+00 0. -1.
         21   -1    0    0  501  502 -0.00000000000E+00 -0.00000000000E+00 -0.70299432348E+03  0.70299432348E+03  0.00000000000E+00 0. -1.
         25    1    1    2    0    0 -0.53754804701E+02  0.14950449275E+03 -0.22594803203E+03  0.30318094524E+03  0.12500000000E+03 0.  0.
         25    1    1    2    0    0  0.12799689266E+03  0.16590732538E+03 -0.27264734643E+03  0.36588252303E+03  0.12500000000E+03 0.  0.
         25    1    1    2    0    0 -0.74242087964E+02 -0.31541181813E+03  0.13389095471E+03  0.37222075492E+03  0.12500000000E+03 0.  0.
</event>
<event>
 5    0  0.5489207E-005  0.3319750E+03  0.7546771E-02  0.1070266E+00
         21   -1    0    0  502  501  0.00000000000E+00  0.00000000000E+00  0.20300286056E+03  0.20300286056E+03  0.00000000000E+00 0. -1.
         21   -1    0    0  501  502 -0.00000000000E+00 -0.00000000000E+00 -0.54288583633E+03  0.54288583633E+03  0.00000000000E+00 0. -1.
         25    1    1    2    0    0 -0.49624958664E+02 -0.60877864793E+02 -0.19440496621E+03  0.24410457151E+03  0.12500000000E+03 0.  0.
         25    1    1    2    0    0  0.66066065750E+02  0.77733494755E+02  0.12420104495E+03  0.20361267352E+03  0.12500000000E+03 0.  0.
         25    1    1    2    0    0 -0.16441107086E+02 -0.16855629962E+02 -0.26967905450E+03  0.29817145186E+03  0.12500000000E+03 0.  0.
</event>
<event>
 5    0  0.5698478E-005  0.3601671E+03  0.7546771E-02  0.1058518E+00
         21   -1    0    0  502  501  0.00000000000E+00  0.00000000000E+00  0.73575419236E+03  0.73575419236E+03  0.00000000000E+00 0. -1.
         21   -1    0    0  501  502 -0.00000000000E+00 -0.00000000000E+00 -0.17630935056E+03  0.17630935056E+03  0.00000000000E+00 0. -1.
         25    1    1    2    0    0 -0.10594077529E+03  0.10239285804E+03  0.15321568758E+03  0.24659236032E+03  0.12500000000E+03 0.  0.
         25    1    1    2    0    0 -0.82423075196E+02 -0.24731000668E+02  0.39838247757E+03  0.42630832053E+03  0.12500000000E+03 0.  0.
         25    1    1    2    0    0  0.18836385048E+03 -0.77661857371E+02  0.78466766485E+01  0.23916286207E+03  0.12500000000E+03 0.  0.
</event>
<event>
 5    0  0.5489207E-005  0.4393712E+03  0.7546771E-02  0.1030940E+00
         21   -1    0    0  502  501  0.00000000000E+00  0.00000000000E+00  0.83351987428E+03  0.83351987428E+03  0.00000000000E+00 0.  1.
         21   -1    0    0  501  502 -0.00000000000E+00 -0.00000000000E+00 -0.23160461599E+03  0.23160461599E+03  0.00000000000E+00 0.  1.
         25    1    1    2    0    0  0.57864988332E+02 -0.31056493055E+02  0.30890190429E+02  0.14454088176E+03  0.12500000000E+03 0.  0.
         25    1    1    2    0    0 -0.32887560323E+03  0.80468368295E+02  0.12560088134E+03  0.38214513223E+03  0.12500000000E+03 0.  0.
         25    1    1    2    0    0  0.27101061489E+03 -0.49411875240E+02  0.44542418652E+03  0.53843847628E+03  0.12500000000E+03 0.  0.
</event>
<event>
 5    0  0.5489207E-005  0.2081613E+03  0.7546771E-02  0.1143030E+00
         21   -1    0    0  502  501  0.00000000000E+00  0.00000000000E+00  0.33073099773E+03  0.33073099773E+03  0.00000000000E+00 0. -1.
         21   -1    0    0  501  502 -0.00000000000E+00 -0.00000000000E+00 -0.13101621606E+03  0.13101621606E+03  0.00000000000E+00 0. -1.
         25    1    1    2    0    0 -0.54181834410E+02  0.30262001225E+02  0.13174816185E+03  0.19192195822E+03  0.12500000000E+03 0.  0.
         25    1    1    2    0    0  0.26271550165E+02 -0.28137024825E+02  0.51947784357E+02  0.14073186851E+03  0.12500000000E+03 0.  0.
         25    1    1    2    0    0  0.27910284246E+02 -0.21249763999E+01  0.16018835460E+02  0.12909338705E+03  0.12500000000E+03 0.  0.
</event>
<event>
 5    0  0.5489207E-005  0.3090705E+03  0.7546771E-02  0.1080792E+00
         21   -1    0    0  502  501  0.00000000000E+00  0.00000000000E+00  0.81571226799E+02  0.81571226799E+02  0.00000000000E+00 0. -1.
         21   -1    0    0  501  502 -0.00000000000E+00 -0.00000000000E+00 -0.11710570405E+04  0.11710570405E+04  0.00000000000E+00 0. -1.
         25    1    1    2    0    0  0.42274236109E+02 -0.13864929173E+03 -0.40604110083E+03  0.44889320857E+03  0.12500000000E+03 0.  0.
         25    1    1    2    0    0 -0.17485542658E+03  0.62394451522E+02 -0.32785290981E+03  0.39696349738E+03  0.12500000000E+03 0.  0.
         25    1    1    2    0    0  0.13258119047E+03  0.76254840209E+02 -0.35559180311E+03  0.40677156139E+03  0.12500000000E+03 0.  0.
</event>
<event>
 5    0  0.5489207E-005  0.3967132E+03  0.7546771E-02  0.1044924E+00
         21   -1    0    0  502  501  0.00000000000E+00  0.00000000000E+00  0.19232581469E+03  0.19232581469E+03  0.00000000000E+00 0.  1.
         21   -1    0    0  501  502 -0.00000000000E+00 -0.00000000000E+00 -0.81830613583E+03  0.81830613583E+03  0.00000000000E+00 0.  1.
         25    1    1    2    0    0 -0.57558801968E+02  0.25034371327E+03 -0.29264770674E+03  0.40896536616E+03  0.12500000000E+03 0.  0.
         25    1    1    2    0    0  0.11874478379E+03 -0.68383147532E+01 -0.88543198881E+01  0.17277292961E+03  0.12500000000E+03 0.  0.
         25    1    1    2    0    0 -0.61185981821E+02 -0.24350539852E+03 -0.32447829451E+03  0.42889365475E+03  0.12500000000E+03 0.  0.
</event>
<event>
 5    0  0.5489207E-005  0.2721028E+03  0.7546771E-02  0.1100082E+00
         21   -1    0    0  502  501  0.00000000000E+00  0.00000000000E+00  0.97082210663E+02  0.97082210663E+02  0.00000000000E+00 0. -1.
         21   -1    0    0  501  502 -0.00000000000E+00 -0.00000000000E+00 -0.76265183201E+03  0.76265183201E+03  0.00000000000E+00 0. -1.
         25    1    1    2    0    0 -0.10744861957E+03 -0.99316245828E+02 -0.18053534821E+03  0.26386916168E+03  0.12500000000E+03 0.  0.
         25    1    1    2    0    0  0.12287229309E+03  0.10041425691E+03 -0.38591829166E+03  0.43558988882E+03  0.12500000000E+03 0.  0.
         25    1    1    2    0    0 -0.15423673529E+02 -0.10980110828E+01 -0.99115981475E+02  0.16027499218E+03  0.12500000000E+03 0.  0.
</event>
<event>
 5    0  0.5489207E-005  0.2652733E+03  0.7546771E-02  0.1104016E+00
         21   -1    0    0  502  501  0.00000000000E+00  0.00000000000E+00  0.20179979498E+03  0.20179979498E+03  0.00000000000E+00 0. -1.
         21   -1    0    0  501  502 -0.00000000000E+00 -0.00000000000E+00 -0.34871161587E+03  0.34871161587E+03  0.00000000000E+00 0. -1.
         25    1    1    2    0    0 -0.55413446287E+02  0.30240304058E+01 -0.95304968046E+02  0.16669682578E+03  0.12500000000E+03 0.  0.
         25    1    1    2    0    0 -0.88391725812E+02  0.53666832608E+01  0.58044807886E+02  0.16381727077E+03  0.12500000000E+03 0.  0.
         25    1    1    2    0    0  0.14380517210E+03 -0.83907136666E+01 -0.10965166073E+03  0.21999731430E+03  0.12500000000E+03 0.  0.
</event>
<event>
 5    0  0.5489207E-005  0.4866092E+03  0.7546771E-02  0.1017334E+00
         21   -1    0    0  502  501  0.00000000000E+00  0.00000000000E+00  0.37117529090E+03  0.37117529090E+03  0.00000000000E+00 0.  1.
         21   -1    0    0  501  502 -0.00000000000E+00 -0.00000000000E+00 -0.63794264658E+03  0.63794264658E+03  0.00000000000E+00 0.  1.
         25    1    1    2    0    0  0.39614324648E+03  0.75183519712E+02  0.53683976120E+02  0.42554553535E+03  0.12500000000E+03 0.  0.
         25    1    1    2    0    0 -0.19623909977E+03 -0.81330312892E+02 -0.20694556349E+03  0.32183205298E+03  0.12500000000E+03 0.  0.
         25    1    1    2    0    0 -0.19990414670E+03  0.61467931792E+01 -0.11350576831E+03  0.26174034915E+03  0.12500000000E+03 0.  0.
</event>
<event>
 5    0  0.5489207E-005  0.2617348E+03  0.7546771E-02  0.1106105E+00
         21   -1    0    0  502  501  0.00000000000E+00  0.00000000000E+00  0.12923768301E+03  0.12923768301E+03  0.00000000000E+00 0.  1.
         21   -1    0    0  501  502 -0.00000000000E+00 -0.00000000000E+00 -0.53007070658E+03  0.53007070658E+03  0.00000000000E+00 0.  1.
         25    1    1    2    0    0 -0.51290601414E+02  0.35785518045E+02 -0.13538280142E+03  0.19458887948E+03  0.12500000000E+03 0.  0.
         25    1    1    2    0    0  0.94833306810E+02 -0.14103063421E+03 -0.16678127802E+03  0.26893120043E+03  0.12500000000E+03 0.  0.
         25    1    1    2    0    0 -0.43542705396E+02  0.10524511617E+03 -0.98668944120E+02  0.19578830967E+03  0.12500000000E+03 0.  0.
</event>
<event>
 5    0  0.5489207E-005  0.4941621E+03  0.7546771E-02  0.1015314E+00
         21   -1    0    0  502  501  0.00000000000E+00  0.00000000000E+00  0.15073536829E+04  0.15073536829E+04  0.00000000000E+00 0. -1.
         21   -1    0    0  501  502 -0.00000000000E+00 -0.00000000000E+00 -0.16200327184E+03  0.16200327184E+03  0.00000000000E+00 0. -1.
         25    1    1    2    0    0  0.98528452329E+02  0.26926352189E+03  0.25319934600E+03  0.40242466246E+03  0.12500000000E+03 0.  0.
         25    1    1    2    0    0 -0.30482039155E+03 -0.16640537836E+03  0.52132348982E+03  0.63875613663E+03  0.12500000000E+03 0.  0.
         25    1    1    2    0    0  0.20629193922E+03 -0.10285814353E+03  0.57082757519E+03  0.62817615561E+03  0.12500000000E+03 0.  0.
</event>
<event>
 5    0  0.5489207E-005  0.2474367E+03  0.7546771E-02  0.1114936E+00
         21   -1    0    0  502  501  0.00000000000E+00  0.00000000000E+00  0.16640563283E+04  0.16640563283E+04  0.00000000000E+00 0. -1.
         21   -1    0    0  501  502 -0.00000000000E+00 -0.00000000000E+00 -0.36792565734E+02  0.36792565734E+02  0.00000000000E+00 0. -1.
         25    1    1    2    0    0  0.52993119951E+02  0.72178683867E+02  0.40388025784E+03  0.43216003499E+03  0.12500000000E+03 0.  0.
         25    1    1    2    0    0  0.45272751398E+02 -0.88530227875E+02  0.80752979776E+03  0.82317470657E+03  0.12500000000E+03 0.  0.
         25    1    1    2    0    0 -0.98265871349E+02  0.16351544009E+02  0.41585370701E+03  0.44551415253E+03  0.12500000000E+03 0.  0.
</event>
<event>
 5    0  0.5489207E-005  0.2504880E+03  0.7546771E-02  0.1112997E+00
         21   -1    0    0  502  501  0.00000000000E+00  0.00000000000E+00  0.98375234909E+03  0.98375234909E+03  0.00000000000E+00 0.  1.
         21   -1    0    0  501  502 -0.00000000000E+00 -0.00000000000E+00 -0.63780519816E+02  0.63780519816E+02  0.00000000000E+00 0.  1.
         25    1    1    2    0    0 -0.95230930661E+02 -0.10823799774E+03  0.28226264154E+03  0.34070748909E+03  0.12500000000E+03 0.  0.
         25    1    1    2    0    0  0.99063478829E+02  0.67957964922E+02  0.37116782878E+03  0.40966134179E+03  0.12500000000E+03 0.  0.
         25    1    1    2    0    0 -0.38325481677E+01  0.40280032813E+02  0.26654135895E+03  0.29716403804E+03  0.12500000000E+03 0.  0.
</event>
<event>
 5    0  0.5489207E-005  0.2990090E+03  0.7546771E-02  0.1085737E+00
         21   -1    0    0  502  501  0.00000000000E+00  0.00000000000E+00  0.13118406343E+03  0.13118406343E+03  0.00000000000E+00 0. -1.
         21   -1    0    0  501  502 -0.00000000000E+00 -0.00000000000E+00 -0.68153379596E+03  0.68153379596E+03  0.00000000000E+00 0. -1.
         25    1    1    2    0    0  0.17605511994E+03 -0.68691111303E+02 -0.31758028724E+03  0.39012320217E+03  0.12500000000E+03 0.  0.
         25    1    1    2    0    0 -0.16532746830E+03  0.83875865250E+02 -0.17349800700E+03  0.28301040790E+03  0.12500000000E+03 0.  0.
         25    1    1    2    0    0 -0.10727651643E+02 -0.15184753948E+02 -0.59271438290E+02  0.13958424932E+03  0.12500000000E+03 0.  0.
</event>
<event>
 5    0  0.5489207E-005  0.4567227E+03  0.7546771E-02  0.1025736E+00
         21   -1    0    0  502  501  0.00000000000E+00  0.00000000000E+00  0.18275827776E+03  0.18275827776E+03  0.00000000000E+00 0. -1.
         21   -1    0    0  501  502 -0.00000000000E+00 -0.00000000000E+00 -0.11413742293E+04  0.11413742293E+04  0.00000000000E+00 0. -1.
         25    1    1    2    0    0  0.13512308200E+03 -0.78693665120E+02 -0.11063087193E+03  0.22872500966E+03  0.12500000000E+03 0.  0.
         25    1    1    2    0    0 -0.19727364389E+03  0.17352132337E+03 -0.69895766444E+02  0.29922726882E+03  0.12500000000E+03 0.  0.
         25    1    1    2    0    0  0.62150561892E+02 -0.94827658246E+02 -0.77808931315E+03  0.79618022856E+03  0.12500000000E+03 0.  0.
</event>
<event>
 5    0  0.5489207E-005  0.3361632E+03  0.7546771E-02  0.1068442E+00
         21   -1    0    0  502  501  0.00000000000E+00  0.00000000000E+00  0.65242765200E+02  0.65242765200E+02  0.00000000000E+00 0.  1.
         21   -1    0    0  501  502 -0.00000000000E+00 -0.00000000000E+00 -0.17320805160E+04  0.17320805160E+04  0.00000000000E+00 0.  1.
         25    1    1    2    0    0 -0.79088340227E+02  0.19115605399E+03 -0.39096363113E+03  0.45964460554E+03  0.12500000000E+03 0.  0.
         25    1    1    2    0    0  0.82342672734E+01  0.35719018192E+02 -0.34233097647E+03  0.36627742064E+03  0.12500000000E+03 0.  0.
         25    1    1    2    0    0  0.70854072954E+02 -0.22687507219E+03 -0.93354314318E+03  0.97140125499E+03  0.12500000000E+03 0.  0.
</event>
<event>
 5    0  0.5489207E-005  0.2517547E+03  0.7546771E-02  0.1112201E+00
         21   -1    0    0  502  501  0.00000000000E+00  0.00000000000E+00  0.66973071905E+02  0.66973071905E+02  0.00000000000E+00 0.  1.
         21   -1    0    0  501  502 -0.00000000000E+00 -0.00000000000E+00 -0.94635657888E+03  0.94635657888E+03  0.00000000000E+00 0.  1.
         25    1    1    2    0    0  0.32229678739E+00 -0.62559259787E+02 -0.77397731938E+02  0.15977851473E+03  0.12500000000E+03 0.  0.
         25    1    1    2    0    0  0.50796200763E+02  0.35571701706E+02 -0.53800631988E+03  0.55580698106E+03  0.12500000000E+03 0.  0.
         25    1    1    2    0    0 -0.51118497550E+02  0.26987558080E+02 -0.26397945516E+03  0.29774415499E+03  0.12500000000E+03 0.  0.
</event>
<event>
 5    0  0.5489207E-005  0.4008728E+03  0.7546771E-02  0.1043478E+00
         21   -1    0    0  502  501  0.00000000000E+00  0.00000000000E+00  0.12778792596E+04  0.12778792596E+04  0.00000000000E+00 0.  1.
         21   -1    0    0  501  502 -0.00000000000E+00 -0.00000000000E+00 -0.12575445976E+03  0.12575445976E+03  0.00000000000E+00 0.  1.
         25    1    1    2    0    0  0.18192070017E+03  0.14563752606E+03  0.89627063448E+03  0.93446855505E+03  0.12500000000E+03 0.  0.
         25    1    1    2    0    0 -0.90261291956E+01 -0.12638215431E+03  0.99032945777E+02  0.20368221397E+03  0.12500000000E+03 0.  0.
         25    1    1    2    0    0 -0.17289457097E+03 -0.19255371745E+02  0.15682121960E+03  0.26548295036E+03  0.12500000000E+03 0.  0.
</event>
<event>
 5    0  0.5489207E-005  0.4141088E+03  0.7546771E-02  0.1039001E+00
         21   -1    0    0  502  501  0.00000000000E+00  0.00000000000E+00  0.56794565761E+03  0.56794565761E+03  0.00000000000E+00 0. -1.
         21   -1    0    0  501  502 -0.00000000000E+00 -0.00000000000E+00 -0.30194101497E+03  0.30194101497E+03  0.00000000000E+00 0. -1.
         25    1    1    2    0    0  0.32566885549E+02  0.52941298399E+02  0.58577010849E+02  0.15139236873E+03  0.12500000000E+03 0.  0.
         25    1    1    2    0    0  0.23801179809E+03  0.12982044026E+03 -0.23532239668E+02  0.29946907861E+03  0.12500000000E+03 0.  0.
         25    1    1    2    0    0 -0.27057868364E+03 -0.18276173866E+03  0.23095987146E+03  0.41902522523E+03  0.12500000000E+03 0.  0.
</event>
<event>
 5    0  0.5489207E-005  0.3744386E+03  0.7546771E-02  0.1053009E+00
         21   -1    0    0  502  501  0.00000000000E+00  0.00000000000E+00  0.77511862312E+02  0.77511862312E+02  0.00000000000E+00 0. -1.
         21   -1    0    0  501  502 -0.00000000000E+00 -0.00000000000E+00 -0.18088105557E+04  0.18088105557E+04  0.00000000000E+00 0. -1.
         25    1    1    2    0    0 -0.89149816869E+02  0.22479960916E+03 -0.71419040733E+03  0.76431373928E+03  0.12500000000E+03 0.  0.
         25    1    1    2    0    0 -0.10683744127E+03 -0.11671904324E+03 -0.30949917464E+03  0.36939452218E+03  0.12500000000E+03 0.  0.
         25    1    1    2    0    0  0.19598725814E+03 -0.10808056592E+03 -0.70760911141E+03  0.75261415655E+03  0.12500000000E+03 0.  0.
</event>
<event>
 5    0  0.5489207E-005  0.2939432E+03  0.7546771E-02  0.1088308E+00
         21   -1    0    0  502  501  0.00000000000E+00  0.00000000000E+00  0.31523629800E+03  0.31523629800E+03  0.00000000000E+00 0.  1.
         21   -1    0    0  501  502 -0.00000000000E+00 -0.00000000000E+00 -0.27408830011E+03  0.27408830011E+03  0.00000000000E+00 0.  1.
         25    1    1    2    0    0  0.15687347910E+03  0.36309111534E+02  0.22542426575E+02  0.20508730098E+03  0.12500000000E+03 0.  0.
         25    1    1    2    0    0 -0.11030169509E+03 -0.33385375847E+02 -0.10708638747E+03  0.20093168402E+03  0.12500000000E+03 0.  0.
         25    1    1    2    0    0 -0.46571784013E+02 -0.29237356863E+01  0.12569195879E+03  0.18330561312E+03  0.12500000000E+03 0.  0.
</event>
<event>
 5    0  0.5489207E-005  0.2912435E+03  0.7546771E-02  0.1089702E+00
         21   -1    0    0  502  501  0.00000000000E+00  0.00000000000E+00  0.48468062391E+03  0.48468062391E+03  0.00000000000E+00 0.  1.
         21   -1    0    0  501  502 -0.00000000000E+00 -0.00000000000E+00 -0.17500752918E+03  0.17500752918E+03  0.00000000000E+00 0.  1.
         25    1    1    2    0    0 -0.17557066903E+03 -0.39661567424E+02  0.12773557964E+03  0.25365227785E+03  0.12500000000E+03 0.  0.
         25    1    1    2    0    0  0.10998953401E+02 -0.16985874763E+02  0.26736123196E+01  0.12665561622E+03  0.12500000000E+03 0.  0.
         25    1    1    2    0    0  0.16457171563E+03  0.56647442187E+02  0.17926390277E+03  0.27938025902E+03  0.12500000000E+03 0.  0.
</event>
<event>
 5    0  0.5489207E-005  0.2751701E+03  0.7546771E-02  0.1098357E+00
         21   -1    0    0  502  501  0.00000000000E+00  0.00000000000E+00  0.19793459563E+03  0.19793459563E+03  0.00000000000E+00 0.  1.
         21   -1    0    0  501  502 -0.00000000000E+00 -0.00000000000E+00 -0.38254346465E+03  0.38254346465E+03  0.00000000000E+00 0.  1.
         25    1    1    2    0    0  0.43704784748E+02 -0.13172392072E+03 -0.96921870104E+02  0.21042848762E+03  0.12500000000E+03 0.  0.
         25    1    1    2    0    0  0.25885343382E+02  0.26976722666E+02 -0.13375442014E+03  0.18685031302E+03  0.12500000000E+03 0.  0.
         25    1    1    2    0    0 -0.69590128130E+02  0.10474719805E+03  0.46067421232E+02  0.18319925964E+03  0.12500000000E+03 0.  0.
</event>
<event>
 5    0  0.5489207E-005  0.4329717E+03  0.7546771E-02  0.1032925E+00
         21   -1    0    0  502  501  0.00000000000E+00  0.00000000000E+00  0.11474355215E+03  0.11474355215E+03  0.00000000000E+00 0. -1.
         21   -1    0    0  501  502 -0.00000000000E+00 -0.00000000000E+00 -0.16337689556E+04  0.16337689556E+04  0.00000000000E+00 0. -1.
         25    1    1    2    0    0  0.17427293995E+03  0.32816465354E+03 -0.76693554326E+03  0.86132353093E+03  0.12500000000E+03 0.  0.
         25    1    1    2    0    0 -0.16942336207E+03 -0.21695052014E+03 -0.45741234801E+03  0.54829085340E+03  0.12500000000E+03 0.  0.
         25    1    1    2    0    0 -0.48495778749E+01 -0.11121413340E+03 -0.29467751218E+03  0.33889812342E+03  0.12500000000E+03 0.  0.
</event>
<event>
 5    0  0.5489207E-005  0.2652368E+03  0.7546771E-02  0.1104037E+00
         21   -1    0    0  502  501  0.00000000000E+00  0.00000000000E+00  0.28685663198E+03  0.28685663198E+03  0.00000000000E+00 0.  1.
         21   -1    0    0  501  502 -0.00000000000E+00 -0.00000000000E+00 -0.24524639069E+03  0.24524639069E+03  0.00000000000E+00 0.  1.
         25    1    1    2    0    0 -0.11621021677E+03  0.71699871208E+02  0.62111022323E+01  0.18522760000E+03  0.12500000000E+03 0.  0.
         25    1    1    2    0    0  0.29074062645E+02  0.17476049458E+02 -0.63781646270E+02  0.14437386129E+03  0.12500000000E+03 0.  0.
         25    1    1    2    0    0  0.87136154121E+02 -0.89175920667E+02  0.99180785330E+02  0.20250156138E+03  0.12500000000E+03 0.  0.
</event>
<event>
 5    0  0.5489207E-005  0.2808793E+03  0.7546771E-02  0.1095210E+00
         21   -1    0    0  502  501  0.00000000000E+00  0.00000000000E+00  0.21596094338E+03  0.21596094338E+03  0.00000000000E+00 0.  1.
         21   -1    0    0  501  502 -0.00000000000E+00 -0.00000000000E+00 -0.36531224838E+03  0.36531224838E+03  0.00000000000E+00 0.  1.
         25    1    1    2    0    0  0.82588561666E+02  0.70217797447E+02 -0.16279140464E+03  0.23211516758E+03  0.12500000000E+03 0.  0.
         25    1    1    2    0    0 -0.14001250064E+03  0.91250259131E+01 -0.12157278446E+02  0.18830710516E+03  0.12500000000E+03 0.  0.
         25    1    1    2    0    0  0.57423938972E+02 -0.79342823360E+02  0.25597378083E+02  0.16085091902E+03  0.12500000000E+03 0.  0.
</event>
<event>
 5    0  0.5489207E-005  0.4695470E+03  0.7546771E-02  0.1022048E+00
         21   -1    0    0  502  501  0.00000000000E+00  0.00000000000E+00  0.57411309694E+03  0.57411309694E+03  0.00000000000E+00 0.  1.
         21   -1    0    0  501  502 -0.00000000000E+00 -0.00000000000E+00 -0.38402605980E+03  0.38402605980E+03  0.00000000000E+00 0.  1.
         25    1    1    2    0    0  0.91147323797E+02 -0.18789040419E+03  0.88891374851E+02  0.25910869369E+03  0.12500000000E+03 0.  0.
         25    1    1    2    0    0 -0.32661018338E+02 -0.17376425620E+03 -0.12566995852E+03  0.25035713956E+03  0.12500000000E+03 0.  0.
         25    1    1    2    0    0 -0.58486305458E+02  0.36165466039E+03  0.22686562081E+03  0.44867332349E+03  0.12500000000E+03 0.  0.
</event>
<event>
 5    0  0.5489207E-005  0.2504429E+03  0.7546771E-02  0.1113025E+00
         21   -1    0    0  502  501  0.00000000000E+00  0.00000000000E+00  0.15650332831E+04  0.15650332831E+04  0.00000000000E+00 0.  1.
         21   -1    0    0  501  502 -0.00000000000E+00 -0.00000000000E+00 -0.40076889665E+02  0.40076889665E+02  0.00000000000E+00 0.  1.
         25    1    1    2    0    0  0.10104491334E+03  0.39481718985E+02  0.28507634999E+03  0.32963981248E+03  0.12500000000E+03 0.  0.
         25    1    1    2    0    0 -0.66961557640E+02  0.34463308764E+02  0.50823303382E+03  0.52876969137E+03  0.12500000000E+03 0.  0.
         25    1    1    2    0    0 -0.34083355696E+02 -0.73945027749E+02  0.73164700964E+03  0.74670066893E+03  0.12500000000E+03 0.  0.
</event>
<event>
 5    0  0.5489207E-005  0.3785960E+03  0.7546771E-02  0.1051454E+00
         21   -1    0    0  502  501  0.00000000000E+00  0.00000000000E+00  0.60646352268E+03  0.60646352268E+03  0.00000000000E+00 0. -1.
         21   -1    0    0  501  502 -0.00000000000E+00 -0.00000000000E+00 -0.23634550056E+03  0.23634550056E+03  0.00000000000E+00 0. -1.
         25    1    1    2    0    0 -0.48519054001E+02 -0.21119765234E+03  0.29065373422E+03  0.38348812259E+03  0.12500000000E+03 0.  0.
         25    1    1    2    0    0  0.10629030294E+02  0.67520725660E+02 -0.11606207445E+03  0.18375916250E+03  0.12500000000E+03 0.  0.
         25    1    1    2    0    0  0.37890023707E+02  0.14367692668E+03  0.19552636235E+03  0.27556173815E+03  0.12500000000E+03 0.  0.
</event>
<event>
 5    0  0.5489207E-005  0.2406457E+03  0.7546771E-02  0.1119363E+00
         21   -1    0    0  502  501  0.00000000000E+00  0.00000000000E+00  0.54956371732E+03  0.54956371732E+03  0.00000000000E+00 0. -1.
         21   -1    0    0  501  502 -0.00000000000E+00 -0.00000000000E+00 -0.10537514182E+03  0.10537514182E+03  0.00000000000E+00 0. -1.
         25    1    1    2    0    0 -0.17268902836E+02  0.58290346476E+02  0.11913767679E+03  0.18307038408E+03  0.12500000000E+03 0.  0.
         25    1    1    2    0    0 -0.44885345785E+02 -0.75970191791E+02  0.46706714697E+02  0.15997712807E+03  0.12500000000E+03 0.  0.
         25    1    1    2    0    0  0.62154248621E+02  0.17679845315E+02  0.27834418402E+03  0.31189134699E+03  0.12500000000E+03 0.  0.
</event>
<event>
 5    0  0.5489207E-005  0.4521657E+03  0.7546771E-02  0.1027078E+00
         21   -1    0    0  502  501  0.00000000000E+00  0.00000000000E+00  0.50762692515E+03  0.50762692515E+03  0.00000000000E+00 0.  1.
         21   -1    0    0  501  502 -0.00000000000E+00 -0.00000000000E+00 -0.40276394952E+03  0.40276394952E+03  0.00000000000E+00 0.  1.
         25    1    1    2    0    0 -0.16242602281E+03  0.12552527253E+03  0.12795700160E+03  0.27228073965E+03  0.12500000000E+03 0.  0.
         25    1    1    2    0    0 -0.31471004453E+02  0.20045707181E+03 -0.67849519421E+01  0.23842084081E+03  0.12500000000E+03 0.  0.
         25    1    1    2    0    0  0.19389702726E+03 -0.32598234434E+03 -0.16309074024E+02  0.39968929420E+03  0.12500000000E+03 0.  0.
</event>
<event>
 5    0  0.5489207E-005  0.3820026E+03  0.7546771E-02  0.1050196E+00
         21   -1    0    0  502  501  0.00000000000E+00  0.00000000000E+00  0.50113740409E+03  0.50113740409E+03  0.00000000000E+00 0. -1.
         21   -1    0    0  501  502 -0.00000000000E+00 -0.00000000000E+00 -0.29118950478E+03  0.29118950478E+03  0.00000000000E+00 0. -1.
         25    1    1    2    0    0 -0.30716575451E+02 -0.74837468225E+02  0.39296091546E+02  0.15399135517E+03  0.12500000000E+03 0.  0.
         25    1    1    2    0    0  0.14486821293E+03  0.88082817817E+02  0.33907423345E+03  0.39917629902E+03  0.12500000000E+03 0.  0.
         25    1    1    2    0    0 -0.11415163748E+03 -0.13245349592E+02 -0.16842242569E+03  0.23915925468E+03  0.12500000000E+03 0.  0.
</event>
<event>
 5    0  0.5489207E-005  0.3069984E+03  0.7546771E-02  0.1081794E+00
         21   -1    0    0  502  501  0.00000000000E+00  0.00000000000E+00  0.11037042505E+03  0.11037042505E+03  0.00000000000E+00 0. -1.
         21   -1    0    0  501  502 -0.00000000000E+00 -0.00000000000E+00 -0.85392474058E+03  0.85392474058E+03  0.00000000000E+00 0. -1.
         25    1    1    2    0    0  0.77483967863E+02  0.17936991618E+03 -0.19366017914E+03  0.30216981499E+03  0.12500000000E+03 0.  0.
         25    1    1    2    0    0 -0.34146819429E+02 -0.15506458050E+03 -0.18786903246E+03  0.27591810879E+03  0.12500000000E+03 0.  0.
         25    1    1    2    0    0 -0.43337148433E+02 -0.24305335675E+02 -0.36202510393E+03  0.38620724184E+03  0.12500000000E+03 0.  0.
</event>
<event>
 5    0  0.5489207E-005  0.3411922E+03  0.7546771E-02  0.1066289E+00
         21   -1    0    0  502  501  0.00000000000E+00  0.00000000000E+00  0.16296155537E+04  0.16296155537E+04  0.00000000000E+00 0. -1.
         21   -1    0    0  501  502 -0.00000000000E+00 -0.00000000000E+00 -0.71435340301E+02  0.71435340301E+02  0.00000000000E+00 0. -1.
         25    1    1    2    0    0  0.53422153399E+02  0.34039645101E+02  0.62990816729E+03  0.64530761900E+03  0.12500000000E+03 0.  0.
         25    1    1    2    0    0  0.69787335831E+02 -0.32231526367E+02  0.85169008653E+03  0.86423963518E+03  0.12500000000E+03 0.  0.
         25    1    1    2    0    0 -0.12320948923E+03 -0.18081187344E+01  0.76581959571E+02  0.19150363981E+03  0.12500000000E+03 0.  0.
</event>
<event>
 5    0  0.5489207E-005  0.3383233E+03  0.7546771E-02  0.1067512E+00
         21   -1    0    0  502  501  0.00000000000E+00  0.00000000000E+00  0.28261603177E+04  0.28261603177E+04  0.00000000000E+00 0.  1.
         21   -1    0    0  501  502 -0.00000000000E+00 -0.00000000000E+00 -0.40501121302E+02  0.40501121302E+02  0.00000000000E+00 0.  1.
         25    1    1    2    0    0 -0.51171852375E+02  0.17720720534E+03  0.86954839430E+03  0.89764155549E+03  0.12500000000E+03 0.  0.
         25    1    1    2    0    0  0.17708601842E+03 -0.13113610174E+03  0.13624304294E+04  0.13857841860E+04  0.12500000000E+03 0.  0.
         25    1    1    2    0    0 -0.12591416604E+03 -0.46071103599E+02  0.55368037265E+03  0.58323569751E+03  0.12500000000E+03 0.  0.
</event>
<event>
 5    0  0.5489207E-005  0.2414409E+03  0.7546771E-02  0.1118837E+00
         21   -1    0    0  502  501  0.00000000000E+00  0.00000000000E+00  0.69729051838E+02  0.69729051838E+02  0.00000000000E+00 0. -1.
         21   -1    0    0  501  502 -0.00000000000E+00 -0.00000000000E+00 -0.83600303610E+03  0.83600303610E+03  0.00000000000E+00 0. -1.
         25    1    1    2    0    0  0.12112781623E+03  0.31275168518E+02 -0.29547554826E+03  0.34435575159E+03  0.12500000000E+03 0.  0.
         25    1    1    2    0    0 -0.96473762765E+02 -0.16451437370E+02 -0.35371202455E+03  0.38770482716E+03  0.12500000000E+03 0.  0.
         25    1    1    2    0    0 -0.24654053465E+02 -0.14823731148E+02 -0.11708641145E+03  0.17367150919E+03  0.12500000000E+03 0.  0.
</event>
<event>
 5    0  0.5489207E-005  0.4836895E+03  0.7546771E-02  0.1018126E+00
         21   -1    0    0  502  501  0.00000000000E+00  0.00000000000E+00  0.32281942651E+03  0.32281942651E+03  0.00000000000E+00 0.  1.
         21   -1    0    0  501  502 -0.00000000000E+00 -0.00000000000E+00 -0.72472572836E+03  0.72472572836E+03  0.00000000000E+00 0.  1.
         25    1    1    2    0    0  0.22796070573E+03 -0.15420820104E+03  0.24544302311E+02  0.30327161984E+03  0.12500000000E+03 0.  0.
         25    1    1    2    0    0 -0.10832714327E+03  0.16349516822E+03 -0.50351733512E+03  0.55463514743E+03  0.12500000000E+03 0.  0.
         25    1    1    2    0    0 -0.11963356246E+03 -0.92869671745E+01  0.77066730966E+02  0.18963838759E+03  0.12500000000E+03 0.  0.
</event>
<event>
 5    0  0.5489207E-005  0.3818264E+03  0.7546771E-02  0.1050261E+00
         21   -1    0    0  502  501  0.00000000000E+00  0.00000000000E+00  0.10231409508E+04  0.10231409508E+04  0.00000000000E+00 0. -1.
         21   -1    0    0  501  502 -0.00000000000E+00 -0.00000000000E+00 -0.14249398721E+03  0.14249398721E+03  0.00000000000E+00 0. -1.
         25    1    1    2    0    0  0.13665270361E+03 -0.40976034752E+02  0.74500615665E+03  0.76877315918E+03  0.12500000000E+03 0.  0.
         25    1    1    2    0    0 -0.82141427416E+02 -0.93092419651E+02  0.99200152126E+02  0.20218576329E+03  0.12500000000E+03 0.  0.
         25    1    1    2    0    0 -0.54511276198E+02  0.13406845440E+03  0.36440654790E+02  0.19467601552E+03  0.12500000000E+03 0.  0.
</event>
<event>
 5    0  0.5489207E-005  0.4503941E+03  0.7546771E-02  0.1027605E+00
         21   -1    0    0  502  501  0.00000000000E+00  0.00000000000E+00  0.60824860837E+03  0.60824860837E+03  0.00000000000E+00 0. -1.
         21   -1    0    0  501  502 -0.00000000000E+00 -0.00000000000E+00 -0.33350640362E+03  0.33350640362E+03  0.00000000000E+00 0. -1.
         25    1    1    2    0    0  0.20341320744E+03 -0.24578916703E+02  0.23879224817E+03  0.33856726642E+03  0.12500000000E+03 0.  0.
         25    1    1    2    0    0  0.52523044670E+02  0.14233143112E+03  0.17673688351E+03  0.26434415541E+03  0.12500000000E+03 0.  0.
         25    1    1    2    0    0 -0.25593625211E+03 -0.11775251441E+03 -0.14078692693E+03  0.33884359016E+03  0.12500000000E+03 0.  0.
</event>
<event>
 5    0  0.5489207E-005  0.2594789E+03  0.7546771E-02  0.1107457E+00
         21   -1    0    0  502  501  0.00000000000E+00  0.00000000000E+00  0.14358203488E+04  0.14358203488E+04  0.00000000000E+00 0.  1.
         21   -1    0    0  501  502 -0.00000000000E+00 -0.00000000000E+00 -0.46892573884E+02  0.46892573884E+02  0.00000000000E+00 0.  1.
         25    1    1    2    0    0 -0.12222647672E+02 -0.66599682694E+01  0.15866560146E+03  0.20246856887E+03  0.12500000000E+03 0.  0.
         25    1    1    2    0    0 -0.22421122660E+02 -0.26975497464E+02  0.10368531080E+04  0.10449496408E+04  0.12500000000E+03 0.  0.
         25    1    1    2    0    0  0.34643770331E+02  0.33635465734E+02  0.19340906543E+03  0.23529471301E+03  0.12500000000E+03 0.  0.
</event>
<event>
 5    0  0.5489207E-005  0.3303589E+03  0.7546771E-02  0.1070978E+00
         21   -1    0    0  502  501  0.00000000000E+00  0.00000000000E+00  0.12178346158E+03  0.12178346158E+03  0.00000000000E+00 0. -1.
         21   -1    0    0  501  502 -0.00000000000E+00 -0.00000000000E+00 -0.89615594424E+03  0.89615594424E+03  0.00000000000E+00 0. -1.
         25    1    1    2    0    0  0.73868699374E+02  0.11387806266E+03 -0.92658407020E+02  0.20648336081E+03  0.12500000000E+03 0.  0.
         25    1    1    2    0    0 -0.12643084943E+03 -0.10419144978E+03 -0.13094293086E+03  0.24415501027E+03  0.12500000000E+03 0.  0.
         25    1    1    2    0    0  0.52562150061E+02 -0.96866128799E+01 -0.55077114478E+03  0.56730103474E+03  0.12500000000E+03 0.  0.
</event>
<event>
 5    0  0.5489207E-005  0.3245347E+03  0.7546771E-02  0.1073581E+00
         21   -1    0    0  502  501  0.00000000000E+00  0.00000000000E+00  0.66883952191E+03  0.66883952191E+03  0.00000000000E+00 0. -1.
         21   -1    0    0  501  502 -0.00000000000E+00 -0.00000000000E+00 -0.15747095143E+03  0.15747095143E+03  0.00000000000E+00 0. -1.
         25    1    1    2    0    0 -0.16354899669E+02  0.65426707970E+02  0.12664772899E+03  0.19029656885E+03  0.12500000000E+03 0.  0.
         25    1    1    2    0    0 -0.16502616686E+03 -0.16258529479E+03  0.16951835691E+03  0.31309597117E+03  0.12500000000E+03 0.  0.
         25    1    1    2    0    0  0.18138106653E+03  0.97158586824E+02  0.21520248458E+03  0.32291793332E+03  0.12500000000E+03 0.  0.
</event>
<event>
 5    0  0.5489207E-005  0.5179483E+03  0.7546771E-02  0.1009197E+00
         21   -1    0    0  502  501  0.00000000000E+00  0.00000000000E+00  0.19942186341E+03  0.19942186341E+03  0.00000000000E+00 0. -1.
         21   -1    0    0  501  502 -0.00000000000E+00 -0.00000000000E+00 -0.13452406458E+04  0.13452406458E+04  0.00000000000E+00 0. -1.
         25    1    1    2    0    0 -0.11678276795E+02 -0.19913057260E+02 -0.23536975273E+03  0.26750108878E+03  0.12500000000E+03 0.  0.
         25    1    1    2    0    0  0.14707962464E+03  0.31281493741E+03 -0.78150800525E+02  0.37579003270E+03  0.12500000000E+03 0.  0.
         25    1    1    2    0    0 -0.13540134784E+03 -0.29290188015E+03 -0.83229822911E+03  0.90137138770E+03  0.12500000000E+03 0.  0.
</event>
<event>
 5    0  0.5489207E-005  0.3793312E+03  0.7546771E-02  0.1051181E+00
         21   -1    0    0  502  501  0.00000000000E+00  0.00000000000E+00  0.18813497756E+03  0.18813497756E+03  0.00000000000E+00 0.  1.
         21   -1    0    0  501  502 -0.00000000000E+00 -0.00000000000E+00 -0.76483451358E+03  0.76483451358E+03  0.00000000000E+00 0.  1.
         25    1    1    2    0    0  0.26574198876E+02  0.79184292107E+01 -0.42016761356E+03  0.43924334150E+03  0.12500000000E+03 0.  0.
         25    1    1    2    0    0 -0.47363291471E+02  0.95256726782E+02  0.11247340348E+03  0.19897837035E+03  0.12500000000E+03 0.  0.
         25    1    1    2    0    0  0.20789092595E+02 -0.10317515599E+03 -0.26900532594E+03  0.31474777929E+03  0.12500000000E+03 0.  0.
</event>
<event>
 5    0  0.5489207E-005  0.2310103E+03  0.7546771E-02  0.1125931E+00
         21   -1    0    0  502  501  0.00000000000E+00  0.00000000000E+00  0.29533316000E+03  0.29533316000E+03  0.00000000000E+00 0. -1.
         21   -1    0    0  501  502 -0.00000000000E+00 -0.00000000000E+00 -0.18069681964E+03  0.18069681964E+03  0.00000000000E+00 0. -1.
         25    1    1    2    0    0  0.87628164549E+02 -0.16176855051E+02 -0.45180402410E+02  0.16002079435E+03  0.12500000000E+03 0.  0.
         25    1    1    2    0    0 -0.14072591973E+02  0.15227006632E+02  0.61962607876E+02  0.14104702886E+03  0.12500000000E+03 0.  0.
         25    1    1    2    0    0 -0.73555572576E+02  0.94984841892E+00  0.97854134885E+02  0.17496215643E+03  0.12500000000E+03 0.  0.
</event>
<event>
 5    0  0.5489207E-005  0.2793837E+03  0.7546771E-02  0.1096026E+00
         21   -1    0    0  502  501  0.00000000000E+00  0.00000000000E+00  0.16582595927E+04  0.16582595927E+04  0.00000000000E+00 0. -1.
         21   -1    0    0  501  502 -0.00000000000E+00 -0.00000000000E+00 -0.47070587002E+02  0.47070587002E+02  0.00000000000E+00 0. -1.
         25    1    1    2    0    0  0.22366642602E+02 -0.10021360088E+03  0.83714768407E+03  0.85263372995E+03  0.12500000000E+03 0.  0.
         25    1    1    2    0    0 -0.74221545118E+02 -0.50000526963E+02  0.37701999669E+03  0.40715840696E+03  0.12500000000E+03 0.  0.
         25    1    1    2    0    0  0.51854902517E+02  0.15021412784E+03  0.39702132495E+03  0.44553804280E+03  0.12500000000E+03 0.  0.
</event>
<event>
 5    0  0.5489207E-005  0.3885794E+03  0.7546771E-02  0.1047808E+00
         21   -1    0    0  502  501  0.00000000000E+00  0.00000000000E+00  0.20591827978E+03  0.20591827978E+03  0.00000000000E+00 0.  1.
         21   -1    0    0  501  502 -0.00000000000E+00 -0.00000000000E+00 -0.73327135232E+03  0.73327135232E+03  0.00000000000E+00 0.  1.
         25    1    1    2    0    0 -0.12049090939E+03 -0.38308572128E+02 -0.43801413855E+03  0.47272295429E+03  0.12500000000E+03 0.  0.
         25    1    1    2    0    0  0.48003712358E+02  0.15667432197E+03  0.73351049783E+02  0.21876145928E+03  0.12500000000E+03 0.  0.
         25    1    1    2    0    0  0.72487197031E+02 -0.11836574984E+03 -0.16268998378E+03  0.24770521854E+03  0.12500000000E+03 0.  0.
</event>
<event>
 5    0  0.5489207E-005  0.5365554E+03  0.7546771E-02  0.1004655E+00
         21   -1    0    0  502  501  0.00000000000E+00  0.00000000000E+00  0.34859991659E+03  0.34859991659E+03  0.00000000000E+00 0.  1.
         21   -1    0    0  501  502 -0.00000000000E+00 -0.00000000000E+00 -0.82585138962E+03  0.82585138962E+03  0.00000000000E+00 0.  1.
         25    1    1    2    0    0 -0.33893761302E+03  0.28658285730E+03 -0.18708514732E+03  0.49762866875E+03  0.12500000000E+03 0.  0.
         25    1    1    2    0    0  0.30335758444E+03 -0.46558522815E+02 -0.10750512700E+03  0.34839040230E+03  0.12500000000E+03 0.  0.
         25    1    1    2    0    0  0.35580028584E+02 -0.24002433448E+03 -0.18266119870E+03  0.32843223515E+03  0.12500000000E+03 0.  0.
</event>
<event>
 5    0  0.5489207E-005  0.2309802E+03  0.7546771E-02  0.1125952E+00
         21   -1    0    0  502  501  0.00000000000E+00  0.00000000000E+00  0.15559305440E+03  0.15559305440E+03  0.00000000000E+00 0.  1.
         21   -1    0    0  501  502 -0.00000000000E+00 -0.00000000000E+00 -0.34289350794E+03  0.34289350794E+03  0.00000000000E+00 0.  1.
         25    1    1    2    0    0  0.10754344250E+03 -0.29340649766E+02 -0.91406810900E+02  0.19080532181E+03  0.12500000000E+03 0.  0.
         25    1    1    2    0    0 -0.73644003347E+02  0.61204067706E+02 -0.36278899382E+02  0.16158754801E+03  0.12500000000E+03 0.  0.
         25    1    1    2    0    0 -0.33899439155E+02 -0.31863417940E+02 -0.59614743258E+02  0.14609369251E+03  0.12500000000E+03 0.  0.
</event>
