<event>
 5    0  0.5597833E-005  0.2274487E+03  0.7546771E-02  0.1128448E+00
         21   -1    0    0  502  501  0.00000000000E+00  0.00000000000E+00  0.12434899659E+04  0.12434899659E+04  0.00000000000E+00 0.  1.
         21   -1    0    0  501  502 -0.00000000000E+00 -0.00000000000E+00 -0.41603001676E+02  0.41603001676E+02  0.00000000000E+00 0.  1.
         25    1    1    2    0    0  0.20954320317E+01  0.92350585050E+02  0.45982306400E+03  0.48538157318E+03  0.12500000000E+03 0.  0.
         25    1    1    2    0    0  0.23082984024E+01  0.43221218145E+01  0.45629604859E+03  0.47313327186E+03  0.12500000000E+03 0.  0.
         25    1    1    2    0    0 -0.44037304341E+01 -0.96672706865E+02  0.28576785162E+03  0.32657812253E+03  0.12500000000E+03 0.  0.
</event>
<event>
 5    0  0.5597833E-005  0.3389687E+03  0.7546771E-02  0.1067236E+00
         21   -1    0    0  502  501  0.00000000000E+00  0.00000000000E+00  0.83431495537E+03  0.83431495537E+03  0.00000000000E+00 0. -1.
         21   -1    0    0  501  502 -0.00000000000E+00 -0.00000000000E+00 -0.13771750572E+03  0.13771750572E+03  0.00000000000E+00 0. -1.
         25    1    1    2    0    0  0.12446798793E+02  0.21339391189E+02 -0.52827885507E+02  0.13793504958E+03  0.12500000000E+03 0.  0.
         25    1    1    2    0    0 -0.11178597272E+03 -0.80979190287E+02  0.29611859555E+03  0.34980702621E+03  0.12500000000E+03 0.  0.
         25    1    1    2    0    0  0.99339173925E+02  0.59639799098E+02  0.45330673961E+03  0.48429038529E+03  0.12500000000E+03 0.  0.
</event>
<event>
 5    0  0.5597833E-005  0.6204559E+03  0.7546771E-02  0.9863852E-01
         21   -1    0    0  502  501  0.00000000000E+00  0.00000000000E+00  0.53943469422E+03  0.53943469422E+03  0.00000000000E+00 0. -1.
         21   -1    0    0  501  502 -0.00000000000E+00 -0.00000000000E+00 -0.71364625320E+03  0.71364625320E+03  0.00000000000E+00 0. -1.
         25    1    1    2    0    0 -0.88445104793E+02 -0.20182599465E+03 -0.31876762152E+02  0.25533780888E+03  0.12500000000E+03 0.  0.
         25    1    1    2    0    0  0.21725709697E+03  0.94161097792E+02 -0.50923650901E+03  0.57533797079E+03  0.12500000000E+03 0.  0.
         25    1    1    2    0    0 -0.12881199217E+03  0.10766489686E+03  0.36690171218E+03  0.42240516775E+03  0.12500000000E+03 0.  0.
</event>
<event>
 5    0  0.5597833E-005  0.3153257E+03  0.7546771E-02  0.1077821E+00
         21   -1    0    0  502  501  0.00000000000E+00  0.00000000000E+00  0.19274657394E+03  0.19274657394E+03  0.00000000000E+00 0.  1.
         21   -1    0    0  501  502 -0.00000000000E+00 -0.00000000000E+00 -0.51586020853E+03  0.51586020853E+03  0.00000000000E+00 0.  1.
         25    1    1    2    0    0  0.26690973303E+02 -0.13351398396E+03 -0.22990801438E+03  0.29499336780E+03  0.12500000000E+03 0.  0.
         25    1    1    2    0    0 -0.20757117042E+01 -0.67830529822E+02  0.30023357421E+02  0.14536743564E+03  0.12500000000E+03 0.  0.
         25    1    1    2    0    0 -0.24615261599E+02  0.20134451378E+03 -0.12322897763E+03  0.26824597902E+03  0.12500000000E+03 0.  0.
</event>
<event>
 5    0  0.5597833E-005  0.2692160E+03  0.7546771E-02  0.1101729E+00
         21   -1    0    0  502  501  0.00000000000E+00  0.00000000000E+00  0.18108651599E+04  0.18108651599E+04  0.00000000000E+00 0. -1.
         21   -1    0    0  501  502 -0.00000000000E+00 -0.00000000000E+00 -0.40023553260E+02  0.40023553260E+02  0.00000000000E+00 0. -1.
         25    1    1    2    0    0  0.11452124129E+03 -0.17053443140E+02  0.34774251534E+03  0.38724125762E+03  0.12500000000E+03 0.  0.
         25    1    1    2    0    0  0.20829739614E+02 -0.12274626807E+02  0.31170639871E+03  0.33670524723E+03  0.12500000000E+03 0.  0.
         25    1    1    2    0    0 -0.13535098091E+03  0.29328069947E+02  0.11113926925E+04  0.11269422083E+04  0.12500000000E+03 0.  0.
</event>
<event>
 5    0  0.5597833E-005  0.5842023E+03  0.7546771E-02  0.9938734E-01
         21   -1    0    0  502  501  0.00000000000E+00  0.00000000000E+00  0.13567649787E+03  0.13567649787E+03  0.00000000000E+00 0. -1.
         21   -1    0    0  501  502 -0.00000000000E+00 -0.00000000000E+00 -0.25154856369E+04  0.25154856369E+04  0.00000000000E+00 0. -1.
         25    1    1    2    0    0 -0.25524059477E+03 -0.57877550019E+02 -0.16560350356E+04  0.16812419847E+04  0.12500000000E+03 0.  0.
         25    1    1    2    0    0  0.27130891253E+03  0.24901882374E+03 -0.31123310755E+03  0.49810636197E+03  0.12500000000E+03 0.  0.
         25    1    1    2    0    0 -0.16068317763E+02 -0.19114127373E+03 -0.41254099589E+03  0.47181378811E+03  0.12500000000E+03 0.  0.
</event>
<event>
 5    0  0.5597833E-005  0.3378167E+03  0.7546771E-02  0.1067730E+00
         21   -1    0    0  502  501  0.00000000000E+00  0.00000000000E+00  0.16497884616E+03  0.16497884616E+03  0.00000000000E+00 0. -1.
         21   -1    0    0  501  502 -0.00000000000E+00 -0.00000000000E+00 -0.69172588126E+03  0.69172588126E+03  0.00000000000E+00 0. -1.
         25    1    1    2    0    0 -0.10293803852E+03  0.90450236891E+02 -0.44087792943E+03  0.47830516805E+03  0.12500000000E+03 0.  0.
         25    1    1    2    0    0  0.33549224807E+02  0.74641679224E+02 -0.46608286371E+02  0.15650643156E+03  0.12500000000E+03 0.  0.
         25    1    1    2    0    0  0.69388813712E+02 -0.16509191612E+03 -0.39260819297E+02  0.22189312780E+03  0.12500000000E+03 0.  0.
</event>
<event>
 5    0  0.5597833E-005  0.2545800E+03  0.7546771E-02  0.1110444E+00
         21   -1    0    0  502  501  0.00000000000E+00  0.00000000000E+00  0.14909334141E+04  0.14909334141E+04  0.00000000000E+00 0.  1.
         21   -1    0    0  501  502 -0.00000000000E+00 -0.00000000000E+00 -0.43470067728E+02  0.43470067728E+02  0.00000000000E+00 0.  1.
         25    1    1    2    0    0  0.46187535510E+02 -0.14413058603E+02  0.31263388115E+03  0.34015580009E+03  0.12500000000E+03 0.  0.
         25    1    1    2    0    0  0.11200958325E+03  0.26229819493E+02  0.53593871377E+03  0.56221833400E+03  0.12500000000E+03 0.  0.
         25    1    1    2    0    0 -0.15819711876E+03 -0.11816760890E+02  0.59889075151E+03  0.63202934779E+03  0.12500000000E+03 0.  0.
</event>
<event>
 5    0  0.5597833E-005  0.3443943E+03  0.7546771E-02  0.1064940E+00
         21   -1    0    0  502  501  0.00000000000E+00  0.00000000000E+00  0.15404051839E+03  0.15404051839E+03  0.00000000000E+00 0. -1.
         21   -1    0    0  501  502 -0.00000000000E+00 -0.00000000000E+00 -0.76997553622E+03  0.76997553622E+03  0.00000000000E+00 0. -1.
         25    1    1    2    0    0  0.22036383970E+03 -0.10042655290E+03 -0.40969570868E+03  0.49205821615E+03  0.12500000000E+03 0.  0.
         25    1    1    2    0    0 -0.64754945683E+02  0.57657759937E+02 -0.16071100963E+02  0.15297352894E+03  0.12500000000E+03 0.  0.
         25    1    1    2    0    0 -0.15560889402E+03  0.42768792962E+02 -0.19016820818E+03  0.27898430951E+03  0.12500000000E+03 0.  0.
</event>
<event>
 5    0  0.5597833E-005  0.3436651E+03  0.7546771E-02  0.1065246E+00
         21   -1    0    0  502  501  0.00000000000E+00  0.00000000000E+00  0.70451883931E+03  0.70451883931E+03  0.00000000000E+00 0.  1.
         21   -1    0    0  501  502 -0.00000000000E+00 -0.00000000000E+00 -0.16764023058E+03  0.16764023058E+03  0.00000000000E+00 0.  1.
         25    1    1    2    0    0  0.20716266516E+02 -0.49774893388E+02  0.16435669251E+03  0.21341233817E+03  0.12500000000E+03 0.  0.
         25    1    1    2    0    0 -0.16679795032E+03  0.24377231103E+02 -0.29952306879E+02  0.21198572196E+03  0.12500000000E+03 0.  0.
         25    1    1    2    0    0  0.14608168380E+03  0.25397662285E+02  0.40247422309E+03  0.44676100976E+03  0.12500000000E+03 0.  0.
</event>
<event>
 5    0  0.5597833E-005  0.4051602E+03  0.7546771E-02  0.1042007E+00
         21   -1    0    0  502  501  0.00000000000E+00  0.00000000000E+00  0.40123943490E+03  0.40123943490E+03  0.00000000000E+00 0. -1.
         21   -1    0    0  501  502 -0.00000000000E+00 -0.00000000000E+00 -0.40911926757E+03  0.40911926757E+03  0.00000000000E+00 0. -1.
         25    1    1    2    0    0  0.20655850838E+03 -0.12369683598E+03 -0.10654322418E+03  0.29145116784E+03  0.12500000000E+03 0.  0.
         25    1    1    2    0    0 -0.16923106817E+03 -0.11226470980E+03  0.27482438210E+02  0.24004750344E+03  0.12500000000E+03 0.  0.
         25    1    1    2    0    0 -0.37327440217E+02  0.23596154578E+03  0.71180953301E+02  0.27886003119E+03  0.12500000000E+03 0.  0.
</event>
<event>
 5    0  0.5597833E-005  0.2969860E+03  0.7546771E-02  0.1086757E+00
         21   -1    0    0  502  501  0.00000000000E+00  0.00000000000E+00  0.40332573423E+03  0.40332573423E+03  0.00000000000E+00 0.  1.
         21   -1    0    0  501  502 -0.00000000000E+00 -0.00000000000E+00 -0.21868354010E+03  0.21868354010E+03  0.00000000000E+00 0.  1.
         25    1    1    2    0    0 -0.15668736564E+03  0.14277977474E+03  0.59964621480E+02  0.25329380264E+03  0.12500000000E+03 0.  0.
         25    1    1    2    0    0  0.13650114472E+02 -0.50425261444E+02  0.56212676537E+02  0.14667616582E+03  0.12500000000E+03 0.  0.
         25    1    1    2    0    0  0.14303725117E+03 -0.92354513299E+02  0.68464896109E+02  0.22203930586E+03  0.12500000000E+03 0.  0.
</event>
<event>
 5    0  0.5597833E-005  0.2485743E+03  0.7546771E-02  0.1114209E+00
         21   -1    0    0  502  501  0.00000000000E+00  0.00000000000E+00  0.64513040289E+03  0.64513040289E+03  0.00000000000E+00 0.  1.
         21   -1    0    0  501  502 -0.00000000000E+00 -0.00000000000E+00 -0.95777846698E+02  0.95777846698E+02  0.00000000000E+00 0.  1.
         25    1    1    2    0    0  0.66660646905E+02  0.13474274910E+03  0.15759496530E+03  0.25111834534E+03  0.12500000000E+03 0.  0.
         25    1    1    2    0    0 -0.31920396785E+02 -0.57754920687E+02  0.21634604068E+03  0.25842823358E+03  0.12500000000E+03 0.  0.
         25    1    1    2    0    0 -0.34740250120E+02 -0.76987828416E+02  0.17541155022E+03  0.23136167066E+03  0.12500000000E+03 0.  0.
</event>
<event>
 5    0  0.5597833E-005  0.3069941E+03  0.7546771E-02  0.1081796E+00
         21   -1    0    0  502  501  0.00000000000E+00  0.00000000000E+00  0.70508600382E+03  0.70508600382E+03  0.00000000000E+00 0. -1.
         21   -1    0    0  501  502 -0.00000000000E+00 -0.00000000000E+00 -0.13366504901E+03  0.13366504901E+03  0.00000000000E+00 0. -1.
         25    1    1    2    0    0  0.28739190871E+02  0.11976517070E+03  0.29378437646E+03  0.34220446674E+03  0.12500000000E+03 0.  0.
         25    1    1    2    0    0  0.45906774409E+02 -0.17409329292E+03  0.56637950966E+02  0.22638189871E+03  0.12500000000E+03 0.  0.
         25    1    1    2    0    0 -0.74645965280E+02  0.54328122217E+02  0.22099862738E+03  0.27016468737E+03  0.12500000000E+03 0.  0.
</event>
<event>
 5    0  0.5597833E-005  0.3842324E+03  0.7546771E-02  0.1049380E+00
         21   -1    0    0  502  501  0.00000000000E+00  0.00000000000E+00  0.27753172387E+03  0.27753172387E+03  0.00000000000E+00 0.  1.
         21   -1    0    0  501  502 -0.00000000000E+00 -0.00000000000E+00 -0.53195540333E+03  0.53195540333E+03  0.00000000000E+00 0.  1.
         25    1    1    2    0    0  0.12582529208E+03 -0.89048789141E+02  0.51260477136E+02  0.20497396784E+03  0.12500000000E+03 0.  0.
         25    1    1    2    0    0 -0.28810246985E+02 -0.31288992530E+02  0.91305362340E+02  0.16053255301E+03  0.12500000000E+03 0.  0.
         25    1    1    2    0    0 -0.97015045097E+02  0.12033778167E+03 -0.39698951894E+03  0.44398060635E+03  0.12500000000E+03 0.  0.
</event>
<event>
 5    0  0.5597833E-005  0.2671658E+03  0.7546771E-02  0.1102913E+00
         21   -1    0    0  502  501  0.00000000000E+00  0.00000000000E+00  0.11794282491E+04  0.11794282491E+04  0.00000000000E+00 0. -1.
         21   -1    0    0  501  502 -0.00000000000E+00 -0.00000000000E+00 -0.60518766269E+02  0.60518766269E+02  0.00000000000E+00 0. -1.
         25    1    1    2    0    0 -0.13020351892E+03  0.30163058735E+02  0.34696872406E+03  0.39226911926E+03  0.12500000000E+03 0.  0.
         25    1    1    2    0    0  0.98074197276E+02  0.23854123238E+01  0.64306483715E+03  0.66240593532E+03  0.12500000000E+03 0.  0.
         25    1    1    2    0    0  0.32129321643E+02 -0.32548471059E+02  0.12887592159E+03  0.18527196076E+03  0.12500000000E+03 0.  0.
</event>
<event>
 5    0  0.5597833E-005  0.2896324E+03  0.7546771E-02  0.1090541E+00
         21   -1    0    0  502  501  0.00000000000E+00  0.00000000000E+00  0.56490434589E+03  0.56490434589E+03  0.00000000000E+00 0.  1.
         21   -1    0    0  501  502 -0.00000000000E+00 -0.00000000000E+00 -0.14849755419E+03  0.14849755419E+03  0.00000000000E+00 0.  1.
         25    1    1    2    0    0 -0.14685305173E+03  0.94465449010E+02  0.90683351208E+02  0.23310514804E+03  0.12500000000E+03 0.  0.
         25    1    1    2    0    0  0.56212087349E+02 -0.19339874977E+02  0.35196857936E+02  0.14282033587E+03  0.12500000000E+03 0.  0.
         25    1    1    2    0    0  0.90640964378E+02 -0.75125574033E+02  0.29052658256E+03  0.33747641617E+03  0.12500000000E+03 0.  0.
</event>
<event>
 5    0  0.5597833E-005  0.2452144E+03  0.7546771E-02  0.1116367E+00
         21   -1    0    0  502  501  0.00000000000E+00  0.00000000000E+00  0.33500086376E+03  0.33500086376E+03  0.00000000000E+00 0. -1.
         21   -1    0    0  501  502 -0.00000000000E+00 -0.00000000000E+00 -0.17949236691E+03  0.17949236691E+03  0.00000000000E+00 0. -1.
         25    1    1    2    0    0 -0.25066055555E+02 -0.35375179201E+01  0.95581301125E+02  0.15937881383E+03  0.12500000000E+03 0.  0.
         25    1    1    2    0    0 -0.58073746250E+01  0.17729195827E+01 -0.92466795858E+02  0.15560198321E+03  0.12500000000E+03 0.  0.
         25    1    1    2    0    0  0.30873430180E+02  0.17645983374E+01  0.15239399159E+03  0.19951243362E+03  0.12500000000E+03 0.  0.
</event>
<event>
 5    0  0.5597833E-005  0.3222805E+03  0.7546771E-02  0.1074605E+00
         21   -1    0    0  502  501  0.00000000000E+00  0.00000000000E+00  0.15999053848E+03  0.15999053848E+03  0.00000000000E+00 0.  1.
         21   -1    0    0  501  502 -0.00000000000E+00 -0.00000000000E+00 -0.64919280010E+03  0.64919280010E+03  0.00000000000E+00 0.  1.
         25    1    1    2    0    0  0.13432393008E+03  0.32815743407E+02  0.22514283412E+02  0.18775431863E+03  0.12500000000E+03 0.  0.
         25    1    1    2    0    0  0.12938450510E+02 -0.23634906041E+02 -0.86714589632E+02  0.15450059010E+03  0.12500000000E+03 0.  0.
         25    1    1    2    0    0 -0.14726238059E+03 -0.91808373664E+01 -0.42500195540E+03  0.46692842985E+03  0.12500000000E+03 0.  0.
</event>
<event>
 5    0  0.5597833E-005  0.3110168E+03  0.7546771E-02  0.1079860E+00
         21   -1    0    0  502  501  0.00000000000E+00  0.00000000000E+00  0.32740789091E+03  0.32740789091E+03  0.00000000000E+00 0. -1.
         21   -1    0    0  501  502 -0.00000000000E+00 -0.00000000000E+00 -0.29544621931E+03  0.29544621931E+03  0.00000000000E+00 0. -1.
         25    1    1    2    0    0 -0.46840813420E+02  0.10622804871E+03  0.12855282034E+03  0.21361013026E+03  0.12500000000E+03 0.  0.
         25    1    1    2    0    0  0.10097190965E+03  0.68225832048E+02 -0.23462933029E+02  0.17614085251E+03  0.12500000000E+03 0.  0.
         25    1    1    2    0    0 -0.54131096233E+02 -0.17445388076E+03 -0.73128215715E+02  0.23310312745E+03  0.12500000000E+03 0.  0.
</event>
<event>
 5    0  0.5597833E-005  0.2376901E+03  0.7546771E-02  0.1121341E+00
         21   -1    0    0  502  501  0.00000000000E+00  0.00000000000E+00  0.73304820676E+02  0.73304820676E+02  0.00000000000E+00 0.  1.
         21   -1    0    0  501  502 -0.00000000000E+00 -0.00000000000E+00 -0.77070732717E+03  0.77070732717E+03  0.00000000000E+00 0.  1.
         25    1    1    2    0    0 -0.46614476183E+02 -0.38986595126E+02 -0.23260231452E+03  0.27096439011E+03  0.12500000000E+03 0.  0.
         25    1    1    2    0    0  0.12462619690E+03  0.46379549607E+02 -0.30600398004E+03  0.35629508469E+03  0.12500000000E+03 0.  0.
         25    1    1    2    0    0 -0.78011720720E+02 -0.73929544805E+01 -0.15879621194E+03  0.21675267304E+03  0.12500000000E+03 0.  0.
</event>
<event>
 5    0  0.5597833E-005  0.4111296E+03  0.7546771E-02  0.1039993E+00
         21   -1    0    0  502  501  0.00000000000E+00  0.00000000000E+00  0.20257981928E+03  0.20257981928E+03  0.00000000000E+00 0.  1.
         21   -1    0    0  501  502 -0.00000000000E+00 -0.00000000000E+00 -0.83437518628E+03  0.83437518628E+03  0.00000000000E+00 0.  1.
         25    1    1    2    0    0 -0.49654397902E+02 -0.99054503040E+01  0.63427761285E+02  0.14903609656E+03  0.12500000000E+03 0.  0.
         25    1    1    2    0    0  0.23581000017E+03  0.12337604124E+03 -0.30395154771E+03  0.42289425047E+03  0.12500000000E+03 0.  0.
         25    1    1    2    0    0 -0.18615560227E+03 -0.11347059094E+03 -0.39127158058E+03  0.46502465852E+03  0.12500000000E+03 0.  0.
</event>
<event>
 5    0  0.5597833E-005  0.3920297E+03  0.7546771E-02  0.1046575E+00
         21   -1    0    0  502  501  0.00000000000E+00  0.00000000000E+00  0.84189657045E+03  0.84189657045E+03  0.00000000000E+00 0.  1.
         21   -1    0    0  501  502 -0.00000000000E+00 -0.00000000000E+00 -0.18254891929E+03  0.18254891929E+03  0.00000000000E+00 0.  1.
         25    1    1    2    0    0  0.97995481843E+02  0.20891523596E+03  0.11963329777E+03  0.28841951427E+03  0.12500000000E+03 0.  0.
         25    1    1    2    0    0 -0.14691178495E+03 -0.20297302667E+02  0.44585699060E+03  0.48621858163E+03  0.12500000000E+03 0.  0.
         25    1    1    2    0    0  0.48916303102E+02 -0.18861793329E+03  0.93857362782E+02  0.24980739384E+03  0.12500000000E+03 0.  0.
</event>
<event>
 5    0  0.5597833E-005  0.3313251E+03  0.7546771E-02  0.1070552E+00
         21   -1    0    0  502  501  0.00000000000E+00  0.00000000000E+00  0.88918365921E+03  0.88918365921E+03  0.00000000000E+00 0. -1.
         21   -1    0    0  501  502 -0.00000000000E+00 -0.00000000000E+00 -0.12345744810E+03  0.12345744810E+03  0.00000000000E+00 0. -1.
         25    1    1    2    0    0 -0.16436222724E+03  0.11254544964E+03  0.32989972277E+03  0.40514225534E+03  0.12500000000E+03 0.  0.
         25    1    1    2    0    0  0.36112917569E+02  0.10322990411E+02  0.11757457302E+02  0.13104939812E+03  0.12500000000E+03 0.  0.
         25    1    1    2    0    0  0.12824930967E+03 -0.12286844005E+03  0.42406903104E+03  0.47644945385E+03  0.12500000000E+03 0.  0.
</event>
<event>
 5    0  0.5597833E-005  0.5453172E+03  0.7546771E-02  0.1002584E+00
         21   -1    0    0  502  501  0.00000000000E+00  0.00000000000E+00  0.40576853560E+03  0.40576853560E+03  0.00000000000E+00 0. -1.
         21   -1    0    0  501  502 -0.00000000000E+00 -0.00000000000E+00 -0.73285839500E+03  0.73285839500E+03  0.00000000000E+00 0. -1.
         25    1    1    2    0    0 -0.16327182964E+03 -0.62162727576E+02  0.21235478171E+03  0.30206199425E+03  0.12500000000E+03 0.  0.
         25    1    1    2    0    0  0.24250628726E+02 -0.53991924856E+02  0.93166862703E+02  0.16675816397E+03  0.12500000000E+03 0.  0.
         25    1    1    2    0    0  0.13902120092E+03  0.11615465243E+03 -0.63261150381E+03  0.66980677239E+03  0.12500000000E+03 0.  0.
</event>
<event>
 5    0  0.5597833E-005  0.2332476E+03  0.7546771E-02  0.1124375E+00
         21   -1    0    0  502  501  0.00000000000E+00  0.00000000000E+00  0.12618052418E+03  0.12618052418E+03  0.00000000000E+00 0.  1.
         21   -1    0    0  501  502 -0.00000000000E+00 -0.00000000000E+00 -0.43116346391E+03  0.43116346391E+03  0.00000000000E+00 0.  1.
         25    1    1    2    0    0 -0.12182249533E+03  0.10615791995E+02 -0.97688278439E+02  0.20030330789E+03  0.12500000000E+03 0.  0.
         25    1    1    2    0    0  0.10458490681E+03 -0.16705640598E+02 -0.12773521132E+03  0.20774591541E+03  0.12500000000E+03 0.  0.
         25    1    1    2    0    0  0.17237588528E+02  0.60898486036E+01 -0.79559449976E+02  0.14929476479E+03  0.12500000000E+03 0.  0.
</event>
<event>
 5    0  0.5597833E-005  0.2671441E+03  0.7546771E-02  0.1102925E+00
         21   -1    0    0  502  501  0.00000000000E+00  0.00000000000E+00  0.27874518310E+03  0.27874518310E+03  0.00000000000E+00 0.  1.
         21   -1    0    0  501  502 -0.00000000000E+00 -0.00000000000E+00 -0.25602590228E+03  0.25602590228E+03  0.00000000000E+00 0.  1.
         25    1    1    2    0    0 -0.47024376930E+02 -0.35131735265E+02  0.10917915221E+03  0.17604152387E+03  0.12500000000E+03 0.  0.
         25    1    1    2    0    0  0.56555107194E+02  0.12305803726E+03 -0.29722285274E+01  0.18432469945E+03  0.12500000000E+03 0.  0.
         25    1    1    2    0    0 -0.95307302643E+01 -0.87926301996E+02 -0.83487642863E+02  0.17440486207E+03  0.12500000000E+03 0.  0.
</event>
<event>
 5    0  0.5597833E-005  0.3833431E+03  0.7546771E-02  0.1049705E+00
         21   -1    0    0  502  501  0.00000000000E+00  0.00000000000E+00  0.58903137054E+02  0.58903137054E+02  0.00000000000E+00 0.  1.
         21   -1    0    0  501  502 -0.00000000000E+00 -0.00000000000E+00 -0.24948060187E+04  0.24948060187E+04  0.00000000000E+00 0.  1.
         25    1    1    2    0    0  0.11470048258E+03  0.15247367325E+03 -0.95361168577E+03  0.98051245223E+03  0.12500000000E+03 0.  0.
         25    1    1    2    0    0  0.28282384773E+02 -0.26913881570E+03 -0.72810824905E+03  0.78676693991E+03  0.12500000000E+03 0.  0.
         25    1    1    2    0    0 -0.14298286735E+03  0.11666514244E+03 -0.75418294687E+03  0.78642976366E+03  0.12500000000E+03 0.  0.
</event>
<event>
 5    0  0.5597833E-005  0.2873414E+03  0.7546771E-02  0.1091745E+00
         21   -1    0    0  502  501  0.00000000000E+00  0.00000000000E+00  0.14394644005E+03  0.14394644005E+03  0.00000000000E+00 0.  1.
         21   -1    0    0  501  502 -0.00000000000E+00 -0.00000000000E+00 -0.57358195235E+03  0.57358195235E+03  0.00000000000E+00 0.  1.
         25    1    1    2    0    0  0.64161318579E+02  0.22298590166E+02 -0.33217689576E+03  0.36135909010E+03  0.12500000000E+03 0.  0.
         25    1    1    2    0    0  0.54600513439E+02 -0.82909364777E+02 -0.39585296750E+02  0.16446025220E+03  0.12500000000E+03 0.  0.
         25    1    1    2    0    0 -0.11876183202E+03  0.60610774611E+02 -0.57873319791E+02  0.19170905009E+03  0.12500000000E+03 0.  0.
</event>
<event>
 5    0  0.5597833E-005  0.3499475E+03  0.7546771E-02  0.1062637E+00
         21   -1    0    0  502  501  0.00000000000E+00  0.00000000000E+00  0.15695236610E+04  0.15695236610E+04  0.00000000000E+00 0. -1.
         21   -1    0    0  501  502 -0.00000000000E+00 -0.00000000000E+00 -0.78025747664E+02  0.78025747664E+02  0.00000000000E+00 0. -1.
         25    1    1    2    0    0 -0.18227563692E+03 -0.63354804294E+02  0.33881889955E+03  0.40946487729E+03  0.12500000000E+03 0.  0.
         25    1    1    2    0    0  0.17903358113E+03  0.59134775110E+02  0.10560311113E+04  0.10799891911E+04  0.12500000000E+03 0.  0.
         25    1    1    2    0    0  0.32420557962E+01  0.42200291842E+01  0.96647902507E+02  0.15809534032E+03  0.12500000000E+03 0.  0.
</event>
<event>
 5    0  0.5597833E-005  0.8032181E+03  0.7546771E-02  0.9555371E-01
         21   -1    0    0  502  501  0.00000000000E+00  0.00000000000E+00  0.53283997388E+03  0.53283997388E+03  0.00000000000E+00 0.  1.
         21   -1    0    0  501  502 -0.00000000000E+00 -0.00000000000E+00 -0.12107938885E+04  0.12107938885E+04  0.00000000000E+00 0.  1.
         25    1    1    2    0    0 -0.23107186840E+03  0.32173973981E+03  0.31549747800E+03  0.52160744546E+03  0.12500000000E+03 0.  0.
         25    1    1    2    0    0  0.24074234794E+03 -0.38586046059E+03 -0.97090981981E+03  0.10794146800E+04  0.12500000000E+03 0.  0.
         25    1    1    2    0    0 -0.96704795425E+01  0.64120720786E+02 -0.22541572789E+02  0.14261173694E+03  0.12500000000E+03 0.  0.
</event>
<event>
 5    0  0.5597833E-005  0.2978080E+03  0.7546771E-02  0.1086342E+00
         21   -1    0    0  502  501  0.00000000000E+00  0.00000000000E+00  0.12680380622E+04  0.12680380622E+04  0.00000000000E+00 0.  1.
         21   -1    0    0  501  502 -0.00000000000E+00 -0.00000000000E+00 -0.69942399311E+02  0.69942399311E+02  0.00000000000E+00 0.  1.
         25    1    1    2    0    0 -0.24675083491E+02 -0.45905707102E+02  0.31248374383E+03  0.34056905885E+03  0.12500000000E+03 0.  0.
         25    1    1    2    0    0  0.10664960154E+03 -0.16267439849E+02  0.79483046330E+03  0.81179999538E+03  0.12500000000E+03 0.  0.
         25    1    1    2    0    0 -0.81974518047E+02  0.62173146951E+02  0.90781455801E+02  0.18561140732E+03  0.12500000000E+03 0.  0.
</event>
<event>
 5    0  0.5597833E-005  0.4958596E+03  0.7546771E-02  0.1014865E+00
         21   -1    0    0  502  501  0.00000000000E+00  0.00000000000E+00  0.51619880103E+03  0.51619880103E+03  0.00000000000E+00 0. -1.
         21   -1    0    0  501  502 -0.00000000000E+00 -0.00000000000E+00 -0.47632189056E+03  0.47632189056E+03  0.00000000000E+00 0. -1.
         25    1    1    2    0    0 -0.23440934238E+03 -0.32570070065E+03  0.17518065760E+03  0.45534816239E+03  0.12500000000E+03 0.  0.
         25    1    1    2    0    0  0.87451984279E+02  0.87339363179E+02  0.44977163066E+02  0.18144960488E+03  0.12500000000E+03 0.  0.
         25    1    1    2    0    0  0.14695735810E+03  0.23836133747E+03 -0.18028091020E+03  0.35572292431E+03  0.12500000000E+03 0.  0.
</event>
<event>
 5    0  0.5597833E-005  0.3354357E+03  0.7546771E-02  0.1068757E+00
         21   -1    0    0  502  501  0.00000000000E+00  0.00000000000E+00  0.47516584974E+03  0.47516584974E+03  0.00000000000E+00 0. -1.
         21   -1    0    0  501  502 -0.00000000000E+00 -0.00000000000E+00 -0.23679544080E+03  0.23679544080E+03  0.00000000000E+00 0. -1.
         25    1    1    2    0    0  0.75096406445E+02 -0.89344515635E+02  0.69750196733E+02  0.18469434934E+03  0.12500000000E+03 0.  0.
         25    1    1    2    0    0 -0.16814638916E+03 -0.11060472963E+03  0.13177463057E+03  0.27110176625E+03  0.12500000000E+03 0.  0.
         25    1    1    2    0    0  0.93049982718E+02  0.19994924526E+03  0.36845581634E+02  0.25616517494E+03  0.12500000000E+03 0.  0.
</event>
<event>
 5    0  0.5597833E-005  0.4608734E+03  0.7546771E-02  0.1024528E+00
         21   -1    0    0  502  501  0.00000000000E+00  0.00000000000E+00  0.13110505180E+03  0.13110505180E+03  0.00000000000E+00 0.  1.
         21   -1    0    0  501  502 -0.00000000000E+00 -0.00000000000E+00 -0.16201074825E+04  0.16201074825E+04  0.00000000000E+00 0.  1.
         25    1    1    2    0    0  0.18099166291E+03  0.15119747039E+03 -0.17338953302E+03  0.31828852831E+03  0.12500000000E+03 0.  0.
         25    1    1    2    0    0 -0.31323010666E+03 -0.37636637563E+02 -0.95308215174E+03  0.10116917535E+04  0.12500000000E+03 0.  0.
         25    1    1    2    0    0  0.13223844375E+03 -0.11356083283E+03 -0.36253074596E+03  0.42123225248E+03  0.12500000000E+03 0.  0.
</event>
<event>
 5    0  0.5597833E-005  0.2201430E+03  0.7546771E-02  0.1133777E+00
         21   -1    0    0  502  501  0.00000000000E+00  0.00000000000E+00  0.83191512120E+02  0.83191512120E+02  0.00000000000E+00 0. -1.
         21   -1    0    0  501  502 -0.00000000000E+00 -0.00000000000E+00 -0.58254644317E+03  0.58254644317E+03  0.00000000000E+00 0. -1.
         25    1    1    2    0    0  0.20769121440E+02  0.32835453164E+02 -0.19794181372E+03  0.23730883888E+03  0.12500000000E+03 0.  0.
         25    1    1    2    0    0 -0.27761031772E+02  0.35064062879E+02 -0.23800719260E+03  0.27252997472E+03  0.12500000000E+03 0.  0.
         25    1    1    2    0    0  0.69919103322E+01 -0.67899516043E+02 -0.63405924719E+02  0.15589914169E+03  0.12500000000E+03 0.  0.
</event>
<event>
 5    0  0.5597833E-005  0.3126295E+03  0.7546771E-02  0.1079092E+00
         21   -1    0    0  502  501  0.00000000000E+00  0.00000000000E+00  0.14836083947E+04  0.14836083947E+04  0.00000000000E+00 0.  1.
         21   -1    0    0  501  502 -0.00000000000E+00 -0.00000000000E+00 -0.65878017906E+02  0.65878017906E+02  0.00000000000E+00 0.  1.
         25    1    1    2    0    0  0.44430651338E+02  0.96514931476E+02  0.23742291496E+03  0.28858942344E+03  0.12500000000E+03 0.  0.
         25    1    1    2    0    0 -0.25382857020E+01  0.92832835865E+02  0.19822393540E+03  0.25207559754E+03  0.12500000000E+03 0.  0.
         25    1    1    2    0    0 -0.41892365636E+02 -0.18934776734E+03  0.98208352640E+03  0.10088213916E+04  0.12500000000E+03 0.  0.
</event>
<event>
 5    0  0.5711570E-005  0.3197565E+03  0.7546771E-02  0.1075761E+00
         21   -1    0    0  502  501  0.00000000000E+00  0.00000000000E+00  0.51918040807E+03  0.51918040807E+03  0.00000000000E+00 0.  1.
         21   -1    0    0  501  502 -0.00000000000E+00 -0.00000000000E+00 -0.19693384887E+03  0.19693384887E+03  0.00000000000E+00 0.  1.
         25    1    1    2    0    0 -0.59671665980E+02  0.59115170406E+02  0.26674144869E+03  0.30631897026E+03  0.12500000000E+03 0.  0.
         25    1    1    2    0    0  0.16437711548E+03  0.29145929943E+02 -0.20184776219E+02  0.20952743619E+03  0.12500000000E+03 0.  0.
         25    1    1    2    0    0 -0.10470544950E+03 -0.88261100349E+02  0.75689886721E+02  0.20026785049E+03  0.12500000000E+03 0.  0.
</event>
<event>
 5    0  0.5597833E-005  0.3389568E+03  0.7546771E-02  0.1067241E+00
         21   -1    0    0  502  501  0.00000000000E+00  0.00000000000E+00  0.81935255674E+02  0.81935255674E+02  0.00000000000E+00 0. -1.
         21   -1    0    0  501  502 -0.00000000000E+00 -0.00000000000E+00 -0.14022256031E+04  0.14022256031E+04  0.00000000000E+00 0. -1.
         25    1    1    2    0    0  0.64711387158E+02 -0.25288718097E+03 -0.62616738061E+03  0.68981887366E+03  0.12500000000E+03 0.  0.
         25    1    1    2    0    0 -0.35485461149E+02  0.46707254575E+02 -0.31712459231E+03  0.34588118282E+03  0.12500000000E+03 0.  0.
         25    1    1    2    0    0 -0.29225926009E+02  0.20617992640E+03 -0.37699837447E+03  0.44846080225E+03  0.12500000000E+03 0.  0.
</event>
<event>
 5    0  0.5597833E-005  0.3157177E+03  0.7546771E-02  0.1077637E+00
         21   -1    0    0  502  501  0.00000000000E+00  0.00000000000E+00  0.27280972755E+03  0.27280972755E+03  0.00000000000E+00 0. -1.
         21   -1    0    0  501  502 -0.00000000000E+00 -0.00000000000E+00 -0.36537437360E+03  0.36537437360E+03  0.00000000000E+00 0. -1.
         25    1    1    2    0    0  0.13702931731E+03 -0.12585000145E+03  0.35069110569E+02  0.22687022542E+03  0.12500000000E+03 0.  0.
         25    1    1    2    0    0 -0.49481833489E+02  0.15419004726E+03  0.86581620478E+01  0.20475103489E+03  0.12500000000E+03 0.  0.
         25    1    1    2    0    0 -0.87547483822E+02 -0.28340045813E+02 -0.13629191867E+03  0.20656284084E+03  0.12500000000E+03 0.  0.
</event>
<event>
 5    0  0.5597833E-005  0.3927880E+03  0.7546771E-02  0.1046306E+00
         21   -1    0    0  502  501  0.00000000000E+00  0.00000000000E+00  0.33811788846E+03  0.33811788846E+03  0.00000000000E+00 0.  1.
         21   -1    0    0  501  502 -0.00000000000E+00 -0.00000000000E+00 -0.45629758407E+03  0.45629758407E+03  0.00000000000E+00 0.  1.
         25    1    1    2    0    0 -0.56566761183E+02  0.60600424028E+02  0.10437129560E+02  0.15035339549E+03  0.12500000000E+03 0.  0.
         25    1    1    2    0    0 -0.13407086232E+03 -0.66979295935E+02 -0.30062355117E+03  0.35841420413E+03  0.12500000000E+03 0.  0.
         25    1    1    2    0    0  0.19063762350E+03  0.63788719071E+01  0.17200672601E+03  0.28564787290E+03  0.12500000000E+03 0.  0.
</event>
<event>
 5    0  0.5597833E-005  0.2650539E+03  0.7546771E-02  0.1104144E+00
         21   -1    0    0  502  501  0.00000000000E+00  0.00000000000E+00  0.46972091164E+02  0.46972091164E+02  0.00000000000E+00 0.  1.
         21   -1    0    0  501  502 -0.00000000000E+00 -0.00000000000E+00 -0.14956450846E+04  0.14956450846E+04  0.00000000000E+00 0.  1.
         25    1    1    2    0    0  0.32669834742E+02 -0.58426690899E+02 -0.59557045889E+03  0.61221741875E+03  0.12500000000E+03 0.  0.
         25    1    1    2    0    0 -0.23036564866E+01 -0.99795144951E+02 -0.46891530947E+03  0.49545024498E+03  0.12500000000E+03 0.  0.
         25    1    1    2    0    0 -0.30366178256E+02  0.15822183585E+03 -0.38418722511E+03  0.43494951208E+03  0.12500000000E+03 0.  0.
</event>
<event>
 5    0  0.5597833E-005  0.3432119E+03  0.7546771E-02  0.1065436E+00
         21   -1    0    0  502  501  0.00000000000E+00  0.00000000000E+00  0.78054385714E+03  0.78054385714E+03  0.00000000000E+00 0.  1.
         21   -1    0    0  501  502 -0.00000000000E+00 -0.00000000000E+00 -0.15091320783E+03  0.15091320783E+03  0.00000000000E+00 0.  1.
         25    1    1    2    0    0  0.10465144650E+03 -0.47800990164E+02  0.50620367674E+02  0.17726895255E+03  0.12500000000E+03 0.  0.
         25    1    1    2    0    0 -0.81739435422E+02 -0.10104733544E+02  0.59507449321E+03  0.61361396123E+03  0.12500000000E+03 0.  0.
         25    1    1    2    0    0 -0.22912011074E+02  0.57905723709E+02 -0.16064211574E+02  0.14057415119E+03  0.12500000000E+03 0.  0.
</event>
<event>
 5    0  0.5597833E-005  0.3823232E+03  0.7546771E-02  0.1050078E+00
         21   -1    0    0  502  501  0.00000000000E+00  0.00000000000E+00  0.49687468233E+03  0.49687468233E+03  0.00000000000E+00 0. -1.
         21   -1    0    0  501  502 -0.00000000000E+00 -0.00000000000E+00 -0.29418093664E+03  0.29418093664E+03  0.00000000000E+00 0. -1.
         25    1    1    2    0    0  0.31760473421E+02  0.86443333779E+02 -0.19815832200E+03  0.25173974300E+03  0.12500000000E+03 0.  0.
         25    1    1    2    0    0 -0.12347414017E+03 -0.50441943164E+01  0.26359587810E+03  0.31682659948E+03  0.12500000000E+03 0.  0.
         25    1    1    2    0    0  0.91713666751E+02 -0.81399139462E+02  0.13725618960E+03  0.22248927650E+03  0.12500000000E+03 0.  0.
</event>
<event>
 5    0  0.5597833E-005  0.2300795E+03  0.7546771E-02  0.1126584E+00
         21   -1    0    0  502  501  0.00000000000E+00  0.00000000000E+00  0.76730069884E+03  0.76730069884E+03  0.00000000000E+00 0.  1.
         21   -1    0    0  501  502 -0.00000000000E+00 -0.00000000000E+00 -0.68990658579E+02  0.68990658579E+02  0.00000000000E+00 0.  1.
         25    1    1    2    0    0 -0.10178130816E+03  0.79125007201E+01  0.31255631565E+03  0.35176482600E+03  0.12500000000E+03 0.  0.
         25    1    1    2    0    0  0.18534794526E+02  0.17142988332E+02  0.10518672809E+03  0.16530779904E+03  0.12500000000E+03 0.  0.
         25    1    1    2    0    0  0.83246513637E+02 -0.25055489052E+02  0.28056699653E+03  0.31921873239E+03  0.12500000000E+03 0.  0.
</event>
<event>
 5    0  0.5647172E-005  0.2851389E+03  0.7546771E-02  0.1092915E+00
         21   -1    0    0  502  501  0.00000000000E+00  0.00000000000E+00  0.23353207443E+03  0.23353207443E+03  0.00000000000E+00 0. -1.
         21   -1    0    0  501  502 -0.00000000000E+00 -0.00000000000E+00 -0.34814988414E+03  0.34814988414E+03  0.00000000000E+00 0. -1.
         25    1    1    2    0    0 -0.13870105813E+03 -0.48118410301E+02 -0.85092618591E+02  0.21075843678E+03  0.12500000000E+03 0.  0.
         25    1    1    2    0    0 -0.68995936305E+01  0.16866726186E+02 -0.10308816675E+03  0.16304680607E+03  0.12500000000E+03 0.  0.
         25    1    1    2    0    0  0.14560065176E+03  0.31251684116E+02  0.73562975640E+02  0.20787671572E+03  0.12500000000E+03 0.  0.
</event>
<event>
 5    0  0.5597833E-005  0.2783083E+03  0.7546771E-02  0.1096617E+00
         21   -1    0    0  502  501  0.00000000000E+00  0.00000000000E+00  0.17029887488E+03  0.17029887488E+03  0.00000000000E+00 0. -1.
         21   -1    0    0  501  502 -0.00000000000E+00 -0.00000000000E+00 -0.45482108242E+03  0.45482108242E+03  0.00000000000E+00 0. -1.
         25    1    1    2    0    0  0.16825019792E+02 -0.83519452071E+02 -0.11182124417E+03  0.18811584413E+03  0.12500000000E+03 0.  0.
         25    1    1    2    0    0 -0.14497193833E+03 -0.37472103250E+01 -0.13511980152E+03  0.23433579592E+03  0.12500000000E+03 0.  0.
         25    1    1    2    0    0  0.12814691853E+03  0.87266662396E+02 -0.37581161858E+02  0.20266831726E+03  0.12500000000E+03 0.  0.
</event>
<event>
 5    0  0.7061353E-005  0.4552284E+03  0.7546771E-02  0.1026174E+00
         21   -1    0    0  502  501  0.00000000000E+00  0.00000000000E+00  0.30683517935E+03  0.30683517935E+03  0.00000000000E+00 0. -1.
         21   -1    0    0  501  502 -0.00000000000E+00 -0.00000000000E+00 -0.67538821565E+03  0.67538821565E+03  0.00000000000E+00 0. -1.
         25    1    1    2    0    0  0.17762958958E+03  0.74813432090E+02 -0.34302633350E+03  0.41284547496E+03  0.12500000000E+03 0.  0.
         25    1    1    2    0    0 -0.19847276418E+03 -0.21619831745E+03 -0.13924415168E+03  0.34806189732E+03  0.12500000000E+03 0.  0.
         25    1    1    2    0    0  0.20843174593E+02  0.14138488536E+03  0.11371744887E+03  0.22131602272E+03  0.12500000000E+03 0.  0.
</event>
<event>
 5    0  0.5597833E-005  0.2265894E+03  0.7546771E-02  0.1129064E+00
         21   -1    0    0  502  501  0.00000000000E+00  0.00000000000E+00  0.39866755368E+03  0.39866755368E+03  0.00000000000E+00 0.  1.
         21   -1    0    0  501  502 -0.00000000000E+00 -0.00000000000E+00 -0.12878587823E+03  0.12878587823E+03  0.00000000000E+00 0.  1.
         25    1    1    2    0    0 -0.60487920443E+02  0.16112242728E+02  0.19887386376E+03  0.24309299984E+03  0.12500000000E+03 0.  0.
         25    1    1    2    0    0 -0.24268564506E+01  0.22967735496E+02  0.53867358074E+02  0.13805831656E+03  0.12500000000E+03 0.  0.
         25    1    1    2    0    0  0.62914776893E+02 -0.39079978224E+02  0.17140453617E+02  0.14630211550E+03  0.12500000000E+03 0.  0.
</event>
<event>
 5    0  0.5597833E-005  0.2501931E+03  0.7546771E-02  0.1113183E+00
         21   -1    0    0  502  501  0.00000000000E+00  0.00000000000E+00  0.29882179765E+03  0.29882179765E+03  0.00000000000E+00 0.  1.
         21   -1    0    0  501  502 -0.00000000000E+00 -0.00000000000E+00 -0.20947802657E+03  0.20947802657E+03  0.00000000000E+00 0.  1.
         25    1    1    2    0    0  0.92343837877E+02 -0.18605204439E+02  0.82573691600E+02  0.17696596444E+03  0.12500000000E+03 0.  0.
         25    1    1    2    0    0 -0.14664017603E+03 -0.54323628039E+01 -0.35020600517E+00  0.19276403824E+03  0.12500000000E+03 0.  0.
         25    1    1    2    0    0  0.54296338157E+02  0.24037567243E+02  0.71202854876E+01  0.13856982154E+03  0.12500000000E+03 0.  0.
</event>
<event>
 5    0  0.5887566E-005  0.3328956E+03  0.7546771E-02  0.1069863E+00
         21   -1    0    0  502  501  0.00000000000E+00  0.00000000000E+00  0.18940069183E+03  0.18940069183E+03  0.00000000000E+00 0.  1.
         21   -1    0    0  501  502 -0.00000000000E+00 -0.00000000000E+00 -0.58510602971E+03  0.58510602971E+03  0.00000000000E+00 0.  1.
         25    1    1    2    0    0 -0.10782532608E+03  0.20500644229E+03 -0.13904492260E+03  0.29767840504E+03  0.12500000000E+03 0.  0.
         25    1    1    2    0    0  0.24164624300E+02 -0.15320723584E+03 -0.32317327946E+02  0.20180633258E+03  0.12500000000E+03 0.  0.
         25    1    1    2    0    0  0.83660701782E+02 -0.51799206443E+02 -0.22434308733E+03  0.27502198393E+03  0.12500000000E+03 0.  0.
</event>
<event>
 5    0  0.5597833E-005  0.2314165E+03  0.7546771E-02  0.1125647E+00
         21   -1    0    0  502  501  0.00000000000E+00  0.00000000000E+00  0.12326917407E+03  0.12326917407E+03  0.00000000000E+00 0. -1.
         21   -1    0    0  501  502 -0.00000000000E+00 -0.00000000000E+00 -0.43444431418E+03  0.43444431418E+03  0.00000000000E+00 0. -1.
         25    1    1    2    0    0  0.74344058409E+02  0.30032340048E+02 -0.69111566376E+02  0.16379984456E+03  0.12500000000E+03 0.  0.
         25    1    1    2    0    0 -0.11033780963E+03 -0.59896273284E+02 -0.13228889103E+03  0.22110483142E+03  0.12500000000E+03 0.  0.
         25    1    1    2    0    0  0.35993751219E+02  0.29863933236E+02 -0.10977468271E+03  0.17280881227E+03  0.12500000000E+03 0.  0.
</event>
<event>
 5    0  0.5597833E-005  0.1959839E+03  0.7546771E-02  0.1153172E+00
         21   -1    0    0  502  501  0.00000000000E+00  0.00000000000E+00  0.35500743245E+03  0.35500743245E+03  0.00000000000E+00 0. -1.
         21   -1    0    0  501  502 -0.00000000000E+00 -0.00000000000E+00 -0.10819403406E+03  0.10819403406E+03  0.00000000000E+00 0. -1.
         25    1    1    2    0    0 -0.44354919893E+01 -0.26760308913E+02  0.11273366562E+03  0.17049829057E+03  0.12500000000E+03 0.  0.
         25    1    1    2    0    0 -0.11605235036E+02 -0.77819498613E+01  0.41088327105E+02  0.13231965405E+03  0.12500000000E+03 0.  0.
         25    1    1    2    0    0  0.16040727025E+02  0.34542258774E+02  0.92991405672E+02  0.16038352189E+03  0.12500000000E+03 0.  0.
</event>
<event>
 5    0  0.5597833E-005  0.2335869E+03  0.7546771E-02  0.1124140E+00
         21   -1    0    0  502  501  0.00000000000E+00  0.00000000000E+00  0.80652893055E+02  0.80652893055E+02  0.00000000000E+00 0.  1.
         21   -1    0    0  501  502 -0.00000000000E+00 -0.00000000000E+00 -0.67651449392E+03  0.67651449392E+03  0.00000000000E+00 0.  1.
         25    1    1    2    0    0  0.42822475159E+02  0.98397913171E+01 -0.18723998861E+03  0.22937828844E+03  0.12500000000E+03 0.  0.
         25    1    1    2    0    0 -0.11655300234E+03 -0.51875408197E+02 -0.17860307361E+03  0.25258606104E+03  0.12500000000E+03 0.  0.
         25    1    1    2    0    0  0.73730527182E+02  0.42035616880E+02 -0.23001853864E+03  0.27520303749E+03  0.12500000000E+03 0.  0.
</event>
<event>
 5    0  0.5597833E-005  0.2833317E+03  0.7546771E-02  0.1093883E+00
         21   -1    0    0  502  501  0.00000000000E+00  0.00000000000E+00  0.48338373035E+03  0.48338373035E+03  0.00000000000E+00 0. -1.
         21   -1    0    0  501  502 -0.00000000000E+00 -0.00000000000E+00 -0.16607270286E+03  0.16607270286E+03  0.00000000000E+00 0. -1.
         25    1    1    2    0    0  0.75901953425E+02 -0.84428095563E+02  0.26783127981E+03  0.31661933658E+03  0.12500000000E+03 0.  0.
         25    1    1    2    0    0 -0.90116783405E+02  0.77142456176E+02 -0.41689744648E+02  0.17729926115E+03  0.12500000000E+03 0.  0.
         25    1    1    2    0    0  0.14214829981E+02  0.72856393867E+01  0.91169492332E+02  0.15553783548E+03  0.12500000000E+03 0.  0.
</event>
<event>
 5    0  0.5597833E-005  0.3758549E+03  0.7546771E-02  0.1052477E+00
         21   -1    0    0  502  501  0.00000000000E+00  0.00000000000E+00  0.10489157341E+04  0.10489157341E+04  0.00000000000E+00 0. -1.
         21   -1    0    0  501  502 -0.00000000000E+00 -0.00000000000E+00 -0.13467899389E+03  0.13467899389E+03  0.00000000000E+00 0. -1.
         25    1    1    2    0    0  0.29063923164E+02  0.65550490373E+02  0.34207181035E+02  0.14811046436E+03  0.12500000000E+03 0.  0.
         25    1    1    2    0    0  0.33132746279E+02 -0.16379903609E+02  0.87781827234E+03  0.88744351898E+03  0.12500000000E+03 0.  0.
         25    1    1    2    0    0 -0.62196669444E+02 -0.49170586764E+02  0.22112868459E+01  0.14804074467E+03  0.12500000000E+03 0.  0.
</event>
<event>
 5    0  0.5615640E-005  0.3004980E+03  0.7546771E-02  0.1084992E+00
         21   -1    0    0  502  501  0.00000000000E+00  0.00000000000E+00  0.14792345116E+03  0.14792345116E+03  0.00000000000E+00 0. -1.
         21   -1    0    0  501  502 -0.00000000000E+00 -0.00000000000E+00 -0.61044435082E+03  0.61044435082E+03  0.00000000000E+00 0. -1.
         25    1    1    2    0    0 -0.10603867509E+03 -0.63132984033E+02 -0.14099122331E+03  0.22524098059E+03  0.12500000000E+03 0.  0.
         25    1    1    2    0    0 -0.57578341772E+02  0.67686748047E+02 -0.28544424642E+03  0.32403731130E+03  0.12500000000E+03 0.  0.
         25    1    1    2    0    0  0.16361701686E+03 -0.45537640132E+01 -0.36085429928E+02  0.20908951008E+03  0.12500000000E+03 0.  0.
</event>
<event>
 5    0  0.5597833E-005  0.2484459E+03  0.7546771E-02  0.1114291E+00
         21   -1    0    0  502  501  0.00000000000E+00  0.00000000000E+00  0.95042067742E+03  0.95042067742E+03  0.00000000000E+00 0.  1.
         21   -1    0    0  501  502 -0.00000000000E+00 -0.00000000000E+00 -0.64945319745E+02  0.64945319745E+02  0.00000000000E+00 0.  1.
         25    1    1    2    0    0  0.48542096139E+02 -0.81947576605E+02  0.61353007109E+03  0.63333710497E+03  0.12500000000E+03 0.  0.
         25    1    1    2    0    0 -0.31432792086E+02  0.48868200334E+02  0.13649793145E+03  0.19399176970E+03  0.12500000000E+03 0.  0.
         25    1    1    2    0    0 -0.17109304053E+02  0.33079376271E+02  0.13544735513E+03  0.18803712248E+03  0.12500000000E+03 0.  0.
</event>
<event>
 5    0  0.5597833E-005  0.4822565E+03  0.7546771E-02  0.1018517E+00
         21   -1    0    0  502  501  0.00000000000E+00  0.00000000000E+00  0.16053750716E+03  0.16053750716E+03  0.00000000000E+00 0.  1.
         21   -1    0    0  501  502 -0.00000000000E+00 -0.00000000000E+00 -0.14487041546E+04  0.14487041546E+04  0.00000000000E+00 0.  1.
         25    1    1    2    0    0 -0.25894348578E+03 -0.30617521179E+03 -0.43034081008E+03  0.60134283231E+03  0.12500000000E+03 0.  0.
         25    1    1    2    0    0  0.55769879649E+02  0.47238791957E+02 -0.43061887030E+03  0.45431200117E+03  0.12500000000E+03 0.  0.
         25    1    1    2    0    0  0.20317360613E+03  0.25893641983E+03 -0.42720696704E+03  0.55358682827E+03  0.12500000000E+03 0.  0.
</event>
<event>
 5    0  0.5597833E-005  0.4689289E+03  0.7546771E-02  0.1022223E+00
         21   -1    0    0  502  501  0.00000000000E+00  0.00000000000E+00  0.47962291292E+03  0.47962291292E+03  0.00000000000E+00 0.  1.
         21   -1    0    0  501  502 -0.00000000000E+00 -0.00000000000E+00 -0.45847337227E+03  0.45847337227E+03  0.00000000000E+00 0.  1.
         25    1    1    2    0    0  0.89248453726E+02 -0.13981982576E+03 -0.26602933255E+03  0.33750774205E+03  0.12500000000E+03 0.  0.
         25    1    1    2    0    0 -0.92888038416E+02  0.14878875681E+03 -0.66440849719E+02  0.22540112765E+03  0.12500000000E+03 0.  0.
         25    1    1    2    0    0  0.36395846903E+01 -0.89689310567E+01  0.35361972292E+03  0.37518741549E+03  0.12500000000E+03 0.  0.
</event>
<event>
 5    0  0.5597833E-005  0.2960824E+03  0.7546771E-02  0.1087216E+00
         21   -1    0    0  502  501  0.00000000000E+00  0.00000000000E+00  0.36559568102E+03  0.36559568102E+03  0.00000000000E+00 0.  1.
         21   -1    0    0  501  502 -0.00000000000E+00 -0.00000000000E+00 -0.23978611693E+03  0.23978611693E+03  0.00000000000E+00 0.  1.
         25    1    1    2    0    0 -0.10341183456E+03 -0.12858297922E+03  0.12695366700E+03  0.24283703102E+03  0.12500000000E+03 0.  0.
         25    1    1    2    0    0  0.82510746690E+02 -0.30937835549E+02  0.31667487657E+02  0.15618259430E+03  0.12500000000E+03 0.  0.
         25    1    1    2    0    0  0.20901087872E+02  0.15952081477E+03 -0.32811590558E+02  0.20636217263E+03  0.12500000000E+03 0.  0.
</event>
<event>
 5    0  0.5597833E-005  0.3734949E+03  0.7546771E-02  0.1053365E+00
         21   -1    0    0  502  501  0.00000000000E+00  0.00000000000E+00  0.96332467670E+02  0.96332467670E+02  0.00000000000E+00 0.  1.
         21   -1    0    0  501  502 -0.00000000000E+00 -0.00000000000E+00 -0.14480935489E+04  0.14480935489E+04  0.00000000000E+00 0.  1.
         25    1    1    2    0    0  0.13701709101E+03  0.20103325535E+03 -0.76707112072E+03  0.81437777304E+03  0.12500000000E+03 0.  0.
         25    1    1    2    0    0 -0.13920053902E+02  0.86305600311E+01 -0.62693109891E+02  0.14079659263E+03  0.12500000000E+03 0.  0.
         25    1    1    2    0    0 -0.12309703711E+03 -0.20966381538E+03 -0.52199685057E+03  0.58925165085E+03  0.12500000000E+03 0.  0.
</event>
<event>
 5    0  0.5597833E-005  0.4020975E+03  0.7546771E-02  0.1043056E+00
         21   -1    0    0  502  501  0.00000000000E+00  0.00000000000E+00  0.65967131835E+03  0.65967131835E+03  0.00000000000E+00 0.  1.
         21   -1    0    0  501  502 -0.00000000000E+00 -0.00000000000E+00 -0.24509542045E+03  0.24509542045E+03  0.00000000000E+00 0.  1.
         25    1    1    2    0    0  0.57178384247E+02  0.67298704889E+02  0.34364560693E+02  0.15685791767E+03  0.12500000000E+03 0.  0.
         25    1    1    2    0    0 -0.27483936117E+03 -0.11907814163E+03  0.36892801020E+03  0.49137476021E+03  0.12500000000E+03 0.  0.
         25    1    1    2    0    0  0.21766097693E+03  0.51779436736E+02  0.11283327003E+02  0.25653406092E+03  0.12500000000E+03 0.  0.
</event>
<event>
 5    0  0.5597833E-005  0.2838649E+03  0.7546771E-02  0.1093597E+00
         21   -1    0    0  502  501  0.00000000000E+00  0.00000000000E+00  0.13173155677E+03  0.13173155677E+03  0.00000000000E+00 0. -1.
         21   -1    0    0  501  502 -0.00000000000E+00 -0.00000000000E+00 -0.61169294669E+03  0.61169294669E+03  0.00000000000E+00 0. -1.
         25    1    1    2    0    0 -0.25415057985E+02  0.96780942485E+02 -0.54454211208E+02  0.16912343752E+03  0.12500000000E+03 0.  0.
         25    1    1    2    0    0 -0.21803629489E+02  0.54309536562E+02 -0.31591769361E+03  0.34475195889E+03  0.12500000000E+03 0.  0.
         25    1    1    2    0    0  0.47218687475E+02 -0.15109047905E+03 -0.10958948509E+03  0.22954910705E+03  0.12500000000E+03 0.  0.
</event>
<event>
 5    0  0.5597833E-005  0.2279121E+03  0.7546771E-02  0.1128118E+00
         21   -1    0    0  502  501  0.00000000000E+00  0.00000000000E+00  0.16159478491E+03  0.16159478491E+03  0.00000000000E+00 0.  1.
         21   -1    0    0  501  502 -0.00000000000E+00 -0.00000000000E+00 -0.32144542419E+03  0.32144542419E+03  0.00000000000E+00 0.  1.
         25    1    1    2    0    0  0.62283111466E+01 -0.71311116318E+02 -0.11250326890E+03  0.18277322748E+03  0.12500000000E+03 0.  0.
         25    1    1    2    0    0  0.62862189025E+02  0.61597551891E+02 -0.32999179993E+02  0.15639648042E+03  0.12500000000E+03 0.  0.
         25    1    1    2    0    0 -0.69090500172E+02  0.97135644269E+01 -0.14348190378E+02  0.14387050120E+03  0.12500000000E+03 0.  0.
</event>
<event>
 5    0  0.5597833E-005  0.3159075E+03  0.7546771E-02  0.1077548E+00
         21   -1    0    0  502  501  0.00000000000E+00  0.00000000000E+00  0.15453176170E+03  0.15453176170E+03  0.00000000000E+00 0. -1.
         21   -1    0    0  501  502 -0.00000000000E+00 -0.00000000000E+00 -0.64580605977E+03  0.64580605977E+03  0.00000000000E+00 0. -1.
         25    1    1    2    0    0  0.12024833101E+03 -0.68415983405E+02  0.40177941660E+02  0.19073456659E+03  0.12500000000E+03 0.  0.
         25    1    1    2    0    0 -0.61227322467E+02 -0.11576511081E+01 -0.30573001015E+03  0.33592553383E+03  0.12500000000E+03 0.  0.
         25    1    1    2    0    0 -0.59021008545E+02  0.69573634513E+02 -0.22572222958E+03  0.27367772105E+03  0.12500000000E+03 0.  0.
</event>
<event>
 5    0  0.5597833E-005  0.2676369E+03  0.7546771E-02  0.1102640E+00
         21   -1    0    0  502  501  0.00000000000E+00  0.00000000000E+00  0.54913002886E+02  0.54913002886E+02  0.00000000000E+00 0. -1.
         21   -1    0    0  501  502 -0.00000000000E+00 -0.00000000000E+00 -0.13044178255E+04  0.13044178255E+04  0.00000000000E+00 0. -1.
         25    1    1    2    0    0 -0.51568335028E+02 -0.54262132726E+02 -0.86994003701E+03  0.88205688038E+03  0.12500000000E+03 0.  0.
         25    1    1    2    0    0  0.81295822973E+02  0.17805658467E+02 -0.15374896826E+03  0.21491811824E+03  0.12500000000E+03 0.  0.
         25    1    1    2    0    0 -0.29727487945E+02  0.36456474259E+02 -0.22581581738E+03  0.26235582980E+03  0.12500000000E+03 0.  0.
</event>
<event>
 5    0  0.6308399E-005  0.3376841E+03  0.7546771E-02  0.1067787E+00
         21   -1    0    0  502  501  0.00000000000E+00  0.00000000000E+00  0.63371575205E+03  0.63371575205E+03  0.00000000000E+00 0. -1.
         21   -1    0    0  501  502 -0.00000000000E+00 -0.00000000000E+00 -0.17993962402E+03  0.17993962402E+03  0.00000000000E+00 0. -1.
         25    1    1    2    0    0 -0.95508189752E+02  0.94817779163E+02  0.55966521932E+01  0.18376220523E+03  0.12500000000E+03 0.  0.
         25    1    1    2    0    0  0.14550572737E+03  0.87906268997E+02  0.17067009217E+03  0.27139032626E+03  0.12500000000E+03 0.  0.
         25    1    1    2    0    0 -0.49997537617E+02 -0.18272404816E+03  0.27750938368E+03  0.35850284458E+03  0.12500000000E+03 0.  0.
</event>
<event>
 5    0  0.5597833E-005  0.2456406E+03  0.7546771E-02  0.1116091E+00
         21   -1    0    0  502  501  0.00000000000E+00  0.00000000000E+00  0.45018153775E+03  0.45018153775E+03  0.00000000000E+00 0.  1.
         21   -1    0    0  501  502 -0.00000000000E+00 -0.00000000000E+00 -0.13403329816E+03  0.13403329816E+03  0.00000000000E+00 0.  1.
         25    1    1    2    0    0  0.27568546873E+02  0.73427621620E+02  0.54038248042E+02  0.15715206853E+03  0.12500000000E+03 0.  0.
         25    1    1    2    0    0 -0.84681645261E+02 -0.11903351385E+03  0.14424386485E+03  0.24035650815E+03  0.12500000000E+03 0.  0.
         25    1    1    2    0    0  0.57113098388E+02  0.45605892229E+02  0.11786612669E+03  0.18670625923E+03  0.12500000000E+03 0.  0.
</event>
<event>
 5    0  0.5597833E-005  0.2638248E+03  0.7546771E-02  0.1104867E+00
         21   -1    0    0  502  501  0.00000000000E+00  0.00000000000E+00  0.41638660360E+03  0.41638660360E+03  0.00000000000E+00 0. -1.
         21   -1    0    0  501  502 -0.00000000000E+00 -0.00000000000E+00 -0.16716083861E+03  0.16716083861E+03  0.00000000000E+00 0. -1.
         25    1    1    2    0    0  0.10230367896E+03  0.56306416348E+02  0.12359128610E+03  0.21103616100E+03  0.12500000000E+03 0.  0.
         25    1    1    2    0    0 -0.38604731188E+02 -0.35405017339E+02 -0.52025002886E+02  0.14517383183E+03  0.12500000000E+03 0.  0.
         25    1    1    2    0    0 -0.63698947776E+02 -0.20901399008E+02  0.17765948178E+03  0.22733744939E+03  0.12500000000E+03 0.  0.
</event>
<event>
 5    0  0.5597833E-005  0.3429548E+03  0.7546771E-02  0.1065544E+00
         21   -1    0    0  502  501  0.00000000000E+00  0.00000000000E+00  0.63944244540E+03  0.63944244540E+03  0.00000000000E+00 0.  1.
         21   -1    0    0  501  502 -0.00000000000E+00 -0.00000000000E+00 -0.18393838465E+03  0.18393838465E+03  0.00000000000E+00 0.  1.
         25    1    1    2    0    0  0.14200527633E+03 -0.18617171324E+03  0.31666290477E+03  0.41318978760E+03  0.12500000000E+03 0.  0.
         25    1    1    2    0    0 -0.44214900279E+02 -0.29111451742E+01  0.13426926807E+02  0.13329934185E+03  0.12500000000E+03 0.  0.
         25    1    1    2    0    0 -0.97790376047E+02  0.18908285841E+03  0.12541422917E+03  0.27689170062E+03  0.12500000000E+03 0.  0.
</event>
<event>
 5    0  0.5597833E-005  0.3535097E+03  0.7546771E-02  0.1061184E+00
         21   -1    0    0  502  501  0.00000000000E+00  0.00000000000E+00  0.16308267488E+03  0.16308267488E+03  0.00000000000E+00 0. -1.
         21   -1    0    0  501  502 -0.00000000000E+00 -0.00000000000E+00 -0.76629318683E+03  0.76629318683E+03  0.00000000000E+00 0. -1.
         25    1    1    2    0    0 -0.12760046914E+03  0.13835441979E+03 -0.87509610488E+02  0.24229477322E+03  0.12500000000E+03 0.  0.
         25    1    1    2    0    0  0.59275570066E+02 -0.43445220682E+02 -0.49363215709E+03  0.51448885986E+03  0.12500000000E+03 0.  0.
         25    1    1    2    0    0  0.68324899076E+02 -0.94909199106E+02 -0.22068744374E+02  0.17259222864E+03  0.12500000000E+03 0.  0.
</event>
<event>
 5    0  0.5597833E-005  0.2373062E+03  0.7546771E-02  0.1121600E+00
         21   -1    0    0  502  501  0.00000000000E+00  0.00000000000E+00  0.49791718838E+02  0.49791718838E+02  0.00000000000E+00 0. -1.
         21   -1    0    0  501  502 -0.00000000000E+00 -0.00000000000E+00 -0.11309954884E+04  0.11309954884E+04  0.00000000000E+00 0. -1.
         25    1    1    2    0    0  0.29078534859E+01  0.72763453765E+02 -0.29402108468E+03  0.32768334417E+03  0.12500000000E+03 0.  0.
         25    1    1    2    0    0  0.51110492943E+02 -0.11861595135E+01 -0.17041314501E+03  0.21743810488E+03  0.12500000000E+03 0.  0.
         25    1    1    2    0    0 -0.54018346428E+02 -0.71577294251E+02 -0.61676953987E+03  0.63566575817E+03  0.12500000000E+03 0.  0.
</event>
<event>
 5    0  0.5835287E-005  0.2828420E+03  0.7546771E-02  0.1094147E+00
         21   -1    0    0  502  501  0.00000000000E+00  0.00000000000E+00  0.98390684513E+02  0.98390684513E+02  0.00000000000E+00 0. -1.
         21   -1    0    0  501  502 -0.00000000000E+00 -0.00000000000E+00 -0.81308124595E+03  0.81308124595E+03  0.00000000000E+00 0. -1.
         25    1    1    2    0    0 -0.32754833213E+02 -0.84142889849E+02 -0.11088850838E+03  0.18993200442E+03  0.12500000000E+03 0.  0.
         25    1    1    2    0    0  0.11700100878E+03 -0.59801770096E+02 -0.22307411994E+03  0.28749356645E+03  0.12500000000E+03 0.  0.
         25    1    1    2    0    0 -0.84246175569E+02  0.14394465994E+03 -0.38072793312E+03  0.43404635960E+03  0.12500000000E+03 0.  0.
</event>
<event>
 5    0  0.5597833E-005  0.3618292E+03  0.7546771E-02  0.1057862E+00
         21   -1    0    0  502  501  0.00000000000E+00  0.00000000000E+00  0.13165408481E+04  0.13165408481E+04  0.00000000000E+00 0.  1.
         21   -1    0    0  501  502 -0.00000000000E+00 -0.00000000000E+00 -0.99442721973E+02  0.99442721973E+02  0.00000000000E+00 0.  1.
         25    1    1    2    0    0 -0.18967286762E+03  0.19035611545E+03  0.57018125667E+03  0.64260634361E+03  0.12500000000E+03 0.  0.
         25    1    1    2    0    0  0.97018192614E+01 -0.66761934481E+02  0.38427260415E+03  0.40968489781E+03  0.12500000000E+03 0.  0.
         25    1    1    2    0    0  0.17997104836E+03 -0.12359418096E+03  0.26264426531E+03  0.36369232864E+03  0.12500000000E+03 0.  0.
</event>
<event>
 5    0  0.5597833E-005  0.3128540E+03  0.7546771E-02  0.1078986E+00
         21   -1    0    0  502  501  0.00000000000E+00  0.00000000000E+00  0.25516180283E+03  0.25516180283E+03  0.00000000000E+00 0.  1.
         21   -1    0    0  501  502 -0.00000000000E+00 -0.00000000000E+00 -0.38359049707E+03  0.38359049707E+03  0.00000000000E+00 0.  1.
         25    1    1    2    0    0  0.43324186688E+02  0.38065932630E+02 -0.21293925581E+02  0.13929979054E+03  0.12500000000E+03 0.  0.
         25    1    1    2    0    0  0.13216907654E+03  0.12229207686E+03 -0.44904175540E+02  0.22375299291E+03  0.12500000000E+03 0.  0.
         25    1    1    2    0    0 -0.17549326323E+03 -0.16035800949E+03 -0.62230593120E+02  0.27569951644E+03  0.12500000000E+03 0.  0.
</event>
<event>
 5    0  0.5769463E-005  0.2729964E+03  0.7546771E-02  0.1099577E+00
         21   -1    0    0  502  501  0.00000000000E+00  0.00000000000E+00  0.70968890185E+03  0.70968890185E+03  0.00000000000E+00 0.  1.
         21   -1    0    0  501  502 -0.00000000000E+00 -0.00000000000E+00 -0.10501370529E+03  0.10501370529E+03  0.00000000000E+00 0.  1.
         25    1    1    2    0    0 -0.47967281693E+02  0.17780434568E+02  0.69077368553E+02  0.15170262625E+03  0.12500000000E+03 0.  0.
         25    1    1    2    0    0 -0.10183839891E+03  0.69920776603E+02  0.26668182113E+03  0.31938091398E+03  0.12500000000E+03 0.  0.
         25    1    1    2    0    0  0.14980568060E+03 -0.87701211170E+02  0.26891600688E+03  0.34361906690E+03  0.12500000000E+03 0.  0.
</event>
<event>
 5    0  0.5597833E-005  0.2559940E+03  0.7546771E-02  0.1109574E+00
         21   -1    0    0  502  501  0.00000000000E+00  0.00000000000E+00  0.10008997683E+04  0.10008997683E+04  0.00000000000E+00 0.  1.
         21   -1    0    0  501  502 -0.00000000000E+00 -0.00000000000E+00 -0.65473993486E+02  0.65473993486E+02  0.00000000000E+00 0.  1.
         25    1    1    2    0    0 -0.22780465710E+02  0.31350273002E+02  0.21986235437E+03  0.25586372174E+03  0.12500000000E+03 0.  0.
         25    1    1    2    0    0  0.52723570756E+01  0.89370710678E+02  0.13623493328E+03  0.20542609066E+03  0.12500000000E+03 0.  0.
         25    1    1    2    0    0  0.17508108634E+02 -0.12072098368E+03  0.57932848720E+03  0.60508394942E+03  0.12500000000E+03 0.  0.
</event>
<event>
 5    0  0.5597833E-005  0.2670238E+03  0.7546771E-02  0.1102995E+00
         21   -1    0    0  502  501  0.00000000000E+00  0.00000000000E+00  0.14580221638E+04  0.14580221638E+04  0.00000000000E+00 0.  1.
         21   -1    0    0  501  502 -0.00000000000E+00 -0.00000000000E+00 -0.48903032308E+02  0.48903032308E+02  0.00000000000E+00 0.  1.
         25    1    1    2    0    0 -0.49375472093E+02 -0.12365576636E+03  0.68642155966E+03  0.71030151581E+03  0.12500000000E+03 0.  0.
         25    1    1    2    0    0  0.10915916820E+03  0.44740364710E+02  0.31480917802E+03  0.35867428511E+03  0.12500000000E+03 0.  0.
         25    1    1    2    0    0 -0.59783696104E+02  0.78915401648E+02  0.40788839386E+03  0.43794939523E+03  0.12500000000E+03 0.  0.
</event>
<event>
 5    0  0.5597833E-005  0.2332230E+03  0.7546771E-02  0.1124392E+00
         21   -1    0    0  502  501  0.00000000000E+00  0.00000000000E+00  0.13521981638E+03  0.13521981638E+03  0.00000000000E+00 0. -1.
         21   -1    0    0  501  502 -0.00000000000E+00 -0.00000000000E+00 -0.40225573633E+03  0.40225573633E+03  0.00000000000E+00 0. -1.
         25    1    1    2    0    0  0.88229112312E+02 -0.11682097027E+02 -0.71469614631E+02  0.16927419610E+03  0.12500000000E+03 0.  0.
         25    1    1    2    0    0 -0.77186585700E+02 -0.69103800718E+02 -0.92846657704E+02  0.18702568308E+03  0.12500000000E+03 0.  0.
         25    1    1    2    0    0 -0.11042526612E+02  0.80785897745E+02 -0.10271964761E+03  0.18117567352E+03  0.12500000000E+03 0.  0.
</event>
<event>
 5    0  0.5597833E-005  0.3284086E+03  0.7546771E-02  0.1071843E+00
         21   -1    0    0  502  501  0.00000000000E+00  0.00000000000E+00  0.46554171121E+03  0.46554171121E+03  0.00000000000E+00 0. -1.
         21   -1    0    0  501  502 -0.00000000000E+00 -0.00000000000E+00 -0.23167034257E+03  0.23167034257E+03  0.00000000000E+00 0. -1.
         25    1    1    2    0    0 -0.29206144277E+02  0.94604294016E+02 -0.12441969470E+03  0.20225783480E+03  0.12500000000E+03 0.  0.
         25    1    1    2    0    0 -0.49506380720E+02 -0.71605363841E+02  0.29620368655E+03  0.33307631827E+03  0.12500000000E+03 0.  0.
         25    1    1    2    0    0  0.78712524997E+02 -0.22998930175E+02  0.62087376786E+02  0.16187790071E+03  0.12500000000E+03 0.  0.
</event>
<event>
 5    0  0.5597833E-005  0.3652042E+03  0.7546771E-02  0.1056542E+00
         21   -1    0    0  502  501  0.00000000000E+00  0.00000000000E+00  0.31415392137E+03  0.31415392137E+03  0.00000000000E+00 0.  1.
         21   -1    0    0  501  502 -0.00000000000E+00 -0.00000000000E+00 -0.42455025658E+03  0.42455025658E+03  0.00000000000E+00 0.  1.
         25    1    1    2    0    0  0.89836635967E+02 -0.73020449249E+02  0.22068341326E+02  0.17179819225E+03  0.12500000000E+03 0.  0.
         25    1    1    2    0    0  0.37783440678E+02  0.25353581456E+03 -0.11029637513E+02  0.28540261134E+03  0.12500000000E+03 0.  0.
         25    1    1    2    0    0 -0.12762007664E+03 -0.18051536531E+03 -0.12143503903E+03  0.28150337437E+03  0.12500000000E+03 0.  0.
</event>
<event>
 5    0  0.6225719E-005  0.2937710E+03  0.7546771E-02  0.1088397E+00
         21   -1    0    0  502  501  0.00000000000E+00  0.00000000000E+00  0.16286860892E+03  0.16286860892E+03  0.00000000000E+00 0. -1.
         21   -1    0    0  501  502 -0.00000000000E+00 -0.00000000000E+00 -0.52988341688E+03  0.52988341688E+03  0.00000000000E+00 0. -1.
         25    1    1    2    0    0  0.14629798083E+03  0.46255243154E+02 -0.15201679568E+03  0.24955310634E+03  0.12500000000E+03 0.  0.
         25    1    1    2    0    0 -0.11728151093E+03 -0.11099534918E+03 -0.26144565568E+02  0.20587243296E+03  0.12500000000E+03 0.  0.
         25    1    1    2    0    0 -0.29016469900E+02  0.64740106026E+02 -0.18885344671E+03  0.23732648649E+03  0.12500000000E+03 0.  0.
</event>
<event>
 5    0  0.5913993E-005  0.2862090E+03  0.7546771E-02  0.1092345E+00
         21   -1    0    0  502  501  0.00000000000E+00  0.00000000000E+00  0.99697511083E+03  0.99697511083E+03  0.00000000000E+00 0. -1.
         21   -1    0    0  501  502 -0.00000000000E+00 -0.00000000000E+00 -0.82164123198E+02  0.82164123198E+02  0.00000000000E+00 0. -1.
         25    1    1    2    0    0 -0.12673024106E+03  0.10762157491E+02  0.29212383490E+03  0.34225387207E+03  0.12500000000E+03 0.  0.
         25    1    1    2    0    0  0.33238238867E+02  0.12469619436E+03  0.21813898907E+03  0.28260137998E+03  0.12500000000E+03 0.  0.
         25    1    1    2    0    0  0.93492002195E+02 -0.13545835185E+03  0.40454816366E+03  0.45428398198E+03  0.12500000000E+03 0.  0.
</event>
<event>
 5    0  0.5597833E-005  0.3181707E+03  0.7546771E-02  0.1076494E+00
         21   -1    0    0  502  501  0.00000000000E+00  0.00000000000E+00  0.24765188331E+03  0.24765188331E+03  0.00000000000E+00 0. -1.
         21   -1    0    0  501  502 -0.00000000000E+00 -0.00000000000E+00 -0.40876981311E+03  0.40876981311E+03  0.00000000000E+00 0. -1.
         25    1    1    2    0    0  0.10279047563E+01  0.70950034317E+02 -0.56777711343E+01  0.14384783990E+03  0.12500000000E+03 0.  0.
         25    1    1    2    0    0 -0.33881046400E+02 -0.22982357826E+03 -0.15848001630E+03  0.30774619088E+03  0.12500000000E+03 0.  0.
         25    1    1    2    0    0  0.32853141644E+02  0.15887354395E+03  0.30398576366E+01  0.20482766565E+03  0.12500000000E+03 0.  0.
</event>
<event>
 5    0  0.5597833E-005  0.2404263E+03  0.7546771E-02  0.1119509E+00
         21   -1    0    0  502  501  0.00000000000E+00  0.00000000000E+00  0.56780798073E+02  0.56780798073E+02  0.00000000000E+00 0. -1.
         21   -1    0    0  501  502 -0.00000000000E+00 -0.00000000000E+00 -0.10180346245E+04  0.10180346245E+04  0.00000000000E+00 0. -1.
         25    1    1    2    0    0  0.44403981164E+02  0.23909096644E+02 -0.21557500287E+03  0.25424582653E+03  0.12500000000E+03 0.  0.
         25    1    1    2    0    0 -0.84578923322E+02 -0.70402030482E+02 -0.21522565840E+03  0.27213438629E+03  0.12500000000E+03 0.  0.
         25    1    1    2    0    0  0.40174942158E+02  0.46492933837E+02 -0.53045316513E+03  0.54843520973E+03  0.12500000000E+03 0.  0.
</event>
<event>
 5    0  0.5597833E-005  0.4078609E+03  0.7546771E-02  0.1041091E+00
         21   -1    0    0  502  501  0.00000000000E+00  0.00000000000E+00  0.50642749697E+02  0.50642749697E+02  0.00000000000E+00 0. -1.
         21   -1    0    0  501  502 -0.00000000000E+00 -0.00000000000E+00 -0.32847842149E+04  0.32847842149E+04  0.00000000000E+00 0. -1.
         25    1    1    2    0    0 -0.11571411315E+02  0.48099056367E+02 -0.19129576968E+04  0.19176755634E+04  0.12500000000E+03 0.  0.
         25    1    1    2    0    0  0.12129488318E+03 -0.17991809807E+02 -0.11925662853E+04  0.12053528523E+04  0.12500000000E+03 0.  0.
         25    1    1    2    0    0 -0.10972347186E+03 -0.30107246560E+02 -0.12861748310E+03  0.21239854880E+03  0.12500000000E+03 0.  0.
</event>
<event>
 5    0  0.5597833E-005  0.3738988E+03  0.7546771E-02  0.1053212E+00
         21   -1    0    0  502  501  0.00000000000E+00  0.00000000000E+00  0.18322049888E+03  0.18322049888E+03  0.00000000000E+00 0. -1.
         21   -1    0    0  501  502 -0.00000000000E+00 -0.00000000000E+00 -0.76301664205E+03  0.76301664205E+03  0.00000000000E+00 0. -1.
         25    1    1    2    0    0 -0.19426492321E+03 -0.10683803538E+03 -0.51312839092E+03  0.57278178372E+03  0.12500000000E+03 0.  0.
         25    1    1    2    0    0  0.83406317882E+02  0.54698711430E+01 -0.92176296779E+02  0.17637460997E+03  0.12500000000E+03 0.  0.
         25    1    1    2    0    0  0.11085860532E+03  0.10136816424E+03  0.25508544525E+02  0.19708074726E+03  0.12500000000E+03 0.  0.
</event>
<event>
 5    0  0.5597833E-005  0.5687046E+03  0.7546771E-02  0.9972549E-01
         21   -1    0    0  502  501  0.00000000000E+00  0.00000000000E+00  0.29000009414E+03  0.29000009414E+03  0.00000000000E+00 0. -1.
         21   -1    0    0  501  502 -0.00000000000E+00 -0.00000000000E+00 -0.11152579418E+04  0.11152579418E+04  0.00000000000E+00 0. -1.
         25    1    1    2    0    0  0.65630907875E+02  0.17907934194E+03  0.43513993219E+02  0.23215360084E+03  0.12500000000E+03 0.  0.
         25    1    1    2    0    0  0.64594784932E+02 -0.44061047939E+03 -0.43147463195E+03  0.63253888324E+03  0.12500000000E+03 0.  0.
         25    1    1    2    0    0 -0.13022569281E+03  0.26153113745E+03 -0.43729720891E+03  0.54056555185E+03  0.12500000000E+03 0.  0.
</event>
<event>
 5    0  0.5597833E-005  0.3236785E+03  0.7546771E-02  0.1073969E+00
         21   -1    0    0  502  501  0.00000000000E+00  0.00000000000E+00  0.24389318406E+03  0.24389318406E+03  0.00000000000E+00 0. -1.
         21   -1    0    0  501  502 -0.00000000000E+00 -0.00000000000E+00 -0.42956427904E+03  0.42956427904E+03  0.00000000000E+00 0. -1.
         25    1    1    2    0    0  0.37346515033E+02  0.21050232553E+03 -0.97854450042E+02  0.26628271561E+03  0.12500000000E+03 0.  0.
         25    1    1    2    0    0  0.50392750334E+02 -0.12171885273E+03 -0.13268831435E+03  0.22491353263E+03  0.12500000000E+03 0.  0.
         25    1    1    2    0    0 -0.87739265367E+02 -0.88783472793E+02  0.44871669402E+02  0.18226121486E+03  0.12500000000E+03 0.  0.
</event>
<event>
 5    0  0.5597833E-005  0.5883579E+03  0.7546771E-02  0.9929858E-01
         21   -1    0    0  502  501  0.00000000000E+00  0.00000000000E+00  0.84602775722E+03  0.84602775722E+03  0.00000000000E+00 0. -1.
         21   -1    0    0  501  502 -0.00000000000E+00 -0.00000000000E+00 -0.40916511251E+03  0.40916511251E+03  0.00000000000E+00 0. -1.
         25    1    1    2    0    0 -0.14152001022E+03 -0.26824991058E+03  0.20910410811E+03  0.38901858033E+03  0.12500000000E+03 0.  0.
         25    1    1    2    0    0  0.10925353047E+03 -0.23277483084E+03  0.19829617773E+03  0.34794659058E+03  0.12500000000E+03 0.  0.
         25    1    1    2    0    0  0.32266479750E+02  0.50102474141E+03  0.29462358868E+02  0.51822769881E+03  0.12500000000E+03 0.  0.
</event>
<event>
 5    0  0.5597833E-005  0.3182089E+03  0.7546771E-02  0.1076477E+00
         21   -1    0    0  502  501  0.00000000000E+00  0.00000000000E+00  0.32026299938E+03  0.32026299938E+03  0.00000000000E+00 0. -1.
         21   -1    0    0  501  502 -0.00000000000E+00 -0.00000000000E+00 -0.31616804066E+03  0.31616804066E+03  0.00000000000E+00 0. -1.
         25    1    1    2    0    0 -0.44340927803E+02 -0.19576955411E+02 -0.75144829249E+02  0.15369164071E+03  0.12500000000E+03 0.  0.
         25    1    1    2    0    0 -0.17292205392E+03  0.60282620219E+02  0.25590188703E+02  0.22319473289E+03  0.12500000000E+03 0.  0.
         25    1    1    2    0    0  0.21726298172E+03 -0.40705664808E+02  0.53649599263E+02  0.25954466644E+03  0.12500000000E+03 0.  0.
</event>
<event>
 5    0  0.5597833E-005  0.3687366E+03  0.7546771E-02  0.1055177E+00
         21   -1    0    0  502  501  0.00000000000E+00  0.00000000000E+00  0.13478279217E+04  0.13478279217E+04  0.00000000000E+00 0.  1.
         21   -1    0    0  501  502 -0.00000000000E+00 -0.00000000000E+00 -0.10087838588E+03  0.10087838588E+03  0.00000000000E+00 0.  1.
         25    1    1    2    0    0 -0.14511667763E+03  0.19934413891E+03  0.58830566026E+03  0.65001960411E+03  0.12500000000E+03 0.  0.
         25    1    1    2    0    0  0.11587970930E+03  0.44312588329E+02  0.24427656528E+03  0.30114407325E+03  0.12500000000E+03 0.  0.
         25    1    1    2    0    0  0.29236968333E+02 -0.24365672724E+03  0.41436731026E+03  0.49754263019E+03  0.12500000000E+03 0.  0.
</event>
<event>
 5    0  0.5597833E-005  0.2718479E+03  0.7546771E-02  0.1100227E+00
         21   -1    0    0  502  501  0.00000000000E+00  0.00000000000E+00  0.38913755180E+02  0.38913755180E+02  0.00000000000E+00 0.  1.
         21   -1    0    0  501  502 -0.00000000000E+00 -0.00000000000E+00 -0.18991047188E+04  0.18991047188E+04  0.00000000000E+00 0.  1.
         25    1    1    2    0    0 -0.11620978545E+03  0.19057593315E+02 -0.97324074444E+03  0.98827650622E+03  0.12500000000E+03 0.  0.
         25    1    1    2    0    0  0.92939127587E+02  0.33571496616E+02 -0.69821947014E+03  0.71617047922E+03  0.12500000000E+03 0.  0.
         25    1    1    2    0    0  0.23270657859E+02 -0.52629089932E+02 -0.18873074899E+03  0.23357148850E+03  0.12500000000E+03 0.  0.
</event>
<event>
 5    0  0.5597833E-005  0.3640618E+03  0.7546771E-02  0.1056987E+00
         21   -1    0    0  502  501  0.00000000000E+00  0.00000000000E+00  0.20940634469E+03  0.20940634469E+03  0.00000000000E+00 0.  1.
         21   -1    0    0  501  502 -0.00000000000E+00 -0.00000000000E+00 -0.63293674742E+03  0.63293674742E+03  0.00000000000E+00 0.  1.
         25    1    1    2    0    0 -0.20565862831E+02  0.15536991548E+03 -0.15027906236E+03  0.25054253518E+03  0.12500000000E+03 0.  0.
         25    1    1    2    0    0 -0.11930479738E+03 -0.64471429462E+02 -0.32798591044E+03  0.37628441018E+03  0.12500000000E+03 0.  0.
         25    1    1    2    0    0  0.13987066022E+03 -0.90898486020E+02  0.54734570077E+02  0.21551614675E+03  0.12500000000E+03 0.  0.
</event>
<event>
 5    0  0.5597833E-005  0.2786524E+03  0.7546771E-02  0.1096427E+00
         21   -1    0    0  502  501  0.00000000000E+00  0.00000000000E+00  0.12535506960E+04  0.12535506960E+04  0.00000000000E+00 0. -1.
         21   -1    0    0  501  502 -0.00000000000E+00 -0.00000000000E+00 -0.61941789317E+02  0.61941789317E+02  0.00000000000E+00 0. -1.
         25    1    1    2    0    0 -0.59517435004E+02  0.15426445417E+02  0.37097086116E+03  0.39626339739E+03  0.12500000000E+03 0.  0.
         25    1    1    2    0    0 -0.59995242927E+01 -0.11733856469E+03  0.66146503217E+03  0.68334860931E+03  0.12500000000E+03 0.  0.
         25    1    1    2    0    0  0.65516959296E+02  0.10191211928E+03  0.15917301335E+03  0.23588047861E+03  0.12500000000E+03 0.  0.
</event>
<event>
 5    0  0.5894888E-005  0.3263409E+03  0.7546771E-02  0.1072767E+00
         21   -1    0    0  502  501  0.00000000000E+00  0.00000000000E+00  0.20781365165E+03  0.20781365165E+03  0.00000000000E+00 0. -1.
         21   -1    0    0  501  502 -0.00000000000E+00 -0.00000000000E+00 -0.51247057269E+03  0.51247057269E+03  0.00000000000E+00 0. -1.
         25    1    1    2    0    0  0.13509361270E+03 -0.13448454224E+03 -0.23087861757E+03  0.32444770356E+03  0.12500000000E+03 0.  0.
         25    1    1    2    0    0 -0.15216615821E+03 -0.97601745161E+01 -0.41917427794E+02  0.20157348899E+03  0.12500000000E+03 0.  0.
         25    1    1    2    0    0  0.17072545511E+02  0.14424471675E+03 -0.31860875668E+02  0.19426303179E+03  0.12500000000E+03 0.  0.
</event>
<event>
 5    0  0.5597833E-005  0.4031986E+03  0.7546771E-02  0.1042678E+00
         21   -1    0    0  502  501  0.00000000000E+00  0.00000000000E+00  0.51402522526E+03  0.51402522526E+03  0.00000000000E+00 0.  1.
         21   -1    0    0  501  502 -0.00000000000E+00 -0.00000000000E+00 -0.31626683550E+03  0.31626683550E+03  0.00000000000E+00 0.  1.
         25    1    1    2    0    0 -0.96781692316E+02 -0.22830606170E+03 -0.15187424961E+03  0.31651404625E+03  0.12500000000E+03 0.  0.
         25    1    1    2    0    0  0.10645082103E+03  0.12957887574E+03  0.24869091181E+03  0.32495327657E+03  0.12500000000E+03 0.  0.
         25    1    1    2    0    0 -0.96691287184E+01  0.98727185964E+02  0.10094172756E+03  0.18882473795E+03  0.12500000000E+03 0.  0.
</event>
<event>
 5    0  0.5597833E-005  0.2505814E+03  0.7546771E-02  0.1112938E+00
         21   -1    0    0  502  501  0.00000000000E+00  0.00000000000E+00  0.88540996168E+03  0.88540996168E+03  0.00000000000E+00 0.  1.
         21   -1    0    0  501  502 -0.00000000000E+00 -0.00000000000E+00 -0.70917474575E+02  0.70917474575E+02  0.00000000000E+00 0.  1.
         25    1    1    2    0    0 -0.30806878778E+02  0.47058891916E+02  0.42492448318E+03  0.44648563190E+03  0.12500000000E+03 0.  0.
         25    1    1    2    0    0 -0.30813001408E+02  0.77427006324E+01  0.49293862878E+02  0.13807344200E+03  0.12500000000E+03 0.  0.
         25    1    1    2    0    0  0.61619880186E+02 -0.54801592549E+02  0.34027414104E+03  0.37176836235E+03  0.12500000000E+03 0.  0.
</event>
<event>
 5    0  0.5597833E-005  0.2176964E+03  0.7546771E-02  0.1135612E+00
         21   -1    0    0  502  501  0.00000000000E+00  0.00000000000E+00  0.23880964869E+03  0.23880964869E+03  0.00000000000E+00 0.  1.
         21   -1    0    0  501  502 -0.00000000000E+00 -0.00000000000E+00 -0.19844981803E+03  0.19844981803E+03  0.00000000000E+00 0.  1.
         25    1    1    2    0    0 -0.18707429102E+02 -0.44462365517E+02  0.16646330635E+02  0.13501470355E+03  0.12500000000E+03 0.  0.
         25    1    1    2    0    0  0.87539771815E+02  0.22817940141E+02  0.32349591936E+02  0.15765584715E+03  0.12500000000E+03 0.  0.
         25    1    1    2    0    0 -0.68832342713E+02  0.21644425377E+02 -0.86360919077E+01  0.14458891602E+03  0.12500000000E+03 0.  0.
</event>
<event>
 5    0  0.5597833E-005  0.2413964E+03  0.7546771E-02  0.1118866E+00
         21   -1    0    0  502  501  0.00000000000E+00  0.00000000000E+00  0.11549774452E+03  0.11549774452E+03  0.00000000000E+00 0. -1.
         21   -1    0    0  501  502 -0.00000000000E+00 -0.00000000000E+00 -0.50453131590E+03  0.50453131590E+03  0.00000000000E+00 0. -1.
         25    1    1    2    0    0 -0.50027730596E+02  0.33959658199E+02 -0.25139926276E+03  0.28719787870E+03  0.12500000000E+03 0.  0.
         25    1    1    2    0    0 -0.53227719330E+02 -0.33743428507E+02 -0.50882402260E+02  0.14894907832E+03  0.12500000000E+03 0.  0.
         25    1    1    2    0    0  0.10325544993E+03 -0.21622969199E+00 -0.86751906360E+02  0.18388210340E+03  0.12500000000E+03 0.  0.
</event>
<event>
 5    0  0.5597833E-005  0.3286209E+03  0.7546771E-02  0.1071749E+00
         21   -1    0    0  502  501  0.00000000000E+00  0.00000000000E+00  0.61782586129E+03  0.61782586129E+03  0.00000000000E+00 0. -1.
         21   -1    0    0  501  502 -0.00000000000E+00 -0.00000000000E+00 -0.17479309463E+03  0.17479309463E+03  0.00000000000E+00 0. -1.
         25    1    1    2    0    0  0.56549714994E+02  0.16753367211E+03  0.67025436005E+02  0.22667776827E+03  0.12500000000E+03 0.  0.
         25    1    1    2    0    0 -0.14836619673E+03 -0.11223313239E+03  0.32263662722E+03  0.39284627727E+03  0.12500000000E+03 0.  0.
         25    1    1    2    0    0  0.91816481734E+02 -0.55300539729E+02  0.53370703429E+02  0.17309491037E+03  0.12500000000E+03 0.  0.
</event>
<event>
 5    0  0.5597833E-005  0.4716487E+03  0.7546771E-02  0.1021456E+00
         21   -1    0    0  502  501  0.00000000000E+00  0.00000000000E+00  0.27524643299E+03  0.27524643299E+03  0.00000000000E+00 0.  1.
         21   -1    0    0  501  502 -0.00000000000E+00 -0.00000000000E+00 -0.80819390635E+03  0.80819390635E+03  0.00000000000E+00 0.  1.
         25    1    1    2    0    0 -0.55244903787E+02 -0.20390095513E+03 -0.15154056443E+03  0.28847381435E+03  0.12500000000E+03 0.  0.
         25    1    1    2    0    0 -0.10427859468E+01 -0.21895369553E+03 -0.15701834953E+03  0.29702116133E+03  0.12500000000E+03 0.  0.
         25    1    1    2    0    0  0.56287689734E+02  0.42285465066E+03 -0.22438855941E+03  0.49794536366E+03  0.12500000000E+03 0.  0.
</event>
<event>
 5    0  0.5597833E-005  0.2555419E+03  0.7546771E-02  0.1109852E+00
         21   -1    0    0  502  501  0.00000000000E+00  0.00000000000E+00  0.10505857473E+03  0.10505857473E+03  0.00000000000E+00 0.  1.
         21   -1    0    0  501  502 -0.00000000000E+00 -0.00000000000E+00 -0.62157393911E+03  0.62157393911E+03  0.00000000000E+00 0.  1.
         25    1    1    2    0    0 -0.13545724859E+02 -0.11858820491E+03 -0.21020671378E+03  0.27213693524E+03  0.12500000000E+03 0.  0.
         25    1    1    2    0    0 -0.67009175447E+02 -0.51201564497E+01 -0.11856257660E+03  0.18492844607E+03  0.12500000000E+03 0.  0.
         25    1    1    2    0    0  0.80554900306E+02  0.12370836136E+03 -0.18774607400E+03  0.26956713252E+03  0.12500000000E+03 0.  0.
</event>
<event>
 5    0  0.5597833E-005  0.3049935E+03  0.7546771E-02  0.1082771E+00
         21   -1    0    0  502  501  0.00000000000E+00  0.00000000000E+00  0.13279452876E+04  0.13279452876E+04  0.00000000000E+00 0. -1.
         21   -1    0    0  501  502 -0.00000000000E+00 -0.00000000000E+00 -0.70048860313E+02  0.70048860313E+02  0.00000000000E+00 0. -1.
         25    1    1    2    0    0  0.11642459021E+02  0.16467995079E+03  0.28352272816E+03  0.35109139897E+03  0.12500000000E+03 0.  0.
         25    1    1    2    0    0  0.18405163439E+02 -0.11080261032E+03  0.20535103445E+03  0.26534885688E+03  0.12500000000E+03 0.  0.
         25    1    1    2    0    0 -0.30047622459E+02 -0.53877340470E+02  0.76902266465E+03  0.78155389205E+03  0.12500000000E+03 0.  0.
</event>
<event>
 5    0  0.5597833E-005  0.3072562E+03  0.7546771E-02  0.1081669E+00
         21   -1    0    0  502  501  0.00000000000E+00  0.00000000000E+00  0.28035108215E+03  0.28035108215E+03  0.00000000000E+00 0.  1.
         21   -1    0    0  501  502 -0.00000000000E+00 -0.00000000000E+00 -0.33674328895E+03  0.33674328895E+03  0.00000000000E+00 0.  1.
         25    1    1    2    0    0 -0.16046309209E+02  0.41049298831E+02  0.91741566283E+02  0.16119566979E+03  0.12500000000E+03 0.  0.
         25    1    1    2    0    0 -0.13316574615E+03  0.60679699630E+02 -0.13651759993E+03  0.23596015974E+03  0.12500000000E+03 0.  0.
         25    1    1    2    0    0  0.14921205536E+03 -0.10172899846E+03 -0.11616173148E+02  0.21993854158E+03  0.12500000000E+03 0.  0.
</event>
<event>
 5    0  0.5597833E-005  0.5097730E+03  0.7546771E-02  0.1011259E+00
         21   -1    0    0  502  501  0.00000000000E+00  0.00000000000E+00  0.41750347073E+03  0.41750347073E+03  0.00000000000E+00 0. -1.
         21   -1    0    0  501  502 -0.00000000000E+00 -0.00000000000E+00 -0.62243430233E+03  0.62243430233E+03  0.00000000000E+00 0. -1.
         25    1    1    2    0    0 -0.22308511200E+03  0.15975408559E+02  0.97289340313E+02  0.27406640913E+03  0.12500000000E+03 0.  0.
         25    1    1    2    0    0  0.28295651619E+03  0.93106229851E+02 -0.43732141050E+03  0.54369860785E+03  0.12500000000E+03 0.  0.
         25    1    1    2    0    0 -0.59871404184E+02 -0.10908163841E+03  0.13510123859E+03  0.22217275608E+03  0.12500000000E+03 0.  0.
</event>
<event>
 5    0  0.5597833E-005  0.3875962E+03  0.7546771E-02  0.1048161E+00
         21   -1    0    0  502  501  0.00000000000E+00  0.00000000000E+00  0.13412254601E+03  0.13412254601E+03  0.00000000000E+00 0. -1.
         21   -1    0    0  501  502 -0.00000000000E+00 -0.00000000000E+00 -0.11201008979E+04  0.11201008979E+04  0.00000000000E+00 0. -1.
         25    1    1    2    0    0  0.10942439264E+03 -0.11595157013E+03 -0.69277854920E+03  0.72179331013E+03  0.12500000000E+03 0.  0.
         25    1    1    2    0    0 -0.17560133186E+03 -0.49351901199E+02 -0.10508583479E+03  0.24482538794E+03  0.12500000000E+03 0.  0.
         25    1    1    2    0    0  0.66176939227E+02  0.16530347132E+03 -0.18811396793E+03  0.28760474587E+03  0.12500000000E+03 0.  0.
</event>
<event>
 5    0  0.5597833E-005  0.2378669E+03  0.7546771E-02  0.1121222E+00
         21   -1    0    0  502  501  0.00000000000E+00  0.00000000000E+00  0.31484940894E+03  0.31484940894E+03  0.00000000000E+00 0.  1.
         21   -1    0    0  501  502 -0.00000000000E+00 -0.00000000000E+00 -0.17970712002E+03  0.17970712002E+03  0.00000000000E+00 0.  1.
         25    1    1    2    0    0 -0.40479362384E+02 -0.12107483532E+03  0.89340543846E+02  0.19976092536E+03  0.12500000000E+03 0.  0.
         25    1    1    2    0    0  0.33372811161E+02  0.97245934343E+02  0.88251572865E+01  0.16209071433E+03  0.12500000000E+03 0.  0.
         25    1    1    2    0    0  0.71065512232E+01  0.23828900974E+02  0.36976587788E+02  0.13270488927E+03  0.12500000000E+03 0.  0.
</event>
<event>
 5    0  0.5597833E-005  0.3056139E+03  0.7546771E-02  0.1082467E+00
         21   -1    0    0  502  501  0.00000000000E+00  0.00000000000E+00  0.67697590627E+03  0.67697590627E+03  0.00000000000E+00 0.  1.
         21   -1    0    0  501  502 -0.00000000000E+00 -0.00000000000E+00 -0.13796631392E+03  0.13796631392E+03  0.00000000000E+00 0.  1.
         25    1    1    2    0    0  0.16362916417E+03  0.51730913376E+02  0.76424755948E+02  0.22564648033E+03  0.12500000000E+03 0.  0.
         25    1    1    2    0    0  0.25721331423E+01 -0.31115233969E+01  0.28610424613E+03  0.31224499532E+03  0.12500000000E+03 0.  0.
         25    1    1    2    0    0 -0.16620129731E+03 -0.48619389979E+02  0.17648059027E+03  0.27705074455E+03  0.12500000000E+03 0.  0.
</event>
<event>
 5    0  0.5597833E-005  0.4068467E+03  0.7546771E-02  0.1041434E+00
         21   -1    0    0  502  501  0.00000000000E+00  0.00000000000E+00  0.21460491948E+03  0.21460491948E+03  0.00000000000E+00 0.  1.
         21   -1    0    0  501  502 -0.00000000000E+00 -0.00000000000E+00 -0.77129744806E+03  0.77129744806E+03  0.00000000000E+00 0.  1.
         25    1    1    2    0    0  0.12830328712E+03 -0.14760666148E+03 -0.35879341207E+03  0.42732560483E+03  0.12500000000E+03 0.  0.
         25    1    1    2    0    0  0.28548544740E+02 -0.44555135019E+02 -0.24186671693E+03  0.27735300291E+03  0.12500000000E+03 0.  0.
         25    1    1    2    0    0 -0.15685183186E+03  0.19216179649E+03  0.43967600416E+02  0.28122375980E+03  0.12500000000E+03 0.  0.
</event>
<event>
 5    0  0.5597833E-005  0.4126037E+03  0.7546771E-02  0.1039501E+00
         21   -1    0    0  502  501  0.00000000000E+00  0.00000000000E+00  0.18875629717E+03  0.18875629717E+03  0.00000000000E+00 0. -1.
         21   -1    0    0  501  502 -0.00000000000E+00 -0.00000000000E+00 -0.90191321876E+03  0.90191321876E+03  0.00000000000E+00 0. -1.
         25    1    1    2    0    0 -0.27363641293E+03 -0.22515221067E+02 -0.14426554420E+03  0.33439702287E+03  0.12500000000E+03 0.  0.
         25    1    1    2    0    0  0.45949952932E+01 -0.28035128706E+02 -0.19230516479E+02  0.12962212461E+03  0.12500000000E+03 0.  0.
         25    1    1    2    0    0  0.26904141764E+03  0.50550349773E+02 -0.54966086091E+03  0.62665036846E+03  0.12500000000E+03 0.  0.
</event>
<event>
 5    0  0.5597833E-005  0.4714834E+03  0.7546771E-02  0.1021502E+00
         21   -1    0    0  502  501  0.00000000000E+00  0.00000000000E+00  0.18383521072E+04  0.18383521072E+04  0.00000000000E+00 0.  1.
         21   -1    0    0  501  502 -0.00000000000E+00 -0.00000000000E+00 -0.12092165349E+03  0.12092165349E+03  0.00000000000E+00 0.  1.
         25    1    1    2    0    0 -0.33686741568E+03 -0.74123604514E+02  0.92602845752E+03  0.99605605697E+03  0.12500000000E+03 0.  0.
         25    1    1    2    0    0  0.22659349948E+03  0.23423048908E+02  0.73579691504E+03  0.78033028482E+03  0.12500000000E+03 0.  0.
         25    1    1    2    0    0  0.11027391620E+03  0.50700555606E+02  0.55605081129E+02  0.18288741887E+03  0.12500000000E+03 0.  0.
</event>
<event>
 5    0  0.5597833E-005  0.5484694E+03  0.7546771E-02  0.1001849E+00
         21   -1    0    0  502  501  0.00000000000E+00  0.00000000000E+00  0.25137837643E+03  0.25137837643E+03  0.00000000000E+00 0. -1.
         21   -1    0    0  501  502 -0.00000000000E+00 -0.00000000000E+00 -0.11966770284E+04  0.11966770284E+04  0.00000000000E+00 0. -1.
         25    1    1    2    0    0  0.22404470790E+03 -0.34418175494E+03 -0.40523997799E+03  0.59034019965E+03  0.12500000000E+03 0.  0.
         25    1    1    2    0    0 -0.10492340722E+02  0.21270654509E+03 -0.52136223884E+03  0.57688625190E+03  0.12500000000E+03 0.  0.
         25    1    1    2    0    0 -0.21355236717E+03  0.13147520985E+03 -0.18696435170E+02  0.28082895331E+03  0.12500000000E+03 0.  0.
</event>
<event>
 5    0  0.5597833E-005  0.4949185E+03  0.7546771E-02  0.1015114E+00
         21   -1    0    0  502  501  0.00000000000E+00  0.00000000000E+00  0.13811017711E+03  0.13811017711E+03  0.00000000000E+00 0.  1.
         21   -1    0    0  501  502 -0.00000000000E+00 -0.00000000000E+00 -0.17735426861E+04  0.17735426861E+04  0.00000000000E+00 0.  1.
         25    1    1    2    0    0  0.38472444730E+02 -0.11664903140E+02 -0.38828920025E+03  0.40988986569E+03  0.12500000000E+03 0.  0.
         25    1    1    2    0    0 -0.25766720657E+03  0.60315579474E+02 -0.75475351997E+02  0.30224474723E+03  0.12500000000E+03 0.  0.
         25    1    1    2    0    0  0.21919476184E+03 -0.48650676334E+02 -0.11716679568E+04  0.11995182503E+04  0.12500000000E+03 0.  0.
</event>
<event>
 5    0  0.5597833E-005  0.2363474E+03  0.7546771E-02  0.1122250E+00
         21   -1    0    0  502  501  0.00000000000E+00  0.00000000000E+00  0.43565786307E+03  0.43565786307E+03  0.00000000000E+00 0.  1.
         21   -1    0    0  501  502 -0.00000000000E+00 -0.00000000000E+00 -0.12822010683E+03  0.12822010683E+03  0.00000000000E+00 0.  1.
         25    1    1    2    0    0  0.17359236788E+02 -0.32818276917E+02 -0.24255172533E+02  0.13263369028E+03  0.12500000000E+03 0.  0.
         25    1    1    2    0    0 -0.23638287490E+02 -0.12729405940E+02  0.93672629230E+02  0.15849406259E+03  0.12500000000E+03 0.  0.
         25    1    1    2    0    0  0.62790507017E+01  0.45547682857E+02  0.23802029955E+03  0.27275021703E+03  0.12500000000E+03 0.  0.
</event>
<event>
 5    0  0.5597833E-005  0.3853552E+03  0.7546771E-02  0.1048972E+00
         21   -1    0    0  502  501  0.00000000000E+00  0.00000000000E+00  0.10774141996E+03  0.10774141996E+03  0.00000000000E+00 0. -1.
         21   -1    0    0  501  502 -0.00000000000E+00 -0.00000000000E+00 -0.13782874976E+04  0.13782874976E+04  0.00000000000E+00 0. -1.
         25    1    1    2    0    0 -0.51428159314E+02  0.31248691632E+03 -0.67931637681E+03  0.75986095323E+03  0.12500000000E+03 0.  0.
         25    1    1    2    0    0 -0.27241801799E+02 -0.98369093228E+02 -0.21770341488E+03  0.27099514962E+03  0.12500000000E+03 0.  0.
         25    1    1    2    0    0  0.78669961113E+02 -0.21411782309E+03 -0.37352628594E+03  0.45517281469E+03  0.12500000000E+03 0.  0.
</event>
<event>
 5    0  0.5597833E-005  0.2643980E+03  0.7546771E-02  0.1104529E+00
         21   -1    0    0  502  501  0.00000000000E+00  0.00000000000E+00  0.82200534193E+02  0.82200534193E+02  0.00000000000E+00 0.  1.
         21   -1    0    0  501  502 -0.00000000000E+00 -0.00000000000E+00 -0.85043638217E+03  0.85043638217E+03  0.00000000000E+00 0.  1.
         25    1    1    2    0    0  0.11164193875E+03  0.73135566052E+01 -0.36007009088E+03  0.39723152058E+03  0.12500000000E+03 0.  0.
         25    1    1    2    0    0 -0.97266454251E+02  0.88993539922E+01 -0.37055567290E+03  0.40308369893E+03  0.12500000000E+03 0.  0.
         25    1    1    2    0    0 -0.14375484503E+02 -0.16212910597E+02 -0.37610084203E+02  0.13232169685E+03  0.12500000000E+03 0.  0.
</event>
<event>
 5    0  0.5597833E-005  0.2772877E+03  0.7546771E-02  0.1097180E+00
         21   -1    0    0  502  501  0.00000000000E+00  0.00000000000E+00  0.10266196229E+03  0.10266196229E+03  0.00000000000E+00 0.  1.
         21   -1    0    0  501  502 -0.00000000000E+00 -0.00000000000E+00 -0.74894816694E+03  0.74894816694E+03  0.00000000000E+00 0.  1.
         25    1    1    2    0    0  0.65028960211E+02 -0.13371520894E+03 -0.21379428782E+03  0.28886245910E+03  0.12500000000E+03 0.  0.
         25    1    1    2    0    0  0.16415928467E+02 -0.31122479541E+02 -0.10539815571E+03  0.16724790781E+03  0.12500000000E+03 0.  0.
         25    1    1    2    0    0 -0.81444888679E+02  0.16483768848E+03 -0.32709376112E+03  0.39549976233E+03  0.12500000000E+03 0.  0.
</event>
<event>
 5    0  0.5597833E-005  0.2833821E+03  0.7546771E-02  0.1093856E+00
         21   -1    0    0  502  501  0.00000000000E+00  0.00000000000E+00  0.81551410750E+02  0.81551410750E+02  0.00000000000E+00 0.  1.
         21   -1    0    0  501  502 -0.00000000000E+00 -0.00000000000E+00 -0.98472165995E+03  0.98472165995E+03  0.00000000000E+00 0.  1.
         25    1    1    2    0    0  0.13382043837E+03 -0.11293754455E+02 -0.44574858924E+03  0.48202931802E+03  0.12500000000E+03 0.  0.
         25    1    1    2    0    0 -0.22387066562E+02  0.93722616099E+02 -0.30441604566E+03  0.34289829158E+03  0.12500000000E+03 0.  0.
         25    1    1    2    0    0 -0.11143337181E+03 -0.82428861644E+02 -0.15300561430E+03  0.24134546110E+03  0.12500000000E+03 0.  0.
</event>
<event>
 5    0  0.5597833E-005  0.2542991E+03  0.7546771E-02  0.1110618E+00
         21   -1    0    0  502  501  0.00000000000E+00  0.00000000000E+00  0.17249738457E+03  0.17249738457E+03  0.00000000000E+00 0.  1.
         21   -1    0    0  501  502 -0.00000000000E+00 -0.00000000000E+00 -0.37489290868E+03  0.37489290868E+03  0.00000000000E+00 0.  1.
         25    1    1    2    0    0  0.35471514668E+02  0.70290000417E+02 -0.12429702051E+03  0.19306388015E+03  0.12500000000E+03 0.  0.
         25    1    1    2    0    0  0.80359271025E+02 -0.81025056842E+02 -0.70650444879E+02  0.18340980791E+03  0.12500000000E+03 0.  0.
         25    1    1    2    0    0 -0.11583078569E+03  0.10735056425E+02 -0.74480587130E+01  0.17091660519E+03  0.12500000000E+03 0.  0.
</event>
<event>
 5    0  0.5597833E-005  0.2717981E+03  0.7546771E-02  0.1100255E+00
         21   -1    0    0  502  501  0.00000000000E+00  0.00000000000E+00  0.17904098565E+03  0.17904098565E+03  0.00000000000E+00 0. -1.
         21   -1    0    0  501  502 -0.00000000000E+00 -0.00000000000E+00 -0.41261064692E+03  0.41261064692E+03  0.00000000000E+00 0. -1.
         25    1    1    2    0    0 -0.19242086527E+02 -0.11356825961E+03 -0.15967363660E+03  0.23321380257E+03  0.12500000000E+03 0.  0.
         25    1    1    2    0    0 -0.67796666458E+02 -0.20423714894E+02 -0.58076163645E+02  0.15495598374E+03  0.12500000000E+03 0.  0.
         25    1    1    2    0    0  0.87038752985E+02  0.13399197451E+03 -0.15819861032E+02  0.20348184626E+03  0.12500000000E+03 0.  0.
</event>
<event>
 5    0  0.5597833E-005  0.3132968E+03  0.7546771E-02  0.1078776E+00
         21   -1    0    0  502  501  0.00000000000E+00  0.00000000000E+00  0.42183385897E+03  0.42183385897E+03  0.00000000000E+00 0.  1.
         21   -1    0    0  501  502 -0.00000000000E+00 -0.00000000000E+00 -0.23268607214E+03  0.23268607214E+03  0.00000000000E+00 0.  1.
         25    1    1    2    0    0  0.21449581521E+03  0.46579421644E+02  0.27710198838E+02  0.25410815096E+03  0.12500000000E+03 0.  0.
         25    1    1    2    0    0 -0.15641722883E+03 -0.23446041116E+02  0.21674592934E+02  0.20275811771E+03  0.12500000000E+03 0.  0.
         25    1    1    2    0    0 -0.58078586376E+02 -0.23133380527E+02  0.13976299505E+03  0.19765366244E+03  0.12500000000E+03 0.  0.
</event>
<event>
 5    0  0.5597833E-005  0.2484986E+03  0.7546771E-02  0.1114257E+00
         21   -1    0    0  502  501  0.00000000000E+00  0.00000000000E+00  0.50674949795E+03  0.50674949795E+03  0.00000000000E+00 0. -1.
         21   -1    0    0  501  502 -0.00000000000E+00 -0.00000000000E+00 -0.12185817276E+03  0.12185817276E+03  0.00000000000E+00 0. -1.
         25    1    1    2    0    0 -0.96785726945E+01  0.30180976220E+01  0.33692210277E+03  0.35950561473E+03  0.12500000000E+03 0.  0.
         25    1    1    2    0    0  0.15266260716E+01 -0.28567522491E+02 -0.10218393945E+02  0.12863844489E+03  0.12500000000E+03 0.  0.
         25    1    1    2    0    0  0.81519466229E+01  0.25549424869E+02  0.58187616360E+02  0.14046361110E+03  0.12500000000E+03 0.  0.
</event>
<event>
 5    0  0.5597833E-005  0.3445584E+03  0.7546771E-02  0.1064871E+00
         21   -1    0    0  502  501  0.00000000000E+00  0.00000000000E+00  0.18396851206E+03  0.18396851206E+03  0.00000000000E+00 0. -1.
         21   -1    0    0  501  502 -0.00000000000E+00 -0.00000000000E+00 -0.64533056877E+03  0.64533056877E+03  0.00000000000E+00 0. -1.
         25    1    1    2    0    0  0.86136147850E+02  0.61584475728E+02 -0.14690223024E+03  0.22003942571E+03  0.12500000000E+03 0.  0.
         25    1    1    2    0    0 -0.82949623498E+02 -0.13886410457E+03  0.54948670216E+02  0.21167955956E+03  0.12500000000E+03 0.  0.
         25    1    1    2    0    0 -0.31865243520E+01  0.77279628841E+02 -0.36940849667E+03  0.39758009556E+03  0.12500000000E+03 0.  0.
</event>
<event>
 5    0  0.6749828E-005  0.2888941E+03  0.7546771E-02  0.1090928E+00
         21   -1    0    0  502  501  0.00000000000E+00  0.00000000000E+00  0.44810077598E+03  0.44810077598E+03  0.00000000000E+00 0.  1.
         21   -1    0    0  501  502 -0.00000000000E+00 -0.00000000000E+00 -0.18625229063E+03  0.18625229063E+03  0.00000000000E+00 0.  1.
         25    1    1    2    0    0 -0.10437749347E+03  0.21584682888E+02  0.87676454666E+02  0.18620612337E+03  0.12500000000E+03 0.  0.
         25    1    1    2    0    0 -0.46354651761E+02 -0.81996303285E+02 -0.29445559025E+02  0.15926138402E+03  0.12500000000E+03 0.  0.
         25    1    1    2    0    0  0.15073214523E+03  0.60411620397E+02  0.20361758971E+03  0.28888555922E+03  0.12500000000E+03 0.  0.
</event>
<event>
 5    0  0.5597833E-005  0.2492553E+03  0.7546771E-02  0.1113776E+00
         21   -1    0    0  502  501  0.00000000000E+00  0.00000000000E+00  0.15331439489E+03  0.15331439489E+03  0.00000000000E+00 0. -1.
         21   -1    0    0  501  502 -0.00000000000E+00 -0.00000000000E+00 -0.40523412951E+03  0.40523412951E+03  0.00000000000E+00 0. -1.
         25    1    1    2    0    0 -0.83338251132E+02  0.38252106055E+02 -0.10029492424E+03  0.18464170587E+03  0.12500000000E+03 0.  0.
         25    1    1    2    0    0  0.69216382349E+01  0.50053129952E+02  0.14312947171E+02  0.13558423710E+03  0.12500000000E+03 0.  0.
         25    1    1    2    0    0  0.76416612897E+02 -0.88305236007E+02 -0.16593775755E+03  0.23832258142E+03  0.12500000000E+03 0.  0.
</event>
<event>
 5    0  0.5597833E-005  0.3164585E+03  0.7546771E-02  0.1077291E+00
         21   -1    0    0  502  501  0.00000000000E+00  0.00000000000E+00  0.82682742067E+03  0.82682742067E+03  0.00000000000E+00 0. -1.
         21   -1    0    0  501  502 -0.00000000000E+00 -0.00000000000E+00 -0.12112078095E+03  0.12112078095E+03  0.00000000000E+00 0. -1.
         25    1    1    2    0    0 -0.39070590514E+02  0.61545315835E+02  0.54061163678E+03  0.55964299224E+03  0.12500000000E+03 0.  0.
         25    1    1    2    0    0 -0.69608712603E+02 -0.96946305558E+02  0.12759488120E+03  0.21482414376E+03  0.12500000000E+03 0.  0.
         25    1    1    2    0    0  0.10867930312E+03  0.35400989723E+02  0.37500121741E+02  0.17348106562E+03  0.12500000000E+03 0.  0.
</event>
<event>
 5    0  0.5597833E-005  0.3092411E+03  0.7546771E-02  0.1080710E+00
         21   -1    0    0  502  501  0.00000000000E+00  0.00000000000E+00  0.20234936895E+04  0.20234936895E+04  0.00000000000E+00 0. -1.
         21   -1    0    0  501  502 -0.00000000000E+00 -0.00000000000E+00 -0.47259861268E+02  0.47259861268E+02  0.00000000000E+00 0. -1.
         25    1    1    2    0    0  0.10460099707E+03  0.37430460075E+02  0.21302091490E+03  0.27082340762E+03  0.12500000000E+03 0.  0.
         25    1    1    2    0    0  0.44023751243E+02  0.13460894845E+01  0.37644728225E+03  0.39909580171E+03  0.12500000000E+03 0.  0.
         25    1    1    2    0    0 -0.14862474831E+03 -0.38776549559E+02  0.13867656311E+04  0.14008343415E+04  0.12500000000E+03 0.  0.
</event>
<event>
 5    0  0.5597833E-005  0.2889172E+03  0.7546771E-02  0.1090916E+00
         21   -1    0    0  502  501  0.00000000000E+00  0.00000000000E+00  0.34730898153E+03  0.34730898153E+03  0.00000000000E+00 0. -1.
         21   -1    0    0  501  502 -0.00000000000E+00 -0.00000000000E+00 -0.24034263793E+03  0.24034263793E+03  0.00000000000E+00 0. -1.
         25    1    1    2    0    0  0.66063689359E+02  0.12824594540E+03 -0.33444996299E+02  0.19379112812E+03  0.12500000000E+03 0.  0.
         25    1    1    2    0    0 -0.11622587451E+03 -0.15311822015E+03  0.10612237999E+03  0.25266698000E+03  0.12500000000E+03 0.  0.
         25    1    1    2    0    0  0.50162185156E+02  0.24872274753E+02  0.34288959907E+02  0.14119351133E+03  0.12500000000E+03 0.  0.
</event>
<event>
 5    0  0.5597833E-005  0.2626534E+03  0.7546771E-02  0.1105559E+00
         21   -1    0    0  502  501  0.00000000000E+00  0.00000000000E+00  0.42683647864E+03  0.42683647864E+03  0.00000000000E+00 0.  1.
         21   -1    0    0  501  502 -0.00000000000E+00 -0.00000000000E+00 -0.16162355769E+03  0.16162355769E+03  0.00000000000E+00 0.  1.
         25    1    1    2    0    0 -0.63402919966E+02 -0.22559637220E+02  0.71675822185E+01  0.14214514317E+03  0.12500000000E+03 0.  0.
         25    1    1    2    0    0  0.83183868300E+02 -0.25815614729E+02  0.27029664142E+03  0.31027612907E+03  0.12500000000E+03 0.  0.
         25    1    1    2    0    0 -0.19780948333E+02  0.48375251949E+02 -0.12251302680E+02  0.13603876409E+03  0.12500000000E+03 0.  0.
</event>
<event>
 5    0  0.5597833E-005  0.2991606E+03  0.7546771E-02  0.1085661E+00
         21   -1    0    0  502  501  0.00000000000E+00  0.00000000000E+00  0.11635233872E+03  0.11635233872E+03  0.00000000000E+00 0. -1.
         21   -1    0    0  501  502 -0.00000000000E+00 -0.00000000000E+00 -0.76919002270E+03  0.76919002270E+03  0.00000000000E+00 0. -1.
         25    1    1    2    0    0  0.20150616474E+02 -0.11208039604E+03 -0.21307416801E+03  0.27201776338E+03  0.12500000000E+03 0.  0.
         25    1    1    2    0    0  0.46895374461E+02 -0.41960398509E+02 -0.36544834356E+03  0.39132766705E+03  0.12500000000E+03 0.  0.
         25    1    1    2    0    0 -0.67045990935E+02  0.15404079455E+03 -0.74315172408E+02  0.22219693098E+03  0.12500000000E+03 0.  0.
</event>
<event>
 5    0  0.5597833E-005  0.2421595E+03  0.7546771E-02  0.1118363E+00
         21   -1    0    0  502  501  0.00000000000E+00  0.00000000000E+00  0.30558901529E+03  0.30558901529E+03  0.00000000000E+00 0. -1.
         21   -1    0    0  501  502 -0.00000000000E+00 -0.00000000000E+00 -0.19189567876E+03  0.19189567876E+03  0.00000000000E+00 0. -1.
         25    1    1    2    0    0  0.13420234976E+02 -0.11792329028E+03  0.80623570234E+02  0.19029231507E+03  0.12500000000E+03 0.  0.
         25    1    1    2    0    0  0.10198585882E+02 -0.27160954692E+01  0.40199849375E+02  0.13172857024E+03  0.12500000000E+03 0.  0.
         25    1    1    2    0    0 -0.23618820857E+02  0.12063938575E+03 -0.71300830850E+01  0.17546380874E+03  0.12500000000E+03 0.  0.
</event>
<event>
 5    0  0.5597833E-005  0.2592694E+03  0.7546771E-02  0.1107583E+00
         21   -1    0    0  502  501  0.00000000000E+00  0.00000000000E+00  0.12344778010E+03  0.12344778010E+03  0.00000000000E+00 0.  1.
         21   -1    0    0  501  502 -0.00000000000E+00 -0.00000000000E+00 -0.54452663764E+03  0.54452663764E+03  0.00000000000E+00 0.  1.
         25    1    1    2    0    0 -0.10481702304E+03 -0.27230268080E+02 -0.33990479339E+02  0.16884445062E+03  0.12500000000E+03 0.  0.
         25    1    1    2    0    0 -0.68427018107E+01  0.67653443265E+02 -0.16263276757E+03  0.21609772798E+03  0.12500000000E+03 0.  0.
         25    1    1    2    0    0  0.11165972485E+03 -0.40423175185E+02 -0.22445561064E+03  0.28303223914E+03  0.12500000000E+03 0.  0.
</event>
<event>
 5    0  0.5597833E-005  0.4092714E+03  0.7546771E-02  0.1040616E+00
         21   -1    0    0  502  501  0.00000000000E+00  0.00000000000E+00  0.18622709272E+03  0.18622709272E+03  0.00000000000E+00 0.  1.
         21   -1    0    0  501  502 -0.00000000000E+00 -0.00000000000E+00 -0.89945598988E+03  0.89945598988E+03  0.00000000000E+00 0.  1.
         25    1    1    2    0    0  0.15617717361E+03 -0.86899662207E+02 -0.62598531992E+03  0.66289175708E+03  0.12500000000E+03 0.  0.
         25    1    1    2    0    0  0.11666039899E+02 -0.77432578549E+02 -0.26571188365E+02  0.14987637826E+03  0.12500000000E+03 0.  0.
         25    1    1    2    0    0 -0.16784321351E+03  0.16433224076E+03 -0.60672388871E+02  0.27291494727E+03  0.12500000000E+03 0.  0.
</event>
<event>
 5    0  0.5597833E-005  0.3145361E+03  0.7546771E-02  0.1078192E+00
         21   -1    0    0  502  501  0.00000000000E+00  0.00000000000E+00  0.14769621789E+04  0.14769621789E+04  0.00000000000E+00 0. -1.
         21   -1    0    0  501  502 -0.00000000000E+00 -0.00000000000E+00 -0.66984096812E+02  0.66984096812E+02  0.00000000000E+00 0. -1.
         25    1    1    2    0    0 -0.11214809678E+03  0.32207143554E+02  0.18776128513E+03  0.25395628738E+03  0.12500000000E+03 0.  0.
         25    1    1    2    0    0 -0.57887854076E+02 -0.27976593421E+02  0.18961652487E+03  0.23603626826E+03  0.12500000000E+03 0.  0.
         25    1    1    2    0    0  0.17003595086E+03 -0.42305501327E+01  0.10326002721E+04  0.10539537201E+04  0.12500000000E+03 0.  0.
</event>
<event>
 5    0  0.5597833E-005  0.3833266E+03  0.7546771E-02  0.1049711E+00
         21   -1    0    0  502  501  0.00000000000E+00  0.00000000000E+00  0.67605892412E+03  0.67605892412E+03  0.00000000000E+00 0.  1.
         21   -1    0    0  501  502 -0.00000000000E+00 -0.00000000000E+00 -0.21734690402E+03  0.21734690402E+03  0.00000000000E+00 0.  1.
         25    1    1    2    0    0  0.19916771543E+03 -0.44197310945E+01  0.82788302758E+02  0.24933153825E+03  0.12500000000E+03 0.  0.
         25    1    1    2    0    0 -0.11106474847E+03 -0.14470107306E+03  0.11208635888E+02  0.22141457137E+03  0.12500000000E+03 0.  0.
         25    1    1    2    0    0 -0.88102966964E+02  0.14912080415E+03  0.36471508146E+03  0.42265971852E+03  0.12500000000E+03 0.  0.
</event>
<event>
 5    0  0.5597833E-005  0.3193359E+03  0.7546771E-02  0.1075955E+00
         21   -1    0    0  502  501  0.00000000000E+00  0.00000000000E+00  0.47437970710E+02  0.47437970710E+02  0.00000000000E+00 0. -1.
         21   -1    0    0  501  502 -0.00000000000E+00 -0.00000000000E+00 -0.21496574363E+04  0.21496574363E+04  0.00000000000E+00 0. -1.
         25    1    1    2    0    0  0.13975031388E+03  0.67801285130E+02 -0.29713203443E+03  0.35782622930E+03  0.12500000000E+03 0.  0.
         25    1    1    2    0    0 -0.32695437267E+02  0.45443428660E+02 -0.47822532764E+03  0.49745206887E+03  0.12500000000E+03 0.  0.
         25    1    1    2    0    0 -0.10705487661E+03 -0.11324471379E+03 -0.13268621035E+04  0.13418171089E+04  0.12500000000E+03 0.  0.
</event>
<event>
 5    0  0.5597833E-005  0.2421645E+03  0.7546771E-02  0.1118359E+00
         21   -1    0    0  502  501  0.00000000000E+00  0.00000000000E+00  0.76549151461E+03  0.76549151461E+03  0.00000000000E+00 0. -1.
         21   -1    0    0  501  502 -0.00000000000E+00 -0.00000000000E+00 -0.76609116257E+02  0.76609116257E+02  0.00000000000E+00 0. -1.
         25    1    1    2    0    0  0.46785285909E+02  0.21556003780E+02  0.36419022140E+03  0.38847527803E+03  0.12500000000E+03 0.  0.
         25    1    1    2    0    0  0.60904532482E+02  0.31205325162E+02  0.12826120906E+03  0.19172655566E+03  0.12500000000E+03 0.  0.
         25    1    1    2    0    0 -0.10768981839E+03 -0.52761328942E+02  0.19643096790E+03  0.26189879718E+03  0.12500000000E+03 0.  0.
</event>
<event>
 5    0  0.5597833E-005  0.3902288E+03  0.7546771E-02  0.1047217E+00
         21   -1    0    0  502  501  0.00000000000E+00  0.00000000000E+00  0.35207922898E+03  0.35207922898E+03  0.00000000000E+00 0.  1.
         21   -1    0    0  501  502 -0.00000000000E+00 -0.00000000000E+00 -0.43251208931E+03  0.43251208931E+03  0.00000000000E+00 0.  1.
         25    1    1    2    0    0 -0.13204595018E+03 -0.15197048672E+03 -0.21696703229E+02  0.23796409125E+03  0.12500000000E+03 0.  0.
         25    1    1    2    0    0 -0.19947947054E+01  0.26632080435E+03 -0.12646262388E+03  0.32023201788E+03  0.12500000000E+03 0.  0.
         25    1    1    2    0    0  0.13404074489E+03 -0.11435031763E+03  0.67726466776E+02  0.22639520917E+03  0.12500000000E+03 0.  0.
</event>
<event>
 5    0  0.5597833E-005  0.2473952E+03  0.7546771E-02  0.1114962E+00
         21   -1    0    0  502  501  0.00000000000E+00  0.00000000000E+00  0.37854977537E+02  0.37854977537E+02  0.00000000000E+00 0.  1.
         21   -1    0    0  501  502 -0.00000000000E+00 -0.00000000000E+00 -0.16168121514E+04  0.16168121514E+04  0.00000000000E+00 0.  1.
         25    1    1    2    0    0  0.12742262806E+03 -0.14782167649E+01 -0.35265860543E+03  0.39526168958E+03  0.12500000000E+03 0.  0.
         25    1    1    2    0    0 -0.92154030171E+02  0.19547320770E+01 -0.59944035341E+03  0.61923333531E+03  0.12500000000E+03 0.  0.
         25    1    1    2    0    0 -0.35268597891E+02 -0.47651531212E+00 -0.62685821502E+03  0.64017210405E+03  0.12500000000E+03 0.  0.
</event>
<event>
 5    0  0.5597833E-005  0.2376095E+03  0.7546771E-02  0.1121396E+00
         21   -1    0    0  502  501  0.00000000000E+00  0.00000000000E+00  0.20137141439E+03  0.20137141439E+03  0.00000000000E+00 0. -1.
         21   -1    0    0  501  502 -0.00000000000E+00 -0.00000000000E+00 -0.28036890753E+03  0.28036890753E+03  0.00000000000E+00 0. -1.
         25    1    1    2    0    0  0.67128109911E+02 -0.93716105863E+02  0.23489018098E+02  0.17165554349E+03  0.12500000000E+03 0.  0.
         25    1    1    2    0    0 -0.10049585296E+02  0.90051410491E+02 -0.42705607599E+02  0.16018433012E+03  0.12500000000E+03 0.  0.
         25    1    1    2    0    0 -0.57078524616E+02  0.36646953718E+01 -0.59780903644E+02  0.14990044831E+03  0.12500000000E+03 0.  0.
</event>
<event>
 5    0  0.5597833E-005  0.2776333E+03  0.7546771E-02  0.1096989E+00
         21   -1    0    0  502  501  0.00000000000E+00  0.00000000000E+00  0.17686012357E+03  0.17686012357E+03  0.00000000000E+00 0. -1.
         21   -1    0    0  501  502 -0.00000000000E+00 -0.00000000000E+00 -0.43582605797E+03  0.43582605797E+03  0.00000000000E+00 0. -1.
         25    1    1    2    0    0  0.14763652178E+02 -0.13120675179E+03 -0.21827548130E+02  0.18312459965E+03  0.12500000000E+03 0.  0.
         25    1    1    2    0    0  0.79345266555E+02  0.69420821745E+01 -0.51742854020E+02  0.15699104042E+03  0.12500000000E+03 0.  0.
         25    1    1    2    0    0 -0.94108918733E+02  0.12426466961E+03 -0.18539553225E+03  0.27257054147E+03  0.12500000000E+03 0.  0.
</event>
<event>
 5    0  0.5597833E-005  0.2563419E+03  0.7546771E-02  0.1109361E+00
         21   -1    0    0  502  501  0.00000000000E+00  0.00000000000E+00  0.54790284917E+02  0.54790284917E+02  0.00000000000E+00 0. -1.
         21   -1    0    0  501  502 -0.00000000000E+00 -0.00000000000E+00 -0.11993213777E+04  0.11993213777E+04  0.00000000000E+00 0. -1.
         25    1    1    2    0    0 -0.10694903783E+03  0.56248886453E+02 -0.24433136973E+03  0.29987472743E+03  0.12500000000E+03 0.  0.
         25    1    1    2    0    0  0.19820750797E+02 -0.67652691327E+02 -0.60558902820E+03  0.62236068311E+03  0.12500000000E+03 0.  0.
         25    1    1    2    0    0  0.87128287030E+02  0.11403804875E+02 -0.29461069484E+03  0.33187625206E+03  0.12500000000E+03 0.  0.
</event>
<event>
 5    0  0.5597833E-005  0.2249463E+03  0.7546771E-02  0.1130248E+00
         21   -1    0    0  502  501  0.00000000000E+00  0.00000000000E+00  0.15447450092E+03  0.15447450092E+03  0.00000000000E+00 0. -1.
         21   -1    0    0  501  502 -0.00000000000E+00 -0.00000000000E+00 -0.32756751572E+03  0.32756751572E+03  0.00000000000E+00 0. -1.
         25    1    1    2    0    0 -0.82084624046E+02  0.54307381602E+02 -0.31595817884E+02  0.16220503355E+03  0.12500000000E+03 0.  0.
         25    1    1    2    0    0  0.62363595166E+02 -0.51835190743E+02 -0.31824223176E+02  0.15236103892E+03  0.12500000000E+03 0.  0.
         25    1    1    2    0    0  0.19721028880E+02 -0.24721908585E+01 -0.10967297374E+03  0.16747594417E+03  0.12500000000E+03 0.  0.
</event>
<event>
 5    0  0.5597833E-005  0.2992539E+03  0.7546771E-02  0.1085614E+00
         21   -1    0    0  502  501  0.00000000000E+00  0.00000000000E+00  0.72063600262E+03  0.72063600262E+03  0.00000000000E+00 0. -1.
         21   -1    0    0  501  502 -0.00000000000E+00 -0.00000000000E+00 -0.12426923078E+03  0.12426923078E+03  0.00000000000E+00 0. -1.
         25    1    1    2    0    0 -0.12428620254E+02 -0.12860638863E+03  0.17283897314E+03  0.24938400998E+03  0.12500000000E+03 0.  0.
         25    1    1    2    0    0  0.40913220935E+02 -0.89947649016E+02  0.11620717163E+03  0.19721454802E+03  0.12500000000E+03 0.  0.
         25    1    1    2    0    0 -0.28484600681E+02  0.21855403765E+03  0.30732062707E+03  0.39830667540E+03  0.12500000000E+03 0.  0.
</event>
<event>
 5    0  0.5597833E-005  0.3268237E+03  0.7546771E-02  0.1072551E+00
         21   -1    0    0  502  501  0.00000000000E+00  0.00000000000E+00  0.31190327660E+03  0.31190327660E+03  0.00000000000E+00 0.  1.
         21   -1    0    0  501  502 -0.00000000000E+00 -0.00000000000E+00 -0.34245793857E+03  0.34245793857E+03  0.00000000000E+00 0.  1.
         25    1    1    2    0    0  0.23172424650E+02 -0.57151046764E+02  0.12139235054E+03  0.18483588986E+03  0.12500000000E+03 0.  0.
         25    1    1    2    0    0 -0.89652767332E+02  0.21008452313E+02  0.95414200465E+02  0.18223019346E+03  0.12500000000E+03 0.  0.
         25    1    1    2    0    0  0.66480342682E+02  0.36142594450E+02 -0.24736121298E+03  0.28729513185E+03  0.12500000000E+03 0.  0.
</event>
<event>
 5    0  0.5597833E-005  0.4028652E+03  0.7546771E-02  0.1042792E+00
         21   -1    0    0  502  501  0.00000000000E+00  0.00000000000E+00  0.61041411031E+03  0.61041411031E+03  0.00000000000E+00 0. -1.
         21   -1    0    0  501  502 -0.00000000000E+00 -0.00000000000E+00 -0.26588566630E+03  0.26588566630E+03  0.00000000000E+00 0. -1.
         25    1    1    2    0    0 -0.42035839170E+02 -0.74697380385E+02  0.22276219123E+03  0.26943404435E+03  0.12500000000E+03 0.  0.
         25    1    1    2    0    0 -0.10402912453E+03  0.20614666333E+03 -0.10408329384E+03  0.28244793787E+03  0.12500000000E+03 0.  0.
         25    1    1    2    0    0  0.14606496370E+03 -0.13144928295E+03  0.22584954662E+03  0.32441779439E+03  0.12500000000E+03 0.  0.
</event>
<event>
 5    0  0.5597833E-005  0.2812017E+03  0.7546771E-02  0.1095034E+00
         21   -1    0    0  502  501  0.00000000000E+00  0.00000000000E+00  0.16468131911E+03  0.16468131911E+03  0.00000000000E+00 0.  1.
         21   -1    0    0  501  502 -0.00000000000E+00 -0.00000000000E+00 -0.48016625680E+03  0.48016625680E+03  0.00000000000E+00 0.  1.
         25    1    1    2    0    0  0.20161373209E+02  0.12695450560E+02 -0.64000345547E+02  0.14243840656E+03  0.12500000000E+03 0.  0.
         25    1    1    2    0    0 -0.15927954276E+02  0.13400476888E+03 -0.24904842516E+03  0.30961443100E+03  0.12500000000E+03 0.  0.
         25    1    1    2    0    0 -0.42334189322E+01 -0.14670021944E+03 -0.24361669869E+01  0.19279473834E+03  0.12500000000E+03 0.  0.
</event>
<event>
 5    0  0.5597833E-005  0.3515432E+03  0.7546771E-02  0.1061983E+00
         21   -1    0    0  502  501  0.00000000000E+00  0.00000000000E+00  0.14798625208E+03  0.14798625208E+03  0.00000000000E+00 0. -1.
         21   -1    0    0  501  502 -0.00000000000E+00 -0.00000000000E+00 -0.83509534666E+03  0.83509534666E+03  0.00000000000E+00 0. -1.
         25    1    1    2    0    0 -0.14286477225E+03  0.38324917263E+02 -0.24862314238E+03  0.31514696470E+03  0.12500000000E+03 0.  0.
         25    1    1    2    0    0  0.28309641170E+03 -0.58390586278E+02 -0.27321670502E+03  0.41692374217E+03  0.12500000000E+03 0.  0.
         25    1    1    2    0    0 -0.14023163945E+03  0.20065669015E+02 -0.16526924717E+03  0.25101089187E+03  0.12500000000E+03 0.  0.
</event>
<event>
 5    0  0.5597833E-005  0.2495715E+03  0.7546771E-02  0.1113576E+00
         21   -1    0    0  502  501  0.00000000000E+00  0.00000000000E+00  0.51240950939E+02  0.51240950939E+02  0.00000000000E+00 0. -1.
         21   -1    0    0  501  502 -0.00000000000E+00 -0.00000000000E+00 -0.12155503456E+04  0.12155503456E+04  0.00000000000E+00 0. -1.
         25    1    1    2    0    0 -0.15932599686E+02 -0.63834374859E+01 -0.23767341736E+03  0.26908780970E+03  0.12500000000E+03 0.  0.
         25    1    1    2    0    0 -0.56652967194E+02  0.16643663409E+02 -0.77774388899E+03  0.78993488788E+03  0.12500000000E+03 0.  0.
         25    1    1    2    0    0  0.72585566879E+02 -0.10260225924E+02 -0.14889208831E+03  0.20776859897E+03  0.12500000000E+03 0.  0.
</event>
<event>
 5    0  0.5597833E-005  0.4515706E+03  0.7546771E-02  0.1027255E+00
         21   -1    0    0  502  501  0.00000000000E+00  0.00000000000E+00  0.11328948872E+03  0.11328948872E+03  0.00000000000E+00 0.  1.
         21   -1    0    0  501  502 -0.00000000000E+00 -0.00000000000E+00 -0.17999555464E+04  0.17999555464E+04  0.00000000000E+00 0.  1.
         25    1    1    2    0    0  0.55607041668E+01  0.13407865242E+03 -0.23388920976E+03  0.29721569425E+03  0.12500000000E+03 0.  0.
         25    1    1    2    0    0  0.27131199857E+03 -0.91824295490E+02 -0.11229914920E+04  0.11656658153E+04  0.12500000000E+03 0.  0.
         25    1    1    2    0    0 -0.27687270274E+03 -0.42254356933E+02 -0.32978535594E+03  0.45036352560E+03  0.12500000000E+03 0.  0.
</event>
<event>
 5    0  0.5597833E-005  0.2605633E+03  0.7546771E-02  0.1106805E+00
         21   -1    0    0  502  501  0.00000000000E+00  0.00000000000E+00  0.11291195479E+04  0.11291195479E+04  0.00000000000E+00 0. -1.
         21   -1    0    0  501  502 -0.00000000000E+00 -0.00000000000E+00 -0.60129371490E+02  0.60129371490E+02  0.00000000000E+00 0. -1.
         25    1    1    2    0    0  0.30303640810E+02  0.45139859115E+02  0.33758032016E+03  0.36406234368E+03  0.12500000000E+03 0.  0.
         25    1    1    2    0    0  0.61699925786E+02 -0.13806814295E+03  0.31393581593E+03  0.37020317322E+03  0.12500000000E+03 0.  0.
         25    1    1    2    0    0 -0.92003566596E+02  0.92928283830E+02  0.41747404037E+03  0.45498340253E+03  0.12500000000E+03 0.  0.
</event>
<event>
 5    0  0.5597833E-005  0.2446099E+03  0.7546771E-02  0.1116759E+00
         21   -1    0    0  502  501  0.00000000000E+00  0.00000000000E+00  0.24969877203E+03  0.24969877203E+03  0.00000000000E+00 0.  1.
         21   -1    0    0  501  502 -0.00000000000E+00 -0.00000000000E+00 -0.23962475316E+03  0.23962475316E+03  0.00000000000E+00 0.  1.
         25    1    1    2    0    0 -0.55498440328E+02 -0.45273549346E+02  0.82465407644E+02  0.16599793555E+03  0.12500000000E+03 0.  0.
         25    1    1    2    0    0  0.84592331020E+02  0.58576363058E+02  0.22092545113E+02  0.16340175435E+03  0.12500000000E+03 0.  0.
         25    1    1    2    0    0 -0.29093890692E+02 -0.13302813712E+02 -0.94483933891E+02  0.15992383528E+03  0.12500000000E+03 0.  0.
</event>
<event>
 5    0  0.5597833E-005  0.4540073E+03  0.7546771E-02  0.1026534E+00
         21   -1    0    0  502  501  0.00000000000E+00  0.00000000000E+00  0.90126602351E+03  0.90126602351E+03  0.00000000000E+00 0.  1.
         21   -1    0    0  501  502 -0.00000000000E+00 -0.00000000000E+00 -0.22870347675E+03  0.22870347675E+03  0.00000000000E+00 0.  1.
         25    1    1    2    0    0 -0.10739337567E+03 -0.15841646826E+02 -0.68882713317E+02  0.17931570792E+03  0.12500000000E+03 0.  0.
         25    1    1    2    0    0 -0.14435771168E+03 -0.85335132235E+02  0.78305888238E+02  0.22333393349E+03  0.12500000000E+03 0.  0.
         25    1    1    2    0    0  0.25175108735E+03  0.10117677906E+03  0.66313937184E+03  0.72731985886E+03  0.12500000000E+03 0.  0.
</event>
<event>
 5    0  0.5597833E-005  0.2388444E+03  0.7546771E-02  0.1120565E+00
         21   -1    0    0  502  501  0.00000000000E+00  0.00000000000E+00  0.22399395326E+03  0.22399395326E+03  0.00000000000E+00 0. -1.
         21   -1    0    0  501  502 -0.00000000000E+00 -0.00000000000E+00 -0.25467951014E+03  0.25467951014E+03  0.00000000000E+00 0. -1.
         25    1    1    2    0    0  0.10406068395E+03  0.22925900193E+02  0.77044976499E+01  0.16443412701E+03  0.12500000000E+03 0.  0.
         25    1    1    2    0    0 -0.12334931839E+02 -0.74982195594E+02 -0.36098162847E+02  0.15067367906E+03  0.12500000000E+03 0.  0.
         25    1    1    2    0    0 -0.91725752108E+02  0.52056295401E+02 -0.22918916782E+01  0.16356565733E+03  0.12500000000E+03 0.  0.
</event>
<event>
 5    0  0.5597833E-005  0.3057038E+03  0.7546771E-02  0.1082424E+00
         21   -1    0    0  502  501  0.00000000000E+00  0.00000000000E+00  0.36903748626E+03  0.36903748626E+03  0.00000000000E+00 0. -1.
         21   -1    0    0  501  502 -0.00000000000E+00 -0.00000000000E+00 -0.25323932924E+03  0.25323932924E+03  0.00000000000E+00 0. -1.
         25    1    1    2    0    0  0.61752135448E+02 -0.63361098555E+02  0.12043089916E+03  0.19482442484E+03  0.12500000000E+03 0.  0.
         25    1    1    2    0    0 -0.11908560869E+03  0.15213610793E+03 -0.84734733790E+02  0.24521776576E+03  0.12500000000E+03 0.  0.
         25    1    1    2    0    0  0.57333473244E+02 -0.88775009378E+02  0.80101991646E+02  0.18223462489E+03  0.12500000000E+03 0.  0.
</event>
<event>
 5    0  0.5597833E-005  0.4378750E+03  0.7546771E-02  0.1031401E+00
         21   -1    0    0  502  501  0.00000000000E+00  0.00000000000E+00  0.33567870810E+03  0.33567870810E+03  0.00000000000E+00 0.  1.
         21   -1    0    0  501  502 -0.00000000000E+00 -0.00000000000E+00 -0.57118466891E+03  0.57118466891E+03  0.00000000000E+00 0.  1.
         25    1    1    2    0    0  0.29527187160E+03  0.14154840383E+03 -0.20828758420E+02  0.35111289633E+03  0.12500000000E+03 0.  0.
         25    1    1    2    0    0 -0.20473713041E+03 -0.21200719421E+03 -0.21580154333E+03  0.38608243818E+03  0.12500000000E+03 0.  0.
         25    1    1    2    0    0 -0.90534741195E+02  0.70458790371E+02  0.11243409423E+01  0.16966804250E+03  0.12500000000E+03 0.  0.
</event>
<event>
 5    0  0.5597833E-005  0.2552918E+03  0.7546771E-02  0.1110005E+00
         21   -1    0    0  502  501  0.00000000000E+00  0.00000000000E+00  0.29791787217E+03  0.29791787217E+03  0.00000000000E+00 0. -1.
         21   -1    0    0  501  502 -0.00000000000E+00 -0.00000000000E+00 -0.21876465193E+03  0.21876465193E+03  0.00000000000E+00 0. -1.
         25    1    1    2    0    0  0.85021960321E+02  0.13279872479E+02  0.13588727787E+03  0.20370429803E+03  0.12500000000E+03 0.  0.
         25    1    1    2    0    0 -0.79337422924E+02 -0.61805265188E+02  0.14406333127E+02  0.16108029028E+03  0.12500000000E+03 0.  0.
         25    1    1    2    0    0 -0.56845373967E+01  0.48525392708E+02 -0.71140390752E+02  0.15189793580E+03  0.12500000000E+03 0.  0.
</event>
<event>
 5    0  0.5597833E-005  0.2402677E+03  0.7546771E-02  0.1119615E+00
         21   -1    0    0  502  501  0.00000000000E+00  0.00000000000E+00  0.46388389731E+03  0.46388389731E+03  0.00000000000E+00 0.  1.
         21   -1    0    0  501  502 -0.00000000000E+00 -0.00000000000E+00 -0.12444612149E+03  0.12444612149E+03  0.00000000000E+00 0.  1.
         25    1    1    2    0    0 -0.28939529649E+02  0.17149824570E+02  0.19099875858E+03  0.23073174605E+03  0.12500000000E+03 0.  0.
         25    1    1    2    0    0  0.24563451754E+02  0.90700425516E+02  0.45004730997E+02  0.16272785921E+03  0.12500000000E+03 0.  0.
         25    1    1    2    0    0  0.43760778952E+01 -0.10785025009E+03  0.10343428625E+03  0.19487041354E+03  0.12500000000E+03 0.  0.
</event>
<event>
 5    0  0.5597833E-005  0.2712021E+03  0.7546771E-02  0.1100594E+00
         21   -1    0    0  502  501  0.00000000000E+00  0.00000000000E+00  0.57028691642E+02  0.57028691642E+02  0.00000000000E+00 0.  1.
         21   -1    0    0  501  502 -0.00000000000E+00 -0.00000000000E+00 -0.12897120290E+04  0.12897120290E+04  0.00000000000E+00 0.  1.
         25    1    1    2    0    0  0.15213618749E+02 -0.10717296132E+03 -0.38194168629E+03  0.41619941081E+03  0.12500000000E+03 0.  0.
         25    1    1    2    0    0  0.22588290882E+02  0.94069824527E+02 -0.15100404199E+03  0.21860142605E+03  0.12500000000E+03 0.  0.
         25    1    1    2    0    0 -0.37801909631E+02  0.13103136797E+02 -0.69973760903E+03  0.71193988374E+03  0.12500000000E+03 0.  0.
</event>
<event>
 5    0  0.5597833E-005  0.3182348E+03  0.7546771E-02  0.1076465E+00
         21   -1    0    0  502  501  0.00000000000E+00  0.00000000000E+00  0.26647771017E+03  0.26647771017E+03  0.00000000000E+00 0. -1.
         21   -1    0    0  501  502 -0.00000000000E+00 -0.00000000000E+00 -0.38004443221E+03  0.38004443221E+03  0.00000000000E+00 0. -1.
         25    1    1    2    0    0  0.69193188259E+02 -0.19144188382E+03 -0.18130143803E+03  0.29988815184E+03  0.12500000000E+03 0.  0.
         25    1    1    2    0    0 -0.55907143214E+02  0.44760522699E+02  0.73907554983E+01  0.14425233558E+03  0.12500000000E+03 0.  0.
         25    1    1    2    0    0 -0.13286045045E+02  0.14668136112E+03  0.60343960489E+02  0.20238165495E+03  0.12500000000E+03 0.  0.
</event>
<event>
 5    0  0.5597833E-005  0.2845594E+03  0.7546771E-02  0.1093224E+00
         21   -1    0    0  502  501  0.00000000000E+00  0.00000000000E+00  0.76693119540E+02  0.76693119540E+02  0.00000000000E+00 0. -1.
         21   -1    0    0  501  502 -0.00000000000E+00 -0.00000000000E+00 -0.10558191860E+04  0.10558191860E+04  0.00000000000E+00 0. -1.
         25    1    1    2    0    0 -0.11361078399E+02 -0.27743404099E+02 -0.19097682220E+03  0.23020842120E+03  0.12500000000E+03 0.  0.
         25    1    1    2    0    0  0.11138166778E+03  0.75412940236E+02 -0.67749789017E+03  0.70194115042E+03  0.12500000000E+03 0.  0.
         25    1    1    2    0    0 -0.10002058938E+03 -0.47669536138E+02 -0.11065135406E+03  0.20036273389E+03  0.12500000000E+03 0.  0.
</event>
<event>
 5    0  0.5597833E-005  0.4545942E+03  0.7546771E-02  0.1026361E+00
         21   -1    0    0  502  501  0.00000000000E+00  0.00000000000E+00  0.41607562325E+03  0.41607562325E+03  0.00000000000E+00 0.  1.
         21   -1    0    0  501  502 -0.00000000000E+00 -0.00000000000E+00 -0.49667862644E+03  0.49667862644E+03  0.00000000000E+00 0.  1.
         25    1    1    2    0    0  0.82045098231E+02  0.22470739434E+03 -0.11629554874E+03  0.29389533149E+03  0.12500000000E+03 0.  0.
         25    1    1    2    0    0  0.13194120070E+02 -0.25199893137E+03  0.23274807644E+03  0.36534122858E+03  0.12500000000E+03 0.  0.
         25    1    1    2    0    0 -0.95239218301E+02  0.27291537033E+02 -0.19705553089E+03  0.25351768962E+03  0.12500000000E+03 0.  0.
</event>
<event>
 5    0  0.5597833E-005  0.3121257E+03  0.7546771E-02  0.1079331E+00
         21   -1    0    0  502  501  0.00000000000E+00  0.00000000000E+00  0.11004582559E+04  0.11004582559E+04  0.00000000000E+00 0.  1.
         21   -1    0    0  501  502 -0.00000000000E+00 -0.00000000000E+00 -0.88529003819E+02  0.88529003819E+02  0.00000000000E+00 0.  1.
         25    1    1    2    0    0 -0.53815987929E+02  0.57880662558E+01  0.66150151318E+02  0.15142821661E+03  0.12500000000E+03 0.  0.
         25    1    1    2    0    0 -0.11295632070E+03  0.16432995779E+01  0.19190888536E+03  0.25537394366E+03  0.12500000000E+03 0.  0.
         25    1    1    2    0    0  0.16677230863E+03 -0.74313658337E+01  0.75387021538E+03  0.78218509942E+03  0.12500000000E+03 0.  0.
</event>
<event>
 5    0  0.5597833E-005  0.3147933E+03  0.7546771E-02  0.1078071E+00
         21   -1    0    0  502  501  0.00000000000E+00  0.00000000000E+00  0.14781695162E+04  0.14781695162E+04  0.00000000000E+00 0.  1.
         21   -1    0    0  501  502 -0.00000000000E+00 -0.00000000000E+00 -0.67038855319E+02  0.67038855319E+02  0.00000000000E+00 0.  1.
         25    1    1    2    0    0 -0.81401578708E+02  0.13712811890E+03  0.29272439608E+03  0.35600970502E+03  0.12500000000E+03 0.  0.
         25    1    1    2    0    0  0.17742196634E+03 -0.10558597297E+03  0.61115827729E+03  0.65708933314E+03  0.12500000000E+03 0.  0.
         25    1    1    2    0    0 -0.96020387629E+02 -0.31542145928E+02  0.50724798753E+03  0.53210933338E+03  0.12500000000E+03 0.  0.
</event>
<event>
 5    0  0.5597833E-005  0.2761597E+03  0.7546771E-02  0.1097805E+00
         21   -1    0    0  502  501  0.00000000000E+00  0.00000000000E+00  0.27398119595E+03  0.27398119595E+03  0.00000000000E+00 0.  1.
         21   -1    0    0  501  502 -0.00000000000E+00 -0.00000000000E+00 -0.27835549498E+03  0.27835549498E+03  0.00000000000E+00 0.  1.
         25    1    1    2    0    0 -0.10256551264E+03 -0.93013752297E+02 -0.17009768948E+02  0.18731143782E+03  0.12500000000E+03 0.  0.
         25    1    1    2    0    0 -0.96063212449E+00 -0.37967693891E+01 -0.86070171622E+02  0.15181703697E+03  0.12500000000E+03 0.  0.
         25    1    1    2    0    0  0.10352614476E+03  0.96810521686E+02  0.98705641540E+02  0.21320821614E+03  0.12500000000E+03 0.  0.
</event>
<event>
 5    0  0.5597833E-005  0.2754698E+03  0.7546771E-02  0.1098189E+00
         21   -1    0    0  502  501  0.00000000000E+00  0.00000000000E+00  0.26098618163E+04  0.26098618163E+04  0.00000000000E+00 0. -1.
         21   -1    0    0  501  502 -0.00000000000E+00 -0.00000000000E+00 -0.29075717017E+02  0.29075717017E+02  0.00000000000E+00 0. -1.
         25    1    1    2    0    0 -0.28108933666E+02  0.68892205286E+02  0.32529821858E+03  0.35634278317E+03  0.12500000000E+03 0.  0.
         25    1    1    2    0    0 -0.76119373196E+02 -0.11382032507E+02  0.58196592848E+03  0.60019417820E+03  0.12500000000E+03 0.  0.
         25    1    1    2    0    0  0.10422830686E+03 -0.57510172780E+02  0.16735219522E+04  0.16824005719E+04  0.12500000000E+03 0.  0.
</event>
<event>
 5    0  0.5597833E-005  0.2605306E+03  0.7546771E-02  0.1106825E+00
         21   -1    0    0  502  501  0.00000000000E+00  0.00000000000E+00  0.81789769780E+03  0.81789769780E+03  0.00000000000E+00 0.  1.
         21   -1    0    0  501  502 -0.00000000000E+00 -0.00000000000E+00 -0.82988621079E+02  0.82988621079E+02  0.00000000000E+00 0. -1.
         25    1    1    2    0    0 -0.32260573225E+02 -0.20632607927E+02  0.55347477760E+02  0.14196757513E+03  0.12500000000E+03 0.  0.
         25    1    1    2    0    0 -0.90341423751E+02 -0.15024281120E+02  0.25655198329E+03  0.29971857133E+03  0.12500000000E+03 0.  0.
         25    1    1    2    0    0  0.12260199698E+03  0.35656889047E+02  0.42300961567E+03  0.45920017242E+03  0.12500000000E+03 0.  0.
</event>
<event>
 5    0  0.5597833E-005  0.3265678E+03  0.7546771E-02  0.1072666E+00
         21   -1    0    0  502  501  0.00000000000E+00  0.00000000000E+00  0.30588701038E+03  0.30588701038E+03  0.00000000000E+00 0. -1.
         21   -1    0    0  501  502 -0.00000000000E+00 -0.00000000000E+00 -0.34864688673E+03  0.34864688673E+03  0.00000000000E+00 0. -1.
         25    1    1    2    0    0 -0.12539328662E+03  0.11450480904E+03  0.47853765964E+02  0.21621704498E+03  0.12500000000E+03 0.  0.
         25    1    1    2    0    0  0.19620687299E+03 -0.12333766145E+03  0.86757759904E+01  0.26345698858E+03  0.12500000000E+03 0.  0.
         25    1    1    2    0    0 -0.70813586376E+02  0.88328524028E+01 -0.99289418306E+02  0.17485986356E+03  0.12500000000E+03 0.  0.
</event>
<event>
 5    0  0.6223352E-005  0.3149772E+03  0.7546771E-02  0.1077984E+00
         21   -1    0    0  502  501  0.00000000000E+00  0.00000000000E+00  0.59364841455E+03  0.59364841455E+03  0.00000000000E+00 0.  1.
         21   -1    0    0  501  502 -0.00000000000E+00 -0.00000000000E+00 -0.16712014787E+03  0.16712014787E+03  0.00000000000E+00 0.  1.
         25    1    1    2    0    0 -0.34882913863E+02 -0.97408498471E+02  0.99055322460E+02  0.19011099432E+03  0.12500000000E+03 0.  0.
         25    1    1    2    0    0 -0.94648939714E+01  0.20160954414E+03  0.44960865521E+02  0.24162465092E+03  0.12500000000E+03 0.  0.
         25    1    1    2    0    0  0.44347807834E+02 -0.10420104567E+03  0.28251207870E+03  0.32903291718E+03  0.12500000000E+03 0.  0.
</event>
<event>
 5    0  0.5791361E-005  0.2884881E+03  0.7546771E-02  0.1091141E+00
         21   -1    0    0  502  501  0.00000000000E+00  0.00000000000E+00  0.44450166726E+03  0.44450166726E+03  0.00000000000E+00 0.  1.
         21   -1    0    0  501  502 -0.00000000000E+00 -0.00000000000E+00 -0.18723306983E+03  0.18723306983E+03  0.00000000000E+00 0.  1.
         25    1    1    2    0    0  0.10658839359E+03 -0.11324512120E+02  0.10990410069E+03  0.19797283039E+03  0.12500000000E+03 0.  0.
         25    1    1    2    0    0 -0.15332547886E+03 -0.11108037174E+03  0.82025660972E+02  0.24124833785E+03  0.12500000000E+03 0.  0.
         25    1    1    2    0    0  0.46737085273E+02  0.12240488386E+03  0.65338835767E+02  0.19251356885E+03  0.12500000000E+03 0.  0.
</event>
<event>
 5    0  0.5597833E-005  0.3068402E+03  0.7546771E-02  0.1081870E+00
         21   -1    0    0  502  501  0.00000000000E+00  0.00000000000E+00  0.36945961223E+03  0.36945961223E+03  0.00000000000E+00 0. -1.
         21   -1    0    0  501  502 -0.00000000000E+00 -0.00000000000E+00 -0.25483410491E+03  0.25483410491E+03  0.00000000000E+00 0. -1.
         25    1    1    2    0    0 -0.15535054985E+03 -0.10652193523E+03  0.16822886607E+03  0.28179188669E+03  0.12500000000E+03 0.  0.
         25    1    1    2    0    0  0.50963766130E+02  0.53210192836E+02 -0.85186806911E+02  0.16825701219E+03  0.12500000000E+03 0.  0.
         25    1    1    2    0    0  0.10438678372E+03  0.53311742395E+02  0.31583448167E+02  0.17424481826E+03  0.12500000000E+03 0.  0.
</event>
<event>
 5    0  0.7739760E-005  0.3604973E+03  0.7546771E-02  0.1058387E+00
         21   -1    0    0  502  501  0.00000000000E+00  0.00000000000E+00  0.56793590471E+03  0.56793590471E+03  0.00000000000E+00 0. -1.
         21   -1    0    0  501  502 -0.00000000000E+00 -0.00000000000E+00 -0.22882568161E+03  0.22882568161E+03  0.00000000000E+00 0. -1.
         25    1    1    2    0    0  0.10084323588E+03 -0.70350157008E+02  0.15110344031E+03  0.23146436548E+03  0.12500000000E+03 0.  0.
         25    1    1    2    0    0 -0.19163166173E+03  0.15620553538E+03  0.25476193757E+03  0.37636618857E+03  0.12500000000E+03 0.  0.
         25    1    1    2    0    0  0.90788425859E+02 -0.85855378367E+02 -0.66755154782E+02  0.18893103227E+03  0.12500000000E+03 0.  0.
</event>
<event>
 5    0  0.5597833E-005  0.4084482E+03  0.7546771E-02  0.1040893E+00
         21   -1    0    0  502  501  0.00000000000E+00  0.00000000000E+00  0.12480275329E+04  0.12480275329E+04  0.00000000000E+00 0. -1.
         21   -1    0    0  501  502 -0.00000000000E+00 -0.00000000000E+00 -0.13367486706E+03  0.13367486706E+03  0.00000000000E+00 0. -1.
         25    1    1    2    0    0 -0.21180506408E+02 -0.12026475087E+03  0.58917614567E+02  0.18441396221E+03  0.12500000000E+03 0.  0.
         25    1    1    2    0    0  0.11556419152E+03 -0.10206335740E+03  0.14153486758E+03  0.24378090579E+03  0.12500000000E+03 0.  0.
         25    1    1    2    0    0 -0.94383685111E+02  0.22232810827E+03  0.91390018366E+03  0.95350753192E+03  0.12500000000E+03 0.  0.
</event>
<event>
 5    0  0.5597833E-005  0.2835258E+03  0.7546771E-02  0.1093779E+00
         21   -1    0    0  502  501  0.00000000000E+00  0.00000000000E+00  0.51915056356E+02  0.51915056356E+02  0.00000000000E+00 0.  1.
         21   -1    0    0  501  502 -0.00000000000E+00 -0.00000000000E+00 -0.15484314089E+04  0.15484314089E+04  0.00000000000E+00 0.  1.
         25    1    1    2    0    0  0.49941146589E+01 -0.88933299040E+01 -0.27196531671E+03  0.29948984288E+03  0.12500000000E+03 0.  0.
         25    1    1    2    0    0  0.15343652769E+03 -0.83489348677E+02 -0.53680813288E+03  0.57818786817E+03  0.12500000000E+03 0.  0.
         25    1    1    2    0    0 -0.15843064235E+03  0.92382678581E+02 -0.68774290296E+03  0.72266875421E+03  0.12500000000E+03 0.  0.
</event>
<event>
 5    0  0.5597833E-005  0.4474206E+03  0.7546771E-02  0.1028494E+00
         21   -1    0    0  502  501  0.00000000000E+00  0.00000000000E+00  0.13600614684E+04  0.13600614684E+04  0.00000000000E+00 0.  1.
         21   -1    0    0  501  502 -0.00000000000E+00 -0.00000000000E+00 -0.14718832855E+03  0.14718832855E+03  0.00000000000E+00 0.  1.
         25    1    1    2    0    0  0.19239981861E+03  0.17391920805E+03  0.71648764235E+03  0.77216910245E+03  0.12500000000E+03 0.  0.
         25    1    1    2    0    0  0.12056229970E+03 -0.66220803317E+02  0.13808451343E+03  0.23154437102E+03  0.12500000000E+03 0.  0.
         25    1    1    2    0    0 -0.31296211831E+03 -0.10769840473E+03  0.35830098409E+03  0.50353632349E+03  0.12500000000E+03 0.  0.
</event>
<event>
 5    0  0.5597833E-005  0.3191291E+03  0.7546771E-02  0.1076051E+00
         21   -1    0    0  502  501  0.00000000000E+00  0.00000000000E+00  0.16616852325E+03  0.16616852325E+03  0.00000000000E+00 0. -1.
         21   -1    0    0  501  502 -0.00000000000E+00 -0.00000000000E+00 -0.61289218418E+03  0.61289218418E+03  0.00000000000E+00 0. -1.
         25    1    1    2    0    0  0.68786905548E+02 -0.67126474470E+02  0.79405696155E+01  0.15787860715E+03  0.12500000000E+03 0.  0.
         25    1    1    2    0    0 -0.11814245416E+03 -0.10716508713E+03 -0.20258656421E+03  0.28654547872E+03  0.12500000000E+03 0.  0.
         25    1    1    2    0    0  0.49355548614E+02  0.17429156160E+03 -0.25207766634E+03  0.33463662156E+03  0.12500000000E+03 0.  0.
</event>
<event>
 5    0  0.5597833E-005  0.2948047E+03  0.7546771E-02  0.1087867E+00
         21   -1    0    0  502  501  0.00000000000E+00  0.00000000000E+00  0.24231264808E+03  0.24231264808E+03  0.00000000000E+00 0.  1.
         21   -1    0    0  501  502 -0.00000000000E+00 -0.00000000000E+00 -0.35866813696E+03  0.35866813696E+03  0.00000000000E+00 0.  1.
         25    1    1    2    0    0 -0.26551247446E+02  0.14444348083E+03 -0.92189234001E+02  0.21375860862E+03  0.12500000000E+03 0.  0.
         25    1    1    2    0    0 -0.99468419233E+02 -0.72631897002E+01 -0.30534960979E+02  0.16280081140E+03  0.12500000000E+03 0.  0.
         25    1    1    2    0    0  0.12601966668E+03 -0.13718029113E+03  0.63687061027E+01  0.22442136503E+03  0.12500000000E+03 0.  0.
</event>
<event>
 5    0  0.5597833E-005  0.3440829E+03  0.7546771E-02  0.1065070E+00
         21   -1    0    0  502  501  0.00000000000E+00  0.00000000000E+00  0.54167958306E+03  0.54167958306E+03  0.00000000000E+00 0. -1.
         21   -1    0    0  501  502 -0.00000000000E+00 -0.00000000000E+00 -0.21856658371E+03  0.21856658371E+03  0.00000000000E+00 0. -1.
         25    1    1    2    0    0  0.81402136139E+01  0.95248644037E+02  0.36561782745E+02  0.16155596933E+03  0.12500000000E+03 0.  0.
         25    1    1    2    0    0 -0.19074352893E+02  0.14402768423E+03  0.26582854333E+03  0.32771575978E+03  0.12500000000E+03 0.  0.
         25    1    1    2    0    0  0.10934139279E+02 -0.23927632827E+03  0.20722673274E+02  0.27097443765E+03  0.12500000000E+03 0.  0.
</event>
<event>
 5    0  0.5597833E-005  0.3802460E+03  0.7546771E-02  0.1050843E+00
         21   -1    0    0  502  501  0.00000000000E+00  0.00000000000E+00  0.15509441153E+04  0.15509441153E+04  0.00000000000E+00 0.  1.
         21   -1    0    0  501  502 -0.00000000000E+00 -0.00000000000E+00 -0.93225160844E+02  0.93225160844E+02  0.00000000000E+00 0.  1.
         25    1    1    2    0    0 -0.24241797369E+03  0.33661163961E+02  0.59285556914E+03  0.65345410993E+03  0.12500000000E+03 0.  0.
         25    1    1    2    0    0  0.70577843858E+02  0.14496609464E+03  0.32657862795E+03  0.38506493072E+03  0.12500000000E+03 0.  0.
         25    1    1    2    0    0  0.17184012983E+03 -0.17862725860E+03  0.53828475739E+03  0.60565023551E+03  0.12500000000E+03 0.  0.
</event>
<event>
 5    0  0.5597833E-005  0.2649563E+03  0.7546771E-02  0.1104201E+00
         21   -1    0    0  502  501  0.00000000000E+00  0.00000000000E+00  0.68994837795E+03  0.68994837795E+03  0.00000000000E+00 0.  1.
         21   -1    0    0  501  502 -0.00000000000E+00 -0.00000000000E+00 -0.10174938626E+03  0.10174938626E+03  0.00000000000E+00 0.  1.
         25    1    1    2    0    0  0.58086292620E+02 -0.14458176200E+03  0.29709489712E+03  0.35800597926E+03  0.12500000000E+03 0.  0.
         25    1    1    2    0    0  0.25206637632E+02  0.40646753832E+02  0.16135737775E+03  0.20963953953E+03  0.12500000000E+03 0.  0.
         25    1    1    2    0    0 -0.83292930252E+02  0.10393500816E+03  0.12974671682E+03  0.22405224542E+03  0.12500000000E+03 0.  0.
</event>
<event>
 5    0  0.5597833E-005  0.3442841E+03  0.7546771E-02  0.1064986E+00
         21   -1    0    0  502  501  0.00000000000E+00  0.00000000000E+00  0.35319890568E+03  0.35319890568E+03  0.00000000000E+00 0.  1.
         21   -1    0    0  501  502 -0.00000000000E+00 -0.00000000000E+00 -0.33559427732E+03  0.33559427732E+03  0.00000000000E+00 0.  1.
         25    1    1    2    0    0 -0.95523844911E+02  0.10597083753E+03  0.84731555487E+02  0.20774758686E+03  0.12500000000E+03 0.  0.
         25    1    1    2    0    0 -0.14580907205E+03 -0.33153429505E+02 -0.23323199911E+02  0.19628654318E+03  0.12500000000E+03 0.  0.
         25    1    1    2    0    0  0.24133291696E+03 -0.72817408023E+02 -0.43803727212E+02  0.28475905295E+03  0.12500000000E+03 0.  0.
</event>
<event>
 5    0  0.5597833E-005  0.3114455E+03  0.7546771E-02  0.1079655E+00
         21   -1    0    0  502  501  0.00000000000E+00  0.00000000000E+00  0.57198036160E+02  0.57198036160E+02  0.00000000000E+00 0. -1.
         21   -1    0    0  501  502 -0.00000000000E+00 -0.00000000000E+00 -0.16958322186E+04  0.16958322186E+04  0.00000000000E+00 0. -1.
         25    1    1    2    0    0  0.17175017257E+02 -0.10110787286E+03 -0.31004520933E+03  0.34967243958E+03  0.12500000000E+03 0.  0.
         25    1    1    2    0    0 -0.14768892951E+03 -0.66289684819E+02 -0.55440155890E+03  0.59092506354E+03  0.12500000000E+03 0.  0.
         25    1    1    2    0    0  0.13051391226E+03  0.16739755768E+03 -0.77418741418E+03  0.81243275161E+03  0.12500000000E+03 0.  0.
</event>
<event>
 5    0  0.5597833E-005  0.2319628E+03  0.7546771E-02  0.1125266E+00
         21   -1    0    0  502  501  0.00000000000E+00  0.00000000000E+00  0.12515754687E+04  0.12515754687E+04  0.00000000000E+00 0. -1.
         21   -1    0    0  501  502 -0.00000000000E+00 -0.00000000000E+00 -0.42991190829E+02  0.42991190829E+02  0.00000000000E+00 0. -1.
         25    1    1    2    0    0  0.51322677395E+02 -0.66984022736E+02  0.38062285228E+03  0.40941376649E+03  0.12500000000E+03 0.  0.
         25    1    1    2    0    0  0.43606168234E+02 -0.61294965343E+01  0.45590753707E+03  0.47477968680E+03  0.12500000000E+03 0.  0.
         25    1    1    2    0    0 -0.94928845630E+02  0.73113519270E+02  0.37205388848E+03  0.41037320619E+03  0.12500000000E+03 0.  0.
</event>
<event>
 5    0  0.5597833E-005  0.3917262E+03  0.7546771E-02  0.1046683E+00
         21   -1    0    0  502  501  0.00000000000E+00  0.00000000000E+00  0.54257132231E+03  0.54257132231E+03  0.00000000000E+00 0.  1.
         21   -1    0    0  501  502 -0.00000000000E+00 -0.00000000000E+00 -0.28281884403E+03  0.28281884403E+03  0.00000000000E+00 0.  1.
         25    1    1    2    0    0  0.19359531091E+03  0.14503192883E+03 -0.32685887059E+02  0.27423853121E+03  0.12500000000E+03 0.  0.
         25    1    1    2    0    0 -0.52848809759E+02 -0.22490741875E+03  0.16350406948E+03  0.30941060815E+03  0.12500000000E+03 0.  0.
         25    1    1    2    0    0 -0.14074650115E+03  0.79875489916E+02  0.12893429587E+03  0.24174102698E+03  0.12500000000E+03 0.  0.
</event>
<event>
 5    0  0.5597833E-005  0.3143596E+03  0.7546771E-02  0.1078275E+00
         21   -1    0    0  502  501  0.00000000000E+00  0.00000000000E+00  0.20728276579E+03  0.20728276579E+03  0.00000000000E+00 0.  1.
         21   -1    0    0  501  502 -0.00000000000E+00 -0.00000000000E+00 -0.47674954355E+03  0.47674954355E+03  0.00000000000E+00 0.  1.
         25    1    1    2    0    0  0.41902094512E+02 -0.45686155177E+02 -0.29491769384E+02  0.14261057030E+03  0.12500000000E+03 0.  0.
         25    1    1    2    0    0 -0.15816043502E+03 -0.78844783264E+02  0.67648621861E+01  0.21656866443E+03  0.12500000000E+03 0.  0.
         25    1    1    2    0    0  0.11625834050E+03  0.12453093844E+03 -0.24673987056E+03  0.32485307462E+03  0.12500000000E+03 0.  0.
</event>
<event>
 5    0  0.5597833E-005  0.3274062E+03  0.7546771E-02  0.1072290E+00
         21   -1    0    0  502  501  0.00000000000E+00  0.00000000000E+00  0.12859621277E+04  0.12859621277E+04  0.00000000000E+00 0. -1.
         21   -1    0    0  501  502 -0.00000000000E+00 -0.00000000000E+00 -0.83357698675E+02  0.83357698675E+02  0.00000000000E+00 0. -1.
         25    1    1    2    0    0 -0.13048490469E+02 -0.10992481726E+03  0.23946657112E+03  0.29192972996E+03  0.12500000000E+03 0.  0.
         25    1    1    2    0    0 -0.12788701485E+03  0.83225915138E+02  0.16582792849E+03  0.25769273057E+03  0.12500000000E+03 0.  0.
         25    1    1    2    0    0  0.14093550532E+03  0.26698902125E+02  0.79730992941E+03  0.81969736584E+03  0.12500000000E+03 0.  0.
</event>
<event>
 5    0  0.5597833E-005  0.2654125E+03  0.7546771E-02  0.1103934E+00
         21   -1    0    0  502  501  0.00000000000E+00  0.00000000000E+00  0.40389755518E+03  0.40389755518E+03  0.00000000000E+00 0. -1.
         21   -1    0    0  501  502 -0.00000000000E+00 -0.00000000000E+00 -0.17440999209E+03  0.17440999209E+03  0.00000000000E+00 0. -1.
         25    1    1    2    0    0 -0.75597621662E+02 -0.92285894186E+02  0.16779188687E+03  0.24085432105E+03  0.12500000000E+03 0.  0.
         25    1    1    2    0    0  0.39245320186E+02  0.19451000056E+01 -0.53519132883E+02  0.14153895632E+03  0.12500000000E+03 0.  0.
         25    1    1    2    0    0  0.36352301476E+02  0.90340794180E+02  0.11521480910E+03  0.19591426990E+03  0.12500000000E+03 0.  0.
</event>
<event>
 5    0  0.5597833E-005  0.4897749E+03  0.7546771E-02  0.1016483E+00
         21   -1    0    0  502  501  0.00000000000E+00  0.00000000000E+00  0.46792398541E+03  0.46792398541E+03  0.00000000000E+00 0.  1.
         21   -1    0    0  501  502 -0.00000000000E+00 -0.00000000000E+00 -0.51264628747E+03  0.51264628747E+03  0.00000000000E+00 0.  1.
         25    1    1    2    0    0 -0.18003348073E+02 -0.28483501098E+03 -0.17489223750E+03  0.35730574969E+03  0.12500000000E+03 0.  0.
         25    1    1    2    0    0 -0.10035242120E+03 -0.49535617780E+02  0.17746721019E+03  0.24422120416E+03  0.12500000000E+03 0.  0.
         25    1    1    2    0    0  0.11835576927E+03  0.33437062876E+03 -0.47297274762E+02  0.37904331903E+03  0.12500000000E+03 0.  0.
</event>
<event>
 5    0  0.5597833E-005  0.3078169E+03  0.7546771E-02  0.1081397E+00
         21   -1    0    0  502  501  0.00000000000E+00  0.00000000000E+00  0.12181633689E+03  0.12181633689E+03  0.00000000000E+00 0.  1.
         21   -1    0    0  501  502 -0.00000000000E+00 -0.00000000000E+00 -0.77782043860E+03  0.77782043860E+03  0.00000000000E+00 0.  1.
         25    1    1    2    0    0 -0.80608011349E+02  0.13164296160E+03 -0.17511370767E+03  0.26479677386E+03  0.12500000000E+03 0.  0.
         25    1    1    2    0    0  0.10133345855E+03 -0.16936892028E+03 -0.43702273035E+03  0.49554835063E+03  0.12500000000E+03 0.  0.
         25    1    1    2    0    0 -0.20725447200E+02  0.37725958672E+02 -0.43867663692E+02  0.13929165100E+03  0.12500000000E+03 0.  0.
</event>
<event>
 5    0  0.5597833E-005  0.3426062E+03  0.7546771E-02  0.1065691E+00
         21   -1    0    0  502  501  0.00000000000E+00  0.00000000000E+00  0.24514251439E+04  0.24514251439E+04  0.00000000000E+00 0.  1.
         21   -1    0    0  501  502 -0.00000000000E+00 -0.00000000000E+00 -0.47881947350E+02  0.47881947350E+02  0.00000000000E+00 0.  1.
         25    1    1    2    0    0 -0.13620531682E+00 -0.17479572839E+01  0.78273022377E+03  0.79265041292E+03  0.12500000000E+03 0.  0.
         25    1    1    2    0    0 -0.10515709907E+03 -0.16004467605E+03  0.12467765817E+04  0.12675760958E+04  0.12500000000E+03 0.  0.
         25    1    1    2    0    0  0.10529330439E+03  0.16179263333E+03  0.37403639107E+03  0.43908058257E+03  0.12500000000E+03 0.  0.
</event>
<event>
 5    0  0.5597833E-005  0.3266722E+03  0.7546771E-02  0.1072619E+00
         21   -1    0    0  502  501  0.00000000000E+00  0.00000000000E+00  0.81532137548E+02  0.81532137548E+02  0.00000000000E+00 0. -1.
         21   -1    0    0  501  502 -0.00000000000E+00 -0.00000000000E+00 -0.13088666481E+04  0.13088666481E+04  0.00000000000E+00 0. -1.
         25    1    1    2    0    0  0.20978478029E+03  0.39807025013E+02 -0.28958587553E+03  0.38089267857E+03  0.12500000000E+03 0.  0.
         25    1    1    2    0    0 -0.98456573193E+02 -0.62216839587E+02 -0.26057409129E+03  0.31159025817E+03  0.12500000000E+03 0.  0.
         25    1    1    2    0    0 -0.11132820709E+03  0.22409814573E+02 -0.67717454371E+03  0.69791584890E+03  0.12500000000E+03 0.  0.
</event>
<event>
 5    0  0.5597833E-005  0.3569638E+03  0.7546771E-02  0.1059793E+00
         21   -1    0    0  502  501  0.00000000000E+00  0.00000000000E+00  0.11756782585E+03  0.11756782585E+03  0.00000000000E+00 0.  1.
         21   -1    0    0  501  502 -0.00000000000E+00 -0.00000000000E+00 -0.10838270396E+04  0.10838270396E+04  0.00000000000E+00 0.  1.
         25    1    1    2    0    0  0.20153097656E+03 -0.39600383110E+02 -0.28988127129E+03  0.37661528952E+03  0.12500000000E+03 0.  0.
         25    1    1    2    0    0 -0.29029704087E+02 -0.10083696672E+03 -0.92526385290E+02  0.18760850075E+03  0.12500000000E+03 0.  0.
         25    1    1    2    0    0 -0.17250127248E+03  0.14043734983E+03 -0.58385155715E+03  0.63717107516E+03  0.12500000000E+03 0.  0.
</event>
<event>
 5    0  0.5597833E-005  0.2847064E+03  0.7546771E-02  0.1093146E+00
         21   -1    0    0  502  501  0.00000000000E+00  0.00000000000E+00  0.13305813296E+03  0.13305813296E+03  0.00000000000E+00 0.  1.
         21   -1    0    0  501  502 -0.00000000000E+00 -0.00000000000E+00 -0.60919046427E+03  0.60919046427E+03  0.00000000000E+00 0.  1.
         25    1    1    2    0    0 -0.15117214106E+03  0.31125807153E+02 -0.83090137103E+02  0.21529236630E+03  0.12500000000E+03 0.  0.
         25    1    1    2    0    0  0.53400634707E+01 -0.44727953029E+02 -0.68242026174E+02  0.14936893986E+03  0.12500000000E+03 0.  0.
         25    1    1    2    0    0  0.14583207759E+03  0.13602145876E+02 -0.32480016803E+03  0.37758729107E+03  0.12500000000E+03 0.  0.
</event>
<event>
 5    0  0.5597833E-005  0.3146087E+03  0.7546771E-02  0.1078158E+00
         21   -1    0    0  502  501  0.00000000000E+00  0.00000000000E+00  0.87510243095E+02  0.87510243095E+02  0.00000000000E+00 0.  1.
         21   -1    0    0  501  502 -0.00000000000E+00 -0.00000000000E+00 -0.11310521436E+04  0.11310521436E+04  0.00000000000E+00 0.  1.
         25    1    1    2    0    0  0.57297342521E+02  0.14105490027E+03 -0.69833403142E+03  0.72558589415E+03  0.12500000000E+03 0.  0.
         25    1    1    2    0    0 -0.77420183665E+02 -0.15398761435E+03 -0.27447753090E+03  0.34737441642E+03  0.12500000000E+03 0.  0.
         25    1    1    2    0    0  0.20122841145E+02  0.12932714082E+02 -0.70730338160E+02  0.14560207610E+03  0.12500000000E+03 0.  0.
</event>
<event>
 5    0  0.5597833E-005  0.2986589E+03  0.7546771E-02  0.1085913E+00
         21   -1    0    0  502  501  0.00000000000E+00  0.00000000000E+00  0.28189764532E+03  0.28189764532E+03  0.00000000000E+00 0.  1.
         21   -1    0    0  501  502 -0.00000000000E+00 -0.00000000000E+00 -0.31641673390E+03  0.31641673390E+03  0.00000000000E+00 0.  1.
         25    1    1    2    0    0  0.62703874894E+01 -0.38905312093E+02  0.11210433175E+03  0.17246832250E+03  0.12500000000E+03 0.  0.
         25    1    1    2    0    0  0.45297534468E+02 -0.11524262177E+03 -0.13259477387E+03  0.22031591535E+03  0.12500000000E+03 0.  0.
         25    1    1    2    0    0 -0.51567921958E+02  0.15414793386E+03 -0.14028646468E+02  0.20553014137E+03  0.12500000000E+03 0.  0.
</event>
<event>
 5    0  0.5597833E-005  0.2442839E+03  0.7546771E-02  0.1116972E+00
         21   -1    0    0  502  501  0.00000000000E+00  0.00000000000E+00  0.38820331614E+03  0.38820331614E+03  0.00000000000E+00 0. -1.
         21   -1    0    0  501  502 -0.00000000000E+00 -0.00000000000E+00 -0.15371997576E+03  0.15371997576E+03  0.00000000000E+00 0. -1.
         25    1    1    2    0    0  0.37569916452E+02  0.63824200444E+02  0.98981813871E+02  0.17580508144E+03  0.12500000000E+03 0.  0.
         25    1    1    2    0    0 -0.93856168190E+02 -0.43570567310E+02  0.15711045551E+03  0.22586737231E+03  0.12500000000E+03 0.  0.
         25    1    1    2    0    0  0.56286251738E+02 -0.20253633134E+02 -0.21608928992E+02  0.14025083815E+03  0.12500000000E+03 0.  0.
</event>
<event>
 5    0  0.5597833E-005  0.4163724E+03  0.7546771E-02  0.1038253E+00
         21   -1    0    0  502  501  0.00000000000E+00  0.00000000000E+00  0.10394619708E+04  0.10394619708E+04  0.00000000000E+00 0. -1.
         21   -1    0    0  501  502 -0.00000000000E+00 -0.00000000000E+00 -0.16678430302E+03  0.16678430302E+03  0.00000000000E+00 0. -1.
         25    1    1    2    0    0 -0.30058750502E+03 -0.50269425030E+02  0.16895566668E+03  0.37020383652E+03  0.12500000000E+03 0.  0.
         25    1    1    2    0    0  0.10399953467E+03  0.98887985725E+02  0.18537957078E+03  0.26567898335E+03  0.12500000000E+03 0.  0.
         25    1    1    2    0    0  0.19658797035E+03 -0.48618560695E+02  0.51834243032E+03  0.57036345395E+03  0.12500000000E+03 0.  0.
</event>
<event>
 5    0  0.5597833E-005  0.4451215E+03  0.7546771E-02  0.1029187E+00
         21   -1    0    0  502  501  0.00000000000E+00  0.00000000000E+00  0.12784769477E+03  0.12784769477E+03  0.00000000000E+00 0. -1.
         21   -1    0    0  501  502 -0.00000000000E+00 -0.00000000000E+00 -0.15497590942E+04  0.15497590942E+04  0.00000000000E+00 0. -1.
         25    1    1    2    0    0  0.21923854243E+03  0.92380126219E+02 -0.83070916731E+03  0.87309927663E+03  0.12500000000E+03 0.  0.
         25    1    1    2    0    0 -0.27067816978E+03 -0.96457671119E+02 -0.15850203906E+03  0.35116755303E+03  0.12500000000E+03 0.  0.
         25    1    1    2    0    0  0.51439627348E+02  0.40775448994E+01 -0.43270019304E+03  0.45333995930E+03  0.12500000000E+03 0.  0.
</event>
<event>
 5    0  0.5597833E-005  0.2677943E+03  0.7546771E-02  0.1102549E+00
         21   -1    0    0  502  501  0.00000000000E+00  0.00000000000E+00  0.50935234230E+03  0.50935234230E+03  0.00000000000E+00 0.  1.
         21   -1    0    0  501  502 -0.00000000000E+00 -0.00000000000E+00 -0.14079402597E+03  0.14079402597E+03  0.00000000000E+00 0.  1.
         25    1    1    2    0    0  0.11862840350E+03  0.41880829590E+02  0.63581407017E+02  0.18839930287E+03  0.12500000000E+03 0.  0.
         25    1    1    2    0    0 -0.66687734423E+02 -0.44779906792E+02  0.24893936577E+02  0.15065590613E+03  0.12500000000E+03 0.  0.
         25    1    1    2    0    0 -0.51940669080E+02  0.28990772020E+01  0.28008297273E+03  0.31109115926E+03  0.12500000000E+03 0.  0.
</event>
<event>
 5    0  0.5597833E-005  0.2921274E+03  0.7546771E-02  0.1089244E+00
         21   -1    0    0  502  501  0.00000000000E+00  0.00000000000E+00  0.10716849080E+04  0.10716849080E+04  0.00000000000E+00 0. -1.
         21   -1    0    0  501  502 -0.00000000000E+00 -0.00000000000E+00 -0.79630159624E+02  0.79630159624E+02  0.00000000000E+00 0. -1.
         25    1    1    2    0    0  0.87160597532E+02  0.31637151241E+02  0.27679699381E+03  0.31755228685E+03  0.12500000000E+03 0.  0.
         25    1    1    2    0    0 -0.11023989704E+03 -0.14588476833E+02  0.68067015438E+03  0.70092975228E+03  0.12500000000E+03 0.  0.
         25    1    1    2    0    0  0.23079299505E+02 -0.17048674408E+02  0.34587600133E+02  0.13283302845E+03  0.12500000000E+03 0.  0.
</event>
<event>
 5    0  0.5597833E-005  0.3605895E+03  0.7546771E-02  0.1058351E+00
         21   -1    0    0  502  501  0.00000000000E+00  0.00000000000E+00  0.18544027876E+03  0.18544027876E+03  0.00000000000E+00 0.  1.
         21   -1    0    0  501  502 -0.00000000000E+00 -0.00000000000E+00 -0.70116799148E+03  0.70116799148E+03  0.00000000000E+00 0.  1.
         25    1    1    2    0    0  0.15136799470E+02  0.15654993914E+03 -0.35641805682E+03  0.40914036390E+03  0.12500000000E+03 0.  0.
         25    1    1    2    0    0  0.11863010038E+03 -0.12063281352E+03 -0.19577814976E+03  0.28736642173E+03  0.12500000000E+03 0.  0.
         25    1    1    2    0    0 -0.13376689985E+03 -0.35917125617E+02  0.36468493867E+02  0.19010148462E+03  0.12500000000E+03 0.  0.
</event>
<event>
 5    0  0.5597833E-005  0.2747845E+03  0.7546771E-02  0.1098572E+00
         21   -1    0    0  502  501  0.00000000000E+00  0.00000000000E+00  0.25673163521E+03  0.25673163521E+03  0.00000000000E+00 0.  1.
         21   -1    0    0  501  502 -0.00000000000E+00 -0.00000000000E+00 -0.29410673400E+03  0.29410673400E+03  0.00000000000E+00 0.  1.
         25    1    1    2    0    0  0.47964643117E+02  0.53638473052E+02 -0.10983909187E+03  0.18129346068E+03  0.12500000000E+03 0.  0.
         25    1    1    2    0    0  0.10037187359E+03 -0.20031441857E+02  0.59791218182E+02  0.17226654186E+03  0.12500000000E+03 0.  0.
         25    1    1    2    0    0 -0.14833651671E+03 -0.33607031195E+02  0.12672774904E+02  0.19727836668E+03  0.12500000000E+03 0.  0.
</event>
<event>
 5    0  0.5597833E-005  0.3704566E+03  0.7546771E-02  0.1054519E+00
         21   -1    0    0  502  501  0.00000000000E+00  0.00000000000E+00  0.70830565098E+03  0.70830565098E+03  0.00000000000E+00 0.  1.
         21   -1    0    0  501  502 -0.00000000000E+00 -0.00000000000E+00 -0.19375548558E+03  0.19375548558E+03  0.00000000000E+00 0.  1.
         25    1    1    2    0    0  0.16362166005E+03  0.53275071456E+02  0.20769413655E+03  0.29727451158E+03  0.12500000000E+03 0.  0.
         25    1    1    2    0    0 -0.23887577369E+03  0.11921238632E+03  0.16119006231E+03  0.33597688089E+03  0.12500000000E+03 0.  0.
         25    1    1    2    0    0  0.75254113641E+02 -0.17248745777E+03  0.14566596655E+03  0.26880974409E+03  0.12500000000E+03 0.  0.
</event>
<event>
 5    0  0.5597833E-005  0.3182939E+03  0.7546771E-02  0.1076437E+00
         21   -1    0    0  502  501  0.00000000000E+00  0.00000000000E+00  0.12037096636E+03  0.12037096636E+03  0.00000000000E+00 0. -1.
         21   -1    0    0  501  502 -0.00000000000E+00 -0.00000000000E+00 -0.84165666393E+03  0.84165666393E+03  0.00000000000E+00 0. -1.
         25    1    1    2    0    0  0.56654555926E+02 -0.65990788855E+01 -0.38120509837E+03  0.40521057929E+03  0.12500000000E+03 0.  0.
         25    1    1    2    0    0  0.28166957754E+01  0.11909950770E+02 -0.38987894016E+03  0.40961002025E+03  0.12500000000E+03 0.  0.
         25    1    1    2    0    0 -0.59471251701E+02 -0.53108718845E+01  0.49798340965E+02  0.14720703075E+03  0.12500000000E+03 0.  0.
</event>
<event>
 5    0  0.6340682E-005  0.2585998E+03  0.7546771E-02  0.1107987E+00
         21   -1    0    0  502  501  0.00000000000E+00  0.00000000000E+00  0.40744818727E+03  0.40744818727E+03  0.00000000000E+00 0.  1.
         21   -1    0    0  501  502 -0.00000000000E+00 -0.00000000000E+00 -0.16412853240E+03  0.16412853240E+03  0.00000000000E+00 0.  1.
         25    1    1    2    0    0  0.21996760918E+02 -0.67447161414E+02  0.25781608093E+01  0.14375195298E+03  0.12500000000E+03 0.  0.
         25    1    1    2    0    0 -0.66152502964E+02  0.12507912623E+03  0.20544554553E+03  0.27902296258E+03  0.12500000000E+03 0.  0.
         25    1    1    2    0    0  0.44155742046E+02 -0.57631964820E+02  0.35295948529E+02  0.14880180411E+03  0.12500000000E+03 0.  0.
</event>
<event>
 5    0  0.6483488E-005  0.3336100E+03  0.7546771E-02  0.1069551E+00
         21   -1    0    0  502  501  0.00000000000E+00  0.00000000000E+00  0.25507296686E+03  0.25507296686E+03  0.00000000000E+00 0. -1.
         21   -1    0    0  501  502 -0.00000000000E+00 -0.00000000000E+00 -0.43632850607E+03  0.43632850607E+03  0.00000000000E+00 0. -1.
         25    1    1    2    0    0  0.21430602963E+02  0.64950233661E+01  0.12771530518E+03  0.18010456754E+03  0.12500000000E+03 0.  0.
         25    1    1    2    0    0 -0.82980362386E+02 -0.13830330320E+03 -0.21936507431E+03  0.29959903211E+03  0.12500000000E+03 0.  0.
         25    1    1    2    0    0  0.61549759423E+02  0.13180827983E+03 -0.89605770079E+02  0.21169787327E+03  0.12500000000E+03 0.  0.
</event>
<event>
 5    0  0.5597833E-005  0.3754494E+03  0.7546771E-02  0.1052629E+00
         21   -1    0    0  502  501  0.00000000000E+00  0.00000000000E+00  0.11189678079E+03  0.11189678079E+03  0.00000000000E+00 0.  1.
         21   -1    0    0  501  502 -0.00000000000E+00 -0.00000000000E+00 -0.12597521995E+04  0.12597521995E+04  0.00000000000E+00 0.  1.
         25    1    1    2    0    0 -0.68661569772E+01  0.21430974132E+03 -0.47619568915E+03  0.53699454718E+03  0.12500000000E+03 0.  0.
         25    1    1    2    0    0  0.32392783659E+01 -0.19310208450E+03 -0.66936582387E+03  0.70779553130E+03  0.12500000000E+03 0.  0.
         25    1    1    2    0    0  0.36268786113E+01 -0.21207656819E+02 -0.22939056638E+01  0.12685890177E+03  0.12500000000E+03 0.  0.
</event>
<event>
 5    0  0.5597833E-005  0.3428135E+03  0.7546771E-02  0.1065604E+00
         21   -1    0    0  502  501  0.00000000000E+00  0.00000000000E+00  0.22094923117E+03  0.22094923117E+03  0.00000000000E+00 0. -1.
         21   -1    0    0  501  502 -0.00000000000E+00 -0.00000000000E+00 -0.53189172450E+03  0.53189172450E+03  0.00000000000E+00 0. -1.
         25    1    1    2    0    0  0.22536761513E+03  0.10030673965E+03 -0.23322924640E+03  0.36176357659E+03  0.12500000000E+03 0.  0.
         25    1    1    2    0    0 -0.18528317302E+03 -0.10525011808E+03 -0.20819136919E+02  0.24792312926E+03  0.12500000000E+03 0.  0.
         25    1    1    2    0    0 -0.40084442110E+02  0.49433784301E+01 -0.56894110013E+02  0.14315424983E+03  0.12500000000E+03 0.  0.
</event>
<event>
 5    0  0.5597833E-005  0.2823717E+03  0.7546771E-02  0.1094401E+00
         21   -1    0    0  502  501  0.00000000000E+00  0.00000000000E+00  0.91853277643E+03  0.91853277643E+03  0.00000000000E+00 0.  1.
         21   -1    0    0  501  502 -0.00000000000E+00 -0.00000000000E+00 -0.86805599361E+02  0.86805599361E+02  0.00000000000E+00 0.  1.
         25    1    1    2    0    0  0.51662732508E+02  0.40976719241E+02  0.53561006608E+03  0.55394157845E+03  0.12500000000E+03 0.  0.
         25    1    1    2    0    0 -0.11984431550E+03  0.51547960089E+01  0.85987411157E+02  0.19341165104E+03  0.12500000000E+03 0.  0.
         25    1    1    2    0    0  0.68181582997E+02 -0.46131515250E+02  0.21012969982E+03  0.25798514629E+03  0.12500000000E+03 0.  0.
</event>
<event>
 5    0  0.5597833E-005  0.2949192E+03  0.7546771E-02  0.1087808E+00
         21   -1    0    0  502  501  0.00000000000E+00  0.00000000000E+00  0.74816101693E+03  0.74816101693E+03  0.00000000000E+00 0. -1.
         21   -1    0    0  501  502 -0.00000000000E+00 -0.00000000000E+00 -0.11625483458E+03  0.11625483458E+03  0.00000000000E+00 0. -1.
         25    1    1    2    0    0  0.16935000114E+03  0.57208700465E+00  0.75017780295E+02  0.22345562765E+03  0.12500000000E+03 0.  0.
         25    1    1    2    0    0 -0.45933049617E+02 -0.26815355311E+02  0.29180853497E+03  0.32187906022E+03  0.12500000000E+03 0.  0.
         25    1    1    2    0    0 -0.12341695152E+03  0.26243268306E+02  0.26507986708E+03  0.31908116364E+03  0.12500000000E+03 0.  0.
</event>
<event>
 5    0  0.5597833E-005  0.3058076E+03  0.7546771E-02  0.1082373E+00
         21   -1    0    0  502  501  0.00000000000E+00  0.00000000000E+00  0.69438796202E+03  0.69438796202E+03  0.00000000000E+00 0.  1.
         21   -1    0    0  501  502 -0.00000000000E+00 -0.00000000000E+00 -0.13467725780E+03  0.13467725780E+03  0.00000000000E+00 0.  1.
         25    1    1    2    0    0  0.97447958816E+02 -0.60757304219E+02  0.30775179177E+03  0.35145941448E+03  0.12500000000E+03 0.  0.
         25    1    1    2    0    0 -0.24796183797E+02  0.60989579074E+02 -0.44207630776E+02  0.14803342226E+03  0.12500000000E+03 0.  0.
         25    1    1    2    0    0 -0.72651775020E+02 -0.23227485448E+00  0.29616654322E+03  0.32957238308E+03  0.12500000000E+03 0.  0.
</event>
<event>
 5    0  0.5611570E-005  0.3526674E+03  0.7546771E-02  0.1061526E+00
         21   -1    0    0  502  501  0.00000000000E+00  0.00000000000E+00  0.31717546275E+03  0.31717546275E+03  0.00000000000E+00 0. -1.
         21   -1    0    0  501  502 -0.00000000000E+00 -0.00000000000E+00 -0.39213089197E+03  0.39213089197E+03  0.00000000000E+00 0. -1.
         25    1    1    2    0    0 -0.13172626384E+03 -0.32349004770E+02  0.10652702501E+03  0.21300533738E+03  0.12500000000E+03 0.  0.
         25    1    1    2    0    0  0.49902455359E+02 -0.16194940001E+03 -0.12464071173E+03  0.24470016395E+03  0.12500000000E+03 0.  0.
         25    1    1    2    0    0  0.81823808479E+02  0.19429840478E+03 -0.56841742494E+02  0.25160085339E+03  0.12500000000E+03 0.  0.
</event>
<event>
 5    0  0.5597833E-005  0.2733861E+03  0.7546771E-02  0.1099357E+00
         21   -1    0    0  502  501  0.00000000000E+00  0.00000000000E+00  0.50963920869E+03  0.50963920869E+03  0.00000000000E+00 0.  1.
         21   -1    0    0  501  502 -0.00000000000E+00 -0.00000000000E+00 -0.14665270023E+03  0.14665270023E+03  0.00000000000E+00 0.  1.
         25    1    1    2    0    0 -0.92419116206E+01 -0.11762385879E+02 -0.32360233350E+02  0.12998442735E+03  0.12500000000E+03 0.  0.
         25    1    1    2    0    0  0.14520463822E+02 -0.88581207023E+02  0.82172956249E+02  0.17445592236E+03  0.12500000000E+03 0.  0.
         25    1    1    2    0    0 -0.52785522010E+01  0.10034359290E+03  0.31317378556E+03  0.35185155920E+03  0.12500000000E+03 0.  0.
</event>
<event>
 5    0  0.5597833E-005  0.2584126E+03  0.7546771E-02  0.1108101E+00
         21   -1    0    0  502  501  0.00000000000E+00  0.00000000000E+00  0.11441808097E+03  0.11441808097E+03  0.00000000000E+00 0. -1.
         21   -1    0    0  501  502 -0.00000000000E+00 -0.00000000000E+00 -0.58362338881E+03  0.58362338881E+03  0.00000000000E+00 0. -1.
         25    1    1    2    0    0  0.32684900928E+02 -0.91401712334E+02 -0.13686904536E+03  0.20923840791E+03  0.12500000000E+03 0.  0.
         25    1    1    2    0    0 -0.81385411829E+02 -0.37630372918E+01 -0.41818866051E+02  0.15495664963E+03  0.12500000000E+03 0.  0.
         25    1    1    2    0    0  0.48700510901E+02  0.95164749626E+02 -0.29051739643E+03  0.33384641223E+03  0.12500000000E+03 0.  0.
</event>
<event>
 5    0  0.5597833E-005  0.2339826E+03  0.7546771E-02  0.1123868E+00
         21   -1    0    0  502  501  0.00000000000E+00  0.00000000000E+00  0.12120727836E+03  0.12120727836E+03  0.00000000000E+00 0. -1.
         21   -1    0    0  501  502 -0.00000000000E+00 -0.00000000000E+00 -0.45168785696E+03  0.45168785696E+03  0.00000000000E+00 0. -1.
         25    1    1    2    0    0 -0.87111532315E+02  0.16280174698E+01 -0.35808498421E+02  0.15651938558E+03  0.12500000000E+03 0.  0.
         25    1    1    2    0    0  0.43048446444E+02  0.27810136165E+01 -0.56552862960E+02  0.14381977989E+03  0.12500000000E+03 0.  0.
         25    1    1    2    0    0  0.44063085871E+02 -0.44090310862E+01 -0.23811921722E+03  0.27255596985E+03  0.12500000000E+03 0.  0.
</event>
<event>
 5    0  0.5597833E-005  0.2810211E+03  0.7546771E-02  0.1095133E+00
         21   -1    0    0  502  501  0.00000000000E+00  0.00000000000E+00  0.11151171255E+04  0.11151171255E+04  0.00000000000E+00 0.  1.
         21   -1    0    0  501  502 -0.00000000000E+00 -0.00000000000E+00 -0.70820252243E+02  0.70820252243E+02  0.00000000000E+00 0.  1.
         25    1    1    2    0    0 -0.46370957279E+02  0.26092775101E+02  0.75418756235E+03  0.76632563430E+03  0.12500000000E+03 0.  0.
         25    1    1    2    0    0 -0.36356861554E+02 -0.67546603687E+02  0.15771299010E+03  0.21536655334E+03  0.12500000000E+03 0.  0.
         25    1    1    2    0    0  0.82727818832E+02  0.41453828586E+02  0.13239632080E+03  0.20424519009E+03  0.12500000000E+03 0.  0.
</event>
<event>
 5    0  0.5597833E-005  0.2925712E+03  0.7546771E-02  0.1089014E+00
         21   -1    0    0  502  501  0.00000000000E+00  0.00000000000E+00  0.18883950900E+03  0.18883950900E+03  0.00000000000E+00 0.  1.
         21   -1    0    0  501  502 -0.00000000000E+00 -0.00000000000E+00 -0.45328386990E+03  0.45328386990E+03  0.00000000000E+00 0.  1.
         25    1    1    2    0    0  0.66820976473E+02  0.17027919208E+03 -0.19263401298E+03  0.29358628903E+03  0.12500000000E+03 0.  0.
         25    1    1    2    0    0 -0.81744990829E+02 -0.29781475028E+02 -0.36613925062E+02  0.15663575355E+03  0.12500000000E+03 0.  0.
         25    1    1    2    0    0  0.14924014356E+02 -0.14049771705E+03 -0.35196422859E+02  0.19190133633E+03  0.12500000000E+03 0.  0.
</event>
<event>
 5    0  0.5597833E-005  0.3463931E+03  0.7546771E-02  0.1064105E+00
         21   -1    0    0  502  501  0.00000000000E+00  0.00000000000E+00  0.89321433021E+02  0.89321433021E+02  0.00000000000E+00 0. -1.
         21   -1    0    0  501  502 -0.00000000000E+00 -0.00000000000E+00 -0.13433299575E+04  0.13433299575E+04  0.00000000000E+00 0. -1.
         25    1    1    2    0    0 -0.89649506188E+02 -0.35251614225E+02 -0.14677081429E+03  0.21551422736E+03  0.12500000000E+03 0.  0.
         25    1    1    2    0    0  0.12672392270E+03 -0.18013525110E+03 -0.57937799855E+03  0.63230651308E+03  0.12500000000E+03 0.  0.
         25    1    1    2    0    0 -0.37074416515E+02  0.21538686532E+03 -0.52785971162E+03  0.58483065008E+03  0.12500000000E+03 0.  0.
</event>
<event>
 5    0  0.5597833E-005  0.3194441E+03  0.7546771E-02  0.1075905E+00
         21   -1    0    0  502  501  0.00000000000E+00  0.00000000000E+00  0.26676468269E+03  0.26676468269E+03  0.00000000000E+00 0.  1.
         21   -1    0    0  501  502 -0.00000000000E+00 -0.00000000000E+00 -0.38252639693E+03  0.38252639693E+03  0.00000000000E+00 0.  1.
         25    1    1    2    0    0  0.19187453075E+03  0.21925748142E+02 -0.48004086497E+02  0.23500205596E+03  0.12500000000E+03 0.  0.
         25    1    1    2    0    0 -0.14312231306E+03 -0.31507588861E+01 -0.16161452537E+03  0.24947580762E+03  0.12500000000E+03 0.  0.
         25    1    1    2    0    0 -0.48752217691E+02 -0.18774989256E+02  0.93856897622E+02  0.16481321604E+03  0.12500000000E+03 0.  0.
</event>
<event>
 5    0  0.5597833E-005  0.2680381E+03  0.7546771E-02  0.1102408E+00
         21   -1    0    0  502  501  0.00000000000E+00  0.00000000000E+00  0.77054224105E+03  0.77054224105E+03  0.00000000000E+00 0.  1.
         21   -1    0    0  501  502 -0.00000000000E+00 -0.00000000000E+00 -0.93238768325E+02  0.93238768325E+02  0.00000000000E+00 0.  1.
         25    1    1    2    0    0 -0.74345947829E+02  0.34891764963E+02  0.51841774719E+03  0.53956159594E+03  0.12500000000E+03 0.  0.
         25    1    1    2    0    0  0.65272505325E+01  0.26064628609E+02  0.69241747423E+02  0.14540078903E+03  0.12500000000E+03 0.  0.
         25    1    1    2    0    0  0.67818697296E+02 -0.60956393572E+02  0.89643978115E+02  0.17881862440E+03  0.12500000000E+03 0.  0.
</event>
<event>
 5    0  0.5597833E-005  0.3033646E+03  0.7546771E-02  0.1083571E+00
         21   -1    0    0  502  501  0.00000000000E+00  0.00000000000E+00  0.28287960522E+04  0.28287960522E+04  0.00000000000E+00 0.  1.
         21   -1    0    0  501  502 -0.00000000000E+00 -0.00000000000E+00 -0.32533313690E+02  0.32533313690E+02  0.00000000000E+00 0.  1.
         25    1    1    2    0    0 -0.17231857263E+03  0.46866092866E+02  0.95621366787E+03  0.98074446201E+03  0.12500000000E+03 0.  0.
         25    1    1    2    0    0 -0.42567701649E+02  0.73414842991E+01  0.71426725446E+03  0.72640802405E+03  0.12500000000E+03 0.  0.
         25    1    1    2    0    0  0.21488627427E+03 -0.54207577165E+02  0.11257818162E+04  0.11541768798E+04  0.12500000000E+03 0.  0.
</event>
<event>
 5    0  0.5597833E-005  0.3459107E+03  0.7546771E-02  0.1064306E+00
         21   -1    0    0  502  501  0.00000000000E+00  0.00000000000E+00  0.11702225171E+03  0.11702225171E+03  0.00000000000E+00 0. -1.
         21   -1    0    0  501  502 -0.00000000000E+00 -0.00000000000E+00 -0.10224910420E+04  0.10224910420E+04  0.00000000000E+00 0. -1.
         25    1    1    2    0    0  0.25080117414E+03  0.82193709556E+02 -0.35161255766E+03  0.45707048204E+03  0.12500000000E+03 0.  0.
         25    1    1    2    0    0 -0.22719169528E+03 -0.51034997173E+02 -0.32645342077E+03  0.42002080100E+03  0.12500000000E+03 0.  0.
         25    1    1    2    0    0 -0.23609478868E+02 -0.31158712383E+02 -0.22740281189E+03  0.26242201071E+03  0.12500000000E+03 0.  0.
</event>
<event>
 5    0  0.5597833E-005  0.2392730E+03  0.7546771E-02  0.1120278E+00
         21   -1    0    0  502  501  0.00000000000E+00  0.00000000000E+00  0.27616496054E+03  0.27616496054E+03  0.00000000000E+00 0.  1.
         21   -1    0    0  501  502 -0.00000000000E+00 -0.00000000000E+00 -0.20730925418E+03  0.20730925418E+03  0.00000000000E+00 0.  1.
         25    1    1    2    0    0 -0.17591918916E+02 -0.58927493624E+02  0.35311957535E+02  0.14371450679E+03  0.12500000000E+03 0.  0.
         25    1    1    2    0    0  0.17748053347E+02 -0.75767734789E+02  0.49417142382E+02  0.15531515378E+03  0.12500000000E+03 0.  0.
         25    1    1    2    0    0 -0.15613443100E+00  0.13469522841E+03 -0.15873393557E+02  0.18444455416E+03  0.12500000000E+03 0.  0.
</event>
<event>
 5    0  0.5597833E-005  0.2449999E+03  0.7546771E-02  0.1116506E+00
         21   -1    0    0  502  501  0.00000000000E+00  0.00000000000E+00  0.27373512979E+03  0.27373512979E+03  0.00000000000E+00 0.  1.
         21   -1    0    0  501  502 -0.00000000000E+00 -0.00000000000E+00 -0.21928106052E+03  0.21928106052E+03  0.00000000000E+00 0.  1.
         25    1    1    2    0    0  0.55081820007E+02 -0.87010211792E+02 -0.25171067310E+02  0.16390047737E+03  0.12500000000E+03 0.  0.
         25    1    1    2    0    0  0.25003511771E+02  0.33420865416E+02 -0.32229461462E+02  0.13566822779E+03  0.12500000000E+03 0.  0.
         25    1    1    2    0    0 -0.80085331778E+02  0.53589346376E+02  0.11185459804E+03  0.19344748516E+03  0.12500000000E+03 0.  0.
</event>
<event>
 5    0  0.5597833E-005  0.3109135E+03  0.7546771E-02  0.1079909E+00
         21   -1    0    0  502  501  0.00000000000E+00  0.00000000000E+00  0.80808564776E+02  0.80808564776E+02  0.00000000000E+00 0.  1.
         21   -1    0    0  501  502 -0.00000000000E+00 -0.00000000000E+00 -0.11962495970E+04  0.11962495970E+04  0.00000000000E+00 0.  1.
         25    1    1    2    0    0 -0.10102312485E+03  0.88404921978E+02 -0.32089957444E+03  0.36962499761E+03  0.12500000000E+03 0.  0.
         25    1    1    2    0    0 -0.51515787835E+02 -0.14670283718E+03 -0.56528110176E+03  0.59945251926E+03  0.12500000000E+03 0.  0.
         25    1    1    2    0    0  0.15253891269E+03  0.58297915199E+02 -0.22926035607E+03  0.30798064495E+03  0.12500000000E+03 0.  0.
</event>
<event>
 5    0  0.5597833E-005  0.2634941E+03  0.7546771E-02  0.1105062E+00
         21   -1    0    0  502  501  0.00000000000E+00  0.00000000000E+00  0.29745083698E+03  0.29745083698E+03  0.00000000000E+00 0. -1.
         21   -1    0    0  501  502 -0.00000000000E+00 -0.00000000000E+00 -0.23341385773E+03  0.23341385773E+03  0.00000000000E+00 0. -1.
         25    1    1    2    0    0 -0.12073554650E+02 -0.94326930107E+02  0.14275741548E+03  0.21224518873E+03  0.12500000000E+03 0.  0.
         25    1    1    2    0    0 -0.15749518384E+02  0.61839818607E+02  0.34614630910E+02  0.14455235442E+03  0.12500000000E+03 0.  0.
         25    1    1    2    0    0  0.27823073034E+02  0.32487111500E+02 -0.11333506715E+03  0.17406715156E+03  0.12500000000E+03 0.  0.
</event>
<event>
 5    0  0.5597833E-005  0.2504237E+03  0.7546771E-02  0.1113037E+00
         21   -1    0    0  502  501  0.00000000000E+00  0.00000000000E+00  0.65813143999E+02  0.65813143999E+02  0.00000000000E+00 0.  1.
         21   -1    0    0  501  502 -0.00000000000E+00 -0.00000000000E+00 -0.95288026658E+03  0.95288026658E+03  0.00000000000E+00 0.  1.
         25    1    1    2    0    0 -0.51686822441E+01 -0.48552219910E+02 -0.68755757949E+02  0.15078589982E+03  0.12500000000E+03 0.  0.
         25    1    1    2    0    0  0.72139539320E+01  0.83240348503E+02 -0.54510748018E+03  0.56546278543E+03  0.12500000000E+03 0.  0.
         25    1    1    2    0    0 -0.20452716879E+01 -0.34688128593E+02 -0.27320388445E+03  0.30244472533E+03  0.12500000000E+03 0.  0.
</event>
<event>
 5    0  0.5597833E-005  0.3374677E+03  0.7546771E-02  0.1067880E+00
         21   -1    0    0  502  501  0.00000000000E+00  0.00000000000E+00  0.38718094476E+02  0.38718094476E+02  0.00000000000E+00 0.  1.
         21   -1    0    0  501  502 -0.00000000000E+00 -0.00000000000E+00 -0.29413753117E+04  0.29413753117E+04  0.00000000000E+00 0.  1.
         25    1    1    2    0    0  0.13901539389E+02  0.19057885650E+03 -0.10691095647E+04  0.10932217591E+04  0.12500000000E+03 0.  0.
         25    1    1    2    0    0 -0.34407429708E+02 -0.24376081646E+03 -0.84848646929E+03  0.89227658012E+03  0.12500000000E+03 0.  0.
         25    1    1    2    0    0  0.20505890319E+02  0.53181959965E+02 -0.98506118328E+03  0.99459506695E+03  0.12500000000E+03 0.  0.
</event>
<event>
 5    0  0.6960373E-005  0.3078112E+03  0.7546771E-02  0.1081400E+00
         21   -1    0    0  502  501  0.00000000000E+00  0.00000000000E+00  0.24139392428E+03  0.24139392428E+03  0.00000000000E+00 0.  1.
         21   -1    0    0  501  502 -0.00000000000E+00 -0.00000000000E+00 -0.39250267515E+03  0.39250267515E+03  0.00000000000E+00 0.  1.
         25    1    1    2    0    0 -0.24803207032E+02 -0.77329177816E+02  0.75069944217E+02  0.16689966251E+03  0.12500000000E+03 0.  0.
         25    1    1    2    0    0  0.22588456596E+02 -0.28658410237E+02 -0.26789933807E+03  0.29787010287E+03  0.12500000000E+03 0.  0.
         25    1    1    2    0    0  0.22147504364E+01  0.10598758805E+03  0.41720642984E+02  0.16912683404E+03  0.12500000000E+03 0.  0.
</event>
<event>
 5    0  0.5597833E-005  0.2333014E+03  0.7546771E-02  0.1124337E+00
         21   -1    0    0  502  501  0.00000000000E+00  0.00000000000E+00  0.25669693756E+03  0.25669693756E+03  0.00000000000E+00 0. -1.
         21   -1    0    0  501  502 -0.00000000000E+00 -0.00000000000E+00 -0.21203820864E+03  0.21203820864E+03  0.00000000000E+00 0. -1.
         25    1    1    2    0    0 -0.64230891679E+01 -0.40385227714E+02 -0.34576890087E+02  0.13598817603E+03  0.12500000000E+03 0.  0.
         25    1    1    2    0    0  0.30983352105E+02  0.61029476860E+02  0.13112125850E+03  0.19365523382E+03  0.12500000000E+03 0.  0.
         25    1    1    2    0    0 -0.24560262938E+02 -0.20644249146E+02 -0.51885639494E+02  0.13909173636E+03  0.12500000000E+03 0.  0.
</event>
<event>
 5    0  0.9338081E-005  0.2914457E+03  0.7546771E-02  0.1089597E+00
         21   -1    0    0  502  501  0.00000000000E+00  0.00000000000E+00  0.39729786505E+03  0.39729786505E+03  0.00000000000E+00 0.  1.
         21   -1    0    0  501  502 -0.00000000000E+00 -0.00000000000E+00 -0.21379575627E+03  0.21379575627E+03  0.00000000000E+00 0.  1.
         25    1    1    2    0    0 -0.43283952085E+02 -0.68832266412E+02  0.25995748722E+03  0.29969030110E+03  0.12500000000E+03 0.  0.
         25    1    1    2    0    0 -0.51222629563E+02  0.31132305490E+02 -0.53529252750E+02  0.14860470761E+03  0.12500000000E+03 0.  0.
         25    1    1    2    0    0  0.94506581648E+02  0.37699960922E+02 -0.22926125688E+02  0.16279861261E+03  0.12500000000E+03 0.  0.
</event>
<event>
 5    0  0.5597833E-005  0.2079310E+03  0.7546771E-02  0.1143215E+00
         21   -1    0    0  502  501  0.00000000000E+00  0.00000000000E+00  0.23182356175E+03  0.23182356175E+03  0.00000000000E+00 0. -1.
         21   -1    0    0  501  502 -0.00000000000E+00 -0.00000000000E+00 -0.18650093137E+03  0.18650093137E+03  0.00000000000E+00 0. -1.
         25    1    1    2    0    0 -0.50057431203E+01  0.27216489134E+02  0.66484007169E+02  0.14425989725E+03  0.12500000000E+03 0.  0.
         25    1    1    2    0    0  0.12001833228E+02 -0.65431494041E+02 -0.86205454726E+00  0.14160179219E+03  0.12500000000E+03 0.  0.
         25    1    1    2    0    0 -0.69960901081E+01  0.38215004908E+02 -0.20299322236E+02  0.13246280369E+03  0.12500000000E+03 0.  0.
</event>
<event>
 5    0  0.5689632E-005  0.3714219E+03  0.7546771E-02  0.1054151E+00
         21   -1    0    0  502  501  0.00000000000E+00  0.00000000000E+00  0.31177587310E+03  0.31177587310E+03  0.00000000000E+00 0. -1.
         21   -1    0    0  501  502 -0.00000000000E+00 -0.00000000000E+00 -0.44247887194E+03  0.44247887194E+03  0.00000000000E+00 0. -1.
         25    1    1    2    0    0 -0.11252458497E+03 -0.96037879056E+02  0.65384027951E+02  0.20441410800E+03  0.12500000000E+03 0.  0.
         25    1    1    2    0    0 -0.25549950575E+02 -0.13243062014E+03 -0.17575624134E+03  0.25437359433E+03  0.12500000000E+03 0.  0.
         25    1    1    2    0    0  0.13807453555E+03  0.22846849920E+03 -0.20330785452E+02  0.29546704271E+03  0.12500000000E+03 0.  0.
</event>
<event>
 5    0  0.5597833E-005  0.2310087E+03  0.7546771E-02  0.1125932E+00
         21   -1    0    0  502  501  0.00000000000E+00  0.00000000000E+00  0.14406086340E+03  0.14406086340E+03  0.00000000000E+00 0.  1.
         21   -1    0    0  501  502 -0.00000000000E+00 -0.00000000000E+00 -0.37043375710E+03  0.37043375710E+03  0.00000000000E+00 0.  1.
         25    1    1    2    0    0 -0.90948403848E+02 -0.13562147946E+02 -0.27675082503E+02  0.15762758074E+03  0.12500000000E+03 0.  0.
         25    1    1    2    0    0  0.62240285826E+01  0.56245563147E+02 -0.11491862145E+03  0.17897930456E+03  0.12500000000E+03 0.  0.
         25    1    1    2    0    0  0.84724375266E+02 -0.42683415202E+02 -0.83779189747E+02  0.17788773519E+03  0.12500000000E+03 0.  0.
</event>
<event>
 5    0  0.5597833E-005  0.2931337E+03  0.7546771E-02  0.1088724E+00
         21   -1    0    0  502  501  0.00000000000E+00  0.00000000000E+00  0.22966803968E+04  0.22966803968E+04  0.00000000000E+00 0. -1.
         21   -1    0    0  501  502 -0.00000000000E+00 -0.00000000000E+00 -0.37413713418E+02  0.37413713418E+02  0.00000000000E+00 0.  1.
         25    1    1    2    0    0 -0.13295421538E+03 -0.40304971237E+02  0.34394597923E+03  0.39143984305E+03  0.12500000000E+03 0.  0.
         25    1    1    2    0    0  0.17607840279E+02  0.11917700867E+02  0.46007536976E+03  0.47722784233E+03  0.12500000000E+03 0.  0.
         25    1    1    2    0    0  0.11534637510E+03  0.28387270370E+02  0.14552453344E+04  0.14654264248E+04  0.12500000000E+03 0.  0.
</event>
<event>
 5    0  0.5641244E-005  0.3456723E+03  0.7546771E-02  0.1064405E+00
         21   -1    0    0  502  501  0.00000000000E+00  0.00000000000E+00  0.19694522878E+03  0.19694522878E+03  0.00000000000E+00 0.  1.
         21   -1    0    0  501  502 -0.00000000000E+00 -0.00000000000E+00 -0.60671366862E+03  0.60671366862E+03  0.00000000000E+00 0.  1.
         25    1    1    2    0    0 -0.14934194848E+03 -0.64358126015E+02 -0.11386279528E+02  0.20542549336E+03  0.12500000000E+03 0.  0.
         25    1    1    2    0    0 -0.79046025197E+02  0.98325122808E+02 -0.11329463168E+03  0.21065796316E+03  0.12500000000E+03 0.  0.
         25    1    1    2    0    0  0.22838797368E+03 -0.33966996793E+02 -0.28508752864E+03  0.38757544088E+03  0.12500000000E+03 0.  0.
</event>
<event>
 5    0  0.5597833E-005  0.3131582E+03  0.7546771E-02  0.1078842E+00
         21   -1    0    0  502  501  0.00000000000E+00  0.00000000000E+00  0.51804135949E+03  0.51804135949E+03  0.00000000000E+00 0.  1.
         21   -1    0    0  501  502 -0.00000000000E+00 -0.00000000000E+00 -0.18930551900E+03  0.18930551900E+03  0.00000000000E+00 0.  1.
         25    1    1    2    0    0 -0.81630523616E+02 -0.10263410406E+03  0.30402007146E+03  0.35390748163E+03  0.12500000000E+03 0.  0.
         25    1    1    2    0    0 -0.33082180988E+02  0.12227558273E+03  0.38543605909E+02  0.18208887497E+03  0.12500000000E+03 0.  0.
         25    1    1    2    0    0  0.11471270460E+03 -0.19641478673E+02 -0.13827836880E+02  0.17135052190E+03  0.12500000000E+03 0.  0.
</event>
<event>
 5    0  0.5597833E-005  0.2545911E+03  0.7546771E-02  0.1110437E+00
         21   -1    0    0  502  501  0.00000000000E+00  0.00000000000E+00  0.20583525482E+03  0.20583525482E+03  0.00000000000E+00 0.  1.
         21   -1    0    0  501  502 -0.00000000000E+00 -0.00000000000E+00 -0.31489571617E+03  0.31489571617E+03  0.00000000000E+00 0.  1.
         25    1    1    2    0    0  0.79609328462E+02 -0.23603611736E+02  0.71157101577E+02  0.16608163285E+03  0.12500000000E+03 0.  0.
         25    1    1    2    0    0  0.20301700146E+01 -0.14177144647E+01 -0.78883123352E+01  0.12527312951E+03  0.12500000000E+03 0.  0.
         25    1    1    2    0    0 -0.81639498476E+02  0.25021326200E+02 -0.17232925060E+03  0.22937620864E+03  0.12500000000E+03 0.  0.
</event>
<event>
 5    0  0.5597833E-005  0.2281916E+03  0.7546771E-02  0.1127919E+00
         21   -1    0    0  502  501  0.00000000000E+00  0.00000000000E+00  0.12176795048E+03  0.12176795048E+03  0.00000000000E+00 0.  1.
         21   -1    0    0  501  502 -0.00000000000E+00 -0.00000000000E+00 -0.42762807090E+03  0.42762807090E+03  0.00000000000E+00 0.  1.
         25    1    1    2    0    0 -0.16983028308E+01  0.94817515307E+01 -0.31401951229E+02  0.12924345394E+03  0.12500000000E+03 0.  0.
         25    1    1    2    0    0  0.19910067916E+02 -0.79821717442E+02 -0.59378189617E+02  0.16099281593E+03  0.12500000000E+03 0.  0.
         25    1    1    2    0    0 -0.18211765085E+02  0.70339965912E+02 -0.21507997957E+03  0.25915975151E+03  0.12500000000E+03 0.  0.
</event>
<event>
 5    0  0.5597833E-005  0.3940369E+03  0.7546771E-02  0.1045864E+00
         21   -1    0    0  502  501  0.00000000000E+00  0.00000000000E+00  0.67137666901E+03  0.67137666901E+03  0.00000000000E+00 0.  1.
         21   -1    0    0  501  502 -0.00000000000E+00 -0.00000000000E+00 -0.23126375700E+03  0.23126375700E+03  0.00000000000E+00 0.  1.
         25    1    1    2    0    0  0.20651536789E+03 -0.96361793201E+02  0.21361279588E+03  0.33643664920E+03  0.12500000000E+03 0.  0.
         25    1    1    2    0    0 -0.24388261619E+03  0.20998562270E+03  0.13724318733E+03  0.37152844398E+03  0.12500000000E+03 0.  0.
         25    1    1    2    0    0  0.37367248302E+02 -0.11362382950E+03  0.89256928795E+02  0.19467533283E+03  0.12500000000E+03 0.  0.
</event>
<event>
 5    0  0.5597833E-005  0.2934711E+03  0.7546771E-02  0.1088551E+00
         21   -1    0    0  502  501  0.00000000000E+00  0.00000000000E+00  0.74515975561E+02  0.74515975561E+02  0.00000000000E+00 0.  1.
         21   -1    0    0  501  502 -0.00000000000E+00 -0.00000000000E+00 -0.11557962190E+04  0.11557962190E+04  0.00000000000E+00 0.  1.
         25    1    1    2    0    0 -0.26051317665E+02  0.88882817172E+02 -0.65652451288E+03  0.67470605626E+03  0.12500000000E+03 0.  0.
         25    1    1    2    0    0  0.15880812547E+01  0.46678367134E+02 -0.30883547472E+03  0.33643088801E+03  0.12500000000E+03 0.  0.
         25    1    1    2    0    0  0.24463236410E+02 -0.13556118431E+03 -0.11592025583E+03  0.21917525029E+03  0.12500000000E+03 0.  0.
</event>
<event>
 5    0  0.5597833E-005  0.3582172E+03  0.7546771E-02  0.1059292E+00
         21   -1    0    0  502  501  0.00000000000E+00  0.00000000000E+00  0.88144213915E+02  0.88144213915E+02  0.00000000000E+00 0. -1.
         21   -1    0    0  501  502 -0.00000000000E+00 -0.00000000000E+00 -0.14557908288E+04  0.14557908288E+04  0.00000000000E+00 0. -1.
         25    1    1    2    0    0  0.20655929683E+03 -0.61170314575E+02 -0.41353998287E+03  0.48275135207E+03  0.12500000000E+03 0.  0.
         25    1    1    2    0    0 -0.18380250368E+03  0.18317377388E+03 -0.57167376625E+03  0.64013427249E+03  0.12500000000E+03 0.  0.
         25    1    1    2    0    0 -0.22756793150E+02 -0.12200345930E+03 -0.38243286574E+03  0.42104941814E+03  0.12500000000E+03 0.  0.
</event>
<event>
 5    0  0.5597833E-005  0.3392566E+03  0.7546771E-02  0.1067113E+00
         21   -1    0    0  502  501  0.00000000000E+00  0.00000000000E+00  0.32844824870E+03  0.32844824870E+03  0.00000000000E+00 0.  1.
         21   -1    0    0  501  502 -0.00000000000E+00 -0.00000000000E+00 -0.35042060447E+03  0.35042060447E+03  0.00000000000E+00 0.  1.
         25    1    1    2    0    0 -0.62422325352E+02  0.18174774322E+03  0.14096562635E+03  0.26911911244E+03  0.12500000000E+03 0.  0.
         25    1    1    2    0    0  0.67368763743E+02 -0.14078687728E+03 -0.18947003832E+03  0.27546940041E+03  0.12500000000E+03 0.  0.
         25    1    1    2    0    0 -0.49464383907E+01 -0.40960865946E+02  0.26532056201E+02  0.13428034033E+03  0.12500000000E+03 0.  0.
</event>
<event>
 5    0  0.5597833E-005  0.2357303E+03  0.7546771E-02  0.1122670E+00
         21   -1    0    0  502  501  0.00000000000E+00  0.00000000000E+00  0.48094878077E+03  0.48094878077E+03  0.00000000000E+00 0.  1.
         21   -1    0    0  501  502 -0.00000000000E+00 -0.00000000000E+00 -0.11553994239E+03  0.11553994239E+03  0.00000000000E+00 0.  1.
         25    1    1    2    0    0 -0.56160288703E+02  0.54703291943E+02  0.11561009432E+03  0.18744898529E+03  0.12500000000E+03 0.  0.
         25    1    1    2    0    0 -0.68317518831E+02 -0.32344321708E+02  0.11118649665E+03  0.18357798224E+03  0.12500000000E+03 0.  0.
         25    1    1    2    0    0  0.12447780753E+03 -0.22358970235E+02  0.13861224741E+03  0.22546175563E+03  0.12500000000E+03 0.  0.
</event>
<event>
 5    0  0.5597833E-005  0.2301661E+03  0.7546771E-02  0.1126523E+00
         21   -1    0    0  502  501  0.00000000000E+00  0.00000000000E+00  0.12950917046E+04  0.12950917046E+04  0.00000000000E+00 0.  1.
         21   -1    0    0  501  502 -0.00000000000E+00 -0.00000000000E+00 -0.40905562305E+02  0.40905562305E+02  0.00000000000E+00 0.  1.
         25    1    1    2    0    0  0.46311508309E+02 -0.17090547129E+02  0.60938814014E+03  0.62403184850E+03  0.12500000000E+03 0.  0.
         25    1    1    2    0    0  0.29023771963E+02  0.32037833696E+02  0.44399998469E+03  0.46328154348E+03  0.12500000000E+03 0.  0.
         25    1    1    2    0    0 -0.75335280272E+02 -0.14947286567E+02  0.20079801749E+03  0.24868387495E+03  0.12500000000E+03 0.  0.
</event>
<event>
 5    0  0.5597833E-005  0.2530702E+03  0.7546771E-02  0.1111380E+00
         21   -1    0    0  502  501  0.00000000000E+00  0.00000000000E+00  0.15906667830E+03  0.15906667830E+03  0.00000000000E+00 0.  1.
         21   -1    0    0  501  502 -0.00000000000E+00 -0.00000000000E+00 -0.40262677219E+03  0.40262677219E+03  0.00000000000E+00 0.  1.
         25    1    1    2    0    0  0.38072969932E+02 -0.15718136851E+02 -0.24206257422E+03  0.27552840272E+03  0.12500000000E+03 0.  0.
         25    1    1    2    0    0  0.36040952169E+02 -0.56114686712E+01  0.34973149530E+02  0.13482789030E+03  0.12500000000E+03 0.  0.
         25    1    1    2    0    0 -0.74113922102E+02  0.21329605522E+02 -0.36470669192E+02  0.15133715747E+03  0.12500000000E+03 0.  0.
</event>
<event>
 5    0  0.5597833E-005  0.4174197E+03  0.7546771E-02  0.1037909E+00
         21   -1    0    0  502  501  0.00000000000E+00  0.00000000000E+00  0.86855830392E+03  0.86855830392E+03  0.00000000000E+00 0.  1.
         21   -1    0    0  501  502 -0.00000000000E+00 -0.00000000000E+00 -0.20060741104E+03  0.20060741104E+03  0.00000000000E+00 0.  1.
         25    1    1    2    0    0  0.35866865270E+02  0.27271491240E+03  0.59090488727E+02  0.30785798890E+03  0.12500000000E+03 0.  0.
         25    1    1    2    0    0 -0.46525759283E+02 -0.24208245278E+03  0.22528417226E+03  0.35657610477E+03  0.12500000000E+03 0.  0.
         25    1    1    2    0    0  0.10658894013E+02 -0.30632459614E+02  0.38357623189E+03  0.40473162129E+03  0.12500000000E+03 0.  0.
</event>
<event>
 5    0  0.5597833E-005  0.2362231E+03  0.7546771E-02  0.1122335E+00
         21   -1    0    0  502  501  0.00000000000E+00  0.00000000000E+00  0.54539643996E+03  0.54539643996E+03  0.00000000000E+00 0. -1.
         21   -1    0    0  501  502 -0.00000000000E+00 -0.00000000000E+00 -0.10231340230E+03  0.10231340230E+03  0.00000000000E+00 0. -1.
         25    1    1    2    0    0 -0.49945007629E+01 -0.28910817888E+02  0.14173446361E+03  0.19124444725E+03  0.12500000000E+03 0.  0.
         25    1    1    2    0    0  0.36962686131E+02 -0.88618681117E+02  0.86957261479E+02  0.18001687736E+03  0.12500000000E+03 0.  0.
         25    1    1    2    0    0 -0.31968185369E+02  0.11752949901E+03  0.21439131256E+03  0.27644851765E+03  0.12500000000E+03 0.  0.
</event>
<event>
 5    0  0.5597833E-005  0.3768036E+03  0.7546771E-02  0.1052122E+00
         21   -1    0    0  502  501  0.00000000000E+00  0.00000000000E+00  0.91830067974E+03  0.91830067974E+03  0.00000000000E+00 0.  1.
         21   -1    0    0  501  502 -0.00000000000E+00 -0.00000000000E+00 -0.15461267280E+03  0.15461267280E+03  0.00000000000E+00 0.  1.
         25    1    1    2    0    0 -0.22438561004E+03 -0.79993573061E+00  0.39490241515E+03  0.47108646699E+03  0.12500000000E+03 0.  0.
         25    1    1    2    0    0  0.14012060847E+03  0.79083218704E+02  0.89857944153E+01  0.20394529879E+03  0.12500000000E+03 0.  0.
         25    1    1    2    0    0  0.84265001571E+02 -0.78283282974E+02  0.35979979738E+03  0.39788158675E+03  0.12500000000E+03 0.  0.
</event>
<event>
 5    0  0.5597833E-005  0.2409379E+03  0.7546771E-02  0.1119170E+00
         21   -1    0    0  502  501  0.00000000000E+00  0.00000000000E+00  0.58339720412E+03  0.58339720412E+03  0.00000000000E+00 0. -1.
         21   -1    0    0  501  502 -0.00000000000E+00 -0.00000000000E+00 -0.99505236869E+02  0.99505236869E+02  0.00000000000E+00 0. -1.
         25    1    1    2    0    0  0.63355306404E+02  0.11984234261E+03  0.11702657923E+03  0.21839483093E+03  0.12500000000E+03 0.  0.
         25    1    1    2    0    0 -0.39924144402E+02 -0.58764589677E+02  0.18063494207E+03  0.23087051913E+03  0.12500000000E+03 0.  0.
         25    1    1    2    0    0 -0.23431162002E+02 -0.61077752938E+02  0.18623044595E+03  0.23363709092E+03  0.12500000000E+03 0.  0.
</event>
<event>
 5    0  0.5597833E-005  0.3455458E+03  0.7546771E-02  0.1064458E+00
         21   -1    0    0  502  501  0.00000000000E+00  0.00000000000E+00  0.67519210833E+03  0.67519210833E+03  0.00000000000E+00 0.  1.
         21   -1    0    0  501  502 -0.00000000000E+00 -0.00000000000E+00 -0.17684132455E+03  0.17684132455E+03  0.00000000000E+00 0.  1.
         25    1    1    2    0    0 -0.51603750398E+01 -0.20322507699E+03  0.20374179180E+03  0.31378779313E+03  0.12500000000E+03 0.  0.
         25    1    1    2    0    0  0.62764205100E+02 -0.28142161961E+02  0.21404668899E+03  0.25723979434E+03  0.12500000000E+03 0.  0.
         25    1    1    2    0    0 -0.57603830060E+02  0.23136723895E+03  0.80562302979E+02  0.28100584542E+03  0.12500000000E+03 0.  0.
</event>
<event>
 5    0  0.5597833E-005  0.3179246E+03  0.7546771E-02  0.1076608E+00
         21   -1    0    0  502  501  0.00000000000E+00  0.00000000000E+00  0.23513416787E+04  0.23513416787E+04  0.00000000000E+00 0.  1.
         21   -1    0    0  501  502 -0.00000000000E+00 -0.00000000000E+00 -0.42986544051E+02  0.42986544051E+02  0.00000000000E+00 0.  1.
         25    1    1    2    0    0  0.46465666462E+02  0.19576353864E+03  0.13805417467E+04  0.14007151514E+04  0.12500000000E+03 0.  0.
         25    1    1    2    0    0  0.21499881282E+01 -0.66288068304E+02  0.60038124183E+03  0.61683171610E+03  0.12500000000E+03 0.  0.
         25    1    1    2    0    0 -0.48615654590E+02 -0.12947547033E+03  0.32743214616E+03  0.37678135520E+03  0.12500000000E+03 0.  0.
</event>
<event>
 5    0  0.5597833E-005  0.3061955E+03  0.7546771E-02  0.1082184E+00
         21   -1    0    0  502  501  0.00000000000E+00  0.00000000000E+00  0.60731948751E+03  0.60731948751E+03  0.00000000000E+00 0.  1.
         21   -1    0    0  501  502 -0.00000000000E+00 -0.00000000000E+00 -0.15437617791E+03  0.15437617791E+03  0.00000000000E+00 0.  1.
         25    1    1    2    0    0  0.10602845364E+03  0.25414978967E+02  0.32307043976E+02  0.16898727534E+03  0.12500000000E+03 0.  0.
         25    1    1    2    0    0 -0.12715944259E+03 -0.65366092201E+02  0.41871924306E+03  0.45977500406E+03  0.12500000000E+03 0.  0.
         25    1    1    2    0    0  0.21130988943E+02  0.39951113235E+02  0.19170225606E+01  0.13293338602E+03  0.12500000000E+03 0.  0.
</event>
<event>
 5    0  0.5597833E-005  0.3114791E+03  0.7546771E-02  0.1079639E+00
         21   -1    0    0  502  501  0.00000000000E+00  0.00000000000E+00  0.12661491549E+03  0.12661491549E+03  0.00000000000E+00 0.  1.
         21   -1    0    0  501  502 -0.00000000000E+00 -0.00000000000E+00 -0.76625411230E+03  0.76625411230E+03  0.00000000000E+00 0.  1.
         25    1    1    2    0    0  0.85361013842E+02  0.16988614156E+03 -0.49082120719E+03  0.54099746876E+03  0.12500000000E+03 0.  0.
         25    1    1    2    0    0 -0.32696703127E+02 -0.66816027453E+02 -0.44512940833E+02  0.15211790763E+03  0.12500000000E+03 0.  0.
         25    1    1    2    0    0 -0.52664310715E+02 -0.10307011411E+03 -0.10430504878E+03  0.19975365140E+03  0.12500000000E+03 0.  0.
</event>
<event>
 5    0  0.5597833E-005  0.3000114E+03  0.7546771E-02  0.1085235E+00
         21   -1    0    0  502  501  0.00000000000E+00  0.00000000000E+00  0.24151675213E+03  0.24151675213E+03  0.00000000000E+00 0.  1.
         21   -1    0    0  501  502 -0.00000000000E+00 -0.00000000000E+00 -0.37267321401E+03  0.37267321401E+03  0.00000000000E+00 0.  1.
         25    1    1    2    0    0  0.36577085967E+02 -0.13679798797E+03 -0.79355424834E+01  0.18904905598E+03  0.12500000000E+03 0.  0.
         25    1    1    2    0    0 -0.94737275048E+02  0.93236284720E+02  0.59695289079E+02  0.19198094596E+03  0.12500000000E+03 0.  0.
         25    1    1    2    0    0  0.58160189080E+02  0.43561703254E+02 -0.18291620848E+03  0.23315996421E+03  0.12500000000E+03 0.  0.
</event>
<event>
 5    0  0.5597833E-005  0.4073852E+03  0.7546771E-02  0.1041252E+00
         21   -1    0    0  502  501  0.00000000000E+00  0.00000000000E+00  0.25676586184E+03  0.25676586184E+03  0.00000000000E+00 0.  1.
         21   -1    0    0  501  502 -0.00000000000E+00 -0.00000000000E+00 -0.64635812974E+03  0.64635812974E+03  0.00000000000E+00 0.  1.
         25    1    1    2    0    0 -0.24779619991E+03  0.30404569075E+02 -0.21111663722E+03  0.35003232568E+03  0.12500000000E+03 0.  0.
         25    1    1    2    0    0  0.47112026823E+02  0.12755845583E+03  0.46548850834E+02  0.19047965308E+03  0.12500000000E+03 0.  0.
         25    1    1    2    0    0  0.20068417309E+03 -0.15796302490E+03 -0.22502448151E+03  0.36261201282E+03  0.12500000000E+03 0.  0.
</event>
<event>
 5    0  0.5597833E-005  0.3609460E+03  0.7546771E-02  0.1058210E+00
         21   -1    0    0  502  501  0.00000000000E+00  0.00000000000E+00  0.19361718556E+03  0.19361718556E+03  0.00000000000E+00 0. -1.
         21   -1    0    0  501  502 -0.00000000000E+00 -0.00000000000E+00 -0.67288447181E+03  0.67288447181E+03  0.00000000000E+00 0. -1.
         25    1    1    2    0    0 -0.15852233692E+03  0.11871460688E+03 -0.22138536703E+03  0.32227157790E+03  0.12500000000E+03 0.  0.
         25    1    1    2    0    0  0.26190172734E+03 -0.33584021363E+02 -0.12418546970E+03  0.31743886366E+03  0.12500000000E+03 0.  0.
         25    1    1    2    0    0 -0.10337939042E+03 -0.85130585516E+02 -0.13369644952E+03  0.22679121581E+03  0.12500000000E+03 0.  0.
</event>
<event>
 5    0  0.5597833E-005  0.2464909E+03  0.7546771E-02  0.1115543E+00
         21   -1    0    0  502  501  0.00000000000E+00  0.00000000000E+00  0.38641505177E+03  0.38641505177E+03  0.00000000000E+00 0. -1.
         21   -1    0    0  501  502 -0.00000000000E+00 -0.00000000000E+00 -0.15723449320E+03  0.15723449320E+03  0.00000000000E+00 0. -1.
         25    1    1    2    0    0 -0.20179219341E+02 -0.56688750653E+02  0.12104062836E+03  0.18411042626E+03  0.12500000000E+03 0.  0.
         25    1    1    2    0    0 -0.12246229775E+02 -0.75775481995E+02  0.93530734063E+02  0.17396807762E+03  0.12500000000E+03 0.  0.
         25    1    1    2    0    0  0.32425449115E+02  0.13246423265E+03  0.14609196150E+02  0.18557104110E+03  0.12500000000E+03 0.  0.
</event>
<event>
 5    0  0.5597833E-005  0.4131516E+03  0.7546771E-02  0.1039319E+00
         21   -1    0    0  502  501  0.00000000000E+00  0.00000000000E+00  0.63180960652E+03  0.63180960652E+03  0.00000000000E+00 0. -1.
         21   -1    0    0  501  502 -0.00000000000E+00 -0.00000000000E+00 -0.27016725011E+03  0.27016725011E+03  0.00000000000E+00 0. -1.
         25    1    1    2    0    0 -0.75515296243E+02  0.14288519423E+03  0.15058730545E+03  0.25381149552E+03  0.12500000000E+03 0.  0.
         25    1    1    2    0    0  0.24096197066E+03  0.10264980877E+03  0.12080294961E+03  0.31435331584E+03  0.12500000000E+03 0.  0.
         25    1    1    2    0    0 -0.16544667442E+03 -0.24553500299E+03  0.90252101356E+02  0.33381204527E+03  0.12500000000E+03 0.  0.
</event>
<event>
 5    0  0.5597833E-005  0.2735374E+03  0.7546771E-02  0.1099272E+00
         21   -1    0    0  502  501  0.00000000000E+00  0.00000000000E+00  0.67018507851E+02  0.67018507851E+02  0.00000000000E+00 0.  1.
         21   -1    0    0  501  502 -0.00000000000E+00 -0.00000000000E+00 -0.11164487825E+04  0.11164487825E+04  0.00000000000E+00 0.  1.
         25    1    1    2    0    0 -0.94422890044E+02 -0.61736411544E+01 -0.66049180936E+03  0.67884330021E+03  0.12500000000E+03 0.  0.
         25    1    1    2    0    0  0.87338430885E+02  0.52535329604E+02 -0.31020534387E+03  0.34962882852E+03  0.12500000000E+03 0.  0.
         25    1    1    2    0    0  0.70844591593E+01 -0.46361688450E+02 -0.78733121419E+02  0.15499516162E+03  0.12500000000E+03 0.  0.
</event>
<event>
 5    0  0.5597833E-005  0.2973036E+03  0.7546771E-02  0.1086596E+00
         21   -1    0    0  502  501  0.00000000000E+00  0.00000000000E+00  0.49692418908E+03  0.49692418908E+03  0.00000000000E+00 0. -1.
         21   -1    0    0  501  502 -0.00000000000E+00 -0.00000000000E+00 -0.17787304846E+03  0.17787304846E+03  0.00000000000E+00 0. -1.
         25    1    1    2    0    0  0.10687048705E+02  0.47645390789E+01 -0.49528903566E+02  0.13496305469E+03  0.12500000000E+03 0.  0.
         25    1    1    2    0    0  0.45953665044E+02  0.12962099200E+03  0.25875310767E+03  0.31857732441E+03  0.12500000000E+03 0.  0.
         25    1    1    2    0    0 -0.56640713749E+02 -0.13438553108E+03  0.10982693652E+03  0.22125685843E+03  0.12500000000E+03 0.  0.
</event>
<event>
 5    0  0.5597833E-005  0.2105571E+03  0.7546771E-02  0.1141126E+00
         21   -1    0    0  502  501  0.00000000000E+00  0.00000000000E+00  0.15199997016E+03  0.15199997016E+03  0.00000000000E+00 0. -1.
         21   -1    0    0  501  502 -0.00000000000E+00 -0.00000000000E+00 -0.29167311178E+03  0.29167311178E+03  0.00000000000E+00 0. -1.
         25    1    1    2    0    0 -0.44473515866E+02  0.16555568791E+02 -0.25758284296E+02  0.13616339332E+03  0.12500000000E+03 0.  0.
         25    1    1    2    0    0  0.70137296134E+02 -0.27653092335E+01 -0.12452427171E+02  0.14389909724E+03  0.12500000000E+03 0.  0.
         25    1    1    2    0    0 -0.25663780268E+02 -0.13790259558E+02 -0.10146243016E+03  0.16361059137E+03  0.12500000000E+03 0.  0.
</event>
<event>
 5    0  0.5597833E-005  0.2800671E+03  0.7546771E-02  0.1095652E+00
         21   -1    0    0  502  501  0.00000000000E+00  0.00000000000E+00  0.86180707960E+02  0.86180707960E+02  0.00000000000E+00 0. -1.
         21   -1    0    0  501  502 -0.00000000000E+00 -0.00000000000E+00 -0.91015274398E+03  0.91015274398E+03  0.00000000000E+00 0. -1.
         25    1    1    2    0    0 -0.30959114642E+02 -0.90364965941E+02 -0.18823077119E+03  0.24531636120E+03  0.12500000000E+03 0.  0.
         25    1    1    2    0    0 -0.88580708413E+02 -0.62666293279E+02 -0.31422093927E+03  0.35515265013E+03  0.12500000000E+03 0.  0.
         25    1    1    2    0    0  0.11953982306E+03  0.15303125922E+03 -0.32152032555E+03  0.39586444061E+03  0.12500000000E+03 0.  0.
</event>
<event>
 5    0  0.5597833E-005  0.3122289E+03  0.7546771E-02  0.1079282E+00
         21   -1    0    0  502  501  0.00000000000E+00  0.00000000000E+00  0.81844527507E+03  0.81844527507E+03  0.00000000000E+00 0.  1.
         21   -1    0    0  501  502 -0.00000000000E+00 -0.00000000000E+00 -0.11911225834E+03  0.11911225834E+03  0.00000000000E+00 0.  1.
         25    1    1    2    0    0 -0.37686508615E+01 -0.14926644615E+03  0.14034489597E+03  0.24003409029E+03  0.12500000000E+03 0.  0.
         25    1    1    2    0    0 -0.14293574149E+03  0.37758450168E+02  0.23661210485E+03  0.30572310170E+03  0.12500000000E+03 0.  0.
         25    1    1    2    0    0  0.14670439235E+03  0.11150799598E+03  0.32237601591E+03  0.39180034142E+03  0.12500000000E+03 0.  0.
</event>
<event>
 5    0  0.5597833E-005  0.3276977E+03  0.7546771E-02  0.1072160E+00
         21   -1    0    0  502  501  0.00000000000E+00  0.00000000000E+00  0.56485563327E+03  0.56485563327E+03  0.00000000000E+00 0. -1.
         21   -1    0    0  501  502 -0.00000000000E+00 -0.00000000000E+00 -0.19011192574E+03  0.19011192574E+03  0.00000000000E+00 0. -1.
         25    1    1    2    0    0 -0.18130286285E+02  0.12864554315E+03  0.13101583552E+02  0.18076237038E+03  0.12500000000E+03 0.  0.
         25    1    1    2    0    0 -0.83689869470E+02 -0.13321801866E+03  0.36072687410E+03  0.41291635042E+03  0.12500000000E+03 0.  0.
         25    1    1    2    0    0  0.10182015576E+03  0.45724755070E+01  0.91524987406E+00  0.16128883821E+03  0.12500000000E+03 0.  0.
</event>
<event>
 5    0  0.5597833E-005  0.2139236E+03  0.7546771E-02  0.1138496E+00
         21   -1    0    0  502  501  0.00000000000E+00  0.00000000000E+00  0.45797831494E+03  0.45797831494E+03  0.00000000000E+00 0. -1.
         21   -1    0    0  501  502 -0.00000000000E+00 -0.00000000000E+00 -0.99924593136E+02  0.99924593136E+02  0.00000000000E+00 0. -1.
         25    1    1    2    0    0  0.17928311828E+02  0.37911903767E+02  0.18694274620E+03  0.22876041434E+03  0.12500000000E+03 0.  0.
         25    1    1    2    0    0  0.35899886610E+02 -0.58609945850E+02  0.74232716961E+02  0.16080865611E+03  0.12500000000E+03 0.  0.
         25    1    1    2    0    0 -0.53828198438E+02  0.20698042083E+02  0.96878258641E+02  0.16833383763E+03  0.12500000000E+03 0.  0.
</event>
<event>
 5    0  0.5597833E-005  0.5001329E+03  0.7546771E-02  0.1013744E+00
         21   -1    0    0  502  501  0.00000000000E+00  0.00000000000E+00  0.37699493833E+03  0.37699493833E+03  0.00000000000E+00 0. -1.
         21   -1    0    0  501  502 -0.00000000000E+00 -0.00000000000E+00 -0.66349151130E+03  0.66349151130E+03  0.00000000000E+00 0. -1.
         25    1    1    2    0    0 -0.29309659036E+03  0.70059419320E+02 -0.12894545522E+03  0.35080744567E+03  0.12500000000E+03 0.  0.
         25    1    1    2    0    0  0.38285753335E+03 -0.19149819447E+03 -0.20056479254E+03  0.48898127299E+03  0.12500000000E+03 0.  0.
         25    1    1    2    0    0 -0.89760942994E+02  0.12143877515E+03  0.43013674794E+02  0.20069773097E+03  0.12500000000E+03 0.  0.
</event>
<event>
 5    0  0.5597833E-005  0.2733511E+03  0.7546771E-02  0.1099377E+00
         21   -1    0    0  502  501  0.00000000000E+00  0.00000000000E+00  0.11236837004E+03  0.11236837004E+03  0.00000000000E+00 0.  1.
         21   -1    0    0  501  502 -0.00000000000E+00 -0.00000000000E+00 -0.66496316713E+03  0.66496316713E+03  0.00000000000E+00 0.  1.
         25    1    1    2    0    0 -0.27562236883E+02 -0.13941935197E+03 -0.37678022543E+03  0.42164649990E+03  0.12500000000E+03 0.  0.
         25    1    1    2    0    0  0.42880474377E+02  0.27780472076E+02 -0.11289578322E+03  0.17601405506E+03  0.12500000000E+03 0.  0.
         25    1    1    2    0    0 -0.15318237494E+02  0.11163887990E+03 -0.62918788444E+02  0.17967098220E+03  0.12500000000E+03 0.  0.
</event>
<event>
 5    0  0.5597833E-005  0.3895313E+03  0.7546771E-02  0.1047466E+00
         21   -1    0    0  502  501  0.00000000000E+00  0.00000000000E+00  0.15480960872E+03  0.15480960872E+03  0.00000000000E+00 0. -1.
         21   -1    0    0  501  502 -0.00000000000E+00 -0.00000000000E+00 -0.98013726462E+03  0.98013726462E+03  0.00000000000E+00 0. -1.
         25    1    1    2    0    0  0.33763025208E+02  0.13840461256E+03 -0.11454735344E+03  0.22145400161E+03  0.12500000000E+03 0.  0.
         25    1    1    2    0    0 -0.25821125523E+03 -0.93274564449E+02 -0.47018390300E+03  0.55863324224E+03  0.12500000000E+03 0.  0.
         25    1    1    2    0    0  0.22444823002E+03 -0.45130048111E+02 -0.24059639947E+03  0.35485962948E+03  0.12500000000E+03 0.  0.
</event>
<event>
 5    0  0.5597833E-005  0.4988776E+03  0.7546771E-02  0.1014072E+00
         21   -1    0    0  502  501  0.00000000000E+00  0.00000000000E+00  0.14795557110E+03  0.14795557110E+03  0.00000000000E+00 0. -1.
         21   -1    0    0  501  502 -0.00000000000E+00 -0.00000000000E+00 -0.16821190197E+04  0.16821190197E+04  0.00000000000E+00 0. -1.
         25    1    1    2    0    0  0.55440323066E+02  0.81308585865E+02 -0.39625306366E+03  0.42699672834E+03  0.12500000000E+03 0.  0.
         25    1    1    2    0    0 -0.41257492018E+02 -0.43019709723E+03 -0.61373103883E+03  0.76096157008E+03  0.12500000000E+03 0.  0.
         25    1    1    2    0    0 -0.14182831047E+02  0.34888851136E+03 -0.52417934612E+03  0.64211629240E+03  0.12500000000E+03 0.  0.
</event>
<event>
 5    0  0.5597833E-005  0.2579095E+03  0.7546771E-02  0.1108406E+00
         21   -1    0    0  502  501  0.00000000000E+00  0.00000000000E+00  0.18677581322E+03  0.18677581322E+03  0.00000000000E+00 0.  1.
         21   -1    0    0  501  502 -0.00000000000E+00 -0.00000000000E+00 -0.35613453045E+03  0.35613453045E+03  0.00000000000E+00 0.  1.
         25    1    1    2    0    0  0.74084568789E+02 -0.13311142341E+02 -0.17681610709E+03  0.22924800014E+03  0.12500000000E+03 0.  0.
         25    1    1    2    0    0 -0.10836864294E+03  0.57209877607E+02 -0.11898994358E+02  0.17545175672E+03  0.12500000000E+03 0.  0.
         25    1    1    2    0    0  0.34284074148E+02 -0.43898735267E+02  0.19356384211E+02  0.13821058682E+03  0.12500000000E+03 0.  0.
</event>
<event>
 5    0  0.5597833E-005  0.4667427E+03  0.7546771E-02  0.1022844E+00
         21   -1    0    0  502  501  0.00000000000E+00  0.00000000000E+00  0.20608653974E+03  0.20608653974E+03  0.00000000000E+00 0. -1.
         21   -1    0    0  501  502 -0.00000000000E+00 -0.00000000000E+00 -0.10570742989E+04  0.10570742989E+04  0.00000000000E+00 0. -1.
         25    1    1    2    0    0 -0.14815380842E+03 -0.92363443718E+02 -0.51853361559E+02  0.22089438153E+03  0.12500000000E+03 0.  0.
         25    1    1    2    0    0  0.19155996381E+03  0.28833457087E+03 -0.68959950352E+03  0.78166778094E+03  0.12500000000E+03 0.  0.
         25    1    1    2    0    0 -0.43406155394E+02 -0.19597112715E+03 -0.10953489409E+03  0.26059867618E+03  0.12500000000E+03 0.  0.
</event>
<event>
 5    0  0.5597833E-005  0.6484757E+03  0.7546771E-02  0.9809644E-01
         21   -1    0    0  502  501  0.00000000000E+00  0.00000000000E+00  0.18151134804E+04  0.18151134804E+04  0.00000000000E+00 0.  1.
         21   -1    0    0  501  502 -0.00000000000E+00 -0.00000000000E+00 -0.23167735841E+03  0.23167735841E+03  0.00000000000E+00 0.  1.
         25    1    1    2    0    0 -0.47712826480E+03  0.15595601668E+03  0.12678181374E+04  0.13692923317E+04  0.12500000000E+03 0.  0.
         25    1    1    2    0    0  0.76798110207E+02 -0.60464359130E+02  0.14440345559E+03  0.21454893717E+03  0.12500000000E+03 0.  0.
         25    1    1    2    0    0  0.40033015460E+03 -0.95491657547E+02  0.17121452901E+03  0.46294956991E+03  0.12500000000E+03 0.  0.
</event>
<event>
 5    0  0.5597833E-005  0.3326666E+03  0.7546771E-02  0.1069963E+00
         21   -1    0    0  502  501  0.00000000000E+00  0.00000000000E+00  0.18366972035E+04  0.18366972035E+04  0.00000000000E+00 0.  1.
         21   -1    0    0  501  502 -0.00000000000E+00 -0.00000000000E+00 -0.60253291372E+02  0.60253291372E+02  0.00000000000E+00 0.  1.
         25    1    1    2    0    0 -0.76578524094E+02  0.20057712375E+03  0.65187407322E+03  0.69761039289E+03  0.12500000000E+03 0.  0.
         25    1    1    2    0    0 -0.86096999604E+02 -0.13013915924E+03  0.53905107407E+03  0.57493473939E+03  0.12500000000E+03 0.  0.
         25    1    1    2    0    0  0.16267552370E+03 -0.70437964513E+02  0.58551876486E+03  0.62440536261E+03  0.12500000000E+03 0.  0.
</event>
<event>
 5    0  0.6436735E-005  0.6138210E+03  0.7546771E-02  0.9877140E-01
         21   -1    0    0  502  501  0.00000000000E+00  0.00000000000E+00  0.17291247766E+04  0.17291247766E+04  0.00000000000E+00 0.  1.
         21   -1    0    0  501  502 -0.00000000000E+00 -0.00000000000E+00 -0.21789996779E+03  0.21789996779E+03  0.00000000000E+00 0.  1.
         25    1    1    2    0    0  0.23971528695E+03 -0.48624915658E+01  0.11916250779E+04  0.12219175050E+04  0.12500000000E+03 0.  0.
         25    1    1    2    0    0 -0.40250573408E+03 -0.78567877416E+02  0.22524924545E+03  0.48429949402E+03  0.12500000000E+03 0.  0.
         25    1    1    2    0    0  0.16279044713E+03  0.83430368982E+02  0.94350485437E+02  0.24080774540E+03  0.12500000000E+03 0.  0.
</event>
<event>
 5    0  0.5597833E-005  0.2618292E+03  0.7546771E-02  0.1106049E+00
         21   -1    0    0  502  501  0.00000000000E+00  0.00000000000E+00  0.31140498204E+03  0.31140498204E+03  0.00000000000E+00 0.  1.
         21   -1    0    0  501  502 -0.00000000000E+00 -0.00000000000E+00 -0.22014595616E+03  0.22014595616E+03  0.00000000000E+00 0.  1.
         25    1    1    2    0    0  0.84526929464E+02  0.16646505950E+02  0.35207044113E+02  0.15584108547E+03  0.12500000000E+03 0.  0.
         25    1    1    2    0    0  0.86148246259E+02 -0.43626687901E+02  0.16610387268E+02  0.15882604697E+03  0.12500000000E+03 0.  0.
         25    1    1    2    0    0 -0.17067517572E+03  0.26980181951E+02  0.39441594500E+02  0.21688380576E+03  0.12500000000E+03 0.  0.
</event>
<event>
 5    0  0.5597833E-005  0.2212624E+03  0.7546771E-02  0.1132945E+00
         21   -1    0    0  502  501  0.00000000000E+00  0.00000000000E+00  0.36986854923E+02  0.36986854923E+02  0.00000000000E+00 0.  1.
         21   -1    0    0  501  502 -0.00000000000E+00 -0.00000000000E+00 -0.13236340869E+04  0.13236340869E+04  0.00000000000E+00 0.  1.
         25    1    1    2    0    0 -0.13753520855E+01 -0.20957775317E+02 -0.20742113763E+03  0.24308362403E+03  0.12500000000E+03 0.  0.
         25    1    1    2    0    0  0.31541919988E+02 -0.22063321547E+02 -0.75266169984E+03  0.76394130486E+03  0.12500000000E+03 0.  0.
         25    1    1    2    0    0 -0.30166567903E+02  0.43021096864E+02 -0.32656439454E+03  0.35359601295E+03  0.12500000000E+03 0.  0.
</event>
<event>
 5    0  0.5597833E-005  0.3290146E+03  0.7546771E-02  0.1071574E+00
         21   -1    0    0  502  501  0.00000000000E+00  0.00000000000E+00  0.16926764343E+04  0.16926764343E+04  0.00000000000E+00 0. -1.
         21   -1    0    0  501  502 -0.00000000000E+00 -0.00000000000E+00 -0.63952341569E+02  0.63952341569E+02  0.00000000000E+00 0. -1.
         25    1    1    2    0    0 -0.12281440834E+03  0.92878811659E+02  0.19009110763E+03  0.27471709402E+03  0.12500000000E+03 0.  0.
         25    1    1    2    0    0  0.13989447734E+03  0.76298693409E+01  0.91210236560E+03  0.93122736485E+03  0.12500000000E+03 0.  0.
         25    1    1    2    0    0 -0.17080069004E+02 -0.10050868100E+03  0.52653061945E+03  0.55068431695E+03  0.12500000000E+03 0.  0.
</event>
<event>
 5    0  0.5597833E-005  0.4214265E+03  0.7546771E-02  0.1036603E+00
         21   -1    0    0  502  501  0.00000000000E+00  0.00000000000E+00  0.30436930329E+03  0.30436930329E+03  0.00000000000E+00 0. -1.
         21   -1    0    0  501  502 -0.00000000000E+00 -0.00000000000E+00 -0.58350264888E+03  0.58350264888E+03  0.00000000000E+00 0. -1.
         25    1    1    2    0    0 -0.32990328129E+02  0.28323910084E+03 -0.96632423589E+02  0.32599934860E+03  0.12500000000E+03 0.  0.
         25    1    1    2    0    0  0.15171601349E+03 -0.25196936446E+03 -0.15706433752E+02  0.31996562540E+03  0.12500000000E+03 0.  0.
         25    1    1    2    0    0 -0.11872568536E+03 -0.31269736386E+02 -0.16679448825E+03  0.24190697817E+03  0.12500000000E+03 0.  0.
</event>
<event>
 5    0  0.5597833E-005  0.4152442E+03  0.7546771E-02  0.1038625E+00
         21   -1    0    0  502  501  0.00000000000E+00  0.00000000000E+00  0.40872398397E+03  0.40872398397E+03  0.00000000000E+00 0. -1.
         21   -1    0    0  501  502 -0.00000000000E+00 -0.00000000000E+00 -0.42186851265E+03  0.42186851265E+03  0.00000000000E+00 0. -1.
         25    1    1    2    0    0 -0.29993641533E+02  0.11475217255E+03 -0.34049922054E+02  0.17564759272E+03  0.12500000000E+03 0.  0.
         25    1    1    2    0    0  0.11471939670E+03 -0.33685342379E+03  0.65139622612E+02  0.38275179886E+03  0.12500000000E+03 0.  0.
         25    1    1    2    0    0 -0.84725755165E+02  0.22210125124E+03 -0.44234229239E+02  0.27219310503E+03  0.12500000000E+03 0.  0.
</event>
<event>
 5    0  0.5597833E-005  0.3529346E+03  0.7546771E-02  0.1061417E+00
         21   -1    0    0  502  501  0.00000000000E+00  0.00000000000E+00  0.54930854650E+02  0.54930854650E+02  0.00000000000E+00 0. -1.
         21   -1    0    0  501  502 -0.00000000000E+00 -0.00000000000E+00 -0.22676295962E+04  0.22676295962E+04  0.00000000000E+00 0. -1.
         25    1    1    2    0    0 -0.11427848744E+03 -0.79854199477E+02 -0.36896803911E+03  0.41376162189E+03  0.12500000000E+03 0.  0.
         25    1    1    2    0    0 -0.23090669761E+02 -0.12418864599E+03 -0.11245846416E+04  0.11385392462E+04  0.12500000000E+03 0.  0.
         25    1    1    2    0    0  0.13736915720E+03  0.20404284546E+03 -0.71914606081E+03  0.77025958281E+03  0.12500000000E+03 0.  0.
</event>
<event>
 5    0  0.5597833E-005  0.2856038E+03  0.7546771E-02  0.1092667E+00
         21   -1    0    0  502  501  0.00000000000E+00  0.00000000000E+00  0.74421136470E+02  0.74421136470E+02  0.00000000000E+00 0. -1.
         21   -1    0    0  501  502 -0.00000000000E+00 -0.00000000000E+00 -0.10960535625E+04  0.10960535625E+04  0.00000000000E+00 0. -1.
         25    1    1    2    0    0 -0.11072992802E+03  0.10807176524E+03 -0.25828476065E+03  0.32600098311E+03  0.12500000000E+03 0.  0.
         25    1    1    2    0    0 -0.31369050967E+02  0.15427673181E+02 -0.21155926137E+03  0.24820223917E+03  0.12500000000E+03 0.  0.
         25    1    1    2    0    0  0.14209897899E+03 -0.12349943842E+03 -0.55178840402E+03  0.59627147670E+03  0.12500000000E+03 0.  0.
</event>
<event>
 5    0  0.5597833E-005  0.2682354E+03  0.7546771E-02  0.1102294E+00
         21   -1    0    0  502  501  0.00000000000E+00  0.00000000000E+00  0.28385759126E+03  0.28385759126E+03  0.00000000000E+00 0. -1.
         21   -1    0    0  501  502 -0.00000000000E+00 -0.00000000000E+00 -0.25347290774E+03  0.25347290774E+03  0.00000000000E+00 0. -1.
         25    1    1    2    0    0 -0.40419692171E+02 -0.17268056205E+03 -0.23100718823E+02  0.21819938413E+03  0.12500000000E+03 0.  0.
         25    1    1    2    0    0  0.32365668311E+02  0.95580926995E+02 -0.52905741870E+01  0.16073655547E+03  0.12500000000E+03 0.  0.
         25    1    1    2    0    0  0.80540238601E+01  0.77099635059E+02  0.58775976534E+02  0.15839455939E+03  0.12500000000E+03 0.  0.
</event>
<event>
 5    0  0.5597833E-005  0.1949922E+03  0.7546771E-02  0.1154034E+00
         21   -1    0    0  502  501  0.00000000000E+00  0.00000000000E+00  0.86996990661E+02  0.86996990661E+02  0.00000000000E+00 0. -1.
         21   -1    0    0  501  502 -0.00000000000E+00 -0.00000000000E+00 -0.43704913455E+03  0.43704913455E+03  0.00000000000E+00 0. -1.
         25    1    1    2    0    0  0.27977409285E+02  0.33957282875E+02 -0.14010594765E+03  0.19284840953E+03  0.12500000000E+03 0.  0.
         25    1    1    2    0    0 -0.25259056772E+02 -0.30001491507E+02 -0.10402465375E+03  0.16728490078E+03  0.12500000000E+03 0.  0.
         25    1    1    2    0    0 -0.27183525128E+01 -0.39557913685E+01 -0.10592154248E+03  0.16391281490E+03  0.12500000000E+03 0.  0.
</event>
<event>
 5    0  0.5597833E-005  0.3068474E+03  0.7546771E-02  0.1081867E+00
         21   -1    0    0  502  501  0.00000000000E+00  0.00000000000E+00  0.26915337225E+03  0.26915337225E+03  0.00000000000E+00 0.  1.
         21   -1    0    0  501  502 -0.00000000000E+00 -0.00000000000E+00 -0.34982039630E+03  0.34982039630E+03  0.00000000000E+00 0.  1.
         25    1    1    2    0    0  0.36444957271E+02  0.11828949968E+02  0.83990929786E+02  0.15539509405E+03  0.12500000000E+03 0.  0.
         25    1    1    2    0    0 -0.10146660788E+03 -0.60733711409E+02  0.69809756597E+02  0.18569452962E+03  0.12500000000E+03 0.  0.
         25    1    1    2    0    0  0.65021650607E+02  0.48904761441E+02 -0.23446771043E+03  0.27788414488E+03  0.12500000000E+03 0.  0.
</event>
<event>
 5    0  0.5597833E-005  0.2416686E+03  0.7546771E-02  0.1118686E+00
         21   -1    0    0  502  501  0.00000000000E+00  0.00000000000E+00  0.50000337446E+03  0.50000337446E+03  0.00000000000E+00 0.  1.
         21   -1    0    0  501  502 -0.00000000000E+00 -0.00000000000E+00 -0.11680667898E+03  0.11680667898E+03  0.00000000000E+00 0.  1.
         25    1    1    2    0    0  0.19052566611E+02  0.71014886873E+02  0.23287096375E+03  0.27433556133E+03  0.12500000000E+03 0.  0.
         25    1    1    2    0    0 -0.25924881236E+02 -0.88238296984E+02  0.15039582986E+03  0.21610646025E+03  0.12500000000E+03 0.  0.
         25    1    1    2    0    0  0.68723146252E+01  0.17223410111E+02 -0.70098120620E-01  0.12636803187E+03  0.12500000000E+03 0.  0.
</event>
<event>
 5    0  0.5597833E-005  0.3316527E+03  0.7546771E-02  0.1070408E+00
         21   -1    0    0  502  501  0.00000000000E+00  0.00000000000E+00  0.79374373484E+02  0.79374373484E+02  0.00000000000E+00 0. -1.
         21   -1    0    0  501  502 -0.00000000000E+00 -0.00000000000E+00 -0.13857557654E+04  0.13857557654E+04  0.00000000000E+00 0. -1.
         25    1    1    2    0    0  0.19699413525E+02  0.10620896326E+03 -0.69540003278E+03  0.71475493447E+03  0.12500000000E+03 0.  0.
         25    1    1    2    0    0 -0.15915007829E+03 -0.59878964264E+02 -0.45756855633E+03  0.50389306556E+03  0.12500000000E+03 0.  0.
         25    1    1    2    0    0  0.13945066477E+03 -0.46329998994E+02 -0.15341280284E+03  0.24648213888E+03  0.12500000000E+03 0.  0.
</event>
<event>
 5    0  0.5597833E-005  0.2772974E+03  0.7546771E-02  0.1097174E+00
         21   -1    0    0  502  501  0.00000000000E+00  0.00000000000E+00  0.26676185905E+02  0.26676185905E+02  0.00000000000E+00 0.  1.
         21   -1    0    0  501  502 -0.00000000000E+00 -0.00000000000E+00 -0.28824904823E+04  0.28824904823E+04  0.00000000000E+00 0.  1.
         25    1    1    2    0    0 -0.14478849243E+02  0.16082780976E+03 -0.81898978344E+03  0.84406426701E+03  0.12500000000E+03 0.  0.
         25    1    1    2    0    0  0.23779753895E+02 -0.31719904719E+02 -0.13010973307E+04  0.13076891424E+04  0.12500000000E+03 0.  0.
         25    1    1    2    0    0 -0.93009046524E+01 -0.12910790504E+03 -0.73572718227E+03  0.75741325886E+03  0.12500000000E+03 0.  0.
</event>
<event>
 5    0  0.5597833E-005  0.2684816E+03  0.7546771E-02  0.1102152E+00
         21   -1    0    0  502  501  0.00000000000E+00  0.00000000000E+00  0.79850718093E+03  0.79850718093E+03  0.00000000000E+00 0. -1.
         21   -1    0    0  501  502 -0.00000000000E+00 -0.00000000000E+00 -0.90271438182E+02  0.90271438182E+02  0.00000000000E+00 0. -1.
         25    1    1    2    0    0 -0.80612436275E+02  0.27320177813E+02  0.85231043077E+02  0.17359172706E+03  0.12500000000E+03 0.  0.
         25    1    1    2    0    0  0.12344696811E+03 -0.94874299902E+02  0.30922996786E+03  0.36808757075E+03  0.12500000000E+03 0.  0.
         25    1    1    2    0    0 -0.42834531838E+02  0.67554122089E+02  0.31377473181E+03  0.34709932131E+03  0.12500000000E+03 0.  0.
</event>
<event>
 5    0  0.5597833E-005  0.2420224E+03  0.7546771E-02  0.1118453E+00
         21   -1    0    0  502  501  0.00000000000E+00  0.00000000000E+00  0.26703754890E+03  0.26703754890E+03  0.00000000000E+00 0. -1.
         21   -1    0    0  501  502 -0.00000000000E+00 -0.00000000000E+00 -0.21935067132E+03  0.21935067132E+03  0.00000000000E+00 0. -1.
         25    1    1    2    0    0 -0.60994558781E+02  0.63919107486E+00  0.25818425055E+02  0.14146496329E+03  0.12500000000E+03 0.  0.
         25    1    1    2    0    0  0.79832020970E+02  0.80107086328E+02 -0.53764388440E+02  0.17693475158E+03  0.12500000000E+03 0.  0.
         25    1    1    2    0    0 -0.18837462189E+02 -0.80746277403E+02  0.75632840971E+02  0.16798850535E+03  0.12500000000E+03 0.  0.
</event>
<event>
 5    0  0.5597833E-005  0.2977512E+03  0.7546771E-02  0.1086370E+00
         21   -1    0    0  502  501  0.00000000000E+00  0.00000000000E+00  0.20154490107E+03  0.20154490107E+03  0.00000000000E+00 0.  1.
         21   -1    0    0  501  502 -0.00000000000E+00 -0.00000000000E+00 -0.43988113892E+03  0.43988113892E+03  0.00000000000E+00 0.  1.
         25    1    1    2    0    0 -0.15304867922E+03 -0.73023581552E+02 -0.13139987783E+03  0.24828868192E+03  0.12500000000E+03 0.  0.
         25    1    1    2    0    0  0.15700266341E+03 -0.40288158848E+02 -0.89756697344E+02  0.22350444465E+03  0.12500000000E+03 0.  0.
         25    1    1    2    0    0 -0.39539841889E+01  0.11331174040E+03 -0.17179662672E+02  0.16963291341E+03  0.12500000000E+03 0.  0.
</event>
<event>
 5    0  0.5597833E-005  0.4636568E+03  0.7546771E-02  0.1023726E+00
         21   -1    0    0  502  501  0.00000000000E+00  0.00000000000E+00  0.68276133210E+02  0.68276133210E+02  0.00000000000E+00 0.  1.
         21   -1    0    0  501  502 -0.00000000000E+00 -0.00000000000E+00 -0.31486500779E+04  0.31486500779E+04  0.00000000000E+00 0.  1.
         25    1    1    2    0    0 -0.22577835573E+03  0.25066958985E+03 -0.13788893827E+04  0.14250515916E+04  0.12500000000E+03 0.  0.
         25    1    1    2    0    0  0.20781045327E+03 -0.22777818558E+03 -0.15817158650E+04  0.16163286065E+04  0.12500000000E+03 0.  0.
         25    1    1    2    0    0  0.17967902465E+02 -0.22891404272E+02 -0.11976869696E+03  0.17554601300E+03  0.12500000000E+03 0.  0.
</event>
<event>
 5    0  0.5597833E-005  0.2668234E+03  0.7546771E-02  0.1103112E+00
         21   -1    0    0  502  501  0.00000000000E+00  0.00000000000E+00  0.19379057597E+03  0.19379057597E+03  0.00000000000E+00 0.  1.
         21   -1    0    0  501  502 -0.00000000000E+00 -0.00000000000E+00 -0.36737984080E+03  0.36737984080E+03  0.00000000000E+00 0.  1.
         25    1    1    2    0    0 -0.37049310042E+02  0.48233195140E+02 -0.38816365223E+02  0.14432880065E+03  0.12500000000E+03 0.  0.
         25    1    1    2    0    0  0.72418882538E+02 -0.16243605594E+03 -0.10468330310E+03  0.24127486559E+03  0.12500000000E+03 0.  0.
         25    1    1    2    0    0 -0.35369572495E+02  0.11420286080E+03 -0.30089596500E+02  0.17556675053E+03  0.12500000000E+03 0.  0.
</event>
<event>
 5    0  0.5597833E-005  0.2785566E+03  0.7546771E-02  0.1096480E+00
         21   -1    0    0  502  501  0.00000000000E+00  0.00000000000E+00  0.26958954755E+02  0.26958954755E+02  0.00000000000E+00 0. -1.
         21   -1    0    0  501  502 -0.00000000000E+00 -0.00000000000E+00 -0.28782196367E+04  0.28782196367E+04  0.00000000000E+00 0. -1.
         25    1    1    2    0    0 -0.14367581101E+03  0.94512143053E+02 -0.14293496558E+04  0.14450746425E+04  0.12500000000E+03 0.  0.
         25    1    1    2    0    0  0.35921738436E+02 -0.71538618588E+02 -0.90237909242E+03  0.91450597137E+03  0.12500000000E+03 0.  0.
         25    1    1    2    0    0  0.10775407257E+03 -0.22973524465E+02 -0.51953193371E+03  0.54559797756E+03  0.12500000000E+03 0.  0.
</event>
<event>
 5    0  0.5597833E-005  0.2273179E+03  0.7546771E-02  0.1128542E+00
         21   -1    0    0  502  501  0.00000000000E+00  0.00000000000E+00  0.11128981663E+03  0.11128981663E+03  0.00000000000E+00 0.  1.
         21   -1    0    0  501  502 -0.00000000000E+00 -0.00000000000E+00 -0.46431409089E+03  0.46431409089E+03  0.00000000000E+00 0.  1.
         25    1    1    2    0    0  0.45946922930E+01  0.11460990925E+00 -0.79010954802E+02  0.14794882666E+03  0.12500000000E+03 0.  0.
         25    1    1    2    0    0 -0.82337657467E+02  0.43181388762E+02 -0.66040368984E+02  0.16920535603E+03  0.12500000000E+03 0.  0.
         25    1    1    2    0    0  0.77742965174E+02 -0.43295998672E+02 -0.20797295047E+03  0.25844972483E+03  0.12500000000E+03 0.  0.
</event>
<event>
 5    0  0.5597833E-005  0.4348088E+03  0.7546771E-02  0.1032352E+00
         21   -1    0    0  502  501  0.00000000000E+00  0.00000000000E+00  0.94607663716E+03  0.94607663716E+03  0.00000000000E+00 0.  1.
         21   -1    0    0  501  502 -0.00000000000E+00 -0.00000000000E+00 -0.19983440473E+03  0.19983440473E+03  0.00000000000E+00 0.  1.
         25    1    1    2    0    0  0.34366116739E+02  0.15664661766E+03  0.15438263920E+03  0.25530019994E+03  0.12500000000E+03 0.  0.
         25    1    1    2    0    0 -0.46541543829E+02  0.13338795255E+03  0.53785012338E+03  0.56997036450E+03  0.12500000000E+03 0.  0.
         25    1    1    2    0    0  0.12175427090E+02 -0.29003457021E+03  0.54009469848E+02  0.32064047744E+03  0.12500000000E+03 0.  0.
</event>
<event>
 5    0  0.5597833E-005  0.3664502E+03  0.7546771E-02  0.1056059E+00
         21   -1    0    0  502  501  0.00000000000E+00  0.00000000000E+00  0.12734000307E+04  0.12734000307E+04  0.00000000000E+00 0.  1.
         21   -1    0    0  501  502 -0.00000000000E+00 -0.00000000000E+00 -0.10545447389E+03  0.10545447389E+03  0.00000000000E+00 0.  1.
         25    1    1    2    0    0  0.99939628402E+02 -0.62694077804E+02  0.10448022189E+03  0.20114570212E+03  0.12500000000E+03 0.  0.
         25    1    1    2    0    0 -0.21059448528E+03  0.16202872134E+03  0.78547202485E+03  0.83856701914E+03  0.12500000000E+03 0.  0.
         25    1    1    2    0    0  0.11065485688E+03 -0.99334643537E+02  0.27799331008E+03  0.33914178334E+03  0.12500000000E+03 0.  0.
</event>
<event>
 5    0  0.6989784E-005  0.5267423E+03  0.7546771E-02  0.1007025E+00
         21   -1    0    0  502  501  0.00000000000E+00  0.00000000000E+00  0.88337344267E+03  0.88337344267E+03  0.00000000000E+00 0. -1.
         21   -1    0    0  501  502 -0.00000000000E+00 -0.00000000000E+00 -0.31408847875E+03  0.31408847875E+03  0.00000000000E+00 0. -1.
         25    1    1    2    0    0 -0.71040696272E+02 -0.14381585473E+03  0.60087137827E+03  0.63435100206E+03  0.12500000000E+03 0.  0.
         25    1    1    2    0    0  0.11764059594E+03 -0.12738837792E+03 -0.12392415802E+03  0.24708157678E+03  0.12500000000E+03 0.  0.
         25    1    1    2    0    0 -0.46599899670E+02  0.27120423265E+03  0.92337743676E+02  0.31602934257E+03  0.12500000000E+03 0.  0.
</event>
<event>
 5    0  0.5597833E-005  0.2810921E+03  0.7546771E-02  0.1095094E+00
         21   -1    0    0  502  501  0.00000000000E+00  0.00000000000E+00  0.37965468015E+03  0.37965468015E+03  0.00000000000E+00 0.  1.
         21   -1    0    0  501  502 -0.00000000000E+00 -0.00000000000E+00 -0.20811752374E+03  0.20811752374E+03  0.00000000000E+00 0.  1.
         25    1    1    2    0    0 -0.11509968654E+03 -0.37346925689E+02  0.18089985994E+03  0.25098304729E+03  0.12500000000E+03 0.  0.
         25    1    1    2    0    0  0.24965661624E+02  0.28680145735E+02  0.85007063805E+02  0.15587506509E+03  0.12500000000E+03 0.  0.
         25    1    1    2    0    0  0.90134024917E+02  0.86667799537E+01 -0.94369767326E+02  0.18091409151E+03  0.12500000000E+03 0.  0.
</event>
<event>
 5    0  0.5597833E-005  0.2617991E+03  0.7546771E-02  0.1106067E+00
         21   -1    0    0  502  501  0.00000000000E+00  0.00000000000E+00  0.55939197627E+02  0.55939197627E+02  0.00000000000E+00 0.  1.
         21   -1    0    0  501  502 -0.00000000000E+00 -0.00000000000E+00 -0.12252367145E+04  0.12252367145E+04  0.00000000000E+00 0.  1.
         25    1    1    2    0    0 -0.45397274336E+02  0.94987378932E+01 -0.16252739564E+03  0.21021725160E+03  0.12500000000E+03 0.  0.
         25    1    1    2    0    0  0.12545340155E+03 -0.44899885006E+02 -0.75293167916E+03  0.77478104592E+03  0.12500000000E+03 0.  0.
         25    1    1    2    0    0 -0.80056127210E+02  0.35401147113E+02 -0.25383844211E+03  0.29617761464E+03  0.12500000000E+03 0.  0.
</event>
<event>
 5    0  0.5597833E-005  0.2341606E+03  0.7546771E-02  0.1123745E+00
         21   -1    0    0  502  501  0.00000000000E+00  0.00000000000E+00  0.23964681186E+03  0.23964681186E+03  0.00000000000E+00 0. -1.
         21   -1    0    0  501  502 -0.00000000000E+00 -0.00000000000E+00 -0.22880001907E+03  0.22880001907E+03  0.00000000000E+00 0. -1.
         25    1    1    2    0    0  0.49019676303E+02  0.16766959772E+01 -0.17845790049E+02  0.13545926398E+03  0.12500000000E+03 0.  0.
         25    1    1    2    0    0  0.81425695508E+02 -0.12169800093E+02 -0.48484690157E+00  0.14967793090E+03  0.12500000000E+03 0.  0.
         25    1    1    2    0    0 -0.13044537181E+03  0.10493104116E+02  0.29177429738E+02  0.18330963605E+03  0.12500000000E+03 0.  0.
</event>
<event>
 5    0  0.5597833E-005  0.2776349E+03  0.7546771E-02  0.1096988E+00
         21   -1    0    0  502  501  0.00000000000E+00  0.00000000000E+00  0.77596961245E+03  0.77596961245E+03  0.00000000000E+00 0. -1.
         21   -1    0    0  501  502 -0.00000000000E+00 -0.00000000000E+00 -0.99335271053E+02  0.99335271053E+02  0.00000000000E+00 0. -1.
         25    1    1    2    0    0  0.10287767776E+03 -0.18712797755E+02  0.47731961411E+03  0.50437386867E+03  0.12500000000E+03 0.  0.
         25    1    1    2    0    0  0.26635070054E+02  0.33783306398E+02  0.85675746263E+02  0.15753117865E+03  0.12500000000E+03 0.  0.
         25    1    1    2    0    0 -0.12951274781E+03 -0.15070508643E+02  0.11363898103E+03  0.21339983619E+03  0.12500000000E+03 0.  0.
</event>
<event>
 5    0  0.5597833E-005  0.2578272E+03  0.7546771E-02  0.1108456E+00
         21   -1    0    0  502  501  0.00000000000E+00  0.00000000000E+00  0.11811536579E+04  0.11811536579E+04  0.00000000000E+00 0.  1.
         21   -1    0    0  501  502 -0.00000000000E+00 -0.00000000000E+00 -0.56279601907E+02  0.56279601907E+02  0.00000000000E+00 0.  1.
         25    1    1    2    0    0 -0.47314171983E+02 -0.26199344683E+02  0.34724324168E+03  0.37299853274E+03  0.12500000000E+03 0.  0.
         25    1    1    2    0    0  0.14147432093E+03 -0.59734353880E+02  0.37752560600E+03  0.42630242751E+03  0.12500000000E+03 0.  0.
         25    1    1    2    0    0 -0.94160148946E+02  0.85933698563E+02  0.40010520833E+03  0.43813229957E+03  0.12500000000E+03 0.  0.
</event>
<event>
 5    0  0.5597833E-005  0.2461986E+03  0.7546771E-02  0.1115731E+00
         21   -1    0    0  502  501  0.00000000000E+00  0.00000000000E+00  0.83590404177E+03  0.83590404177E+03  0.00000000000E+00 0. -1.
         21   -1    0    0  501  502 -0.00000000000E+00 -0.00000000000E+00 -0.72512810430E+02  0.72512810430E+02  0.00000000000E+00 0. -1.
         25    1    1    2    0    0 -0.13243583832E+02  0.57348622005E+02  0.15851661269E+03  0.21027784823E+03  0.12500000000E+03 0.  0.
         25    1    1    2    0    0  0.46801984922E+02  0.59977771250E+02  0.14414506287E+03  0.20540340306E+03  0.12500000000E+03 0.  0.
         25    1    1    2    0    0 -0.33558401090E+02 -0.11732639325E+03  0.46072955578E+03  0.49273560091E+03  0.12500000000E+03 0.  0.
</event>
<event>
 5    0  0.5597833E-005  0.2452892E+03  0.7546771E-02  0.1116319E+00
         21   -1    0    0  502  501  0.00000000000E+00  0.00000000000E+00  0.43549129006E+03  0.43549129006E+03  0.00000000000E+00 0.  1.
         21   -1    0    0  501  502 -0.00000000000E+00 -0.00000000000E+00 -0.13815846280E+03  0.13815846280E+03  0.00000000000E+00 0.  1.
         25    1    1    2    0    0 -0.99876267507E+02  0.12966424767E+02  0.10396592245E+03  0.19125195428E+03  0.12500000000E+03 0.  0.
         25    1    1    2    0    0  0.12304023670E+03 -0.32651989029E+02  0.17937979270E+03  0.25299636809E+03  0.12500000000E+03 0.  0.
         25    1    1    2    0    0 -0.23163969192E+02  0.19685564262E+02  0.13987112105E+02  0.12940143049E+03  0.12500000000E+03 0.  0.
</event>
<event>
 5    0  0.5597833E-005  0.3087278E+03  0.7546771E-02  0.1080957E+00
         21   -1    0    0  502  501  0.00000000000E+00  0.00000000000E+00  0.82527832868E+03  0.82527832868E+03  0.00000000000E+00 0. -1.
         21   -1    0    0  501  502 -0.00000000000E+00 -0.00000000000E+00 -0.11549179803E+03  0.11549179803E+03  0.00000000000E+00 0. -1.
         25    1    1    2    0    0 -0.67710192371E+02  0.42555679599E+02  0.37481845809E+03  0.40312471090E+03  0.12500000000E+03 0.  0.
         25    1    1    2    0    0 -0.11050028736E+03  0.63305354700E+02  0.13824541240E+03  0.22573142336E+03  0.12500000000E+03 0.  0.
         25    1    1    2    0    0  0.17821047973E+03 -0.10586103430E+03  0.19672266015E+03  0.31191399245E+03  0.12500000000E+03 0.  0.
</event>
<event>
 5    0  0.5797021E-005  0.3023494E+03  0.7546771E-02  0.1084072E+00
         21   -1    0    0  502  501  0.00000000000E+00  0.00000000000E+00  0.72072846575E+03  0.72072846575E+03  0.00000000000E+00 0. -1.
         21   -1    0    0  501  502 -0.00000000000E+00 -0.00000000000E+00 -0.12683717599E+03  0.12683717599E+03  0.00000000000E+00 0. -1.
         25    1    1    2    0    0  0.94944309231E+02  0.63801386914E+02  0.36825173182E+02  0.17339588290E+03  0.12500000000E+03 0.  0.
         25    1    1    2    0    0 -0.17662930774E+03 -0.16555901604E+02  0.26283468482E+03  0.34085052703E+03  0.12500000000E+03 0.  0.
         25    1    1    2    0    0  0.81684998512E+02 -0.47245485311E+02  0.29423143176E+03  0.33331923181E+03  0.12500000000E+03 0.  0.
</event>
<event>
 5    0  0.5597833E-005  0.3424857E+03  0.7546771E-02  0.1065742E+00
         21   -1    0    0  502  501  0.00000000000E+00  0.00000000000E+00  0.20853817755E+04  0.20853817755E+04  0.00000000000E+00 0. -1.
         21   -1    0    0  501  502 -0.00000000000E+00 -0.00000000000E+00 -0.56246995137E+02  0.56246995137E+02  0.00000000000E+00 0. -1.
         25    1    1    2    0    0 -0.82482337292E+02  0.91440677632E+02  0.41458596689E+03  0.45019024582E+03  0.12500000000E+03 0.  0.
         25    1    1    2    0    0 -0.11593174767E+03 -0.15855214457E+02  0.23902885796E+03  0.29402610918E+03  0.12500000000E+03 0.  0.
         25    1    1    2    0    0  0.19841408496E+03 -0.75585463175E+02  0.13755199555E+04  0.13974124156E+04  0.12500000000E+03 0.  0.
</event>
<event>
 5    0  0.5597833E-005  0.3658874E+03  0.7546771E-02  0.1056277E+00
         21   -1    0    0  502  501  0.00000000000E+00  0.00000000000E+00  0.78590181792E+02  0.78590181792E+02  0.00000000000E+00 0.  1.
         21   -1    0    0  501  502 -0.00000000000E+00 -0.00000000000E+00 -0.17034389358E+04  0.17034389358E+04  0.00000000000E+00 0.  1.
         25    1    1    2    0    0 -0.15083831591E+03  0.24389363777E+02 -0.98947754755E+03  0.10089786200E+04  0.12500000000E+03 0.  0.
         25    1    1    2    0    0 -0.57419893236E+02 -0.11604215920E+03 -0.28291396910E+03  0.33530305809E+03  0.12500000000E+03 0.  0.
         25    1    1    2    0    0  0.20825820915E+03  0.91652795426E+02 -0.35245723739E+03  0.43774743948E+03  0.12500000000E+03 0.  0.
</event>
<event>
 5    0  0.5597833E-005  0.2896994E+03  0.7546771E-02  0.1090506E+00
         21   -1    0    0  502  501  0.00000000000E+00  0.00000000000E+00  0.10577566046E+03  0.10577566046E+03  0.00000000000E+00 0. -1.
         21   -1    0    0  501  502 -0.00000000000E+00 -0.00000000000E+00 -0.79343135279E+03  0.79343135279E+03  0.00000000000E+00 0. -1.
         25    1    1    2    0    0  0.29954795080E+02 -0.15366068390E+03 -0.18124342189E+03  0.27015379602E+03  0.12500000000E+03 0.  0.
         25    1    1    2    0    0  0.65195771620E+02  0.73893003261E+02 -0.10501996716E+03  0.19069572116E+03  0.12500000000E+03 0.  0.
         25    1    1    2    0    0 -0.95150566701E+02  0.79767680639E+02 -0.40139230328E+03  0.43835749606E+03  0.12500000000E+03 0.  0.
</event>
<event>
 5    0  0.5597833E-005  0.3205711E+03  0.7546771E-02  0.1075387E+00
         21   -1    0    0  502  501  0.00000000000E+00  0.00000000000E+00  0.75849674954E+03  0.75849674954E+03  0.00000000000E+00 0. -1.
         21   -1    0    0  501  502 -0.00000000000E+00 -0.00000000000E+00 -0.13548618130E+03  0.13548618130E+03  0.00000000000E+00 0. -1.
         25    1    1    2    0    0  0.90376859881E+02 -0.30704744423E+01  0.14460368261E+03  0.21145361108E+03  0.12500000000E+03 0.  0.
         25    1    1    2    0    0  0.53070890854E+02 -0.17389684061E+03  0.27479716981E+03  0.35241327326E+03  0.12500000000E+03 0.  0.
         25    1    1    2    0    0 -0.14344775073E+03  0.17696731505E+03  0.20360971582E+03  0.33011604651E+03  0.12500000000E+03 0.  0.
</event>
<event>
 5    0  0.5597833E-005  0.2622030E+03  0.7546771E-02  0.1105827E+00
         21   -1    0    0  502  501  0.00000000000E+00  0.00000000000E+00  0.27097217350E+02  0.27097217350E+02  0.00000000000E+00 0. -1.
         21   -1    0    0  501  502 -0.00000000000E+00 -0.00000000000E+00 -0.25371752054E+04  0.25371752054E+04  0.00000000000E+00 0. -1.
         25    1    1    2    0    0  0.11298320214E+03 -0.75062315932E+02 -0.10308239939E+04  0.10471975275E+04  0.12500000000E+03 0.  0.
         25    1    1    2    0    0 -0.15691002684E+01  0.43725036161E+02 -0.99407681519E+03  0.10028599381E+04  0.12500000000E+03 0.  0.
         25    1    1    2    0    0 -0.11141410187E+03  0.31337279772E+02 -0.48517717896E+03  0.51421495717E+03  0.12500000000E+03 0.  0.
</event>
<event>
 5    0  0.5597833E-005  0.3197194E+03  0.7546771E-02  0.1075779E+00
         21   -1    0    0  502  501  0.00000000000E+00  0.00000000000E+00  0.69523002360E+03  0.69523002360E+03  0.00000000000E+00 0.  1.
         21   -1    0    0  501  502 -0.00000000000E+00 -0.00000000000E+00 -0.14703114868E+03  0.14703114868E+03  0.00000000000E+00 0.  1.
         25    1    1    2    0    0  0.10269136723E+03 -0.30090149856E+01  0.17450088588E+01  0.16181043270E+03  0.12500000000E+03 0.  0.
         25    1    1    2    0    0 -0.60443632803E+02  0.10971075441E+03  0.10096401047E+03  0.20373662849E+03  0.12500000000E+03 0.  0.
         25    1    1    2    0    0 -0.42247734430E+02 -0.10670173943E+03  0.44548985559E+03  0.47671411108E+03  0.12500000000E+03 0.  0.
</event>
<event>
 5    0  0.5597833E-005  0.2585630E+03  0.7546771E-02  0.1108010E+00
         21   -1    0    0  502  501  0.00000000000E+00  0.00000000000E+00  0.58844102264E+02  0.58844102264E+02  0.00000000000E+00 0. -1.
         21   -1    0    0  501  502 -0.00000000000E+00 -0.00000000000E+00 -0.11361343336E+04  0.11361343336E+04  0.00000000000E+00 0. -1.
         25    1    1    2    0    0 -0.65886339817E+02 -0.69188606473E+02 -0.19238610344E+03  0.24852663004E+03  0.12500000000E+03 0.  0.
         25    1    1    2    0    0  0.30609229958E+02  0.11716330265E+03 -0.31408549644E+03  0.35908058081E+03  0.12500000000E+03 0.  0.
         25    1    1    2    0    0  0.35277109859E+02 -0.47974696176E+02 -0.57081863143E+03  0.58737122499E+03  0.12500000000E+03 0.  0.
</event>
<event>
 5    0  0.5597833E-005  0.3567720E+03  0.7546771E-02  0.1059869E+00
         21   -1    0    0  502  501  0.00000000000E+00  0.00000000000E+00  0.89119580145E+03  0.89119580145E+03  0.00000000000E+00 0. -1.
         21   -1    0    0  501  502 -0.00000000000E+00 -0.00000000000E+00 -0.14282637716E+03  0.14282637716E+03  0.00000000000E+00 0. -1.
         25    1    1    2    0    0  0.45156588235E+01 -0.63433236221E+02  0.13042912761E+03  0.19152264608E+03  0.12500000000E+03 0.  0.
         25    1    1    2    0    0  0.49892858968E+02  0.54268149858E+02  0.67792027697E+03  0.69327861022E+03  0.12500000000E+03 0.  0.
         25    1    1    2    0    0 -0.54408517791E+02  0.91650863634E+01 -0.59979980295E+02  0.14922092230E+03  0.12500000000E+03 0.  0.
</event>
<event>
 5    0  0.5597833E-005  0.2729800E+03  0.7546771E-02  0.1099586E+00
         21   -1    0    0  502  501  0.00000000000E+00  0.00000000000E+00  0.55743312411E+02  0.55743312411E+02  0.00000000000E+00 0. -1.
         21   -1    0    0  501  502 -0.00000000000E+00 -0.00000000000E+00 -0.13368077874E+04  0.13368077874E+04  0.00000000000E+00 0. -1.
         25    1    1    2    0    0 -0.88631577001E+02  0.79282578802E+02 -0.25842901462E+03  0.31072791851E+03  0.12500000000E+03 0.  0.
         25    1    1    2    0    0  0.70731152219E+02 -0.14898040324E+03 -0.54865524575E+03  0.58638352222E+03  0.12500000000E+03 0.  0.
         25    1    1    2    0    0  0.17900424782E+02  0.69697824441E+02 -0.47398021463E+03  0.49543965909E+03  0.12500000000E+03 0.  0.
</event>
<event>
 5    0  0.5597833E-005  0.2138863E+03  0.7546771E-02  0.1138525E+00
         21   -1    0    0  502  501  0.00000000000E+00  0.00000000000E+00  0.65448084941E+03  0.65448084941E+03  0.00000000000E+00 0. -1.
         21   -1    0    0  501  502 -0.00000000000E+00 -0.00000000000E+00 -0.69898709374E+02  0.69898709374E+02  0.00000000000E+00 0. -1.
         25    1    1    2    0    0  0.49310768370E+02 -0.39161986965E+02  0.13438698729E+03  0.19403627355E+03  0.12500000000E+03 0.  0.
         25    1    1    2    0    0 -0.51259537683E+02  0.48961460540E+02  0.31337025668E+03  0.34474727351E+03  0.12500000000E+03 0.  0.
         25    1    1    2    0    0  0.19487693124E+01 -0.97994735747E+01  0.13682489608E+03  0.18559601173E+03  0.12500000000E+03 0.  0.
</event>
<event>
 5    0  0.5597833E-005  0.2292870E+03  0.7546771E-02  0.1127143E+00
         21   -1    0    0  502  501  0.00000000000E+00  0.00000000000E+00  0.32657601648E+02  0.32657601648E+02  0.00000000000E+00 0. -1.
         21   -1    0    0  501  502 -0.00000000000E+00 -0.00000000000E+00 -0.16098095399E+04  0.16098095399E+04  0.00000000000E+00 0. -1.
         25    1    1    2    0    0 -0.15260213731E+02 -0.14795350077E+02 -0.30188887911E+03  0.32743498872E+03  0.12500000000E+03 0.  0.
         25    1    1    2    0    0  0.18947402217E+02 -0.23353348229E+02 -0.10215905878E+04  0.10296488295E+04  0.12500000000E+03 0.  0.
         25    1    1    2    0    0 -0.36871884863E+01  0.38148698307E+02 -0.25367247134E+03  0.28538332337E+03  0.12500000000E+03 0.  0.
</event>
<event>
 5    0  0.5597833E-005  0.2436645E+03  0.7546771E-02  0.1117375E+00
         21   -1    0    0  502  501  0.00000000000E+00  0.00000000000E+00  0.37610224340E+02  0.37610224340E+02  0.00000000000E+00 0.  1.
         21   -1    0    0  501  502 -0.00000000000E+00 -0.00000000000E+00 -0.15786241491E+04  0.15786241491E+04  0.00000000000E+00 0.  1.
         25    1    1    2    0    0 -0.25476847167E+02 -0.92967166106E+02 -0.30389547720E+03  0.34244623633E+03  0.12500000000E+03 0.  0.
         25    1    1    2    0    0  0.64118962772E+02  0.13132814790E+02 -0.44006766926E+03  0.46213446716E+03  0.12500000000E+03 0.  0.
         25    1    1    2    0    0 -0.38642115605E+02  0.79834351316E+02 -0.79705077831E+03  0.81165366996E+03  0.12500000000E+03 0.  0.
</event>
<event>
 5    0  0.5597833E-005  0.2822541E+03  0.7546771E-02  0.1094464E+00
         21   -1    0    0  502  501  0.00000000000E+00  0.00000000000E+00  0.11102160266E+03  0.11102160266E+03  0.00000000000E+00 0.  1.
         21   -1    0    0  501  502 -0.00000000000E+00 -0.00000000000E+00 -0.71758422309E+03  0.71758422309E+03  0.00000000000E+00 0.  1.
         25    1    1    2    0    0 -0.55164655833E+02  0.11127344177E+02 -0.19983984503E+03  0.24233844248E+03  0.12500000000E+03 0.  0.
         25    1    1    2    0    0  0.55869421756E+02  0.64486320627E+02  0.29009716509E+01  0.15137137600E+03  0.12500000000E+03 0.  0.
         25    1    1    2    0    0 -0.70476592354E+00 -0.75613664805E+02 -0.40962374704E+03  0.43489600727E+03  0.12500000000E+03 0.  0.
</event>
<event>
 5    0  0.5597833E-005  0.5805700E+03  0.7546771E-02  0.9946558E-01
         21   -1    0    0  502  501  0.00000000000E+00  0.00000000000E+00  0.31120380250E+03  0.31120380250E+03  0.00000000000E+00 0. -1.
         21   -1    0    0  501  502 -0.00000000000E+00 -0.00000000000E+00 -0.10830891879E+04  0.10830891879E+04  0.00000000000E+00 0. -1.
         25    1    1    2    0    0  0.37673648452E+02  0.29267644261E+03  0.13742750594E+03  0.34869775341E+03  0.12500000000E+03 0.  0.
         25    1    1    2    0    0  0.23033793165E+02 -0.29915930504E+03 -0.38859013090E+03  0.50661043737E+03  0.12500000000E+03 0.  0.
         25    1    1    2    0    0 -0.60707441617E+02  0.64828624342E+01 -0.52072276045E+03  0.53898479962E+03  0.12500000000E+03 0.  0.
</event>
<event>
 5    0  0.5597833E-005  0.3237044E+03  0.7546771E-02  0.1073957E+00
         21   -1    0    0  502  501  0.00000000000E+00  0.00000000000E+00  0.30767039558E+04  0.30767039558E+04  0.00000000000E+00 0. -1.
         21   -1    0    0  501  502 -0.00000000000E+00 -0.00000000000E+00 -0.34057398695E+02  0.34057398695E+02  0.00000000000E+00 0. -1.
         25    1    1    2    0    0 -0.65575174064E+02 -0.88920482635E+02  0.41303286403E+03  0.44545269384E+03  0.12500000000E+03 0.  0.
         25    1    1    2    0    0  0.81754316020E-01  0.21198059289E+03  0.13857951438E+04  0.14074760954E+04  0.12500000000E+03 0.  0.
         25    1    1    2    0    0  0.65493419748E+02 -0.12306011026E+03  0.12438185493E+04  0.12578325653E+04  0.12500000000E+03 0.  0.
</event>
<event>
 5    0  0.5597833E-005  0.2667009E+03  0.7546771E-02  0.1103183E+00
         21   -1    0    0  502  501  0.00000000000E+00  0.00000000000E+00  0.96834068405E+03  0.96834068405E+03  0.00000000000E+00 0.  1.
         21   -1    0    0  501  502 -0.00000000000E+00 -0.00000000000E+00 -0.73454879001E+02  0.73454879001E+02  0.00000000000E+00 0.  1.
         25    1    1    2    0    0 -0.65341085015E+02 -0.12434356780E+03  0.31339638434E+03  0.36547650261E+03  0.12500000000E+03 0.  0.
         25    1    1    2    0    0  0.60027263470E+02  0.13804680396E+03  0.46636122674E+03  0.50574498144E+03  0.12500000000E+03 0.  0.
         25    1    1    2    0    0  0.53138215455E+01 -0.13703236160E+02  0.11512819397E+03  0.17057407900E+03  0.12500000000E+03 0.  0.
</event>
<event>
 5    0  0.5597833E-005  0.4295554E+03  0.7546771E-02  0.1034000E+00
         21   -1    0    0  502  501  0.00000000000E+00  0.00000000000E+00  0.52652446237E+03  0.52652446237E+03  0.00000000000E+00 0.  1.
         21   -1    0    0  501  502 -0.00000000000E+00 -0.00000000000E+00 -0.35044496651E+03  0.35044496651E+03  0.00000000000E+00 0.  1.
         25    1    1    2    0    0  0.95464297081E+02 -0.86210667001E+02  0.17708539094E+03  0.25205147650E+03  0.12500000000E+03 0.  0.
         25    1    1    2    0    0 -0.17031834587E+03 -0.43267626903E+02 -0.23594500666E+03  0.31964898349E+03  0.12500000000E+03 0.  0.
         25    1    1    2    0    0  0.74854048794E+02  0.12947829390E+03  0.23493911159E+03  0.30526896889E+03  0.12500000000E+03 0.  0.
</event>
<event>
 5    0  0.5597833E-005  0.3705917E+03  0.7546771E-02  0.1054467E+00
         21   -1    0    0  502  501  0.00000000000E+00  0.00000000000E+00  0.92086211145E+03  0.92086211145E+03  0.00000000000E+00 0. -1.
         21   -1    0    0  501  502 -0.00000000000E+00 -0.00000000000E+00 -0.14914093210E+03  0.14914093210E+03  0.00000000000E+00 0. -1.
         25    1    1    2    0    0 -0.60338865602E+02  0.58060911465E+02  0.34392497631E+03  0.37539477550E+03  0.12500000000E+03 0.  0.
         25    1    1    2    0    0 -0.16281638971E+03  0.42750152418E+02  0.35150670766E+03  0.40929050541E+03  0.12500000000E+03 0.  0.
         25    1    1    2    0    0  0.22315525532E+03 -0.10081106388E+03  0.76289495382E+02  0.28531776265E+03  0.12500000000E+03 0.  0.
</event>
<event>
 5    0  0.5597833E-005  0.3935761E+03  0.7546771E-02  0.1046027E+00
         21   -1    0    0  502  501  0.00000000000E+00  0.00000000000E+00  0.11821272612E+04  0.11821272612E+04  0.00000000000E+00 0.  1.
         21   -1    0    0  501  502 -0.00000000000E+00 -0.00000000000E+00 -0.13103678427E+03  0.13103678427E+03  0.00000000000E+00 0.  1.
         25    1    1    2    0    0 -0.17651572121E+03  0.12490572197E+03  0.38050537019E+03  0.45515774843E+03  0.12500000000E+03 0.  0.
         25    1    1    2    0    0  0.22648782732E+03 -0.13868669870E+03  0.65993299294E+03  0.72226538855E+03  0.12500000000E+03 0.  0.
         25    1    1    2    0    0 -0.49972106115E+02  0.13780976739E+02  0.10652113802E+02  0.13574090849E+03  0.12500000000E+03 0.  0.
</event>
<event>
 5    0  0.5597833E-005  0.2863501E+03  0.7546771E-02  0.1092270E+00
         21   -1    0    0  502  501  0.00000000000E+00  0.00000000000E+00  0.89037122810E+03  0.89037122810E+03  0.00000000000E+00 0. -1.
         21   -1    0    0  501  502 -0.00000000000E+00 -0.00000000000E+00 -0.92092342698E+02  0.92092342698E+02  0.00000000000E+00 0. -1.
         25    1    1    2    0    0 -0.34648193905E+02 -0.13171521576E+03  0.76419130651E+02  0.20003569415E+03  0.12500000000E+03 0.  0.
         25    1    1    2    0    0  0.56888707806E+02  0.64211253496E+02  0.45047754324E+03  0.47530456248E+03  0.12500000000E+03 0.  0.
         25    1    1    2    0    0 -0.22240513901E+02  0.67503962268E+02  0.27138221151E+03  0.30712331417E+03  0.12500000000E+03 0.  0.
</event>
<event>
 5    0  0.6070217E-005  0.3089783E+03  0.7546771E-02  0.1080837E+00
         21   -1    0    0  502  501  0.00000000000E+00  0.00000000000E+00  0.65704653766E+03  0.65704653766E+03  0.00000000000E+00 0.  1.
         21   -1    0    0  501  502 -0.00000000000E+00 -0.00000000000E+00 -0.14529802117E+03  0.14529802117E+03  0.00000000000E+00 0.  1.
         25    1    1    2    0    0 -0.31859140667E+02 -0.33561695141E+02  0.37871069590E+03  0.40148248207E+03  0.12500000000E+03 0.  0.
         25    1    1    2    0    0  0.10484377203E+03 -0.91171355800E+02  0.71821645990E+02  0.20021933345E+03  0.12500000000E+03 0.  0.
         25    1    1    2    0    0 -0.72984631366E+02  0.12473305094E+03  0.61216174597E+02  0.20064274331E+03  0.12500000000E+03 0.  0.
</event>
<event>
 5    0  0.5597833E-005  0.3797559E+03  0.7546771E-02  0.1051024E+00
         21   -1    0    0  502  501  0.00000000000E+00  0.00000000000E+00  0.26530779573E+03  0.26530779573E+03  0.00000000000E+00 0. -1.
         21   -1    0    0  501  502 -0.00000000000E+00 -0.00000000000E+00 -0.54357458979E+03  0.54357458979E+03  0.00000000000E+00 0. -1.
         25    1    1    2    0    0  0.64566047643E+02  0.10550625810E+03  0.15267575871E+03  0.23288459010E+03  0.12500000000E+03 0.  0.
         25    1    1    2    0    0  0.63766805574E+01 -0.11775125508E+03 -0.66884013287E+02  0.18440306766E+03  0.12500000000E+03 0.  0.
         25    1    1    2    0    0 -0.70942728200E+02  0.12244996974E+02 -0.36405853949E+03  0.39159472776E+03  0.12500000000E+03 0.  0.
</event>
<event>
 5    0  0.5597833E-005  0.3396446E+03  0.7546771E-02  0.1066947E+00
         21   -1    0    0  502  501  0.00000000000E+00  0.00000000000E+00  0.14596837486E+03  0.14596837486E+03  0.00000000000E+00 0.  1.
         21   -1    0    0  501  502 -0.00000000000E+00 -0.00000000000E+00 -0.79029765493E+03  0.79029765493E+03  0.00000000000E+00 0.  1.
         25    1    1    2    0    0  0.12899995534E+02  0.26129586587E+02 -0.96343875741E+01  0.12871280668E+03  0.12500000000E+03 0.  0.
         25    1    1    2    0    0  0.49673206493E+02  0.65624129667E+02  0.15830673394E+01  0.14967117271E+03  0.12500000000E+03 0.  0.
         25    1    1    2    0    0 -0.62573202027E+02 -0.91753716254E+02 -0.63627795984E+03  0.65788205040E+03  0.12500000000E+03 0.  0.
</event>
<event>
 5    0  0.5597833E-005  0.3103853E+03  0.7546771E-02  0.1080161E+00
         21   -1    0    0  502  501  0.00000000000E+00  0.00000000000E+00  0.11545365045E+03  0.11545365045E+03  0.00000000000E+00 0.  1.
         21   -1    0    0  501  502 -0.00000000000E+00 -0.00000000000E+00 -0.83443918319E+03  0.83443918319E+03  0.00000000000E+00 0.  1.
         25    1    1    2    0    0  0.17405045622E+02  0.62587711960E+02 -0.11920445202E+01  0.14087788425E+03  0.12500000000E+03 0.  0.
         25    1    1    2    0    0  0.90829750662E+02 -0.78060277511E+02 -0.53374910984E+03  0.56112080944E+03  0.12500000000E+03 0.  0.
         25    1    1    2    0    0 -0.10823479628E+03  0.15472565551E+02 -0.18404437837E+03  0.24789413995E+03  0.12500000000E+03 0.  0.
</event>
<event>
 5    0  0.5597833E-005  0.3123423E+03  0.7546771E-02  0.1079229E+00
         21   -1    0    0  502  501  0.00000000000E+00  0.00000000000E+00  0.11353290918E+03  0.11353290918E+03  0.00000000000E+00 0.  1.
         21   -1    0    0  501  502 -0.00000000000E+00 -0.00000000000E+00 -0.85929024095E+03  0.85929024095E+03  0.00000000000E+00 0.  1.
         25    1    1    2    0    0  0.48283544906E+02 -0.11429247124E+03 -0.14583860846E+02  0.17672509355E+03  0.12500000000E+03 0.  0.
         25    1    1    2    0    0 -0.94265879964E+02  0.48035023006E+02 -0.33418692772E+03  0.37215497070E+03  0.12500000000E+03 0.  0.
         25    1    1    2    0    0  0.45982335058E+02  0.66257448238E+02 -0.39698654320E+03  0.42394308588E+03  0.12500000000E+03 0.  0.
</event>
<event>
 5    0  0.5597833E-005  0.4231600E+03  0.7546771E-02  0.1036043E+00
         21   -1    0    0  502  501  0.00000000000E+00  0.00000000000E+00  0.77387607460E+02  0.77387607460E+02  0.00000000000E+00 0. -1.
         21   -1    0    0  501  502 -0.00000000000E+00 -0.00000000000E+00 -0.23138641101E+04  0.23138641101E+04  0.00000000000E+00 0. -1.
         25    1    1    2    0    0  0.12204057233E+03 -0.35111179364E+02 -0.35779111901E+03  0.39970761946E+03  0.12500000000E+03 0.  0.
         25    1    1    2    0    0 -0.28528961111E+02  0.28743750370E+03 -0.13408388081E+04  0.13772828066E+04  0.12500000000E+03 0.  0.
         25    1    1    2    0    0 -0.93511611220E+02 -0.25232632433E+03 -0.53784657556E+03  0.61426129149E+03  0.12500000000E+03 0.  0.
</event>
<event>
 5    0  0.5597833E-005  0.3141359E+03  0.7546771E-02  0.1078380E+00
         21   -1    0    0  502  501  0.00000000000E+00  0.00000000000E+00  0.14560003417E+03  0.14560003417E+03  0.00000000000E+00 0.  1.
         21   -1    0    0  501  502 -0.00000000000E+00 -0.00000000000E+00 -0.67775635538E+03  0.67775635538E+03  0.00000000000E+00 0.  1.
         25    1    1    2    0    0 -0.74736745385E+02  0.21378137298E+02 -0.11344096098E+03  0.18583987057E+03  0.12500000000E+03 0.  0.
         25    1    1    2    0    0 -0.50114387969E+02  0.20064568002E+02  0.41887502731E+02  0.14245561293E+03  0.12500000000E+03 0.  0.
         25    1    1    2    0    0  0.12485113335E+03 -0.41442705300E+02 -0.46060286297E+03  0.49506090605E+03  0.12500000000E+03 0.  0.
</event>
<event>
 5    0  0.5597833E-005  0.3023108E+03  0.7546771E-02  0.1084091E+00
         21   -1    0    0  502  501  0.00000000000E+00  0.00000000000E+00  0.67257051050E+03  0.67257051050E+03  0.00000000000E+00 0.  1.
         21   -1    0    0  501  502 -0.00000000000E+00 -0.00000000000E+00 -0.13588435407E+03  0.13588435407E+03  0.00000000000E+00 0.  1.
         25    1    1    2    0    0 -0.68719780737E+02  0.15410971510E+03  0.17235387254E+03  0.27166720437E+03  0.12500000000E+03 0.  0.
         25    1    1    2    0    0  0.66841614089E+02  0.51601496877E+02  0.11070242064E+03  0.18711104134E+03  0.12500000000E+03 0.  0.
         25    1    1    2    0    0  0.18781666479E+01 -0.20571121197E+03  0.25362986326E+03  0.34967661886E+03  0.12500000000E+03 0.  0.
</event>
<event>
 5    0  0.5597833E-005  0.3043581E+03  0.7546771E-02  0.1083082E+00
         21   -1    0    0  502  501  0.00000000000E+00  0.00000000000E+00  0.86951685532E+03  0.86951685532E+03  0.00000000000E+00 0. -1.
         21   -1    0    0  501  502 -0.00000000000E+00 -0.00000000000E+00 -0.10653484402E+03  0.10653484402E+03  0.00000000000E+00 0. -1.
         25    1    1    2    0    0  0.27424853696E+02 -0.72676060584E+02  0.60597724909E+03  0.62359230175E+03  0.12500000000E+03 0.  0.
         25    1    1    2    0    0 -0.24303710656E+02 -0.42466299202E+02  0.23401485904E+02  0.13625962888E+03  0.12500000000E+03 0.  0.
         25    1    1    2    0    0 -0.31211430402E+01  0.11514235979E+03  0.13360327630E+03  0.21619976871E+03  0.12500000000E+03 0.  0.
</event>
<event>
 5    0  0.5597833E-005  0.3430028E+03  0.7546771E-02  0.1065524E+00
         21   -1    0    0  502  501  0.00000000000E+00  0.00000000000E+00  0.97954753737E+02  0.97954753737E+02  0.00000000000E+00 0.  1.
         21   -1    0    0  501  502 -0.00000000000E+00 -0.00000000000E+00 -0.12010741826E+04  0.12010741826E+04  0.00000000000E+00 0.  1.
         25    1    1    2    0    0  0.87220375469E+01  0.11822825807E+03 -0.71603764487E+03  0.73647057227E+03  0.12500000000E+03 0.  0.
         25    1    1    2    0    0  0.11138719637E+02  0.96938293355E+02 -0.15208671144E+03  0.21971907425E+03  0.12500000000E+03 0.  0.
         25    1    1    2    0    0 -0.19860757184E+02 -0.21516655142E+03 -0.23499507259E+03  0.34283928986E+03  0.12500000000E+03 0.  0.
</event>
<event>
 5    0  0.5597833E-005  0.2782140E+03  0.7546771E-02  0.1096668E+00
         21   -1    0    0  502  501  0.00000000000E+00  0.00000000000E+00  0.23272848564E+03  0.23272848564E+03  0.00000000000E+00 0.  1.
         21   -1    0    0  501  502 -0.00000000000E+00 -0.00000000000E+00 -0.33258945226E+03  0.33258945226E+03  0.00000000000E+00 0.  1.
         25    1    1    2    0    0 -0.46496267352E+01 -0.13511700237E+02  0.78100533629E+02  0.14808402488E+03  0.12500000000E+03 0.  0.
         25    1    1    2    0    0 -0.13597529466E+03  0.26019332740E+02 -0.11144071269E+03  0.21727935677E+03  0.12500000000E+03 0.  0.
         25    1    1    2    0    0  0.14062492140E+03 -0.12507632504E+02 -0.66520787555E+02  0.19995455625E+03  0.12500000000E+03 0.  0.
</event>
<event>
 5    0  0.5597833E-005  0.2182900E+03  0.7546771E-02  0.1135164E+00
         21   -1    0    0  502  501  0.00000000000E+00  0.00000000000E+00  0.19933119029E+04  0.19933119029E+04  0.00000000000E+00 0. -1.
         21   -1    0    0  501  502 -0.00000000000E+00 -0.00000000000E+00 -0.23905199473E+02  0.23905199473E+02  0.00000000000E+00 0. -1.
         25    1    1    2    0    0  0.16460340323E+02  0.57215280984E+02  0.50509912000E+03  0.52373146955E+03  0.12500000000E+03 0.  0.
         25    1    1    2    0    0 -0.29652551846E+02 -0.79712847168E+02  0.55376819860E+03  0.57403626159E+03  0.12500000000E+03 0.  0.
         25    1    1    2    0    0  0.13192211522E+02  0.22497566184E+02  0.91053938480E+03  0.91944937120E+03  0.12500000000E+03 0.  0.
</event>
<event>
 5    0  0.6027439E-005  0.3071421E+03  0.7546771E-02  0.1081724E+00
         21   -1    0    0  502  501  0.00000000000E+00  0.00000000000E+00  0.38355511764E+03  0.38355511764E+03  0.00000000000E+00 0. -1.
         21   -1    0    0  501  502 -0.00000000000E+00 -0.00000000000E+00 -0.24595224329E+03  0.24595224329E+03  0.00000000000E+00 0. -1.
         25    1    1    2    0    0 -0.18917374135E+02 -0.19480657801E+03 -0.18102239824E+02  0.23293810544E+03  0.12500000000E+03 0.  0.
         25    1    1    2    0    0 -0.54739590196E+02  0.11970400973E+03  0.17108782091E+02  0.18232713212E+03  0.12500000000E+03 0.  0.
         25    1    1    2    0    0  0.73656964331E+02  0.75102568278E+02  0.13859633208E+03  0.21424212336E+03  0.12500000000E+03 0.  0.
</event>
<event>
 5    0  0.5597833E-005  0.3411460E+03  0.7546771E-02  0.1066309E+00
         21   -1    0    0  502  501  0.00000000000E+00  0.00000000000E+00  0.14260569993E+04  0.14260569993E+04  0.00000000000E+00 0.  1.
         21   -1    0    0  501  502 -0.00000000000E+00 -0.00000000000E+00 -0.81610067084E+02  0.81610067084E+02  0.00000000000E+00 0.  1.
         25    1    1    2    0    0  0.19848885733E+03 -0.14494272402E+03  0.70228895027E+03  0.75448060903E+03  0.12500000000E+03 0.  0.
         25    1    1    2    0    0 -0.19657691672E+03  0.13232076427E+03  0.44220951452E+03  0.51703532140E+03  0.12500000000E+03 0.  0.
         25    1    1    2    0    0 -0.19119406169E+01  0.12621959754E+02  0.19994846740E+03  0.23615113593E+03  0.12500000000E+03 0.  0.
</event>
<event>
 5    0  0.5597833E-005  0.2538947E+03  0.7546771E-02  0.1110868E+00
         21   -1    0    0  502  501  0.00000000000E+00  0.00000000000E+00  0.69455451007E+02  0.69455451007E+02  0.00000000000E+00 0. -1.
         21   -1    0    0  501  502 -0.00000000000E+00 -0.00000000000E+00 -0.92811291895E+03  0.92811291895E+03  0.00000000000E+00 0. -1.
         25    1    1    2    0    0  0.10737717420E+02 -0.11406643095E+03 -0.14893568135E+03  0.22568404114E+03  0.12500000000E+03 0.  0.
         25    1    1    2    0    0 -0.80314870719E+00  0.20295117099E+02 -0.46017347225E+03  0.47728100883E+03  0.12500000000E+03 0.  0.
         25    1    1    2    0    0 -0.99345687127E+01  0.93771313852E+02 -0.24954831434E+03  0.29460331999E+03  0.12500000000E+03 0.  0.
</event>
<event>
 5    0  0.5597833E-005  0.3068674E+03  0.7546771E-02  0.1081857E+00
         21   -1    0    0  502  501  0.00000000000E+00  0.00000000000E+00  0.12965775743E+03  0.12965775743E+03  0.00000000000E+00 0.  1.
         21   -1    0    0  501  502 -0.00000000000E+00 -0.00000000000E+00 -0.72627831707E+03  0.72627831707E+03  0.00000000000E+00 0.  1.
         25    1    1    2    0    0  0.32052514907E+02 -0.98111901193E+02 -0.38267216237E+03  0.41559149741E+03  0.12500000000E+03 0.  0.
         25    1    1    2    0    0 -0.69822306013E+02  0.16919658945E+03 -0.67606714264E+02  0.23172895398E+03  0.12500000000E+03 0.  0.
         25    1    1    2    0    0  0.37769791106E+02 -0.71084688252E+02 -0.14634168300E+03  0.20861562311E+03  0.12500000000E+03 0.  0.
</event>
<event>
 5    0  0.5835282E-005  0.3644573E+03  0.7546771E-02  0.1056833E+00
         21   -1    0    0  502  501  0.00000000000E+00  0.00000000000E+00  0.41261568583E+03  0.41261568583E+03  0.00000000000E+00 0.  1.
         21   -1    0    0  501  502 -0.00000000000E+00 -0.00000000000E+00 -0.32191978459E+03  0.32191978459E+03  0.00000000000E+00 0.  1.
         25    1    1    2    0    0 -0.80291669544E+01  0.45170687473E+02  0.19200879715E+03  0.23366051594E+03  0.12500000000E+03 0.  0.
         25    1    1    2    0    0  0.12573342338E+03  0.50964361306E+02  0.10785784882E+03  0.21369271263E+03  0.12500000000E+03 0.  0.
         25    1    1    2    0    0 -0.11770425642E+03 -0.96135048779E+02 -0.20917074473E+03  0.28718224185E+03  0.12500000000E+03 0.  0.
</event>
<event>
 5    0  0.5597833E-005  0.1973747E+03  0.7546771E-02  0.1151973E+00
         21   -1    0    0  502  501  0.00000000000E+00  0.00000000000E+00  0.44122621442E+04  0.44122621442E+04  0.00000000000E+00 0.  1.
         21   -1    0    0  501  502 -0.00000000000E+00 -0.00000000000E+00 -0.88292021257E+01  0.88292021257E+01  0.00000000000E+00 0.  1.
         25    1    1    2    0    0 -0.32522613401E+02  0.20495824163E+02  0.16973984172E+04  0.17024289078E+04  0.12500000000E+03 0.  0.
         25    1    1    2    0    0  0.28841238917E+02  0.76777903741E+01  0.10895068947E+04  0.10970601803E+04  0.12500000000E+03 0.  0.
         25    1    1    2    0    0  0.36813744836E+01 -0.28173614537E+02  0.16165276302E+04  0.16216022583E+04  0.12500000000E+03 0.  0.
</event>
<event>
 5    0  0.6274482E-005  0.3367243E+03  0.7546771E-02  0.1068200E+00
         21   -1    0    0  502  501  0.00000000000E+00  0.00000000000E+00  0.10162245131E+04  0.10162245131E+04  0.00000000000E+00 0.  1.
         21   -1    0    0  501  502 -0.00000000000E+00 -0.00000000000E+00 -0.11157305496E+03  0.11157305496E+03  0.00000000000E+00 0.  1.
         25    1    1    2    0    0 -0.28572442426E+01 -0.19583804628E+03  0.16053258481E+03  0.28241178269E+03  0.12500000000E+03 0.  0.
         25    1    1    2    0    0 -0.47357830350E+02  0.15850272027E+03  0.21735540760E+03  0.30039016236E+03  0.12500000000E+03 0.  0.
         25    1    1    2    0    0  0.50215074592E+02  0.37335326009E+02  0.52676346576E+03  0.54499562305E+03  0.12500000000E+03 0.  0.
</event>
<event>
 5    0  0.5597833E-005  0.2280708E+03  0.7546771E-02  0.1128005E+00
         21   -1    0    0  502  501  0.00000000000E+00  0.00000000000E+00  0.68325975697E+02  0.68325975697E+02  0.00000000000E+00 0. -1.
         21   -1    0    0  501  502 -0.00000000000E+00 -0.00000000000E+00 -0.76129577278E+03  0.76129577278E+03  0.00000000000E+00 0. -1.
         25    1    1    2    0    0  0.74565073184E+02 -0.44965181601E+02 -0.30276433995E+03  0.33892928944E+03  0.12500000000E+03 0.  0.
         25    1    1    2    0    0 -0.40257093248E+02  0.86616445533E+02 -0.16852211193E+03  0.23053794569E+03  0.12500000000E+03 0.  0.
         25    1    1    2    0    0 -0.34307979936E+02 -0.41651263931E+02 -0.22168334520E+03  0.26015451334E+03  0.12500000000E+03 0.  0.
</event>
<event>
 5    0  0.5597833E-005  0.3190750E+03  0.7546771E-02  0.1076076E+00
         21   -1    0    0  502  501  0.00000000000E+00  0.00000000000E+00  0.20839419716E+03  0.20839419716E+03  0.00000000000E+00 0.  1.
         21   -1    0    0  501  502 -0.00000000000E+00 -0.00000000000E+00 -0.48853963489E+03  0.48853963489E+03  0.00000000000E+00 0.  1.
         25    1    1    2    0    0 -0.81836675789E+02 -0.11141229412E+03 -0.21391644604E+03  0.28371673668E+03  0.12500000000E+03 0.  0.
         25    1    1    2    0    0  0.13446767802E+03  0.99209693430E+01  0.69082663553E+02  0.19641129415E+03  0.12500000000E+03 0.  0.
         25    1    1    2    0    0 -0.52631002235E+02  0.10149132477E+03 -0.13531165524E+03  0.21680580122E+03  0.12500000000E+03 0.  0.
</event>
<event>
 5    0  0.5597833E-005  0.2960201E+03  0.7546771E-02  0.1087247E+00
         21   -1    0    0  502  501  0.00000000000E+00  0.00000000000E+00  0.18304866829E+03  0.18304866829E+03  0.00000000000E+00 0.  1.
         21   -1    0    0  501  502 -0.00000000000E+00 -0.00000000000E+00 -0.47871376265E+03  0.47871376265E+03  0.00000000000E+00 0.  1.
         25    1    1    2    0    0 -0.10511741406E+03 -0.10225336157E+02 -0.28386438122E+03  0.32765563503E+03  0.12500000000E+03 0.  0.
         25    1    1    2    0    0 -0.45838946753E+02  0.37757575344E+01 -0.31963618676E+02  0.13697495502E+03  0.12500000000E+03 0.  0.
         25    1    1    2    0    0  0.15095636081E+03  0.64495786224E+01  0.20162905537E+02  0.19713184089E+03  0.12500000000E+03 0.  0.
</event>
<event>
 5    0  0.5597833E-005  0.6750238E+03  0.7546771E-02  0.9760925E-01
         21   -1    0    0  502  501  0.00000000000E+00  0.00000000000E+00  0.83108053866E+03  0.83108053866E+03  0.00000000000E+00 0.  1.
         21   -1    0    0  501  502 -0.00000000000E+00 -0.00000000000E+00 -0.54827069913E+03  0.54827069913E+03  0.00000000000E+00 0.  1.
         25    1    1    2    0    0  0.34829137765E+03  0.29511376364E+03 -0.29959718957E+03  0.56016291669E+03  0.12500000000E+03 0.  0.
         25    1    1    2    0    0 -0.22194728602E+03 -0.19615268811E+03  0.51075141317E+03  0.60351344714E+03  0.12500000000E+03 0.  0.
         25    1    1    2    0    0 -0.12634409163E+03 -0.98961075528E+02  0.71655615932E+02  0.21567487395E+03  0.12500000000E+03 0.  0.
</event>
<event>
 5    0  0.5597833E-005  0.2338977E+03  0.7546771E-02  0.1123926E+00
         21   -1    0    0  502  501  0.00000000000E+00  0.00000000000E+00  0.98220960901E+03  0.98220960901E+03  0.00000000000E+00 0.  1.
         21   -1    0    0  501  502 -0.00000000000E+00 -0.00000000000E+00 -0.55699019421E+02  0.55699019421E+02  0.00000000000E+00 0.  1.
         25    1    1    2    0    0  0.12209121185E+03 -0.15015012495E+02  0.42848136732E+03  0.46298271755E+03  0.12500000000E+03 0.  0.
         25    1    1    2    0    0 -0.67691016048E+02 -0.14073686939E+02  0.19855868883E+03  0.24460313822E+03  0.12500000000E+03 0.  0.
         25    1    1    2    0    0 -0.54400195804E+02  0.29088699434E+02  0.29947053344E+03  0.33032277266E+03  0.12500000000E+03 0.  0.
</event>
<event>
 5    0  0.5597833E-005  0.2983642E+03  0.7546771E-02  0.1086061E+00
         21   -1    0    0  502  501  0.00000000000E+00  0.00000000000E+00  0.95947298501E+02  0.95947298501E+02  0.00000000000E+00 0.  1.
         21   -1    0    0  501  502 -0.00000000000E+00 -0.00000000000E+00 -0.92781336008E+03  0.92781336008E+03  0.00000000000E+00 0.  1.
         25    1    1    2    0    0 -0.82086998994E+02 -0.27731524113E+02 -0.19270409184E+03  0.24549374706E+03  0.12500000000E+03 0.  0.
         25    1    1    2    0    0 -0.43448120455E+02 -0.45954251871E+02 -0.54840734133E+03  0.56601691182E+03  0.12500000000E+03 0.  0.
         25    1    1    2    0    0  0.12553511945E+03  0.73685775985E+02 -0.90754628407E+02  0.21224999971E+03  0.12500000000E+03 0.  0.
</event>
<event>
 5    0  0.5752551E-005  0.3336352E+03  0.7546771E-02  0.1069540E+00
         21   -1    0    0  502  501  0.00000000000E+00  0.00000000000E+00  0.16320719356E+03  0.16320719356E+03  0.00000000000E+00 0.  1.
         21   -1    0    0  501  502 -0.00000000000E+00 -0.00000000000E+00 -0.68203160096E+03  0.68203160096E+03  0.00000000000E+00 0.  1.
         25    1    1    2    0    0 -0.13583042662E+03 -0.62628010738E+02 -0.19860939174E+03  0.27828557816E+03  0.12500000000E+03 0.  0.
         25    1    1    2    0    0  0.21878467098E+03  0.15463335921E+02 -0.32264799558E+03  0.40967374344E+03  0.12500000000E+03 0.  0.
         25    1    1    2    0    0 -0.82954244362E+02  0.47164674817E+02  0.24329799248E+01  0.15727947291E+03  0.12500000000E+03 0.  0.
</event>
<event>
 5    0  0.5597833E-005  0.2883891E+03  0.7546771E-02  0.1091193E+00
         21   -1    0    0  502  501  0.00000000000E+00  0.00000000000E+00  0.93508188721E+03  0.93508188721E+03  0.00000000000E+00 0.  1.
         21   -1    0    0  501  502 -0.00000000000E+00 -0.00000000000E+00 -0.88942243771E+02  0.88942243771E+02  0.00000000000E+00 0.  1.
         25    1    1    2    0    0 -0.11397825779E+03 -0.60678872486E+02  0.44203848582E+03  0.47717501167E+03  0.12500000000E+03 0.  0.
         25    1    1    2    0    0  0.15461112125E+03  0.85502460630E+02  0.32795803431E+03  0.39293350819E+03  0.12500000000E+03 0.  0.
         25    1    1    2    0    0 -0.40632863451E+02 -0.24823588143E+02  0.76143123305E+02  0.15391561112E+03  0.12500000000E+03 0.  0.
</event>
<event>
 5    0  0.5597833E-005  0.3266741E+03  0.7546771E-02  0.1072618E+00
         21   -1    0    0  502  501  0.00000000000E+00  0.00000000000E+00  0.29885628509E+03  0.29885628509E+03  0.00000000000E+00 0.  1.
         21   -1    0    0  501  502 -0.00000000000E+00 -0.00000000000E+00 -0.35708131898E+03  0.35708131898E+03  0.00000000000E+00 0.  1.
         25    1    1    2    0    0  0.25683386368E+02  0.31969517464E+02  0.14291591500E+03  0.19424635168E+03  0.12500000000E+03 0.  0.
         25    1    1    2    0    0  0.19413369244E+02  0.21806750933E+02  0.76352836872E+02  0.14935584686E+03  0.12500000000E+03 0.  0.
         25    1    1    2    0    0 -0.45096755612E+02 -0.53776268397E+02 -0.27749378576E+03  0.31233540553E+03  0.12500000000E+03 0.  0.
</event>
<event>
 5    0  0.5597833E-005  0.3477823E+03  0.7546771E-02  0.1063529E+00
         21   -1    0    0  502  501  0.00000000000E+00  0.00000000000E+00  0.64814840906E+03  0.64814840906E+03  0.00000000000E+00 0.  1.
         21   -1    0    0  501  502 -0.00000000000E+00 -0.00000000000E+00 -0.18661242648E+03  0.18661242648E+03  0.00000000000E+00 0.  1.
         25    1    1    2    0    0 -0.17358103777E+03 -0.17609500773E+03  0.11930624743E+03  0.30166008867E+03  0.12500000000E+03 0.  0.
         25    1    1    2    0    0  0.15698637856E+03  0.18604855900E+03  0.18064996080E+03  0.32789967627E+03  0.12500000000E+03 0.  0.
         25    1    1    2    0    0  0.16594659210E+02 -0.99535512705E+01  0.16157977434E+03  0.20520107060E+03  0.12500000000E+03 0.  0.
</event>
<event>
 5    0  0.5597833E-005  0.2959421E+03  0.7546771E-02  0.1087287E+00
         21   -1    0    0  502  501  0.00000000000E+00  0.00000000000E+00  0.92300549098E+03  0.92300549098E+03  0.00000000000E+00 0.  1.
         21   -1    0    0  501  502 -0.00000000000E+00 -0.00000000000E+00 -0.94887575033E+02  0.94887575033E+02  0.00000000000E+00 0.  1.
         25    1    1    2    0    0  0.16294935402E+02 -0.18796173840E+02  0.17772819431E+03  0.21870329701E+03  0.12500000000E+03 0.  0.
         25    1    1    2    0    0  0.16946499459E+02 -0.18349138269E+02 -0.74865500871E+01  0.12769073244E+03  0.12500000000E+03 0.  0.
         25    1    1    2    0    0 -0.33241434861E+02  0.37145312110E+02  0.65787627173E+03  0.67149903656E+03  0.12500000000E+03 0.  0.
</event>
<event>
 5    0  0.5850323E-005  0.2608510E+03  0.7546771E-02  0.1106633E+00
         21   -1    0    0  502  501  0.00000000000E+00  0.00000000000E+00  0.35647396469E+03  0.35647396469E+03  0.00000000000E+00 0. -1.
         21   -1    0    0  501  502 -0.00000000000E+00 -0.00000000000E+00 -0.19087850740E+03  0.19087850740E+03  0.00000000000E+00 0. -1.
         25    1    1    2    0    0 -0.14863267609E+02  0.44289026330E+02  0.15924914663E+03  0.20776844149E+03  0.12500000000E+03 0.  0.
         25    1    1    2    0    0 -0.38583841488E+02  0.79008085085E+02  0.25929771486E+02  0.15501078473E+03  0.12500000000E+03 0.  0.
         25    1    1    2    0    0  0.53447109098E+02 -0.12329711142E+03 -0.19583460814E+02  0.18457324587E+03  0.12500000000E+03 0.  0.
</event>
<event>
 5    0  0.5597833E-005  0.3383637E+03  0.7546771E-02  0.1067495E+00
         21   -1    0    0  502  501  0.00000000000E+00  0.00000000000E+00  0.71030449964E+03  0.71030449964E+03  0.00000000000E+00 0.  1.
         21   -1    0    0  501  502 -0.00000000000E+00 -0.00000000000E+00 -0.16118433891E+03  0.16118433891E+03  0.00000000000E+00 0.  1.
         25    1    1    2    0    0  0.12835660233E+03 -0.41497567406E+02  0.13521630006E+02  0.18440526007E+03  0.12500000000E+03 0.  0.
         25    1    1    2    0    0 -0.99887658706E+02  0.18053024798E+03  0.30335261386E+03  0.38757776398E+03  0.12500000000E+03 0.  0.
         25    1    1    2    0    0 -0.28468943623E+02 -0.13903268057E+03  0.23224591687E+03  0.29950581450E+03  0.12500000000E+03 0.  0.
</event>
<event>
 5    0  0.5597833E-005  0.3071013E+03  0.7546771E-02  0.1081744E+00
         21   -1    0    0  502  501  0.00000000000E+00  0.00000000000E+00  0.21146537392E+03  0.21146537392E+03  0.00000000000E+00 0. -1.
         21   -1    0    0  501  502 -0.00000000000E+00 -0.00000000000E+00 -0.44598880868E+03  0.44598880868E+03  0.00000000000E+00 0. -1.
         25    1    1    2    0    0  0.19395421766E+03 -0.57603750509E+02 -0.19570537969E+03  0.30799679586E+03  0.12500000000E+03 0.  0.
         25    1    1    2    0    0 -0.56644556321E+02  0.41236885332E+02  0.37359952670E+02  0.14808731389E+03  0.12500000000E+03 0.  0.
         25    1    1    2    0    0 -0.13730966134E+03  0.16366865177E+02 -0.76178007742E+02  0.20137007284E+03  0.12500000000E+03 0.  0.
</event>
<event>
 5    0  0.5597833E-005  0.2657683E+03  0.7546771E-02  0.1103726E+00
         21   -1    0    0  502  501  0.00000000000E+00  0.00000000000E+00  0.11739125160E+04  0.11739125160E+04  0.00000000000E+00 0. -1.
         21   -1    0    0  501  502 -0.00000000000E+00 -0.00000000000E+00 -0.60168701236E+02  0.60168701236E+02  0.00000000000E+00 0. -1.
         25    1    1    2    0    0 -0.35614716000E+02 -0.24763799483E+02  0.29006785058E+03  0.31881971661E+03  0.12500000000E+03 0.  0.
         25    1    1    2    0    0  0.11654276754E+03  0.14407433258E+02  0.15846322548E+03  0.23350671217E+03  0.12500000000E+03 0.  0.
         25    1    1    2    0    0 -0.80928051537E+02  0.10356366224E+02  0.66521273868E+03  0.68175478843E+03  0.12500000000E+03 0.  0.
</event>
<event>
 5    0  0.5597833E-005  0.3150578E+03  0.7546771E-02  0.1077947E+00
         21   -1    0    0  502  501  0.00000000000E+00  0.00000000000E+00  0.33850247970E+03  0.33850247970E+03  0.00000000000E+00 0. -1.
         21   -1    0    0  501  502 -0.00000000000E+00 -0.00000000000E+00 -0.29323692174E+03  0.29323692174E+03  0.00000000000E+00 0. -1.
         25    1    1    2    0    0 -0.80044217443E+02 -0.97627744163E+02 -0.15880475470E+03  0.23829016617E+03  0.12500000000E+03 0.  0.
         25    1    1    2    0    0 -0.29856685405E+02  0.99446244947E+02  0.59727326425E+02  0.17312807635E+03  0.12500000000E+03 0.  0.
         25    1    1    2    0    0  0.10990090285E+03 -0.18185007833E+01  0.14434298624E+03  0.22032115892E+03  0.12500000000E+03 0.  0.
</event>
<event>
 5    0  0.6136815E-005  0.2904070E+03  0.7546771E-02  0.1090137E+00
         21   -1    0    0  502  501  0.00000000000E+00  0.00000000000E+00  0.32647294900E+03  0.32647294900E+03  0.00000000000E+00 0. -1.
         21   -1    0    0  501  502 -0.00000000000E+00 -0.00000000000E+00 -0.25832526845E+03  0.25832526845E+03  0.00000000000E+00 0. -1.
         25    1    1    2    0    0 -0.21073664284E+02 -0.83208790704E+02  0.12096519018E+03  0.19397262542E+03  0.12500000000E+03 0.  0.
         25    1    1    2    0    0  0.85343469612E+02 -0.31800353398E+02  0.71857442734E+02  0.17053815514E+03  0.12500000000E+03 0.  0.
         25    1    1    2    0    0 -0.64269805328E+02  0.11500914410E+03 -0.12467495237E+03  0.22028743689E+03  0.12500000000E+03 0.  0.
</event>
<event>
 5    0  0.5597833E-005  0.3953327E+03  0.7546771E-02  0.1045408E+00
         21   -1    0    0  502  501  0.00000000000E+00  0.00000000000E+00  0.15373351154E+04  0.15373351154E+04  0.00000000000E+00 0.  1.
         21   -1    0    0  501  502 -0.00000000000E+00 -0.00000000000E+00 -0.10166157618E+03  0.10166157618E+03  0.00000000000E+00 0.  1.
         25    1    1    2    0    0  0.19861083773E+03 -0.50574040022E+02  0.37673342582E+03  0.44671811304E+03  0.12500000000E+03 0.  0.
         25    1    1    2    0    0 -0.12765905594E+03 -0.18226579778E+03  0.66793232101E+03  0.71503583200E+03  0.12500000000E+03 0.  0.
         25    1    1    2    0    0 -0.70951781797E+02  0.23283983781E+03  0.39100779238E+03  0.47724274653E+03  0.12500000000E+03 0.  0.
</event>
<event>
 5    0  0.5597833E-005  0.3349949E+03  0.7546771E-02  0.1068948E+00
         21   -1    0    0  502  501  0.00000000000E+00  0.00000000000E+00  0.11607205514E+03  0.11607205514E+03  0.00000000000E+00 0.  1.
         21   -1    0    0  501  502 -0.00000000000E+00 -0.00000000000E+00 -0.96682714081E+03  0.96682714081E+03  0.00000000000E+00 0.  1.
         25    1    1    2    0    0  0.19346000463E+02 -0.17558875922E+02 -0.17297681631E+03  0.21500828086E+03  0.12500000000E+03 0.  0.
         25    1    1    2    0    0  0.87286643713E+02  0.16875510125E+03 -0.99944653543E+02  0.24841734267E+03  0.12500000000E+03 0.  0.
         25    1    1    2    0    0 -0.10663264418E+03 -0.15119622533E+03 -0.57783361582E+03  0.61947357242E+03  0.12500000000E+03 0.  0.
</event>
<event>
 5    0  0.5597833E-005  0.3176813E+03  0.7546771E-02  0.1076721E+00
         21   -1    0    0  502  501  0.00000000000E+00  0.00000000000E+00  0.11199022526E+04  0.11199022526E+04  0.00000000000E+00 0.  1.
         21   -1    0    0  501  502 -0.00000000000E+00 -0.00000000000E+00 -0.90116275470E+02  0.90116275470E+02  0.00000000000E+00 0.  1.
         25    1    1    2    0    0  0.82281595729E+02  0.14485309256E+03  0.10368574627E+03  0.23265513835E+03  0.12500000000E+03 0.  0.
         25    1    1    2    0    0 -0.24152570937E+01 -0.75830387121E+02  0.49961746689E+03  0.52057534930E+03  0.12500000000E+03 0.  0.
         25    1    1    2    0    0 -0.79866338635E+02 -0.69022705434E+02  0.42648276394E+03  0.45678804040E+03  0.12500000000E+03 0.  0.
</event>
<event>
 5    0  0.5597833E-005  0.3976692E+03  0.7546771E-02  0.1044590E+00
         21   -1    0    0  502  501  0.00000000000E+00  0.00000000000E+00  0.18780277619E+03  0.18780277619E+03  0.00000000000E+00 0.  1.
         21   -1    0    0  501  502 -0.00000000000E+00 -0.00000000000E+00 -0.84205788242E+03  0.84205788242E+03  0.00000000000E+00 0.  1.
         25    1    1    2    0    0  0.17903181362E+03 -0.11325303675E+03 -0.11971052496E+03  0.27355849540E+03  0.12500000000E+03 0.  0.
         25    1    1    2    0    0 -0.24571079895E+03  0.15064966223E+03 -0.15675510669E+03  0.35109298045E+03  0.12500000000E+03 0.  0.
         25    1    1    2    0    0  0.66678985337E+02 -0.37396625472E+02 -0.37778947459E+03  0.40520918276E+03  0.12500000000E+03 0.  0.
</event>
<event>
 5    0  0.5597833E-005  0.4519487E+03  0.7546771E-02  0.1027143E+00
         21   -1    0    0  502  501  0.00000000000E+00  0.00000000000E+00  0.15126394600E+03  0.15126394600E+03  0.00000000000E+00 0. -1.
         21   -1    0    0  501  502 -0.00000000000E+00 -0.00000000000E+00 -0.13503391031E+04  0.13503391031E+04  0.00000000000E+00 0. -1.
         25    1    1    2    0    0  0.76323797200E+02  0.98259177773E+02 -0.94149267107E+03  0.95786932184E+03  0.12500000000E+03 0.  0.
         25    1    1    2    0    0 -0.69161866295E+01 -0.83615435567E+02 -0.34436929079E+03  0.37583850673E+03  0.12500000000E+03 0.  0.
         25    1    1    2    0    0 -0.69407610570E+02 -0.14643742205E+02  0.86786804774E+02  0.16789522052E+03  0.12500000000E+03 0.  0.
</event>
<event>
 5    0  0.5597833E-005  0.2910813E+03  0.7546771E-02  0.1089786E+00
         21   -1    0    0  502  501  0.00000000000E+00  0.00000000000E+00  0.14381737751E+03  0.14381737751E+03  0.00000000000E+00 0. -1.
         21   -1    0    0  501  502 -0.00000000000E+00 -0.00000000000E+00 -0.58913826138E+03  0.58913826138E+03  0.00000000000E+00 0. -1.
         25    1    1    2    0    0  0.54584785238E+01  0.16513558182E+02  0.29976484031E+02  0.12971538917E+03  0.12500000000E+03 0.  0.
         25    1    1    2    0    0  0.33902429220E+02  0.10632510952E+03 -0.33764605866E+03  0.37694066449E+03  0.12500000000E+03 0.  0.
         25    1    1    2    0    0 -0.39360907744E+02 -0.12283866770E+03 -0.13765130924E+03  0.22629958524E+03  0.12500000000E+03 0.  0.
</event>
<event>
 5    0  0.5597833E-005  0.2111455E+03  0.7546771E-02  0.1140662E+00
         21   -1    0    0  502  501  0.00000000000E+00  0.00000000000E+00  0.39575870112E+02  0.39575870112E+02  0.00000000000E+00 0. -1.
         21   -1    0    0  501  502 -0.00000000000E+00 -0.00000000000E+00 -0.11265054536E+04  0.11265054536E+04  0.00000000000E+00 0. -1.
         25    1    1    2    0    0 -0.43041669331E+01  0.28582926716E+02 -0.29165983845E+03  0.31863140290E+03  0.12500000000E+03 0.  0.
         25    1    1    2    0    0  0.11480472826E+02 -0.87810320302E+02 -0.45376460750E+03  0.47892564415E+03  0.12500000000E+03 0.  0.
         25    1    1    2    0    0 -0.71763058932E+01  0.59227393586E+02 -0.34150513752E+03  0.36852427664E+03  0.12500000000E+03 0.  0.
</event>
<event>
 5    0  0.5597833E-005  0.3162459E+03  0.7546771E-02  0.1077390E+00
         21   -1    0    0  502  501  0.00000000000E+00  0.00000000000E+00  0.13202424406E+04  0.13202424406E+04  0.00000000000E+00 0.  1.
         21   -1    0    0  501  502 -0.00000000000E+00 -0.00000000000E+00 -0.75752350100E+02  0.75752350100E+02  0.00000000000E+00 0.  1.
         25    1    1    2    0    0 -0.48176227428E+02  0.92718835576E+02  0.47204188279E+03  0.49936586835E+03  0.12500000000E+03 0.  0.
         25    1    1    2    0    0 -0.22852117705E+02 -0.87846028319E+02  0.73068425162E+03  0.74683573799E+03  0.12500000000E+03 0.  0.
         25    1    1    2    0    0  0.71028345133E+02 -0.48728072568E+01  0.41763956131E+02  0.14979318441E+03  0.12500000000E+03 0.  0.
</event>
<event>
 5    0  0.5597833E-005  0.2938298E+03  0.7546771E-02  0.1088366E+00
         21   -1    0    0  502  501  0.00000000000E+00  0.00000000000E+00  0.33672354971E+03  0.33672354971E+03  0.00000000000E+00 0.  1.
         21   -1    0    0  501  502 -0.00000000000E+00 -0.00000000000E+00 -0.25640006092E+03  0.25640006092E+03  0.00000000000E+00 0.  1.
         25    1    1    2    0    0  0.60532059672E+02 -0.17465363285E+03 -0.60953733696E+02  0.23131878300E+03  0.12500000000E+03 0.  0.
         25    1    1    2    0    0  0.14929220431E+02  0.12644572258E+03  0.89035115896E+02  0.19940826022E+03  0.12500000000E+03 0.  0.
         25    1    1    2    0    0 -0.75461280103E+02  0.48207910270E+02  0.52242106586E+02  0.16239656741E+03  0.12500000000E+03 0.  0.
</event>
<event>
 5    0  0.5597833E-005  0.3080778E+03  0.7546771E-02  0.1081271E+00
         21   -1    0    0  502  501  0.00000000000E+00  0.00000000000E+00  0.40748302067E+03  0.40748302067E+03  0.00000000000E+00 0.  1.
         21   -1    0    0  501  502 -0.00000000000E+00 -0.00000000000E+00 -0.23292238706E+03  0.23292238706E+03  0.00000000000E+00 0.  1.
         25    1    1    2    0    0 -0.24950719717E+02  0.43175843104E+02  0.25409187176E+03  0.28753151329E+03  0.12500000000E+03 0.  0.
         25    1    1    2    0    0  0.82883452190E+02 -0.20341142815E+02 -0.13480236101E+03  0.20268227666E+03  0.12500000000E+03 0.  0.
         25    1    1    2    0    0 -0.57932732473E+02 -0.22834700289E+02  0.55271122857E+02  0.15019161778E+03  0.12500000000E+03 0.  0.
</event>
<event>
 5    0  0.5597833E-005  0.2541524E+03  0.7546771E-02  0.1110708E+00
         21   -1    0    0  502  501  0.00000000000E+00  0.00000000000E+00  0.30278804749E+03  0.30278804749E+03  0.00000000000E+00 0. -1.
         21   -1    0    0  501  502 -0.00000000000E+00 -0.00000000000E+00 -0.21332892389E+03  0.21332892389E+03  0.00000000000E+00 0. -1.
         25    1    1    2    0    0  0.15615121984E+02 -0.69451304007E+02  0.90270621444E+02  0.16982667858E+03  0.12500000000E+03 0.  0.
         25    1    1    2    0    0 -0.13838078734E+02 -0.76386414647E+02 -0.34843995781E+02  0.15121336187E+03  0.12500000000E+03 0.  0.
         25    1    1    2    0    0 -0.17770432502E+01  0.14583771865E+03  0.34032497931E+02  0.19507693093E+03  0.12500000000E+03 0.  0.
</event>
<event>
 5    0  0.5597833E-005  0.3798067E+03  0.7546771E-02  0.1051005E+00
         21   -1    0    0  502  501  0.00000000000E+00  0.00000000000E+00  0.75247586216E+03  0.75247586216E+03  0.00000000000E+00 0. -1.
         21   -1    0    0  501  502 -0.00000000000E+00 -0.00000000000E+00 -0.19170466534E+03  0.19170466534E+03  0.00000000000E+00 0. -1.
         25    1    1    2    0    0 -0.11717858080E+03  0.26551824758E+02  0.31506065381E+03  0.35961651071E+03  0.12500000000E+03 0.  0.
         25    1    1    2    0    0 -0.78981937744E+02 -0.12259865917E+03  0.27042869693E+03  0.33170055448E+03  0.12500000000E+03 0.  0.
         25    1    1    2    0    0  0.19616051854E+03  0.96046834416E+02 -0.24718153918E+02  0.25286346230E+03  0.12500000000E+03 0.  0.
</event>
<event>
 5    0  0.5597833E-005  0.3065221E+03  0.7546771E-02  0.1082025E+00
         21   -1    0    0  502  501  0.00000000000E+00  0.00000000000E+00  0.22546702295E+04  0.22546702295E+04  0.00000000000E+00 0. -1.
         21   -1    0    0  501  502 -0.00000000000E+00 -0.00000000000E+00 -0.41671648213E+02  0.41671648213E+02  0.00000000000E+00 0. -1.
         25    1    1    2    0    0  0.72831888742E+02 -0.17964590323E+03  0.76908143283E+03  0.80292489368E+03  0.12500000000E+03 0.  0.
         25    1    1    2    0    0 -0.61606320175E+02  0.19852804659E+03  0.75818937490E+03  0.79604324768E+03  0.12500000000E+03 0.  0.
         25    1    1    2    0    0 -0.11225568568E+02 -0.18882143359E+02  0.68572777358E+03  0.69737373638E+03  0.12500000000E+03 0.  0.
</event>
<event>
 5    0  0.5597833E-005  0.2444773E+03  0.7546771E-02  0.1116846E+00
         21   -1    0    0  502  501  0.00000000000E+00  0.00000000000E+00  0.36659179504E+03  0.36659179504E+03  0.00000000000E+00 0.  1.
         21   -1    0    0  501  502 -0.00000000000E+00 -0.00000000000E+00 -0.16304007270E+03  0.16304007270E+03  0.00000000000E+00 0.  1.
         25    1    1    2    0    0  0.44851330415E+02 -0.69506660560E+02 -0.37508183099E+01  0.14993960898E+03  0.12500000000E+03 0.  0.
         25    1    1    2    0    0  0.22825147670E+02 -0.42125605372E+02  0.60771623689E+02  0.14701613598E+03  0.12500000000E+03 0.  0.
         25    1    1    2    0    0 -0.67676478084E+02  0.11163226593E+03  0.14653091697E+03  0.23267612278E+03  0.12500000000E+03 0.  0.
</event>
<event>
 5    0  0.5597833E-005  0.3700888E+03  0.7546771E-02  0.1054659E+00
         21   -1    0    0  502  501  0.00000000000E+00  0.00000000000E+00  0.12852707736E+04  0.12852707736E+04  0.00000000000E+00 0. -1.
         21   -1    0    0  501  502 -0.00000000000E+00 -0.00000000000E+00 -0.10656567932E+03  0.10656567932E+03  0.00000000000E+00 0. -1.
         25    1    1    2    0    0 -0.29535950805E+03 -0.13762463275E+02  0.36579469564E+03  0.48667998084E+03  0.12500000000E+03 0.  0.
         25    1    1    2    0    0  0.15424926692E+03 -0.34765730325E+02  0.36951254311E+03  0.42091093103E+03  0.12500000000E+03 0.  0.
         25    1    1    2    0    0  0.14111024113E+03  0.48528193600E+02  0.44339785551E+03  0.48424554102E+03  0.12500000000E+03 0.  0.
</event>
<event>
 5    0  0.5597833E-005  0.3106522E+03  0.7546771E-02  0.1080034E+00
         21   -1    0    0  502  501  0.00000000000E+00  0.00000000000E+00  0.75200352157E+02  0.75200352157E+02  0.00000000000E+00 0.  1.
         21   -1    0    0  501  502 -0.00000000000E+00 -0.00000000000E+00 -0.12833025479E+04  0.12833025479E+04  0.00000000000E+00 0.  1.
         25    1    1    2    0    0  0.84700909911E+00  0.17351126544E+03 -0.60082091491E+03  0.63774418732E+03  0.12500000000E+03 0.  0.
         25    1    1    2    0    0  0.11984937360E+03 -0.94137355574E+02 -0.30167385858E+03  0.36035792071E+03  0.12500000000E+03 0.  0.
         25    1    1    2    0    0 -0.12069638270E+03 -0.79373909868E+02 -0.30560742228E+03  0.36040079206E+03  0.12500000000E+03 0.  0.
</event>
<event>
 5    0  0.5597833E-005  0.2410143E+03  0.7546771E-02  0.1119119E+00
         21   -1    0    0  502  501  0.00000000000E+00  0.00000000000E+00  0.48863538841E+03  0.48863538841E+03  0.00000000000E+00 0.  1.
         21   -1    0    0  501  502 -0.00000000000E+00 -0.00000000000E+00 -0.11887774588E+03  0.11887774588E+03  0.00000000000E+00 0.  1.
         25    1    1    2    0    0 -0.53456023123E+02 -0.28928799960E+02  0.40111512332E+02  0.14466635855E+03  0.12500000000E+03 0.  0.
         25    1    1    2    0    0  0.10347312706E+03 -0.48411131524E+02  0.18180252631E+03  0.24845016453E+03  0.12500000000E+03 0.  0.
         25    1    1    2    0    0 -0.50017103936E+02  0.77339931483E+02  0.14784360388E+03  0.21439661121E+03  0.12500000000E+03 0.  0.
</event>
<event>
 5    0  0.5597833E-005  0.3171808E+03  0.7546771E-02  0.1076954E+00
         21   -1    0    0  502  501  0.00000000000E+00  0.00000000000E+00  0.15996647440E+03  0.15996647440E+03  0.00000000000E+00 0. -1.
         21   -1    0    0  501  502 -0.00000000000E+00 -0.00000000000E+00 -0.62890461642E+03  0.62890461642E+03  0.00000000000E+00 0. -1.
         25    1    1    2    0    0  0.62789225575E+02 -0.10122829876E+03  0.35712305619E+01  0.17270613483E+03  0.12500000000E+03 0.  0.
         25    1    1    2    0    0  0.14563310632E+01  0.65130997910E+01 -0.12348031550E+02  0.12578559239E+03  0.12500000000E+03 0.  0.
         25    1    1    2    0    0 -0.64245556638E+02  0.94715198972E+02 -0.46016134103E+03  0.49037936360E+03  0.12500000000E+03 0.  0.
</event>
<event>
 5    0  0.5597833E-005  0.3517257E+03  0.7546771E-02  0.1061909E+00
         21   -1    0    0  502  501  0.00000000000E+00  0.00000000000E+00  0.20673251153E+03  0.20673251153E+03  0.00000000000E+00 0.  1.
         21   -1    0    0  501  502 -0.00000000000E+00 -0.00000000000E+00 -0.59841063437E+03  0.59841063437E+03  0.00000000000E+00 0.  1.
         25    1    1    2    0    0 -0.15245087837E+03  0.75701980201E+02 -0.32179644144E+03  0.38490259787E+03  0.12500000000E+03 0.  0.
         25    1    1    2    0    0  0.10951476978E+03 -0.18679664065E+02  0.10212377713E+03  0.19595070937E+03  0.12500000000E+03 0.  0.
         25    1    1    2    0    0  0.42936108591E+02 -0.57022316136E+02 -0.17200545853E+03  0.22428983865E+03  0.12500000000E+03 0.  0.
</event>
<event>
 5    0  0.6467658E-005  0.3594411E+03  0.7546771E-02  0.1058805E+00
         21   -1    0    0  502  501  0.00000000000E+00  0.00000000000E+00  0.70275808862E+03  0.70275808862E+03  0.00000000000E+00 0. -1.
         21   -1    0    0  501  502 -0.00000000000E+00 -0.00000000000E+00 -0.18384403661E+03  0.18384403661E+03  0.00000000000E+00 0. -1.
         25    1    1    2    0    0 -0.16494191640E+02 -0.17648144271E+03  0.17008762775E+03  0.27563120123E+03  0.12500000000E+03 0.  0.
         25    1    1    2    0    0 -0.50533415881E+02 -0.36389014091E+02 -0.40252836119E+02  0.14533780404E+03  0.12500000000E+03 0.  0.
         25    1    1    2    0    0  0.67027607521E+02  0.21287045680E+03  0.38907926037E+03  0.46563311996E+03  0.12500000000E+03 0.  0.
</event>
<event>
 5    0  0.5597833E-005  0.1994493E+03  0.7546771E-02  0.1150204E+00
         21   -1    0    0  502  501  0.00000000000E+00  0.00000000000E+00  0.18068863596E+04  0.18068863596E+04  0.00000000000E+00 0.  1.
         21   -1    0    0  501  502 -0.00000000000E+00 -0.00000000000E+00 -0.22015794138E+02  0.22015794138E+02  0.00000000000E+00 0.  1.
         25    1    1    2    0    0  0.98528326036E+01  0.46766497459E+01  0.80946217288E+03  0.81912939069E+03  0.12500000000E+03 0.  0.
         25    1    1    2    0    0 -0.12398539363E+02  0.56552448337E+01  0.34988263147E+03  0.37179101842E+03  0.12500000000E+03 0.  0.
         25    1    1    2    0    0  0.25457067596E+01 -0.10331894580E+02  0.62552576109E+03  0.63798174461E+03  0.12500000000E+03 0.  0.
</event>
<event>
 5    0  0.5597833E-005  0.4059900E+03  0.7546771E-02  0.1041725E+00
         21   -1    0    0  502  501  0.00000000000E+00  0.00000000000E+00  0.28038952249E+03  0.28038952249E+03  0.00000000000E+00 0.  1.
         21   -1    0    0  501  502 -0.00000000000E+00 -0.00000000000E+00 -0.58785324605E+03  0.58785324605E+03  0.00000000000E+00 0.  1.
         25    1    1    2    0    0 -0.17752539919E+03  0.24945328003E+03  0.17978154490E+02  0.33119544127E+03  0.12500000000E+03 0.  0.
         25    1    1    2    0    0  0.10595222962E+03 -0.66841027717E+02 -0.21816105195E+03  0.28091429749E+03  0.12500000000E+03 0.  0.
         25    1    1    2    0    0  0.71573169564E+02 -0.18261225232E+03 -0.10728082610E+03  0.25613302979E+03  0.12500000000E+03 0.  0.
</event>
<event>
 5    0  0.5597833E-005  0.3321488E+03  0.7546771E-02  0.1070190E+00
         21   -1    0    0  502  501  0.00000000000E+00  0.00000000000E+00  0.55190306025E+03  0.55190306025E+03  0.00000000000E+00 0. -1.
         21   -1    0    0  501  502 -0.00000000000E+00 -0.00000000000E+00 -0.19989527879E+03  0.19989527879E+03  0.00000000000E+00 0. -1.
         25    1    1    2    0    0 -0.95318093633E+02  0.41857605533E+02  0.11586328295E+03  0.19971704597E+03  0.12500000000E+03 0.  0.
         25    1    1    2    0    0  0.40089807346E+02 -0.23098961194E+03  0.12426823599E+03  0.29331039524E+03  0.12500000000E+03 0.  0.
         25    1    1    2    0    0  0.55228286287E+02  0.18913200641E+03  0.11187626252E+03  0.25877089784E+03  0.12500000000E+03 0.  0.
</event>
<event>
 5    0  0.5597833E-005  0.3037867E+03  0.7546771E-02  0.1083363E+00
         21   -1    0    0  502  501  0.00000000000E+00  0.00000000000E+00  0.11688208715E+04  0.11688208715E+04  0.00000000000E+00 0. -1.
         21   -1    0    0  501  502 -0.00000000000E+00 -0.00000000000E+00 -0.78956781316E+02  0.78956781316E+02  0.00000000000E+00 0. -1.
         25    1    1    2    0    0  0.44206140958E+02  0.63705425848E+02  0.96832386243E+02  0.17610813498E+03  0.12500000000E+03 0.  0.
         25    1    1    2    0    0 -0.16349208810E+03 -0.49068683013E+02  0.38392777343E+03  0.43836392841E+03  0.12500000000E+03 0.  0.
         25    1    1    2    0    0  0.11928594714E+03 -0.14636742834E+02  0.60910393050E+03  0.63330558941E+03  0.12500000000E+03 0.  0.
</event>
<event>
 5    0  0.5597833E-005  0.3130820E+03  0.7546771E-02  0.1078878E+00
         21   -1    0    0  502  501  0.00000000000E+00  0.00000000000E+00  0.11178986017E+04  0.11178986017E+04  0.00000000000E+00 0. -1.
         21   -1    0    0  501  502 -0.00000000000E+00 -0.00000000000E+00 -0.87682696416E+02  0.87682696416E+02  0.00000000000E+00 0. -1.
         25    1    1    2    0    0  0.21068443215E+03  0.76406715116E+02  0.47058708543E+03  0.53600664271E+03  0.12500000000E+03 0.  0.
         25    1    1    2    0    0 -0.65662933397E+02  0.29416241854E+02  0.17190354373E+03  0.22439421662E+03  0.12500000000E+03 0.  0.
         25    1    1    2    0    0 -0.14502149875E+03 -0.10582295697E+03  0.38772527612E+03  0.44518043877E+03  0.12500000000E+03 0.  0.
</event>
<event>
 5    0  0.5597833E-005  0.2316687E+03  0.7546771E-02  0.1125471E+00
         21   -1    0    0  502  501  0.00000000000E+00  0.00000000000E+00  0.78839924441E+02  0.78839924441E+02  0.00000000000E+00 0. -1.
         21   -1    0    0  501  502 -0.00000000000E+00 -0.00000000000E+00 -0.68075160598E+03  0.68075160598E+03  0.00000000000E+00 0. -1.
         25    1    1    2    0    0 -0.30868689555E+02  0.39241557492E+02 -0.15083654145E+03  0.20216191052E+03  0.12500000000E+03 0.  0.
         25    1    1    2    0    0  0.11177742131E+03  0.15460801912E+02 -0.24725229879E+03  0.29915201415E+03  0.12500000000E+03 0.  0.
         25    1    1    2    0    0 -0.80908731755E+02 -0.54702359403E+02 -0.20382284130E+03  0.25827760575E+03  0.12500000000E+03 0.  0.
</event>
<event>
 5    0  0.5597833E-005  0.2904889E+03  0.7546771E-02  0.1090094E+00
         21   -1    0    0  502  501  0.00000000000E+00  0.00000000000E+00  0.13619643730E+03  0.13619643730E+03  0.00000000000E+00 0. -1.
         21   -1    0    0  501  502 -0.00000000000E+00 -0.00000000000E+00 -0.61957435610E+03  0.61957435610E+03  0.00000000000E+00 0. -1.
         25    1    1    2    0    0  0.12514780526E+03 -0.75656353068E+02 -0.21088483446E+02  0.19353444410E+03  0.12500000000E+03 0.  0.
         25    1    1    2    0    0 -0.12974887271E+03  0.74321575498E+02 -0.27919442405E+03  0.34048934341E+03  0.12500000000E+03 0.  0.
         25    1    1    2    0    0  0.46010674548E+01  0.13347775702E+01 -0.18309501131E+03  0.22174700588E+03  0.12500000000E+03 0.  0.
</event>
<event>
 5    0  0.5597833E-005  0.2573731E+03  0.7546771E-02  0.1108732E+00
         21   -1    0    0  502  501  0.00000000000E+00  0.00000000000E+00  0.15693607492E+04  0.15693607492E+04  0.00000000000E+00 0.  1.
         21   -1    0    0  501  502 -0.00000000000E+00 -0.00000000000E+00 -0.42208851440E+02  0.42208851440E+02  0.00000000000E+00 0.  1.
         25    1    1    2    0    0 -0.62688924239E+02 -0.10871887524E+03  0.31739970917E+03  0.36347939479E+03  0.12500000000E+03 0.  0.
         25    1    1    2    0    0  0.30259173730E+02  0.70655968764E+02  0.87602491760E+03  0.88823000387E+03  0.12500000000E+03 0.  0.
         25    1    1    2    0    0  0.32429750509E+02  0.38062906477E+02  0.33372727099E+03  0.35986020198E+03  0.12500000000E+03 0.  0.
</event>
<event>
 5    0  0.5597833E-005  0.2548854E+03  0.7546771E-02  0.1110256E+00
         21   -1    0    0  502  501  0.00000000000E+00  0.00000000000E+00  0.27655509031E+03  0.27655509031E+03  0.00000000000E+00 0.  1.
         21   -1    0    0  501  502 -0.00000000000E+00 -0.00000000000E+00 -0.23491371353E+03  0.23491371353E+03  0.00000000000E+00 0.  1.
         25    1    1    2    0    0  0.11417552913E+03 -0.58789799312E+02  0.84421453132E+02  0.19810167516E+03  0.12500000000E+03 0.  0.
         25    1    1    2    0    0 -0.10470616963E+03  0.42976528888E+02  0.24207219897E+02  0.17035654813E+03  0.12500000000E+03 0.  0.
         25    1    1    2    0    0 -0.94693594910E+01  0.15813270424E+02 -0.66987296252E+02  0.14301058055E+03  0.12500000000E+03 0.  0.
</event>
<event>
 5    0  0.5597833E-005  0.4014113E+03  0.7546771E-02  0.1043292E+00
         21   -1    0    0  502  501  0.00000000000E+00  0.00000000000E+00  0.57413027706E+02  0.57413027706E+02  0.00000000000E+00 0.  1.
         21   -1    0    0  501  502 -0.00000000000E+00 -0.00000000000E+00 -0.28065233750E+04  0.28065233750E+04  0.00000000000E+00 0.  1.
         25    1    1    2    0    0  0.24979537372E+02  0.70635732397E+02 -0.37015879160E+03  0.39781392004E+03  0.12500000000E+03 0.  0.
         25    1    1    2    0    0 -0.29308667127E+00  0.25139259772E+03 -0.13958563977E+04  0.14238112259E+04  0.12500000000E+03 0.  0.
         25    1    1    2    0    0 -0.24686450701E+02 -0.32202833012E+03 -0.98309515801E+03  0.10423112568E+04  0.12500000000E+03 0.  0.
</event>
<event>
 5    0  0.5597833E-005  0.3200407E+03  0.7546771E-02  0.1075631E+00
         21   -1    0    0  502  501  0.00000000000E+00  0.00000000000E+00  0.51597281184E+03  0.51597281184E+03  0.00000000000E+00 0.  1.
         21   -1    0    0  501  502 -0.00000000000E+00 -0.00000000000E+00 -0.19851053749E+03  0.19851053749E+03  0.00000000000E+00 0.  1.
         25    1    1    2    0    0 -0.95785910502E+02  0.30923161986E+02  0.60461600716E+02  0.17149865235E+03  0.12500000000E+03 0.  0.
         25    1    1    2    0    0 -0.99322753785E+01 -0.19404854807E+03  0.19846921484E+03  0.30457924805E+03  0.12500000000E+03 0.  0.
         25    1    1    2    0    0  0.10571818588E+03  0.16312538608E+03  0.58531458790E+02  0.23840544893E+03  0.12500000000E+03 0.  0.
</event>
<event>
 5    0  0.5597833E-005  0.2834111E+03  0.7546771E-02  0.1093840E+00
         21   -1    0    0  502  501  0.00000000000E+00  0.00000000000E+00  0.80635094051E+03  0.80635094051E+03  0.00000000000E+00 0.  1.
         21   -1    0    0  501  502 -0.00000000000E+00 -0.00000000000E+00 -0.99611496450E+02  0.99611496450E+02  0.00000000000E+00 0.  1.
         25    1    1    2    0    0 -0.14968955930E+01 -0.29716527235E+02  0.30106990041E+03  0.32734293581E+03  0.12500000000E+03 0.  0.
         25    1    1    2    0    0 -0.45684019396E+02 -0.14160408796E+03  0.17144959288E+03  0.25914997637E+03  0.12500000000E+03 0.  0.
         25    1    1    2    0    0  0.47180914989E+02  0.17132061519E+03  0.23421995077E+03  0.31946952479E+03  0.12500000000E+03 0.  0.
</event>
<event>
 5    0  0.6289216E-005  0.3272075E+03  0.7546771E-02  0.1072379E+00
         21   -1    0    0  502  501  0.00000000000E+00  0.00000000000E+00  0.52432156922E+03  0.52432156922E+03  0.00000000000E+00 0.  1.
         21   -1    0    0  501  502 -0.00000000000E+00 -0.00000000000E+00 -0.20419669504E+03  0.20419669504E+03  0.00000000000E+00 0.  1.
         25    1    1    2    0    0  0.22116809910E+03 -0.83449193248E+02  0.20264747583E+03  0.33551467237E+03  0.12500000000E+03 0.  0.
         25    1    1    2    0    0 -0.15985698304E+03 -0.23661329080E+01  0.10624410351E+03  0.22906912306E+03  0.12500000000E+03 0.  0.
         25    1    1    2    0    0 -0.61311116063E+02  0.85815326156E+02  0.11233294836E+02  0.16393446883E+03  0.12500000000E+03 0.  0.
</event>
<event>
 5    0  0.5597833E-005  0.2650802E+03  0.7546771E-02  0.1104129E+00
         21   -1    0    0  502  501  0.00000000000E+00  0.00000000000E+00  0.23534491493E+03  0.23534491493E+03  0.00000000000E+00 0. -1.
         21   -1    0    0  501  502 -0.00000000000E+00 -0.00000000000E+00 -0.29857246068E+03  0.29857246068E+03  0.00000000000E+00 0. -1.
         25    1    1    2    0    0 -0.10092113414E+03  0.77618731004E+02 -0.72524201053E+02  0.19259933140E+03  0.12500000000E+03 0.  0.
         25    1    1    2    0    0 -0.23577953500E+02  0.23231186425E+02  0.40986544792E+02  0.13564846025E+03  0.12500000000E+03 0.  0.
         25    1    1    2    0    0  0.12449908764E+03 -0.10084991743E+03 -0.31689889485E+02  0.20566958396E+03  0.12500000000E+03 0.  0.
</event>
<event>
 5    0  0.5597833E-005  0.3373569E+03  0.7546771E-02  0.1067927E+00
         21   -1    0    0  502  501  0.00000000000E+00  0.00000000000E+00  0.83554869986E+03  0.83554869986E+03  0.00000000000E+00 0.  1.
         21   -1    0    0  501  502 -0.00000000000E+00 -0.00000000000E+00 -0.13620953978E+03  0.13620953978E+03  0.00000000000E+00 0.  1.
         25    1    1    2    0    0 -0.80503727877E+02  0.16126772394E+03  0.65822037849E+02  0.22901019553E+03  0.12500000000E+03 0.  0.
         25    1    1    2    0    0  0.43742142546E+02 -0.12267789507E+03  0.55972658355E+03  0.58811741116E+03  0.12500000000E+03 0.  0.
         25    1    1    2    0    0  0.36761585331E+02 -0.38589828874E+02  0.73790538682E+02  0.15463063295E+03  0.12500000000E+03 0.  0.
</event>
<event>
 5    0  0.5597833E-005  0.2705623E+03  0.7546771E-02  0.1100958E+00
         21   -1    0    0  502  501  0.00000000000E+00  0.00000000000E+00  0.11959133022E+03  0.11959133022E+03  0.00000000000E+00 0. -1.
         21   -1    0    0  501  502 -0.00000000000E+00 -0.00000000000E+00 -0.61211747412E+03  0.61211747412E+03  0.00000000000E+00 0. -1.
         25    1    1    2    0    0 -0.13138398210E+03 -0.66637581164E+02 -0.52883135484E+02  0.20030962032E+03  0.12500000000E+03 0.  0.
         25    1    1    2    0    0  0.94360524489E+02  0.54347917805E+02 -0.21662458832E+03  0.27277979584E+03  0.12500000000E+03 0.  0.
         25    1    1    2    0    0  0.37023457607E+02  0.12289663359E+02 -0.22301842009E+03  0.25861938817E+03  0.12500000000E+03 0.  0.
</event>
<event>
 5    0  0.5597833E-005  0.2900619E+03  0.7546771E-02  0.1090317E+00
         21   -1    0    0  502  501  0.00000000000E+00  0.00000000000E+00  0.19656996144E+03  0.19656996144E+03  0.00000000000E+00 0. -1.
         21   -1    0    0  501  502 -0.00000000000E+00 -0.00000000000E+00 -0.42802013982E+03  0.42802013982E+03  0.00000000000E+00 0. -1.
         25    1    1    2    0    0  0.13958362661E+02  0.95693725371E+02 -0.19056647251E+03  0.24757363634E+03  0.12500000000E+03 0.  0.
         25    1    1    2    0    0  0.36248658262E+02 -0.56094818926E+02  0.10359717990E+03  0.17555047599E+03  0.12500000000E+03 0.  0.
         25    1    1    2    0    0 -0.50207020923E+02 -0.39598906444E+02 -0.14448088577E+03  0.20146598892E+03  0.12500000000E+03 0.  0.
</event>
<event>
 5    0  0.5597833E-005  0.3171286E+03  0.7546771E-02  0.1076978E+00
         21   -1    0    0  502  501  0.00000000000E+00  0.00000000000E+00  0.47871325584E+03  0.47871325584E+03  0.00000000000E+00 0.  1.
         21   -1    0    0  501  502 -0.00000000000E+00 -0.00000000000E+00 -0.21008511874E+03  0.21008511874E+03  0.00000000000E+00 0.  1.
         25    1    1    2    0    0 -0.19346912914E+03  0.58208111860E+02  0.46388952642E+02  0.24206491514E+03  0.12500000000E+03 0.  0.
         25    1    1    2    0    0  0.17969186787E+02 -0.17349522945E+02 -0.93140247049E+01  0.12781098809E+03  0.12500000000E+03 0.  0.
         25    1    1    2    0    0  0.17549994235E+03 -0.40858588915E+02  0.23155320917E+03  0.31892247135E+03  0.12500000000E+03 0.  0.
</event>
<event>
 5    0  0.5597833E-005  0.2617096E+03  0.7546771E-02  0.1106120E+00
         21   -1    0    0  502  501  0.00000000000E+00  0.00000000000E+00  0.69983050725E+03  0.69983050725E+03  0.00000000000E+00 0. -1.
         21   -1    0    0  501  502 -0.00000000000E+00 -0.00000000000E+00 -0.97869262167E+02  0.97869262167E+02  0.00000000000E+00 0. -1.
         25    1    1    2    0    0 -0.10326365299E+03 -0.87189532638E+02  0.31552008366E+03  0.36529894583E+03  0.12500000000E+03 0.  0.
         25    1    1    2    0    0 -0.18459059463E+02  0.69090146014E+02  0.16525161394E+03  0.21919690021E+03  0.12500000000E+03 0.  0.
         25    1    1    2    0    0  0.12172271246E+03  0.18099386623E+02  0.12118954748E+03  0.21320392337E+03  0.12500000000E+03 0.  0.
</event>
<event>
 5    0  0.5597833E-005  0.2058860E+03  0.7546771E-02  0.1144866E+00
         21   -1    0    0  502  501  0.00000000000E+00  0.00000000000E+00  0.17266499991E+04  0.17266499991E+04  0.00000000000E+00 0. -1.
         21   -1    0    0  501  502 -0.00000000000E+00 -0.00000000000E+00 -0.24549887983E+02  0.24549887983E+02  0.00000000000E+00 0. -1.
         25    1    1    2    0    0 -0.55173124617E+01  0.47918890215E+02  0.67260850825E+03  0.68582349489E+03  0.12500000000E+03 0.  0.
         25    1    1    2    0    0  0.16782352440E+02 -0.34983849439E+02  0.70831461380E+03  0.72030556654E+03  0.12500000000E+03 0.  0.
         25    1    1    2    0    0 -0.11265039978E+02 -0.12935040776E+02  0.32117698910E+03  0.34507082568E+03  0.12500000000E+03 0.  0.
</event>
<event>
 5    0  0.5597833E-005  0.4612940E+03  0.7546771E-02  0.1024407E+00
         21   -1    0    0  502  501  0.00000000000E+00  0.00000000000E+00  0.16704345988E+03  0.16704345988E+03  0.00000000000E+00 0.  1.
         21   -1    0    0  501  502 -0.00000000000E+00 -0.00000000000E+00 -0.12738728980E+04  0.12738728980E+04  0.00000000000E+00 0.  1.
         25    1    1    2    0    0  0.23605535949E+03 -0.83611331479E+01 -0.13153001036E+03  0.29785430149E+03  0.12500000000E+03 0.  0.
         25    1    1    2    0    0 -0.31941346799E+03  0.14304995287E+03 -0.77111654601E+03  0.85599882014E+03  0.12500000000E+03 0.  0.
         25    1    1    2    0    0  0.83358108502E+02 -0.13468881972E+03 -0.20418288178E+03  0.28706323628E+03  0.12500000000E+03 0.  0.
</event>
<event>
 5    0  0.5597833E-005  0.2821964E+03  0.7546771E-02  0.1094495E+00
         21   -1    0    0  502  501  0.00000000000E+00  0.00000000000E+00  0.22217588492E+03  0.22217588492E+03  0.00000000000E+00 0.  1.
         21   -1    0    0  501  502 -0.00000000000E+00 -0.00000000000E+00 -0.35843149275E+03  0.35843149275E+03  0.00000000000E+00 0.  1.
         25    1    1    2    0    0 -0.12567948173E+03 -0.92085471118E+02 -0.36160658399E+02  0.20299669784E+03  0.12500000000E+03 0.  0.
         25    1    1    2    0    0 -0.23873452952E+02  0.10121095236E+03 -0.10614539495E+02  0.16294559547E+03  0.12500000000E+03 0.  0.
         25    1    1    2    0    0  0.14955293468E+03 -0.91254812463E+01 -0.89480409934E+02  0.21466508435E+03  0.12500000000E+03 0.  0.
</event>
<event>
 5    0  0.5597833E-005  0.2598706E+03  0.7546771E-02  0.1107221E+00
         21   -1    0    0  502  501  0.00000000000E+00  0.00000000000E+00  0.30518288024E+03  0.30518288024E+03  0.00000000000E+00 0. -1.
         21   -1    0    0  501  502 -0.00000000000E+00 -0.00000000000E+00 -0.22128615948E+03  0.22128615948E+03  0.00000000000E+00 0. -1.
         25    1    1    2    0    0  0.10208154027E+03  0.12409857359E+02 -0.29965401598E+02  0.16461339775E+03  0.12500000000E+03 0.  0.
         25    1    1    2    0    0  0.53464220370E+02  0.12497881149E+02  0.13750560098E+02  0.13721770220E+03  0.12500000000E+03 0.  0.
         25    1    1    2    0    0 -0.15554576064E+03 -0.24907738508E+02  0.10011156226E+03  0.22463793978E+03  0.12500000000E+03 0.  0.
</event>
<event>
 5    0  0.5597833E-005  0.3636910E+03  0.7546771E-02  0.1057132E+00
         21   -1    0    0  502  501  0.00000000000E+00  0.00000000000E+00  0.73198373561E+03  0.73198373561E+03  0.00000000000E+00 0.  1.
         21   -1    0    0  501  502 -0.00000000000E+00 -0.00000000000E+00 -0.18070234562E+03  0.18070234562E+03  0.00000000000E+00 0.  1.
         25    1    1    2    0    0 -0.20918285722E+03  0.15861810475E+03  0.15952349238E+03  0.33164727578E+03  0.12500000000E+03 0.  0.
         25    1    1    2    0    0  0.93405320865E+02 -0.19482926717E+03  0.18505623506E+03  0.31073108542E+03  0.12500000000E+03 0.  0.
         25    1    1    2    0    0  0.11577753636E+03  0.36211162421E+02  0.20670166255E+03  0.27030772003E+03  0.12500000000E+03 0.  0.
</event>
<event>
 5    0  0.5597833E-005  0.2330395E+03  0.7546771E-02  0.1124519E+00
         21   -1    0    0  502  501  0.00000000000E+00  0.00000000000E+00  0.16530655861E+03  0.16530655861E+03  0.00000000000E+00 0.  1.
         21   -1    0    0  501  502 -0.00000000000E+00 -0.00000000000E+00 -0.32852536050E+03  0.32852536050E+03  0.00000000000E+00 0.  1.
         25    1    1    2    0    0 -0.90829840429E+02 -0.15403554064E+02 -0.89990821655E+01  0.15554199713E+03  0.12500000000E+03 0.  0.
         25    1    1    2    0    0 -0.37146049553E+01  0.36862076766E+02 -0.22207608696E+02  0.13225274620E+03  0.12500000000E+03 0.  0.
         25    1    1    2    0    0  0.94544445384E+02 -0.21458522702E+02 -0.13201211102E+03  0.20603717579E+03  0.12500000000E+03 0.  0.
</event>
<event>
 5    0  0.5597833E-005  0.3439572E+03  0.7546771E-02  0.1065123E+00
         21   -1    0    0  502  501  0.00000000000E+00  0.00000000000E+00  0.66350247089E+03  0.66350247089E+03  0.00000000000E+00 0.  1.
         21   -1    0    0  501  502 -0.00000000000E+00 -0.00000000000E+00 -0.17830615718E+03  0.17830615718E+03  0.00000000000E+00 0.  1.
         25    1    1    2    0    0 -0.74939149310E+02 -0.13561480698E+03  0.18514944439E+03  0.27186866080E+03  0.12500000000E+03 0.  0.
         25    1    1    2    0    0 -0.19978540045E+02 -0.11827270063E+03  0.17522449572E+03  0.24640656988E+03  0.12500000000E+03 0.  0.
         25    1    1    2    0    0  0.94917689354E+02  0.25388750761E+03  0.12482237361E+03  0.32353339739E+03  0.12500000000E+03 0.  0.
</event>
<event>
 5    0  0.5597833E-005  0.4797999E+03  0.7546771E-02  0.1019190E+00
         21   -1    0    0  502  501  0.00000000000E+00  0.00000000000E+00  0.19770394544E+03  0.19770394544E+03  0.00000000000E+00 0. -1.
         21   -1    0    0  501  502 -0.00000000000E+00 -0.00000000000E+00 -0.11644076183E+04  0.11644076183E+04  0.00000000000E+00 0. -1.
         25    1    1    2    0    0  0.86186495149E+02  0.37544330006E+03 -0.36182733504E+03  0.54307439996E+03  0.12500000000E+03 0.  0.
         25    1    1    2    0    0  0.38027744944E+02 -0.14252535552E+03 -0.62817033071E+02  0.20329920314E+03  0.12500000000E+03 0.  0.
         25    1    1    2    0    0 -0.12421424009E+03 -0.23291794454E+03 -0.54205930479E+03  0.61573796069E+03  0.12500000000E+03 0.  0.
</event>
<event>
 5    0  0.5597833E-005  0.2368772E+03  0.7546771E-02  0.1121891E+00
         21   -1    0    0  502  501  0.00000000000E+00  0.00000000000E+00  0.72822850395E+03  0.72822850395E+03  0.00000000000E+00 0. -1.
         21   -1    0    0  501  502 -0.00000000000E+00 -0.00000000000E+00 -0.77051076552E+02  0.77051076552E+02  0.00000000000E+00 0. -1.
         25    1    1    2    0    0  0.54653528413E+02  0.90259919225E+02  0.17845527676E+03  0.24208499952E+03  0.12500000000E+03 0.  0.
         25    1    1    2    0    0 -0.92964433870E+02 -0.50310245022E+02  0.20279170743E+03  0.26062038163E+03  0.12500000000E+03 0.  0.
         25    1    1    2    0    0  0.38310905457E+02 -0.39949674203E+02  0.26993044320E+03  0.30257419935E+03  0.12500000000E+03 0.  0.
</event>
<event>
 5    0  0.5597833E-005  0.2351424E+03  0.7546771E-02  0.1123072E+00
         21   -1    0    0  502  501  0.00000000000E+00  0.00000000000E+00  0.48452424097E+03  0.48452424097E+03  0.00000000000E+00 0.  1.
         21   -1    0    0  501  502 -0.00000000000E+00 -0.00000000000E+00 -0.11411596565E+03  0.11411596565E+03  0.00000000000E+00 0.  1.
         25    1    1    2    0    0 -0.10609486471E+02 -0.15962554955E+02  0.57913622628E+02  0.13909116453E+03  0.12500000000E+03 0.  0.
         25    1    1    2    0    0 -0.35313419477E+02 -0.34459416946E+02  0.28419896279E+03  0.31437006769E+03  0.12500000000E+03 0.  0.
         25    1    1    2    0    0  0.45922905947E+02  0.50421971902E+02  0.28295689902E+02  0.14517897440E+03  0.12500000000E+03 0.  0.
</event>
<event>
 5    0  0.6157728E-005  0.4852720E+03  0.7546771E-02  0.1017696E+00
         21   -1    0    0  502  501  0.00000000000E+00  0.00000000000E+00  0.49884657064E+03  0.49884657064E+03  0.00000000000E+00 0.  1.
         21   -1    0    0  501  502 -0.00000000000E+00 -0.00000000000E+00 -0.47206673578E+03  0.47206673578E+03  0.00000000000E+00 0.  1.
         25    1    1    2    0    0  0.12536558818E+03  0.45287587037E+02  0.28302547690E+03  0.33689155053E+03  0.12500000000E+03 0.  0.
         25    1    1    2    0    0  0.19308684337E+03  0.25650271251E+01 -0.14129837240E+03  0.26996173523E+03  0.12500000000E+03 0.  0.
         25    1    1    2    0    0 -0.31845243155E+03 -0.47852614162E+02 -0.11494726963E+03  0.36406002066E+03  0.12500000000E+03 0.  0.
</event>
<event>
 5    0  0.5597833E-005  0.2423647E+03  0.7546771E-02  0.1118228E+00
         21   -1    0    0  502  501  0.00000000000E+00  0.00000000000E+00  0.25911197685E+03  0.25911197685E+03  0.00000000000E+00 0.  1.
         21   -1    0    0  501  502 -0.00000000000E+00 -0.00000000000E+00 -0.22669976857E+03  0.22669976857E+03  0.00000000000E+00 0.  1.
         25    1    1    2    0    0 -0.10097702508E+03 -0.40464666587E+01 -0.57564426647E+02  0.17073780104E+03  0.12500000000E+03 0.  0.
         25    1    1    2    0    0  0.43381178322E+01 -0.98725541551E+01 -0.12736117845E+02  0.12610906109E+03  0.12500000000E+03 0.  0.
         25    1    1    2    0    0  0.96638907253E+02  0.13919020814E+02  0.10271275277E+03  0.18896488329E+03  0.12500000000E+03 0.  0.
</event>
<event>
 5    0  0.5597833E-005  0.2207968E+03  0.7546771E-02  0.1133290E+00
         21   -1    0    0  502  501  0.00000000000E+00  0.00000000000E+00  0.20986896594E+03  0.20986896594E+03  0.00000000000E+00 0.  1.
         21   -1    0    0  501  502 -0.00000000000E+00 -0.00000000000E+00 -0.23229370964E+03  0.23229370964E+03  0.00000000000E+00 0.  1.
         25    1    1    2    0    0 -0.92069185410E+02 -0.53328517767E+02  0.87834557885E+01  0.16438617583E+03  0.12500000000E+03 0.  0.
         25    1    1    2    0    0  0.23717453980E+02  0.24052052688E+02 -0.27014297050E+02  0.13227165648E+03  0.12500000000E+03 0.  0.
         25    1    1    2    0    0  0.68351731430E+02  0.29276465079E+02 -0.41939024398E+01  0.14550484327E+03  0.12500000000E+03 0.  0.
</event>
<event>
 5    0  0.5597833E-005  0.3184017E+03  0.7546771E-02  0.1076387E+00
         21   -1    0    0  502  501  0.00000000000E+00  0.00000000000E+00  0.14261414976E+03  0.14261414976E+03  0.00000000000E+00 0.  1.
         21   -1    0    0  501  502 -0.00000000000E+00 -0.00000000000E+00 -0.71086662014E+03  0.71086662014E+03  0.00000000000E+00 0.  1.
         25    1    1    2    0    0 -0.13436712340E+03  0.14864351830E+03 -0.28839584309E+03  0.37275539124E+03  0.12500000000E+03 0.  0.
         25    1    1    2    0    0  0.15581772054E+03 -0.14778802634E+03 -0.11795756351E+03  0.27506262842E+03  0.12500000000E+03 0.  0.
         25    1    1    2    0    0 -0.21450597138E+02 -0.85549195665E+00 -0.16189906378E+03  0.20566275024E+03  0.12500000000E+03 0.  0.
</event>
<event>
 5    0  0.5597833E-005  0.3097888E+03  0.7546771E-02  0.1080447E+00
         21   -1    0    0  502  501  0.00000000000E+00  0.00000000000E+00  0.23681970460E+03  0.23681970460E+03  0.00000000000E+00 0. -1.
         21   -1    0    0  501  502 -0.00000000000E+00 -0.00000000000E+00 -0.40524116737E+03  0.40524116737E+03  0.00000000000E+00 0. -1.
         25    1    1    2    0    0 -0.11256011755E+03 -0.95013010023E+02 -0.74407053019E+02  0.20702333607E+03  0.12500000000E+03 0.  0.
         25    1    1    2    0    0  0.12825468271E+02  0.16736610044E+03  0.41413507798E+02  0.21334475114E+03  0.12500000000E+03 0.  0.
         25    1    1    2    0    0  0.99734649284E+02 -0.72353090415E+02 -0.13542791756E+03  0.22169278476E+03  0.12500000000E+03 0.  0.
</event>
<event>
 5    0  0.5597833E-005  0.2708747E+03  0.7546771E-02  0.1100780E+00
         21   -1    0    0  502  501  0.00000000000E+00  0.00000000000E+00  0.91826669209E+03  0.91826669209E+03  0.00000000000E+00 0. -1.
         21   -1    0    0  501  502 -0.00000000000E+00 -0.00000000000E+00 -0.79903939897E+02  0.79903939897E+02  0.00000000000E+00 0. -1.
         25    1    1    2    0    0  0.13095752550E+03  0.27625705887E+02  0.13408809214E+03  0.22697504172E+03  0.12500000000E+03 0.  0.
         25    1    1    2    0    0 -0.12900809662E+03  0.18215658149E+02  0.38325456927E+03  0.42365547802E+03  0.12500000000E+03 0.  0.
         25    1    1    2    0    0 -0.19494288829E+01 -0.45841364036E+02  0.32102009078E+03  0.34754011224E+03  0.12500000000E+03 0.  0.
</event>
<event>
 5    0  0.5597833E-005  0.3425267E+03  0.7546771E-02  0.1065725E+00
         21   -1    0    0  502  501  0.00000000000E+00  0.00000000000E+00  0.26356961560E+04  0.26356961560E+04  0.00000000000E+00 0. -1.
         21   -1    0    0  501  502 -0.00000000000E+00 -0.00000000000E+00 -0.44513687428E+02  0.44513687428E+02  0.00000000000E+00 0. -1.
         25    1    1    2    0    0 -0.12259707424E+03  0.19342675464E+02  0.22328028008E+03  0.28439983330E+03  0.12500000000E+03 0.  0.
         25    1    1    2    0    0  0.10473773045E+02  0.95225377667E+02  0.86462216575E+03  0.87884814500E+03  0.12500000000E+03 0.  0.
         25    1    1    2    0    0  0.11212330120E+03 -0.11456805313E+03  0.15032800228E+04  0.15169618651E+04  0.12500000000E+03 0.  0.
</event>
<event>
 5    0  0.7197890E-005  0.3449699E+03  0.7546771E-02  0.1064699E+00
         21   -1    0    0  502  501  0.00000000000E+00  0.00000000000E+00  0.70524144321E+03  0.70524144321E+03  0.00000000000E+00 0. -1.
         21   -1    0    0  501  502 -0.00000000000E+00 -0.00000000000E+00 -0.16874254955E+03  0.16874254955E+03  0.00000000000E+00 0. -1.
         25    1    1    2    0    0 -0.13503251616E+03  0.11715877140E+03  0.62864688450E+02  0.22701746010E+03  0.12500000000E+03 0.  0.
         25    1    1    2    0    0  0.11902748238E+03 -0.12377660079E+03  0.69332776423E+02  0.22342833829E+03  0.12500000000E+03 0.  0.
         25    1    1    2    0    0  0.16005033784E+02  0.66178293909E+01  0.40430142879E+03  0.42353819437E+03  0.12500000000E+03 0.  0.
</event>
<event>
 5    0  0.5597833E-005  0.2532255E+03  0.7546771E-02  0.1111283E+00
         21   -1    0    0  502  501  0.00000000000E+00  0.00000000000E+00  0.20248842482E+03  0.20248842482E+03  0.00000000000E+00 0. -1.
         21   -1    0    0  501  502 -0.00000000000E+00 -0.00000000000E+00 -0.31667568982E+03  0.31667568982E+03  0.00000000000E+00 0. -1.
         25    1    1    2    0    0  0.10017899653E+03 -0.18911803200E+02 -0.15862434240E+03  0.22623034643E+03  0.12500000000E+03 0.  0.
         25    1    1    2    0    0  0.36706496484E+00  0.51577202996E+01 -0.28030944464E+01  0.12513830011E+03  0.12500000000E+03 0.  0.
         25    1    1    2    0    0 -0.10054606149E+03  0.13754082900E+02  0.47240171851E+02  0.16779546810E+03  0.12500000000E+03 0.  0.
</event>
<event>
 5    0  0.6441354E-005  0.6169075E+03  0.7546771E-02  0.9870936E-01
         21   -1    0    0  502  501  0.00000000000E+00  0.00000000000E+00  0.13800784730E+04  0.13800784730E+04  0.00000000000E+00 0.  1.
         21   -1    0    0  501  502 -0.00000000000E+00 -0.00000000000E+00 -0.27576323358E+03  0.27576323358E+03  0.00000000000E+00 0.  1.
         25    1    1    2    0    0 -0.37463737954E+03  0.41539796187E+02  0.51289785163E+03  0.64866626783E+03  0.12500000000E+03 0.  0.
         25    1    1    2    0    0  0.13334740819E+03  0.92417514693E+02 -0.11757712089E+03  0.23616076653E+03  0.12500000000E+03 0.  0.
         25    1    1    2    0    0  0.24128997135E+03 -0.13395731088E+03  0.70899450871E+03  0.77101467223E+03  0.12500000000E+03 0.  0.
</event>
<event>
 5    0  0.5597833E-005  0.5927833E+03  0.7546771E-02  0.9920492E-01
         21   -1    0    0  502  501  0.00000000000E+00  0.00000000000E+00  0.80741424451E+03  0.80741424451E+03  0.00000000000E+00 0.  1.
         21   -1    0    0  501  502 -0.00000000000E+00 -0.00000000000E+00 -0.43520670926E+03  0.43520670926E+03  0.00000000000E+00 0.  1.
         25    1    1    2    0    0  0.63129701783E+02  0.44668164646E+03  0.36949034857E+03  0.59637066512E+03  0.12500000000E+03 0.  0.
         25    1    1    2    0    0 -0.89078300171E+02 -0.12264966238E+03  0.17006550819E+03  0.25985603768E+03  0.12500000000E+03 0.  0.
         25    1    1    2    0    0  0.25948598388E+02 -0.32403198408E+03 -0.16734832151E+03  0.38639425097E+03  0.12500000000E+03 0.  0.
</event>
<event>
 5    0  0.5597833E-005  0.2959901E+03  0.7546771E-02  0.1087262E+00
         21   -1    0    0  502  501  0.00000000000E+00  0.00000000000E+00  0.39745981994E+03  0.39745981994E+03  0.00000000000E+00 0.  1.
         21   -1    0    0  501  502 -0.00000000000E+00 -0.00000000000E+00 -0.22042518255E+03  0.22042518255E+03  0.00000000000E+00 0.  1.
         25    1    1    2    0    0  0.86648729305E+01  0.26336619045E+02  0.11718204099E+03  0.17356649520E+03  0.12500000000E+03 0.  0.
         25    1    1    2    0    0  0.66937633427E+02  0.52079481805E+01  0.19612262671E+03  0.24206787106E+03  0.12500000000E+03 0.  0.
         25    1    1    2    0    0 -0.75602506358E+02 -0.31544567226E+02 -0.13627003032E+03  0.20225063622E+03  0.12500000000E+03 0.  0.
</event>
<event>
 5    0  0.5597833E-005  0.2658985E+03  0.7546771E-02  0.1103650E+00
         21   -1    0    0  502  501  0.00000000000E+00  0.00000000000E+00  0.20897467446E+03  0.20897467446E+03  0.00000000000E+00 0.  1.
         21   -1    0    0  501  502 -0.00000000000E+00 -0.00000000000E+00 -0.33832823703E+03  0.33832823703E+03  0.00000000000E+00 0.  1.
         25    1    1    2    0    0  0.62752858902E+02  0.14993555286E+03 -0.10485834647E+03  0.23030168071E+03  0.12500000000E+03 0.  0.
         25    1    1    2    0    0  0.19183047995E+02 -0.48658689761E+02 -0.11730736739E+02  0.13600833652E+03  0.12500000000E+03 0.  0.
         25    1    1    2    0    0 -0.81935906898E+02 -0.10127686310E+03 -0.12764479350E+02  0.18099289426E+03  0.12500000000E+03 0.  0.
</event>
<event>
 5    0  0.5597833E-005  0.3814410E+03  0.7546771E-02  0.1050402E+00
         21   -1    0    0  502  501  0.00000000000E+00  0.00000000000E+00  0.44970575085E+02  0.44970575085E+02  0.00000000000E+00 0. -1.
         21   -1    0    0  501  502 -0.00000000000E+00 -0.00000000000E+00 -0.32353878443E+04  0.32353878443E+04  0.00000000000E+00 0. -1.
         25    1    1    2    0    0  0.91519231126E+02 -0.21480162460E+03 -0.15397300254E+04  0.15623408907E+04  0.12500000000E+03 0.  0.
         25    1    1    2    0    0  0.70306526687E+01 -0.73837645223E+02 -0.56494196268E+03  0.58334025159E+03  0.12500000000E+03 0.  0.
         25    1    1    2    0    0 -0.98549883794E+02  0.28863926983E+03 -0.10857452812E+04  0.11346772772E+04  0.12500000000E+03 0.  0.
</event>
<event>
 5    0  0.5983501E-005  0.4371932E+03  0.7546771E-02  0.1031611E+00
         21   -1    0    0  502  501  0.00000000000E+00  0.00000000000E+00  0.47954501652E+03  0.47954501652E+03  0.00000000000E+00 0.  1.
         21   -1    0    0  501  502 -0.00000000000E+00 -0.00000000000E+00 -0.39858180234E+03  0.39858180234E+03  0.00000000000E+00 0.  1.
         25    1    1    2    0    0  0.95219564336E+02 -0.57708423782E+02  0.19007926889E+03  0.25328275913E+03  0.12500000000E+03 0.  0.
         25    1    1    2    0    0 -0.22580233742E+03 -0.17514051549E+03 -0.10795653202E+03  0.33006137089E+03  0.12500000000E+03 0.  0.
         25    1    1    2    0    0  0.13058277308E+03  0.23284893928E+03 -0.11595226914E+01  0.29478268884E+03  0.12500000000E+03 0.  0.
</event>
<event>
 5    0  0.5597833E-005  0.3911346E+03  0.7546771E-02  0.1046893E+00
         21   -1    0    0  502  501  0.00000000000E+00  0.00000000000E+00  0.11322702354E+03  0.11322702354E+03  0.00000000000E+00 0. -1.
         21   -1    0    0  501  502 -0.00000000000E+00 -0.00000000000E+00 -0.13511463882E+04  0.13511463882E+04  0.00000000000E+00 0. -1.
         25    1    1    2    0    0  0.18349201107E+03 -0.20338365008E+02 -0.59411086680E+03  0.63456732445E+03  0.12500000000E+03 0.  0.
         25    1    1    2    0    0 -0.35508391607E+02  0.59804591393E+02 -0.61331644558E+03  0.62977733958E+03  0.12500000000E+03 0.  0.
         25    1    1    2    0    0 -0.14798361947E+03 -0.39466226385E+02 -0.30492052273E+02  0.20002874770E+03  0.12500000000E+03 0.  0.
</event>
<event>
 5    0  0.5597833E-005  0.3780936E+03  0.7546771E-02  0.1051641E+00
         21   -1    0    0  502  501  0.00000000000E+00  0.00000000000E+00  0.32883894739E+03  0.32883894739E+03  0.00000000000E+00 0. -1.
         21   -1    0    0  501  502 -0.00000000000E+00 -0.00000000000E+00 -0.43472584751E+03  0.43472584751E+03  0.00000000000E+00 0. -1.
         25    1    1    2    0    0 -0.55581618757E+02 -0.11222539613E+03  0.77717625362E+02  0.19325859663E+03  0.12500000000E+03 0.  0.
         25    1    1    2    0    0 -0.11303832309E+03 -0.11237361244E+03  0.16934159461E+02  0.20326646800E+03  0.12500000000E+03 0.  0.
         25    1    1    2    0    0  0.16861994184E+03  0.22459900856E+03 -0.20053868495E+03  0.36703973027E+03  0.12500000000E+03 0.  0.
</event>
<event>
 5    0  0.5597833E-005  0.5327515E+03  0.7546771E-02  0.1005567E+00
         21   -1    0    0  502  501  0.00000000000E+00  0.00000000000E+00  0.71320284634E+03  0.71320284634E+03  0.00000000000E+00 0. -1.
         21   -1    0    0  501  502 -0.00000000000E+00 -0.00000000000E+00 -0.39795712569E+03  0.39795712569E+03  0.00000000000E+00 0. -1.
         25    1    1    2    0    0  0.14507343638E+03  0.16539203193E+03  0.24546984283E+03  0.35253548744E+03  0.12500000000E+03 0.  0.
         25    1    1    2    0    0 -0.34699967268E+03 -0.94275680100E+02 -0.16709902481E+03  0.41574482653E+03  0.12500000000E+03 0.  0.
         25    1    1    2    0    0  0.20192623630E+03 -0.71116351834E+02  0.23687490264E+03  0.34287965805E+03  0.12500000000E+03 0.  0.
</event>
<event>
 5    0  0.5597833E-005  0.4443217E+03  0.7546771E-02  0.1029429E+00
         21   -1    0    0  502  501  0.00000000000E+00  0.00000000000E+00  0.17737804372E+03  0.17737804372E+03  0.00000000000E+00 0. -1.
         21   -1    0    0  501  502 -0.00000000000E+00 -0.00000000000E+00 -0.11129998200E+04  0.11129998200E+04  0.00000000000E+00 0. -1.
         25    1    1    2    0    0  0.72078595628E+02  0.12569676676E+03  0.63062286783E+02  0.20148660783E+03  0.12500000000E+03 0.  0.
         25    1    1    2    0    0 -0.52428616121E+00  0.94637257201E+01 -0.79626256068E+03  0.80607003574E+03  0.12500000000E+03 0.  0.
         25    1    1    2    0    0 -0.71554309467E+02 -0.13516049248E+03 -0.20242150238E+03  0.28282122013E+03  0.12500000000E+03 0.  0.
</event>
<event>
 5    0  0.5597833E-005  0.8726467E+03  0.7546771E-02  0.9460435E-01
         21   -1    0    0  502  501  0.00000000000E+00  0.00000000000E+00  0.66814955852E+03  0.66814955852E+03  0.00000000000E+00 0. -1.
         21   -1    0    0  501  502 -0.00000000000E+00 -0.00000000000E+00 -0.11397331943E+04  0.11397331943E+04  0.00000000000E+00 0. -1.
         25    1    1    2    0    0  0.37287275186E+03 -0.13456915629E+03 -0.28567765737E+03  0.50436065551E+03  0.12500000000E+03 0.  0.
         25    1    1    2    0    0 -0.65884066774E+03  0.18362343247E+03  0.27251859179E+03  0.74677973546E+03  0.12500000000E+03 0.  0.
         25    1    1    2    0    0  0.28596791588E+03 -0.49054276176E+02 -0.45842457024E+03  0.55674236189E+03  0.12500000000E+03 0.  0.
</event>
<event>
 5    0  0.5597833E-005  0.3867237E+03  0.7546771E-02  0.1048476E+00
         21   -1    0    0  502  501  0.00000000000E+00  0.00000000000E+00  0.34962492818E+03  0.34962492818E+03  0.00000000000E+00 0. -1.
         21   -1    0    0  501  502 -0.00000000000E+00 -0.00000000000E+00 -0.42775892400E+03  0.42775892400E+03  0.00000000000E+00 0. -1.
         25    1    1    2    0    0 -0.22275846532E+03  0.50071358972E+02 -0.10730451075E+03  0.28154525904E+03  0.12500000000E+03 0.  0.
         25    1    1    2    0    0 -0.14922595178E+02  0.90757574394E+02 -0.78679642070E+02  0.17399743456E+03  0.12500000000E+03 0.  0.
         25    1    1    2    0    0  0.23768106050E+03 -0.14082893337E+03  0.10785015699E+03  0.32184115858E+03  0.12500000000E+03 0.  0.
</event>
<event>
 5    0  0.5597833E-005  0.2348681E+03  0.7546771E-02  0.1123260E+00
         21   -1    0    0  502  501  0.00000000000E+00  0.00000000000E+00  0.63043061807E+03  0.63043061807E+03  0.00000000000E+00 0.  1.
         21   -1    0    0  501  502 -0.00000000000E+00 -0.00000000000E+00 -0.87500531838E+02  0.87500531838E+02  0.00000000000E+00 0.  1.
         25    1    1    2    0    0 -0.53700761055E+02  0.11201391194E+03  0.22909319831E+03  0.28903214651E+03  0.12500000000E+03 0.  0.
         25    1    1    2    0    0  0.57521390630E+02 -0.68751852568E+02  0.12444187579E+03  0.19785425965E+03  0.12500000000E+03 0.  0.
         25    1    1    2    0    0 -0.38206295748E+01 -0.43262059373E+02  0.18939501214E+03  0.23104474375E+03  0.12500000000E+03 0.  0.
</event>
<event>
 5    0  0.5597833E-005  0.3259291E+03  0.7546771E-02  0.1072952E+00
         21   -1    0    0  502  501  0.00000000000E+00  0.00000000000E+00  0.30895205932E+03  0.30895205932E+03  0.00000000000E+00 0. -1.
         21   -1    0    0  501  502 -0.00000000000E+00 -0.00000000000E+00 -0.34383896391E+03  0.34383896391E+03  0.00000000000E+00 0. -1.
         25    1    1    2    0    0 -0.12403446350E+02 -0.16606810852E+03 -0.79429726792E+02  0.22285991934E+03  0.12500000000E+03 0.  0.
         25    1    1    2    0    0 -0.77781467882E+02  0.63723440317E+01 -0.87786103170E+02  0.17152831668E+03  0.12500000000E+03 0.  0.
         25    1    1    2    0    0  0.90184914232E+02  0.15969576449E+03  0.13232892537E+03  0.25840278721E+03  0.12500000000E+03 0.  0.
</event>
<event>
 5    0  0.5597833E-005  0.2529674E+03  0.7546771E-02  0.1111444E+00
         21   -1    0    0  502  501  0.00000000000E+00  0.00000000000E+00  0.10926468569E+04  0.10926468569E+04  0.00000000000E+00 0. -1.
         21   -1    0    0  501  502 -0.00000000000E+00 -0.00000000000E+00 -0.58566508238E+02  0.58566508238E+02  0.00000000000E+00 0. -1.
         25    1    1    2    0    0 -0.85419046888E+02 -0.43850501380E+02  0.58298681267E+03  0.60391878906E+03  0.12500000000E+03 0.  0.
         25    1    1    2    0    0  0.32926949345E+02  0.97172064823E+02  0.20237401631E+03  0.25904987291E+03  0.12500000000E+03 0.  0.
         25    1    1    2    0    0  0.52492097543E+02 -0.53321563443E+02  0.24871951969E+03  0.28824470317E+03  0.12500000000E+03 0.  0.
</event>
<event>
 5    0  0.5597833E-005  0.2892799E+03  0.7546771E-02  0.1090726E+00
         21   -1    0    0  502  501  0.00000000000E+00  0.00000000000E+00  0.31304833715E+03  0.31304833715E+03  0.00000000000E+00 0. -1.
         21   -1    0    0  501  502 -0.00000000000E+00 -0.00000000000E+00 -0.26731616701E+03  0.26731616701E+03  0.00000000000E+00 0. -1.
         25    1    1    2    0    0 -0.15909080880E+02 -0.44191712455E+02 -0.24742753514E+02  0.13580578101E+03  0.12500000000E+03 0.  0.
         25    1    1    2    0    0  0.10578202258E+03  0.17119560504E+03  0.14826947973E+02  0.23736598297E+03  0.12500000000E+03 0.  0.
         25    1    1    2    0    0 -0.89872941696E+02 -0.12700389259E+03  0.55647975679E+02  0.20719274017E+03  0.12500000000E+03 0.  0.
</event>
<event>
 5    0  0.5597833E-005  0.3288742E+03  0.7546771E-02  0.1071636E+00
         21   -1    0    0  502  501  0.00000000000E+00  0.00000000000E+00  0.21760057774E+04  0.21760057774E+04  0.00000000000E+00 0. -1.
         21   -1    0    0  501  502 -0.00000000000E+00 -0.00000000000E+00 -0.49704956091E+02  0.49704956091E+02  0.00000000000E+00 0. -1.
         25    1    1    2    0    0 -0.47620889113E+02  0.13191603230E+03  0.59116644893E+03  0.62030021683E+03  0.12500000000E+03 0.  0.
         25    1    1    2    0    0  0.15629976399E+03 -0.20539359249E+03  0.87077254235E+03  0.91678021607E+03  0.12500000000E+03 0.  0.
         25    1    1    2    0    0 -0.10867887488E+03  0.73477560194E+02  0.66436183000E+03  0.68863030056E+03  0.12500000000E+03 0.  0.
</event>
<event>
 5    0  0.5597833E-005  0.3147687E+03  0.7546771E-02  0.1078082E+00
         21   -1    0    0  502  501  0.00000000000E+00  0.00000000000E+00  0.13198256550E+03  0.13198256550E+03  0.00000000000E+00 0. -1.
         21   -1    0    0  501  502 -0.00000000000E+00 -0.00000000000E+00 -0.75070008973E+03  0.75070008973E+03  0.00000000000E+00 0. -1.
         25    1    1    2    0    0  0.10240073803E+03 -0.34051159734E+01 -0.58166726462E+03  0.60370465684E+03  0.12500000000E+03 0.  0.
         25    1    1    2    0    0 -0.30886276832E+02  0.35783529904E+01 -0.40186319915E+02  0.13493223119E+03  0.12500000000E+03 0.  0.
         25    1    1    2    0    0 -0.71514461201E+02 -0.17323701705E+00  0.31360602992E+01  0.14404576719E+03  0.12500000000E+03 0.  0.
</event>
<event>
 5    0  0.5597833E-005  0.3346117E+03  0.7546771E-02  0.1069114E+00
         21   -1    0    0  502  501  0.00000000000E+00  0.00000000000E+00  0.41933851405E+03  0.41933851405E+03  0.00000000000E+00 0. -1.
         21   -1    0    0  501  502 -0.00000000000E+00 -0.00000000000E+00 -0.26700385644E+03  0.26700385644E+03  0.00000000000E+00 0. -1.
         25    1    1    2    0    0 -0.72746950934E+02 -0.17943323468E+02 -0.17454214967E+03  0.22738523201E+03  0.12500000000E+03 0.  0.
         25    1    1    2    0    0 -0.48366602105E+02 -0.37279186425E+02  0.12939780301E+03  0.18999436140E+03  0.12500000000E+03 0.  0.
         25    1    1    2    0    0  0.12111355304E+03  0.55222509893E+02  0.19747900427E+03  0.26896277708E+03  0.12500000000E+03 0.  0.
</event>
<event>
 5    0  0.5597833E-005  0.4762970E+03  0.7546771E-02  0.1020158E+00
         21   -1    0    0  502  501  0.00000000000E+00  0.00000000000E+00  0.25318321524E+03  0.25318321524E+03  0.00000000000E+00 0.  1.
         21   -1    0    0  501  502 -0.00000000000E+00 -0.00000000000E+00 -0.89602639147E+03  0.89602639147E+03  0.00000000000E+00 0.  1.
         25    1    1    2    0    0 -0.10960930024E+03  0.11558783891E+03 -0.45697471208E+02  0.20757650657E+03  0.12500000000E+03 0.  0.
         25    1    1    2    0    0  0.63004848999E+02  0.14344154377E+03  0.71074098230E+02  0.21265374418E+03  0.12500000000E+03 0.  0.
         25    1    1    2    0    0  0.46604451245E+02 -0.25902938267E+03 -0.66821980325E+03  0.72897935596E+03  0.12500000000E+03 0.  0.
</event>
<event>
 5    0  0.5597833E-005  0.2372179E+03  0.7546771E-02  0.1121660E+00
         21   -1    0    0  502  501  0.00000000000E+00  0.00000000000E+00  0.24941301964E+03  0.24941301964E+03  0.00000000000E+00 0.  1.
         21   -1    0    0  501  502 -0.00000000000E+00 -0.00000000000E+00 -0.22561912770E+03  0.22561912770E+03  0.00000000000E+00 0.  1.
         25    1    1    2    0    0 -0.51972215410E+02 -0.39094188197E+02  0.12481379214E+02  0.14145759631E+03  0.12500000000E+03 0.  0.
         25    1    1    2    0    0  0.12362016747E+02  0.32688960850E+02 -0.98084411356E+02  0.16268662935E+03  0.12500000000E+03 0.  0.
         25    1    1    2    0    0  0.39610198663E+02  0.64052273472E+01  0.10939692409E+03  0.17088792168E+03  0.12500000000E+03 0.  0.
</event>
<event>
 5    0  0.5597833E-005  0.2813757E+03  0.7546771E-02  0.1094940E+00
         21   -1    0    0  502  501  0.00000000000E+00  0.00000000000E+00  0.14095654967E+04  0.14095654967E+04  0.00000000000E+00 0. -1.
         21   -1    0    0  501  502 -0.00000000000E+00 -0.00000000000E+00 -0.56167860392E+02  0.56167860392E+02  0.00000000000E+00 0. -1.
         25    1    1    2    0    0  0.11908752973E+03 -0.17744276746E+02  0.20590932963E+03  0.26929602879E+03  0.12500000000E+03 0.  0.
         25    1    1    2    0    0 -0.13816371201E+03  0.32101613273E+02  0.46116577041E+03  0.49841608390E+03  0.12500000000E+03 0.  0.
         25    1    1    2    0    0  0.19076182279E+02 -0.14357336527E+02  0.68632253622E+03  0.69802124435E+03  0.12500000000E+03 0.  0.
</event>
<event>
 5    0  0.5597833E-005  0.3455450E+03  0.7546771E-02  0.1064459E+00
         21   -1    0    0  502  501  0.00000000000E+00  0.00000000000E+00  0.33677062925E+03  0.33677062925E+03  0.00000000000E+00 0. -1.
         21   -1    0    0  501  502 -0.00000000000E+00 -0.00000000000E+00 -0.35454799939E+03  0.35454799939E+03  0.00000000000E+00 0. -1.
         25    1    1    2    0    0  0.90225544105E+02 -0.83708490139E+02  0.21325883137E+03  0.27613780851E+03  0.12500000000E+03 0.  0.
         25    1    1    2    0    0 -0.14749134030E+03  0.69555494194E+02 -0.15543267745E+03  0.25763536142E+03  0.12500000000E+03 0.  0.
         25    1    1    2    0    0  0.57265796195E+02  0.14152995945E+02 -0.75603524058E+02  0.15754545870E+03  0.12500000000E+03 0.  0.
</event>
<event>
 5    0  0.5597833E-005  0.3187575E+03  0.7546771E-02  0.1076223E+00
         21   -1    0    0  502  501  0.00000000000E+00  0.00000000000E+00  0.18497128127E+03  0.18497128127E+03  0.00000000000E+00 0.  1.
         21   -1    0    0  501  502 -0.00000000000E+00 -0.00000000000E+00 -0.54930865659E+03  0.54930865659E+03  0.00000000000E+00 0.  1.
         25    1    1    2    0    0  0.92711908146E+02  0.65199488160E+02  0.92054750098E+01  0.16898583354E+03  0.12500000000E+03 0.  0.
         25    1    1    2    0    0  0.10262910500E+03 -0.92921422975E+02 -0.20570727487E+03  0.27768256512E+03  0.12500000000E+03 0.  0.
         25    1    1    2    0    0 -0.19534101315E+03  0.27721934816E+02 -0.16783557546E+03  0.28761153919E+03  0.12500000000E+03 0.  0.
</event>
<event>
 5    0  0.5597833E-005  0.3063723E+03  0.7546771E-02  0.1082098E+00
         21   -1    0    0  502  501  0.00000000000E+00  0.00000000000E+00  0.78292220968E+03  0.78292220968E+03  0.00000000000E+00 0. -1.
         21   -1    0    0  501  502 -0.00000000000E+00 -0.00000000000E+00 -0.11988930976E+03  0.11988930976E+03  0.00000000000E+00 0. -1.
         25    1    1    2    0    0 -0.84979842995E+02  0.79679387479E+01  0.36708774752E+03  0.39706860383E+03  0.12500000000E+03 0.  0.
         25    1    1    2    0    0  0.67402194019E+02 -0.14951822924E+03  0.21974279299E+03  0.30134805741E+03  0.12500000000E+03 0.  0.
         25    1    1    2    0    0  0.17577648977E+02  0.14155029049E+03  0.76202359408E+02  0.20439485821E+03  0.12500000000E+03 0.  0.
</event>
<event>
 5    0  0.5597833E-005  0.4388989E+03  0.7546771E-02  0.1031085E+00
         21   -1    0    0  502  501  0.00000000000E+00  0.00000000000E+00  0.39172810111E+03  0.39172810111E+03  0.00000000000E+00 0. -1.
         21   -1    0    0  501  502 -0.00000000000E+00 -0.00000000000E+00 -0.49174980143E+03  0.49174980143E+03  0.00000000000E+00 0. -1.
         25    1    1    2    0    0 -0.30716441230E+02 -0.11095696421E+02 -0.88993700784E+02  0.15688050555E+03  0.12500000000E+03 0.  0.
         25    1    1    2    0    0 -0.20800548980E+03  0.26148739391E+03 -0.31855035780E+02  0.35816432578E+03  0.12500000000E+03 0.  0.
         25    1    1    2    0    0  0.23872193103E+03 -0.25039169749E+03  0.20827036249E+02  0.36843307121E+03  0.12500000000E+03 0.  0.
</event>
<event>
 5    0  0.5597833E-005  0.3086131E+03  0.7546771E-02  0.1081013E+00
         21   -1    0    0  502  501  0.00000000000E+00  0.00000000000E+00  0.39376358409E+03  0.39376358409E+03  0.00000000000E+00 0. -1.
         21   -1    0    0  501  502 -0.00000000000E+00 -0.00000000000E+00 -0.24187619317E+03  0.24187619317E+03  0.00000000000E+00 0. -1.
         25    1    1    2    0    0 -0.14147207527E+03 -0.88054597434E+02  0.13719689653E+03  0.24943125031E+03  0.12500000000E+03 0.  0.
         25    1    1    2    0    0 -0.43174566048E+02 -0.35044648120E+01  0.52285003472E+02  0.14224994206E+03  0.12500000000E+03 0.  0.
         25    1    1    2    0    0  0.18464664132E+03  0.91559062246E+02 -0.37594509088E+02  0.24395858489E+03  0.12500000000E+03 0.  0.
</event>
<event>
 5    0  0.5597833E-005  0.2769482E+03  0.7546771E-02  0.1097368E+00
         21   -1    0    0  502  501  0.00000000000E+00  0.00000000000E+00  0.10239090426E+03  0.10239090426E+03  0.00000000000E+00 0. -1.
         21   -1    0    0  501  502 -0.00000000000E+00 -0.00000000000E+00 -0.74909292818E+03  0.74909292818E+03  0.00000000000E+00 0. -1.
         25    1    1    2    0    0  0.47248505796E+02  0.67717193955E+02 -0.23748795496E+03  0.28079096924E+03  0.12500000000E+03 0.  0.
         25    1    1    2    0    0  0.68460185950E+02  0.85702937837E+02 -0.20229365535E+03  0.26187690545E+03  0.12500000000E+03 0.  0.
         25    1    1    2    0    0 -0.11570869175E+03 -0.15342013179E+03 -0.20692041361E+03  0.30881595774E+03  0.12500000000E+03 0.  0.
</event>
<event>
 5    0  0.5597833E-005  0.2093532E+03  0.7546771E-02  0.1142079E+00
         21   -1    0    0  502  501  0.00000000000E+00  0.00000000000E+00  0.70661412736E+03  0.70661412736E+03  0.00000000000E+00 0.  1.
         21   -1    0    0  501  502 -0.00000000000E+00 -0.00000000000E+00 -0.62026465422E+02  0.62026465422E+02  0.00000000000E+00 0.  1.
         25    1    1    2    0    0  0.30974730799E+02 -0.41428492209E+01  0.19434148739E+03  0.23317420712E+03  0.12500000000E+03 0.  0.
         25    1    1    2    0    0 -0.25144326436E+02 -0.40012241993E+02  0.12018624286E+03  0.17973021347E+03  0.12500000000E+03 0.  0.
         25    1    1    2    0    0 -0.58304043635E+01  0.44155091214E+02  0.33005993170E+03  0.35573617220E+03  0.12500000000E+03 0.  0.
</event>
<event>
 5    0  0.5798532E-005  0.3424781E+03  0.7546771E-02  0.1065745E+00
         21   -1    0    0  502  501  0.00000000000E+00  0.00000000000E+00  0.58826612790E+03  0.58826612790E+03  0.00000000000E+00 0.  1.
         21   -1    0    0  501  502 -0.00000000000E+00 -0.00000000000E+00 -0.19938464716E+03  0.19938464716E+03  0.00000000000E+00 0.  1.
         25    1    1    2    0    0 -0.31083489262E+02 -0.60905066407E+01 -0.10324472517E+03  0.16519004465E+03  0.12500000000E+03 0.  0.
         25    1    1    2    0    0 -0.18086678453E+02 -0.12704334998E+03  0.15965057510E+03  0.23995926080E+03  0.12500000000E+03 0.  0.
         25    1    1    2    0    0  0.49170167715E+02  0.13313385662E+03  0.33247563081E+03  0.38250146961E+03  0.12500000000E+03 0.  0.
</event>
<event>
 5    0  0.5597833E-005  0.2505820E+03  0.7546771E-02  0.1112938E+00
         21   -1    0    0  502  501  0.00000000000E+00  0.00000000000E+00  0.20522428763E+03  0.20522428763E+03  0.00000000000E+00 0. -1.
         21   -1    0    0  501  502 -0.00000000000E+00 -0.00000000000E+00 -0.30596436723E+03  0.30596436723E+03  0.00000000000E+00 0. -1.
         25    1    1    2    0    0  0.13666781825E+03  0.47530551089E+02 -0.21751244294E+02  0.19244573900E+03  0.12500000000E+03 0.  0.
         25    1    1    2    0    0 -0.47062234994E+02 -0.32919465136E+02  0.14245034608E+02  0.13829846766E+03  0.12500000000E+03 0.  0.
         25    1    1    2    0    0 -0.89605583256E+02 -0.14611085953E+02 -0.93233869917E+02  0.18044444819E+03  0.12500000000E+03 0.  0.
</event>
<event>
 5    0  0.5597833E-005  0.2830339E+03  0.7546771E-02  0.1094043E+00
         21   -1    0    0  502  501  0.00000000000E+00  0.00000000000E+00  0.23078510443E+03  0.23078510443E+03  0.00000000000E+00 0.  1.
         21   -1    0    0  501  502 -0.00000000000E+00 -0.00000000000E+00 -0.34711156974E+03  0.34711156974E+03  0.00000000000E+00 0.  1.
         25    1    1    2    0    0 -0.63742807415E+02  0.83255564272E+02 -0.12560599073E+03  0.20590410240E+03  0.12500000000E+03 0.  0.
         25    1    1    2    0    0 -0.76465676412E+02 -0.83488578745E+02  0.57292454879E+02  0.17811447958E+03  0.12500000000E+03 0.  0.
         25    1    1    2    0    0  0.14020848383E+03  0.23301447228E+00 -0.48012929467E+02  0.19387809218E+03  0.12500000000E+03 0.  0.
</event>
<event>
 5    0  0.5597833E-005  0.3142221E+03  0.7546771E-02  0.1078340E+00
         21   -1    0    0  502  501  0.00000000000E+00  0.00000000000E+00  0.74601730677E+03  0.74601730677E+03  0.00000000000E+00 0.  1.
         21   -1    0    0  501  502 -0.00000000000E+00 -0.00000000000E+00 -0.13235019875E+03  0.13235019875E+03  0.00000000000E+00 0.  1.
         25    1    1    2    0    0 -0.15228109862E+03 -0.10738807463E+03  0.13829270610E+03  0.26357466519E+03  0.12500000000E+03 0.  0.
         25    1    1    2    0    0  0.35802798704E+02  0.11302005895E+03  0.38417910476E+03  0.42103914147E+03  0.12500000000E+03 0.  0.
         25    1    1    2    0    0  0.11647829991E+03 -0.56319843221E+01  0.91195297162E+02  0.19375369886E+03  0.12500000000E+03 0.  0.
</event>
<event>
 5    0  0.5597833E-005  0.3091998E+03  0.7546771E-02  0.1080730E+00
         21   -1    0    0  502  501  0.00000000000E+00  0.00000000000E+00  0.96715195157E+02  0.96715195157E+02  0.00000000000E+00 0. -1.
         21   -1    0    0  501  502 -0.00000000000E+00 -0.00000000000E+00 -0.98851625434E+03  0.98851625434E+03  0.00000000000E+00 0. -1.
         25    1    1    2    0    0 -0.14291746281E+03 -0.10742017515E+03 -0.23151205563E+03  0.31809955534E+03  0.12500000000E+03 0.  0.
         25    1    1    2    0    0  0.56077209108E+02 -0.45226096567E+02 -0.42115390568E+03  0.44518048639E+03  0.12500000000E+03 0.  0.
         25    1    1    2    0    0  0.86840253699E+02  0.15264627171E+03 -0.23913509787E+03  0.32195140777E+03  0.12500000000E+03 0.  0.
</event>
<event>
 5    0  0.5597833E-005  0.3009115E+03  0.7546771E-02  0.1084786E+00
         21   -1    0    0  502  501  0.00000000000E+00  0.00000000000E+00  0.22503158559E+04  0.22503158559E+04  0.00000000000E+00 0.  1.
         21   -1    0    0  501  502 -0.00000000000E+00 -0.00000000000E+00 -0.40237779667E+02  0.40237779667E+02  0.00000000000E+00 0.  1.
         25    1    1    2    0    0 -0.49546137547E+02  0.29735775079E+02  0.55604318156E+03  0.57284208629E+03  0.12500000000E+03 0.  0.
         25    1    1    2    0    0  0.10966681910E+03 -0.12084922913E+03  0.13950727135E+04  0.14101362429E+04  0.12500000000E+03 0.  0.
         25    1    1    2    0    0 -0.60120681553E+02  0.91113454048E+02  0.25896218118E+03  0.30757530646E+03  0.12500000000E+03 0.  0.
</event>
<event>
 5    0  0.5597833E-005  0.3882633E+03  0.7546771E-02  0.1047921E+00
         21   -1    0    0  502  501  0.00000000000E+00  0.00000000000E+00  0.84099746628E+03  0.84099746628E+03  0.00000000000E+00 0.  1.
         21   -1    0    0  501  502 -0.00000000000E+00 -0.00000000000E+00 -0.17924956337E+03  0.17924956337E+03  0.00000000000E+00 0.  1.
         25    1    1    2    0    0 -0.52752226349E+01 -0.43506209419E+02  0.63949142865E+02  0.14708878647E+03  0.12500000000E+03 0.  0.
         25    1    1    2    0    0 -0.13051690159E+03  0.28194969177E+03  0.31301766732E+03  0.45840522504E+03  0.12500000000E+03 0.  0.
         25    1    1    2    0    0  0.13579212423E+03 -0.23844348235E+03  0.28478109273E+03  0.41475301814E+03  0.12500000000E+03 0.  0.
</event>
<event>
 5    0  0.5597833E-005  0.3286476E+03  0.7546771E-02  0.1071737E+00
         21   -1    0    0  502  501  0.00000000000E+00  0.00000000000E+00  0.11071534815E+03  0.11071534815E+03  0.00000000000E+00 0.  1.
         21   -1    0    0  501  502 -0.00000000000E+00 -0.00000000000E+00 -0.97555820337E+03  0.97555820337E+03  0.00000000000E+00 0.  1.
         25    1    1    2    0    0  0.74128816404E+01  0.13574141745E+03 -0.63980978250E+03  0.66592960664E+03  0.12500000000E+03 0.  0.
         25    1    1    2    0    0  0.69117696650E+01 -0.14190823020E+03 -0.22548906666E+03  0.29437397565E+03  0.12500000000E+03 0.  0.
         25    1    1    2    0    0 -0.14324651305E+02  0.61668127471E+01  0.45599393547E+00  0.12596996922E+03  0.12500000000E+03 0.  0.
</event>
<event>
 5    0  0.5597833E-005  0.3286451E+03  0.7546771E-02  0.1071738E+00
         21   -1    0    0  502  501  0.00000000000E+00  0.00000000000E+00  0.19764350522E+03  0.19764350522E+03  0.00000000000E+00 0. -1.
         21   -1    0    0  501  502 -0.00000000000E+00 -0.00000000000E+00 -0.54647685120E+03  0.54647685120E+03  0.00000000000E+00 0. -1.
         25    1    1    2    0    0 -0.10187227233E+03 -0.86772339526E+02 -0.27066088003E+02  0.18510800063E+03  0.12500000000E+03 0.  0.
         25    1    1    2    0    0 -0.10625502745E+03 -0.52652749725E+02 -0.83907635750E+02  0.19164533453E+03  0.12500000000E+03 0.  0.
         25    1    1    2    0    0  0.20812729978E+03  0.13942508925E+03 -0.23785962223E+03  0.36736702126E+03  0.12500000000E+03 0.  0.
</event>
<event>
 5    0  0.5597833E-005  0.2188294E+03  0.7546771E-02  0.1134759E+00
         21   -1    0    0  502  501  0.00000000000E+00  0.00000000000E+00  0.78617869111E+03  0.78617869111E+03  0.00000000000E+00 0.  1.
         21   -1    0    0  501  502 -0.00000000000E+00 -0.00000000000E+00 -0.60910220745E+02  0.60910220745E+02  0.00000000000E+00 0.  1.
         25    1    1    2    0    0  0.59505696276E+02  0.37055578932E+02  0.28754634467E+03  0.32128172085E+03  0.12500000000E+03 0.  0.
         25    1    1    2    0    0 -0.60154918731E+02 -0.63730946127E+02  0.30765878183E+03  0.34345185075E+03  0.12500000000E+03 0.  0.
         25    1    1    2    0    0  0.64922245531E+00  0.26675367195E+02  0.13006334387E+03  0.18235534026E+03  0.12500000000E+03 0.  0.
</event>
<event>
 5    0  0.5597833E-005  0.3701214E+03  0.7546771E-02  0.1054647E+00
         21   -1    0    0  502  501  0.00000000000E+00  0.00000000000E+00  0.10023233960E+04  0.10023233960E+04  0.00000000000E+00 0.  1.
         21   -1    0    0  501  502 -0.00000000000E+00 -0.00000000000E+00 -0.13667230936E+03  0.13667230936E+03  0.00000000000E+00 0.  1.
         25    1    1    2    0    0 -0.23787855617E+03  0.14248751774E+02  0.66130310559E+03  0.71395800428E+03  0.12500000000E+03 0.  0.
         25    1    1    2    0    0  0.42783158932E+02 -0.29649045952E+02  0.42256949470E+02  0.14184538904E+03  0.12500000000E+03 0.  0.
         25    1    1    2    0    0  0.19509539724E+03  0.15400294178E+02  0.16209103159E+03  0.28319231205E+03  0.12500000000E+03 0.  0.
</event>
<event>
 5    0  0.5597833E-005  0.4257463E+03  0.7546771E-02  0.1035212E+00
         21   -1    0    0  502  501  0.00000000000E+00  0.00000000000E+00  0.36467358787E+03  0.36467358787E+03  0.00000000000E+00 0. -1.
         21   -1    0    0  501  502 -0.00000000000E+00 -0.00000000000E+00 -0.49704699944E+03  0.49704699944E+03  0.00000000000E+00 0. -1.
         25    1    1    2    0    0 -0.54916618459E+02 -0.36305911243E+01 -0.25437677323E+02  0.13892836860E+03  0.12500000000E+03 0.  0.
         25    1    1    2    0    0 -0.19711156519E+03 -0.53135232829E+02 -0.29482306728E+03  0.37976566867E+03  0.12500000000E+03 0.  0.
         25    1    1    2    0    0  0.25202818365E+03  0.56765823953E+02  0.18788733303E+03  0.34302655004E+03  0.12500000000E+03 0.  0.
</event>
<event>
 5    0  0.5597833E-005  0.3282893E+03  0.7546771E-02  0.1071896E+00
         21   -1    0    0  502  501  0.00000000000E+00  0.00000000000E+00  0.16445230941E+03  0.16445230941E+03  0.00000000000E+00 0.  1.
         21   -1    0    0  501  502 -0.00000000000E+00 -0.00000000000E+00 -0.65535027028E+03  0.65535027028E+03  0.00000000000E+00 0.  1.
         25    1    1    2    0    0  0.68971052852E+02  0.69365670460E+02 -0.17475173621E+02  0.15968401317E+03  0.12500000000E+03 0.  0.
         25    1    1    2    0    0 -0.15940312821E+02 -0.58762764452E+02 -0.50204806819E+03  0.52094569663E+03  0.12500000000E+03 0.  0.
         25    1    1    2    0    0 -0.53030740032E+02 -0.10602906008E+02  0.28625280938E+02  0.13917286989E+03  0.12500000000E+03 0.  0.
</event>
<event>
 5    0  0.6632732E-005  0.2645664E+03  0.7546771E-02  0.1104430E+00
         21   -1    0    0  502  501  0.00000000000E+00  0.00000000000E+00  0.11128436609E+03  0.11128436609E+03  0.00000000000E+00 0.  1.
         21   -1    0    0  501  502 -0.00000000000E+00 -0.00000000000E+00 -0.62897756522E+03  0.62897756522E+03  0.00000000000E+00 0.  1.
         25    1    1    2    0    0 -0.83527638568E+02  0.12938643959E+02 -0.20623708150E+03  0.25554453369E+03  0.12500000000E+03 0.  0.
         25    1    1    2    0    0  0.40999624514E+02 -0.33928714554E+02  0.10343764623E+02  0.13625021229E+03  0.12500000000E+03 0.  0.
         25    1    1    2    0    0  0.42528014054E+02  0.20990070595E+02 -0.32179988225E+03  0.34846718534E+03  0.12500000000E+03 0.  0.
</event>
<event>
 5    0  0.6493128E-005  0.3206437E+03  0.7546771E-02  0.1075353E+00
         21   -1    0    0  502  501  0.00000000000E+00  0.00000000000E+00  0.14153103333E+03  0.14153103333E+03  0.00000000000E+00 0. -1.
         21   -1    0    0  501  502 -0.00000000000E+00 -0.00000000000E+00 -0.72642986342E+03  0.72642986342E+03  0.00000000000E+00 0. -1.
         25    1    1    2    0    0 -0.99108172284E+02 -0.14390640672E+03 -0.15708850488E+03  0.26614522741E+03  0.12500000000E+03 0.  0.
         25    1    1    2    0    0  0.54075630634E+02  0.52218566530E+02 -0.13981644033E+01  0.14586948750E+03  0.12500000000E+03 0.  0.
         25    1    1    2    0    0  0.45032541650E+02  0.91687840195E+02 -0.42641216081E+03  0.45594618184E+03  0.12500000000E+03 0.  0.
</event>
<event>
 5    0  0.5597833E-005  0.2535204E+03  0.7546771E-02  0.1111100E+00
         21   -1    0    0  502  501  0.00000000000E+00  0.00000000000E+00  0.21177604088E+03  0.21177604088E+03  0.00000000000E+00 0.  1.
         21   -1    0    0  501  502 -0.00000000000E+00 -0.00000000000E+00 -0.30349324105E+03  0.30349324105E+03  0.00000000000E+00 0.  1.
         25    1    1    2    0    0 -0.82195356870E+02 -0.24799671160E+02  0.88528708115E+02  0.17559451171E+03  0.12500000000E+03 0.  0.
         25    1    1    2    0    0  0.34612985951E+01  0.44733416193E+02 -0.11966224141E+03  0.17876551997E+03  0.12500000000E+03 0.  0.
         25    1    1    2    0    0  0.78734058275E+02 -0.19933745034E+02 -0.60583666881E+02  0.16090925025E+03  0.12500000000E+03 0.  0.
</event>
<event>
 5    0  0.5597833E-005  0.2304857E+03  0.7546771E-02  0.1126298E+00
         21   -1    0    0  502  501  0.00000000000E+00  0.00000000000E+00  0.20510098908E+03  0.20510098908E+03  0.00000000000E+00 0.  1.
         21   -1    0    0  501  502 -0.00000000000E+00 -0.00000000000E+00 -0.25901215195E+03  0.25901215195E+03  0.00000000000E+00 0.  1.
         25    1    1    2    0    0  0.35655943649E+02 -0.34530048961E+01  0.19891325093E+02  0.13154441978E+03  0.12500000000E+03 0.  0.
         25    1    1    2    0    0 -0.41823628986E+02  0.96981741792E+02 -0.65001223714E+02  0.17608189364E+03  0.12500000000E+03 0.  0.
         25    1    1    2    0    0  0.61676853373E+01 -0.93528736896E+02 -0.88012642495E+01  0.15648682763E+03  0.12500000000E+03 0.  0.
</event>
<event>
 5    0  0.5597833E-005  0.2200077E+03  0.7546771E-02  0.1133877E+00
         21   -1    0    0  502  501  0.00000000000E+00  0.00000000000E+00  0.16029478419E+03  0.16029478419E+03  0.00000000000E+00 0. -1.
         21   -1    0    0  501  502 -0.00000000000E+00 -0.00000000000E+00 -0.30196491278E+03  0.30196491278E+03  0.00000000000E+00 0. -1.
         25    1    1    2    0    0 -0.19654306256E+01 -0.17495396143E+01 -0.84300434119E+02  0.15079286123E+03  0.12500000000E+03 0.  0.
         25    1    1    2    0    0 -0.10115527205E+01 -0.24757461417E+02 -0.11463877524E+03  0.17140887936E+03  0.12500000000E+03 0.  0.
         25    1    1    2    0    0  0.29769833461E+01  0.26507001031E+02  0.57269080766E+02  0.14005795638E+03  0.12500000000E+03 0.  0.
</event>
<event>
 5    0  0.5597833E-005  0.2320588E+03  0.7546771E-02  0.1125199E+00
         21   -1    0    0  502  501  0.00000000000E+00  0.00000000000E+00  0.33612226424E+02  0.33612226424E+02  0.00000000000E+00 0. -1.
         21   -1    0    0  501  502 -0.00000000000E+00 -0.00000000000E+00 -0.16021342892E+04  0.16021342892E+04  0.00000000000E+00 0. -1.
         25    1    1    2    0    0  0.14534682873E+02 -0.99330251513E+02 -0.84450987964E+03  0.85959274816E+03  0.12500000000E+03 0.  0.
         25    1    1    2    0    0 -0.41987464901E+02  0.35358716570E+02 -0.34415608227E+03  0.37024531734E+03  0.12500000000E+03 0.  0.
         25    1    1    2    0    0  0.27452782028E+02  0.63971534943E+02 -0.37985610087E+03  0.40590845014E+03  0.12500000000E+03 0.  0.
</event>
<event>
 5    0  0.5597833E-005  0.4038938E+03  0.7546771E-02  0.1042440E+00
         21   -1    0    0  502  501  0.00000000000E+00  0.00000000000E+00  0.10395141430E+04  0.10395141430E+04  0.00000000000E+00 0. -1.
         21   -1    0    0  501  502 -0.00000000000E+00 -0.00000000000E+00 -0.15692927942E+03  0.15692927942E+03  0.00000000000E+00 0. -1.
         25    1    1    2    0    0  0.29888908459E+02  0.43256623125E+02 -0.12263159619E+02  0.13616118161E+03  0.12500000000E+03 0.  0.
         25    1    1    2    0    0  0.24651037164E+02 -0.51717426516E+02 -0.16731702612E+02  0.13851828656E+03  0.12500000000E+03 0.  0.
         25    1    1    2    0    0 -0.54539945622E+02  0.84608033908E+01  0.91157972582E+03  0.92176395427E+03  0.12500000000E+03 0.  0.
</event>
<event>
 5    0  0.5597833E-005  0.4578678E+03  0.7546771E-02  0.1025401E+00
         21   -1    0    0  502  501  0.00000000000E+00  0.00000000000E+00  0.15612927060E+03  0.15612927060E+03  0.00000000000E+00 0.  1.
         21   -1    0    0  501  502 -0.00000000000E+00 -0.00000000000E+00 -0.13427523856E+04  0.13427523856E+04  0.00000000000E+00 0.  1.
         25    1    1    2    0    0  0.27637761493E+03 -0.27447980596E+03 -0.44123863761E+03  0.60169783550E+03  0.12500000000E+03 0.  0.
         25    1    1    2    0    0 -0.21920105940E+03  0.22122670683E+03 -0.61398928454E+03  0.69971294242E+03  0.12500000000E+03 0.  0.
         25    1    1    2    0    0 -0.57176555525E+02  0.53253099130E+02 -0.13139519286E+03  0.19747087830E+03  0.12500000000E+03 0.  0.
</event>
<event>
 5    0  0.5597833E-005  0.2892043E+03  0.7546771E-02  0.1090765E+00
         21   -1    0    0  502  501  0.00000000000E+00  0.00000000000E+00  0.18979638843E+04  0.18979638843E+04  0.00000000000E+00 0.  1.
         21   -1    0    0  501  502 -0.00000000000E+00 -0.00000000000E+00 -0.44067809175E+02  0.44067809175E+02  0.00000000000E+00 0.  1.
         25    1    1    2    0    0  0.50861315245E+01 -0.15942075685E+03  0.45219908695E+03  0.49552987870E+03  0.12500000000E+03 0.  0.
         25    1    1    2    0    0  0.22440750356E+02  0.39806981939E+02  0.99246440503E+03  0.10013484800E+04  0.12500000000E+03 0.  0.
         25    1    1    2    0    0 -0.27526881881E+02  0.11961377491E+03  0.40923258311E+03  0.44515333477E+03  0.12500000000E+03 0.  0.
</event>
<event>
 5    0  0.5597833E-005  0.4446609E+03  0.7546771E-02  0.1029326E+00
         21   -1    0    0  502  501  0.00000000000E+00  0.00000000000E+00  0.74965022380E+02  0.74965022380E+02  0.00000000000E+00 0.  1.
         21   -1    0    0  501  502 -0.00000000000E+00 -0.00000000000E+00 -0.26375405921E+04  0.26375405921E+04  0.00000000000E+00 0.  1.
         25    1    1    2    0    0  0.15353741116E+02 -0.80988200312E+02 -0.32861771792E+02  0.15329619043E+03  0.12500000000E+03 0.  0.
         25    1    1    2    0    0 -0.13757938985E+03  0.35456350344E+00 -0.15181315119E+04  0.15294693530E+04  0.12500000000E+03 0.  0.
         25    1    1    2    0    0  0.12222564873E+03  0.80633636809E+02 -0.10115822860E+04  0.10297400711E+04  0.12500000000E+03 0.  0.
</event>
<event>
 5    0  0.5597833E-005  0.2422152E+03  0.7546771E-02  0.1118326E+00
         21   -1    0    0  502  501  0.00000000000E+00  0.00000000000E+00  0.30738065803E+02  0.30738065803E+02  0.00000000000E+00 0. -1.
         21   -1    0    0  501  502 -0.00000000000E+00 -0.00000000000E+00 -0.19086492682E+04  0.19086492682E+04  0.00000000000E+00 0. -1.
         25    1    1    2    0    0  0.11021177224E+03  0.77294013758E+02 -0.72671592197E+03  0.74957456637E+03  0.12500000000E+03 0.  0.
         25    1    1    2    0    0 -0.74117183520E+01 -0.54819606929E+02 -0.56148553174E+03  0.57788504499E+03  0.12500000000E+03 0.  0.
         25    1    1    2    0    0 -0.10280005389E+03 -0.22474406828E+02 -0.58970974867E+03  0.61192772263E+03  0.12500000000E+03 0.  0.
</event>
<event>
 5    0  0.5597833E-005  0.4526609E+03  0.7546771E-02  0.1026931E+00
         21   -1    0    0  502  501  0.00000000000E+00  0.00000000000E+00  0.26634338751E+04  0.26634338751E+04  0.00000000000E+00 0.  1.
         21   -1    0    0  501  502 -0.00000000000E+00 -0.00000000000E+00 -0.76931478317E+02  0.76931478317E+02  0.00000000000E+00 0.  1.
         25    1    1    2    0    0  0.19093448498E+03  0.48009305758E+02  0.12525315341E+04  0.12740569512E+04  0.12500000000E+03 0.  0.
         25    1    1    2    0    0 -0.27187463367E+03 -0.10871845560E+03  0.36610647612E+03  0.48517468079E+03  0.12500000000E+03 0.  0.
         25    1    1    2    0    0  0.80940148685E+02  0.60709149844E+02  0.96786438649E+03  0.98113372136E+03  0.12500000000E+03 0.  0.
</event>
<event>
 5    0  0.5597833E-005  0.6242342E+03  0.7546771E-02  0.9856365E-01
         21   -1    0    0  502  501  0.00000000000E+00  0.00000000000E+00  0.19857811473E+04  0.19857811473E+04  0.00000000000E+00 0. -1.
         21   -1    0    0  501  502 -0.00000000000E+00 -0.00000000000E+00 -0.19622922273E+03  0.19622922273E+03  0.00000000000E+00 0. -1.
         25    1    1    2    0    0  0.15239166975E+03  0.47566187269E+02 -0.11738441208E+03  0.23428585826E+03  0.12500000000E+03 0.  0.
         25    1    1    2    0    0 -0.24056232893E+02  0.76341294104E+02  0.11667070125E+04  0.11761109423E+04  0.12500000000E+03 0.  0.
         25    1    1    2    0    0 -0.12833543685E+03 -0.12390748137E+03  0.74022932412E+03  0.77161356946E+03  0.12500000000E+03 0.  0.
</event>
<event>
 5    0  0.5597833E-005  0.2724404E+03  0.7546771E-02  0.1099891E+00
         21   -1    0    0  502  501  0.00000000000E+00  0.00000000000E+00  0.19513815369E+03  0.19513815369E+03  0.00000000000E+00 0. -1.
         21   -1    0    0  501  502 -0.00000000000E+00 -0.00000000000E+00 -0.38036529926E+03  0.38036529926E+03  0.00000000000E+00 0. -1.
         25    1    1    2    0    0  0.27225967357E+02 -0.54114863595E+02  0.80686765778E+02  0.16063942832E+03  0.12500000000E+03 0.  0.
         25    1    1    2    0    0 -0.88503364817E+02 -0.29575569069E+02 -0.12817473970E+03  0.20189433813E+03  0.12500000000E+03 0.  0.
         25    1    1    2    0    0  0.61277397460E+02  0.83690432664E+02 -0.13773917165E+03  0.21296968650E+03  0.12500000000E+03 0.  0.
</event>
<event>
 5    0  0.5597833E-005  0.2403982E+03  0.7546771E-02  0.1119528E+00
         21   -1    0    0  502  501  0.00000000000E+00  0.00000000000E+00  0.49713561896E+03  0.49713561896E+03  0.00000000000E+00 0.  1.
         21   -1    0    0  501  502 -0.00000000000E+00 -0.00000000000E+00 -0.11624852628E+03  0.11624852628E+03  0.00000000000E+00 0.  1.
         25    1    1    2    0    0  0.58118530229E+02  0.82007004624E+01  0.19738225321E+02  0.13949771533E+03  0.12500000000E+03 0.  0.
         25    1    1    2    0    0 -0.10801798037E+03 -0.26838635568E+02  0.16302206805E+03  0.23364372688E+03  0.12500000000E+03 0.  0.
         25    1    1    2    0    0  0.49899450137E+02  0.18637935106E+02  0.19812679932E+03  0.24024270303E+03  0.12500000000E+03 0.  0.
</event>
<event>
 5    0  0.5597833E-005  0.3807836E+03  0.7546771E-02  0.1050645E+00
         21   -1    0    0  502  501  0.00000000000E+00  0.00000000000E+00  0.18506371338E+03  0.18506371338E+03  0.00000000000E+00 0. -1.
         21   -1    0    0  501  502 -0.00000000000E+00 -0.00000000000E+00 -0.78349297946E+03  0.78349297946E+03  0.00000000000E+00 0. -1.
         25    1    1    2    0    0 -0.21146901595E+01  0.22270399361E+03 -0.20718272254E+03  0.32886352976E+03  0.12500000000E+03 0.  0.
         25    1    1    2    0    0 -0.18384514748E+03 -0.63427503705E+02 -0.17931479080E+03  0.29257628181E+03  0.12500000000E+03 0.  0.
         25    1    1    2    0    0  0.18595983764E+03 -0.15927648990E+03 -0.21193175273E+03  0.34711688128E+03  0.12500000000E+03 0.  0.
</event>
<event>
 5    0  0.5597833E-005  0.2603998E+03  0.7546771E-02  0.1106903E+00
         21   -1    0    0  502  501  0.00000000000E+00  0.00000000000E+00  0.43216007554E+03  0.43216007554E+03  0.00000000000E+00 0. -1.
         21   -1    0    0  501  502 -0.00000000000E+00 -0.00000000000E+00 -0.15690498942E+03  0.15690498942E+03  0.00000000000E+00 0. -1.
         25    1    1    2    0    0 -0.14651289483E+02 -0.18427335109E+02  0.10620395846E+03  0.16570608847E+03  0.12500000000E+03 0.  0.
         25    1    1    2    0    0  0.32826384420E+02 -0.12330361864E+03  0.15702681215E+02  0.17931237570E+03  0.12500000000E+03 0.  0.
         25    1    1    2    0    0 -0.18175094936E+02  0.14173095375E+03  0.15334844644E+03  0.24404660078E+03  0.12500000000E+03 0.  0.
</event>
<event>
 5    0  0.5597833E-005  0.2694846E+03  0.7546771E-02  0.1101575E+00
         21   -1    0    0  502  501  0.00000000000E+00  0.00000000000E+00  0.36984341145E+03  0.36984341145E+03  0.00000000000E+00 0. -1.
         21   -1    0    0  501  502 -0.00000000000E+00 -0.00000000000E+00 -0.19635869951E+03  0.19635869951E+03  0.00000000000E+00 0. -1.
         25    1    1    2    0    0 -0.10231715215E+00  0.19121076081E+02 -0.11144150836E+03  0.16855217532E+03  0.12500000000E+03 0.  0.
         25    1    1    2    0    0  0.42472119821E+02  0.31789294814E+02  0.13348398026E+03  0.19041379470E+03  0.12500000000E+03 0.  0.
         25    1    1    2    0    0 -0.42369802669E+02 -0.50910370895E+02  0.15144224004E+03  0.20723614094E+03  0.12500000000E+03 0.  0.
</event>
<event>
 5    0  0.5597833E-005  0.2620675E+03  0.7546771E-02  0.1105907E+00
         21   -1    0    0  502  501  0.00000000000E+00  0.00000000000E+00  0.95163514706E+03  0.95163514706E+03  0.00000000000E+00 0.  1.
         21   -1    0    0  501  502 -0.00000000000E+00 -0.00000000000E+00 -0.72169883040E+02  0.72169883040E+02  0.00000000000E+00 0.  1.
         25    1    1    2    0    0  0.88524928080E+02 -0.41163249280E+02  0.50031089274E+03  0.52484956452E+03  0.12500000000E+03 0.  0.
         25    1    1    2    0    0 -0.95091726183E+02 -0.51318634819E+02  0.23156897369E+03  0.28447359850E+03  0.12500000000E+03 0.  0.
         25    1    1    2    0    0  0.65667981031E+01  0.92481884100E+02  0.14758539759E+03  0.21448186708E+03  0.12500000000E+03 0.  0.
</event>
<event>
 5    0  0.5597833E-005  0.3342533E+03  0.7546771E-02  0.1069270E+00
         21   -1    0    0  502  501  0.00000000000E+00  0.00000000000E+00  0.30191339918E+03  0.30191339918E+03  0.00000000000E+00 0. -1.
         21   -1    0    0  501  502 -0.00000000000E+00 -0.00000000000E+00 -0.37005730107E+03  0.37005730107E+03  0.00000000000E+00 0. -1.
         25    1    1    2    0    0  0.38833491063E+02 -0.46166326249E+02 -0.37003267466E+02  0.14364404447E+03  0.12500000000E+03 0.  0.
         25    1    1    2    0    0  0.13786236456E+03 -0.13864800629E+03 -0.66808511121E+02  0.24149053474E+03  0.12500000000E+03 0.  0.
         25    1    1    2    0    0 -0.17669585563E+03  0.18481433254E+03  0.35667876697E+02  0.28683612104E+03  0.12500000000E+03 0.  0.
</event>
<event>
 5    0  0.5597833E-005  0.2921922E+03  0.7546771E-02  0.1089210E+00
         21   -1    0    0  502  501  0.00000000000E+00  0.00000000000E+00  0.19373791370E+03  0.19373791370E+03  0.00000000000E+00 0. -1.
         21   -1    0    0  501  502 -0.00000000000E+00 -0.00000000000E+00 -0.44067923593E+03  0.44067923593E+03  0.00000000000E+00 0. -1.
         25    1    1    2    0    0  0.11235008828E+03  0.58086056486E+02  0.47835735569E+02  0.18414611017E+03  0.12500000000E+03 0.  0.
         25    1    1    2    0    0 -0.75520506588E+02  0.93355396464E+01 -0.32746611541E+02  0.14995946047E+03  0.12500000000E+03 0.  0.
         25    1    1    2    0    0 -0.36829581692E+02 -0.67421596133E+02 -0.26203044625E+03  0.30031157899E+03  0.12500000000E+03 0.  0.
</event>
<event>
 5    0  0.5597833E-005  0.2753098E+03  0.7546771E-02  0.1098279E+00
         21   -1    0    0  502  501  0.00000000000E+00  0.00000000000E+00  0.25494786912E+03  0.25494786912E+03  0.00000000000E+00 0. -1.
         21   -1    0    0  501  502 -0.00000000000E+00 -0.00000000000E+00 -0.29729804735E+03  0.29729804735E+03  0.00000000000E+00 0. -1.
         25    1    1    2    0    0  0.64957041876E+02  0.11061781169E+03 -0.56428707175E+02  0.18778955388E+03  0.12500000000E+03 0.  0.
         25    1    1    2    0    0  0.30923071198E+02  0.14889228749E+02  0.80236666576E+02  0.15244949370E+03  0.12500000000E+03 0.  0.
         25    1    1    2    0    0 -0.95880113074E+02 -0.12550704044E+03 -0.66158137635E+02  0.21200686889E+03  0.12500000000E+03 0.  0.
</event>
<event>
 5    0  0.5597833E-005  0.2431029E+03  0.7546771E-02  0.1117743E+00
         21   -1    0    0  502  501  0.00000000000E+00  0.00000000000E+00  0.34727908956E+02  0.34727908956E+02  0.00000000000E+00 0. -1.
         21   -1    0    0  501  502 -0.00000000000E+00 -0.00000000000E+00 -0.17017730716E+04  0.17017730716E+04  0.00000000000E+00 0. -1.
         25    1    1    2    0    0  0.23759687841E+02 -0.12168085007E+02 -0.38237557610E+03  0.40317324596E+03  0.12500000000E+03 0.  0.
         25    1    1    2    0    0 -0.49676848391E+02 -0.88620266879E+02 -0.35905423564E+03  0.39353053897E+03  0.12500000000E+03 0.  0.
         25    1    1    2    0    0  0.25917160550E+02  0.10078835189E+03 -0.92561535088E+03  0.93979719560E+03  0.12500000000E+03 0.  0.
</event>
<event>
 5    0  0.5597833E-005  0.3020553E+03  0.7546771E-02  0.1084218E+00
         21   -1    0    0  502  501  0.00000000000E+00  0.00000000000E+00  0.18142271200E+04  0.18142271200E+04  0.00000000000E+00 0.  1.
         21   -1    0    0  501  502 -0.00000000000E+00 -0.00000000000E+00 -0.50289955483E+02  0.50289955483E+02  0.00000000000E+00 0.  1.
         25    1    1    2    0    0 -0.17818909091E+03 -0.13237398340E+02  0.11680682989E+04  0.11882487668E+04  0.12500000000E+03 0.  0.
         25    1    1    2    0    0  0.11370717790E+03 -0.11479114278E+01  0.24163602058E+03  0.29486201256E+03  0.12500000000E+03 0.  0.
         25    1    1    2    0    0  0.64481913007E+02  0.14385309767E+02  0.35423284498E+03  0.38140629610E+03  0.12500000000E+03 0.  0.
</event>
<event>
 5    0  0.5597833E-005  0.3495994E+03  0.7546771E-02  0.1062780E+00
         21   -1    0    0  502  501  0.00000000000E+00  0.00000000000E+00  0.16698800306E+03  0.16698800306E+03  0.00000000000E+00 0.  1.
         21   -1    0    0  501  502 -0.00000000000E+00 -0.00000000000E+00 -0.73190718117E+03  0.73190718117E+03  0.00000000000E+00 0.  1.
         25    1    1    2    0    0 -0.43954412661E+02  0.13651099372E+03 -0.53058169862E+03  0.56365697078E+03  0.12500000000E+03 0.  0.
         25    1    1    2    0    0  0.33540345673E+02 -0.13713271988E+03  0.35199391691E+02  0.19181849448E+03  0.12500000000E+03 0.  0.
         25    1    1    2    0    0  0.10414066988E+02  0.62172616034E+00 -0.69536871179E+02  0.14341971897E+03  0.12500000000E+03 0.  0.
</event>
<event>
 5    0  0.5597833E-005  0.2159659E+03  0.7546771E-02  0.1136927E+00
         21   -1    0    0  502  501  0.00000000000E+00  0.00000000000E+00  0.10449225653E+03  0.10449225653E+03  0.00000000000E+00 0. -1.
         21   -1    0    0  501  502 -0.00000000000E+00 -0.00000000000E+00 -0.44636113893E+03  0.44636113893E+03  0.00000000000E+00 0. -1.
         25    1    1    2    0    0 -0.29149738955E+02 -0.50421842376E+02 -0.86890175784E+02  0.16299377938E+03  0.12500000000E+03 0.  0.
         25    1    1    2    0    0  0.28259358797E+02  0.20938759944E+02 -0.37279984692E+02  0.13509929787E+03  0.12500000000E+03 0.  0.
         25    1    1    2    0    0  0.89038015838E+00  0.29483082432E+02 -0.21769872193E+03  0.25276031820E+03  0.12500000000E+03 0.  0.
</event>
<event>
 5    0  0.5597833E-005  0.4960394E+03  0.7546771E-02  0.1014818E+00
         21   -1    0    0  502  501  0.00000000000E+00  0.00000000000E+00  0.29782293316E+03  0.29782293316E+03  0.00000000000E+00 0. -1.
         21   -1    0    0  501  502 -0.00000000000E+00 -0.00000000000E+00 -0.82617898644E+03  0.82617898644E+03  0.00000000000E+00 0. -1.
         25    1    1    2    0    0 -0.10522151582E+02  0.21911918819E+03 -0.46464958323E+02  0.25672539153E+03  0.12500000000E+03 0.  0.
         25    1    1    2    0    0 -0.19870314733E+03 -0.36625036803E+03 -0.26504311435E+03  0.50940664042E+03  0.12500000000E+03 0.  0.
         25    1    1    2    0    0  0.20922529891E+03  0.14713117984E+03 -0.21684798061E+03  0.35786988764E+03  0.12500000000E+03 0.  0.
</event>
<event>
 5    0  0.5597833E-005  0.3608656E+03  0.7546771E-02  0.1058242E+00
         21   -1    0    0  502  501  0.00000000000E+00  0.00000000000E+00  0.15233027402E+03  0.15233027402E+03  0.00000000000E+00 0.  1.
         21   -1    0    0  501  502 -0.00000000000E+00 -0.00000000000E+00 -0.85487922677E+03  0.85487922677E+03  0.00000000000E+00 0.  1.
         25    1    1    2    0    0  0.64852237721E+01 -0.91995314066E+02 -0.45016975883E+03  0.47621739542E+03  0.12500000000E+03 0.  0.
         25    1    1    2    0    0 -0.10285330862E+03  0.10265907240E+03 -0.30844663369E+03  0.36315563340E+03  0.12500000000E+03 0.  0.
         25    1    1    2    0    0  0.96368084848E+02 -0.10663758333E+02  0.56067439768E+02  0.16783647196E+03  0.12500000000E+03 0.  0.
</event>
<event>
 5    0  0.5597833E-005  0.4101337E+03  0.7546771E-02  0.1040326E+00
         21   -1    0    0  502  501  0.00000000000E+00  0.00000000000E+00  0.39047945553E+03  0.39047945553E+03  0.00000000000E+00 0.  1.
         21   -1    0    0  501  502 -0.00000000000E+00 -0.00000000000E+00 -0.43077725513E+03  0.43077725513E+03  0.00000000000E+00 0.  1.
         25    1    1    2    0    0  0.26202934828E+02  0.13324732778E+03 -0.11239595991E+03  0.21610019889E+03  0.12500000000E+03 0.  0.
         25    1    1    2    0    0 -0.93434756032E+02  0.76929837584E+02  0.24333981404E+03  0.29914464502E+03  0.12500000000E+03 0.  0.
         25    1    1    2    0    0  0.67231821205E+02 -0.21017716537E+03 -0.17124165373E+03  0.30601186676E+03  0.12500000000E+03 0.  0.
</event>
<event>
 5    0  0.5597833E-005  0.2470076E+03  0.7546771E-02  0.1115211E+00
         21   -1    0    0  502  501  0.00000000000E+00  0.00000000000E+00  0.60992322206E+02  0.60992322206E+02  0.00000000000E+00 0.  1.
         21   -1    0    0  501  502 -0.00000000000E+00 -0.00000000000E+00 -0.10003347863E+04  0.10003347863E+04  0.00000000000E+00 0.  1.
         25    1    1    2    0    0  0.59232020398E+02  0.23457655508E+02 -0.31454040234E+03  0.34441161210E+03  0.12500000000E+03 0.  0.
         25    1    1    2    0    0  0.77178554821E+02 -0.48804211470E+02 -0.36937064395E+03  0.40049725716E+03  0.12500000000E+03 0.  0.
         25    1    1    2    0    0 -0.13641057522E+03  0.25346555962E+02 -0.25543141783E+03  0.31641823927E+03  0.12500000000E+03 0.  0.
</event>
<event>
 5    0  0.5597833E-005  0.3704720E+03  0.7546771E-02  0.1054513E+00
         21   -1    0    0  502  501  0.00000000000E+00  0.00000000000E+00  0.11895577960E+04  0.11895577960E+04  0.00000000000E+00 0. -1.
         21   -1    0    0  501  502 -0.00000000000E+00 -0.00000000000E+00 -0.11537856831E+03  0.11537856831E+03  0.00000000000E+00 0. -1.
         25    1    1    2    0    0  0.50280647688E+02 -0.23026602127E+02  0.22824042126E+03  0.26603957945E+03  0.12500000000E+03 0.  0.
         25    1    1    2    0    0  0.13666752066E+03 -0.20307277198E+02  0.77801134440E+03  0.80001065538E+03  0.12500000000E+03 0.  0.
         25    1    1    2    0    0 -0.18694816835E+03  0.43333879325E+02  0.67927461994E+02  0.23888612944E+03  0.12500000000E+03 0.  0.
</event>
<event>
 5    0  0.5597833E-005  0.4147289E+03  0.7546771E-02  0.1038796E+00
         21   -1    0    0  502  501  0.00000000000E+00  0.00000000000E+00  0.23031079722E+04  0.23031079722E+04  0.00000000000E+00 0.  1.
         21   -1    0    0  501  502 -0.00000000000E+00 -0.00000000000E+00 -0.74681719443E+02  0.74681719443E+02  0.00000000000E+00 0.  1.
         25    1    1    2    0    0  0.11143195856E+03  0.27180884806E+03  0.72899598909E+03  0.79583747297E+03  0.12500000000E+03 0.  0.
         25    1    1    2    0    0  0.48121543320E+02 -0.19435765030E+03  0.42801842557E+03  0.48878968052E+03  0.12500000000E+03 0.  0.
         25    1    1    2    0    0 -0.15955350188E+03 -0.77451197762E+02  0.10714118381E+04  0.10931625382E+04  0.12500000000E+03 0.  0.
</event>
<event>
 5    0  0.5597833E-005  0.2756882E+03  0.7546771E-02  0.1098068E+00
         21   -1    0    0  502  501  0.00000000000E+00  0.00000000000E+00  0.23183485114E+04  0.23183485114E+04  0.00000000000E+00 0. -1.
         21   -1    0    0  501  502 -0.00000000000E+00 -0.00000000000E+00 -0.32783668110E+02  0.32783668110E+02  0.00000000000E+00 0. -1.
         25    1    1    2    0    0 -0.94808207768E+02 -0.37905827532E+02  0.37976501628E+03  0.41264017692E+03  0.12500000000E+03 0.  0.
         25    1    1    2    0    0  0.14783222785E+03  0.82097414834E+02  0.12191278917E+04  0.12371306194E+04  0.12500000000E+03 0.  0.
         25    1    1    2    0    0 -0.53024020086E+02 -0.44191587302E+02  0.68667193527E+03  0.70136138316E+03  0.12500000000E+03 0.  0.
</event>
<event>
 5    0  0.5597833E-005  0.2652947E+03  0.7546771E-02  0.1104003E+00
         21   -1    0    0  502  501  0.00000000000E+00  0.00000000000E+00  0.22328009430E+03  0.22328009430E+03  0.00000000000E+00 0. -1.
         21   -1    0    0  501  502 -0.00000000000E+00 -0.00000000000E+00 -0.31521514641E+03  0.31521514641E+03  0.00000000000E+00 0. -1.
         25    1    1    2    0    0  0.40556289026E+02  0.22204064913E+02  0.54124960880E+01  0.13338713653E+03  0.12500000000E+03 0.  0.
         25    1    1    2    0    0 -0.13952986629E+03  0.79955709359E+02 -0.44070755686E+02  0.20839561069E+03  0.12500000000E+03 0.  0.
         25    1    1    2    0    0  0.98973577265E+02 -0.10215977427E+03 -0.53276792508E+02  0.19671249349E+03  0.12500000000E+03 0.  0.
</event>
<event>
 5    0  0.5597833E-005  0.3180958E+03  0.7546771E-02  0.1076529E+00
         21   -1    0    0  502  501  0.00000000000E+00  0.00000000000E+00  0.99107220125E+02  0.99107220125E+02  0.00000000000E+00 0. -1.
         21   -1    0    0  501  502 -0.00000000000E+00 -0.00000000000E+00 -0.10209644427E+04  0.10209644427E+04  0.00000000000E+00 0. -1.
         25    1    1    2    0    0 -0.87962477497E+00 -0.41733082176E+02 -0.48001839159E+02  0.14025548278E+03  0.12500000000E+03 0.  0.
         25    1    1    2    0    0  0.99443563219E+02 -0.12937916518E+03 -0.47435314966E+03  0.51697572597E+03  0.12500000000E+03 0.  0.
         25    1    1    2    0    0 -0.98563938444E+02  0.17111224736E+03 -0.39950223380E+03  0.46284045412E+03  0.12500000000E+03 0.  0.
</event>
<event>
 5    0  0.5597833E-005  0.2009380E+03  0.7546771E-02  0.1148950E+00
         21   -1    0    0  502  501  0.00000000000E+00  0.00000000000E+00  0.51776229188E+03  0.51776229188E+03  0.00000000000E+00 0. -1.
         21   -1    0    0  501  502 -0.00000000000E+00 -0.00000000000E+00 -0.77981885298E+02  0.77981885298E+02  0.00000000000E+00 0. -1.
         25    1    1    2    0    0 -0.64844505722E+01 -0.34481884852E+01  0.10269731518E+03  0.16194343657E+03  0.12500000000E+03 0.  0.
         25    1    1    2    0    0  0.31869663221E+02  0.36642984630E+02  0.12061311522E+03  0.18036326488E+03  0.12500000000E+03 0.  0.
         25    1    1    2    0    0 -0.25385212649E+02 -0.33194796145E+02  0.21646997619E+03  0.25343747573E+03  0.12500000000E+03 0.  0.
</event>
<event>
 5    0  0.5597833E-005  0.6156104E+03  0.7546771E-02  0.9873538E-01
         21   -1    0    0  502  501  0.00000000000E+00  0.00000000000E+00  0.41786484973E+03  0.41786484973E+03  0.00000000000E+00 0. -1.
         21   -1    0    0  501  502 -0.00000000000E+00 -0.00000000000E+00 -0.90693469749E+03  0.90693469749E+03  0.00000000000E+00 0. -1.
         25    1    1    2    0    0 -0.64385843540E+02 -0.48401104817E+02 -0.80368852937E+02  0.16903359524E+03  0.12500000000E+03 0.  0.
         25    1    1    2    0    0  0.43384844037E+03  0.36218439110E+03 -0.25131896150E+03  0.63102157077E+03  0.12500000000E+03 0.  0.
         25    1    1    2    0    0 -0.36946259683E+03 -0.31378328628E+03 -0.15738203333E+03  0.52474438122E+03  0.12500000000E+03 0.  0.
</event>
<event>
 5    0  0.5597833E-005  0.5600502E+03  0.7546771E-02  0.9991941E-01
         21   -1    0    0  502  501  0.00000000000E+00  0.00000000000E+00  0.91810897992E+03  0.91810897992E+03  0.00000000000E+00 0.  1.
         21   -1    0    0  501  502 -0.00000000000E+00 -0.00000000000E+00 -0.34163290372E+03  0.34163290372E+03  0.00000000000E+00 0.  1.
         25    1    1    2    0    0  0.27982551399E+03  0.21450565707E+03 -0.11394309388E+03  0.39105373523E+03  0.12500000000E+03 0.  0.
         25    1    1    2    0    0 -0.31799393228E+03 -0.17170557546E+03  0.56702190316E+03  0.68391650388E+03  0.12500000000E+03 0.  0.
         25    1    1    2    0    0  0.38168418286E+02 -0.42800081602E+02  0.12339726692E+03  0.18477164453E+03  0.12500000000E+03 0.  0.
</event>
<event>
 5    0  0.5597833E-005  0.3087920E+03  0.7546771E-02  0.1080926E+00
         21   -1    0    0  502  501  0.00000000000E+00  0.00000000000E+00  0.88911886615E+02  0.88911886615E+02  0.00000000000E+00 0. -1.
         21   -1    0    0  501  502 -0.00000000000E+00 -0.00000000000E+00 -0.10724383907E+04  0.10724383907E+04  0.00000000000E+00 0. -1.
         25    1    1    2    0    0  0.56288109575E+02 -0.33541065848E+02 -0.63146024767E+03  0.64703971962E+03  0.12500000000E+03 0.  0.
         25    1    1    2    0    0 -0.12816867204E+03  0.10525870065E+03 -0.24375734962E+03  0.32023311516E+03  0.12500000000E+03 0.  0.
         25    1    1    2    0    0  0.71880562469E+02 -0.71717634800E+02 -0.10830890677E+03  0.19407744250E+03  0.12500000000E+03 0.  0.
</event>
<event>
 5    0  0.5597833E-005  0.3262620E+03  0.7546771E-02  0.1072803E+00
         21   -1    0    0  502  501  0.00000000000E+00  0.00000000000E+00  0.88401002975E+03  0.88401002975E+03  0.00000000000E+00 0. -1.
         21   -1    0    0  501  502 -0.00000000000E+00 -0.00000000000E+00 -0.12041369154E+03  0.12041369154E+03  0.00000000000E+00 0. -1.
         25    1    1    2    0    0  0.18092278527E+03  0.53361803254E+02  0.84846265636E+02  0.24167007483E+03  0.12500000000E+03 0.  0.
         25    1    1    2    0    0 -0.12766687098E+03 -0.96020011584E+02  0.35087590536E+03  0.40528702611E+03  0.12500000000E+03 0.  0.
         25    1    1    2    0    0 -0.53255914286E+02  0.42658208330E+02  0.32787416721E+03  0.35746662035E+03  0.12500000000E+03 0.  0.
</event>
<event>
 5    0  0.5597833E-005  0.2424252E+03  0.7546771E-02  0.1118188E+00
         21   -1    0    0  502  501  0.00000000000E+00  0.00000000000E+00  0.15512104998E+03  0.15512104998E+03  0.00000000000E+00 0. -1.
         21   -1    0    0  501  502 -0.00000000000E+00 -0.00000000000E+00 -0.37886524310E+03  0.37886524310E+03  0.00000000000E+00 0. -1.
         25    1    1    2    0    0  0.34371616047E+02  0.17621446600E+02 -0.45084295854E+02  0.13838178024E+03  0.12500000000E+03 0.  0.
         25    1    1    2    0    0 -0.31910342801E+02  0.11298707790E+03 -0.74803403180E+02  0.18709596168E+03  0.12500000000E+03 0.  0.
         25    1    1    2    0    0 -0.24612732461E+01 -0.13060852450E+03 -0.10385649409E+03  0.20850855115E+03  0.12500000000E+03 0.  0.
</event>
<event>
 5    0  0.5597833E-005  0.2261255E+03  0.7546771E-02  0.1129397E+00
         21   -1    0    0  502  501  0.00000000000E+00  0.00000000000E+00  0.92372829012E+02  0.92372829012E+02  0.00000000000E+00 0. -1.
         21   -1    0    0  501  502 -0.00000000000E+00 -0.00000000000E+00 -0.55354726175E+03  0.55354726175E+03  0.00000000000E+00 0. -1.
         25    1    1    2    0    0 -0.16199257947E+02  0.33650575680E+02 -0.19841135182E+03  0.23745913698E+03  0.12500000000E+03 0.  0.
         25    1    1    2    0    0  0.12340957623E+02  0.30889529176E+02 -0.24367026158E+02  0.13162527953E+03  0.12500000000E+03 0.  0.
         25    1    1    2    0    0  0.38583003239E+01 -0.64540104856E+02 -0.23839605476E+03  0.27683567426E+03  0.12500000000E+03 0.  0.
</event>
<event>
 5    0  0.5597833E-005  0.3868363E+03  0.7546771E-02  0.1048436E+00
         21   -1    0    0  502  501  0.00000000000E+00  0.00000000000E+00  0.90666971031E+03  0.90666971031E+03  0.00000000000E+00 0. -1.
         21   -1    0    0  501  502 -0.00000000000E+00 -0.00000000000E+00 -0.16504614292E+03  0.16504614292E+03  0.00000000000E+00 0. -1.
         25    1    1    2    0    0 -0.85905949355E+02 -0.12611391707E+03  0.17953136209E+03  0.26672281902E+03  0.12500000000E+03 0.  0.
         25    1    1    2    0    0 -0.17485864622E+03 -0.68185603426E+02  0.18578156264E+03  0.29217222950E+03  0.12500000000E+03 0.  0.
         25    1    1    2    0    0  0.26076459557E+03  0.19429952050E+03  0.37631064266E+03  0.51282080471E+03  0.12500000000E+03 0.  0.
</event>
<event>
 5    0  0.5597833E-005  0.2787241E+03  0.7546771E-02  0.1096388E+00
         21   -1    0    0  502  501  0.00000000000E+00  0.00000000000E+00  0.86908720032E+02  0.86908720032E+02  0.00000000000E+00 0.  1.
         21   -1    0    0  501  502 -0.00000000000E+00 -0.00000000000E+00 -0.89389342791E+03  0.89389342791E+03  0.00000000000E+00 0.  1.
         25    1    1    2    0    0 -0.66522471221E+02 -0.51626757725E+01 -0.26077514925E+03  0.29678371058E+03  0.12500000000E+03 0.  0.
         25    1    1    2    0    0 -0.11180723602E+03  0.71403219506E+02 -0.27530292794E+03  0.33017568038E+03  0.12500000000E+03 0.  0.
         25    1    1    2    0    0  0.17832970724E+03 -0.66240543733E+02 -0.27090663069E+03  0.35384275699E+03  0.12500000000E+03 0.  0.
</event>
<event>
 5    0  0.5597833E-005  0.2798290E+03  0.7546771E-02  0.1095782E+00
         21   -1    0    0  502  501  0.00000000000E+00  0.00000000000E+00  0.64335505330E+02  0.64335505330E+02  0.00000000000E+00 0.  1.
         21   -1    0    0  501  502 -0.00000000000E+00 -0.00000000000E+00 -0.12171237883E+04  0.12171237883E+04  0.00000000000E+00 0.  1.
         25    1    1    2    0    0 -0.72087978718E+02  0.94306496788E+02 -0.80630282654E+03  0.82452388692E+03  0.12500000000E+03 0.  0.
         25    1    1    2    0    0  0.84284704057E+02 -0.66256633263E+02 -0.23322704503E+03  0.28550605479E+03  0.12500000000E+03 0.  0.
         25    1    1    2    0    0 -0.12196725340E+02 -0.28049863524E+02 -0.11325841145E+03  0.17142935197E+03  0.12500000000E+03 0.  0.
</event>
<event>
 5    0  0.5597833E-005  0.4580066E+03  0.7546771E-02  0.1025361E+00
         21   -1    0    0  502  501  0.00000000000E+00  0.00000000000E+00  0.10275425268E+03  0.10275425268E+03  0.00000000000E+00 0. -1.
         21   -1    0    0  501  502 -0.00000000000E+00 -0.00000000000E+00 -0.20414731218E+04  0.20414731218E+04  0.00000000000E+00 0. -1.
         25    1    1    2    0    0  0.22923692955E+03 -0.14803332908E+03 -0.37989172526E+03  0.48415509840E+03  0.12500000000E+03 0.  0.
         25    1    1    2    0    0 -0.62148830314E+02 -0.15136687208E+03 -0.55565470928E+03  0.59258042747E+03  0.12500000000E+03 0.  0.
         25    1    1    2    0    0 -0.16708809923E+03  0.29940020116E+03 -0.10031724345E+04  0.10674918486E+04  0.12500000000E+03 0.  0.
</event>
<event>
 5    0  0.5597833E-005  0.3173071E+03  0.7546771E-02  0.1076895E+00
         21   -1    0    0  502  501  0.00000000000E+00  0.00000000000E+00  0.59450503988E+03  0.59450503988E+03  0.00000000000E+00 0. -1.
         21   -1    0    0  501  502 -0.00000000000E+00 -0.00000000000E+00 -0.16935729649E+03  0.16935729649E+03  0.00000000000E+00 0. -1.
         25    1    1    2    0    0  0.35545020471E+02 -0.15623975332E+03  0.35709185232E+03  0.41086968736E+03  0.12500000000E+03 0.  0.
         25    1    1    2    0    0 -0.57337002796E+02  0.16149678516E+03  0.77056319439E+02  0.22567990578E+03  0.12500000000E+03 0.  0.
         25    1    1    2    0    0  0.21791982325E+02 -0.52570318399E+01 -0.90004283777E+01  0.12731274323E+03  0.12500000000E+03 0.  0.
</event>
<event>
 5    0  0.5729617E-005  0.4586143E+03  0.7546771E-02  0.1025184E+00
         21   -1    0    0  502  501  0.00000000000E+00  0.00000000000E+00  0.56800158618E+03  0.56800158618E+03  0.00000000000E+00 0. -1.
         21   -1    0    0  501  502 -0.00000000000E+00 -0.00000000000E+00 -0.37029316818E+03  0.37029316818E+03  0.00000000000E+00 0. -1.
         25    1    1    2    0    0 -0.26463844014E+03  0.13262882666E+03  0.14828259313E+03  0.35388788773E+03  0.12500000000E+03 0.  0.
         25    1    1    2    0    0  0.41048187054E+02  0.46568549235E+02 -0.15678440737E+03  0.20990458268E+03  0.12500000000E+03 0.  0.
         25    1    1    2    0    0  0.22359025308E+03 -0.17919737589E+03  0.20621023224E+03  0.37450228395E+03  0.12500000000E+03 0.  0.
</event>
<event>
 5    0  0.5597833E-005  0.3315120E+03  0.7546771E-02  0.1070470E+00
         21   -1    0    0  502  501  0.00000000000E+00  0.00000000000E+00  0.13851656249E+04  0.13851656249E+04  0.00000000000E+00 0.  1.
         21   -1    0    0  501  502 -0.00000000000E+00 -0.00000000000E+00 -0.79340852727E+02  0.79340852727E+02  0.00000000000E+00 0.  1.
         25    1    1    2    0    0 -0.64912544612E+02 -0.76605864498E+02  0.17015699335E+03  0.23379584964E+03  0.12500000000E+03 0.  0.
         25    1    1    2    0    0  0.18562502146E+03  0.90313912589E+02  0.93150625397E+03  0.96225888023E+03  0.12500000000E+03 0.  0.
         25    1    1    2    0    0 -0.12071247684E+03 -0.13708048091E+02  0.20416152490E+03  0.26845174780E+03  0.12500000000E+03 0.  0.
</event>
<event>
 5    0  0.5597833E-005  0.2311375E+03  0.7546771E-02  0.1125842E+00
         21   -1    0    0  502  501  0.00000000000E+00  0.00000000000E+00  0.33743308162E+03  0.33743308162E+03  0.00000000000E+00 0. -1.
         21   -1    0    0  501  502 -0.00000000000E+00 -0.00000000000E+00 -0.15832636948E+03  0.15832636948E+03  0.00000000000E+00 0. -1.
         25    1    1    2    0    0  0.43222875148E+02 -0.61976977432E+02  0.91730191437E+02  0.17247837745E+03  0.12500000000E+03 0.  0.
         25    1    1    2    0    0 -0.18658870419E+02  0.50926821067E+02 -0.40792441884E+02  0.14223472805E+03  0.12500000000E+03 0.  0.
         25    1    1    2    0    0 -0.24564004729E+02  0.11050156364E+02  0.12816896258E+03  0.18104634559E+03  0.12500000000E+03 0.  0.
</event>
<event>
 5    0  0.5597833E-005  0.3544309E+03  0.7546771E-02  0.1060811E+00
         21   -1    0    0  502  501  0.00000000000E+00  0.00000000000E+00  0.12814746743E+04  0.12814746743E+04  0.00000000000E+00 0. -1.
         21   -1    0    0  501  502 -0.00000000000E+00 -0.00000000000E+00 -0.98028689811E+02  0.98028689811E+02  0.00000000000E+00 0. -1.
         25    1    1    2    0    0 -0.88159142871E+02  0.13951117475E+03  0.16142132801E+03  0.26252094676E+03  0.12500000000E+03 0.  0.
         25    1    1    2    0    0  0.81323273501E+02 -0.61377904472E+02  0.11508783238E+03  0.19811847751E+03  0.12500000000E+03 0.  0.
         25    1    1    2    0    0  0.68358693700E+01 -0.78133270273E+02  0.90693682405E+03  0.91886393979E+03  0.12500000000E+03 0.  0.
</event>
<event>
 5    0  0.5597833E-005  0.5370191E+03  0.7546771E-02  0.1004544E+00
         21   -1    0    0  502  501  0.00000000000E+00  0.00000000000E+00  0.67271534183E+03  0.67271534183E+03  0.00000000000E+00 0. -1.
         21   -1    0    0  501  502 -0.00000000000E+00 -0.00000000000E+00 -0.42869472226E+03  0.42869472226E+03  0.00000000000E+00 0. -1.
         25    1    1    2    0    0  0.31692801082E+03 -0.98232636786E+01  0.27502168543E+03  0.43795181014E+03  0.12500000000E+03 0.  0.
         25    1    1    2    0    0 -0.37704114319E+03  0.37762963305E+02 -0.19728828036E+03  0.44512215248E+03  0.12500000000E+03 0.  0.
         25    1    1    2    0    0  0.60113132371E+02 -0.27939699626E+02  0.16628721451E+03  0.21833610147E+03  0.12500000000E+03 0.  0.
</event>
<event>
 5    0  0.5597833E-005  0.2464137E+03  0.7546771E-02  0.1115592E+00
         21   -1    0    0  502  501  0.00000000000E+00  0.00000000000E+00  0.20091422426E+03  0.20091422426E+03  0.00000000000E+00 0.  1.
         21   -1    0    0  501  502 -0.00000000000E+00 -0.00000000000E+00 -0.30221699542E+03  0.30221699542E+03  0.00000000000E+00 0.  1.
         25    1    1    2    0    0 -0.98050688910E+02 -0.20052422976E+02 -0.79569784082E+02  0.17880824310E+03  0.12500000000E+03 0.  0.
         25    1    1    2    0    0  0.53999216509E+01  0.80818659526E+02 -0.45172922757E+02  0.15564834670E+03  0.12500000000E+03 0.  0.
         25    1    1    2    0    0  0.92650767259E+02 -0.60766236550E+02  0.23439935673E+02  0.16867462987E+03  0.12500000000E+03 0.  0.
</event>
<event>
 5    0  0.5597833E-005  0.2394177E+03  0.7546771E-02  0.1120181E+00
         21   -1    0    0  502  501  0.00000000000E+00  0.00000000000E+00  0.14159203903E+04  0.14159203903E+04  0.00000000000E+00 0. -1.
         21   -1    0    0  501  502 -0.00000000000E+00 -0.00000000000E+00 -0.40483080527E+02  0.40483080527E+02  0.00000000000E+00 0. -1.
         25    1    1    2    0    0 -0.10955752671E+03 -0.38733276319E+02  0.35471468200E+03  0.39363768110E+03  0.12500000000E+03 0.  0.
         25    1    1    2    0    0  0.96965687404E+02  0.71154088082E+01  0.43613348032E+03  0.46399395064E+03  0.12500000000E+03 0.  0.
         25    1    1    2    0    0  0.12591839309E+02  0.31617867511E+02  0.58458914747E+03  0.59877183910E+03  0.12500000000E+03 0.  0.
</event>
<event>
 5    0  0.5597833E-005  0.2838760E+03  0.7546771E-02  0.1093591E+00
         21   -1    0    0  502  501  0.00000000000E+00  0.00000000000E+00  0.12833876606E+03  0.12833876606E+03  0.00000000000E+00 0.  1.
         21   -1    0    0  501  502 -0.00000000000E+00 -0.00000000000E+00 -0.62791305789E+03  0.62791305789E+03  0.00000000000E+00 0.  1.
         25    1    1    2    0    0 -0.39858033079E+02 -0.14033293750E+03 -0.27647011782E+03  0.33666410886E+03  0.12500000000E+03 0.  0.
         25    1    1    2    0    0  0.40482033961E+02 -0.38727911493E+02 -0.86031930421E+02  0.16175641951E+03  0.12500000000E+03 0.  0.
         25    1    1    2    0    0 -0.62400088147E+00  0.17906084899E+03 -0.13707224359E+03  0.25783129558E+03  0.12500000000E+03 0.  0.
</event>
<event>
 5    0  0.5597833E-005  0.4339571E+03  0.7546771E-02  0.1032617E+00
         21   -1    0    0  502  501  0.00000000000E+00  0.00000000000E+00  0.25908559467E+03  0.25908559467E+03  0.00000000000E+00 0. -1.
         21   -1    0    0  501  502 -0.00000000000E+00 -0.00000000000E+00 -0.72685913363E+03  0.72685913363E+03  0.00000000000E+00 0. -1.
         25    1    1    2    0    0  0.13519864657E+03 -0.66700216414E+01 -0.30348781262E+03  0.35503945644E+03  0.12500000000E+03 0.  0.
         25    1    1    2    0    0 -0.18131964534E+03  0.11888339684E+03  0.13519218937E+03  0.28445035401E+03  0.12500000000E+03 0.  0.
         25    1    1    2    0    0  0.46120998772E+02 -0.11221337520E+03 -0.29947791571E+03  0.34645491785E+03  0.12500000000E+03 0.  0.
</event>
<event>
 5    0  0.5597833E-005  0.2065665E+03  0.7546771E-02  0.1144314E+00
         21   -1    0    0  502  501  0.00000000000E+00  0.00000000000E+00  0.35182377927E+03  0.35182377927E+03  0.00000000000E+00 0.  1.
         21   -1    0    0  501  502 -0.00000000000E+00 -0.00000000000E+00 -0.12128146734E+03  0.12128146734E+03  0.00000000000E+00 0. -1.
         25    1    1    2    0    0 -0.22260997790E+02  0.63285726986E+02  0.91518144421E+02  0.16882300205E+03  0.12500000000E+03 0.  0.
         25    1    1    2    0    0  0.54979120895E+01  0.11213044719E+01  0.39565557874E+02  0.13123230445E+03  0.12500000000E+03 0.  0.
         25    1    1    2    0    0  0.16763085700E+02 -0.64407031458E+02  0.99458609639E+02  0.17304994012E+03  0.12500000000E+03 0.  0.
</event>
<event>
 5    0  0.5597833E-005  0.4044740E+03  0.7546771E-02  0.1042241E+00
         21   -1    0    0  502  501  0.00000000000E+00  0.00000000000E+00  0.59614770646E+03  0.59614770646E+03  0.00000000000E+00 0.  1.
         21   -1    0    0  501  502 -0.00000000000E+00 -0.00000000000E+00 -0.27442736651E+03  0.27442736651E+03  0.00000000000E+00 0.  1.
         25    1    1    2    0    0  0.66457990409E+01 -0.18296676069E+03 -0.99251992557E+02  0.24289289860E+03  0.12500000000E+03 0.  0.
         25    1    1    2    0    0 -0.10963207471E+02  0.20990525087E+03  0.70385068277E+02  0.25447880874E+03  0.12500000000E+03 0.  0.
         25    1    1    2    0    0  0.43174084297E+01 -0.26938490181E+02  0.35058726423E+03  0.37320336562E+03  0.12500000000E+03 0.  0.
</event>
<event>
 5    0  0.5597833E-005  0.2633641E+03  0.7546771E-02  0.1105139E+00
         21   -1    0    0  502  501  0.00000000000E+00  0.00000000000E+00  0.20592944093E+03  0.20592944093E+03  0.00000000000E+00 0.  1.
         21   -1    0    0  501  502 -0.00000000000E+00 -0.00000000000E+00 -0.33681753158E+03  0.33681753158E+03  0.00000000000E+00 0.  1.
         25    1    1    2    0    0  0.42537288262E+02 -0.58007794336E+01  0.75401347679E+02  0.15216252221E+03  0.12500000000E+03 0.  0.
         25    1    1    2    0    0 -0.60586891509E+02 -0.90313469364E+02 -0.14591493288E+03  0.22077921507E+03  0.12500000000E+03 0.  0.
         25    1    1    2    0    0  0.18049603248E+02  0.96114248798E+02 -0.60374505449E+02  0.16980523522E+03  0.12500000000E+03 0.  0.
</event>
<event>
 5    0  0.5597833E-005  0.4113381E+03  0.7546771E-02  0.1039923E+00
         21   -1    0    0  502  501  0.00000000000E+00  0.00000000000E+00  0.14593857600E+03  0.14593857600E+03  0.00000000000E+00 0.  1.
         21   -1    0    0  501  502 -0.00000000000E+00 -0.00000000000E+00 -0.11593850668E+04  0.11593850668E+04  0.00000000000E+00 0.  1.
         25    1    1    2    0    0 -0.19732436365E+03 -0.15845812478E+03 -0.33920126426E+03  0.44128038647E+03  0.12500000000E+03 0.  0.
         25    1    1    2    0    0  0.22957705725E+03  0.13085695215E+02 -0.14279569660E+03  0.29814840533E+03  0.12500000000E+03 0.  0.
         25    1    1    2    0    0 -0.32252693593E+02  0.14537242957E+03 -0.53144952991E+03  0.56589485098E+03  0.12500000000E+03 0.  0.
</event>
<event>
 5    0  0.7015260E-005  0.5998310E+03  0.7546771E-02  0.9905757E-01
         21   -1    0    0  502  501  0.00000000000E+00  0.00000000000E+00  0.91415654768E+03  0.91415654768E+03  0.00000000000E+00 0. -1.
         21   -1    0    0  501  502 -0.00000000000E+00 -0.00000000000E+00 -0.39358380505E+03  0.39358380505E+03  0.00000000000E+00 0. -1.
         25    1    1    2    0    0 -0.33906196010E+03  0.65808564848E+02  0.49368213069E+03  0.61533797718E+03  0.12500000000E+03 0.  0.
         25    1    1    2    0    0  0.16871141697E+03 -0.30562417304E+03  0.36847510588E+02  0.37262906006E+03  0.12500000000E+03 0.  0.
         25    1    1    2    0    0  0.17035054313E+03  0.23981560819E+03 -0.99568986521E+01  0.31977331550E+03  0.12500000000E+03 0.  0.
</event>
<event>
 5    0  0.5597833E-005  0.5056334E+03  0.7546771E-02  0.1012319E+00
         21   -1    0    0  502  501  0.00000000000E+00  0.00000000000E+00  0.50283405033E+03  0.50283405033E+03  0.00000000000E+00 0. -1.
         21   -1    0    0  501  502 -0.00000000000E+00 -0.00000000000E+00 -0.50844836092E+03  0.50844836092E+03  0.00000000000E+00 0. -1.
         25    1    1    2    0    0  0.40322051585E+03 -0.13757707172E+03 -0.15859664062E+02  0.44428680377E+03  0.12500000000E+03 0.  0.
         25    1    1    2    0    0 -0.60512515822E+02 -0.17695997558E+02 -0.78803164621E+02  0.16065444798E+03  0.12500000000E+03 0.  0.
         25    1    1    2    0    0 -0.34270800003E+03  0.15527306927E+03  0.89048518088E+02  0.40634115949E+03  0.12500000000E+03 0.  0.
</event>
<event>
 5    0  0.5597833E-005  0.3209067E+03  0.7546771E-02  0.1075233E+00
         21   -1    0    0  502  501  0.00000000000E+00  0.00000000000E+00  0.45580951727E+03  0.45580951727E+03  0.00000000000E+00 0.  1.
         21   -1    0    0  501  502 -0.00000000000E+00 -0.00000000000E+00 -0.22593016890E+03  0.22593016890E+03  0.00000000000E+00 0.  1.
         25    1    1    2    0    0  0.96740103233E+02  0.11484170333E+03  0.30191104279E+03  0.35961443541E+03  0.12500000000E+03 0.  0.
         25    1    1    2    0    0 -0.66043643156E+02 -0.74422453747E+02 -0.94103005621E+02  0.18542071106E+03  0.12500000000E+03 0.  0.
         25    1    1    2    0    0 -0.30696460077E+02 -0.40419249583E+02  0.22071311198E+02  0.13670453971E+03  0.12500000000E+03 0.  0.
</event>
<event>
 5    0  0.5597833E-005  0.2082073E+03  0.7546771E-02  0.1142994E+00
         21   -1    0    0  502  501  0.00000000000E+00  0.00000000000E+00  0.97131888613E+03  0.97131888613E+03  0.00000000000E+00 0. -1.
         21   -1    0    0  501  502 -0.00000000000E+00 -0.00000000000E+00 -0.44630322456E+02  0.44630322456E+02  0.00000000000E+00 0. -1.
         25    1    1    2    0    0  0.25779591054E+02 -0.54010950951E+01  0.38030602563E+03  0.40118752756E+03  0.12500000000E+03 0.  0.
         25    1    1    2    0    0 -0.17567081063E+02 -0.19736829231E+01  0.41196093173E+03  0.43087040631E+03  0.12500000000E+03 0.  0.
         25    1    1    2    0    0 -0.82125099912E+01  0.73747780181E+01  0.13442160631E+03  0.18389127471E+03  0.12500000000E+03 0.  0.
</event>
<event>
 5    0  0.5597833E-005  0.2535618E+03  0.7546771E-02  0.1111074E+00
         21   -1    0    0  502  501  0.00000000000E+00  0.00000000000E+00  0.24066942379E+03  0.24066942379E+03  0.00000000000E+00 0.  1.
         21   -1    0    0  501  502 -0.00000000000E+00 -0.00000000000E+00 -0.26714485741E+03  0.26714485741E+03  0.00000000000E+00 0.  1.
         25    1    1    2    0    0 -0.14287372417E+02  0.34709370956E+02 -0.68731185438E+02  0.14750540768E+03  0.12500000000E+03 0.  0.
         25    1    1    2    0    0 -0.22591842900E+02  0.79877719438E+02 -0.56855607436E+02  0.16046308462E+03  0.12500000000E+03 0.  0.
         25    1    1    2    0    0  0.36879215316E+02 -0.11458709039E+03  0.99111359261E+02  0.19984578890E+03  0.12500000000E+03 0.  0.
</event>
<event>
 5    0  0.5597833E-005  0.4545438E+03  0.7546771E-02  0.1026376E+00
         21   -1    0    0  502  501  0.00000000000E+00  0.00000000000E+00  0.13702529320E+03  0.13702529320E+03  0.00000000000E+00 0.  1.
         21   -1    0    0  501  502 -0.00000000000E+00 -0.00000000000E+00 -0.15078245523E+04  0.15078245523E+04  0.00000000000E+00 0. -1.
         25    1    1    2    0    0 -0.11654472394E+03  0.14911303677E+03 -0.48534181712E+03  0.53572292266E+03  0.12500000000E+03 0.  0.
         25    1    1    2    0    0  0.39864580184E+02 -0.36523175629E+03 -0.39666607750E+03  0.55493458857E+03  0.12500000000E+03 0.  0.
         25    1    1    2    0    0  0.76680143757E+02  0.21611871952E+03 -0.48879136451E+03  0.55419233430E+03  0.12500000000E+03 0.  0.
</event>
<event>
 5    0  0.5659297E-005  0.3503737E+03  0.7546771E-02  0.1062462E+00
         21   -1    0    0  502  501  0.00000000000E+00  0.00000000000E+00  0.33802314809E+03  0.33802314809E+03  0.00000000000E+00 0.  1.
         21   -1    0    0  501  502 -0.00000000000E+00 -0.00000000000E+00 -0.36317553746E+03  0.36317553746E+03  0.00000000000E+00 0.  1.
         25    1    1    2    0    0  0.79923211088E+02  0.45054656536E+02  0.72929511942E+02  0.17135155517E+03  0.12500000000E+03 0.  0.
         25    1    1    2    0    0 -0.16458863348E+03  0.99069880234E+02  0.92547837146E+02  0.24717273636E+03  0.12500000000E+03 0.  0.
         25    1    1    2    0    0  0.84665422391E+02 -0.14412453677E+03 -0.19062973846E+03  0.28267439402E+03  0.12500000000E+03 0.  0.
</event>
<event>
 5    0  0.5997737E-005  0.2908920E+03  0.7546771E-02  0.1089884E+00
         21   -1    0    0  502  501  0.00000000000E+00  0.00000000000E+00  0.64025385208E+03  0.64025385208E+03  0.00000000000E+00 0.  1.
         21   -1    0    0  501  502 -0.00000000000E+00 -0.00000000000E+00 -0.13216341334E+03  0.13216341334E+03  0.00000000000E+00 0.  1.
         25    1    1    2    0    0  0.14711125230E+03 -0.21229142806E+02  0.17670673029E+03  0.26256935386E+03  0.12500000000E+03 0.  0.
         25    1    1    2    0    0  0.96266328311E+01 -0.70760487033E+02  0.50180654356E+02  0.15245594989E+03  0.12500000000E+03 0.  0.
         25    1    1    2    0    0 -0.15673788513E+03  0.91989629839E+02  0.28120305409E+03  0.35739196167E+03  0.12500000000E+03 0.  0.
</event>
<event>
 5    0  0.5597833E-005  0.2939984E+03  0.7546771E-02  0.1088280E+00
         21   -1    0    0  502  501  0.00000000000E+00  0.00000000000E+00  0.75807405473E+02  0.75807405473E+02  0.00000000000E+00 0.  1.
         21   -1    0    0  501  502 -0.00000000000E+00 -0.00000000000E+00 -0.11401931468E+04  0.11401931468E+04  0.00000000000E+00 0.  1.
         25    1    1    2    0    0 -0.16285890644E+03  0.60473666552E+02 -0.21178040197E+03  0.30109139212E+03  0.12500000000E+03 0.  0.
         25    1    1    2    0    0  0.65847673170E+02  0.26049658119E+02 -0.28203815841E+03  0.31652017874E+03  0.12500000000E+03 0.  0.
         25    1    1    2    0    0  0.97011233273E+02 -0.86523324671E+02 -0.57056718095E+03  0.59838898141E+03  0.12500000000E+03 0.  0.
</event>
<event>
 5    0  0.5597833E-005  0.3638408E+03  0.7546771E-02  0.1057073E+00
         21   -1    0    0  502  501  0.00000000000E+00  0.00000000000E+00  0.10190572477E+03  0.10190572477E+03  0.00000000000E+00 0.  1.
         21   -1    0    0  501  502 -0.00000000000E+00 -0.00000000000E+00 -0.12990451122E+04  0.12990451122E+04  0.00000000000E+00 0.  1.
         25    1    1    2    0    0  0.95374683102E+02 -0.79875411672E+02 -0.76044211496E+03  0.78062386703E+03  0.12500000000E+03 0.  0.
         25    1    1    2    0    0 -0.59076435617E+02  0.33986254473E+02 -0.45895244724E+03  0.48052829216E+03  0.12500000000E+03 0.  0.
         25    1    1    2    0    0 -0.36298247485E+02  0.45889157198E+02  0.22255174734E+02  0.13979867782E+03  0.12500000000E+03 0.  0.
</event>
<event>
 5    0  0.5597833E-005  0.4405239E+03  0.7546771E-02  0.1030586E+00
         21   -1    0    0  502  501  0.00000000000E+00  0.00000000000E+00  0.43247463609E+03  0.43247463609E+03  0.00000000000E+00 0.  1.
         21   -1    0    0  501  502 -0.00000000000E+00 -0.00000000000E+00 -0.44872291864E+03  0.44872291864E+03  0.00000000000E+00 0.  1.
         25    1    1    2    0    0 -0.46522552986E+02  0.14864849455E+03 -0.27677927568E+02  0.20162289191E+03  0.12500000000E+03 0.  0.
         25    1    1    2    0    0 -0.40248787620E+02 -0.24273215979E+03 -0.24356122313E+03  0.36808414217E+03  0.12500000000E+03 0.  0.
         25    1    1    2    0    0  0.86771340607E+02  0.94083665242E+02  0.25499086815E+03  0.31149052065E+03  0.12500000000E+03 0.  0.
</event>
<event>
 5    0  0.5597833E-005  0.2491688E+03  0.7546771E-02  0.1113831E+00
         21   -1    0    0  502  501  0.00000000000E+00  0.00000000000E+00  0.30516109960E+03  0.30516109960E+03  0.00000000000E+00 0. -1.
         21   -1    0    0  501  502 -0.00000000000E+00 -0.00000000000E+00 -0.20345023500E+03  0.20345023500E+03  0.00000000000E+00 0. -1.
         25    1    1    2    0    0  0.86023404445E+02  0.36424553120E+02 -0.63979515860E+02  0.16865690805E+03  0.12500000000E+03 0.  0.
         25    1    1    2    0    0 -0.46792472726E+02 -0.78730383394E+02  0.11607447455E+03  0.19361377124E+03  0.12500000000E+03 0.  0.
         25    1    1    2    0    0 -0.39230931719E+02  0.42305830274E+02  0.49615905902E+02  0.14634065531E+03  0.12500000000E+03 0.  0.
</event>
<event>
 5    0  0.6015168E-005  0.3314789E+03  0.7546771E-02  0.1070484E+00
         21   -1    0    0  502  501  0.00000000000E+00  0.00000000000E+00  0.26816001715E+03  0.26816001715E+03  0.00000000000E+00 0. -1.
         21   -1    0    0  501  502 -0.00000000000E+00 -0.00000000000E+00 -0.40974893144E+03  0.40974893144E+03  0.00000000000E+00 0. -1.
         25    1    1    2    0    0  0.11558573716E+03 -0.11758586258E+03  0.22123072161E+02  0.20808875039E+03  0.12500000000E+03 0.  0.
         25    1    1    2    0    0 -0.18725230085E+03  0.12430302246E+02  0.32316558357E+01  0.22550694044E+03  0.12500000000E+03 0.  0.
         25    1    1    2    0    0  0.71666563687E+02  0.10515556034E+03 -0.16694364228E+03  0.24431325776E+03  0.12500000000E+03 0.  0.
</event>
<event>
 5    0  0.5597833E-005  0.2252201E+03  0.7546771E-02  0.1130050E+00
         21   -1    0    0  502  501  0.00000000000E+00  0.00000000000E+00  0.13689223068E+03  0.13689223068E+03  0.00000000000E+00 0. -1.
         21   -1    0    0  501  502 -0.00000000000E+00 -0.00000000000E+00 -0.37054040629E+03  0.37054040629E+03  0.00000000000E+00 0. -1.
         25    1    1    2    0    0  0.11135654620E+02 -0.15156873506E+02 -0.20688957680E+03  0.24245005796E+03  0.12500000000E+03 0.  0.
         25    1    1    2    0    0 -0.45721232882E+02  0.11686569348E+02 -0.75392678049E+01  0.13382394255E+03  0.12500000000E+03 0.  0.
         25    1    1    2    0    0  0.34585578263E+02  0.34703041582E+01 -0.19219331008E+02  0.13115863646E+03  0.12500000000E+03 0.  0.
</event>
<event>
 5    0  0.5597833E-005  0.5013006E+03  0.7546771E-02  0.1013440E+00
         21   -1    0    0  502  501  0.00000000000E+00  0.00000000000E+00  0.72534964102E+03  0.72534964102E+03  0.00000000000E+00 0.  1.
         21   -1    0    0  501  502 -0.00000000000E+00 -0.00000000000E+00 -0.34645672376E+03  0.34645672376E+03  0.00000000000E+00 0.  1.
         25    1    1    2    0    0 -0.18715958327E+03 -0.15482126456E+03  0.26717524719E+03  0.38210724447E+03  0.12500000000E+03 0.  0.
         25    1    1    2    0    0  0.36174719408E+03 -0.18598116308E+02  0.14909850668E+03  0.41117184613E+03  0.12500000000E+03 0.  0.
         25    1    1    2    0    0 -0.17458761081E+03  0.17341938087E+03 -0.37380836612E+02  0.27852727417E+03  0.12500000000E+03 0.  0.
</event>
<event>
 5    0  0.5662678E-005  0.2592033E+03  0.7546771E-02  0.1107623E+00
         21   -1    0    0  502  501  0.00000000000E+00  0.00000000000E+00  0.90117553917E+03  0.90117553917E+03  0.00000000000E+00 0. -1.
         21   -1    0    0  501  502 -0.00000000000E+00 -0.00000000000E+00 -0.74554122711E+02  0.74554122711E+02  0.00000000000E+00 0. -1.
         25    1    1    2    0    0 -0.11138610599E+03 -0.27895950357E+02  0.19478436636E+03  0.25836214512E+03  0.12500000000E+03 0.  0.
         25    1    1    2    0    0  0.11564699203E+03  0.51890843782E+02  0.51364294645E+03  0.54361839821E+03  0.12500000000E+03 0.  0.
         25    1    1    2    0    0 -0.42608860404E+01 -0.23994893425E+02  0.11819410366E+03  0.17374911856E+03  0.12500000000E+03 0.  0.
</event>
<event>
 5    0  0.5597833E-005  0.2727602E+03  0.7546771E-02  0.1099710E+00
         21   -1    0    0  502  501  0.00000000000E+00  0.00000000000E+00  0.19907653024E+03  0.19907653024E+03  0.00000000000E+00 0.  1.
         21   -1    0    0  501  502 -0.00000000000E+00 -0.00000000000E+00 -0.37371610454E+03  0.37371610454E+03  0.00000000000E+00 0.  1.
         25    1    1    2    0    0 -0.52534268543E+02  0.91129581442E+02  0.37615801356E+02  0.16764366524E+03  0.12500000000E+03 0.  0.
         25    1    1    2    0    0 -0.29640402793E+02  0.43545073356E+02 -0.43401424729E+02  0.14241983907E+03  0.12500000000E+03 0.  0.
         25    1    1    2    0    0  0.82174671336E+02 -0.13467465480E+03 -0.16885395092E+03  0.26272913047E+03  0.12500000000E+03 0.  0.
</event>
<event>
 5    0  0.5597833E-005  0.2482372E+03  0.7546771E-02  0.1114424E+00
         21   -1    0    0  502  501  0.00000000000E+00  0.00000000000E+00  0.18665050296E+03  0.18665050296E+03  0.00000000000E+00 0. -1.
         21   -1    0    0  501  502 -0.00000000000E+00 -0.00000000000E+00 -0.33014485799E+03  0.33014485799E+03  0.00000000000E+00 0. -1.
         25    1    1    2    0    0  0.11687684936E+03  0.99982029674E+01  0.47345742205E+02  0.17783920064E+03  0.12500000000E+03 0.  0.
         25    1    1    2    0    0 -0.55248103865E+02 -0.22056806450E+02 -0.11414280621E+03  0.17942250667E+03  0.12500000000E+03 0.  0.
         25    1    1    2    0    0 -0.61628745499E+02  0.12058603482E+02 -0.76697291025E+02  0.15953365363E+03  0.12500000000E+03 0.  0.
</event>
<event>
 5    0  0.5597833E-005  0.5849021E+03  0.7546771E-02  0.9937234E-01
         21   -1    0    0  502  501  0.00000000000E+00  0.00000000000E+00  0.52744118796E+03  0.52744118796E+03  0.00000000000E+00 0. -1.
         21   -1    0    0  501  502 -0.00000000000E+00 -0.00000000000E+00 -0.64862297170E+03  0.64862297170E+03  0.00000000000E+00 0. -1.
         25    1    1    2    0    0 -0.56319031265E+02 -0.23275808820E+02  0.15531966139E+03  0.20847732197E+03  0.12500000000E+03 0.  0.
         25    1    1    2    0    0  0.14292476941E+03 -0.88788628499E+02  0.29714617597E+03  0.36363685203E+03  0.12500000000E+03 0.  0.
         25    1    1    2    0    0 -0.86605738148E+02  0.11206443732E+03 -0.57364762110E+03  0.60394998567E+03  0.12500000000E+03 0.  0.
</event>
<event>
 5    0  0.5597833E-005  0.3326715E+03  0.7546771E-02  0.1069961E+00
         21   -1    0    0  502  501  0.00000000000E+00  0.00000000000E+00  0.57541443795E+03  0.57541443795E+03  0.00000000000E+00 0. -1.
         21   -1    0    0  501  502 -0.00000000000E+00 -0.00000000000E+00 -0.19233149213E+03  0.19233149213E+03  0.00000000000E+00 0. -1.
         25    1    1    2    0    0  0.18688367604E+03  0.70022584449E+02  0.31344536808E+03  0.39204804486E+03  0.12500000000E+03 0.  0.
         25    1    1    2    0    0 -0.19555676954E+03 -0.17466662693E+02  0.33947945498E+02  0.23521266424E+03  0.12500000000E+03 0.  0.
         25    1    1    2    0    0  0.86730934958E+01 -0.52555921757E+02  0.35689632243E+02  0.14048522097E+03  0.12500000000E+03 0.  0.
</event>
<event>
 5    0  0.5597833E-005  0.3119342E+03  0.7546771E-02  0.1079422E+00
         21   -1    0    0  502  501  0.00000000000E+00  0.00000000000E+00  0.19223820202E+03  0.19223820202E+03  0.00000000000E+00 0.  1.
         21   -1    0    0  501  502 -0.00000000000E+00 -0.00000000000E+00 -0.50615818567E+03  0.50615818567E+03  0.00000000000E+00 0.  1.
         25    1    1    2    0    0  0.12417709172E+03 -0.52401247006E+02 -0.35701786108E+03  0.40156268991E+03  0.12500000000E+03 0.  0.
         25    1    1    2    0    0 -0.31256077121E+02 -0.14716885445E+00  0.27189406858E+02  0.13168609593E+03  0.12500000000E+03 0.  0.
         25    1    1    2    0    0 -0.92921014602E+02  0.52548415861E+02  0.15908470568E+02  0.16514760186E+03  0.12500000000E+03 0.  0.
</event>
<event>
 5    0  0.5597833E-005  0.4578954E+03  0.7546771E-02  0.1025393E+00
         21   -1    0    0  502  501  0.00000000000E+00  0.00000000000E+00  0.77401480979E+03  0.77401480979E+03  0.00000000000E+00 0.  1.
         21   -1    0    0  501  502 -0.00000000000E+00 -0.00000000000E+00 -0.27088398771E+03  0.27088398771E+03  0.00000000000E+00 0.  1.
         25    1    1    2    0    0 -0.11991833466E+03 -0.29872723810E+01  0.49889671169E+03  0.52812144411E+03  0.12500000000E+03 0.  0.
         25    1    1    2    0    0  0.28953056341E+02 -0.16083551772E+03  0.14450489004E+03  0.25142196896E+03  0.12500000000E+03 0.  0.
         25    1    1    2    0    0  0.90965278318E+02  0.16382279010E+03 -0.14027077965E+03  0.26535538442E+03  0.12500000000E+03 0.  0.
</event>
<event>
 5    0  0.5597833E-005  0.2941321E+03  0.7546771E-02  0.1088211E+00
         21   -1    0    0  502  501  0.00000000000E+00  0.00000000000E+00  0.20480783506E+03  0.20480783506E+03  0.00000000000E+00 0. -1.
         21   -1    0    0  501  502 -0.00000000000E+00 -0.00000000000E+00 -0.42241405451E+03  0.42241405451E+03  0.00000000000E+00 0. -1.
         25    1    1    2    0    0  0.13035202191E+03 -0.71711911665E+01 -0.11026723502E+03  0.21172373206E+03  0.12500000000E+03 0.  0.
         25    1    1    2    0    0 -0.37253805415E+02 -0.13152987574E+03 -0.90549078208E+02  0.20618460126E+03  0.12500000000E+03 0.  0.
         25    1    1    2    0    0 -0.93098216499E+02  0.13870106691E+03 -0.16789906231E+02  0.20931355625E+03  0.12500000000E+03 0.  0.
</event>
<event>
 5    0  0.5597833E-005  0.2780377E+03  0.7546771E-02  0.1096766E+00
         21   -1    0    0  502  501  0.00000000000E+00  0.00000000000E+00  0.99778341706E+02  0.99778341706E+02  0.00000000000E+00 0. -1.
         21   -1    0    0  501  502 -0.00000000000E+00 -0.00000000000E+00 -0.77476691627E+03  0.77476691627E+03  0.00000000000E+00 0. -1.
         25    1    1    2    0    0 -0.15348880771E+03 -0.68968138099E+02 -0.35970389788E+03  0.41632596882E+03  0.12500000000E+03 0.  0.
         25    1    1    2    0    0  0.58629850755E+02  0.17258414505E+02 -0.23829458377E+03  0.27594314800E+03  0.12500000000E+03 0.  0.
         25    1    1    2    0    0  0.94858956956E+02  0.51709723594E+02 -0.76990092913E+02  0.18227614116E+03  0.12500000000E+03 0.  0.
</event>
<event>
 5    0  0.5597833E-005  0.2323508E+03  0.7546771E-02  0.1124996E+00
         21   -1    0    0  502  501  0.00000000000E+00  0.00000000000E+00  0.10828329823E+03  0.10828329823E+03  0.00000000000E+00 0.  1.
         21   -1    0    0  501  502 -0.00000000000E+00 -0.00000000000E+00 -0.49857103163E+03  0.49857103163E+03  0.00000000000E+00 0.  1.
         25    1    1    2    0    0 -0.10780241082E+03  0.29818493838E+02 -0.75678316988E+02  0.18401823283E+03  0.12500000000E+03 0.  0.
         25    1    1    2    0    0  0.56703205288E+02 -0.26050039373E+02 -0.20883851528E+03  0.25126158382E+03  0.12500000000E+03 0.  0.
         25    1    1    2    0    0  0.51099205532E+02 -0.37684544657E+01 -0.10577090114E+03  0.17157451321E+03  0.12500000000E+03 0.  0.
</event>
<event>
 5    0  0.5597833E-005  0.4942618E+03  0.7546771E-02  0.1015288E+00
         21   -1    0    0  502  501  0.00000000000E+00  0.00000000000E+00  0.17702655701E+03  0.17702655701E+03  0.00000000000E+00 0.  1.
         21   -1    0    0  501  502 -0.00000000000E+00 -0.00000000000E+00 -0.13799893491E+04  0.13799893491E+04  0.00000000000E+00 0.  1.
         25    1    1    2    0    0  0.74251401099E+02  0.88672944860E+02  0.95241372411E+02  0.19512068249E+03  0.12500000000E+03 0.  0.
         25    1    1    2    0    0 -0.12875816583E+03  0.33790711617E+02 -0.96006209973E+03  0.97727412367E+03  0.12500000000E+03 0.  0.
         25    1    1    2    0    0  0.54506764730E+02 -0.12246365648E+03 -0.33814206480E+03  0.38462109998E+03  0.12500000000E+03 0.  0.
</event>
<event>
 5    0  0.5597833E-005  0.2736661E+03  0.7546771E-02  0.1099200E+00
         21   -1    0    0  502  501  0.00000000000E+00  0.00000000000E+00  0.17580735626E+03  0.17580735626E+03  0.00000000000E+00 0. -1.
         21   -1    0    0  501  502 -0.00000000000E+00 -0.00000000000E+00 -0.42599536714E+03  0.42599536714E+03  0.00000000000E+00 0. -1.
         25    1    1    2    0    0  0.49600972242E+02 -0.39590723662E+01 -0.92448465034E+02  0.16324107752E+03  0.12500000000E+03 0.  0.
         25    1    1    2    0    0 -0.76547941858E+02 -0.14263897398E+03 -0.12928543764E+03  0.24196113053E+03  0.12500000000E+03 0.  0.
         25    1    1    2    0    0  0.26946969616E+02  0.14659804635E+03 -0.28454108216E+02  0.19660051536E+03  0.12500000000E+03 0.  0.
</event>
<event>
 5    0  0.5597833E-005  0.3762581E+03  0.7546771E-02  0.1052326E+00
         21   -1    0    0  502  501  0.00000000000E+00  0.00000000000E+00  0.81898781356E+03  0.81898781356E+03  0.00000000000E+00 0.  1.
         21   -1    0    0  501  502 -0.00000000000E+00 -0.00000000000E+00 -0.17285987910E+03  0.17285987910E+03  0.00000000000E+00 0.  1.
         25    1    1    2    0    0  0.12718572072E+03  0.27030706640E+03  0.38931650321E+03  0.50639357952E+03  0.12500000000E+03 0.  0.
         25    1    1    2    0    0 -0.14254098719E+02 -0.73868049978E+02  0.50118960956E+02  0.15426139629E+03  0.12500000000E+03 0.  0.
         25    1    1    2    0    0 -0.11293162200E+03 -0.19643901643E+03  0.20669247029E+03  0.33119271685E+03  0.12500000000E+03 0.  0.
</event>
<event>
 5    0  0.5597833E-005  0.2879070E+03  0.7546771E-02  0.1091447E+00
         21   -1    0    0  502  501  0.00000000000E+00  0.00000000000E+00  0.18133675455E+03  0.18133675455E+03  0.00000000000E+00 0.  1.
         21   -1    0    0  501  502 -0.00000000000E+00 -0.00000000000E+00 -0.45710773936E+03  0.45710773936E+03  0.00000000000E+00 0.  1.
         25    1    1    2    0    0 -0.81015260544E+02  0.41691298233E+02  0.43553774140E+02  0.16069713137E+03  0.12500000000E+03 0.  0.
         25    1    1    2    0    0 -0.80132777740E+02 -0.97848468301E+01 -0.13997971631E+03  0.20429470447E+03  0.12500000000E+03 0.  0.
         25    1    1    2    0    0  0.16114803828E+03 -0.31906451403E+02 -0.17934504265E+03  0.27345265807E+03  0.12500000000E+03 0.  0.
</event>
<event>
 5    0  0.5597833E-005  0.3362177E+03  0.7546771E-02  0.1068418E+00
         21   -1    0    0  502  501  0.00000000000E+00  0.00000000000E+00  0.29084753273E+03  0.29084753273E+03  0.00000000000E+00 0.  1.
         21   -1    0    0  501  502 -0.00000000000E+00 -0.00000000000E+00 -0.38866535187E+03  0.38866535187E+03  0.00000000000E+00 0.  1.
         25    1    1    2    0    0 -0.52032258768E+02 -0.11686839991E+03 -0.41725583968E+02  0.18366165416E+03  0.12500000000E+03 0.  0.
         25    1    1    2    0    0 -0.14814238453E+03  0.14954898301E+03  0.20287963642E+02  0.24565761922E+03  0.12500000000E+03 0.  0.
         25    1    1    2    0    0  0.20017464329E+03 -0.32680583094E+02 -0.76380198816E+02  0.25019361123E+03  0.12500000000E+03 0.  0.
</event>
<event>
 5    0  0.5597833E-005  0.2884556E+03  0.7546771E-02  0.1091158E+00
         21   -1    0    0  502  501  0.00000000000E+00  0.00000000000E+00  0.34076617872E+02  0.34076617872E+02  0.00000000000E+00 0. -1.
         21   -1    0    0  501  502 -0.00000000000E+00 -0.00000000000E+00 -0.24417512594E+04  0.24417512594E+04  0.00000000000E+00 0. -1.
         25    1    1    2    0    0 -0.87573907437E+02 -0.11562150946E+03 -0.98831084739E+03  0.10066880618E+04  0.12500000000E+03 0.  0.
         25    1    1    2    0    0  0.12227978725E+03  0.19984972737E+02 -0.10701709464E+04  0.10845471866E+04  0.12500000000E+03 0.  0.
         25    1    1    2    0    0 -0.34705879815E+02  0.95636536720E+02 -0.34919284781E+03  0.38459262891E+03  0.12500000000E+03 0.  0.
</event>
<event>
 5    0  0.5597833E-005  0.3911822E+03  0.7546771E-02  0.1046876E+00
         21   -1    0    0  502  501  0.00000000000E+00  0.00000000000E+00  0.19768698223E+03  0.19768698223E+03  0.00000000000E+00 0. -1.
         21   -1    0    0  501  502 -0.00000000000E+00 -0.00000000000E+00 -0.77406988615E+03  0.77406988615E+03  0.00000000000E+00 0. -1.
         25    1    1    2    0    0 -0.18412706540E+03  0.81817672934E+02 -0.55021279515E+03  0.59912939150E+03  0.12500000000E+03 0.  0.
         25    1    1    2    0    0  0.83998049920E+02 -0.12815951292E+03 -0.50590979882E+02  0.20412001467E+03  0.12500000000E+03 0.  0.
         25    1    1    2    0    0  0.10012901548E+03  0.46341839990E+02  0.24420871110E+02  0.16850746221E+03  0.12500000000E+03 0.  0.
</event>
<event>
 5    0  0.5597833E-005  0.2557619E+03  0.7546771E-02  0.1109717E+00
         21   -1    0    0  502  501  0.00000000000E+00  0.00000000000E+00  0.15631706666E+03  0.15631706666E+03  0.00000000000E+00 0. -1.
         21   -1    0    0  501  502 -0.00000000000E+00 -0.00000000000E+00 -0.41847103085E+03  0.41847103085E+03  0.00000000000E+00 0. -1.
         25    1    1    2    0    0 -0.40274823953E+02  0.69515727515E+02 -0.24256212573E+02  0.15055849915E+03  0.12500000000E+03 0.  0.
         25    1    1    2    0    0 -0.25877160417E+02 -0.32818309797E+02  0.14495184386E+02  0.13259630183E+03  0.12500000000E+03 0.  0.
         25    1    1    2    0    0  0.66151984370E+02 -0.36697417718E+02 -0.25239293600E+03  0.29163329654E+03  0.12500000000E+03 0.  0.
</event>
<event>
 5    0  0.5597833E-005  0.2673831E+03  0.7546771E-02  0.1102787E+00
         21   -1    0    0  502  501  0.00000000000E+00  0.00000000000E+00  0.22650135700E+03  0.22650135700E+03  0.00000000000E+00 0. -1.
         21   -1    0    0  501  502 -0.00000000000E+00 -0.00000000000E+00 -0.31564362075E+03  0.31564362075E+03  0.00000000000E+00 0. -1.
         25    1    1    2    0    0  0.30323017339E+02  0.57509703065E+02  0.39273728336E+02  0.14626782648E+03  0.12500000000E+03 0.  0.
         25    1    1    2    0    0  0.46414580033E+02 -0.11766254735E+03  0.19701821818E+02  0.17891883655E+03  0.12500000000E+03 0.  0.
         25    1    1    2    0    0 -0.76737597371E+02  0.60152844287E+02 -0.14811781390E+03  0.21695831471E+03  0.12500000000E+03 0.  0.
</event>
<event>
 5    0  0.5597833E-005  0.4441495E+03  0.7546771E-02  0.1029481E+00
         21   -1    0    0  502  501  0.00000000000E+00  0.00000000000E+00  0.19245189244E+03  0.19245189244E+03  0.00000000000E+00 0.  1.
         21   -1    0    0  501  502 -0.00000000000E+00 -0.00000000000E+00 -0.10250290437E+04  0.10250290437E+04  0.00000000000E+00 0.  1.
         25    1    1    2    0    0 -0.17400187813E+03  0.32993612090E+03 -0.47359865627E+03  0.61567457694E+03  0.12500000000E+03 0.  0.
         25    1    1    2    0    0  0.52178831185E+02 -0.44357814801E+02 -0.15155467606E+03  0.20804822997E+03  0.12500000000E+03 0.  0.
         25    1    1    2    0    0  0.12182304694E+03 -0.28557830610E+03 -0.20742381894E+03  0.39375812924E+03  0.12500000000E+03 0.  0.
</event>
<event>
 5    0  0.5597833E-005  0.3224141E+03  0.7546771E-02  0.1074544E+00
         21   -1    0    0  502  501  0.00000000000E+00  0.00000000000E+00  0.32791738944E+03  0.32791738944E+03  0.00000000000E+00 0. -1.
         21   -1    0    0  501  502 -0.00000000000E+00 -0.00000000000E+00 -0.31700323665E+03  0.31700323665E+03  0.00000000000E+00 0. -1.
         25    1    1    2    0    0 -0.46776588242E+02 -0.40967063571E+02 -0.55017673547E+02  0.15006096730E+03  0.12500000000E+03 0.  0.
         25    1    1    2    0    0  0.51011258149E+02  0.21924004217E+03  0.96477654347E+02  0.27495687360E+03  0.12500000000E+03 0.  0.
         25    1    1    2    0    0 -0.42346699068E+01 -0.17827297860E+03 -0.30545828009E+02  0.21990278520E+03  0.12500000000E+03 0.  0.
</event>
<event>
 5    0  0.5983865E-005  0.3468373E+03  0.7546771E-02  0.1063921E+00
         21   -1    0    0  502  501  0.00000000000E+00  0.00000000000E+00  0.34896332676E+03  0.34896332676E+03  0.00000000000E+00 0.  1.
         21   -1    0    0  501  502 -0.00000000000E+00 -0.00000000000E+00 -0.34472426947E+03  0.34472426947E+03  0.00000000000E+00 0.  1.
         25    1    1    2    0    0 -0.82594644797E+02  0.11164359856E+02  0.13378593871E+03  0.20117205491E+03  0.12500000000E+03 0.  0.
         25    1    1    2    0    0  0.21445407578E+03 -0.99063856330E+02 -0.11245024272E+03  0.28995560925E+03  0.12500000000E+03 0.  0.
         25    1    1    2    0    0 -0.13185943098E+03  0.87899496474E+02 -0.17096638706E+02  0.20255993206E+03  0.12500000000E+03 0.  0.
</event>
<event>
 5    0  0.5597833E-005  0.3230144E+03  0.7546771E-02  0.1074270E+00
         21   -1    0    0  502  501  0.00000000000E+00  0.00000000000E+00  0.68685043867E+02  0.68685043867E+02  0.00000000000E+00 0.  1.
         21   -1    0    0  501  502 -0.00000000000E+00 -0.00000000000E+00 -0.15190829466E+04  0.15190829466E+04  0.00000000000E+00 0.  1.
         25    1    1    2    0    0  0.10300196324E+02  0.51489122188E+02 -0.12977140712E+03  0.18767749426E+03  0.12500000000E+03 0.  0.
         25    1    1    2    0    0 -0.17646639224E+03  0.36580584945E+02 -0.44924125589E+03  0.49992122658E+03  0.12500000000E+03 0.  0.
         25    1    1    2    0    0  0.16616619591E+03 -0.88069707133E+02 -0.87138523975E+03  0.90016926966E+03  0.12500000000E+03 0.  0.
</event>
<event>
 5    0  0.5597833E-005  0.3707210E+03  0.7546771E-02  0.1054418E+00
         21   -1    0    0  502  501  0.00000000000E+00  0.00000000000E+00  0.56953781209E+03  0.56953781209E+03  0.00000000000E+00 0. -1.
         21   -1    0    0  501  502 -0.00000000000E+00 -0.00000000000E+00 -0.24130800052E+03  0.24130800052E+03  0.00000000000E+00 0. -1.
         25    1    1    2    0    0  0.75566020287E+02  0.84956248611E+01 -0.12968870974E+03  0.19551613871E+03  0.12500000000E+03 0.  0.
         25    1    1    2    0    0  0.14303420223E+01 -0.14911966163E+03  0.30143029697E+03  0.35878119138E+03  0.12500000000E+03 0.  0.
         25    1    1    2    0    0 -0.76996362310E+02  0.14062403677E+03  0.15648822434E+03  0.25654848252E+03  0.12500000000E+03 0.  0.
</event>
<event>
 5    0  0.5597833E-005  0.2815390E+03  0.7546771E-02  0.1094851E+00
         21   -1    0    0  502  501  0.00000000000E+00  0.00000000000E+00  0.10905472807E+04  0.10905472807E+04  0.00000000000E+00 0.  1.
         21   -1    0    0  501  502 -0.00000000000E+00 -0.00000000000E+00 -0.72682962604E+02  0.72682962604E+02  0.00000000000E+00 0.  1.
         25    1    1    2    0    0  0.76896037932E+02 -0.14266990299E+02  0.23881164508E+03  0.28066447849E+03  0.12500000000E+03 0.  0.
         25    1    1    2    0    0  0.77715912821E+02 -0.10668075277E+03  0.35611808450E+03  0.39983201001E+03  0.12500000000E+03 0.  0.
         25    1    1    2    0    0 -0.15461195075E+03  0.12094774307E+03  0.42293458853E+03  0.48273375482E+03  0.12500000000E+03 0.  0.
</event>
<event>
 5    0  0.5692800E-005  0.2914253E+03  0.7546771E-02  0.1089607E+00
         21   -1    0    0  502  501  0.00000000000E+00  0.00000000000E+00  0.12614475865E+03  0.12614475865E+03  0.00000000000E+00 0. -1.
         21   -1    0    0  501  502 -0.00000000000E+00 -0.00000000000E+00 -0.67326404360E+03  0.67326404360E+03  0.00000000000E+00 0. -1.
         25    1    1    2    0    0  0.25279285766E+02 -0.87505268537E+02  0.87006045995E+01  0.15490937619E+03  0.12500000000E+03 0.  0.
         25    1    1    2    0    0  0.72320203374E+02  0.56372760646E+02 -0.35010070953E+03  0.38288850436E+03  0.12500000000E+03 0.  0.
         25    1    1    2    0    0 -0.97599489140E+02  0.31132507891E+02 -0.20571918002E+03  0.26161092171E+03  0.12500000000E+03 0.  0.
</event>
<event>
 5    0  0.5597833E-005  0.3118554E+03  0.7546771E-02  0.1079460E+00
         21   -1    0    0  502  501  0.00000000000E+00  0.00000000000E+00  0.95701222279E+02  0.95701222279E+02  0.00000000000E+00 0.  1.
         21   -1    0    0  501  502 -0.00000000000E+00 -0.00000000000E+00 -0.10162230261E+04  0.10162230261E+04  0.00000000000E+00 0.  1.
         25    1    1    2    0    0  0.83738501102E+02  0.10185495393E+03 -0.27774047143E+03  0.33189055075E+03  0.12500000000E+03 0.  0.
         25    1    1    2    0    0 -0.18943162580E+03 -0.13523785741E+03 -0.47336263321E+03  0.54209851637E+03  0.12500000000E+03 0.  0.
         25    1    1    2    0    0  0.10569312469E+03  0.33382903473E+02 -0.16941869919E+03  0.23793518127E+03  0.12500000000E+03 0.  0.
</event>
<event>
 5    0  0.5597833E-005  0.2999209E+03  0.7546771E-02  0.1085280E+00
         21   -1    0    0  502  501  0.00000000000E+00  0.00000000000E+00  0.26375438251E+03  0.26375438251E+03  0.00000000000E+00 0. -1.
         21   -1    0    0  501  502 -0.00000000000E+00 -0.00000000000E+00 -0.34104663476E+03  0.34104663476E+03  0.00000000000E+00 0. -1.
         25    1    1    2    0    0 -0.10174695913E+03  0.53456541465E+02 -0.15999323740E+03  0.23330855435E+03  0.12500000000E+03 0.  0.
         25    1    1    2    0    0  0.90745299005E+02  0.67521399529E+02 -0.19068765308E+02  0.16965396104E+03  0.12500000000E+03 0.  0.
         25    1    1    2    0    0  0.11001660128E+02 -0.12097794099E+03  0.10176975046E+03  0.20183850188E+03  0.12500000000E+03 0.  0.
</event>
<event>
 5    0  0.5597833E-005  0.3424749E+03  0.7546771E-02  0.1065747E+00
         21   -1    0    0  502  501  0.00000000000E+00  0.00000000000E+00  0.45332877694E+02  0.45332877694E+02  0.00000000000E+00 0.  1.
         21   -1    0    0  501  502 -0.00000000000E+00 -0.00000000000E+00 -0.25872839027E+04  0.25872839027E+04  0.00000000000E+00 0.  1.
         25    1    1    2    0    0  0.10025642016E+03  0.88836552105E+02 -0.34767865121E+03  0.39299965303E+03  0.12500000000E+03 0.  0.
         25    1    1    2    0    0 -0.13224764577E+02 -0.89432877088E+01 -0.18546475958E+04  0.18589237697E+04  0.12500000000E+03 0.  0.
         25    1    1    2    0    0 -0.87031655588E+02 -0.79893264396E+02 -0.33962477797E+03  0.38069335768E+03  0.12500000000E+03 0.  0.
</event>
<event>
 5    0  0.5597833E-005  0.2937438E+03  0.7546771E-02  0.1088410E+00
         21   -1    0    0  502  501  0.00000000000E+00  0.00000000000E+00  0.79533504979E+03  0.79533504979E+03  0.00000000000E+00 0. -1.
         21   -1    0    0  501  502 -0.00000000000E+00 -0.00000000000E+00 -0.10848941196E+03  0.10848941196E+03  0.00000000000E+00 0. -1.
         25    1    1    2    0    0  0.28552926195E+02  0.19995753288E+02  0.19572541695E+02  0.13123712940E+03  0.12500000000E+03 0.  0.
         25    1    1    2    0    0 -0.11278913979E+03 -0.44313487156E+01  0.12554905854E+03  0.21006806755E+03  0.12500000000E+03 0.  0.
         25    1    1    2    0    0  0.84236213591E+02 -0.15564404573E+02  0.54172403759E+03  0.56251926480E+03  0.12500000000E+03 0.  0.
</event>
<event>
 5    0  0.5597833E-005  0.2365157E+03  0.7546771E-02  0.1122136E+00
         21   -1    0    0  502  501  0.00000000000E+00  0.00000000000E+00  0.14786829360E+03  0.14786829360E+03  0.00000000000E+00 0. -1.
         21   -1    0    0  501  502 -0.00000000000E+00 -0.00000000000E+00 -0.37830737939E+03  0.37830737939E+03  0.00000000000E+00 0. -1.
         25    1    1    2    0    0 -0.41849874090E+02 -0.12728364557E+00 -0.88325299093E+02  0.15867509768E+03  0.12500000000E+03 0.  0.
         25    1    1    2    0    0  0.11485777663E+02  0.66348520725E+02 -0.16859612770E+03  0.22041711269E+03  0.12500000000E+03 0.  0.
         25    1    1    2    0    0  0.30364096426E+02 -0.66221237080E+02  0.26482341000E+02  0.14708346262E+03  0.12500000000E+03 0.  0.
</event>
<event>
 5    0  0.5597833E-005  0.5033359E+03  0.7546771E-02  0.1012912E+00
         21   -1    0    0  502  501  0.00000000000E+00  0.00000000000E+00  0.26738522244E+03  0.26738522244E+03  0.00000000000E+00 0. -1.
         21   -1    0    0  501  502 -0.00000000000E+00 -0.00000000000E+00 -0.94749822482E+03  0.94749822482E+03  0.00000000000E+00 0. -1.
         25    1    1    2    0    0  0.23525449440E+03 -0.78923916856E+02  0.52004299737E+02  0.28267137984E+03  0.12500000000E+03 0.  0.
         25    1    1    2    0    0 -0.70378037481E+02  0.24139977463E+03 -0.53240808632E+03  0.60192216252E+03  0.12500000000E+03 0.  0.
         25    1    1    2    0    0 -0.16487645692E+03 -0.16247585777E+03 -0.19970921580E+03  0.33028990490E+03  0.12500000000E+03 0.  0.
</event>
<event>
 5    0  0.5597833E-005  0.2634382E+03  0.7546771E-02  0.1105095E+00
         21   -1    0    0  502  501  0.00000000000E+00  0.00000000000E+00  0.12339292168E+03  0.12339292168E+03  0.00000000000E+00 0.  1.
         21   -1    0    0  501  502 -0.00000000000E+00 -0.00000000000E+00 -0.56242852281E+03  0.56242852281E+03  0.00000000000E+00 0.  1.
         25    1    1    2    0    0  0.15180464627E+03  0.84119749045E+02 -0.14945766514E+03  0.26092791433E+03  0.12500000000E+03 0.  0.
         25    1    1    2    0    0 -0.10520000936E+03 -0.26298675761E+02 -0.15012844633E+03  0.22343279239E+03  0.12500000000E+03 0.  0.
         25    1    1    2    0    0 -0.46604636911E+02 -0.57821073284E+02 -0.13944948966E+03  0.20146073777E+03  0.12500000000E+03 0.  0.
</event>
<event>
 5    0  0.5597833E-005  0.6118625E+03  0.7546771E-02  0.9881096E-01
         21   -1    0    0  502  501  0.00000000000E+00  0.00000000000E+00  0.37554908180E+03  0.37554908180E+03  0.00000000000E+00 0. -1.
         21   -1    0    0  501  502 -0.00000000000E+00 -0.00000000000E+00 -0.99687555336E+03  0.99687555336E+03  0.00000000000E+00 0. -1.
         25    1    1    2    0    0 -0.17194492616E+03  0.56361123231E+01  0.72938074398E+02  0.22481500415E+03  0.12500000000E+03 0.  0.
         25    1    1    2    0    0 -0.25539908960E+02  0.31514011181E+03 -0.66837229727E+03  0.74987472606E+03  0.12500000000E+03 0.  0.
         25    1    1    2    0    0  0.19748483512E+03 -0.32077622414E+03 -0.25892248684E+02  0.39773490495E+03  0.12500000000E+03 0.  0.
</event>
<event>
 5    0  0.5597833E-005  0.3565736E+03  0.7546771E-02  0.1059949E+00
         21   -1    0    0  502  501  0.00000000000E+00  0.00000000000E+00  0.57569740672E+03  0.57569740672E+03  0.00000000000E+00 0. -1.
         21   -1    0    0  501  502 -0.00000000000E+00 -0.00000000000E+00 -0.22085335209E+03  0.22085335209E+03  0.00000000000E+00 0. -1.
         25    1    1    2    0    0 -0.62476452358E+01  0.12362282338E+02 -0.41253345316E+02  0.13235821695E+03  0.12500000000E+03 0.  0.
         25    1    1    2    0    0 -0.19696277165E+03 -0.11328559002E+03  0.12049644384E+03  0.28595865313E+03  0.12500000000E+03 0.  0.
         25    1    1    2    0    0  0.20321041689E+03  0.10092330769E+03  0.27560095611E+03  0.37823388872E+03  0.12500000000E+03 0.  0.
</event>
<event>
 5    0  0.6132773E-005  0.3349099E+03  0.7546771E-02  0.1068985E+00
         21   -1    0    0  502  501  0.00000000000E+00  0.00000000000E+00  0.11103666534E+03  0.11103666534E+03  0.00000000000E+00 0. -1.
         21   -1    0    0  501  502 -0.00000000000E+00 -0.00000000000E+00 -0.10101585587E+04  0.10101585587E+04  0.00000000000E+00 0. -1.
         25    1    1    2    0    0 -0.52181355129E+02  0.17406822540E+03 -0.45638716867E+03  0.50688942447E+03  0.12500000000E+03 0.  0.
         25    1    1    2    0    0 -0.11758006259E+03 -0.10807500122E+03 -0.18120998267E+03  0.27196936377E+03  0.12500000000E+03 0.  0.
         25    1    1    2    0    0  0.16976141772E+03 -0.65993224171E+02 -0.26152474198E+03  0.34233643576E+03  0.12500000000E+03 0.  0.
</event>
<event>
 5    0  0.5597833E-005  0.2869875E+03  0.7546771E-02  0.1091933E+00
         21   -1    0    0  502  501  0.00000000000E+00  0.00000000000E+00  0.17027651645E+04  0.17027651645E+04  0.00000000000E+00 0.  1.
         21   -1    0    0  501  502 -0.00000000000E+00 -0.00000000000E+00 -0.48369461960E+02  0.48369461960E+02  0.00000000000E+00 0.  1.
         25    1    1    2    0    0  0.12853721806E+03 -0.52498312042E+02  0.32572903512E+03  0.37550272105E+03  0.12500000000E+03 0.  0.
         25    1    1    2    0    0 -0.11189044152E+03  0.22028793759E+02  0.35388806696E+03  0.39225820909E+03  0.12500000000E+03 0.  0.
         25    1    1    2    0    0 -0.16646776545E+02  0.30469518283E+02  0.97477860048E+03  0.98337369634E+03  0.12500000000E+03 0.  0.
</event>
<event>
 5    0  0.5597833E-005  0.2881318E+03  0.7546771E-02  0.1091329E+00
         21   -1    0    0  502  501  0.00000000000E+00  0.00000000000E+00  0.82973809383E+03  0.82973809383E+03  0.00000000000E+00 0.  1.
         21   -1    0    0  501  502 -0.00000000000E+00 -0.00000000000E+00 -0.10005558998E+03  0.10005558998E+03  0.00000000000E+00 0.  1.
         25    1    1    2    0    0 -0.62632897986E+02 -0.10269435989E+03  0.21689466739E+03  0.27773604052E+03  0.12500000000E+03 0.  0.
         25    1    1    2    0    0  0.79518747127E+01  0.19692729165E+03  0.25630071839E+03  0.34663907564E+03  0.12500000000E+03 0.  0.
         25    1    1    2    0    0  0.54681023274E+02 -0.94232931756E+02  0.25648711807E+03  0.30541856766E+03  0.12500000000E+03 0.  0.
</event>
<event>
 5    0  0.5597833E-005  0.4097920E+03  0.7546771E-02  0.1040441E+00
         21   -1    0    0  502  501  0.00000000000E+00  0.00000000000E+00  0.17075392777E+03  0.17075392777E+03  0.00000000000E+00 0.  1.
         21   -1    0    0  501  502 -0.00000000000E+00 -0.00000000000E+00 -0.98345900951E+03  0.98345900951E+03  0.00000000000E+00 0.  1.
         25    1    1    2    0    0  0.11678297145E+03  0.12902251680E+03 -0.49460740164E+03  0.53902370451E+03  0.12500000000E+03 0.  0.
         25    1    1    2    0    0 -0.21687985971E+03 -0.25565594470E+02 -0.34032698255E+03  0.42324688803E+03  0.12500000000E+03 0.  0.
         25    1    1    2    0    0  0.10009688826E+03 -0.10345692233E+03  0.22229302459E+02  0.19194234474E+03  0.12500000000E+03 0.  0.
</event>
<event>
 5    0  0.5634196E-005  0.3170534E+03  0.7546771E-02  0.1077013E+00
         21   -1    0    0  502  501  0.00000000000E+00  0.00000000000E+00  0.65496881807E+03  0.65496881807E+03  0.00000000000E+00 0. -1.
         21   -1    0    0  501  502 -0.00000000000E+00 -0.00000000000E+00 -0.15347729627E+03  0.15347729627E+03  0.00000000000E+00 0. -1.
         25    1    1    2    0    0 -0.16353279416E+03  0.11793929876E+03  0.15547162457E+03  0.28363546852E+03  0.12500000000E+03 0.  0.
         25    1    1    2    0    0  0.44434006010E+02 -0.13607986264E+03  0.28141314127E+03  0.33957394774E+03  0.12500000000E+03 0.  0.
         25    1    1    2    0    0  0.11909878815E+03  0.18140563881E+02  0.64606755955E+02  0.18523669807E+03  0.12500000000E+03 0.  0.
</event>
<event>
 5    0  0.5597833E-005  0.4111043E+03  0.7546771E-02  0.1040001E+00
         21   -1    0    0  502  501  0.00000000000E+00  0.00000000000E+00  0.14056484390E+04  0.14056484390E+04  0.00000000000E+00 0.  1.
         21   -1    0    0  501  502 -0.00000000000E+00 -0.00000000000E+00 -0.12023401348E+03  0.12023401348E+03  0.00000000000E+00 0.  1.
         25    1    1    2    0    0  0.54881071841E+02  0.11217408857E+03  0.10607064491E+03  0.20608478814E+03  0.12500000000E+03 0.  0.
         25    1    1    2    0    0 -0.28722323170E+03 -0.33023139532E+02  0.57437041554E+03  0.65506800168E+03  0.12500000000E+03 0.  0.
         25    1    1    2    0    0  0.23234215985E+03 -0.79150949036E+02  0.60497336505E+03  0.66472966265E+03  0.12500000000E+03 0.  0.
</event>
<event>
 5    0  0.5597833E-005  0.4232648E+03  0.7546771E-02  0.1036009E+00
         21   -1    0    0  502  501  0.00000000000E+00  0.00000000000E+00  0.81751416146E+03  0.81751416146E+03  0.00000000000E+00 0.  1.
         21   -1    0    0  501  502 -0.00000000000E+00 -0.00000000000E+00 -0.21914366796E+03  0.21914366796E+03  0.00000000000E+00 0.  1.
         25    1    1    2    0    0  0.96900852149E+02 -0.19779284337E+02  0.71449668407E+03  0.73205976995E+03  0.12500000000E+03 0.  0.
         25    1    1    2    0    0 -0.20508683058E+02  0.31077445150E+02 -0.80981596244E+02  0.15352339433E+03  0.12500000000E+03 0.  0.
         25    1    1    2    0    0 -0.76392169091E+02 -0.11298160814E+02 -0.35144594320E+02  0.15107466514E+03  0.12500000000E+03 0.  0.
</event>
<event>
 5    0  0.5597833E-005  0.3671174E+03  0.7546771E-02  0.1055801E+00
         21   -1    0    0  502  501  0.00000000000E+00  0.00000000000E+00  0.41674314383E+03  0.41674314383E+03  0.00000000000E+00 0. -1.
         21   -1    0    0  501  502 -0.00000000000E+00 -0.00000000000E+00 -0.32340115145E+03  0.32340115145E+03  0.00000000000E+00 0. -1.
         25    1    1    2    0    0 -0.55070350424E+02 -0.12954310107E+03 -0.13630085849E+02  0.18874569604E+03  0.12500000000E+03 0.  0.
         25    1    1    2    0    0  0.30768155645E+02  0.10559604103E+03 -0.17471144841E+03  0.24134268891E+03  0.12500000000E+03 0.  0.
         25    1    1    2    0    0  0.24302194779E+02  0.23947060041E+02  0.28168352664E+03  0.31005591034E+03  0.12500000000E+03 0.  0.
</event>
<event>
 5    0  0.5597833E-005  0.2606166E+03  0.7546771E-02  0.1106773E+00
         21   -1    0    0  502  501  0.00000000000E+00  0.00000000000E+00  0.36025192830E+03  0.36025192830E+03  0.00000000000E+00 0.  1.
         21   -1    0    0  501  502 -0.00000000000E+00 -0.00000000000E+00 -0.18853758975E+03  0.18853758975E+03  0.00000000000E+00 0.  1.
         25    1    1    2    0    0  0.75976398652E+02  0.78953243341E+02  0.12795895780E+03  0.20977254984E+03  0.12500000000E+03 0.  0.
         25    1    1    2    0    0  0.59205745291E+02 -0.86299604070E+01  0.88866255277E+01  0.13886600954E+03  0.12500000000E+03 0.  0.
         25    1    1    2    0    0 -0.13518214394E+03 -0.70323282934E+02  0.34868755230E+02  0.20015095867E+03  0.12500000000E+03 0.  0.
</event>
<event>
 5    0  0.5597833E-005  0.2512828E+03  0.7546771E-02  0.1112497E+00
         21   -1    0    0  502  501  0.00000000000E+00  0.00000000000E+00  0.45846482841E+02  0.45846482841E+02  0.00000000000E+00 0.  1.
         21   -1    0    0  501  502 -0.00000000000E+00 -0.00000000000E+00 -0.13772707986E+04  0.13772707986E+04  0.00000000000E+00 0.  1.
         25    1    1    2    0    0 -0.63039464106E+02 -0.35007332712E+01 -0.22324515840E+03  0.26353297691E+03  0.12500000000E+03 0.  0.
         25    1    1    2    0    0  0.25840546650E+02 -0.99434383771E+02 -0.38601063351E+03  0.41855004445E+03  0.12500000000E+03 0.  0.
         25    1    1    2    0    0  0.37198917456E+02  0.10293511704E+03 -0.72216852388E+03  0.74103426011E+03  0.12500000000E+03 0.  0.
</event>
<event>
 5    0  0.5597833E-005  0.4853770E+03  0.7546771E-02  0.1017668E+00
         21   -1    0    0  502  501  0.00000000000E+00  0.00000000000E+00  0.43085049824E+03  0.43085049824E+03  0.00000000000E+00 0. -1.
         21   -1    0    0  501  502 -0.00000000000E+00 -0.00000000000E+00 -0.54680414012E+03  0.54680414012E+03  0.00000000000E+00 0. -1.
         25    1    1    2    0    0  0.33219643111E+03  0.23958857923E+03  0.63219827339E+02  0.43287284820E+03  0.12500000000E+03 0.  0.
         25    1    1    2    0    0 -0.43042947051E+02 -0.97586797030E+02 -0.92375871350E+02  0.18850511890E+03  0.12500000000E+03 0.  0.
         25    1    1    2    0    0 -0.28915348406E+03 -0.14200178220E+03 -0.86797597872E+02  0.35627667126E+03  0.12500000000E+03 0.  0.
</event>
<event>
 5    0  0.5597833E-005  0.2700830E+03  0.7546771E-02  0.1101232E+00
         21   -1    0    0  502  501  0.00000000000E+00  0.00000000000E+00  0.97844232910E+02  0.97844232910E+02  0.00000000000E+00 0. -1.
         21   -1    0    0  501  502 -0.00000000000E+00 -0.00000000000E+00 -0.74551967851E+03  0.74551967851E+03  0.00000000000E+00 0. -1.
         25    1    1    2    0    0  0.26225615446E+02 -0.89711777929E+01  0.19201438776E+02  0.12946798905E+03  0.12500000000E+03 0.  0.
         25    1    1    2    0    0 -0.49266318553E+01  0.21484841781E+02 -0.35407446529E+03  0.37613773687E+03  0.12500000000E+03 0.  0.
         25    1    1    2    0    0 -0.21298983591E+02 -0.12513663988E+02 -0.31280241909E+03  0.33775818550E+03  0.12500000000E+03 0.  0.
</event>
<event>
 5    0  0.5597833E-005  0.8543312E+03  0.7546771E-02  0.9484542E-01
         21   -1    0    0  502  501  0.00000000000E+00  0.00000000000E+00  0.10261992833E+04  0.10261992833E+04  0.00000000000E+00 0. -1.
         21   -1    0    0  501  502 -0.00000000000E+00 -0.00000000000E+00 -0.71124765499E+03  0.71124765499E+03  0.00000000000E+00 0. -1.
         25    1    1    2    0    0 -0.23539389874E+03  0.43440917657E+02  0.18366872115E+03  0.32658322067E+03  0.12500000000E+03 0.  0.
         25    1    1    2    0    0  0.51736244502E+03  0.33013478702E+03 -0.35875094450E+03  0.72178952424E+03  0.12500000000E+03 0.  0.
         25    1    1    2    0    0 -0.28196854628E+03 -0.37357570467E+03  0.49003385162E+03  0.68907419335E+03  0.12500000000E+03 0.  0.
</event>
<event>
 5    0  0.5597833E-005  0.2883892E+03  0.7546771E-02  0.1091193E+00
         21   -1    0    0  502  501  0.00000000000E+00  0.00000000000E+00  0.40341754499E+02  0.40341754499E+02  0.00000000000E+00 0. -1.
         21   -1    0    0  501  502 -0.00000000000E+00 -0.00000000000E+00 -0.20615940981E+04  0.20615940981E+04  0.00000000000E+00 0. -1.
         25    1    1    2    0    0 -0.37175635169E+02  0.62275735409E+02 -0.33835422251E+03  0.36792509422E+03  0.12500000000E+03 0.  0.
         25    1    1    2    0    0 -0.29367288830E+02 -0.15885039978E+03 -0.52222056805E+03  0.56074522634E+03  0.12500000000E+03 0.  0.
         25    1    1    2    0    0  0.66542923999E+02  0.96574664372E+02 -0.11606775531E+04  0.11732655321E+04  0.12500000000E+03 0.  0.
</event>
<event>
 5    0  0.5597833E-005  0.3169416E+03  0.7546771E-02  0.1077066E+00
         21   -1    0    0  502  501  0.00000000000E+00  0.00000000000E+00  0.29917738946E+03  0.29917738946E+03  0.00000000000E+00 0.  1.
         21   -1    0    0  501  502 -0.00000000000E+00 -0.00000000000E+00 -0.33576053492E+03  0.33576053492E+03  0.00000000000E+00 0.  1.
         25    1    1    2    0    0 -0.80031198678E+02 -0.45037910296E+01 -0.78284850741E+01  0.14869956985E+03  0.12500000000E+03 0.  0.
         25    1    1    2    0    0 -0.46668771777E+02 -0.54053674880E+02 -0.19045561645E+03  0.23874278181E+03  0.12500000000E+03 0.  0.
         25    1    1    2    0    0  0.12669997045E+03  0.58557465910E+02  0.16170095606E+03  0.24749557272E+03  0.12500000000E+03 0.  0.
</event>
<event>
 5    0  0.5597833E-005  0.2608077E+03  0.7546771E-02  0.1106659E+00
         21   -1    0    0  502  501  0.00000000000E+00  0.00000000000E+00  0.43426933083E+02  0.43426933083E+02  0.00000000000E+00 0.  1.
         21   -1    0    0  501  502 -0.00000000000E+00 -0.00000000000E+00 -0.15663244741E+04  0.15663244741E+04  0.00000000000E+00 0.  1.
         25    1    1    2    0    0  0.87075355301E+02 -0.43726984655E+01 -0.81302509806E+03  0.82718561887E+03  0.12500000000E+03 0.  0.
         25    1    1    2    0    0  0.19399055925E+02 -0.74343736411E+02 -0.33955945171E+03  0.36990395478E+03  0.12500000000E+03 0.  0.
         25    1    1    2    0    0 -0.10647441123E+03  0.78716434876E+02 -0.37031299121E+03  0.41266183350E+03  0.12500000000E+03 0.  0.
</event>
<event>
 5    0  0.5597833E-005  0.3920999E+03  0.7546771E-02  0.1046550E+00
         21   -1    0    0  502  501  0.00000000000E+00  0.00000000000E+00  0.62522377894E+03  0.62522377894E+03  0.00000000000E+00 0.  1.
         21   -1    0    0  501  502 -0.00000000000E+00 -0.00000000000E+00 -0.24589969410E+03  0.24589969410E+03  0.00000000000E+00 0.  1.
         25    1    1    2    0    0 -0.57177375692E+02 -0.18914638534E+03 -0.72629773590E+02  0.24483809220E+03  0.12500000000E+03 0.  0.
         25    1    1    2    0    0  0.67486807513E+02  0.94941343640E+02  0.26586588810E+02  0.17291666960E+03  0.12500000000E+03 0.  0.
         25    1    1    2    0    0 -0.10309431821E+02  0.94205041701E+02  0.42536726962E+03  0.45336871124E+03  0.12500000000E+03 0.  0.
</event>
<event>
 5    0  0.5597833E-005  0.2967564E+03  0.7546771E-02  0.1086873E+00
         21   -1    0    0  502  501  0.00000000000E+00  0.00000000000E+00  0.95258252522E+03  0.95258252522E+03  0.00000000000E+00 0.  1.
         21   -1    0    0  501  502 -0.00000000000E+00 -0.00000000000E+00 -0.92447996730E+02  0.92447996730E+02  0.00000000000E+00 0.  1.
         25    1    1    2    0    0  0.19149722951E+01  0.13730321770E+03  0.35852248087E+03  0.40375637456E+03  0.12500000000E+03 0.  0.
         25    1    1    2    0    0  0.50565294946E+02 -0.18799693096E+03  0.40760790308E+03  0.46868848691E+03  0.12500000000E+03 0.  0.
         25    1    1    2    0    0 -0.52480267241E+02  0.50693713267E+02  0.94004144540E+02  0.17258566049E+03  0.12500000000E+03 0.  0.
</event>
<event>
 5    0  0.5597833E-005  0.2712801E+03  0.7546771E-02  0.1100549E+00
         21   -1    0    0  502  501  0.00000000000E+00  0.00000000000E+00  0.59278815644E+03  0.59278815644E+03  0.00000000000E+00 0. -1.
         21   -1    0    0  501  502 -0.00000000000E+00 -0.00000000000E+00 -0.12414700016E+03  0.12414700016E+03  0.00000000000E+00 0. -1.
         25    1    1    2    0    0  0.43826789663E+02  0.36215031875E+02  0.17365183377E+03  0.22138716177E+03  0.12500000000E+03 0.  0.
         25    1    1    2    0    0 -0.10313971770E+03 -0.14846860079E+03  0.17124834142E+03  0.27862469601E+03  0.12500000000E+03 0.  0.
         25    1    1    2    0    0  0.59312928037E+02  0.11225356892E+03  0.12374098109E+03  0.21692329881E+03  0.12500000000E+03 0.  0.
</event>
<event>
 5    0  0.5597833E-005  0.4588512E+03  0.7546771E-02  0.1025115E+00
         21   -1    0    0  502  501  0.00000000000E+00  0.00000000000E+00  0.15531200492E+03  0.15531200492E+03  0.00000000000E+00 0.  1.
         21   -1    0    0  501  502 -0.00000000000E+00 -0.00000000000E+00 -0.13556223505E+04  0.13556223505E+04  0.00000000000E+00 0.  1.
         25    1    1    2    0    0 -0.29030999725E+03 -0.14187583734E+03 -0.52919058624E+03  0.63251586880E+03  0.12500000000E+03 0.  0.
         25    1    1    2    0    0  0.10689342525E+03  0.25357801422E+03 -0.46974381317E+03  0.55858057939E+03  0.12500000000E+03 0.  0.
         25    1    1    2    0    0  0.18341657200E+03 -0.11170217688E+03 -0.20137594616E+03  0.31983790722E+03  0.12500000000E+03 0.  0.
</event>
<event>
 5    0  0.5597833E-005  0.3243615E+03  0.7546771E-02  0.1073659E+00
         21   -1    0    0  502  501  0.00000000000E+00  0.00000000000E+00  0.77228600241E+03  0.77228600241E+03  0.00000000000E+00 0. -1.
         21   -1    0    0  501  502 -0.00000000000E+00 -0.00000000000E+00 -0.13623238869E+03  0.13623238869E+03  0.00000000000E+00 0. -1.
         25    1    1    2    0    0 -0.53497671426E+01  0.10315726313E+02  0.40636921219E+03  0.42531866975E+03  0.12500000000E+03 0.  0.
         25    1    1    2    0    0  0.40124040619E+02  0.14212374397E+03  0.21964571436E+02  0.19472169791E+03  0.12500000000E+03 0.  0.
         25    1    1    2    0    0 -0.34774273477E+02 -0.15243947029E+03  0.20771983009E+03  0.28847802344E+03  0.12500000000E+03 0.  0.
</event>
<event>
 5    0  0.5597833E-005  0.2978687E+03  0.7546771E-02  0.1086311E+00
         21   -1    0    0  502  501  0.00000000000E+00  0.00000000000E+00  0.78095533319E+03  0.78095533319E+03  0.00000000000E+00 0.  1.
         21   -1    0    0  501  502 -0.00000000000E+00 -0.00000000000E+00 -0.11361182718E+03  0.11361182718E+03  0.00000000000E+00 0.  1.
         25    1    1    2    0    0 -0.12804914899E+03  0.10749945053E+03  0.24910718773E+03  0.32501093428E+03  0.12500000000E+03 0.  0.
         25    1    1    2    0    0 -0.28434368220E+02  0.22036742578E+02  0.23568185126E+03  0.26919336235E+03  0.12500000000E+03 0.  0.
         25    1    1    2    0    0  0.15648351721E+03 -0.12953619310E+03  0.18255446701E+03  0.30036286373E+03  0.12500000000E+03 0.  0.
</event>
<event>
 5    0  0.5597833E-005  0.5346026E+03  0.7546771E-02  0.1005122E+00
         21   -1    0    0  502  501  0.00000000000E+00  0.00000000000E+00  0.27400084861E+03  0.27400084861E+03  0.00000000000E+00 0.  1.
         21   -1    0    0  501  502 -0.00000000000E+00 -0.00000000000E+00 -0.10430623584E+04  0.10430623584E+04  0.00000000000E+00 0.  1.
         25    1    1    2    0    0  0.30150557832E+02 -0.16805496648E+03 -0.45695441601E+03  0.50357111336E+03  0.12500000000E+03 0.  0.
         25    1    1    2    0    0  0.17556320637E+03  0.16322402062E+03  0.13762828670E+03  0.30336622363E+03  0.12500000000E+03 0.  0.
         25    1    1    2    0    0 -0.20571376420E+03  0.48309458642E+01 -0.44973538050E+03  0.51012587005E+03  0.12500000000E+03 0.  0.
</event>
<event>
 5    0  0.8580985E-005  0.7178883E+03  0.7546771E-02  0.9687121E-01
         21   -1    0    0  502  501  0.00000000000E+00  0.00000000000E+00  0.41472011181E+03  0.41472011181E+03  0.00000000000E+00 0. -1.
         21   -1    0    0  501  502 -0.00000000000E+00 -0.00000000000E+00 -0.12426779765E+04  0.12426779765E+04  0.00000000000E+00 0. -1.
         25    1    1    2    0    0  0.38761449798E+03 -0.23396237413E+03 -0.41876299281E+03  0.62926213592E+03  0.12500000000E+03 0.  0.
         25    1    1    2    0    0 -0.22646417717E+03 -0.20258778779E+03 -0.43554511584E+03  0.54557527733E+03  0.12500000000E+03 0.  0.
         25    1    1    2    0    0 -0.16115032081E+03  0.43655016191E+03  0.26350243946E+02  0.48256067507E+03  0.12500000000E+03 0.  0.
</event>
<event>
 5    0  0.5597833E-005  0.3776092E+03  0.7546771E-02  0.1051821E+00
         21   -1    0    0  502  501  0.00000000000E+00  0.00000000000E+00  0.13907131482E+04  0.13907131482E+04  0.00000000000E+00 0.  1.
         21   -1    0    0  501  502 -0.00000000000E+00 -0.00000000000E+00 -0.10252920957E+03  0.10252920957E+03  0.00000000000E+00 0.  1.
         25    1    1    2    0    0  0.15398824947E+03 -0.93706028291E+02  0.34934692807E+03  0.41250633555E+03  0.12500000000E+03 0.  0.
         25    1    1    2    0    0  0.75276626344E+02  0.14571215587E+03  0.17049051166E+03  0.26756423043E+03  0.12500000000E+03 0.  0.
         25    1    1    2    0    0 -0.22926487581E+03 -0.52006127576E+02  0.76834649888E+03  0.81317179176E+03  0.12500000000E+03 0.  0.
</event>
<event>
 5    0  0.5597833E-005  0.3049454E+03  0.7546771E-02  0.1082794E+00
         21   -1    0    0  502  501  0.00000000000E+00  0.00000000000E+00  0.21800378194E+03  0.21800378194E+03  0.00000000000E+00 0.  1.
         21   -1    0    0  501  502 -0.00000000000E+00 -0.00000000000E+00 -0.42656006240E+03  0.42656006240E+03  0.00000000000E+00 0.  1.
         25    1    1    2    0    0 -0.10799943585E+03 -0.54087927926E+02 -0.80155294328E+02  0.19141382735E+03  0.12500000000E+03 0.  0.
         25    1    1    2    0    0  0.45583621853E+02  0.19056858549E+03 -0.10950026533E+03  0.25692325793E+03  0.12500000000E+03 0.  0.
         25    1    1    2    0    0  0.62415813995E+02 -0.13648065756E+03 -0.18900720799E+02  0.19622675906E+03  0.12500000000E+03 0.  0.
</event>
<event>
 5    0  0.5597833E-005  0.3877618E+03  0.7546771E-02  0.1048102E+00
         21   -1    0    0  502  501  0.00000000000E+00  0.00000000000E+00  0.14193322621E+03  0.14193322621E+03  0.00000000000E+00 0. -1.
         21   -1    0    0  501  502 -0.00000000000E+00 -0.00000000000E+00 -0.10593657901E+04  0.10593657901E+04  0.00000000000E+00 0. -1.
         25    1    1    2    0    0  0.61653837323E+02  0.21779194835E+03 -0.15227549189E+03  0.30007891271E+03  0.12500000000E+03 0.  0.
         25    1    1    2    0    0  0.10370463983E+03 -0.92593893929E+02 -0.53658075974E+03  0.56821843796E+03  0.12500000000E+03 0.  0.
         25    1    1    2    0    0 -0.16535847715E+03 -0.12519805442E+03 -0.22857631229E+03  0.33300166567E+03  0.12500000000E+03 0.  0.
</event>
<event>
 5    0  0.5597833E-005  0.3563103E+03  0.7546771E-02  0.1060054E+00
         21   -1    0    0  502  501  0.00000000000E+00  0.00000000000E+00  0.19697869957E+04  0.19697869957E+04  0.00000000000E+00 0. -1.
         21   -1    0    0  501  502 -0.00000000000E+00 -0.00000000000E+00 -0.64452173147E+02  0.64452173147E+02  0.00000000000E+00 0. -1.
         25    1    1    2    0    0  0.31875292451E+02  0.64850585178E+02  0.79073497048E+03  0.80380870001E+03  0.12500000000E+03 0.  0.
         25    1    1    2    0    0 -0.83846478843E+02  0.10423734471E+03  0.92382525673E+03  0.94179284401E+03  0.12500000000E+03 0.  0.
         25    1    1    2    0    0  0.51971186392E+02 -0.16908792989E+03  0.19077459539E+03  0.28863762488E+03  0.12500000000E+03 0.  0.
</event>
<event>
 5    0  0.5597833E-005  0.4195696E+03  0.7546771E-02  0.1037206E+00
         21   -1    0    0  502  501  0.00000000000E+00  0.00000000000E+00  0.17350975447E+03  0.17350975447E+03  0.00000000000E+00 0.  1.
         21   -1    0    0  501  502 -0.00000000000E+00 -0.00000000000E+00 -0.10145749063E+04  0.10145749063E+04  0.00000000000E+00 0.  1.
         25    1    1    2    0    0  0.20542201386E+03 -0.17204886245E+03 -0.30772218358E+03  0.42675163399E+03  0.12500000000E+03 0.  0.
         25    1    1    2    0    0 -0.21894381651E+03  0.18578492708E+03 -0.13080430542E+03  0.33939239861E+03  0.12500000000E+03 0.  0.
         25    1    1    2    0    0  0.13521802651E+02 -0.13736064634E+02 -0.40253866278E+03  0.42194062811E+03  0.12500000000E+03 0.  0.
</event>
<event>
 5    0  0.5597833E-005  0.2606104E+03  0.7546771E-02  0.1106777E+00
         21   -1    0    0  502  501  0.00000000000E+00  0.00000000000E+00  0.47836550088E+03  0.47836550088E+03  0.00000000000E+00 0. -1.
         21   -1    0    0  501  502 -0.00000000000E+00 -0.00000000000E+00 -0.14197888031E+03  0.14197888031E+03  0.00000000000E+00 0. -1.
         25    1    1    2    0    0 -0.34148604551E+02  0.13838721561E+02  0.12544526724E+03  0.18088436218E+03  0.12500000000E+03 0.  0.
         25    1    1    2    0    0  0.58749086884E+02 -0.58702640132E+02 -0.39264132663E+02  0.15512616569E+03  0.12500000000E+03 0.  0.
         25    1    1    2    0    0 -0.24600482332E+02  0.44863918571E+02  0.25020548600E+03  0.28433385332E+03  0.12500000000E+03 0.  0.
</event>
<event>
 5    0  0.5597833E-005  0.4973944E+03  0.7546771E-02  0.1014461E+00
         21   -1    0    0  502  501  0.00000000000E+00  0.00000000000E+00  0.20219070975E+04  0.20219070975E+04  0.00000000000E+00 0.  1.
         21   -1    0    0  501  502 -0.00000000000E+00 -0.00000000000E+00 -0.12236032620E+03  0.12236032620E+03  0.00000000000E+00 0.  1.
         25    1    1    2    0    0 -0.14095222212E+03 -0.16346864434E+03  0.14099403647E+04  0.14318332160E+04  0.12500000000E+03 0.  0.
         25    1    1    2    0    0 -0.77854168060E+02 -0.55958324811E+02  0.26997003682E+03  0.31257227385E+03  0.12500000000E+03 0.  0.
         25    1    1    2    0    0  0.21880639018E+03  0.21942696915E+03  0.21963636981E+03  0.39986193382E+03  0.12500000000E+03 0.  0.
</event>
<event>
 5    0  0.5597833E-005  0.2169880E+03  0.7546771E-02  0.1136149E+00
         21   -1    0    0  502  501  0.00000000000E+00  0.00000000000E+00  0.98470749794E+02  0.98470749794E+02  0.00000000000E+00 0.  1.
         21   -1    0    0  501  502 -0.00000000000E+00 -0.00000000000E+00 -0.47814991990E+03  0.47814991990E+03  0.00000000000E+00 0.  1.
         25    1    1    2    0    0 -0.57584576914E+02 -0.69358258795E+02 -0.15871288897E+03  0.22122688057E+03  0.12500000000E+03 0.  0.
         25    1    1    2    0    0  0.55594951928E+02  0.65587872370E+02 -0.13971000314E+03  0.20624367301E+03  0.12500000000E+03 0.  0.
         25    1    1    2    0    0  0.19896249857E+01  0.37703864246E+01 -0.81256278000E+02  0.14915011611E+03  0.12500000000E+03 0.  0.
</event>
<event>
 5    0  0.5597833E-005  0.4205947E+03  0.7546771E-02  0.1036873E+00
         21   -1    0    0  502  501  0.00000000000E+00  0.00000000000E+00  0.34409999043E+03  0.34409999043E+03  0.00000000000E+00 0.  1.
         21   -1    0    0  501  502 -0.00000000000E+00 -0.00000000000E+00 -0.51409435815E+03  0.51409435815E+03  0.00000000000E+00 0.  1.
         25    1    1    2    0    0 -0.33914447280E+03 -0.10617828906E+02 -0.15976720259E+03  0.39532552504E+03  0.12500000000E+03 0.  0.
         25    1    1    2    0    0  0.25888536961E+03 -0.37717290816E+02 -0.65339785358E+02  0.29721796072E+03  0.12500000000E+03 0.  0.
         25    1    1    2    0    0  0.80259103191E+02  0.48335119723E+02  0.55112620233E+02  0.16565086282E+03  0.12500000000E+03 0.  0.
</event>
<event>
 5    0  0.5597833E-005  0.4046713E+03  0.7546771E-02  0.1042174E+00
         21   -1    0    0  502  501  0.00000000000E+00  0.00000000000E+00  0.14711606703E+03  0.14711606703E+03  0.00000000000E+00 0. -1.
         21   -1    0    0  501  502 -0.00000000000E+00 -0.00000000000E+00 -0.11131270663E+04  0.11131270663E+04  0.00000000000E+00 0. -1.
         25    1    1    2    0    0  0.21385221472E+02  0.20646521272E+03 -0.63194284416E+03  0.67680275565E+03  0.12500000000E+03 0.  0.
         25    1    1    2    0    0 -0.23035989038E+02 -0.22558951544E+03 -0.38275286487E+02  0.26174660231E+03  0.12500000000E+03 0.  0.
         25    1    1    2    0    0  0.16507675666E+01  0.19124302713E+02 -0.29579286862E+03  0.32169377537E+03  0.12500000000E+03 0.  0.
</event>
<event>
 5    0  0.5597833E-005  0.4404005E+03  0.7546771E-02  0.1030624E+00
         21   -1    0    0  502  501  0.00000000000E+00  0.00000000000E+00  0.45893012473E+03  0.45893012473E+03  0.00000000000E+00 0. -1.
         21   -1    0    0  501  502 -0.00000000000E+00 -0.00000000000E+00 -0.42261908283E+03  0.42261908283E+03  0.00000000000E+00 0. -1.
         25    1    1    2    0    0 -0.54951826001E+02 -0.65554528316E+02 -0.10288688279E+03  0.18310600759E+03  0.12500000000E+03 0.  0.
         25    1    1    2    0    0 -0.88665408117E+02  0.26551529483E+03 -0.11079501812E+03  0.32597616850E+03  0.12500000000E+03 0.  0.
         25    1    1    2    0    0  0.14361723412E+03 -0.19996076652E+03  0.24999294282E+03  0.37246703148E+03  0.12500000000E+03 0.  0.
</event>
<event>
 5    0  0.5597833E-005  0.4225774E+03  0.7546771E-02  0.1036231E+00
         21   -1    0    0  502  501  0.00000000000E+00  0.00000000000E+00  0.41793661379E+03  0.41793661379E+03  0.00000000000E+00 0. -1.
         21   -1    0    0  501  502 -0.00000000000E+00 -0.00000000000E+00 -0.42726967070E+03  0.42726967070E+03  0.00000000000E+00 0. -1.
         25    1    1    2    0    0 -0.25991311357E+03 -0.23042518006E+03  0.73175824506E+02  0.37633800168E+03  0.12500000000E+03 0.  0.
         25    1    1    2    0    0  0.19858550868E+03  0.20518395291E+03 -0.14953560955E+02  0.31206612724E+03  0.12500000000E+03 0.  0.
         25    1    1    2    0    0  0.61327604889E+02  0.25241227157E+02 -0.67555320457E+02  0.15680215557E+03  0.12500000000E+03 0.  0.
</event>
<event>
 5    0  0.5597833E-005  0.3930882E+03  0.7546771E-02  0.1046200E+00
         21   -1    0    0  502  501  0.00000000000E+00  0.00000000000E+00  0.90722341344E+03  0.90722341344E+03  0.00000000000E+00 0.  1.
         21   -1    0    0  501  502 -0.00000000000E+00 -0.00000000000E+00 -0.17032005577E+03  0.17032005577E+03  0.00000000000E+00 0.  1.
         25    1    1    2    0    0 -0.85645143494E+02  0.17477191431E+03  0.64923594667E+03  0.68921159820E+03  0.12500000000E+03 0.  0.
         25    1    1    2    0    0  0.22893862289E+02 -0.63740711634E+02 -0.62218247148E+02  0.15518736266E+03  0.12500000000E+03 0.  0.
         25    1    1    2    0    0  0.62751281205E+02 -0.11103120268E+03  0.14988565814E+03  0.23314450836E+03  0.12500000000E+03 0.  0.
</event>
<event>
 5    0  0.5597833E-005  0.3084793E+03  0.7546771E-02  0.1081077E+00
         21   -1    0    0  502  501  0.00000000000E+00  0.00000000000E+00  0.11360417629E+03  0.11360417629E+03  0.00000000000E+00 0.  1.
         21   -1    0    0  501  502 -0.00000000000E+00 -0.00000000000E+00 -0.83764062627E+03  0.83764062627E+03  0.00000000000E+00 0.  1.
         25    1    1    2    0    0  0.14628745715E+03  0.12195690590E+03 -0.29165492474E+03  0.37008256125E+03  0.12500000000E+03 0.  0.
         25    1    1    2    0    0  0.19585227396E+02 -0.20374274364E+02 -0.26925941137E+03  0.29820181555E+03  0.12500000000E+03 0.  0.
         25    1    1    2    0    0 -0.16587268454E+03 -0.10158263154E+03 -0.16312211388E+03  0.28296042575E+03  0.12500000000E+03 0.  0.
</event>
<event>
 5    0  0.5597833E-005  0.4501567E+03  0.7546771E-02  0.1027675E+00
         21   -1    0    0  502  501  0.00000000000E+00  0.00000000000E+00  0.17739261672E+03  0.17739261672E+03  0.00000000000E+00 0.  1.
         21   -1    0    0  501  502 -0.00000000000E+00 -0.00000000000E+00 -0.11423305951E+04  0.11423305951E+04  0.00000000000E+00 0.  1.
         25    1    1    2    0    0 -0.26615105734E+02  0.78764169640E+02 -0.28398554280E+03  0.32122413793E+03  0.12500000000E+03 0.  0.
         25    1    1    2    0    0  0.27541127009E+03 -0.17906240359E+03 -0.59372934946E+03  0.68996684883E+03  0.12500000000E+03 0.  0.
         25    1    1    2    0    0 -0.24879616435E+03  0.10029823395E+03 -0.87223086070E+02  0.30853222502E+03  0.12500000000E+03 0.  0.
</event>
<event>
 5    0  0.5597833E-005  0.2570522E+03  0.7546771E-02  0.1108927E+00
         21   -1    0    0  502  501  0.00000000000E+00  0.00000000000E+00  0.27727921213E+03  0.27727921213E+03  0.00000000000E+00 0.  1.
         21   -1    0    0  501  502 -0.00000000000E+00 -0.00000000000E+00 -0.23830064489E+03  0.23830064489E+03  0.00000000000E+00 0.  1.
         25    1    1    2    0    0 -0.10011220516E+03 -0.10483707136E+03 -0.29454273336E+01  0.19143390686E+03  0.12500000000E+03 0.  0.
         25    1    1    2    0    0  0.63513262707E+02  0.23712338720E+02 -0.43266429816E+02  0.14863779296E+03  0.12500000000E+03 0.  0.
         25    1    1    2    0    0  0.36598942456E+02  0.81124732635E+02  0.85190424389E+02  0.17550815719E+03  0.12500000000E+03 0.  0.
</event>
<event>
 5    0  0.5597833E-005  0.4463106E+03  0.7546771E-02  0.1028828E+00
         21   -1    0    0  502  501  0.00000000000E+00  0.00000000000E+00  0.70433363772E+02  0.70433363772E+02  0.00000000000E+00 0. -1.
         21   -1    0    0  501  502 -0.00000000000E+00 -0.00000000000E+00 -0.28281084454E+04  0.28281084454E+04  0.00000000000E+00 0.  1.
         25    1    1    2    0    0  0.29191408410E+03  0.11422168479E+03 -0.11943236162E+04  0.12410859462E+04  0.12500000000E+03 0.  0.
         25    1    1    2    0    0 -0.27331636225E+03 -0.12817513665E+03 -0.57818391483E+03  0.66411771464E+03  0.12500000000E+03 0.  0.
         25    1    1    2    0    0 -0.18597721850E+02  0.13953451869E+02 -0.98516755063E+03  0.99333814831E+03  0.12500000000E+03 0.  0.
</event>
<event>
 5    0  0.5597833E-005  0.3049248E+03  0.7546771E-02  0.1082804E+00
         21   -1    0    0  502  501  0.00000000000E+00  0.00000000000E+00  0.18287380324E+04  0.18287380324E+04  0.00000000000E+00 0.  1.
         21   -1    0    0  501  502 -0.00000000000E+00 -0.00000000000E+00 -0.50843344557E+02  0.50843344557E+02  0.00000000000E+00 0.  1.
         25    1    1    2    0    0  0.91662800512E+01 -0.16203966383E+03  0.76724388670E+03  0.79412156187E+03  0.12500000000E+03 0.  0.
         25    1    1    2    0    0  0.96314163074E+02  0.89754972576E+02  0.73347283073E+03  0.75560556280E+03  0.12500000000E+03 0.  0.
         25    1    1    2    0    0 -0.10548044313E+03  0.72284691253E+02  0.27717797039E+03  0.32985425227E+03  0.12500000000E+03 0.  0.
</event>
<event>
 5    0  0.5597833E-005  0.2774747E+03  0.7546771E-02  0.1097076E+00
         21   -1    0    0  502  501  0.00000000000E+00  0.00000000000E+00  0.78116337720E+02  0.78116337720E+02  0.00000000000E+00 0.  1.
         21   -1    0    0  501  502 -0.00000000000E+00 -0.00000000000E+00 -0.98560985469E+03  0.98560985469E+03  0.00000000000E+00 0.  1.
         25    1    1    2    0    0 -0.13173927322E+01 -0.68201091308E+02 -0.49856826910E+03  0.51850597232E+03  0.12500000000E+03 0.  0.
         25    1    1    2    0    0  0.64381033817E+01 -0.58886620222E+01 -0.37574075159E+03  0.39608362491E+03  0.12500000000E+03 0.  0.
         25    1    1    2    0    0 -0.51207106495E+01  0.74089753330E+02 -0.33184496268E+02  0.14913659517E+03  0.12500000000E+03 0.  0.
</event>
<event>
 5    0  0.5597833E-005  0.3418976E+03  0.7546771E-02  0.1065991E+00
         21   -1    0    0  502  501  0.00000000000E+00  0.00000000000E+00  0.66811340113E+02  0.66811340113E+02  0.00000000000E+00 0.  1.
         21   -1    0    0  501  502 -0.00000000000E+00 -0.00000000000E+00 -0.17496124222E+04  0.17496124222E+04  0.00000000000E+00 0.  1.
         25    1    1    2    0    0 -0.12353905302E+03  0.51431523113E+02 -0.15227486006E+03  0.23815904811E+03  0.12500000000E+03 0.  0.
         25    1    1    2    0    0  0.14373932300E+00 -0.56030329927E+02 -0.24422412604E+03  0.28001757494E+03  0.12500000000E+03 0.  0.
         25    1    1    2    0    0  0.12339531370E+03  0.45988068135E+01 -0.12863020960E+04  0.12982471393E+04  0.12500000000E+03 0.  0.
</event>
<event>
 5    0  0.5597833E-005  0.3146741E+03  0.7546771E-02  0.1078127E+00
         21   -1    0    0  502  501  0.00000000000E+00  0.00000000000E+00  0.33277767370E+03  0.33277767370E+03  0.00000000000E+00 0.  1.
         21   -1    0    0  501  502 -0.00000000000E+00 -0.00000000000E+00 -0.29755539118E+03  0.29755539118E+03  0.00000000000E+00 0.  1.
         25    1    1    2    0    0  0.34585814728E+02 -0.16127072737E+03 -0.12559151392E+03  0.24207985140E+03  0.12500000000E+03 0.  0.
         25    1    1    2    0    0 -0.78432913771E+02  0.16296610461E+03  0.85715652380E+02  0.23597001139E+03  0.12500000000E+03 0.  0.
         25    1    1    2    0    0  0.43847099043E+02 -0.16953772390E+01  0.75098144060E+02  0.15228320209E+03  0.12500000000E+03 0.  0.
</event>
<event>
 5    0  0.6001364E-005  0.2823964E+03  0.7546771E-02  0.1094387E+00
         21   -1    0    0  502  501  0.00000000000E+00  0.00000000000E+00  0.14843360310E+03  0.14843360310E+03  0.00000000000E+00 0. -1.
         21   -1    0    0  501  502 -0.00000000000E+00 -0.00000000000E+00 -0.53726203585E+03  0.53726203585E+03  0.00000000000E+00 0. -1.
         25    1    1    2    0    0 -0.45923564888E+02  0.39225500707E+02 -0.87427168007E+01  0.13910085843E+03  0.12500000000E+03 0.  0.
         25    1    1    2    0    0  0.16850146150E+03 -0.41351825146E+02 -0.24676521098E+03  0.32652838364E+03  0.12500000000E+03 0.  0.
         25    1    1    2    0    0 -0.12257789661E+03  0.21263244390E+01 -0.13332050497E+03  0.22006639689E+03  0.12500000000E+03 0.  0.
</event>
<event>
 5    0  0.5597833E-005  0.2635027E+03  0.7546771E-02  0.1105057E+00
         21   -1    0    0  502  501  0.00000000000E+00  0.00000000000E+00  0.15259354225E+04  0.15259354225E+04  0.00000000000E+00 0. -1.
         21   -1    0    0  501  502 -0.00000000000E+00 -0.00000000000E+00 -0.45502371544E+02  0.45502371544E+02  0.00000000000E+00 0. -1.
         25    1    1    2    0    0 -0.10914891905E+03 -0.80349058497E+01  0.10291327243E+04  0.10424572943E+04  0.12500000000E+03 0.  0.
         25    1    1    2    0    0  0.47666310665E+02  0.22390763410E+02  0.21037835225E+03  0.25031475097E+03  0.12500000000E+03 0.  0.
         25    1    1    2    0    0  0.61482608389E+02 -0.14355857560E+02  0.24092197441E+03  0.27866574877E+03  0.12500000000E+03 0.  0.
</event>
<event>
 5    0  0.5597833E-005  0.3603343E+03  0.7546771E-02  0.1058452E+00
         21   -1    0    0  502  501  0.00000000000E+00  0.00000000000E+00  0.85906964691E+03  0.85906964691E+03  0.00000000000E+00 0. -1.
         21   -1    0    0  501  502 -0.00000000000E+00 -0.00000000000E+00 -0.15114117817E+03  0.15114117817E+03  0.00000000000E+00 0. -1.
         25    1    1    2    0    0  0.15009805333E+03 -0.10823117598E+03  0.13979084234E+03  0.26345757281E+03  0.12500000000E+03 0.  0.
         25    1    1    2    0    0 -0.29338940759E+02  0.36111412949E+02  0.54031575623E+03  0.55653474647E+03  0.12500000000E+03 0.  0.
         25    1    1    2    0    0 -0.12075911257E+03  0.72119763031E+02  0.27821870174E+02  0.19021850580E+03  0.12500000000E+03 0.  0.
</event>
<event>
 5    0  0.5597833E-005  0.3218446E+03  0.7546771E-02  0.1074803E+00
         21   -1    0    0  502  501  0.00000000000E+00  0.00000000000E+00  0.67937606834E+02  0.67937606834E+02  0.00000000000E+00 0. -1.
         21   -1    0    0  501  502 -0.00000000000E+00 -0.00000000000E+00 -0.15246924341E+04  0.15246924341E+04  0.00000000000E+00 0. -1.
         25    1    1    2    0    0  0.84707986353E+02  0.11765328998E+03 -0.91285231028E+03  0.93270685641E+03  0.12500000000E+03 0.  0.
         25    1    1    2    0    0 -0.33099997563E+02  0.60097746189E+02 -0.27982302223E+03  0.31405934583E+03  0.12500000000E+03 0.  0.
         25    1    1    2    0    0 -0.51607988790E+02 -0.17775103617E+03 -0.26407949475E+03  0.34586383869E+03  0.12500000000E+03 0.  0.
</event>
<event>
 5    0  0.5597833E-005  0.2925311E+03  0.7546771E-02  0.1089035E+00
         21   -1    0    0  502  501  0.00000000000E+00  0.00000000000E+00  0.58194836908E+03  0.58194836908E+03  0.00000000000E+00 0.  1.
         21   -1    0    0  501  502 -0.00000000000E+00 -0.00000000000E+00 -0.14704820678E+03  0.14704820678E+03  0.00000000000E+00 0.  1.
         25    1    1    2    0    0 -0.53915302307E+02  0.85239567007E+02  0.35063887025E+03  0.38567507171E+03  0.12500000000E+03 0.  0.
         25    1    1    2    0    0  0.95077141924E+02 -0.11520192273E+03  0.26716727846E+02  0.19659585312E+03  0.12500000000E+03 0.  0.
         25    1    1    2    0    0 -0.41161839617E+02  0.29962355727E+02  0.57544564203E+02  0.14672565103E+03  0.12500000000E+03 0.  0.
</event>
<event>
 5    0  0.5597833E-005  0.2981596E+03  0.7546771E-02  0.1086164E+00
         21   -1    0    0  502  501  0.00000000000E+00  0.00000000000E+00  0.19386804441E+03  0.19386804441E+03  0.00000000000E+00 0. -1.
         21   -1    0    0  501  502 -0.00000000000E+00 -0.00000000000E+00 -0.45855495467E+03  0.45855495467E+03  0.00000000000E+00 0. -1.
         25    1    1    2    0    0  0.13938543408E+03 -0.39324754049E+02  0.30420559804E+02  0.19371408305E+03  0.12500000000E+03 0.  0.
         25    1    1    2    0    0 -0.17591888750E+03  0.40236505222E+02 -0.20484191008E+03  0.30025262606E+03  0.12500000000E+03 0.  0.
         25    1    1    2    0    0  0.36533453424E+02 -0.91175117328E+00 -0.90265559987E+02  0.15845628996E+03  0.12500000000E+03 0.  0.
</event>
<event>
 5    0  0.6933969E-005  0.2582825E+03  0.7546771E-02  0.1108180E+00
         21   -1    0    0  502  501  0.00000000000E+00  0.00000000000E+00  0.13144828859E+03  0.13144828859E+03  0.00000000000E+00 0.  1.
         21   -1    0    0  501  502 -0.00000000000E+00 -0.00000000000E+00 -0.50749870838E+03  0.50749870838E+03  0.00000000000E+00 0.  1.
         25    1    1    2    0    0  0.40238201811E+02 -0.94133809193E+02 -0.11501973956E+03  0.19833009708E+03  0.12500000000E+03 0.  0.
         25    1    1    2    0    0 -0.35799565252E+02  0.13254988640E+03 -0.24702146154E+03  0.30902375914E+03  0.12500000000E+03 0.  0.
         25    1    1    2    0    0 -0.44386365596E+01 -0.38416077203E+02 -0.14009218691E+02  0.13159314074E+03  0.12500000000E+03 0.  0.
</event>
<event>
 5    0  0.5597833E-005  0.4911444E+03  0.7546771E-02  0.1016117E+00
         21   -1    0    0  502  501  0.00000000000E+00  0.00000000000E+00  0.35229526010E+03  0.35229526010E+03  0.00000000000E+00 0. -1.
         21   -1    0    0  501  502 -0.00000000000E+00 -0.00000000000E+00 -0.68471773758E+03  0.68471773758E+03  0.00000000000E+00 0. -1.
         25    1    1    2    0    0  0.20362042267E+02 -0.28220688512E+02 -0.72938162801E+02  0.14884890197E+03  0.12500000000E+03 0.  0.
         25    1    1    2    0    0 -0.20025285925E+03  0.35915069610E+03 -0.32589836323E+02  0.43101917310E+03  0.12500000000E+03 0.  0.
         25    1    1    2    0    0  0.17989081698E+03 -0.33093000759E+03 -0.22689447835E+03  0.45714492261E+03  0.12500000000E+03 0.  0.
</event>
<event>
 5    0  0.5597833E-005  0.2709329E+03  0.7546771E-02  0.1100747E+00
         21   -1    0    0  502  501  0.00000000000E+00  0.00000000000E+00  0.60976078555E+02  0.60976078555E+02  0.00000000000E+00 0. -1.
         21   -1    0    0  501  502 -0.00000000000E+00 -0.00000000000E+00 -0.12038268128E+04  0.12038268128E+04  0.00000000000E+00 0. -1.
         25    1    1    2    0    0 -0.15504307442E+03  0.21504469793E+01 -0.71532449438E+03  0.74253424945E+03  0.12500000000E+03 0.  0.
         25    1    1    2    0    0  0.81368424685E+02 -0.14109288996E+02 -0.17131719921E+03  0.22758399618E+03  0.12500000000E+03 0.  0.
         25    1    1    2    0    0  0.73674649732E+02  0.11958842016E+02 -0.25620904069E+03  0.29468464576E+03  0.12500000000E+03 0.  0.
</event>
<event>
 5    0  0.5597833E-005  0.4128377E+03  0.7546771E-02  0.1039423E+00
         21   -1    0    0  502  501  0.00000000000E+00  0.00000000000E+00  0.17038070867E+03  0.17038070867E+03  0.00000000000E+00 0. -1.
         21   -1    0    0  501  502 -0.00000000000E+00 -0.00000000000E+00 -0.10003185004E+04  0.10003185004E+04  0.00000000000E+00 0. -1.
         25    1    1    2    0    0 -0.31006932911E+03 -0.45674372951E+02 -0.17586938443E+03  0.38050516104E+03  0.12500000000E+03 0.  0.
         25    1    1    2    0    0  0.23310211808E+03  0.72602834547E+02 -0.52732083570E+03  0.59439047166E+03  0.12500000000E+03 0.  0.
         25    1    1    2    0    0  0.76967211030E+02 -0.26928461596E+02 -0.12674757162E+03  0.19580357639E+03  0.12500000000E+03 0.  0.
</event>
<event>
 5    0  0.5597833E-005  0.3018869E+03  0.7546771E-02  0.1084301E+00
         21   -1    0    0  502  501  0.00000000000E+00  0.00000000000E+00  0.70206346562E+03  0.70206346562E+03  0.00000000000E+00 0.  1.
         21   -1    0    0  501  502 -0.00000000000E+00 -0.00000000000E+00 -0.12981118425E+03  0.12981118425E+03  0.00000000000E+00 0.  1.
         25    1    1    2    0    0 -0.96843974379E+02 -0.27075027717E+02  0.20516028530E+03  0.26043723843E+03  0.12500000000E+03 0.  0.
         25    1    1    2    0    0  0.16389461616E+03 -0.11594542451E+03  0.19719320130E+03  0.30792035547E+03  0.12500000000E+03 0.  0.
         25    1    1    2    0    0 -0.67050641778E+02  0.14302045223E+03  0.16989879478E+03  0.26351705597E+03  0.12500000000E+03 0.  0.
</event>
<event>
 5    0  0.5597833E-005  0.3129125E+03  0.7546771E-02  0.1078958E+00
         21   -1    0    0  502  501  0.00000000000E+00  0.00000000000E+00  0.14969926764E+03  0.14969926764E+03  0.00000000000E+00 0.  1.
         21   -1    0    0  501  502 -0.00000000000E+00 -0.00000000000E+00 -0.65407295599E+03  0.65407295599E+03  0.00000000000E+00 0.  1.
         25    1    1    2    0    0 -0.12419232453E+03 -0.54730981329E+00 -0.40160446428E+03  0.43856034790E+03  0.12500000000E+03 0.  0.
         25    1    1    2    0    0  0.80837067178E+02  0.26874111781E+02 -0.15864074094E+03  0.21920021441E+03  0.12500000000E+03 0.  0.
         25    1    1    2    0    0  0.43355257356E+02 -0.26326801967E+02  0.55871516865E+02  0.14601166131E+03  0.12500000000E+03 0.  0.
</event>
<event>
 5    0  0.5597833E-005  0.3020432E+03  0.7546771E-02  0.1084224E+00
         21   -1    0    0  502  501  0.00000000000E+00  0.00000000000E+00  0.17622553288E+03  0.17622553288E+03  0.00000000000E+00 0. -1.
         21   -1    0    0  501  502 -0.00000000000E+00 -0.00000000000E+00 -0.51768959104E+03  0.51768959104E+03  0.00000000000E+00 0. -1.
         25    1    1    2    0    0  0.99353168649E+02  0.14282687195E+03 -0.16009295955E+03  0.26744218659E+03  0.12500000000E+03 0.  0.
         25    1    1    2    0    0 -0.71219579660E+02 -0.19929309746E+03 -0.10940717925E+03  0.26904441658E+03  0.12500000000E+03 0.  0.
         25    1    1    2    0    0 -0.28133588989E+02  0.56466225515E+02 -0.71963919359E+02  0.15742852074E+03  0.12500000000E+03 0.  0.
</event>
<event>
 5    0  0.5597833E-005  0.2645737E+03  0.7546771E-02  0.1104426E+00
         21   -1    0    0  502  501  0.00000000000E+00  0.00000000000E+00  0.28397453762E+02  0.28397453762E+02  0.00000000000E+00 0. -1.
         21   -1    0    0  501  502 -0.00000000000E+00 -0.00000000000E+00 -0.24649836783E+04  0.24649836783E+04  0.00000000000E+00 0. -1.
         25    1    1    2    0    0 -0.11085900830E+02  0.77723858571E+02 -0.10662775748E+04  0.10764463582E+04  0.12500000000E+03 0.  0.
         25    1    1    2    0    0 -0.30897756793E+02 -0.65302552294E+02 -0.11561502327E+04  0.11651298019E+04  0.12500000000E+03 0.  0.
         25    1    1    2    0    0  0.41983657623E+02 -0.12421306277E+02 -0.21415841706E+03  0.25180497206E+03  0.12500000000E+03 0.  0.
</event>
<event>
 5    0  0.5597833E-005  0.2696555E+03  0.7546771E-02  0.1101477E+00
         21   -1    0    0  502  501  0.00000000000E+00  0.00000000000E+00  0.23148806717E+03  0.23148806717E+03  0.00000000000E+00 0. -1.
         21   -1    0    0  501  502 -0.00000000000E+00 -0.00000000000E+00 -0.31411584809E+03  0.31411584809E+03  0.00000000000E+00 0. -1.
         25    1    1    2    0    0 -0.58664965656E+02 -0.93952848808E+02  0.15151308522E+02  0.16769996465E+03  0.12500000000E+03 0.  0.
         25    1    1    2    0    0  0.11123161202E+03 -0.33076341428E+02 -0.60075065093E+01  0.17066811656E+03  0.12500000000E+03 0.  0.
         25    1    1    2    0    0 -0.52566646366E+02  0.12702919024E+03 -0.91771582930E+02  0.20723583405E+03  0.12500000000E+03 0.  0.
</event>
<event>
 5    0  0.5597833E-005  0.2862790E+03  0.7546771E-02  0.1092308E+00
         21   -1    0    0  502  501  0.00000000000E+00  0.00000000000E+00  0.11930338219E+03  0.11930338219E+03  0.00000000000E+00 0.  1.
         21   -1    0    0  501  502 -0.00000000000E+00 -0.00000000000E+00 -0.68695153129E+03  0.68695153129E+03  0.00000000000E+00 0.  1.
         25    1    1    2    0    0  0.69066300612E+02  0.13104002994E+02 -0.35566559030E+03  0.38349039219E+03  0.12500000000E+03 0.  0.
         25    1    1    2    0    0 -0.57898091961E+01 -0.12835932525E+03 -0.70208100063E+02  0.19251964986E+03  0.12500000000E+03 0.  0.
         25    1    1    2    0    0 -0.63276491416E+02  0.11525532225E+03 -0.14177445873E+03  0.23024487144E+03  0.12500000000E+03 0.  0.
</event>
<event>
 5    0  0.5597833E-005  0.2771053E+03  0.7546771E-02  0.1097281E+00
         21   -1    0    0  502  501  0.00000000000E+00  0.00000000000E+00  0.40955141250E+03  0.40955141250E+03  0.00000000000E+00 0. -1.
         21   -1    0    0  501  502 -0.00000000000E+00 -0.00000000000E+00 -0.18749133223E+03  0.18749133223E+03  0.00000000000E+00 0. -1.
         25    1    1    2    0    0 -0.35859091084E+02  0.11862361543E+03  0.19892520173E+03  0.26561941276E+03  0.12500000000E+03 0.  0.
         25    1    1    2    0    0  0.88781856043E+02 -0.52171783772E+02  0.65134958013E+02  0.17456138101E+03  0.12500000000E+03 0.  0.
         25    1    1    2    0    0 -0.52922764959E+02 -0.66451831656E+02 -0.42000079479E+02  0.15686195096E+03  0.12500000000E+03 0.  0.
</event>
<event>
 5    0  0.5597833E-005  0.5294553E+03  0.7546771E-02  0.1006364E+00
         21   -1    0    0  502  501  0.00000000000E+00  0.00000000000E+00  0.56052825918E+03  0.56052825918E+03  0.00000000000E+00 0. -1.
         21   -1    0    0  501  502 -0.00000000000E+00 -0.00000000000E+00 -0.50010486823E+03  0.50010486823E+03  0.00000000000E+00 0. -1.
         25    1    1    2    0    0  0.30430350959E+03  0.11018659101E+03  0.32701325297E+03  0.47676448945E+03  0.12500000000E+03 0.  0.
         25    1    1    2    0    0 -0.28902894022E+03  0.37896411302E+02 -0.21358257453E+03  0.38238250799E+03  0.12500000000E+03 0.  0.
         25    1    1    2    0    0 -0.15274569369E+02 -0.14808300231E+03 -0.53007287499E+02  0.20148612997E+03  0.12500000000E+03 0.  0.
</event>
<event>
 5    0  0.5597833E-005  0.2755408E+03  0.7546771E-02  0.1098150E+00
         21   -1    0    0  502  501  0.00000000000E+00  0.00000000000E+00  0.35332163067E+03  0.35332163067E+03  0.00000000000E+00 0. -1.
         21   -1    0    0  501  502 -0.00000000000E+00 -0.00000000000E+00 -0.21488270878E+03  0.21488270878E+03  0.00000000000E+00 0. -1.
         25    1    1    2    0    0 -0.65556027745E+02  0.26159963071E+01  0.12058540144E+03  0.18566172263E+03  0.12500000000E+03 0.  0.
         25    1    1    2    0    0  0.17553838555E+03  0.33463502604E+01  0.10093453227E+02  0.21575866300E+03  0.12500000000E+03 0.  0.
         25    1    1    2    0    0 -0.10998235781E+03 -0.59623465675E+01  0.77600672223E+01  0.16678395381E+03  0.12500000000E+03 0.  0.
</event>
<event>
 5    0  0.5597833E-005  0.3532817E+03  0.7546771E-02  0.1061276E+00
         21   -1    0    0  502  501  0.00000000000E+00  0.00000000000E+00  0.45643280359E+02  0.45643280359E+02  0.00000000000E+00 0.  1.
         21   -1    0    0  501  502 -0.00000000000E+00 -0.00000000000E+00 -0.27344218677E+04  0.27344218677E+04  0.00000000000E+00 0.  1.
         25    1    1    2    0    0 -0.20588379666E+03  0.60368996549E+02 -0.10754768725E+04  0.11037699293E+04  0.12500000000E+03 0.  0.
         25    1    1    2    0    0  0.24852760813E+03  0.38610121982E+02 -0.11707880834E+04  0.12040043396E+04  0.12500000000E+03 0.  0.
         25    1    1    2    0    0 -0.42643811471E+02 -0.98979118531E+02 -0.44251363139E+03  0.47229087915E+03  0.12500000000E+03 0.  0.
</event>
<event>
 5    0  0.5597833E-005  0.3082037E+03  0.7546771E-02  0.1081210E+00
         21   -1    0    0  502  501  0.00000000000E+00  0.00000000000E+00  0.24318573799E+03  0.24318573799E+03  0.00000000000E+00 0. -1.
         21   -1    0    0  501  502 -0.00000000000E+00 -0.00000000000E+00 -0.39060487706E+03  0.39060487706E+03  0.00000000000E+00 0. -1.
         25    1    1    2    0    0 -0.97747152133E+01  0.11890640453E+03 -0.69611042439E+02  0.18629271410E+03  0.12500000000E+03 0.  0.
         25    1    1    2    0    0 -0.75599339334E+02 -0.10082232517E+03  0.10752081687E+03  0.20752379965E+03  0.12500000000E+03 0.  0.
         25    1    1    2    0    0  0.85374054547E+02 -0.18084079360E+02 -0.18532891351E+03  0.23997410131E+03  0.12500000000E+03 0.  0.
</event>
<event>
 5    0  0.5597833E-005  0.2567361E+03  0.7546771E-02  0.1109120E+00
         21   -1    0    0  502  501  0.00000000000E+00  0.00000000000E+00  0.71805613370E+03  0.71805613370E+03  0.00000000000E+00 0. -1.
         21   -1    0    0  501  502 -0.00000000000E+00 -0.00000000000E+00 -0.91794267239E+02  0.91794267239E+02  0.00000000000E+00 0. -1.
         25    1    1    2    0    0 -0.44284287893E+02  0.97166328745E+01  0.16661354616E+03  0.21316797338E+03  0.12500000000E+03 0.  0.
         25    1    1    2    0    0 -0.43321242337E+02  0.75507185159E+02  0.37018276764E+03  0.40029782226E+03  0.12500000000E+03 0.  0.
         25    1    1    2    0    0  0.87605530230E+02 -0.85223818034E+02  0.89465552660E+02  0.19638460530E+03  0.12500000000E+03 0.  0.
</event>
<event>
 5    0  0.5597833E-005  0.3411151E+03  0.7546771E-02  0.1066322E+00
         21   -1    0    0  502  501  0.00000000000E+00  0.00000000000E+00  0.10799193780E+03  0.10799193780E+03  0.00000000000E+00 0. -1.
         21   -1    0    0  501  502 -0.00000000000E+00 -0.00000000000E+00 -0.10774831902E+04  0.10774831902E+04  0.00000000000E+00 0. -1.
         25    1    1    2    0    0 -0.35962464332E+02  0.15171829932E+03 -0.54869100455E+03  0.58395081956E+03  0.12500000000E+03 0.  0.
         25    1    1    2    0    0  0.62689129931E+02 -0.15402269254E+03 -0.42545605032E+03  0.47359346236E+03  0.12500000000E+03 0.  0.
         25    1    1    2    0    0 -0.26726665599E+02  0.23043932168E+01  0.46558024699E+01  0.12793084608E+03  0.12500000000E+03 0.  0.
</event>
<event>
 5    0  0.5597833E-005  0.2922575E+03  0.7546771E-02  0.1089176E+00
         21   -1    0    0  502  501  0.00000000000E+00  0.00000000000E+00  0.32347415740E+03  0.32347415740E+03  0.00000000000E+00 0.  1.
         21   -1    0    0  501  502 -0.00000000000E+00 -0.00000000000E+00 -0.26405342618E+03  0.26405342618E+03  0.00000000000E+00 0.  1.
         25    1    1    2    0    0  0.32257188601E+02  0.37461725532E+02 -0.13889060527E+03  0.19328607639E+03  0.12500000000E+03 0.  0.
         25    1    1    2    0    0  0.27843350749E+01 -0.11521687266E+03  0.38843084029E+02  0.17440316925E+03  0.12500000000E+03 0.  0.
         25    1    1    2    0    0 -0.35041523676E+02  0.77755147129E+02  0.15946825245E+03  0.21983833794E+03  0.12500000000E+03 0.  0.
</event>
<event>
 5    0  0.5597833E-005  0.2914552E+03  0.7546771E-02  0.1089592E+00
         21   -1    0    0  502  501  0.00000000000E+00  0.00000000000E+00  0.32542295431E+03  0.32542295431E+03  0.00000000000E+00 0. -1.
         21   -1    0    0  501  502 -0.00000000000E+00 -0.00000000000E+00 -0.26103297556E+03  0.26103297556E+03  0.00000000000E+00 0. -1.
         25    1    1    2    0    0  0.41453232014E+02 -0.13955139684E+03  0.18587006363E+03  0.26714348833E+03  0.12500000000E+03 0.  0.
         25    1    1    2    0    0 -0.37123648203E+02  0.69459777229E+02 -0.88401539458E+02  0.17217043326E+03  0.12500000000E+03 0.  0.
         25    1    1    2    0    0 -0.43295838119E+01  0.70091619606E+02 -0.33078545418E+02  0.14714200828E+03  0.12500000000E+03 0.  0.
</event>
<event>
 5    0  0.5597833E-005  0.2358700E+03  0.7546771E-02  0.1122575E+00
         21   -1    0    0  502  501  0.00000000000E+00  0.00000000000E+00  0.51981506072E+02  0.51981506072E+02  0.00000000000E+00 0. -1.
         21   -1    0    0  501  502 -0.00000000000E+00 -0.00000000000E+00 -0.10702775511E+04  0.10702775511E+04  0.00000000000E+00 0. -1.
         25    1    1    2    0    0  0.43830846771E+02 -0.49579948823E+02 -0.58000577169E+03  0.59700168312E+03  0.12500000000E+03 0.  0.
         25    1    1    2    0    0 -0.40530102371E+02  0.36381505379E+02 -0.33785356365E+03  0.36432997901E+03  0.12500000000E+03 0.  0.
         25    1    1    2    0    0 -0.33007444004E+01  0.13198443444E+02 -0.10043670968E+03  0.16092739504E+03  0.12500000000E+03 0.  0.
</event>
<event>
 5    0  0.5597833E-005  0.3375956E+03  0.7546771E-02  0.1067825E+00
         21   -1    0    0  502  501  0.00000000000E+00  0.00000000000E+00  0.19904519856E+03  0.19904519856E+03  0.00000000000E+00 0. -1.
         21   -1    0    0  501  502 -0.00000000000E+00 -0.00000000000E+00 -0.57258734224E+03  0.57258734224E+03  0.00000000000E+00 0. -1.
         25    1    1    2    0    0  0.26784568092E+02  0.10804332058E+03 -0.27540374684E+03  0.32227782422E+03  0.12500000000E+03 0.  0.
         25    1    1    2    0    0 -0.14367982955E+03  0.55564276886E+02 -0.17155923044E+02  0.19912460416E+03  0.12500000000E+03 0.  0.
         25    1    1    2    0    0  0.11689526145E+03 -0.16360759747E+03 -0.80982473798E+02  0.25023011242E+03  0.12500000000E+03 0.  0.
</event>
<event>
 5    0  0.5597833E-005  0.3083765E+03  0.7546771E-02  0.1081127E+00
         21   -1    0    0  502  501  0.00000000000E+00  0.00000000000E+00  0.46793885250E+03  0.46793885250E+03  0.00000000000E+00 0. -1.
         21   -1    0    0  501  502 -0.00000000000E+00 -0.00000000000E+00 -0.20322324134E+03  0.20322324134E+03  0.00000000000E+00 0. -1.
         25    1    1    2    0    0  0.71464688599E+02 -0.17220304168E+03  0.35020917467E+02  0.22718396497E+03  0.12500000000E+03 0.  0.
         25    1    1    2    0    0  0.58712740088E+02  0.69563834154E+02  0.33281626393E+02  0.15817389015E+03  0.12500000000E+03 0.  0.
         25    1    1    2    0    0 -0.13017742869E+03  0.10263920752E+03  0.19641306730E+03  0.28580423872E+03  0.12500000000E+03 0.  0.
</event>
<event>
 5    0  0.5597833E-005  0.3135671E+03  0.7546771E-02  0.1078649E+00
         21   -1    0    0  502  501  0.00000000000E+00  0.00000000000E+00  0.22106481978E+03  0.22106481978E+03  0.00000000000E+00 0.  1.
         21   -1    0    0  501  502 -0.00000000000E+00 -0.00000000000E+00 -0.44477593012E+03  0.44477593012E+03  0.00000000000E+00 0.  1.
         25    1    1    2    0    0 -0.85169753924E+02  0.10215886288E+03 -0.76850343768E+02  0.19804367091E+03  0.12500000000E+03 0.  0.
         25    1    1    2    0    0 -0.32010718422E+02  0.11127018177E+03 -0.60352198346E+02  0.18075709471E+03  0.12500000000E+03 0.  0.
         25    1    1    2    0    0  0.11718047235E+03 -0.21342904465E+03 -0.86508568224E+02  0.28703998428E+03  0.12500000000E+03 0.  0.
</event>
<event>
 5    0  0.5597833E-005  0.2826211E+03  0.7546771E-02  0.1094266E+00
         21   -1    0    0  502  501  0.00000000000E+00  0.00000000000E+00  0.16058485986E+04  0.16058485986E+04  0.00000000000E+00 0.  1.
         21   -1    0    0  501  502 -0.00000000000E+00 -0.00000000000E+00 -0.49739862595E+02  0.49739862595E+02  0.00000000000E+00 0.  1.
         25    1    1    2    0    0 -0.80926844460E+02  0.69813604154E+01  0.69876073844E+03  0.71448545341E+03  0.12500000000E+03 0.  0.
         25    1    1    2    0    0  0.24047754895E+02  0.99200125010E+02  0.17950026421E+03  0.24137999952E+03  0.12500000000E+03 0.  0.
         25    1    1    2    0    0  0.56879089565E+02 -0.10618148543E+03  0.67784773331E+03  0.69972300822E+03  0.12500000000E+03 0.  0.
</event>
<event>
 5    0  0.5597833E-005  0.2612788E+03  0.7546771E-02  0.1106377E+00
         21   -1    0    0  502  501  0.00000000000E+00  0.00000000000E+00  0.49232930671E+03  0.49232930671E+03  0.00000000000E+00 0. -1.
         21   -1    0    0  501  502 -0.00000000000E+00 -0.00000000000E+00 -0.13866050234E+03  0.13866050234E+03  0.00000000000E+00 0. -1.
         25    1    1    2    0    0  0.63278357252E+02 -0.94557222240E+02  0.16931602473E+03  0.23924492681E+03  0.12500000000E+03 0.  0.
         25    1    1    2    0    0 -0.50441689411E+02 -0.56811324983E+02  0.10277625727E+03  0.17877317958E+03  0.12500000000E+03 0.  0.
         25    1    1    2    0    0 -0.12836667841E+02  0.15136854722E+03  0.81576522364E+02  0.21297170265E+03  0.12500000000E+03 0.  0.
</event>
<event>
 5    0  0.5597833E-005  0.3850800E+03  0.7546771E-02  0.1049072E+00
         21   -1    0    0  502  501  0.00000000000E+00  0.00000000000E+00  0.27334880261E+03  0.27334880261E+03  0.00000000000E+00 0.  1.
         21   -1    0    0  501  502 -0.00000000000E+00 -0.00000000000E+00 -0.54248130774E+03  0.54248130774E+03  0.00000000000E+00 0.  1.
         25    1    1    2    0    0  0.19003700760E+03  0.46559915884E+02 -0.23873267889E+03  0.33301678936E+03  0.12500000000E+03 0.  0.
         25    1    1    2    0    0 -0.27985824559E+03  0.32679344051E+02 -0.29896670554E+02  0.30968917976E+03  0.12500000000E+03 0.  0.
         25    1    1    2    0    0  0.89821237991E+02 -0.79239259935E+02 -0.50315568028E+00  0.17312414123E+03  0.12500000000E+03 0.  0.
</event>
<event>
 5    0  0.5597833E-005  0.2914451E+03  0.7546771E-02  0.1089597E+00
         21   -1    0    0  502  501  0.00000000000E+00  0.00000000000E+00  0.58068623525E+02  0.58068623525E+02  0.00000000000E+00 0. -1.
         21   -1    0    0  501  502 -0.00000000000E+00 -0.00000000000E+00 -0.14627559168E+04  0.14627559168E+04  0.00000000000E+00 0. -1.
         25    1    1    2    0    0 -0.10363340772E+03  0.13897107014E+01 -0.11675422757E+03  0.19999591033E+03  0.12500000000E+03 0.  0.
         25    1    1    2    0    0  0.39530642482E+02  0.54160770999E+02 -0.63364536021E+03  0.64932850186E+03  0.12500000000E+03 0.  0.
         25    1    1    2    0    0  0.64102765241E+02 -0.55550481701E+02 -0.65428770550E+03  0.67150012814E+03  0.12500000000E+03 0.  0.
</event>
<event>
 5    0  0.5597833E-005  0.2876314E+03  0.7546771E-02  0.1091592E+00
         21   -1    0    0  502  501  0.00000000000E+00  0.00000000000E+00  0.54530306796E+03  0.54530306796E+03  0.00000000000E+00 0.  1.
         21   -1    0    0  501  502 -0.00000000000E+00 -0.00000000000E+00 -0.15171711847E+03  0.15171711847E+03  0.00000000000E+00 0.  1.
         25    1    1    2    0    0 -0.38403575108E+02 -0.57306785898E+02  0.13878412112E+03  0.19911035775E+03  0.12500000000E+03 0.  0.
         25    1    1    2    0    0  0.13525491141E+03  0.12384933549E+03  0.44243560286E+02  0.22630740507E+03  0.12500000000E+03 0.  0.
         25    1    1    2    0    0 -0.96851336299E+02 -0.66542549591E+02  0.21055826809E+03  0.27160242361E+03  0.12500000000E+03 0.  0.
</event>
<event>
 5    0  0.5597833E-005  0.4088577E+03  0.7546771E-02  0.1040755E+00
         21   -1    0    0  502  501  0.00000000000E+00  0.00000000000E+00  0.40849577317E+03  0.40849577317E+03  0.00000000000E+00 0. -1.
         21   -1    0    0  501  502 -0.00000000000E+00 -0.00000000000E+00 -0.40921994130E+03  0.40921994130E+03  0.00000000000E+00 0. -1.
         25    1    1    2    0    0  0.97999267741E+02  0.14672462722E+03 -0.10660385940E+03  0.24108371067E+03  0.12500000000E+03 0.  0.
         25    1    1    2    0    0  0.12665786662E+03  0.44377192090E+02  0.16984892200E+03  0.24997041157E+03  0.12500000000E+03 0.  0.
         25    1    1    2    0    0 -0.22465713436E+03 -0.19110181931E+03 -0.63969230728E+02  0.32666159223E+03  0.12500000000E+03 0.  0.
</event>
<event>
 5    0  0.5597833E-005  0.3774519E+03  0.7546771E-02  0.1051880E+00
         21   -1    0    0  502  501  0.00000000000E+00  0.00000000000E+00  0.16318999084E+03  0.16318999084E+03  0.00000000000E+00 0.  1.
         21   -1    0    0  501  502 -0.00000000000E+00 -0.00000000000E+00 -0.87303106166E+03  0.87303106166E+03  0.00000000000E+00 0.  1.
         25    1    1    2    0    0 -0.18294066789E+02  0.80373340490E+02 -0.66969582481E+03  0.68623031448E+03  0.12500000000E+03 0.  0.
         25    1    1    2    0    0  0.13117485756E+02 -0.15688636422E+03 -0.24380684424E+02  0.20249646289E+03  0.12500000000E+03 0.  0.
         25    1    1    2    0    0  0.51765810323E+01  0.76513023733E+02 -0.15764561589E+02  0.14749427512E+03  0.12500000000E+03 0.  0.
</event>
<event>
 5    0  0.5597833E-005  0.2792042E+03  0.7546771E-02  0.1096124E+00
         21   -1    0    0  502  501  0.00000000000E+00  0.00000000000E+00  0.17650045778E+03  0.17650045778E+03  0.00000000000E+00 0.  1.
         21   -1    0    0  501  502 -0.00000000000E+00 -0.00000000000E+00 -0.44167014937E+03  0.44167014937E+03  0.00000000000E+00 0.  1.
         25    1    1    2    0    0  0.87473074710E+02  0.10504141923E+03 -0.17158471405E+03  0.25249069815E+03  0.12500000000E+03 0.  0.
         25    1    1    2    0    0  0.20948918071E+02 -0.10628653311E+03  0.17564780034E+02  0.16634063180E+03  0.12500000000E+03 0.  0.
         25    1    1    2    0    0 -0.10842199278E+03  0.12451138784E+01 -0.11114975757E+03  0.19933927720E+03  0.12500000000E+03 0.  0.
</event>
<event>
 5    0  0.5597833E-005  0.5209887E+03  0.7546771E-02  0.1008441E+00
         21   -1    0    0  502  501  0.00000000000E+00  0.00000000000E+00  0.33062959939E+04  0.33062959939E+04  0.00000000000E+00 0. -1.
         21   -1    0    0  501  502 -0.00000000000E+00 -0.00000000000E+00 -0.82094665257E+02  0.82094665257E+02  0.00000000000E+00 0. -1.
         25    1    1    2    0    0  0.43201596927E+03 -0.20576753648E+03  0.16406557136E+04  0.17135793671E+04  0.12500000000E+03 0.  0.
         25    1    1    2    0    0 -0.26999875074E+03  0.11186069697E+03  0.10016487304E+04  0.10508745501E+04  0.12500000000E+03 0.  0.
         25    1    1    2    0    0 -0.16201721853E+03  0.93906839516E+02  0.58189688460E+03  0.62393674192E+03  0.12500000000E+03 0.  0.
</event>
<event>
 5    0  0.5597833E-005  0.3857975E+03  0.7546771E-02  0.1048812E+00
         21   -1    0    0  502  501  0.00000000000E+00  0.00000000000E+00  0.11578503239E+03  0.11578503239E+03  0.00000000000E+00 0.  1.
         21   -1    0    0  501  502 -0.00000000000E+00 -0.00000000000E+00 -0.12854831054E+04  0.12854831054E+04  0.00000000000E+00 0. -1.
         25    1    1    2    0    0 -0.12115481763E+03  0.98840387541E+02 -0.50417479309E+02  0.20643360740E+03  0.12500000000E+03 0.  0.
         25    1    1    2    0    0  0.65560299112E+01  0.60015882168E+02 -0.71659289197E+03  0.72991455696E+03  0.12500000000E+03 0.  0.
         25    1    1    2    0    0  0.11459878772E+03 -0.15885626971E+03 -0.40268770176E+03  0.46491997346E+03  0.12500000000E+03 0.  0.
</event>
<event>
 5    0  0.7311884E-005  0.4735438E+03  0.7546771E-02  0.1020925E+00
         21   -1    0    0  502  501  0.00000000000E+00  0.00000000000E+00  0.71387928252E+03  0.71387928252E+03  0.00000000000E+00 0.  1.
         21   -1    0    0  501  502 -0.00000000000E+00 -0.00000000000E+00 -0.31411996830E+03  0.31411996830E+03  0.00000000000E+00 0.  1.
         25    1    1    2    0    0  0.12913260581E+03  0.57645950557E+02  0.46329123243E+03  0.50026198291E+03  0.12500000000E+03 0.  0.
         25    1    1    2    0    0 -0.26665863552E+03 -0.85405981534E+02  0.46259608682E+02  0.31010637042E+03  0.12500000000E+03 0.  0.
         25    1    1    2    0    0  0.13752602971E+03  0.27760030976E+02 -0.10979152690E+03  0.21763089750E+03  0.12500000000E+03 0.  0.
</event>
<event>
 5    0  0.5597833E-005  0.2522013E+03  0.7546771E-02  0.1111922E+00
         21   -1    0    0  502  501  0.00000000000E+00  0.00000000000E+00  0.54630865413E+03  0.54630865413E+03  0.00000000000E+00 0. -1.
         21   -1    0    0  501  502 -0.00000000000E+00 -0.00000000000E+00 -0.11642775366E+03  0.11642775366E+03  0.00000000000E+00 0. -1.
         25    1    1    2    0    0 -0.14122353211E+03 -0.76332514705E+01  0.14130230701E+03  0.23578315147E+03  0.12500000000E+03 0.  0.
         25    1    1    2    0    0  0.89683114875E+02  0.47510925726E+01  0.23620203652E+03  0.28192558598E+03  0.12500000000E+03 0.  0.
         25    1    1    2    0    0  0.51540417230E+02  0.28821588979E+01  0.52376556940E+02  0.14502767034E+03  0.12500000000E+03 0.  0.
</event>
<event>
 5    0  0.5597833E-005  0.5059860E+03  0.7546771E-02  0.1012228E+00
         21   -1    0    0  502  501  0.00000000000E+00  0.00000000000E+00  0.40263964569E+04  0.40263964569E+04  0.00000000000E+00 0. -1.
         21   -1    0    0  501  502 -0.00000000000E+00 -0.00000000000E+00 -0.63585840004E+02  0.63585840004E+02  0.00000000000E+00 0. -1.
         25    1    1    2    0    0 -0.22478854653E+03  0.41178170622E+02  0.74525362703E+03  0.78946405934E+03  0.12500000000E+03 0.  0.
         25    1    1    2    0    0  0.36299487601E+03 -0.24597602063E+03  0.18670348245E+04  0.19219036184E+04  0.12500000000E+03 0.  0.
         25    1    1    2    0    0 -0.13820632949E+03  0.20479785001E+03  0.13505221654E+04  0.13786146191E+04  0.12500000000E+03 0.  0.
</event>
<event>
 5    0  0.5597833E-005  0.2499129E+03  0.7546771E-02  0.1113360E+00
         21   -1    0    0  502  501  0.00000000000E+00  0.00000000000E+00  0.55687733526E+03  0.55687733526E+03  0.00000000000E+00 0. -1.
         21   -1    0    0  501  502 -0.00000000000E+00 -0.00000000000E+00 -0.11215482240E+03  0.11215482240E+03  0.00000000000E+00 0. -1.
         25    1    1    2    0    0  0.69082248592E+02  0.46607993983E+02  0.35129329383E+02  0.15428458107E+03  0.12500000000E+03 0.  0.
         25    1    1    2    0    0  0.36939763753E+01 -0.54473425935E+02  0.31078481978E+03  0.33940124307E+03  0.12500000000E+03 0.  0.
         25    1    1    2    0    0 -0.72776224968E+02  0.78654319521E+01  0.98808363692E+02  0.17534633351E+03  0.12500000000E+03 0.  0.
</event>
<event>
 5    0  0.5597833E-005  0.5108269E+03  0.7546771E-02  0.1010991E+00
         21   -1    0    0  502  501  0.00000000000E+00  0.00000000000E+00  0.65722244558E+03  0.65722244558E+03  0.00000000000E+00 0.  1.
         21   -1    0    0  501  502 -0.00000000000E+00 -0.00000000000E+00 -0.39704080104E+03  0.39704080104E+03  0.00000000000E+00 0.  1.
         25    1    1    2    0    0 -0.17462315612E+03  0.77715263738E+02 -0.25877360039E+03  0.34514009494E+03  0.12500000000E+03 0.  0.
         25    1    1    2    0    0  0.60607815977E+02 -0.13068300256E-01  0.50349134694E+03  0.52230435952E+03  0.12500000000E+03 0.  0.
         25    1    1    2    0    0  0.11401534015E+03 -0.77702195438E+02  0.15463898000E+02  0.18681879217E+03  0.12500000000E+03 0.  0.
</event>
<event>
 5    0  0.5597833E-005  0.5280079E+03  0.7546771E-02  0.1006716E+00
         21   -1    0    0  502  501  0.00000000000E+00  0.00000000000E+00  0.71548642575E+03  0.71548642575E+03  0.00000000000E+00 0. -1.
         21   -1    0    0  501  502 -0.00000000000E+00 -0.00000000000E+00 -0.38965428420E+03  0.38965428420E+03  0.00000000000E+00 0. -1.
         25    1    1    2    0    0 -0.27188520065E+03 -0.12534581086E+03 -0.67853912054E+02  0.33145480539E+03  0.12500000000E+03 0.  0.
         25    1    1    2    0    0  0.46761150283E+02 -0.19916169923E+03  0.21683457192E+03  0.32325565609E+03  0.12500000000E+03 0.  0.
         25    1    1    2    0    0  0.22512405037E+03  0.32450751009E+03  0.17685148168E+03  0.45043024847E+03  0.12500000000E+03 0.  0.
</event>
<event>
 5    0  0.5597833E-005  0.5004434E+03  0.7546771E-02  0.1013663E+00
         21   -1    0    0  502  501  0.00000000000E+00  0.00000000000E+00  0.10653594696E+04  0.10653594696E+04  0.00000000000E+00 0. -1.
         21   -1    0    0  501  502 -0.00000000000E+00 -0.00000000000E+00 -0.23507896438E+03  0.23507896438E+03  0.00000000000E+00 0. -1.
         25    1    1    2    0    0  0.64573463211E+02  0.26453700622E+03  0.46318779040E+03  0.55164978835E+03  0.12500000000E+03 0.  0.
         25    1    1    2    0    0 -0.19632497484E+03 -0.11675268140E+03 -0.54975406800E+02  0.26612399312E+03  0.12500000000E+03 0.  0.
         25    1    1    2    0    0  0.13175151163E+03 -0.14778432482E+03  0.42206812158E+03  0.48266465246E+03  0.12500000000E+03 0.  0.
</event>
<event>
 5    0  0.5597833E-005  0.2597134E+03  0.7546771E-02  0.1107316E+00
         21   -1    0    0  502  501  0.00000000000E+00  0.00000000000E+00  0.23052636125E+03  0.23052636125E+03  0.00000000000E+00 0.  1.
         21   -1    0    0  501  502 -0.00000000000E+00 -0.00000000000E+00 -0.29259589625E+03  0.29259589625E+03  0.00000000000E+00 0.  1.
         25    1    1    2    0    0 -0.59857725074E+01  0.62093416392E+02 -0.19055226076E+02  0.14099476399E+03  0.12500000000E+03 0.  0.
         25    1    1    2    0    0 -0.27755082568E+02 -0.44608651584E+02  0.11450838466E+03  0.17747519985E+03  0.12500000000E+03 0.  0.
         25    1    1    2    0    0  0.33740855075E+02 -0.17484764808E+02 -0.15752269359E+03  0.20465229365E+03  0.12500000000E+03 0.  0.
</event>
<event>
 5    0  0.5597833E-005  0.3788555E+03  0.7546771E-02  0.1051358E+00
         21   -1    0    0  502  501  0.00000000000E+00  0.00000000000E+00  0.25871061892E+04  0.25871061892E+04  0.00000000000E+00 0. -1.
         21   -1    0    0  501  502 -0.00000000000E+00 -0.00000000000E+00 -0.55479540502E+02  0.55479540502E+02  0.00000000000E+00 0. -1.
         25    1    1    2    0    0  0.75036129053E+02  0.98188079713E+02  0.27619054812E+03  0.32737980777E+03  0.12500000000E+03 0.  0.
         25    1    1    2    0    0  0.75438742052E+02 -0.15686445177E+03  0.45182184627E+03  0.50006543652E+03  0.12500000000E+03 0.  0.
         25    1    1    2    0    0 -0.15047487110E+03  0.58676372058E+02  0.18036142543E+04  0.18151404854E+04  0.12500000000E+03 0.  0.
</event>
<event>
 5    0  0.5597833E-005  0.2997173E+03  0.7546771E-02  0.1085382E+00
         21   -1    0    0  502  501  0.00000000000E+00  0.00000000000E+00  0.16283448863E+03  0.16283448863E+03  0.00000000000E+00 0. -1.
         21   -1    0    0  501  502 -0.00000000000E+00 -0.00000000000E+00 -0.55166714548E+03  0.55166714548E+03  0.00000000000E+00 0. -1.
         25    1    1    2    0    0  0.73987108922E+02 -0.20327181324E+02 -0.54900766831E+01  0.14677338835E+03  0.12500000000E+03 0.  0.
         25    1    1    2    0    0 -0.12077302093E+03 -0.12999467983E+03 -0.21530578077E+03  0.30572261709E+03  0.12500000000E+03 0.  0.
         25    1    1    2    0    0  0.46785912006E+02  0.15032186116E+03 -0.16803679940E+03  0.26200562867E+03  0.12500000000E+03 0.  0.
</event>
<event>
 5    0  0.5597833E-005  0.3059361E+03  0.7546771E-02  0.1082310E+00
         21   -1    0    0  502  501  0.00000000000E+00  0.00000000000E+00  0.10495372421E+03  0.10495372421E+03  0.00000000000E+00 0. -1.
         21   -1    0    0  501  502 -0.00000000000E+00 -0.00000000000E+00 -0.89179184575E+03  0.89179184575E+03  0.00000000000E+00 0. -1.
         25    1    1    2    0    0  0.21538017562E+02  0.11458765870E+03 -0.12465810499E+03  0.21156290049E+03  0.12500000000E+03 0.  0.
         25    1    1    2    0    0  0.12154250817E+03  0.37244514816E+02 -0.26239016584E+03  0.31722757494E+03  0.12500000000E+03 0.  0.
         25    1    1    2    0    0 -0.14308052573E+03 -0.15183217352E+03 -0.39978985072E+03  0.46795509453E+03  0.12500000000E+03 0.  0.
</event>
<event>
 5    0  0.5597833E-005  0.3772305E+03  0.7546771E-02  0.1051962E+00
         21   -1    0    0  502  501  0.00000000000E+00  0.00000000000E+00  0.23412860268E+04  0.23412860268E+04  0.00000000000E+00 0.  1.
         21   -1    0    0  501  502 -0.00000000000E+00 -0.00000000000E+00 -0.60779779713E+02  0.60779779713E+02  0.00000000000E+00 0.  1.
         25    1    1    2    0    0 -0.15436485022E+03 -0.26459558833E+02  0.46656141405E+03  0.50777275263E+03  0.12500000000E+03 0.  0.
         25    1    1    2    0    0 -0.28983063018E+02 -0.10673395912E+03  0.20352866665E+03  0.26321298243E+03  0.12500000000E+03 0.  0.
         25    1    1    2    0    0  0.18334791324E+03  0.13319351795E+03  0.16104161664E+04  0.16310800715E+04  0.12500000000E+03 0.  0.
</event>
<event>
 5    0  0.7379030E-005  0.3137272E+03  0.7546771E-02  0.1078573E+00
         21   -1    0    0  502  501  0.00000000000E+00  0.00000000000E+00  0.59783348266E+03  0.59783348266E+03  0.00000000000E+00 0. -1.
         21   -1    0    0  501  502 -0.00000000000E+00 -0.00000000000E+00 -0.16463577640E+03  0.16463577640E+03  0.00000000000E+00 0. -1.
         25    1    1    2    0    0 -0.53023802698E+02  0.76784734666E+02  0.41721424475E+03  0.44542131196E+03  0.12500000000E+03 0.  0.
         25    1    1    2    0    0  0.10743700037E+03 -0.54490661924E+02  0.36490190696E+02  0.17739356049E+03  0.12500000000E+03 0.  0.
         25    1    1    2    0    0 -0.54413197669E+02 -0.22294072741E+02 -0.20506729178E+02  0.13965438662E+03  0.12500000000E+03 0.  0.
</event>
<event>
 5    0  0.5597833E-005  0.3068879E+03  0.7546771E-02  0.1081847E+00
         21   -1    0    0  502  501  0.00000000000E+00  0.00000000000E+00  0.76033581767E+03  0.76033581767E+03  0.00000000000E+00 0.  1.
         21   -1    0    0  501  502 -0.00000000000E+00 -0.00000000000E+00 -0.12386659619E+03  0.12386659619E+03  0.00000000000E+00 0.  1.
         25    1    1    2    0    0 -0.91709136132E+02  0.62384469043E+02  0.15774162157E+03  0.22980384419E+03  0.12500000000E+03 0.  0.
         25    1    1    2    0    0 -0.32115715437E+02  0.74925810790E+02  0.38393315995E+03  0.41191621431E+03  0.12500000000E+03 0.  0.
         25    1    1    2    0    0  0.12382485157E+03 -0.13731027983E+03  0.94794439962E+02  0.24248235536E+03  0.12500000000E+03 0.  0.
</event>
<event>
 5    0  0.5841926E-005  0.2996721E+03  0.7546771E-02  0.1085405E+00
         21   -1    0    0  502  501  0.00000000000E+00  0.00000000000E+00  0.32318150431E+03  0.32318150431E+03  0.00000000000E+00 0. -1.
         21   -1    0    0  501  502 -0.00000000000E+00 -0.00000000000E+00 -0.27787280278E+03  0.27787280278E+03  0.00000000000E+00 0. -1.
         25    1    1    2    0    0  0.15091318296E+03  0.39543059383E+02  0.36502716226E+02  0.20321390363E+03  0.12500000000E+03 0.  0.
         25    1    1    2    0    0 -0.12737701149E+03 -0.10991702041E+03  0.93602021750E+02  0.22954954347E+03  0.12500000000E+03 0.  0.
         25    1    1    2    0    0 -0.23536171477E+02  0.70373961030E+02 -0.84796036448E+02  0.16829085999E+03  0.12500000000E+03 0.  0.
</event>
<event>
 5    0  0.5597833E-005  0.3266348E+03  0.7546771E-02  0.1072636E+00
         21   -1    0    0  502  501  0.00000000000E+00  0.00000000000E+00  0.96418752889E+02  0.96418752889E+02  0.00000000000E+00 0. -1.
         21   -1    0    0  501  502 -0.00000000000E+00 -0.00000000000E+00 -0.11065304390E+04  0.11065304390E+04  0.00000000000E+00 0. -1.
         25    1    1    2    0    0 -0.19794794657E+03  0.17535861890E+02 -0.59861324690E+03  0.64300366669E+03  0.12500000000E+03 0.  0.
         25    1    1    2    0    0  0.47942435983E+02  0.82163141376E+02 -0.13535718463E+03  0.20735434984E+03  0.12500000000E+03 0.  0.
         25    1    1    2    0    0  0.15000551059E+03 -0.99699003265E+02 -0.27614125458E+03  0.35259117536E+03  0.12500000000E+03 0.  0.
</event>
<event>
 5    0  0.5597833E-005  0.4219647E+03  0.7546771E-02  0.1036429E+00
         21   -1    0    0  502  501  0.00000000000E+00  0.00000000000E+00  0.29754789097E+03  0.29754789097E+03  0.00000000000E+00 0. -1.
         21   -1    0    0  501  502 -0.00000000000E+00 -0.00000000000E+00 -0.59840511840E+03  0.59840511840E+03  0.00000000000E+00 0. -1.
         25    1    1    2    0    0 -0.44272864636E+02 -0.75877760572E+01 -0.35165637827E+03  0.37590539936E+03  0.12500000000E+03 0.  0.
         25    1    1    2    0    0  0.30763550633E+02  0.19558153596E+03 -0.93114564334E+02  0.25197987092E+03  0.12500000000E+03 0.  0.
         25    1    1    2    0    0  0.13509314004E+02 -0.18799375991E+03  0.14391371518E+03  0.26806773910E+03  0.12500000000E+03 0.  0.
</event>
<event>
 5    0  0.5597833E-005  0.3943616E+03  0.7546771E-02  0.1045750E+00
         21   -1    0    0  502  501  0.00000000000E+00  0.00000000000E+00  0.51678638511E+03  0.51678638511E+03  0.00000000000E+00 0. -1.
         21   -1    0    0  501  502 -0.00000000000E+00 -0.00000000000E+00 -0.30093880408E+03  0.30093880408E+03  0.00000000000E+00 0. -1.
         25    1    1    2    0    0  0.26196411646E+03 -0.17857488254E+03  0.23850047045E+01  0.34080034512E+03  0.12500000000E+03 0.  0.
         25    1    1    2    0    0 -0.19182684265E+03  0.91942807156E+02  0.18180786486E+03  0.30648020666E+03  0.12500000000E+03 0.  0.
         25    1    1    2    0    0 -0.70137273814E+02  0.86632075389E+02  0.31654711465E+02  0.17044463741E+03  0.12500000000E+03 0.  0.
</event>
<event>
 5    0  0.5597833E-005  0.2082729E+03  0.7546771E-02  0.1142941E+00
         21   -1    0    0  502  501  0.00000000000E+00  0.00000000000E+00  0.66966118116E+03  0.66966118116E+03  0.00000000000E+00 0. -1.
         21   -1    0    0  501  502 -0.00000000000E+00 -0.00000000000E+00 -0.64775466987E+02  0.64775466987E+02  0.00000000000E+00 0. -1.
         25    1    1    2    0    0 -0.85968325484E+01  0.35765298621E+02  0.20052552471E+03  0.23914127242E+03  0.12500000000E+03 0.  0.
         25    1    1    2    0    0 -0.36652791861E+01  0.38057690211E+02  0.12835353845E+03  0.18319785176E+03  0.12500000000E+03 0.  0.
         25    1    1    2    0    0  0.12262111734E+02 -0.73822988832E+02  0.27600665101E+03  0.31209752397E+03  0.12500000000E+03 0.  0.
</event>
<event>
 5    0  0.5597833E-005  0.2228331E+03  0.7546771E-02  0.1131788E+00
         21   -1    0    0  502  501  0.00000000000E+00  0.00000000000E+00  0.52104814745E+02  0.52104814745E+02  0.00000000000E+00 0.  1.
         21   -1    0    0  501  502 -0.00000000000E+00 -0.00000000000E+00 -0.95297545592E+03  0.95297545592E+03  0.00000000000E+00 0.  1.
         25    1    1    2    0    0 -0.15579317072E+02 -0.67519709245E+02 -0.25722843761E+03  0.29426704772E+03  0.12500000000E+03 0.  0.
         25    1    1    2    0    0  0.79731583605E+02  0.72734213409E+01 -0.33331574771E+03  0.36487589089E+03  0.12500000000E+03 0.  0.
         25    1    1    2    0    0 -0.64152266532E+02  0.60246287904E+02 -0.31032645586E+03  0.34593733206E+03  0.12500000000E+03 0.  0.
</event>
<event>
 5    0  0.5597833E-005  0.6831111E+03  0.7546771E-02  0.9746558E-01
         21   -1    0    0  502  501  0.00000000000E+00  0.00000000000E+00  0.62331037052E+03  0.62331037052E+03  0.00000000000E+00 0.  1.
         21   -1    0    0  501  502 -0.00000000000E+00 -0.00000000000E+00 -0.74864908927E+03  0.74864908927E+03  0.00000000000E+00 0.  1.
         25    1    1    2    0    0  0.44859794322E+03  0.33265053527E+03 -0.30471352899E+02  0.57310557197E+03  0.12500000000E+03 0.  0.
         25    1    1    2    0    0 -0.42833499142E+03 -0.30997299324E+03  0.11249415285E+03  0.55482795156E+03  0.12500000000E+03 0.  0.
         25    1    1    2    0    0 -0.20262951808E+02 -0.22677542028E+02 -0.20736151870E+03  0.24402593626E+03  0.12500000000E+03 0.  0.
</event>
<event>
 5    0  0.5597833E-005  0.2219120E+03  0.7546771E-02  0.1132466E+00
         21   -1    0    0  502  501  0.00000000000E+00  0.00000000000E+00  0.47651896450E+03  0.47651896450E+03  0.00000000000E+00 0. -1.
         21   -1    0    0  501  502 -0.00000000000E+00 -0.00000000000E+00 -0.10334307585E+03  0.10334307585E+03  0.00000000000E+00 0. -1.
         25    1    1    2    0    0  0.71361816549E+02 -0.19785333906E+02  0.19069701729E+03  0.23973802515E+03  0.12500000000E+03 0.  0.
         25    1    1    2    0    0 -0.44610936215E+02 -0.14454194090E+02  0.27460902441E+02  0.13630172603E+03  0.12500000000E+03 0.  0.
         25    1    1    2    0    0 -0.26750880334E+02  0.34239527995E+02  0.15501796891E+03  0.20382228917E+03  0.12500000000E+03 0.  0.
</event>
<event>
 5    0  0.5597833E-005  0.3992777E+03  0.7546771E-02  0.1044030E+00
         21   -1    0    0  502  501  0.00000000000E+00  0.00000000000E+00  0.41828173199E+03  0.41828173199E+03  0.00000000000E+00 0.  1.
         21   -1    0    0  501  502 -0.00000000000E+00 -0.00000000000E+00 -0.38113703964E+03  0.38113703964E+03  0.00000000000E+00 0.  1.
         25    1    1    2    0    0  0.10636004916E+03 -0.24115615459E+03 -0.40314640008E+02  0.29448093513E+03  0.12500000000E+03 0.  0.
         25    1    1    2    0    0  0.30333839566E+01 -0.32084579893E+02 -0.76481220067E+02  0.15004332277E+03  0.12500000000E+03 0.  0.
         25    1    1    2    0    0 -0.10939343312E+03  0.27324073448E+03  0.15394055242E+03  0.35489451372E+03  0.12500000000E+03 0.  0.
</event>
<event>
 5    0  0.5597833E-005  0.2493548E+03  0.7546771E-02  0.1113713E+00
         21   -1    0    0  502  501  0.00000000000E+00  0.00000000000E+00  0.69963060363E+03  0.69963060363E+03  0.00000000000E+00 0.  1.
         21   -1    0    0  501  502 -0.00000000000E+00 -0.00000000000E+00 -0.88872374689E+02  0.88872374689E+02  0.00000000000E+00 0.  1.
         25    1    1    2    0    0  0.78329346193E+02  0.22236840954E+02  0.21342009986E+03  0.26039028898E+03  0.12500000000E+03 0.  0.
         25    1    1    2    0    0 -0.31266120260E+02 -0.11698319845E+03  0.26748951798E+03  0.31912110746E+03  0.12500000000E+03 0.  0.
         25    1    1    2    0    0 -0.47063225933E+02  0.94746357493E+02  0.12984861110E+03  0.20899158189E+03  0.12500000000E+03 0.  0.
</event>
<event>
 5    0  0.5597833E-005  0.3347175E+03  0.7546771E-02  0.1069068E+00
         21   -1    0    0  502  501  0.00000000000E+00  0.00000000000E+00  0.22369753484E+04  0.22369753484E+04  0.00000000000E+00 0.  1.
         21   -1    0    0  501  502 -0.00000000000E+00 -0.00000000000E+00 -0.50083608035E+02  0.50083608035E+02  0.00000000000E+00 0.  1.
         25    1    1    2    0    0 -0.16774745787E+02  0.57760371508E+02  0.76868857138E+02  0.15859216188E+03  0.12500000000E+03 0.  0.
         25    1    1    2    0    0 -0.35331147454E+02  0.45206865704E+01  0.91594140063E+03  0.92511749306E+03  0.12500000000E+03 0.  0.
         25    1    1    2    0    0  0.52105893241E+02 -0.62281058079E+02  0.11940814826E+04  0.12033493015E+04  0.12500000000E+03 0.  0.
</event>
<event>
 5    0  0.5597833E-005  0.2666220E+03  0.7546771E-02  0.1103229E+00
         21   -1    0    0  502  501  0.00000000000E+00  0.00000000000E+00  0.93063565501E+03  0.93063565501E+03  0.00000000000E+00 0.  1.
         21   -1    0    0  501  502 -0.00000000000E+00 -0.00000000000E+00 -0.76385712426E+02  0.76385712426E+02  0.00000000000E+00 0.  1.
         25    1    1    2    0    0  0.26659095117E+02 -0.15859751231E+02  0.13658685433E+03  0.18773174435E+03  0.12500000000E+03 0.  0.
         25    1    1    2    0    0  0.37978657009E+02 -0.11123667193E+03  0.50993766914E+03  0.53803104184E+03  0.12500000000E+03 0.  0.
         25    1    1    2    0    0 -0.64637752126E+02  0.12709642316E+03  0.20772541911E+03  0.28125858125E+03  0.12500000000E+03 0.  0.
</event>
<event>
 5    0  0.5597833E-005  0.3209437E+03  0.7546771E-02  0.1075216E+00
         21   -1    0    0  502  501  0.00000000000E+00  0.00000000000E+00  0.62525627114E+03  0.62525627114E+03  0.00000000000E+00 0.  1.
         21   -1    0    0  501  502 -0.00000000000E+00 -0.00000000000E+00 -0.16474027547E+03  0.16474027547E+03  0.00000000000E+00 0. -1.
         25    1    1    2    0    0  0.66098479277E+02  0.14313710983E+02 -0.94654373171E+01  0.14243765580E+03  0.12500000000E+03 0.  0.
         25    1    1    2    0    0 -0.22783626152E+02  0.17292287921E+03  0.25498811032E+03  0.33326468787E+03  0.12500000000E+03 0.  0.
         25    1    1    2    0    0 -0.43314853125E+02 -0.18723659020E+03  0.21499332268E+03  0.31429420294E+03  0.12500000000E+03 0.  0.
</event>
<event>
 5    0  0.5597833E-005  0.2960167E+03  0.7546771E-02  0.1087249E+00
         21   -1    0    0  502  501  0.00000000000E+00  0.00000000000E+00  0.26503663463E+04  0.26503663463E+04  0.00000000000E+00 0.  1.
         21   -1    0    0  501  502 -0.00000000000E+00 -0.00000000000E+00 -0.33061802930E+02  0.33061802930E+02  0.00000000000E+00 0.  1.
         25    1    1    2    0    0 -0.15188180664E+03 -0.14107413351E+01  0.11850200670E+04  0.12012358772E+04  0.12500000000E+03 0.  0.
         25    1    1    2    0    0  0.80525680289E+02 -0.35210495409E+02  0.11767717330E+04  0.11866511179E+04  0.12500000000E+03 0.  0.
         25    1    1    2    0    0  0.71356126355E+02  0.36621236744E+02  0.25551274339E+03  0.29554115413E+03  0.12500000000E+03 0.  0.
</event>
<event>
 5    0  0.5597833E-005  0.3569445E+03  0.7546771E-02  0.1059800E+00
         21   -1    0    0  502  501  0.00000000000E+00  0.00000000000E+00  0.46246416601E+03  0.46246416601E+03  0.00000000000E+00 0.  1.
         21   -1    0    0  501  502 -0.00000000000E+00 -0.00000000000E+00 -0.27550104133E+03  0.27550104133E+03  0.00000000000E+00 0.  1.
         25    1    1    2    0    0  0.80954579955E+02  0.11679297261E+03  0.32480305047E+01  0.18928759116E+03  0.12500000000E+03 0.  0.
         25    1    1    2    0    0 -0.18699657153E+03 -0.88512083755E+01 -0.62680585467E+02  0.23366625227E+03  0.12500000000E+03 0.  0.
         25    1    1    2    0    0  0.10604199158E+03 -0.10794176423E+03  0.24639567965E+03  0.31501136391E+03  0.12500000000E+03 0.  0.
</event>
<event>
 5    0  0.5597833E-005  0.2920974E+03  0.7546771E-02  0.1089259E+00
         21   -1    0    0  502  501  0.00000000000E+00  0.00000000000E+00  0.29424398084E+03  0.29424398084E+03  0.00000000000E+00 0. -1.
         21   -1    0    0  501  502 -0.00000000000E+00 -0.00000000000E+00 -0.28996651530E+03  0.28996651530E+03  0.00000000000E+00 0. -1.
         25    1    1    2    0    0  0.21062588515E+02 -0.67648691205E+02 -0.22477829168E+02  0.14543118944E+03  0.12500000000E+03 0.  0.
         25    1    1    2    0    0  0.12958613648E+03  0.13539244171E+02 -0.92901628554E+02  0.20305563397E+03  0.12500000000E+03 0.  0.
         25    1    1    2    0    0 -0.15064872500E+03  0.54109447034E+02  0.11965692326E+03  0.23572367273E+03  0.12500000000E+03 0.  0.
</event>
<event>
 5    0  0.5597833E-005  0.3810802E+03  0.7546771E-02  0.1050535E+00
         21   -1    0    0  502  501  0.00000000000E+00  0.00000000000E+00  0.16876571085E+03  0.16876571085E+03  0.00000000000E+00 0.  1.
         21   -1    0    0  501  502 -0.00000000000E+00 -0.00000000000E+00 -0.86049530552E+03  0.86049530552E+03  0.00000000000E+00 0.  1.
         25    1    1    2    0    0 -0.86944199119E+02 -0.24750940482E+02  0.60407546173E+02  0.16566826627E+03  0.12500000000E+03 0.  0.
         25    1    1    2    0    0 -0.69492983531E+02 -0.10500675458E+03 -0.23870208541E+03  0.29742121452E+03  0.12500000000E+03 0.  0.
         25    1    1    2    0    0  0.15643718265E+03  0.12975769506E+03 -0.51343505544E+03  0.56617153558E+03  0.12500000000E+03 0.  0.
</event>
<event>
 5    0  0.5597833E-005  0.4224855E+03  0.7546771E-02  0.1036260E+00
         21   -1    0    0  502  501  0.00000000000E+00  0.00000000000E+00  0.39371161688E+03  0.39371161688E+03  0.00000000000E+00 0. -1.
         21   -1    0    0  501  502 -0.00000000000E+00 -0.00000000000E+00 -0.45336233122E+03  0.45336233122E+03  0.00000000000E+00 0. -1.
         25    1    1    2    0    0  0.16844307773E+03  0.12781578539E+03 -0.40646895654E+02  0.24897211803E+03  0.12500000000E+03 0.  0.
         25    1    1    2    0    0 -0.18453992741E+03 -0.15279736449E+03 -0.22746608518E+03  0.35322491321E+03  0.12500000000E+03 0.  0.
         25    1    1    2    0    0  0.16096849679E+02  0.24981579091E+02  0.20846226649E+03  0.24487691686E+03  0.12500000000E+03 0.  0.
</event>
<event>
 5    0  0.5597833E-005  0.4326013E+03  0.7546771E-02  0.1033041E+00
         21   -1    0    0  502  501  0.00000000000E+00  0.00000000000E+00  0.22634231605E+03  0.22634231605E+03  0.00000000000E+00 0. -1.
         21   -1    0    0  501  502 -0.00000000000E+00 -0.00000000000E+00 -0.82681798132E+03  0.82681798132E+03  0.00000000000E+00 0. -1.
         25    1    1    2    0    0  0.47350528909E+02  0.18937964089E+03 -0.92525763919E+02  0.24958513169E+03  0.12500000000E+03 0.  0.
         25    1    1    2    0    0  0.67640390126E+02  0.97278500450E+02 -0.42737393170E+03  0.46077305316E+03  0.12500000000E+03 0.  0.
         25    1    1    2    0    0 -0.11499091904E+03 -0.28665814134E+03 -0.80575969653E+02  0.34280211251E+03  0.12500000000E+03 0.  0.
</event>
<event>
 5    0  0.5597833E-005  0.3711794E+03  0.7546771E-02  0.1054243E+00
         21   -1    0    0  502  501  0.00000000000E+00  0.00000000000E+00  0.32288910375E+03  0.32288910375E+03  0.00000000000E+00 0. -1.
         21   -1    0    0  501  502 -0.00000000000E+00 -0.00000000000E+00 -0.42669193680E+03  0.42669193680E+03  0.00000000000E+00 0. -1.
         25    1    1    2    0    0 -0.70710517858E+02 -0.21794618366E+03 -0.79911829526E+01  0.26113095433E+03  0.12500000000E+03 0.  0.
         25    1    1    2    0    0  0.52885456171E+02  0.48899695368E+02 -0.20515699722E+03  0.25080359883E+03  0.12500000000E+03 0.  0.
         25    1    1    2    0    0  0.17825061687E+02  0.16904648829E+03  0.10934534712E+03  0.23764648738E+03  0.12500000000E+03 0.  0.
</event>
<event>
 5    0  0.5597833E-005  0.2648568E+03  0.7546771E-02  0.1104260E+00
         21   -1    0    0  502  501  0.00000000000E+00  0.00000000000E+00  0.10512464142E+03  0.10512464142E+03  0.00000000000E+00 0. -1.
         21   -1    0    0  501  502 -0.00000000000E+00 -0.00000000000E+00 -0.66729503192E+03  0.66729503192E+03  0.00000000000E+00 0. -1.
         25    1    1    2    0    0 -0.47703389061E+02 -0.22283166282E+02 -0.14561839079E+03  0.19900218231E+03  0.12500000000E+03 0.  0.
         25    1    1    2    0    0 -0.11462987736E+03  0.36838014649E+02 -0.27047832259E+03  0.32137294706E+03  0.12500000000E+03 0.  0.
         25    1    1    2    0    0  0.16233326642E+03 -0.14554848367E+02 -0.14607367712E+03  0.25204454397E+03  0.12500000000E+03 0.  0.
</event>
<event>
 5    0  0.5597833E-005  0.2784439E+03  0.7546771E-02  0.1096542E+00
         21   -1    0    0  502  501  0.00000000000E+00  0.00000000000E+00  0.27660816096E+03  0.27660816096E+03  0.00000000000E+00 0.  1.
         21   -1    0    0  501  502 -0.00000000000E+00 -0.00000000000E+00 -0.28029183836E+03  0.28029183836E+03  0.00000000000E+00 0.  1.
         25    1    1    2    0    0 -0.11475689078E+02 -0.52459987249E+02 -0.34212183872E+02  0.14028262625E+03  0.12500000000E+03 0.  0.
         25    1    1    2    0    0 -0.96803621630E+02  0.44313242363E+02 -0.11149761391E+03  0.19847247295E+03  0.12500000000E+03 0.  0.
         25    1    1    2    0    0  0.10827931071E+03  0.81467448858E+01  0.14202612038E+03  0.21814490012E+03  0.12500000000E+03 0.  0.
</event>
<event>
 5    0  0.7150616E-005  0.3137188E+03  0.7546771E-02  0.1078577E+00
         21   -1    0    0  502  501  0.00000000000E+00  0.00000000000E+00  0.72711305200E+03  0.72711305200E+03  0.00000000000E+00 0. -1.
         21   -1    0    0  501  502 -0.00000000000E+00 -0.00000000000E+00 -0.13535653253E+03  0.13535653253E+03  0.00000000000E+00 0. -1.
         25    1    1    2    0    0 -0.33755885473E+02 -0.11216840142E+03  0.38832022562E+03  0.42442762363E+03  0.12500000000E+03 0.  0.
         25    1    1    2    0    0  0.41725700532E+02  0.19531778728E+03  0.10240924116E+03  0.25690995463E+03  0.12500000000E+03 0.  0.
         25    1    1    2    0    0 -0.79698150596E+01 -0.83149385860E+02  0.10102705269E+03  0.18113200627E+03  0.12500000000E+03 0.  0.
</event>
<event>
 5    0  0.5597833E-005  0.3871084E+03  0.7546771E-02  0.1048337E+00
         21   -1    0    0  502  501  0.00000000000E+00  0.00000000000E+00  0.22600781178E+03  0.22600781178E+03  0.00000000000E+00 0. -1.
         21   -1    0    0  501  502 -0.00000000000E+00 -0.00000000000E+00 -0.66304315453E+03  0.66304315453E+03  0.00000000000E+00 0. -1.
         25    1    1    2    0    0  0.19475354668E+03 -0.13408105982E+03 -0.15636299882E+02  0.26791074712E+03  0.12500000000E+03 0.  0.
         25    1    1    2    0    0 -0.12053131749E+03  0.10120779013E+03 -0.42705529434E+03  0.47198733002E+03  0.12500000000E+03 0.  0.
         25    1    1    2    0    0 -0.74222229195E+02  0.32873269692E+02  0.56562514688E+01  0.14915288917E+03  0.12500000000E+03 0.  0.
</event>
<event>
 5    0  0.5597833E-005  0.2639426E+03  0.7546771E-02  0.1104797E+00
         21   -1    0    0  502  501  0.00000000000E+00  0.00000000000E+00  0.85621808353E+03  0.85621808353E+03  0.00000000000E+00 0.  1.
         21   -1    0    0  501  502 -0.00000000000E+00 -0.00000000000E+00 -0.81364427537E+02  0.81364427537E+02  0.00000000000E+00 0.  1.
         25    1    1    2    0    0  0.92648765235E+02 -0.89995249647E+02  0.20406728404E+03  0.27194005787E+03  0.12500000000E+03 0.  0.
         25    1    1    2    0    0 -0.12663909299E+03  0.11185496929E+03  0.32717451788E+03  0.38886650560E+03  0.12500000000E+03 0.  0.
         25    1    1    2    0    0  0.33990327757E+02 -0.21859719639E+02  0.24361185407E+03  0.27677594760E+03  0.12500000000E+03 0.  0.
</event>
<event>
 5    0  0.5597833E-005  0.5442157E+03  0.7546771E-02  0.1002842E+00
         21   -1    0    0  502  501  0.00000000000E+00  0.00000000000E+00  0.92475653205E+02  0.92475653205E+02  0.00000000000E+00 0. -1.
         21   -1    0    0  501  502 -0.00000000000E+00 -0.00000000000E+00 -0.32026891396E+04  0.32026891396E+04  0.00000000000E+00 0. -1.
         25    1    1    2    0    0 -0.41809679303E+02 -0.77192262564E+02 -0.94658534416E+02  0.17969956266E+03  0.12500000000E+03 0.  0.
         25    1    1    2    0    0 -0.32224238695E+03 -0.73054178455E+02 -0.17089503341E+04  0.17450826094E+04  0.12500000000E+03 0.  0.
         25    1    1    2    0    0  0.36405206626E+03  0.15024644102E+03 -0.13066046178E+04  0.13703826208E+04  0.12500000000E+03 0.  0.
</event>
<event>
 5    0  0.5597833E-005  0.4374963E+03  0.7546771E-02  0.1031518E+00
         21   -1    0    0  502  501  0.00000000000E+00  0.00000000000E+00  0.99767044186E+03  0.99767044186E+03  0.00000000000E+00 0.  1.
         21   -1    0    0  501  502 -0.00000000000E+00 -0.00000000000E+00 -0.19184996214E+03  0.19184996214E+03  0.00000000000E+00 0.  1.
         25    1    1    2    0    0 -0.34685450867E+03  0.69410453426E+02  0.50341724742E+03  0.62783738837E+03  0.12500000000E+03 0.  0.
         25    1    1    2    0    0  0.28937007580E+03 -0.98228595666E+02  0.23833650611E+03  0.40720165510E+03  0.12500000000E+03 0.  0.
         25    1    1    2    0    0  0.57484432869E+02  0.28818142240E+02  0.64066726187E+02  0.15448136052E+03  0.12500000000E+03 0.  0.
</event>
<event>
 5    0  0.5597833E-005  0.2976630E+03  0.7546771E-02  0.1086415E+00
         21   -1    0    0  502  501  0.00000000000E+00  0.00000000000E+00  0.11482171692E+03  0.11482171692E+03  0.00000000000E+00 0. -1.
         21   -1    0    0  501  502 -0.00000000000E+00 -0.00000000000E+00 -0.77165934516E+03  0.77165934516E+03  0.00000000000E+00 0. -1.
         25    1    1    2    0    0  0.44871685305E+02  0.70598595131E+02 -0.11771643092E+03  0.19099682690E+03  0.12500000000E+03 0.  0.
         25    1    1    2    0    0 -0.70758970214E+01 -0.68284865045E+02 -0.54636845577E+03  0.56467369389E+03  0.12500000000E+03 0.  0.
         25    1    1    2    0    0 -0.37795788284E+02 -0.23137300861E+01  0.72472584419E+01  0.13081054129E+03  0.12500000000E+03 0.  0.
</event>
<event>
 5    0  0.5597833E-005  0.2733900E+03  0.7546771E-02  0.1099355E+00
         21   -1    0    0  502  501  0.00000000000E+00  0.00000000000E+00  0.23741726346E+04  0.23741726346E+04  0.00000000000E+00 0. -1.
         21   -1    0    0  501  502 -0.00000000000E+00 -0.00000000000E+00 -0.31481317354E+02  0.31481317354E+02  0.00000000000E+00 0. -1.
         25    1    1    2    0    0  0.14270139299E+03  0.93268631496E+02  0.87130155496E+03  0.89657912359E+03  0.12500000000E+03 0.  0.
         25    1    1    2    0    0 -0.12998422287E+03 -0.56312829613E+01  0.72349000384E+03  0.74564763475E+03  0.12500000000E+03 0.  0.
         25    1    1    2    0    0 -0.12717170126E+02 -0.87637348534E+02  0.74789975847E+03  0.76342719364E+03  0.12500000000E+03 0.  0.
</event>
<event>
 5    0  0.5597833E-005  0.6111120E+03  0.7546771E-02  0.9882617E-01
         21   -1    0    0  502  501  0.00000000000E+00  0.00000000000E+00  0.33808546321E+03  0.33808546321E+03  0.00000000000E+00 0. -1.
         21   -1    0    0  501  502 -0.00000000000E+00 -0.00000000000E+00 -0.11046258228E+04  0.11046258228E+04  0.00000000000E+00 0. -1.
         25    1    1    2    0    0  0.15423198510E+03 -0.46787207955E+03 -0.53862344934E+03  0.74056195435E+03  0.12500000000E+03 0.  0.
         25    1    1    2    0    0  0.13250273889E+02  0.24701624113E+03 -0.27964042485E+03  0.39372117082E+03  0.12500000000E+03 0.  0.
         25    1    1    2    0    0 -0.16748225899E+03  0.22085583841E+03  0.51723514610E+02  0.30842816084E+03  0.12500000000E+03 0.  0.
</event>
<event>
 5    0  0.5597833E-005  0.2953249E+03  0.7546771E-02  0.1087601E+00
         21   -1    0    0  502  501  0.00000000000E+00  0.00000000000E+00  0.85583618231E+03  0.85583618231E+03  0.00000000000E+00 0.  1.
         21   -1    0    0  501  502 -0.00000000000E+00 -0.00000000000E+00 -0.10190825599E+03  0.10190825599E+03  0.00000000000E+00 0.  1.
         25    1    1    2    0    0 -0.67125425116E+02 -0.63374610764E+02  0.16240345077E+03  0.22477109425E+03  0.12500000000E+03 0.  0.
         25    1    1    2    0    0  0.12340956508E+03 -0.82274559486E+02  0.44374292237E+03  0.48428483875E+03  0.12500000000E+03 0.  0.
         25    1    1    2    0    0 -0.56284139966E+02  0.14564917025E+03  0.14778155318E+03  0.24868850530E+03  0.12500000000E+03 0.  0.
</event>
<event>
 5    0  0.5597833E-005  0.3075884E+03  0.7546771E-02  0.1081508E+00
         21   -1    0    0  502  501  0.00000000000E+00  0.00000000000E+00  0.38608647838E+03  0.38608647838E+03  0.00000000000E+00 0.  1.
         21   -1    0    0  501  502 -0.00000000000E+00 -0.00000000000E+00 -0.24505035134E+03  0.24505035134E+03  0.00000000000E+00 0.  1.
         25    1    1    2    0    0 -0.60759508022E+02  0.10876379770E+03  0.34541024104E+02  0.17983148737E+03  0.12500000000E+03 0.  0.
         25    1    1    2    0    0  0.87228448290E+02 -0.22071250632E+03  0.55186314606E+02  0.27384912262E+03  0.12500000000E+03 0.  0.
         25    1    1    2    0    0 -0.26468940268E+02  0.11194870862E+03  0.51308788326E+02  0.17745621973E+03  0.12500000000E+03 0.  0.
</event>
<event>
 5    0  0.6316214E-005  0.3780415E+03  0.7546771E-02  0.1051660E+00
         21   -1    0    0  502  501  0.00000000000E+00  0.00000000000E+00  0.98261591164E+03  0.98261591164E+03  0.00000000000E+00 0.  1.
         21   -1    0    0  501  502 -0.00000000000E+00 -0.00000000000E+00 -0.14544378541E+03  0.14544378541E+03  0.00000000000E+00 0.  1.
         25    1    1    2    0    0  0.24910189536E+03  0.46369229046E+02  0.23029685674E+03  0.36450446074E+03  0.12500000000E+03 0.  0.
         25    1    1    2    0    0 -0.11769722437E+03 -0.99132494450E+02  0.98805125052E+02  0.22151149139E+03  0.12500000000E+03 0.  0.
         25    1    1    2    0    0 -0.13140467099E+03  0.52763265404E+02  0.50807014444E+03  0.54204374492E+03  0.12500000000E+03 0.  0.
</event>
<event>
 5    0  0.5597833E-005  0.2354283E+03  0.7546771E-02  0.1122876E+00
         21   -1    0    0  502  501  0.00000000000E+00  0.00000000000E+00  0.65411066339E+03  0.65411066339E+03  0.00000000000E+00 0. -1.
         21   -1    0    0  501  502 -0.00000000000E+00 -0.00000000000E+00 -0.84735608971E+02  0.84735608971E+02  0.00000000000E+00 0. -1.
         25    1    1    2    0    0 -0.37306654139E+02  0.50319015588E+02  0.42253906749E+02  0.14606225525E+03  0.12500000000E+03 0.  0.
         25    1    1    2    0    0  0.54687099941E+02 -0.31265819576E+02  0.32326534116E+03  0.35226937302E+03  0.12500000000E+03 0.  0.
         25    1    1    2    0    0 -0.17380445801E+02 -0.19053196012E+02  0.20385580651E+03  0.24051464409E+03  0.12500000000E+03 0.  0.
</event>
<event>
 5    0  0.5597833E-005  0.2383062E+03  0.7546771E-02  0.1120926E+00
         21   -1    0    0  502  501  0.00000000000E+00  0.00000000000E+00  0.24280240704E+03  0.24280240704E+03  0.00000000000E+00 0.  1.
         21   -1    0    0  501  502 -0.00000000000E+00 -0.00000000000E+00 -0.23389333908E+03  0.23389333908E+03  0.00000000000E+00 0.  1.
         25    1    1    2    0    0 -0.24038010286E+02 -0.76938619206E+02 -0.53911856480E+02  0.15820513687E+03  0.12500000000E+03 0.  0.
         25    1    1    2    0    0  0.44732224946E+02  0.77919322543E+02  0.10340393303E+03  0.18544477922E+03  0.12500000000E+03 0.  0.
         25    1    1    2    0    0 -0.20694214660E+02 -0.98070333698E+00 -0.40583008597E+02  0.13304583002E+03  0.12500000000E+03 0.  0.
</event>
<event>
 5    0  0.5597833E-005  0.2637499E+03  0.7546771E-02  0.1104911E+00
         21   -1    0    0  502  501  0.00000000000E+00  0.00000000000E+00  0.50473629596E+02  0.50473629596E+02  0.00000000000E+00 0. -1.
         21   -1    0    0  501  502 -0.00000000000E+00 -0.00000000000E+00 -0.13782251959E+04  0.13782251959E+04  0.00000000000E+00 0. -1.
         25    1    1    2    0    0 -0.12065556010E+03  0.60174694605E+02 -0.56401514412E+03  0.59322579246E+03  0.12500000000E+03 0.  0.
         25    1    1    2    0    0 -0.32666091862E+01  0.35948280368E+02 -0.39286538512E+03  0.41384920010E+03  0.12500000000E+03 0.  0.
         25    1    1    2    0    0  0.12392216928E+03 -0.96122974973E+02 -0.37087103704E+03  0.42162383290E+03  0.12500000000E+03 0.  0.
</event>
<event>
 5    0  0.5597833E-005  0.2675001E+03  0.7546771E-02  0.1102719E+00
         21   -1    0    0  502  501  0.00000000000E+00  0.00000000000E+00  0.10654902110E+04  0.10654902110E+04  0.00000000000E+00 0.  1.
         21   -1    0    0  501  502 -0.00000000000E+00 -0.00000000000E+00 -0.67158107054E+02  0.67158107054E+02  0.00000000000E+00 0.  1.
         25    1    1    2    0    0 -0.13044251646E+02 -0.17484613793E+02  0.29343213601E+03  0.31969248140E+03  0.12500000000E+03 0.  0.
         25    1    1    2    0    0 -0.26721255945E+02  0.32907641777E+02  0.44218521275E+02  0.13920206906E+03  0.12500000000E+03 0.  0.
         25    1    1    2    0    0  0.39765507590E+02 -0.15423027985E+02  0.66068144668E+03  0.67375376761E+03  0.12500000000E+03 0.  0.
</event>
<event>
 5    0  0.5597833E-005  0.3848828E+03  0.7546771E-02  0.1049144E+00
         21   -1    0    0  502  501  0.00000000000E+00  0.00000000000E+00  0.40759628572E+02  0.40759628572E+02  0.00000000000E+00 0. -1.
         21   -1    0    0  501  502 -0.00000000000E+00 -0.00000000000E+00 -0.36343503875E+04  0.36343503875E+04  0.00000000000E+00 0. -1.
         25    1    1    2    0    0  0.27874903218E+01 -0.17745337937E+03 -0.18807558522E+04  0.18932419411E+04  0.12500000000E+03 0.  0.
         25    1    1    2    0    0  0.10516800490E+03  0.24819306280E+03 -0.84750640429E+03  0.89808251903E+03  0.12500000000E+03 0.  0.
         25    1    1    2    0    0 -0.10795549522E+03 -0.70739683432E+02 -0.86532850239E+03  0.88378555590E+03  0.12500000000E+03 0.  0.
</event>
<event>
 5    0  0.5597833E-005  0.3163980E+03  0.7546771E-02  0.1077319E+00
         21   -1    0    0  502  501  0.00000000000E+00  0.00000000000E+00  0.48913462084E+03  0.48913462084E+03  0.00000000000E+00 0. -1.
         21   -1    0    0  501  502 -0.00000000000E+00 -0.00000000000E+00 -0.20466289783E+03  0.20466289783E+03  0.00000000000E+00 0. -1.
         25    1    1    2    0    0 -0.20697723276E+03 -0.35085521829E+02  0.18183930499E+03  0.30456707236E+03  0.12500000000E+03 0.  0.
         25    1    1    2    0    0  0.85564214408E+02 -0.63593177482E+02  0.18363867724E+00  0.16428743328E+03  0.12500000000E+03 0.  0.
         25    1    1    2    0    0  0.12141301835E+03  0.98678699311E+02  0.10244877934E+03  0.22494301303E+03  0.12500000000E+03 0.  0.
</event>
<event>
 5    0  0.7138200E-005  0.2883509E+03  0.7546771E-02  0.1091213E+00
         21   -1    0    0  502  501  0.00000000000E+00  0.00000000000E+00  0.52119415760E+03  0.52119415760E+03  0.00000000000E+00 0.  1.
         21   -1    0    0  501  502 -0.00000000000E+00 -0.00000000000E+00 -0.15953027088E+03  0.15953027088E+03  0.00000000000E+00 0.  1.
         25    1    1    2    0    0  0.11483241464E+03 -0.77820251204E+02  0.77820829190E+02  0.20229571524E+03  0.12500000000E+03 0.  0.
         25    1    1    2    0    0 -0.54860766138E+02  0.15454567250E+03  0.23494525637E+03  0.31259933148E+03  0.12500000000E+03 0.  0.
         25    1    1    2    0    0 -0.59971648497E+02 -0.76725421301E+02  0.48897801154E+02  0.16582938176E+03  0.12500000000E+03 0.  0.
</event>
<event>
 5    0  0.5597833E-005  0.3794422E+03  0.7546771E-02  0.1051140E+00
         21   -1    0    0  502  501  0.00000000000E+00  0.00000000000E+00  0.54667544975E+03  0.54667544975E+03  0.00000000000E+00 0.  1.
         21   -1    0    0  501  502 -0.00000000000E+00 -0.00000000000E+00 -0.26336724147E+03  0.26336724147E+03  0.00000000000E+00 0.  1.
         25    1    1    2    0    0  0.17326612428E+03  0.67930836269E+02  0.39424758205E+03  0.45353269374E+03  0.12500000000E+03 0.  0.
         25    1    1    2    0    0 -0.15487023069E+03 -0.73948395755E+02 -0.68718680303E+02  0.22316005604E+03  0.12500000000E+03 0.  0.
         25    1    1    2    0    0 -0.18395893588E+02  0.60175594864E+01 -0.42220693465E+02  0.13334994143E+03  0.12500000000E+03 0.  0.
</event>
<event>
 5    0  0.5597833E-005  0.2712311E+03  0.7546771E-02  0.1100577E+00
         21   -1    0    0  502  501  0.00000000000E+00  0.00000000000E+00  0.13344812812E+04  0.13344812812E+04  0.00000000000E+00 0.  1.
         21   -1    0    0  501  502 -0.00000000000E+00 -0.00000000000E+00 -0.55127289937E+02  0.55127289937E+02  0.00000000000E+00 0.  1.
         25    1    1    2    0    0 -0.33162620737E+02  0.53445038017E+02  0.19680691698E+03  0.24148311343E+03  0.12500000000E+03 0.  0.
         25    1    1    2    0    0  0.49014938580E+02  0.17647335984E+02  0.92247829094E+03  0.93236531999E+03  0.12500000000E+03 0.  0.
         25    1    1    2    0    0 -0.15852317843E+02 -0.71092374001E+02  0.16006878334E+03  0.21576013770E+03  0.12500000000E+03 0.  0.
</event>
<event>
 5    0  0.5597833E-005  0.4678297E+03  0.7546771E-02  0.1022535E+00
         21   -1    0    0  502  501  0.00000000000E+00  0.00000000000E+00  0.81074751336E+03  0.81074751336E+03  0.00000000000E+00 0. -1.
         21   -1    0    0  501  502 -0.00000000000E+00 -0.00000000000E+00 -0.26995414834E+03  0.26995414834E+03  0.00000000000E+00 0. -1.
         25    1    1    2    0    0 -0.33898456706E+03 -0.13399330711E+02  0.13072881743E+03  0.38445429179E+03  0.12500000000E+03 0.  0.
         25    1    1    2    0    0  0.90223397661E+02 -0.16763850265E+03  0.13283850303E+03  0.26365507191E+03  0.12500000000E+03 0.  0.
         25    1    1    2    0    0  0.24876116940E+03  0.18103783336E+03  0.27722604457E+03  0.43259229801E+03  0.12500000000E+03 0.  0.
</event>
<event>
 5    0  0.5597833E-005  0.3314340E+03  0.7546771E-02  0.1070504E+00
         21   -1    0    0  502  501  0.00000000000E+00  0.00000000000E+00  0.28031733495E+03  0.28031733495E+03  0.00000000000E+00 0.  1.
         21   -1    0    0  501  502 -0.00000000000E+00 -0.00000000000E+00 -0.39187201644E+03  0.39187201644E+03  0.00000000000E+00 0.  1.
         25    1    1    2    0    0 -0.88197915405E+02  0.95083603597E+02 -0.11208179242E+03  0.21214875005E+03  0.12500000000E+03 0.  0.
         25    1    1    2    0    0  0.16039585189E+02 -0.48268139819E+02 -0.17951690870E+03  0.22458495525E+03  0.12500000000E+03 0.  0.
         25    1    1    2    0    0  0.72158330216E+02 -0.46815463778E+02  0.18004401964E+03  0.23545564609E+03  0.12500000000E+03 0.  0.
</event>
<event>
 5    0  0.5597833E-005  0.2717465E+03  0.7546771E-02  0.1100284E+00
         21   -1    0    0  502  501  0.00000000000E+00  0.00000000000E+00  0.85382631082E+03  0.85382631082E+03  0.00000000000E+00 0.  1.
         21   -1    0    0  501  502 -0.00000000000E+00 -0.00000000000E+00 -0.86488497491E+02  0.86488497491E+02  0.00000000000E+00 0.  1.
         25    1    1    2    0    0 -0.52904493744E+02  0.13586653907E+03  0.44451296100E+03  0.48422657341E+03  0.12500000000E+03 0.  0.
         25    1    1    2    0    0 -0.91411179497E+01 -0.23415501681E+01  0.16145770767E+03  0.20440800929E+03  0.12500000000E+03 0.  0.
         25    1    1    2    0    0  0.62045611694E+02 -0.13352498890E+03  0.16136714466E+03  0.25168022562E+03  0.12500000000E+03 0.  0.
</event>
<event>
 5    0  0.5597833E-005  0.2311792E+03  0.7546771E-02  0.1125812E+00
         21   -1    0    0  502  501  0.00000000000E+00  0.00000000000E+00  0.66749780726E+03  0.66749780726E+03  0.00000000000E+00 0.  1.
         21   -1    0    0  501  502 -0.00000000000E+00 -0.00000000000E+00 -0.80065947891E+02  0.80065947891E+02  0.00000000000E+00 0.  1.
         25    1    1    2    0    0 -0.79112758491E+01 -0.19598006590E+02  0.95162414889E+02  0.15851673525E+03  0.12500000000E+03 0.  0.
         25    1    1    2    0    0  0.89769356563E+02  0.59657468611E+02  0.29858232735E+03  0.34116558611E+03  0.12500000000E+03 0.  0.
         25    1    1    2    0    0 -0.81858080714E+02 -0.40059462021E+02  0.19368711713E+03  0.24788143379E+03  0.12500000000E+03 0.  0.
</event>
<event>
 5    0  0.5597833E-005  0.2127666E+03  0.7546771E-02  0.1139394E+00
         21   -1    0    0  502  501  0.00000000000E+00  0.00000000000E+00  0.48797489660E+02  0.48797489660E+02  0.00000000000E+00 0.  1.
         21   -1    0    0  501  502 -0.00000000000E+00 -0.00000000000E+00 -0.92770383238E+03  0.92770383238E+03  0.00000000000E+00 0.  1.
         25    1    1    2    0    0  0.89458960538E+01  0.58313393007E+02 -0.19546349122E+03  0.23939811457E+03  0.12500000000E+03 0.  0.
         25    1    1    2    0    0  0.10952589596E+02 -0.26225616208E+02 -0.46744353872E+03  0.48470218078E+03  0.12500000000E+03 0.  0.
         25    1    1    2    0    0 -0.19898485650E+02 -0.32087776799E+02 -0.21599931279E+03  0.25240102669E+03  0.12500000000E+03 0.  0.
</event>
<event>
 5    0  0.5597833E-005  0.2818671E+03  0.7546771E-02  0.1094674E+00
         21   -1    0    0  502  501  0.00000000000E+00  0.00000000000E+00  0.78987993810E+02  0.78987993810E+02  0.00000000000E+00 0.  1.
         21   -1    0    0  501  502 -0.00000000000E+00 -0.00000000000E+00 -0.10058371691E+04  0.10058371691E+04  0.00000000000E+00 0.  1.
         25    1    1    2    0    0 -0.69454411339E+02  0.15908843332E+02 -0.20546086844E+03  0.25083096901E+03  0.12500000000E+03 0.  0.
         25    1    1    2    0    0 -0.67159878175E+02  0.72198202115E+02 -0.12224121982E+03  0.20072604577E+03  0.12500000000E+03 0.  0.
         25    1    1    2    0    0  0.13661428951E+03 -0.88107045447E+02 -0.59914708702E+03  0.63326814814E+03  0.12500000000E+03 0.  0.
</event>
<event>
 5    0  0.5597833E-005  0.3302134E+03  0.7546771E-02  0.1071042E+00
         21   -1    0    0  502  501  0.00000000000E+00  0.00000000000E+00  0.28485465639E+03  0.28485465639E+03  0.00000000000E+00 0.  1.
         21   -1    0    0  501  502 -0.00000000000E+00 -0.00000000000E+00 -0.38279483695E+03  0.38279483695E+03  0.00000000000E+00 0.  1.
         25    1    1    2    0    0  0.32506803827E+02  0.15237030033E+03  0.66205087882E+02  0.21043173330E+03  0.12500000000E+03 0.  0.
         25    1    1    2    0    0  0.29148105199E+02 -0.98605786076E+02 -0.24015263150E+03  0.28960490241E+03  0.12500000000E+03 0.  0.
         25    1    1    2    0    0 -0.61654909026E+02 -0.53764514259E+02  0.76007363059E+02  0.16761285762E+03  0.12500000000E+03 0.  0.
</event>
<event>
 5    0  0.5597833E-005  0.3487777E+03  0.7546771E-02  0.1063118E+00
         21   -1    0    0  502  501  0.00000000000E+00  0.00000000000E+00  0.12855540043E+03  0.12855540043E+03  0.00000000000E+00 0.  1.
         21   -1    0    0  501  502 -0.00000000000E+00 -0.00000000000E+00 -0.94625285921E+03  0.94625285921E+03  0.00000000000E+00 0. -1.
         25    1    1    2    0    0 -0.22429728791E+03 -0.87706121191E+02 -0.29899592771E+03  0.40376379462E+03  0.12500000000E+03 0.  0.
         25    1    1    2    0    0  0.10442527985E+03  0.15898789552E+03 -0.20840321176E+03  0.30860766138E+03  0.12500000000E+03 0.  0.
         25    1    1    2    0    0  0.11987200806E+03 -0.71281774325E+02 -0.31029831930E+03  0.36243680363E+03  0.12500000000E+03 0.  0.
</event>
<event>
 5    0  0.5597833E-005  0.3342191E+03  0.7546771E-02  0.1069285E+00
         21   -1    0    0  502  501  0.00000000000E+00  0.00000000000E+00  0.99157194782E+02  0.99157194782E+02  0.00000000000E+00 0. -1.
         21   -1    0    0  501  502 -0.00000000000E+00 -0.00000000000E+00 -0.11265186300E+04  0.11265186300E+04  0.00000000000E+00 0. -1.
         25    1    1    2    0    0  0.28579183625E+02 -0.21096423568E+03 -0.35489071760E+03  0.43231365918E+03  0.12500000000E+03 0.  0.
         25    1    1    2    0    0 -0.13709073300E+03  0.83826909920E+02 -0.25218561150E+03  0.32410399959E+03  0.12500000000E+03 0.  0.
         25    1    1    2    0    0  0.10851154938E+03  0.12713732576E+03 -0.42028510613E+03  0.46925816603E+03  0.12500000000E+03 0.  0.
</event>
<event>
 5    0  0.5597833E-005  0.2579942E+03  0.7546771E-02  0.1108354E+00
         21   -1    0    0  502  501  0.00000000000E+00  0.00000000000E+00  0.34924332098E+02  0.34924332098E+02  0.00000000000E+00 0.  1.
         21   -1    0    0  501  502 -0.00000000000E+00 -0.00000000000E+00 -0.19058632290E+04  0.19058632290E+04  0.00000000000E+00 0.  1.
         25    1    1    2    0    0  0.34689295799E+01 -0.43249882266E+01 -0.72661951543E+03  0.73731381324E+03  0.12500000000E+03 0.  0.
         25    1    1    2    0    0  0.62404719065E+02 -0.10370487732E+03 -0.36828549747E+03  0.40731837448E+03  0.12500000000E+03 0.  0.
         25    1    1    2    0    0 -0.65873648645E+02  0.10802986555E+03 -0.77603388401E+03  0.79615537338E+03  0.12500000000E+03 0.  0.
</event>
<event>
 5    0  0.5597833E-005  0.3829755E+03  0.7546771E-02  0.1049839E+00
         21   -1    0    0  502  501  0.00000000000E+00  0.00000000000E+00  0.29363261628E+03  0.29363261628E+03  0.00000000000E+00 0.  1.
         21   -1    0    0  501  502 -0.00000000000E+00 -0.00000000000E+00 -0.49950259722E+03  0.49950259722E+03  0.00000000000E+00 0.  1.
         25    1    1    2    0    0 -0.18114660361E+03  0.56673786094E+02 -0.25076078784E+03  0.33842574185E+03  0.12500000000E+03 0.  0.
         25    1    1    2    0    0  0.73641745441E+02  0.13542420479E+03  0.33778232527E+02  0.20131763685E+03  0.12500000000E+03 0.  0.
         25    1    1    2    0    0  0.10750485817E+03 -0.19209799089E+03  0.11112574369E+02  0.25339183480E+03  0.12500000000E+03 0.  0.
</event>
<event>
 5    0  0.5597833E-005  0.3487878E+03  0.7546771E-02  0.1063114E+00
         21   -1    0    0  502  501  0.00000000000E+00  0.00000000000E+00  0.10522732004E+04  0.10522732004E+04  0.00000000000E+00 0. -1.
         21   -1    0    0  501  502 -0.00000000000E+00 -0.00000000000E+00 -0.11560964033E+03  0.11560964033E+03  0.00000000000E+00 0. -1.
         25    1    1    2    0    0 -0.22641608467E+02 -0.19925006102E+03  0.33077493965E+03  0.40650988912E+03  0.12500000000E+03 0.  0.
         25    1    1    2    0    0 -0.95287686219E+02  0.20202984102E+03  0.49374105119E+03  0.55614838437E+03  0.12500000000E+03 0.  0.
         25    1    1    2    0    0  0.11792929469E+03 -0.27797800009E+01  0.11214756928E+03  0.20522456728E+03  0.12500000000E+03 0.  0.
</event>
<event>
 5    0  0.5597833E-005  0.2587672E+03  0.7546771E-02  0.1107886E+00
         21   -1    0    0  502  501  0.00000000000E+00  0.00000000000E+00  0.50292408678E+03  0.50292408678E+03  0.00000000000E+00 0. -1.
         21   -1    0    0  501  502 -0.00000000000E+00 -0.00000000000E+00 -0.13314225623E+03  0.13314225623E+03  0.00000000000E+00 0. -1.
         25    1    1    2    0    0 -0.84410582115E+02 -0.35655305220E+02  0.18586968647E+03  0.24201030455E+03  0.12500000000E+03 0.  0.
         25    1    1    2    0    0  0.80582335620E+02 -0.83335804291E+02  0.12596044225E+03  0.21196556820E+03  0.12500000000E+03 0.  0.
         25    1    1    2    0    0  0.38282464945E+01  0.11899110951E+03  0.57951701831E+02  0.18209047026E+03  0.12500000000E+03 0.  0.
</event>
<event>
 5    0  0.5597833E-005  0.2409703E+03  0.7546771E-02  0.1119148E+00
         21   -1    0    0  502  501  0.00000000000E+00  0.00000000000E+00  0.29947556802E+03  0.29947556802E+03  0.00000000000E+00 0. -1.
         21   -1    0    0  501  502 -0.00000000000E+00 -0.00000000000E+00 -0.19389463973E+03  0.19389463973E+03  0.00000000000E+00 0. -1.
         25    1    1    2    0    0 -0.21315941824E+02 -0.24039536796E+02 -0.32617118217E+02  0.13312079141E+03  0.12500000000E+03 0.  0.
         25    1    1    2    0    0  0.11255938322E+03  0.46283972445E+02  0.91915067407E+02  0.19719330737E+03  0.12500000000E+03 0.  0.
         25    1    1    2    0    0 -0.91243441394E+02 -0.22244435649E+02  0.46282979100E+02  0.16305610896E+03  0.12500000000E+03 0.  0.
</event>
<event>
 5    0  0.6918149E-005  0.3301528E+03  0.7546771E-02  0.1071069E+00
         21   -1    0    0  502  501  0.00000000000E+00  0.00000000000E+00  0.28491283707E+03  0.28491283707E+03  0.00000000000E+00 0.  1.
         21   -1    0    0  501  502 -0.00000000000E+00 -0.00000000000E+00 -0.38257612352E+03  0.38257612352E+03  0.00000000000E+00 0.  1.
         25    1    1    2    0    0 -0.16744431128E+02  0.11095434919E+03 -0.17542957067E+03  0.24288223040E+03  0.12500000000E+03 0.  0.
         25    1    1    2    0    0 -0.11712980036E+03 -0.14704806777E+03  0.99174775625E+01  0.22597761112E+03  0.12500000000E+03 0.  0.
         25    1    1    2    0    0  0.13387423149E+03  0.36093718575E+02  0.67848806655E+02  0.19862911907E+03  0.12500000000E+03 0.  0.
</event>
<event>
 5    0  0.7023898E-005  0.2761682E+03  0.7546771E-02  0.1097800E+00
         21   -1    0    0  502  501  0.00000000000E+00  0.00000000000E+00  0.21065785179E+03  0.21065785179E+03  0.00000000000E+00 0.  1.
         21   -1    0    0  501  502 -0.00000000000E+00 -0.00000000000E+00 -0.36205097438E+03  0.36205097438E+03  0.00000000000E+00 0.  1.
         25    1    1    2    0    0  0.15570430630E+03 -0.39327654557E+02 -0.66836550129E+02  0.21420228721E+03  0.12500000000E+03 0.  0.
         25    1    1    2    0    0 -0.65283686682E+02  0.26901391522E+02  0.51410050069E+02  0.15249143537E+03  0.12500000000E+03 0.  0.
         25    1    1    2    0    0 -0.90420619620E+02  0.12426263035E+02 -0.13596662253E+03  0.20601510359E+03  0.12500000000E+03 0.  0.
</event>
<event>
 5    0  0.5597833E-005  0.2254933E+03  0.7546771E-02  0.1129853E+00
         21   -1    0    0  502  501  0.00000000000E+00  0.00000000000E+00  0.10152414513E+03  0.10152414513E+03  0.00000000000E+00 0.  1.
         21   -1    0    0  501  502 -0.00000000000E+00 -0.00000000000E+00 -0.50083860471E+03  0.50083860471E+03  0.00000000000E+00 0.  1.
         25    1    1    2    0    0 -0.55747745096E+02  0.56370126897E+02 -0.17170399832E+03  0.22669950448E+03  0.12500000000E+03 0.  0.
         25    1    1    2    0    0 -0.29166601146E+02 -0.73601962669E+01 -0.15388816441E+03  0.20052787900E+03  0.12500000000E+03 0.  0.
         25    1    1    2    0    0  0.84914346242E+02 -0.49009930630E+02 -0.73722296851E+02  0.17513536636E+03  0.12500000000E+03 0.  0.
</event>
<event>
 5    0  0.5597833E-005  0.3071057E+03  0.7546771E-02  0.1081742E+00
         21   -1    0    0  502  501  0.00000000000E+00  0.00000000000E+00  0.15525436747E+04  0.15525436747E+04  0.00000000000E+00 0. -1.
         21   -1    0    0  501  502 -0.00000000000E+00 -0.00000000000E+00 -0.60747978924E+02  0.60747978924E+02  0.00000000000E+00 0. -1.
         25    1    1    2    0    0  0.92915092481E+02 -0.35033955938E+02  0.13507180441E+03  0.20911715575E+03  0.12500000000E+03 0.  0.
         25    1    1    2    0    0  0.31937689106E+01 -0.84912490734E+02  0.77612388519E+03  0.79070450638E+03  0.12500000000E+03 0.  0.
         25    1    1    2    0    0 -0.96108861392E+02  0.11994644667E+03  0.58060000618E+03  0.61346999151E+03  0.12500000000E+03 0.  0.
</event>
<event>
 5    0  0.5597833E-005  0.2280076E+03  0.7546771E-02  0.1128050E+00
         21   -1    0    0  502  501  0.00000000000E+00  0.00000000000E+00  0.79043522623E+02  0.79043522623E+02  0.00000000000E+00 0.  1.
         21   -1    0    0  501  502 -0.00000000000E+00 -0.00000000000E+00 -0.65770679104E+03  0.65770679104E+03  0.00000000000E+00 0.  1.
         25    1    1    2    0    0 -0.50279747749E+02 -0.29727739935E+02 -0.88295060735E+02  0.16380723215E+03  0.12500000000E+03 0.  0.
         25    1    1    2    0    0 -0.37265374358E+02  0.42624302577E+02 -0.28925506391E+03  0.32015469901E+03  0.12500000000E+03 0.  0.
         25    1    1    2    0    0  0.87545122107E+02 -0.12896562642E+02 -0.20111314377E+03  0.25278838250E+03  0.12500000000E+03 0.  0.
</event>
<event>
 5    0  0.5597833E-005  0.2093944E+03  0.7546771E-02  0.1142046E+00
         21   -1    0    0  502  501  0.00000000000E+00  0.00000000000E+00  0.60611781065E+03  0.60611781065E+03  0.00000000000E+00 0. -1.
         21   -1    0    0  501  502 -0.00000000000E+00 -0.00000000000E+00 -0.72339125368E+02  0.72339125368E+02  0.00000000000E+00 0. -1.
         25    1    1    2    0    0  0.16932163785E+02  0.60669949296E+01  0.22454594335E+03  0.25762256748E+03  0.12500000000E+03 0.  0.
         25    1    1    2    0    0 -0.67808974632E+02  0.30792919823E+02  0.15424604573E+03  0.21204505082E+03  0.12500000000E+03 0.  0.
         25    1    1    2    0    0  0.50876810847E+02 -0.36859914753E+02  0.15498669620E+03  0.20878931773E+03  0.12500000000E+03 0.  0.
</event>
<event>
 5    0  0.5597833E-005  0.3561462E+03  0.7546771E-02  0.1060120E+00
         21   -1    0    0  502  501  0.00000000000E+00  0.00000000000E+00  0.41507183626E+03  0.41507183626E+03  0.00000000000E+00 0.  1.
         21   -1    0    0  501  502 -0.00000000000E+00 -0.00000000000E+00 -0.30558592172E+03  0.30558592172E+03  0.00000000000E+00 0.  1.
         25    1    1    2    0    0  0.19764079873E+02  0.14848613198E+03  0.68990253608E+01  0.19522127649E+03  0.12500000000E+03 0.  0.
         25    1    1    2    0    0  0.99473934740E+02 -0.20140474180E+03 -0.79344378555E+02  0.26903431774E+03  0.12500000000E+03 0.  0.
         25    1    1    2    0    0 -0.11923801461E+03  0.52918609818E+02  0.18193126773E+03  0.25640216375E+03  0.12500000000E+03 0.  0.
</event>
<event>
 5    0  0.5597833E-005  0.2621626E+03  0.7546771E-02  0.1105851E+00
         21   -1    0    0  502  501  0.00000000000E+00  0.00000000000E+00  0.78624978030E+02  0.78624978030E+02  0.00000000000E+00 0. -1.
         21   -1    0    0  501  502 -0.00000000000E+00 -0.00000000000E+00 -0.87413973481E+03  0.87413973481E+03  0.00000000000E+00 0. -1.
         25    1    1    2    0    0 -0.40071526214E+02 -0.40711787367E+02 -0.74821475924E+02  0.15648140498E+03  0.12500000000E+03 0.  0.
         25    1    1    2    0    0  0.69942410350E+02 -0.46418010396E+02 -0.52672071595E+03  0.54781957346E+03  0.12500000000E+03 0.  0.
         25    1    1    2    0    0 -0.29870884137E+02  0.87129797763E+02 -0.19397256490E+03  0.24846373440E+03  0.12500000000E+03 0.  0.
</event>
<event>
 5    0  0.5597833E-005  0.3342453E+03  0.7546771E-02  0.1069274E+00
         21   -1    0    0  502  501  0.00000000000E+00  0.00000000000E+00  0.28119152160E+03  0.28119152160E+03  0.00000000000E+00 0. -1.
         21   -1    0    0  501  502 -0.00000000000E+00 -0.00000000000E+00 -0.39730909538E+03  0.39730909538E+03  0.00000000000E+00 0. -1.
         25    1    1    2    0    0 -0.33606220576E+02 -0.12510312398E+03 -0.18041142867E+03  0.25485967371E+03  0.12500000000E+03 0.  0.
         25    1    1    2    0    0 -0.12356609581E+03  0.90571471046E+02 -0.28443220463E+02  0.19976433163E+03  0.12500000000E+03 0.  0.
         25    1    1    2    0    0  0.15717231639E+03  0.34531652929E+02  0.92737075354E+02  0.22387661164E+03  0.12500000000E+03 0.  0.
</event>
<event>
 5    0  0.5597833E-005  0.2325167E+03  0.7546771E-02  0.1124881E+00
         21   -1    0    0  502  501  0.00000000000E+00  0.00000000000E+00  0.14895225627E+04  0.14895225627E+04  0.00000000000E+00 0.  1.
         21   -1    0    0  501  502 -0.00000000000E+00 -0.00000000000E+00 -0.36296202011E+02  0.36296202011E+02  0.00000000000E+00 0.  1.
         25    1    1    2    0    0  0.52451178115E+02 -0.83781002022E+02  0.34057599478E+03  0.37601514678E+03  0.12500000000E+03 0.  0.
         25    1    1    2    0    0 -0.60462046368E+02  0.31289075670E+02  0.73050462784E+03  0.74424235071E+03  0.12500000000E+03 0.  0.
         25    1    1    2    0    0  0.80108682526E+01  0.52491926352E+02  0.38214573811E+03  0.40556126726E+03  0.12500000000E+03 0.  0.
</event>
<event>
 5    0  0.5613524E-005  0.4040788E+03  0.7546771E-02  0.1042376E+00
         21   -1    0    0  502  501  0.00000000000E+00  0.00000000000E+00  0.25018357888E+03  0.25018357888E+03  0.00000000000E+00 0.  1.
         21   -1    0    0  501  502 -0.00000000000E+00 -0.00000000000E+00 -0.65263931724E+03  0.65263931724E+03  0.00000000000E+00 0.  1.
         25    1    1    2    0    0 -0.23744427330E+03 -0.50293679349E+02 -0.26114461581E+03  0.37779723063E+03  0.12500000000E+03 0.  0.
         25    1    1    2    0    0  0.94705199627E+02 -0.13171380418E+03  0.35953893649E+02  0.20793095853E+03  0.12500000000E+03 0.  0.
         25    1    1    2    0    0  0.14273907368E+03  0.18200748353E+03 -0.17726501620E+03  0.31709470696E+03  0.12500000000E+03 0.  0.
</event>
<event>
 5    0  0.5597833E-005  0.2267795E+03  0.7546771E-02  0.1128927E+00
         21   -1    0    0  502  501  0.00000000000E+00  0.00000000000E+00  0.53737753127E+03  0.53737753127E+03  0.00000000000E+00 0.  1.
         21   -1    0    0  501  502 -0.00000000000E+00 -0.00000000000E+00 -0.95703540014E+02  0.95703540014E+02  0.00000000000E+00 0.  1.
         25    1    1    2    0    0  0.71042337282E+02  0.43785597382E+02  0.12877335651E+03  0.19791859329E+03  0.12500000000E+03 0.  0.
         25    1    1    2    0    0 -0.10265078843E+03 -0.54233964723E+02  0.15012820099E+03  0.22724872723E+03  0.12500000000E+03 0.  0.
         25    1    1    2    0    0  0.31608451149E+02  0.10448367340E+02  0.16277243376E+03  0.20791375076E+03  0.12500000000E+03 0.  0.
</event>
<event>
 5    0  0.5597833E-005  0.2316121E+03  0.7546771E-02  0.1125510E+00
         21   -1    0    0  502  501  0.00000000000E+00  0.00000000000E+00  0.14550632589E+04  0.14550632589E+04  0.00000000000E+00 0.  1.
         21   -1    0    0  501  502 -0.00000000000E+00 -0.00000000000E+00 -0.36867230283E+02  0.36867230283E+02  0.00000000000E+00 0.  1.
         25    1    1    2    0    0 -0.75690047124E+02  0.27638351861E+02  0.30313196061E+03  0.33764900010E+03  0.12500000000E+03 0.  0.
         25    1    1    2    0    0  0.57834021628E+02 -0.54452944759E+01  0.83458142657E+03  0.84588745283E+03  0.12500000000E+03 0.  0.
         25    1    1    2    0    0  0.17856025497E+02 -0.22193057385E+02  0.28048264144E+03  0.30839403624E+03  0.12500000000E+03 0.  0.
</event>
<event>
 5    0  0.5597833E-005  0.2607103E+03  0.7546771E-02  0.1106717E+00
         21   -1    0    0  502  501  0.00000000000E+00  0.00000000000E+00  0.34501154450E+03  0.34501154450E+03  0.00000000000E+00 0. -1.
         21   -1    0    0  501  502 -0.00000000000E+00 -0.00000000000E+00 -0.19700747062E+03  0.19700747062E+03  0.00000000000E+00 0. -1.
         25    1    1    2    0    0 -0.12390602525E+03 -0.15080741339E+02  0.11399149977E+03  0.21023604322E+03  0.12500000000E+03 0.  0.
         25    1    1    2    0    0  0.13205172250E+03  0.53259998038E+02  0.59044265444E+02  0.19845782950E+03  0.12500000000E+03 0.  0.
         25    1    1    2    0    0 -0.81456972564E+01 -0.38179256700E+02 -0.25031691328E+02  0.13332514240E+03  0.12500000000E+03 0.  0.
</event>
<event>
 5    0  0.5931671E-005  0.2904931E+03  0.7546771E-02  0.1090092E+00
         21   -1    0    0  502  501  0.00000000000E+00  0.00000000000E+00  0.71587395980E+03  0.71587395980E+03  0.00000000000E+00 0. -1.
         21   -1    0    0  501  502 -0.00000000000E+00 -0.00000000000E+00 -0.11787859743E+03  0.11787859743E+03  0.00000000000E+00 0. -1.
         25    1    1    2    0    0  0.27059920392E+02 -0.16821429905E+03  0.38802439255E+03  0.44183279519E+03  0.12500000000E+03 0.  0.
         25    1    1    2    0    0 -0.23293845294E+02  0.99077964056E+02  0.18750489969E+03  0.24726935435E+03  0.12500000000E+03 0.  0.
         25    1    1    2    0    0 -0.37660750981E+01  0.69136334992E+02  0.22466070127E+02  0.14465040769E+03  0.12500000000E+03 0.  0.
</event>
<event>
 5    0  0.5597833E-005  0.9838475E+03  0.7546771E-02  0.9326440E-01
         21   -1    0    0  502  501  0.00000000000E+00  0.00000000000E+00  0.12151558140E+04  0.12151558140E+04  0.00000000000E+00 0. -1.
         21   -1    0    0  501  502 -0.00000000000E+00 -0.00000000000E+00 -0.79656942079E+03  0.79656942079E+03  0.00000000000E+00 0. -1.
         25    1    1    2    0    0  0.28084699805E+03 -0.12145663632E+03 -0.12118895386E+03  0.35204902125E+03  0.12500000000E+03 0.  0.
         25    1    1    2    0    0 -0.65269901994E+03  0.39448674986E+03  0.80262289095E+03  0.11142101739E+04  0.12500000000E+03 0.  0.
         25    1    1    2    0    0  0.37185202189E+03 -0.27303011353E+03 -0.26284754392E+03  0.54546603966E+03  0.12500000000E+03 0.  0.
</event>
<event>
 5    0  0.5597833E-005  0.4400783E+03  0.7546771E-02  0.1030723E+00
         21   -1    0    0  502  501  0.00000000000E+00  0.00000000000E+00  0.28157318084E+03  0.28157318084E+03  0.00000000000E+00 0. -1.
         21   -1    0    0  501  502 -0.00000000000E+00 -0.00000000000E+00 -0.68781030785E+03  0.68781030785E+03  0.00000000000E+00 0. -1.
         25    1    1    2    0    0  0.28876896140E+03 -0.34198225386E+02  0.44549819291E+02  0.31963528918E+03  0.12500000000E+03 0.  0.
         25    1    1    2    0    0 -0.13592080827E+03  0.13716447008E+03 -0.31098567392E+03  0.38681474553E+03  0.12500000000E+03 0.  0.
         25    1    1    2    0    0 -0.15284815313E+03 -0.10296624470E+03 -0.13980127238E+03  0.26293345398E+03  0.12500000000E+03 0.  0.
</event>
<event>
 5    0  0.5597833E-005  0.4149005E+03  0.7546771E-02  0.1038739E+00
         21   -1    0    0  502  501  0.00000000000E+00  0.00000000000E+00  0.27150192036E+03  0.27150192036E+03  0.00000000000E+00 0.  1.
         21   -1    0    0  501  502 -0.00000000000E+00 -0.00000000000E+00 -0.63403750204E+03  0.63403750204E+03  0.00000000000E+00 0.  1.
         25    1    1    2    0    0  0.12827129408E+03  0.10811397275E+03  0.22778546006E+02  0.21044243428E+03  0.12500000000E+03 0.  0.
         25    1    1    2    0    0  0.27881684874E+02  0.14049354023E+03  0.59726107913E+01  0.19020119684E+03  0.12500000000E+03 0.  0.
         25    1    1    2    0    0 -0.15615297895E+03 -0.24860751299E+03 -0.39128673848E+03  0.50489579128E+03  0.12500000000E+03 0.  0.
</event>
<event>
 5    0  0.5597833E-005  0.3003890E+03  0.7546771E-02  0.1085046E+00
         21   -1    0    0  502  501  0.00000000000E+00  0.00000000000E+00  0.97788931242E+02  0.97788931242E+02  0.00000000000E+00 0. -1.
         21   -1    0    0  501  502 -0.00000000000E+00 -0.00000000000E+00 -0.92273812058E+03  0.92273812058E+03  0.00000000000E+00 0. -1.
         25    1    1    2    0    0 -0.13196602492E+03 -0.83107686487E+02 -0.35428349701E+03  0.40677231413E+03  0.12500000000E+03 0.  0.
         25    1    1    2    0    0 -0.15407388319E+02  0.13266944181E+03 -0.29921635358E+03  0.35070499662E+03  0.12500000000E+03 0.  0.
         25    1    1    2    0    0  0.14737341324E+03 -0.49561755324E+02 -0.17144933875E+03  0.26304974107E+03  0.12500000000E+03 0.  0.
</event>
<event>
 5    0  0.5597833E-005  0.4930733E+03  0.7546771E-02  0.1015603E+00
         21   -1    0    0  502  501  0.00000000000E+00  0.00000000000E+00  0.32611038198E+03  0.32611038198E+03  0.00000000000E+00 0.  1.
         21   -1    0    0  501  502 -0.00000000000E+00 -0.00000000000E+00 -0.74551844941E+03  0.74551844941E+03  0.00000000000E+00 0.  1.
         25    1    1    2    0    0  0.14580631560E+02 -0.14886468611E+03 -0.20651469885E+03  0.28398346859E+03  0.12500000000E+03 0.  0.
         25    1    1    2    0    0 -0.29929592109E+03 -0.12123957664E+03 -0.88676350882E+02  0.35744311230E+03  0.12500000000E+03 0.  0.
         25    1    1    2    0    0  0.28471528953E+03  0.27010426275E+03 -0.12421701769E+03  0.43020225050E+03  0.12500000000E+03 0.  0.
</event>
<event>
 5    0  0.5597833E-005  0.2260672E+03  0.7546771E-02  0.1129439E+00
         21   -1    0    0  502  501  0.00000000000E+00  0.00000000000E+00  0.11713747286E+03  0.11713747286E+03  0.00000000000E+00 0.  1.
         21   -1    0    0  501  502 -0.00000000000E+00 -0.00000000000E+00 -0.43629420948E+03  0.43629420948E+03  0.00000000000E+00 0.  1.
         25    1    1    2    0    0  0.41355397553E+02 -0.39795569388E+02 -0.58146527451E+02  0.14933176120E+03  0.12500000000E+03 0.  0.
         25    1    1    2    0    0  0.25623016763E+02 -0.46666254306E+02 -0.15917119443E+03  0.20927194608E+03  0.12500000000E+03 0.  0.
         25    1    1    2    0    0 -0.66978414315E+02  0.86461823694E+02 -0.10183901474E+03  0.19482797505E+03  0.12500000000E+03 0.  0.
</event>
<event>
 5    0  0.5829969E-005  0.4262117E+03  0.7546771E-02  0.1035063E+00
         21   -1    0    0  502  501  0.00000000000E+00  0.00000000000E+00  0.44627277772E+03  0.44627277772E+03  0.00000000000E+00 0. -1.
         21   -1    0    0  501  502 -0.00000000000E+00 -0.00000000000E+00 -0.40705243269E+03  0.40705243269E+03  0.00000000000E+00 0. -1.
         25    1    1    2    0    0  0.13957879585E+03  0.56426386298E+02  0.26471364650E+03  0.32918762426E+03  0.12500000000E+03 0.  0.
         25    1    1    2    0    0  0.98977327662E+02  0.61035031364E+02 -0.35904340164E+02  0.17445890085E+03  0.12500000000E+03 0.  0.
         25    1    1    2    0    0 -0.23855612351E+03 -0.11746141766E+03 -0.18958896131E+03  0.34967868530E+03  0.12500000000E+03 0.  0.
</event>
<event>
 5    0  0.5597833E-005  0.3559933E+03  0.7546771E-02  0.1060182E+00
         21   -1    0    0  502  501  0.00000000000E+00  0.00000000000E+00  0.46380963294E+02  0.46380963294E+02  0.00000000000E+00 0. -1.
         21   -1    0    0  501  502 -0.00000000000E+00 -0.00000000000E+00 -0.27323981854E+04  0.27323981854E+04  0.00000000000E+00 0. -1.
         25    1    1    2    0    0  0.12587142694E+03 -0.24125535233E+02 -0.58153529031E+03  0.60846852954E+03  0.12500000000E+03 0.  0.
         25    1    1    2    0    0  0.67112877024E+02 -0.11857478816E+03 -0.14550751479E+04  0.14667763308E+04  0.12500000000E+03 0.  0.
         25    1    1    2    0    0 -0.19298430396E+03  0.14270032340E+03 -0.64940678393E+03  0.70353428835E+03  0.12500000000E+03 0.  0.
</event>
<event>
 5    0  0.5597833E-005  0.2796381E+03  0.7546771E-02  0.1095887E+00
         21   -1    0    0  502  501  0.00000000000E+00  0.00000000000E+00  0.14323478607E+04  0.14323478607E+04  0.00000000000E+00 0. -1.
         21   -1    0    0  501  502 -0.00000000000E+00 -0.00000000000E+00 -0.54593921635E+02  0.54593921635E+02  0.00000000000E+00 0. -1.
         25    1    1    2    0    0 -0.38975422303E+02 -0.71035560220E+02  0.27963202633E+03  0.31683466431E+03  0.12500000000E+03 0.  0.
         25    1    1    2    0    0 -0.41804744286E+02  0.54192079739E+02  0.13801535434E+03  0.19838764121E+03  0.12500000000E+03 0.  0.
         25    1    1    2    0    0  0.80780166590E+02  0.16843480481E+02  0.96010655844E+03  0.97171947686E+03  0.12500000000E+03 0.  0.
</event>
<event>
 5    0  0.5597833E-005  0.3226492E+03  0.7546771E-02  0.1074436E+00
         21   -1    0    0  502  501  0.00000000000E+00  0.00000000000E+00  0.42790035606E+03  0.42790035606E+03  0.00000000000E+00 0. -1.
         21   -1    0    0  501  502 -0.00000000000E+00 -0.00000000000E+00 -0.24328686414E+03  0.24328686414E+03  0.00000000000E+00 0. -1.
         25    1    1    2    0    0 -0.10438043508E+03  0.12605215539E+03  0.27632374982E+03  0.34462187369E+03  0.12500000000E+03 0.  0.
         25    1    1    2    0    0  0.79204157790E+01 -0.80153509626E+02 -0.36492221188E+02  0.15311433734E+03  0.12500000000E+03 0.  0.
         25    1    1    2    0    0  0.96460019299E+02 -0.45898645766E+02 -0.55218036712E+02  0.17345100918E+03  0.12500000000E+03 0.  0.
</event>
<event>
 5    0  0.5597833E-005  0.2487896E+03  0.7546771E-02  0.1114072E+00
         21   -1    0    0  502  501  0.00000000000E+00  0.00000000000E+00  0.80838060227E+02  0.80838060227E+02  0.00000000000E+00 0.  1.
         21   -1    0    0  501  502 -0.00000000000E+00 -0.00000000000E+00 -0.76568197409E+03  0.76568197409E+03  0.00000000000E+00 0.  1.
         25    1    1    2    0    0  0.12276076552E+03  0.15274255750E+02 -0.21921991444E+03  0.28104426578E+03  0.12500000000E+03 0.  0.
         25    1    1    2    0    0 -0.12104031875E+03 -0.59893028816E+02 -0.31409822205E+03  0.36403382639E+03  0.12500000000E+03 0.  0.
         25    1    1    2    0    0 -0.17204467717E+01  0.44618773066E+02 -0.15152577738E+03  0.20144194215E+03  0.12500000000E+03 0.  0.
</event>
<event>
 5    0  0.5597833E-005  0.2930265E+03  0.7546771E-02  0.1088780E+00
         21   -1    0    0  502  501  0.00000000000E+00  0.00000000000E+00  0.34041396541E+03  0.34041396541E+03  0.00000000000E+00 0.  1.
         21   -1    0    0  501  502 -0.00000000000E+00 -0.00000000000E+00 -0.25223555961E+03  0.25223555961E+03  0.00000000000E+00 0.  1.
         25    1    1    2    0    0  0.62555354333E+02 -0.83788389623E+02  0.19441799320E+03  0.25368685948E+03  0.12500000000E+03 0.  0.
         25    1    1    2    0    0 -0.59876155690E+02  0.12779542680E+03 -0.74171178939E+02  0.20259118667E+03  0.12500000000E+03 0.  0.
         25    1    1    2    0    0 -0.26791986433E+01 -0.44007037179E+02 -0.32068408461E+02  0.13637147887E+03  0.12500000000E+03 0.  0.
</event>
<event>
 5    0  0.5597833E-005  0.3738852E+03  0.7546771E-02  0.1053217E+00
         21   -1    0    0  502  501  0.00000000000E+00  0.00000000000E+00  0.24784057374E+03  0.24784057374E+03  0.00000000000E+00 0.  1.
         21   -1    0    0  501  502 -0.00000000000E+00 -0.00000000000E+00 -0.56403252645E+03  0.56403252645E+03  0.00000000000E+00 0.  1.
         25    1    1    2    0    0 -0.55042213390E+01  0.11267661286E+03  0.16771001588E+03  0.23765093092E+03  0.12500000000E+03 0.  0.
         25    1    1    2    0    0 -0.20301230199E+02 -0.69593794424E+02 -0.37205703018E+03  0.39913264696E+03  0.12500000000E+03 0.  0.
         25    1    1    2    0    0  0.25805451538E+02 -0.43082818438E+02 -0.11184493841E+03  0.17508952231E+03  0.12500000000E+03 0.  0.
</event>
<event>
 5    0  0.5597833E-005  0.4926550E+03  0.7546771E-02  0.1015714E+00
         21   -1    0    0  502  501  0.00000000000E+00  0.00000000000E+00  0.19396077806E+03  0.19396077806E+03  0.00000000000E+00 0.  1.
         21   -1    0    0  501  502 -0.00000000000E+00 -0.00000000000E+00 -0.12513298436E+04  0.12513298436E+04  0.00000000000E+00 0.  1.
         25    1    1    2    0    0 -0.51583526891E+02 -0.68110493432E+02 -0.11450890222E+04  0.11550557426E+04  0.12500000000E+03 0.  0.
         25    1    1    2    0    0  0.40184933385E+02  0.35216708573E+01  0.17296907570E+02  0.13248174987E+03  0.12500000000E+03 0.  0.
         25    1    1    2    0    0  0.11398593506E+02  0.64588822575E+02  0.70423049133E+02  0.15775312924E+03  0.12500000000E+03 0.  0.
</event>
<event>
 5    0  0.5597833E-005  0.2656098E+03  0.7546771E-02  0.1103819E+00
         21   -1    0    0  502  501  0.00000000000E+00  0.00000000000E+00  0.15232875422E+03  0.15232875422E+03  0.00000000000E+00 0.  1.
         21   -1    0    0  501  502 -0.00000000000E+00 -0.00000000000E+00 -0.46313346672E+03  0.46313346672E+03  0.00000000000E+00 0.  1.
         25    1    1    2    0    0 -0.10712894908E+03 -0.55432364997E+02 -0.66599819371E+02  0.18603734776E+03  0.12500000000E+03 0.  0.
         25    1    1    2    0    0  0.17775801363E+02 -0.78887216866E+02 -0.11126201771E+03  0.18585857173E+03  0.12500000000E+03 0.  0.
         25    1    1    2    0    0  0.89353147719E+02  0.13431958186E+03 -0.13294287543E+03  0.24356630146E+03  0.12500000000E+03 0.  0.
</event>
<event>
 5    0  0.5618612E-005  0.3183089E+03  0.7546771E-02  0.1076430E+00
         21   -1    0    0  502  501  0.00000000000E+00  0.00000000000E+00  0.23928106137E+03  0.23928106137E+03  0.00000000000E+00 0. -1.
         21   -1    0    0  501  502 -0.00000000000E+00 -0.00000000000E+00 -0.42343737220E+03  0.42343737220E+03  0.00000000000E+00 0. -1.
         25    1    1    2    0    0  0.88232417851E+02 -0.12705452469E+03 -0.97155182522E+02  0.22134123270E+03  0.12500000000E+03 0.  0.
         25    1    1    2    0    0 -0.12616768170E+03  0.56366785440E+02 -0.18568155689E+03  0.26305539146E+03  0.12500000000E+03 0.  0.
         25    1    1    2    0    0  0.37935263844E+02  0.70687739247E+02  0.98680428592E+02  0.17832180941E+03  0.12500000000E+03 0.  0.
</event>
<event>
 5    0  0.5597833E-005  0.3675510E+03  0.7546771E-02  0.1055633E+00
         21   -1    0    0  502  501  0.00000000000E+00  0.00000000000E+00  0.45149856902E+03  0.45149856902E+03  0.00000000000E+00 0.  1.
         21   -1    0    0  501  502 -0.00000000000E+00 -0.00000000000E+00 -0.29921180621E+03  0.29921180621E+03  0.00000000000E+00 0.  1.
         25    1    1    2    0    0  0.28686679394E+03 -0.64639594875E+02  0.12841959967E+03  0.34436525416E+03  0.12500000000E+03 0.  0.
         25    1    1    2    0    0 -0.71607920870E+02 -0.12656939858E+02  0.42540670048E-01  0.14461291183E+03  0.12500000000E+03 0.  0.
         25    1    1    2    0    0 -0.21525887307E+03  0.77296534733E+02  0.23824622472E+02  0.26173220924E+03  0.12500000000E+03 0.  0.
</event>
<event>
 5    0  0.5597833E-005  0.2538198E+03  0.7546771E-02  0.1110914E+00
         21   -1    0    0  502  501  0.00000000000E+00  0.00000000000E+00  0.99086919220E+03  0.99086919220E+03  0.00000000000E+00 0. -1.
         21   -1    0    0  501  502 -0.00000000000E+00 -0.00000000000E+00 -0.65018135194E+02  0.65018135194E+02  0.00000000000E+00 0. -1.
         25    1    1    2    0    0  0.42336494582E+02 -0.19024892115E+02  0.85766996461E+02  0.15854117123E+03  0.12500000000E+03 0.  0.
         25    1    1    2    0    0  0.57225982169E+02  0.58730840463E+02  0.35993286866E+03  0.38974452479E+03  0.12500000000E+03 0.  0.
         25    1    1    2    0    0 -0.99562476751E+02 -0.39705948347E+02  0.48015119188E+03  0.50760163138E+03  0.12500000000E+03 0.  0.
</event>
<event>
 5    0  0.5597833E-005  0.4418805E+03  0.7546771E-02  0.1030171E+00
         21   -1    0    0  502  501  0.00000000000E+00  0.00000000000E+00  0.13210939185E+04  0.13210939185E+04  0.00000000000E+00 0.  1.
         21   -1    0    0  501  502 -0.00000000000E+00 -0.00000000000E+00 -0.14780054509E+03  0.14780054509E+03  0.00000000000E+00 0.  1.
         25    1    1    2    0    0  0.28331449865E+03  0.89117776146E+01  0.26143006962E+03  0.40536058790E+03  0.12500000000E+03 0.  0.
         25    1    1    2    0    0 -0.29123107042E+02 -0.16666780379E+03  0.47501822533E+03  0.51951287432E+03  0.12500000000E+03 0.  0.
         25    1    1    2    0    0 -0.25419139161E+03  0.15775602617E+03  0.43684507847E+03  0.54402100138E+03  0.12500000000E+03 0.  0.
</event>
<event>
 5    0  0.5597833E-005  0.3754444E+03  0.7546771E-02  0.1052630E+00
         21   -1    0    0  502  501  0.00000000000E+00  0.00000000000E+00  0.44620248307E+03  0.44620248307E+03  0.00000000000E+00 0. -1.
         21   -1    0    0  501  502 -0.00000000000E+00 -0.00000000000E+00 -0.31590702806E+03  0.31590702806E+03  0.00000000000E+00 0. -1.
         25    1    1    2    0    0 -0.10408279007E+02 -0.34125666476E+02 -0.16201198305E+02  0.13099760384E+03  0.12500000000E+03 0.  0.
         25    1    1    2    0    0 -0.19646198888E+03  0.20968636131E+03  0.50940871916E+02  0.31746756626E+03  0.12500000000E+03 0.  0.
         25    1    1    2    0    0  0.20687026789E+03 -0.17556069483E+03  0.95555781396E+02  0.31364434104E+03  0.12500000000E+03 0.  0.
</event>
<event>
 5    0  0.5597833E-005  0.2376306E+03  0.7546771E-02  0.1121381E+00
         21   -1    0    0  502  501  0.00000000000E+00  0.00000000000E+00  0.42314492183E+03  0.42314492183E+03  0.00000000000E+00 0. -1.
         21   -1    0    0  501  502 -0.00000000000E+00 -0.00000000000E+00 -0.13344907688E+03  0.13344907688E+03  0.00000000000E+00 0. -1.
         25    1    1    2    0    0  0.49204176126E+02  0.90487013830E+02  0.17929207874E+03  0.24161870813E+03  0.12500000000E+03 0.  0.
         25    1    1    2    0    0 -0.35602807028E+02 -0.10601603353E+03  0.53146997090E+02  0.17594477126E+03  0.12500000000E+03 0.  0.
         25    1    1    2    0    0 -0.13601369098E+02  0.15529019700E+02  0.57256769121E+02  0.13903051933E+03  0.12500000000E+03 0.  0.
</event>
<event>
 5    0  0.5597833E-005  0.2678995E+03  0.7546771E-02  0.1102488E+00
         21   -1    0    0  502  501  0.00000000000E+00  0.00000000000E+00  0.52572673472E+03  0.52572673472E+03  0.00000000000E+00 0.  1.
         21   -1    0    0  501  502 -0.00000000000E+00 -0.00000000000E+00 -0.13651605997E+03  0.13651605997E+03  0.00000000000E+00 0.  1.
         25    1    1    2    0    0 -0.10800776730E+03 -0.39712105624E+02  0.19763367276E+03  0.26062769949E+03  0.12500000000E+03 0.  0.
         25    1    1    2    0    0  0.58884796244E+02 -0.26190099721E+02 -0.20457860672E+02  0.14211567336E+03  0.12500000000E+03 0.  0.
         25    1    1    2    0    0  0.49122971054E+02  0.65902205345E+02  0.21203486265E+03  0.25949942184E+03  0.12500000000E+03 0.  0.
</event>
<event>
 5    0  0.5597833E-005  0.2027584E+03  0.7546771E-02  0.1147432E+00
         21   -1    0    0  502  501  0.00000000000E+00  0.00000000000E+00  0.67843083005E+02  0.67843083005E+02  0.00000000000E+00 0.  1.
         21   -1    0    0  501  502 -0.00000000000E+00 -0.00000000000E+00 -0.60597144042E+03  0.60597144042E+03  0.00000000000E+00 0.  1.
         25    1    1    2    0    0  0.19175764982E+02 -0.67554353662E+00 -0.13968810954E+03  0.18843018407E+03  0.12500000000E+03 0.  0.
         25    1    1    2    0    0 -0.51522584156E+02 -0.40209584476E+02 -0.22067266296E+03  0.26190229388E+03  0.12500000000E+03 0.  0.
         25    1    1    2    0    0  0.32346819173E+02  0.40885128013E+02 -0.17776758491E+03  0.22348204547E+03  0.12500000000E+03 0.  0.
</event>
<event>
 5    0  0.5597833E-005  0.2547586E+03  0.7546771E-02  0.1110334E+00
         21   -1    0    0  502  501  0.00000000000E+00  0.00000000000E+00  0.12119820331E+04  0.12119820331E+04  0.00000000000E+00 0. -1.
         21   -1    0    0  501  502 -0.00000000000E+00 -0.00000000000E+00 -0.53550236358E+02  0.53550236358E+02  0.00000000000E+00 0. -1.
         25    1    1    2    0    0  0.20871877821E+02 -0.29204872393E+02  0.94737743134E+02  0.16089996839E+03  0.12500000000E+03 0.  0.
         25    1    1    2    0    0 -0.79650738358E+02 -0.17692406032E+02  0.46242551422E+03  0.48592141088E+03  0.12500000000E+03 0.  0.
         25    1    1    2    0    0  0.58778860537E+02  0.46897278425E+02  0.60126853936E+03  0.61871089015E+03  0.12500000000E+03 0.  0.
</event>
<event>
 5    0  0.5597833E-005  0.3914819E+03  0.7546771E-02  0.1046770E+00
         21   -1    0    0  502  501  0.00000000000E+00  0.00000000000E+00  0.34612713568E+03  0.34612713568E+03  0.00000000000E+00 0. -1.
         21   -1    0    0  501  502 -0.00000000000E+00 -0.00000000000E+00 -0.44277965788E+03  0.44277965788E+03  0.00000000000E+00 0. -1.
         25    1    1    2    0    0  0.10503313595E+03  0.69247497493E+02 -0.26406155357E+03  0.31808910643E+03  0.12500000000E+03 0.  0.
         25    1    1    2    0    0 -0.46181279291E+02 -0.82764279853E+02  0.26020853414E+03  0.30383567568E+03  0.12500000000E+03 0.  0.
         25    1    1    2    0    0 -0.58851856654E+02  0.13516782360E+02 -0.92799502760E+02  0.16698201146E+03  0.12500000000E+03 0.  0.
</event>
<event>
 5    0  0.5597833E-005  0.3708040E+03  0.7546771E-02  0.1054386E+00
         21   -1    0    0  502  501  0.00000000000E+00  0.00000000000E+00  0.83267007345E+03  0.83267007345E+03  0.00000000000E+00 0. -1.
         21   -1    0    0  501  502 -0.00000000000E+00 -0.00000000000E+00 -0.16512618245E+03  0.16512618245E+03  0.00000000000E+00 0. -1.
         25    1    1    2    0    0  0.29049793956E+02 -0.16695636645E+03  0.36558114290E+02  0.21372836627E+03  0.12500000000E+03 0.  0.
         25    1    1    2    0    0 -0.35290165781E+02 -0.10328756427E+03  0.25812495991E+03  0.30686676533E+03  0.12500000000E+03 0.  0.
         25    1    1    2    0    0  0.62403718253E+01  0.27024393072E+03  0.37286081680E+03  0.47720112430E+03  0.12500000000E+03 0.  0.
</event>
