<event>
 5    0  0.5735425E-005  0.3093748E+03  0.7546771E-02  0.1080646E+00
         21   -1    0    0  502  501  0.00000000000E+00  0.00000000000E+00  0.32340719118E+03  0.32340719118E+03  0.00000000000E+00 0.  1.
         21   -1    0    0  501  502 -0.00000000000E+00 -0.00000000000E+00 -0.29595125311E+03  0.29595125311E+03  0.00000000000E+00 0.  1.
         25    1    1    2    0    0 -0.23365829841E+02 -0.82338707857E+02 -0.34161588961E+02  0.15529854789E+03  0.12500000000E+03 0.  0.
         25    1    1    2    0    0  0.35711327617E+02 -0.12658164406E+03  0.11458452986E+03  0.21459922184E+03  0.12500000000E+03 0.  0.
         25    1    1    2    0    0 -0.12345497776E+02  0.20892035192E+03 -0.52967002829E+02  0.24946067456E+03  0.12500000000E+03 0.  0.
</event>
<event>
 5    0  0.5735425E-005  0.3246601E+03  0.7546771E-02  0.1073524E+00
         21   -1    0    0  502  501  0.00000000000E+00  0.00000000000E+00  0.28203231331E+02  0.28203231331E+02  0.00000000000E+00 0.  1.
         21   -1    0    0  501  502 -0.00000000000E+00 -0.00000000000E+00 -0.37373093950E+04  0.37373093950E+04  0.00000000000E+00 0.  1.
         25    1    1    2    0    0 -0.13285300238E+03  0.10765237407E+03 -0.86110613491E+03  0.88677377581E+03  0.12500000000E+03 0.  0.
         25    1    1    2    0    0  0.46378250863E+02 -0.16310682849E+03 -0.91313414503E+03  0.93711992108E+03  0.12500000000E+03 0.  0.
         25    1    1    2    0    0  0.86474751521E+02  0.55454454424E+02 -0.19348658837E+04  0.19416189294E+04  0.12500000000E+03 0.  0.
</event>
<event>
 5    0  0.5735425E-005  0.2112132E+03  0.7546771E-02  0.1140609E+00
         21   -1    0    0  502  501  0.00000000000E+00  0.00000000000E+00  0.22792404844E+03  0.22792404844E+03  0.00000000000E+00 0.  1.
         21   -1    0    0  501  502 -0.00000000000E+00 -0.00000000000E+00 -0.19572749707E+03  0.19572749707E+03  0.00000000000E+00 0.  1.
         25    1    1    2    0    0 -0.23896956454E+02 -0.25082050565E+02 -0.16801247458E+02  0.13079547280E+03  0.12500000000E+03 0.  0.
         25    1    1    2    0    0 -0.36324788847E+02 -0.34961522157E+02  0.43281804770E+02  0.14156310586E+03  0.12500000000E+03 0.  0.
         25    1    1    2    0    0  0.60221745302E+02  0.60043572722E+02  0.57159940630E+01  0.15129296686E+03  0.12500000000E+03 0.  0.
</event>
<event>
 5    0  0.5735425E-005  0.2940043E+03  0.7546771E-02  0.1088277E+00
         21   -1    0    0  502  501  0.00000000000E+00  0.00000000000E+00  0.13148351329E+04  0.13148351329E+04  0.00000000000E+00 0.  1.
         21   -1    0    0  501  502 -0.00000000000E+00 -0.00000000000E+00 -0.65740972591E+02  0.65740972591E+02  0.00000000000E+00 0.  1.
         25    1    1    2    0    0  0.20643755319E+02  0.12662548892E+02  0.70466630113E+02  0.14552336836E+03  0.12500000000E+03 0.  0.
         25    1    1    2    0    0 -0.66006695630E+02 -0.11179681901E+03  0.82505761300E+03  0.84451197586E+03  0.12500000000E+03 0.  0.
         25    1    1    2    0    0  0.45362940311E+02  0.99134270118E+02  0.35356991717E+03  0.39054076124E+03  0.12500000000E+03 0.  0.
</event>
<event>
 5    0  0.5735425E-005  0.2478634E+03  0.7546771E-02  0.1114663E+00
         21   -1    0    0  502  501  0.00000000000E+00  0.00000000000E+00  0.42929180274E+03  0.42929180274E+03  0.00000000000E+00 0. -1.
         21   -1    0    0  501  502 -0.00000000000E+00 -0.00000000000E+00 -0.14311076647E+03  0.14311076647E+03  0.00000000000E+00 0. -1.
         25    1    1    2    0    0 -0.57576545191E+02  0.10745446601E+03  0.14195701025E+03  0.22502958379E+03  0.12500000000E+03 0.  0.
         25    1    1    2    0    0  0.91265654382E+02 -0.93455367750E+02  0.53082662753E+02  0.18843060929E+03  0.12500000000E+03 0.  0.
         25    1    1    2    0    0 -0.33689109190E+02 -0.13999098263E+02  0.91141363274E+02  0.15894237613E+03  0.12500000000E+03 0.  0.
</event>
<event>
 5    0  0.6281742E-005  0.3427610E+03  0.7546771E-02  0.1065626E+00
         21   -1    0    0  502  501  0.00000000000E+00  0.00000000000E+00  0.63545613971E+03  0.63545613971E+03  0.00000000000E+00 0. -1.
         21   -1    0    0  501  502 -0.00000000000E+00 -0.00000000000E+00 -0.18488315574E+03  0.18488315574E+03  0.00000000000E+00 0. -1.
         25    1    1    2    0    0 -0.15994680193E+03 -0.91409291540E+02  0.20687288419E+03  0.30390792724E+03  0.12500000000E+03 0.  0.
         25    1    1    2    0    0  0.54535121820E+02  0.15838919874E+03  0.26604011760E+03  0.33832463989E+03  0.12500000000E+03 0.  0.
         25    1    1    2    0    0  0.10541168011E+03 -0.66979907199E+02 -0.22340017811E+02  0.17810672831E+03  0.12500000000E+03 0.  0.
</event>
<event>
 5    0  0.5735425E-005  0.3233219E+03  0.7546771E-02  0.1074131E+00
         21   -1    0    0  502  501  0.00000000000E+00  0.00000000000E+00  0.97322911195E+02  0.97322911195E+02  0.00000000000E+00 0. -1.
         21   -1    0    0  501  502 -0.00000000000E+00 -0.00000000000E+00 -0.10741259850E+04  0.10741259850E+04  0.00000000000E+00 0. -1.
         25    1    1    2    0    0  0.19334446796E+03  0.30952335051E+02 -0.34124494761E+03  0.41281139108E+03  0.12500000000E+03 0.  0.
         25    1    1    2    0    0 -0.90046055970E+02  0.55942880871E+02 -0.51054633156E+03  0.53620933859E+03  0.12500000000E+03 0.  0.
         25    1    1    2    0    0 -0.10329841199E+03 -0.86895215922E+02 -0.12501179465E+03  0.22242816655E+03  0.12500000000E+03 0.  0.
</event>
<event>
 5    0  0.5735425E-005  0.2688177E+03  0.7546771E-02  0.1101958E+00
         21   -1    0    0  502  501  0.00000000000E+00  0.00000000000E+00  0.94204351615E+02  0.94204351615E+02  0.00000000000E+00 0.  1.
         21   -1    0    0  501  502 -0.00000000000E+00 -0.00000000000E+00 -0.76708731448E+03  0.76708731448E+03  0.00000000000E+00 0.  1.
         25    1    1    2    0    0  0.10848565398E+03  0.81820009656E+01 -0.11829490777E+03  0.20360443871E+03  0.12500000000E+03 0.  0.
         25    1    1    2    0    0 -0.42237236904E+02 -0.33433791745E+02 -0.47351370184E+03  0.49268857145E+03  0.12500000000E+03 0.  0.
         25    1    1    2    0    0 -0.66248417077E+02  0.25251790780E+02 -0.81074353260E+02  0.16499865593E+03  0.12500000000E+03 0.  0.
</event>
<event>
 5    0  0.5735425E-005  0.2993797E+03  0.7546771E-02  0.1085551E+00
         21   -1    0    0  502  501  0.00000000000E+00  0.00000000000E+00  0.32966305611E+02  0.32966305611E+02  0.00000000000E+00 0.  1.
         21   -1    0    0  501  502 -0.00000000000E+00 -0.00000000000E+00 -0.27187819778E+04  0.27187819778E+04  0.00000000000E+00 0.  1.
         25    1    1    2    0    0  0.18074935816E+03 -0.13660981150E+02 -0.15935882962E+04  0.16087279480E+04  0.12500000000E+03 0.  0.
         25    1    1    2    0    0 -0.47796574625E+02 -0.47327638531E+02 -0.53491495381E+03  0.55342879011E+03  0.12500000000E+03 0.  0.
         25    1    1    2    0    0 -0.13295278353E+03  0.60988619681E+02 -0.55731242222E+03  0.58959154534E+03  0.12500000000E+03 0.  0.
</event>
<event>
 5    0  0.5735425E-005  0.4198088E+03  0.7546771E-02  0.1037129E+00
         21   -1    0    0  502  501  0.00000000000E+00  0.00000000000E+00  0.20184713427E+03  0.20184713427E+03  0.00000000000E+00 0.  1.
         21   -1    0    0  501  502 -0.00000000000E+00 -0.00000000000E+00 -0.87313328139E+03  0.87313328139E+03  0.00000000000E+00 0.  1.
         25    1    1    2    0    0 -0.12436056588E+03 -0.37606592532E+01  0.11653773929E+03  0.21139001297E+03  0.12500000000E+03 0.  0.
         25    1    1    2    0    0  0.10129549352E+03  0.64123065319E+02 -0.22783602213E+03  0.28619363637E+03  0.12500000000E+03 0.  0.
         25    1    1    2    0    0  0.23065072362E+02 -0.60362406066E+02 -0.55998786427E+03  0.57739676633E+03  0.12500000000E+03 0.  0.
</event>
<event>
 5    0  0.5735425E-005  0.3341320E+03  0.7546771E-02  0.1069323E+00
         21   -1    0    0  502  501  0.00000000000E+00  0.00000000000E+00  0.26129002886E+03  0.26129002886E+03  0.00000000000E+00 0.  1.
         21   -1    0    0  501  502 -0.00000000000E+00 -0.00000000000E+00 -0.42728076230E+03  0.42728076230E+03  0.00000000000E+00 0.  1.
         25    1    1    2    0    0 -0.55237185571E+02 -0.25938586399E+03 -0.76950318613E+02  0.30311470542E+03  0.12500000000E+03 0.  0.
         25    1    1    2    0    0  0.21384515748E+02  0.94701146884E+02 -0.11900533538E+01  0.15827830225E+03  0.12500000000E+03 0.  0.
         25    1    1    2    0    0  0.33852669822E+02  0.16468471710E+03 -0.87850361479E+02  0.22717778349E+03  0.12500000000E+03 0.  0.
</event>
<event>
 5    0  0.5735425E-005  0.2303757E+03  0.7546771E-02  0.1126376E+00
         21   -1    0    0  502  501  0.00000000000E+00  0.00000000000E+00  0.77254983768E+02  0.77254983768E+02  0.00000000000E+00 0.  1.
         21   -1    0    0  501  502 -0.00000000000E+00 -0.00000000000E+00 -0.68698445693E+03  0.68698445693E+03  0.00000000000E+00 0.  1.
         25    1    1    2    0    0  0.67572200844E+02  0.50160058746E+02 -0.95309028896E+02  0.17829987327E+03  0.12500000000E+03 0.  0.
         25    1    1    2    0    0 -0.16047361619E+02  0.14424348849E+02 -0.18824885226E+03  0.22699825998E+03  0.12500000000E+03 0.  0.
         25    1    1    2    0    0 -0.51524839225E+02 -0.64584407595E+02 -0.32617159200E+03  0.35894130745E+03  0.12500000000E+03 0.  0.
</event>
<event>
 5    0  0.5735425E-005  0.4650703E+03  0.7546771E-02  0.1023321E+00
         21   -1    0    0  502  501  0.00000000000E+00  0.00000000000E+00  0.76955787123E+03  0.76955787123E+03  0.00000000000E+00 0.  1.
         21   -1    0    0  501  502 -0.00000000000E+00 -0.00000000000E+00 -0.28105800572E+03  0.28105800572E+03  0.00000000000E+00 0.  1.
         25    1    1    2    0    0 -0.15497794886E+02 -0.21223812195E+03 -0.84319153559E+02  0.26080629155E+03  0.12500000000E+03 0.  0.
         25    1    1    2    0    0 -0.10539554872E+03 -0.91350274411E+02  0.14326090174E+03  0.23580029748E+03  0.12500000000E+03 0.  0.
         25    1    1    2    0    0  0.12089334361E+03  0.30358839636E+03  0.42955811733E+03  0.55400928792E+03  0.12500000000E+03 0.  0.
</event>
<event>
 5    0  0.5735425E-005  0.2424349E+03  0.7546771E-02  0.1118181E+00
         21   -1    0    0  502  501  0.00000000000E+00  0.00000000000E+00  0.56725103283E+02  0.56725103283E+02  0.00000000000E+00 0.  1.
         21   -1    0    0  501  502 -0.00000000000E+00 -0.00000000000E+00 -0.10361315247E+04  0.10361315247E+04  0.00000000000E+00 0.  1.
         25    1    1    2    0    0  0.26642838321E+02 -0.35303961638E+02 -0.24133433121E+03  0.27536061803E+03  0.12500000000E+03 0.  0.
         25    1    1    2    0    0 -0.10551025935E+03  0.71257497307E+02 -0.25636304336E+03  0.31234124888E+03  0.12500000000E+03 0.  0.
         25    1    1    2    0    0  0.78867421025E+02 -0.35953535670E+02 -0.48170904689E+03  0.50515476112E+03  0.12500000000E+03 0.  0.
</event>
<event>
 5    0  0.5735425E-005  0.4781625E+03  0.7546771E-02  0.1019641E+00
         21   -1    0    0  502  501  0.00000000000E+00  0.00000000000E+00  0.21759862985E+03  0.21759862985E+03  0.00000000000E+00 0. -1.
         21   -1    0    0  501  502 -0.00000000000E+00 -0.00000000000E+00 -0.10507390377E+04  0.10507390377E+04  0.00000000000E+00 0. -1.
         25    1    1    2    0    0  0.11564165366E+03 -0.31574782187E+03 -0.21387604742E+03  0.41765732693E+03  0.12500000000E+03 0.  0.
         25    1    1    2    0    0 -0.23131672851E+02  0.23243130423E+02  0.19914899555E+02  0.13075519349E+03  0.12500000000E+03 0.  0.
         25    1    1    2    0    0 -0.92509980813E+02  0.29250469145E+03 -0.63917925998E+03  0.71992514712E+03  0.12500000000E+03 0.  0.
</event>
<event>
 5    0  0.5735425E-005  0.2637473E+03  0.7546771E-02  0.1104912E+00
         21   -1    0    0  502  501  0.00000000000E+00  0.00000000000E+00  0.82676852513E+02  0.82676852513E+02  0.00000000000E+00 0. -1.
         21   -1    0    0  501  502 -0.00000000000E+00 -0.00000000000E+00 -0.84137972559E+03  0.84137972559E+03  0.00000000000E+00 0. -1.
         25    1    1    2    0    0  0.10118588911E+02 -0.17174764663E+03 -0.26771522625E+03  0.34190069074E+03  0.12500000000E+03 0.  0.
         25    1    1    2    0    0 -0.40938927571E+02  0.90732943791E+02 -0.27336323620E+03  0.31664005082E+03  0.12500000000E+03 0.  0.
         25    1    1    2    0    0  0.30820338661E+02  0.81014702839E+02 -0.21762441064E+03  0.26551583654E+03  0.12500000000E+03 0.  0.
</event>
<event>
 5    0  0.5735425E-005  0.2253948E+03  0.7546771E-02  0.1129924E+00
         21   -1    0    0  502  501  0.00000000000E+00  0.00000000000E+00  0.86931071052E+02  0.86931071052E+02  0.00000000000E+00 0.  1.
         21   -1    0    0  501  502 -0.00000000000E+00 -0.00000000000E+00 -0.58440323812E+03  0.58440323812E+03  0.00000000000E+00 0.  1.
         25    1    1    2    0    0 -0.10793164261E+03  0.56977147498E+00 -0.19669441687E+03  0.25683313210E+03  0.12500000000E+03 0.  0.
         25    1    1    2    0    0  0.91203794155E+01 -0.89019447288E+01 -0.13369143642E+03  0.18346886960E+03  0.12500000000E+03 0.  0.
         25    1    1    2    0    0  0.98811263192E+02  0.83321732538E+01 -0.16708631378E+03  0.23103230747E+03  0.12500000000E+03 0.  0.
</event>
<event>
 5    0  0.5735425E-005  0.4812402E+03  0.7546771E-02  0.1018795E+00
         21   -1    0    0  502  501  0.00000000000E+00  0.00000000000E+00  0.16347893969E+04  0.16347893969E+04  0.00000000000E+00 0.  1.
         21   -1    0    0  501  502 -0.00000000000E+00 -0.00000000000E+00 -0.14166478844E+03  0.14166478844E+03  0.00000000000E+00 0. -1.
         25    1    1    2    0    0  0.39194396303E+02 -0.23657301937E+03  0.94395580741E+03  0.98192696294E+03  0.12500000000E+03 0.  0.
         25    1    1    2    0    0 -0.14999326305E+03  0.85093455740E+01  0.22423360609E+02  0.19671856807E+03  0.12500000000E+03 0.  0.
         25    1    1    2    0    0  0.11079886675E+03  0.22806367380E+03  0.52674544046E+03  0.59780865435E+03  0.12500000000E+03 0.  0.
</event>
<event>
 5    0  0.5735425E-005  0.3510865E+03  0.7546771E-02  0.1062170E+00
         21   -1    0    0  502  501  0.00000000000E+00  0.00000000000E+00  0.35839043018E+03  0.35839043018E+03  0.00000000000E+00 0.  1.
         21   -1    0    0  501  502 -0.00000000000E+00 -0.00000000000E+00 -0.34393147832E+03  0.34393147832E+03  0.00000000000E+00 0.  1.
         25    1    1    2    0    0 -0.24065503640E+03  0.63161359684E+00  0.64753644848E+02  0.27880688657E+03  0.12500000000E+03 0.  0.
         25    1    1    2    0    0 -0.11488014811E+02 -0.38137308586E+02  0.15415771424E+02  0.13209494615E+03  0.12500000000E+03 0.  0.
         25    1    1    2    0    0  0.25214305121E+03  0.37505694989E+02 -0.65710464418E+02  0.29142007577E+03  0.12500000000E+03 0.  0.
</event>
<event>
 5    0  0.5735425E-005  0.3555650E+03  0.7546771E-02  0.1060354E+00
         21   -1    0    0  502  501  0.00000000000E+00  0.00000000000E+00  0.13303737114E+03  0.13303737114E+03  0.00000000000E+00 0. -1.
         21   -1    0    0  501  502 -0.00000000000E+00 -0.00000000000E+00 -0.95030815579E+03  0.95030815579E+03  0.00000000000E+00 0. -1.
         25    1    1    2    0    0  0.13782447976E+03  0.14511241460E+03 -0.56059460827E+03  0.60823064286E+03  0.12500000000E+03 0.  0.
         25    1    1    2    0    0 -0.63678165251E+02 -0.18460287385E+03 -0.85510116932E+02  0.24712367321E+03  0.12500000000E+03 0.  0.
         25    1    1    2    0    0 -0.74146314513E+02  0.39490459246E+02 -0.17116605944E+03  0.22799121087E+03  0.12500000000E+03 0.  0.
</event>
<event>
 5    0  0.5735425E-005  0.3246506E+03  0.7546771E-02  0.1073529E+00
         21   -1    0    0  502  501  0.00000000000E+00  0.00000000000E+00  0.41712282372E+03  0.41712282372E+03  0.00000000000E+00 0.  1.
         21   -1    0    0  501  502 -0.00000000000E+00 -0.00000000000E+00 -0.25267865767E+03  0.25267865767E+03  0.00000000000E+00 0.  1.
         25    1    1    2    0    0  0.37415654382E+02  0.16866759033E+03 -0.21512917652E+02  0.21432800295E+03  0.12500000000E+03 0.  0.
         25    1    1    2    0    0 -0.13643016714E+03 -0.59247585238E+02  0.17546415235E+03  0.26179407102E+03  0.12500000000E+03 0.  0.
         25    1    1    2    0    0  0.99014512759E+02 -0.10942000509E+03  0.10492931359E+02  0.19367940742E+03  0.12500000000E+03 0.  0.
</event>
<event>
 5    0  0.5735425E-005  0.2131650E+03  0.7546771E-02  0.1139084E+00
         21   -1    0    0  502  501  0.00000000000E+00  0.00000000000E+00  0.33778549365E+03  0.33778549365E+03  0.00000000000E+00 0.  1.
         21   -1    0    0  501  502 -0.00000000000E+00 -0.00000000000E+00 -0.13452118231E+03  0.13452118231E+03  0.00000000000E+00 0.  1.
         25    1    1    2    0    0 -0.13733162627E+02 -0.15199134142E+02  0.14488229038E+03  0.19244607426E+03  0.12500000000E+03 0.  0.
         25    1    1    2    0    0  0.15324843790E+02  0.60587514891E+02  0.41591701793E+02  0.14581003894E+03  0.12500000000E+03 0.  0.
         25    1    1    2    0    0 -0.15916811632E+01 -0.45388380748E+02  0.16790319173E+02  0.13405056275E+03  0.12500000000E+03 0.  0.
</event>
<event>
 5    0  0.5735425E-005  0.2529877E+03  0.7546771E-02  0.1111431E+00
         21   -1    0    0  502  501  0.00000000000E+00  0.00000000000E+00  0.38570868923E+03  0.38570868923E+03  0.00000000000E+00 0. -1.
         21   -1    0    0  501  502 -0.00000000000E+00 -0.00000000000E+00 -0.16593547309E+03  0.16593547309E+03  0.00000000000E+00 0. -1.
         25    1    1    2    0    0  0.64731875550E+01 -0.60717892408E+02  0.12083444707E+03  0.18426754520E+03  0.12500000000E+03 0.  0.
         25    1    1    2    0    0  0.19470208419E+02 -0.72679697333E+02  0.10951981172E+03  0.18243085424E+03  0.12500000000E+03 0.  0.
         25    1    1    2    0    0 -0.25943395974E+02  0.13339758974E+03 -0.10581042659E+02  0.18494576288E+03  0.12500000000E+03 0.  0.
</event>
<event>
 5    0  0.5735425E-005  0.3528463E+03  0.7546771E-02  0.1061453E+00
         21   -1    0    0  502  501  0.00000000000E+00  0.00000000000E+00  0.85312369664E+03  0.85312369664E+03  0.00000000000E+00 0. -1.
         21   -1    0    0  501  502 -0.00000000000E+00 -0.00000000000E+00 -0.14593486776E+03  0.14593486776E+03  0.00000000000E+00 0. -1.
         25    1    1    2    0    0  0.24598092971E+02  0.98973542668E+02  0.21525171177E+03  0.26899651995E+03  0.12500000000E+03 0.  0.
         25    1    1    2    0    0  0.57492790335E+02 -0.15018679951E+03  0.52972675323E+03  0.56753583920E+03  0.12500000000E+03 0.  0.
         25    1    1    2    0    0 -0.82090883306E+02  0.51213256840E+02 -0.37789636114E+02  0.16252620526E+03  0.12500000000E+03 0.  0.
</event>
<event>
 5    0  0.5735425E-005  0.4554020E+03  0.7546771E-02  0.1026123E+00
         21   -1    0    0  502  501  0.00000000000E+00  0.00000000000E+00  0.34483413242E+03  0.34483413242E+03  0.00000000000E+00 0.  1.
         21   -1    0    0  501  502 -0.00000000000E+00 -0.00000000000E+00 -0.60142255170E+03  0.60142255170E+03  0.00000000000E+00 0.  1.
         25    1    1    2    0    0 -0.28665376979E+03  0.17253423466E+03 -0.13181223872E+03  0.38070712121E+03  0.12500000000E+03 0.  0.
         25    1    1    2    0    0  0.10213432791E+03  0.26029413006E+02  0.10020039007E+03  0.19176566285E+03  0.12500000000E+03 0.  0.
         25    1    1    2    0    0  0.18451944188E+03 -0.19856364766E+03 -0.22497657063E+03  0.37378390005E+03  0.12500000000E+03 0.  0.
</event>
<event>
 5    0  0.5735425E-005  0.5686625E+03  0.7546771E-02  0.9972643E-01
         21   -1    0    0  502  501  0.00000000000E+00  0.00000000000E+00  0.25319027028E+04  0.25319027028E+04  0.00000000000E+00 0.  1.
         21   -1    0    0  501  502 -0.00000000000E+00 -0.00000000000E+00 -0.12772096213E+03  0.12772096213E+03  0.00000000000E+00 0.  1.
         25    1    1    2    0    0 -0.18201320106E+03 -0.10350929499E+03  0.32892519643E+03  0.40946277529E+03  0.12500000000E+03 0.  0.
         25    1    1    2    0    0  0.13910811196E+03 -0.41024456183E+02  0.20426678234E+04  0.20516215318E+04  0.12500000000E+03 0.  0.
         25    1    1    2    0    0  0.42905089099E+02  0.14453375117E+03  0.32588720841E+02  0.19853935787E+03  0.12500000000E+03 0.  0.
</event>
<event>
 5    0  0.5735425E-005  0.3397784E+03  0.7546771E-02  0.1066890E+00
         21   -1    0    0  502  501  0.00000000000E+00  0.00000000000E+00  0.24520416907E+03  0.24520416907E+03  0.00000000000E+00 0.  1.
         21   -1    0    0  501  502 -0.00000000000E+00 -0.00000000000E+00 -0.47082939412E+03  0.47082939412E+03  0.00000000000E+00 0.  1.
         25    1    1    2    0    0 -0.16926704822E+02  0.22297665600E+03 -0.79536437398E+02  0.26824643023E+03  0.12500000000E+03 0.  0.
         25    1    1    2    0    0 -0.64571877530E+02 -0.23290450048E+03 -0.75298554734E+02  0.28232765727E+03  0.12500000000E+03 0.  0.
         25    1    1    2    0    0  0.81498582352E+02  0.99278444829E+01 -0.70790232922E+02  0.16545947570E+03  0.12500000000E+03 0.  0.
</event>
<event>
 5    0  0.5735425E-005  0.2953412E+03  0.7546771E-02  0.1087593E+00
         21   -1    0    0  502  501  0.00000000000E+00  0.00000000000E+00  0.91421362188E+03  0.91421362188E+03  0.00000000000E+00 0. -1.
         21   -1    0    0  501  502 -0.00000000000E+00 -0.00000000000E+00 -0.95411396244E+02  0.95411396244E+02  0.00000000000E+00 0. -1.
         25    1    1    2    0    0  0.10041997089E+03  0.23465610189E+02  0.27352292864E+02  0.16434096671E+03  0.12500000000E+03 0.  0.
         25    1    1    2    0    0 -0.47676029644E+02  0.39372181390E+02  0.47924306255E+03  0.49912131338E+03  0.12500000000E+03 0.  0.
         25    1    1    2    0    0 -0.52743941241E+02 -0.62837791578E+02  0.31220687023E+03  0.34616273804E+03  0.12500000000E+03 0.  0.
</event>
<event>
 5    0  0.5735425E-005  0.3334866E+03  0.7546771E-02  0.1069604E+00
         21   -1    0    0  502  501  0.00000000000E+00  0.00000000000E+00  0.32238580839E+04  0.32238580839E+04  0.00000000000E+00 0.  1.
         21   -1    0    0  501  502 -0.00000000000E+00 -0.00000000000E+00 -0.34496970209E+02  0.34496970209E+02  0.00000000000E+00 0.  1.
         25    1    1    2    0    0  0.76581475004E+02 -0.11350128756E+02  0.22246858421E+04  0.22295393345E+04  0.12500000000E+03 0.  0.
         25    1    1    2    0    0  0.54080829819E+02 -0.27722965564E+02  0.21024459977E+03  0.25203390785E+03  0.12500000000E+03 0.  0.
         25    1    1    2    0    0 -0.13066230482E+03  0.39073094320E+02  0.75443067180E+03  0.77678181180E+03  0.12500000000E+03 0.  0.
</event>
<event>
 5    0  0.5735425E-005  0.2731451E+03  0.7546771E-02  0.1099493E+00
         21   -1    0    0  502  501  0.00000000000E+00  0.00000000000E+00  0.81291028690E+02  0.81291028690E+02  0.00000000000E+00 0. -1.
         21   -1    0    0  501  502 -0.00000000000E+00 -0.00000000000E+00 -0.91779192850E+03  0.91779192850E+03  0.00000000000E+00 0. -1.
         25    1    1    2    0    0  0.74963323139E+02 -0.64056279758E+02 -0.51626029132E+03  0.54025215889E+03  0.12500000000E+03 0.  0.
         25    1    1    2    0    0  0.13026653582E+01  0.86601941764E+02 -0.25509719922E+03  0.29698682514E+03  0.12500000000E+03 0.  0.
         25    1    1    2    0    0 -0.76265988497E+02 -0.22545662006E+02 -0.65143409262E+02  0.16184397316E+03  0.12500000000E+03 0.  0.
</event>
<event>
 5    0  0.5735425E-005  0.3148375E+03  0.7546771E-02  0.1078050E+00
         21   -1    0    0  502  501  0.00000000000E+00  0.00000000000E+00  0.14581616240E+03  0.14581616240E+03  0.00000000000E+00 0. -1.
         21   -1    0    0  501  502 -0.00000000000E+00 -0.00000000000E+00 -0.67977835843E+03  0.67977835843E+03  0.00000000000E+00 0. -1.
         25    1    1    2    0    0  0.10738353059E+03  0.18518990378E+03 -0.22869273624E+03  0.33727124205E+03  0.12500000000E+03 0.  0.
         25    1    1    2    0    0  0.32875769663E+02 -0.23224331251E+02 -0.83737534906E+02  0.15574710445E+03  0.12500000000E+03 0.  0.
         25    1    1    2    0    0 -0.14025930025E+03 -0.16196557253E+03 -0.22153192487E+03  0.33257617433E+03  0.12500000000E+03 0.  0.
</event>
<event>
 5    0  0.5735425E-005  0.3109074E+03  0.7546771E-02  0.1079912E+00
         21   -1    0    0  502  501  0.00000000000E+00  0.00000000000E+00  0.10763260749E+04  0.10763260749E+04  0.00000000000E+00 0. -1.
         21   -1    0    0  501  502 -0.00000000000E+00 -0.00000000000E+00 -0.89808668245E+02  0.89808668245E+02  0.00000000000E+00 0. -1.
         25    1    1    2    0    0 -0.24816833009E+02  0.50454870731E+02  0.47954467271E+03  0.49874809504E+03  0.12500000000E+03 0.  0.
         25    1    1    2    0    0  0.37829325953E+02 -0.11313860679E+03  0.36770887667E+02  0.17665927778E+03  0.12500000000E+03 0.  0.
         25    1    1    2    0    0 -0.13012492945E+02  0.62683736054E+02  0.47020184626E+03  0.49072737030E+03  0.12500000000E+03 0.  0.
</event>
<event>
 5    0  0.5735425E-005  0.3689163E+03  0.7546771E-02  0.1055108E+00
         21   -1    0    0  502  501  0.00000000000E+00  0.00000000000E+00  0.11299708433E+03  0.11299708433E+03  0.00000000000E+00 0.  1.
         21   -1    0    0  501  502 -0.00000000000E+00 -0.00000000000E+00 -0.12044489494E+04  0.12044489494E+04  0.00000000000E+00 0.  1.
         25    1    1    2    0    0 -0.17586043624E+02  0.48255956025E+02 -0.51896570603E+02  0.14476242697E+03  0.12500000000E+03 0.  0.
         25    1    1    2    0    0 -0.21369207042E+03  0.19924750856E+02 -0.66621995900E+03  0.71101007759E+03  0.12500000000E+03 0.  0.
         25    1    1    2    0    0  0.23127811405E+03 -0.68180706881E+02 -0.37333533547E+03  0.46167352918E+03  0.12500000000E+03 0.  0.
</event>
<event>
 5    0  0.5735425E-005  0.2653716E+03  0.7546771E-02  0.1103958E+00
         21   -1    0    0  502  501  0.00000000000E+00  0.00000000000E+00  0.51533767845E+03  0.51533767845E+03  0.00000000000E+00 0.  1.
         21   -1    0    0  501  502 -0.00000000000E+00 -0.00000000000E+00 -0.13665226489E+03  0.13665226489E+03  0.00000000000E+00 0.  1.
         25    1    1    2    0    0 -0.78390729724E+02  0.14755852336E+03  0.15682564967E+03  0.26103239017E+03  0.12500000000E+03 0.  0.
         25    1    1    2    0    0  0.86351494201E+01 -0.10802664625E+03  0.15978549853E+03  0.23000158183E+03  0.12500000000E+03 0.  0.
         25    1    1    2    0    0  0.69755580304E+02 -0.39531877104E+02  0.62074265357E+02  0.16095597134E+03  0.12500000000E+03 0.  0.
</event>
<event>
 5    0  0.5735425E-005  0.3713959E+03  0.7546771E-02  0.1054161E+00
         21   -1    0    0  502  501  0.00000000000E+00  0.00000000000E+00  0.51634547271E+03  0.51634547271E+03  0.00000000000E+00 0. -1.
         21   -1    0    0  501  502 -0.00000000000E+00 -0.00000000000E+00 -0.26713681049E+03  0.26713681049E+03  0.00000000000E+00 0. -1.
         25    1    1    2    0    0 -0.56252002039E+02  0.84821160175E+02  0.38416626827E+02  0.16570984933E+03  0.12500000000E+03 0.  0.
         25    1    1    2    0    0  0.14416997060E+03  0.17887987951E+03  0.29653455601E+02  0.26322484523E+03  0.12500000000E+03 0.  0.
         25    1    1    2    0    0 -0.87917968559E+02 -0.26370103969E+03  0.18113857979E+03  0.35454758864E+03  0.12500000000E+03 0.  0.
</event>
<event>
 5    0  0.5735425E-005  0.3392168E+03  0.7546771E-02  0.1067130E+00
         21   -1    0    0  502  501  0.00000000000E+00  0.00000000000E+00  0.12794212030E+03  0.12794212030E+03  0.00000000000E+00 0. -1.
         21   -1    0    0  501  502 -0.00000000000E+00 -0.00000000000E+00 -0.89937592960E+03  0.89937592960E+03  0.00000000000E+00 0. -1.
         25    1    1    2    0    0 -0.82922351943E+02 -0.11641978901E+02 -0.65109038200E+02  0.16393852195E+03  0.12500000000E+03 0.  0.
         25    1    1    2    0    0  0.49000240111E+02 -0.23457018532E+02 -0.71598272949E+03  0.72883984810E+03  0.12500000000E+03 0.  0.
         25    1    1    2    0    0  0.33922111831E+02  0.35098997434E+02  0.96579583892E+01  0.13453967984E+03  0.12500000000E+03 0.  0.
</event>
<event>
 5    0  0.5735425E-005  0.4585098E+03  0.7546771E-02  0.1025214E+00
         21   -1    0    0  502  501  0.00000000000E+00  0.00000000000E+00  0.50259735957E+03  0.50259735957E+03  0.00000000000E+00 0.  1.
         21   -1    0    0  501  502 -0.00000000000E+00 -0.00000000000E+00 -0.41828957882E+03  0.41828957882E+03  0.00000000000E+00 0.  1.
         25    1    1    2    0    0 -0.11876588536E+01 -0.21342734234E+03 -0.25948312753E+03  0.35848170730E+03  0.12500000000E+03 0.  0.
         25    1    1    2    0    0 -0.11898147266E+03  0.19944025120E+03  0.15599046610E+03  0.30641643257E+03  0.12500000000E+03 0.  0.
         25    1    1    2    0    0  0.12016913152E+03  0.13987091144E+02  0.18780044218E+03  0.25598879853E+03  0.12500000000E+03 0.  0.
</event>
<event>
 5    0  0.5735425E-005  0.3158968E+03  0.7546771E-02  0.1077553E+00
         21   -1    0    0  502  501  0.00000000000E+00  0.00000000000E+00  0.65235096830E+02  0.65235096830E+02  0.00000000000E+00 0. -1.
         21   -1    0    0  501  502 -0.00000000000E+00 -0.00000000000E+00 -0.15297104583E+04  0.15297104583E+04  0.00000000000E+00 0. -1.
         25    1    1    2    0    0  0.14020500913E+02 -0.92442005736E+02 -0.12027876514E+03  0.19706364508E+03  0.12500000000E+03 0.  0.
         25    1    1    2    0    0 -0.90544279695E+02 -0.65928797998E+02 -0.60009065793E+03  0.62312010939E+03  0.12500000000E+03 0.  0.
         25    1    1    2    0    0  0.76523778783E+02  0.15837080373E+03 -0.74410593842E+03  0.77476180068E+03  0.12500000000E+03 0.  0.
</event>
<event>
 5    0  0.5735425E-005  0.5068880E+03  0.7546771E-02  0.1011997E+00
         21   -1    0    0  502  501  0.00000000000E+00  0.00000000000E+00  0.14437631185E+04  0.14437631185E+04  0.00000000000E+00 0.  1.
         21   -1    0    0  501  502 -0.00000000000E+00 -0.00000000000E+00 -0.17796235863E+03  0.17796235863E+03  0.00000000000E+00 0.  1.
         25    1    1    2    0    0 -0.54322038927E+02  0.10188571482E+03  0.80443007833E+03  0.82223131399E+03  0.12500000000E+03 0.  0.
         25    1    1    2    0    0 -0.50536957850E+02 -0.20268802031E+03  0.53990765909E+03  0.59225138077E+03  0.12500000000E+03 0.  0.
         25    1    1    2    0    0  0.10485899678E+03  0.10080230549E+03 -0.78536977548E+02  0.20724278236E+03  0.12500000000E+03 0.  0.
</event>
<event>
 5    0  0.5837648E-005  0.2920480E+03  0.7546771E-02  0.1089285E+00
         21   -1    0    0  502  501  0.00000000000E+00  0.00000000000E+00  0.51856339351E+03  0.51856339351E+03  0.00000000000E+00 0. -1.
         21   -1    0    0  501  502 -0.00000000000E+00 -0.00000000000E+00 -0.16447753606E+03  0.16447753606E+03  0.00000000000E+00 0. -1.
         25    1    1    2    0    0  0.34991010835E+01  0.96301491351E+02  0.93757766719E+02  0.18358033600E+03  0.12500000000E+03 0.  0.
         25    1    1    2    0    0 -0.15878958542E+03 -0.99697118653E+02  0.15917802135E+03  0.27589180920E+03  0.12500000000E+03 0.  0.
         25    1    1    2    0    0  0.15529048434E+03  0.33956273026E+01  0.10115006938E+03  0.22356878437E+03  0.12500000000E+03 0.  0.
</event>
<event>
 5    0  0.6169052E-005  0.2826966E+03  0.7546771E-02  0.1094225E+00
         21   -1    0    0  502  501  0.00000000000E+00  0.00000000000E+00  0.12985529002E+03  0.12985529002E+03  0.00000000000E+00 0. -1.
         21   -1    0    0  501  502 -0.00000000000E+00 -0.00000000000E+00 -0.61543416072E+03  0.61543416072E+03  0.00000000000E+00 0. -1.
         25    1    1    2    0    0 -0.95376322826E+02 -0.21729718500E+02 -0.17512845728E+03  0.23635524147E+03  0.12500000000E+03 0.  0.
         25    1    1    2    0    0  0.86851316415E+02  0.16902811228E+02  0.20982650885E+02  0.15457725521E+03  0.12500000000E+03 0.  0.
         25    1    1    2    0    0  0.85250064108E+01  0.48269072716E+01 -0.33143306432E+03  0.35435695406E+03  0.12500000000E+03 0.  0.
</event>
<event>
 5    0  0.5735425E-005  0.3154968E+03  0.7546771E-02  0.1077741E+00
         21   -1    0    0  502  501  0.00000000000E+00  0.00000000000E+00  0.10188030382E+04  0.10188030382E+04  0.00000000000E+00 0. -1.
         21   -1    0    0  501  502 -0.00000000000E+00 -0.00000000000E+00 -0.97701121763E+02  0.97701121763E+02  0.00000000000E+00 0. -1.
         25    1    1    2    0    0  0.46883584311E+02  0.11283993206E+03  0.35824733393E+03  0.39861895717E+03  0.12500000000E+03 0.  0.
         25    1    1    2    0    0  0.12478465012E+03 -0.17473459878E+02  0.38824233280E+03  0.42688832226E+03  0.12500000000E+03 0.  0.
         25    1    1    2    0    0 -0.17166823443E+03 -0.95366472179E+02  0.17461224969E+03  0.29099688051E+03  0.12500000000E+03 0.  0.
</event>
<event>
 5    0  0.5735425E-005  0.2833797E+03  0.7546771E-02  0.1093857E+00
         21   -1    0    0  502  501  0.00000000000E+00  0.00000000000E+00  0.18671888276E+03  0.18671888276E+03  0.00000000000E+00 0. -1.
         21   -1    0    0  501  502 -0.00000000000E+00 -0.00000000000E+00 -0.43007987034E+03  0.43007987034E+03  0.00000000000E+00 0. -1.
         25    1    1    2    0    0  0.12806478391E+03  0.13500907043E+02 -0.87417455428E+02  0.19962383346E+03  0.12500000000E+03 0.  0.
         25    1    1    2    0    0 -0.65908089870E+02  0.30319665520E+02 -0.21527137107E+03  0.25928733411E+03  0.12500000000E+03 0.  0.
         25    1    1    2    0    0 -0.62156694045E+02 -0.43820572563E+02  0.59327838922E+02  0.15788758553E+03  0.12500000000E+03 0.  0.
</event>
<event>
 5    0  0.5735425E-005  0.3373348E+03  0.7546771E-02  0.1067937E+00
         21   -1    0    0  502  501  0.00000000000E+00  0.00000000000E+00  0.12728117637E+04  0.12728117637E+04  0.00000000000E+00 0.  1.
         21   -1    0    0  501  502 -0.00000000000E+00 -0.00000000000E+00 -0.89404221783E+02  0.89404221783E+02  0.00000000000E+00 0.  1.
         25    1    1    2    0    0  0.11065107147E+03 -0.44418332415E+02  0.54733040395E+03  0.57394443892E+03  0.12500000000E+03 0.  0.
         25    1    1    2    0    0 -0.15314207960E+03 -0.26709228695E+02  0.60240442108E+03  0.63457227010E+03  0.12500000000E+03 0.  0.
         25    1    1    2    0    0  0.42491008130E+02  0.71127561111E+02  0.33672716873E+02  0.15369927646E+03  0.12500000000E+03 0.  0.
</event>
<event>
 5    0  0.5735425E-005  0.3152249E+03  0.7546771E-02  0.1077868E+00
         21   -1    0    0  502  501  0.00000000000E+00  0.00000000000E+00  0.29487502786E+03  0.29487502786E+03  0.00000000000E+00 0. -1.
         21   -1    0    0  501  502 -0.00000000000E+00 -0.00000000000E+00 -0.33697912514E+03  0.33697912514E+03  0.00000000000E+00 0. -1.
         25    1    1    2    0    0  0.98619416369E+02  0.50702241801E+02  0.10348816314E+03  0.19654848389E+03  0.12500000000E+03 0.  0.
         25    1    1    2    0    0 -0.19794607996E+03 -0.78262058849E+02 -0.10519698636E+03  0.26832630577E+03  0.12500000000E+03 0.  0.
         25    1    1    2    0    0  0.99326663592E+02  0.27559817048E+02 -0.40395274057E+02  0.16697936334E+03  0.12500000000E+03 0.  0.
</event>
<event>
 5    0  0.5735425E-005  0.5054744E+03  0.7546771E-02  0.1012360E+00
         21   -1    0    0  502  501  0.00000000000E+00  0.00000000000E+00  0.19677456801E+04  0.19677456801E+04  0.00000000000E+00 0. -1.
         21   -1    0    0  501  502 -0.00000000000E+00 -0.00000000000E+00 -0.12984621590E+03  0.12984621590E+03  0.00000000000E+00 0. -1.
         25    1    1    2    0    0  0.41748428509E+03  0.44074539017E+02  0.86099338232E+03  0.96600740043E+03  0.12500000000E+03 0.  0.
         25    1    1    2    0    0 -0.33994133704E+03 -0.10082490275E+03  0.47670418188E+03  0.60712243466E+03  0.12500000000E+03 0.  0.
         25    1    1    2    0    0 -0.77542948047E+02  0.56750363736E+02  0.50020189997E+03  0.52446206088E+03  0.12500000000E+03 0.  0.
</event>
<event>
 5    0  0.5735425E-005  0.5333944E+03  0.7546771E-02  0.1005412E+00
         21   -1    0    0  502  501  0.00000000000E+00  0.00000000000E+00  0.22625650486E+04  0.22625650486E+04  0.00000000000E+00 0. -1.
         21   -1    0    0  501  502 -0.00000000000E+00 -0.00000000000E+00 -0.12574649709E+03  0.12574649709E+03  0.00000000000E+00 0. -1.
         25    1    1    2    0    0  0.16215667082E+03  0.26089855475E+03  0.73775675094E+03  0.80887135276E+03  0.12500000000E+03 0.  0.
         25    1    1    2    0    0  0.72561260107E+02 -0.40471375213E+03  0.78234301585E+03  0.89260514903E+03  0.12500000000E+03 0.  0.
         25    1    1    2    0    0 -0.23471793093E+03  0.14381519738E+03  0.61671878475E+03  0.68683504392E+03  0.12500000000E+03 0.  0.
</event>
<event>
 5    0  0.5735425E-005  0.2546921E+03  0.7546771E-02  0.1110375E+00
         21   -1    0    0  502  501  0.00000000000E+00  0.00000000000E+00  0.84282031823E+02  0.84282031823E+02  0.00000000000E+00 0. -1.
         21   -1    0    0  501  502 -0.00000000000E+00 -0.00000000000E+00 -0.76965466171E+03  0.76965466171E+03  0.00000000000E+00 0. -1.
         25    1    1    2    0    0  0.11254778410E+03  0.66920136028E+02 -0.13474219594E+03  0.22566738284E+03  0.12500000000E+03 0.  0.
         25    1    1    2    0    0 -0.44591581201E+02  0.53223736630E+00 -0.16513610012E+03  0.21185755581E+03  0.12500000000E+03 0.  0.
         25    1    1    2    0    0 -0.67956202902E+02 -0.67452373395E+02 -0.38549433383E+03  0.41641175488E+03  0.12500000000E+03 0.  0.
</event>
<event>
 5    0  0.5735425E-005  0.3274032E+03  0.7546771E-02  0.1072292E+00
         21   -1    0    0  502  501  0.00000000000E+00  0.00000000000E+00  0.10871186896E+04  0.10871186896E+04  0.00000000000E+00 0.  1.
         21   -1    0    0  501  502 -0.00000000000E+00 -0.00000000000E+00 -0.98602715160E+02  0.98602715160E+02  0.00000000000E+00 0.  1.
         25    1    1    2    0    0  0.52270134806E+02  0.25165660196E+02  0.65262204860E+03  0.66701275532E+03  0.12500000000E+03 0.  0.
         25    1    1    2    0    0  0.59647090280E+02  0.11204625537E+03  0.14036707974E+03  0.22680400304E+03  0.12500000000E+03 0.  0.
         25    1    1    2    0    0 -0.11191722509E+03 -0.13721191557E+03  0.19552684613E+03  0.29190464642E+03  0.12500000000E+03 0.  0.
</event>
<event>
 5    0  0.5735425E-005  0.2335944E+03  0.7546771E-02  0.1124135E+00
         21   -1    0    0  502  501  0.00000000000E+00  0.00000000000E+00  0.26081321663E+03  0.26081321663E+03  0.00000000000E+00 0. -1.
         21   -1    0    0  501  502 -0.00000000000E+00 -0.00000000000E+00 -0.20921609912E+03  0.20921609912E+03  0.00000000000E+00 0. -1.
         25    1    1    2    0    0 -0.53335902093E+02 -0.17586888618E+02  0.25600456187E+02  0.13940731853E+03  0.12500000000E+03 0.  0.
         25    1    1    2    0    0  0.12067956656E+03  0.15144842671E+02 -0.31837183170E+02  0.17728939696E+03  0.12500000000E+03 0.  0.
         25    1    1    2    0    0 -0.67343664463E+02  0.24420459476E+01  0.57833844493E+02  0.15333260025E+03  0.12500000000E+03 0.  0.
</event>
<event>
 5    0  0.5735425E-005  0.3069862E+03  0.7546771E-02  0.1081800E+00
         21   -1    0    0  502  501  0.00000000000E+00  0.00000000000E+00  0.14978266229E+03  0.14978266229E+03  0.00000000000E+00 0.  1.
         21   -1    0    0  501  502 -0.00000000000E+00 -0.00000000000E+00 -0.62918163583E+03  0.62918163583E+03  0.00000000000E+00 0.  1.
         25    1    1    2    0    0  0.16739315826E+03 -0.11062624676E+03 -0.21416456043E+03  0.31898290683E+03  0.12500000000E+03 0.  0.
         25    1    1    2    0    0 -0.62040412580E+02  0.12713210677E+03 -0.21933072177E+03  0.28938305216E+03  0.12500000000E+03 0.  0.
         25    1    1    2    0    0 -0.10535274568E+03 -0.16505860012E+02 -0.45903691339E+02  0.17059833914E+03  0.12500000000E+03 0.  0.
</event>
<event>
 5    0  0.5735425E-005  0.3320861E+03  0.7546771E-02  0.1070218E+00
         21   -1    0    0  502  501  0.00000000000E+00  0.00000000000E+00  0.16717408673E+04  0.16717408673E+04  0.00000000000E+00 0. -1.
         21   -1    0    0  501  502 -0.00000000000E+00 -0.00000000000E+00 -0.65967866456E+02  0.65967866456E+02  0.00000000000E+00 0. -1.
         25    1    1    2    0    0 -0.68284685200E+01 -0.68056988872E+02  0.13428547492E+03  0.19579573665E+03  0.12500000000E+03 0.  0.
         25    1    1    2    0    0  0.11734101492E+03  0.17374301758E+03  0.58861913651E+03  0.63722291061E+03  0.12500000000E+03 0.  0.
         25    1    1    2    0    0 -0.11051254640E+03 -0.10568602871E+03  0.88286838940E+03  0.90469008648E+03  0.12500000000E+03 0.  0.
</event>
<event>
 5    0  0.5735425E-005  0.4916032E+03  0.7546771E-02  0.1015994E+00
         21   -1    0    0  502  501  0.00000000000E+00  0.00000000000E+00  0.31029870403E+03  0.31029870403E+03  0.00000000000E+00 0. -1.
         21   -1    0    0  501  502 -0.00000000000E+00 -0.00000000000E+00 -0.77884213602E+03  0.77884213602E+03  0.00000000000E+00 0. -1.
         25    1    1    2    0    0 -0.18456030236E+03  0.36980704054E+03 -0.13029818574E+03  0.45102369078E+03  0.12500000000E+03 0.  0.
         25    1    1    2    0    0  0.18995771818E+03 -0.16603285562E+03 -0.95339123155E+02  0.29726317001E+03  0.12500000000E+03 0.  0.
         25    1    1    2    0    0 -0.53974158174E+01 -0.20377418491E+03 -0.24290612310E+03  0.34085397925E+03  0.12500000000E+03 0.  0.
</event>
<event>
 5    0  0.5735425E-005  0.4297385E+03  0.7546771E-02  0.1033943E+00
         21   -1    0    0  502  501  0.00000000000E+00  0.00000000000E+00  0.44865710469E+03  0.44865710469E+03  0.00000000000E+00 0.  1.
         21   -1    0    0  501  502 -0.00000000000E+00 -0.00000000000E+00 -0.41161761748E+03  0.41161761748E+03  0.00000000000E+00 0.  1.
         25    1    1    2    0    0  0.87110688242E+02 -0.23763106930E+03  0.24872734728E+03  0.37622744502E+03  0.12500000000E+03 0.  0.
         25    1    1    2    0    0 -0.15417543908E+03  0.12338501828E+03 -0.46774687777E+02  0.23834177176E+03  0.12500000000E+03 0.  0.
         25    1    1    2    0    0  0.67064750835E+02  0.11424605101E+03 -0.16491317230E+03  0.24570550538E+03  0.12500000000E+03 0.  0.
</event>
<event>
 5    0  0.5735425E-005  0.2786349E+03  0.7546771E-02  0.1096437E+00
         21   -1    0    0  502  501  0.00000000000E+00  0.00000000000E+00  0.48918057732E+03  0.48918057732E+03  0.00000000000E+00 0. -1.
         21   -1    0    0  501  502 -0.00000000000E+00 -0.00000000000E+00 -0.15870915208E+03  0.15870915208E+03  0.00000000000E+00 0. -1.
         25    1    1    2    0    0  0.10359273839E+01 -0.14061044115E+03  0.32195782842E+02  0.19087676060E+03  0.12500000000E+03 0.  0.
         25    1    1    2    0    0 -0.67810749602E+02 -0.11717188398E+01  0.92014212340E+02  0.16938502283E+03  0.12500000000E+03 0.  0.
         25    1    1    2    0    0  0.66774822218E+02  0.14178215998E+03  0.20626143006E+03  0.28762794597E+03  0.12500000000E+03 0.  0.
</event>
<event>
 5    0  0.6701988E-005  0.3088884E+03  0.7546771E-02  0.1080880E+00
         21   -1    0    0  502  501  0.00000000000E+00  0.00000000000E+00  0.24893384522E+03  0.24893384522E+03  0.00000000000E+00 0.  1.
         21   -1    0    0  501  502 -0.00000000000E+00 -0.00000000000E+00 -0.38328280241E+03  0.38328280241E+03  0.00000000000E+00 0.  1.
         25    1    1    2    0    0 -0.24934218536E+02  0.84897721584E+02  0.37689922596E+02  0.15771768655E+03  0.12500000000E+03 0.  0.
         25    1    1    2    0    0  0.12703198207E+03 -0.17916414398E+03 -0.73369832049E+02  0.26314453673E+03  0.12500000000E+03 0.  0.
         25    1    1    2    0    0 -0.10209776354E+03  0.94266422398E+02 -0.98669047734E+02  0.21135442435E+03  0.12500000000E+03 0.  0.
</event>
<event>
 5    0  0.5735425E-005  0.3432913E+03  0.7546771E-02  0.1065403E+00
         21   -1    0    0  502  501  0.00000000000E+00  0.00000000000E+00  0.39377142197E+02  0.39377142197E+02  0.00000000000E+00 0. -1.
         21   -1    0    0  501  502 -0.00000000000E+00 -0.00000000000E+00 -0.29928253206E+04  0.29928253206E+04  0.00000000000E+00 0. -1.
         25    1    1    2    0    0 -0.35002094038E+02 -0.11513361027E+03 -0.86280690026E+03  0.88008047469E+03  0.12500000000E+03 0.  0.
         25    1    1    2    0    0 -0.46605637518E+02  0.17949406659E+03 -0.18389323314E+04  0.18524813967E+04  0.12500000000E+03 0.  0.
         25    1    1    2    0    0  0.81607731557E+02 -0.64360456320E+02 -0.25170894673E+03  0.29964059146E+03  0.12500000000E+03 0.  0.
</event>
<event>
 5    0  0.6882436E-005  0.6513980E+03  0.7546771E-02  0.9804160E-01
         21   -1    0    0  502  501  0.00000000000E+00  0.00000000000E+00  0.39284377825E+03  0.39284377825E+03  0.00000000000E+00 0. -1.
         21   -1    0    0  501  502 -0.00000000000E+00 -0.00000000000E+00 -0.10801222855E+04  0.10801222855E+04  0.00000000000E+00 0. -1.
         25    1    1    2    0    0 -0.24625121194E+03  0.49013335676E+01  0.20977313441E+03  0.34683346202E+03  0.12500000000E+03 0.  0.
         25    1    1    2    0    0  0.22823194412E+02 -0.27445519384E+03 -0.32556649519E+03  0.44437044728E+03  0.12500000000E+03 0.  0.
         25    1    1    2    0    0  0.22342801753E+03  0.26955386027E+03 -0.57148514653E+03  0.68176215450E+03  0.12500000000E+03 0.  0.
</event>
<event>
 5    0  0.5735425E-005  0.2709497E+03  0.7546771E-02  0.1100737E+00
         21   -1    0    0  502  501  0.00000000000E+00  0.00000000000E+00  0.97166280007E+03  0.97166280007E+03  0.00000000000E+00 0.  1.
         21   -1    0    0  501  502 -0.00000000000E+00 -0.00000000000E+00 -0.75554752359E+02  0.75554752359E+02  0.00000000000E+00 0.  1.
         25    1    1    2    0    0  0.96376969657E+01  0.14161288331E+03  0.46524480524E+03  0.50221989479E+03  0.12500000000E+03 0.  0.
         25    1    1    2    0    0 -0.60224387890E+01  0.54534476227E+01  0.25388275504E+03  0.28310327297E+03  0.12500000000E+03 0.  0.
         25    1    1    2    0    0 -0.36152581767E+01 -0.14706633094E+03  0.17698048742E+03  0.26189438466E+03  0.12500000000E+03 0.  0.
</event>
<event>
 5    0  0.5735425E-005  0.2592538E+03  0.7546771E-02  0.1107592E+00
         21   -1    0    0  502  501  0.00000000000E+00  0.00000000000E+00  0.92736396904E+02  0.92736396904E+02  0.00000000000E+00 0. -1.
         21   -1    0    0  501  502 -0.00000000000E+00 -0.00000000000E+00 -0.72476995468E+03  0.72476995468E+03  0.00000000000E+00 0. -1.
         25    1    1    2    0    0  0.17548125322E+02  0.60187092492E+02 -0.18875203581E+03  0.23491009733E+03  0.12500000000E+03 0.  0.
         25    1    1    2    0    0  0.92196466508E+02  0.50565298088E+02 -0.12058736938E+03  0.20303534535E+03  0.12500000000E+03 0.  0.
         25    1    1    2    0    0 -0.10974459183E+03 -0.11075239058E+03 -0.32269415259E+03  0.37956090891E+03  0.12500000000E+03 0.  0.
</event>
<event>
 5    0  0.5735425E-005  0.3023607E+03  0.7546771E-02  0.1084066E+00
         21   -1    0    0  502  501  0.00000000000E+00  0.00000000000E+00  0.15434404649E+03  0.15434404649E+03  0.00000000000E+00 0. -1.
         21   -1    0    0  501  502 -0.00000000000E+00 -0.00000000000E+00 -0.59232600000E+03  0.59232600000E+03  0.00000000000E+00 0. -1.
         25    1    1    2    0    0 -0.59770754795E+02  0.44116509899E+02 -0.27924238337E+03  0.31483347701E+03  0.12500000000E+03 0.  0.
         25    1    1    2    0    0 -0.68037619625E+02  0.54945486303E+02  0.27865155053E+02  0.15507930557E+03  0.12500000000E+03 0.  0.
         25    1    1    2    0    0  0.12780837442E+03 -0.99061996202E+02 -0.18660472520E+03  0.27675726392E+03  0.12500000000E+03 0.  0.
</event>
<event>
 5    0  0.5735425E-005  0.2993839E+03  0.7546771E-02  0.1085549E+00
         21   -1    0    0  502  501  0.00000000000E+00  0.00000000000E+00  0.53438782929E+02  0.53438782929E+02  0.00000000000E+00 0. -1.
         21   -1    0    0  501  502 -0.00000000000E+00 -0.00000000000E+00 -0.16772594003E+04  0.16772594003E+04  0.00000000000E+00 0. -1.
         25    1    1    2    0    0 -0.14421862489E+02  0.21491666958E+02 -0.19960928560E+03  0.23693617023E+03  0.12500000000E+03 0.  0.
         25    1    1    2    0    0 -0.18444542246E+01 -0.17531392794E+03 -0.10295442198E+04  0.10518196975E+04  0.12500000000E+03 0.  0.
         25    1    1    2    0    0  0.16266316714E+02  0.15382226098E+03 -0.39466711195E+03  0.44194231557E+03  0.12500000000E+03 0.  0.
</event>
<event>
 5    0  0.5735425E-005  0.2946665E+03  0.7546771E-02  0.1087938E+00
         21   -1    0    0  502  501  0.00000000000E+00  0.00000000000E+00  0.41215002704E+03  0.41215002704E+03  0.00000000000E+00 0. -1.
         21   -1    0    0  501  502 -0.00000000000E+00 -0.00000000000E+00 -0.21067170659E+03  0.21067170659E+03  0.00000000000E+00 0. -1.
         25    1    1    2    0    0  0.27945540427E+02  0.12010606786E+03  0.21144600485E+03  0.27484692782E+03  0.12500000000E+03 0.  0.
         25    1    1    2    0    0 -0.80324385023E+02  0.95453082853E+01  0.39427229278E+02  0.15402151197E+03  0.12500000000E+03 0.  0.
         25    1    1    2    0    0  0.52378844596E+02 -0.12965137614E+03 -0.49394913672E+02  0.19395329385E+03  0.12500000000E+03 0.  0.
</event>
<event>
 5    0  0.5735425E-005  0.3388002E+03  0.7546771E-02  0.1067308E+00
         21   -1    0    0  502  501  0.00000000000E+00  0.00000000000E+00  0.17883942181E+03  0.17883942181E+03  0.00000000000E+00 0. -1.
         21   -1    0    0  501  502 -0.00000000000E+00 -0.00000000000E+00 -0.64183586349E+03  0.64183586349E+03  0.00000000000E+00 0. -1.
         25    1    1    2    0    0 -0.81833882095E+02 -0.16204379750E+03 -0.26096595403E+03  0.34158923538E+03  0.12500000000E+03 0.  0.
         25    1    1    2    0    0  0.18726927203E+03  0.42385178905E+02 -0.80703663893E+02  0.24290814108E+03  0.12500000000E+03 0.  0.
         25    1    1    2    0    0 -0.10543538994E+03  0.11965861860E+03 -0.12132682376E+03  0.23617790883E+03  0.12500000000E+03 0.  0.
</event>
<event>
 5    0  0.5735425E-005  0.3318055E+03  0.7546771E-02  0.1070341E+00
         21   -1    0    0  502  501  0.00000000000E+00  0.00000000000E+00  0.45830765256E+03  0.45830765256E+03  0.00000000000E+00 0.  1.
         21   -1    0    0  501  502 -0.00000000000E+00 -0.00000000000E+00 -0.24022051787E+03  0.24022051787E+03  0.00000000000E+00 0.  1.
         25    1    1    2    0    0  0.92196171772E+02 -0.10636762245E+01  0.66034270891E+02  0.16878030225E+03  0.12500000000E+03 0.  0.
         25    1    1    2    0    0  0.30372377289E+02  0.20120116758E+03  0.44498947805E+02  0.24291880844E+03  0.12500000000E+03 0.  0.
         25    1    1    2    0    0 -0.12256854906E+03 -0.20013749135E+03  0.10755391600E+03  0.28682905974E+03  0.12500000000E+03 0.  0.
</event>
<event>
 5    0  0.5735425E-005  0.6436139E+03  0.7546771E-02  0.9818837E-01
         21   -1    0    0  502  501  0.00000000000E+00  0.00000000000E+00  0.90030427561E+03  0.90030427561E+03  0.00000000000E+00 0. -1.
         21   -1    0    0  501  502 -0.00000000000E+00 -0.00000000000E+00 -0.46010976486E+03  0.46010976486E+03  0.00000000000E+00 0. -1.
         25    1    1    2    0    0  0.13405343615E+03 -0.42532952300E+02  0.21351732135E+01  0.18817261952E+03  0.12500000000E+03 0.  0.
         25    1    1    2    0    0 -0.29094072801E+03 -0.45163451311E+03  0.26162674353E+03  0.61048652203E+03  0.12500000000E+03 0.  0.
         25    1    1    2    0    0  0.15688729187E+03  0.49416746541E+03  0.17643259401E+03  0.56175489891E+03  0.12500000000E+03 0.  0.
</event>
<event>
 5    0  0.5735425E-005  0.5165647E+03  0.7546771E-02  0.1009543E+00
         21   -1    0    0  502  501  0.00000000000E+00  0.00000000000E+00  0.13454663406E+04  0.13454663406E+04  0.00000000000E+00 0. -1.
         21   -1    0    0  501  502 -0.00000000000E+00 -0.00000000000E+00 -0.19832464829E+03  0.19832464829E+03  0.00000000000E+00 0. -1.
         25    1    1    2    0    0 -0.24003930727E+03 -0.49983917990E+02  0.22101179007E+03  0.35297092294E+03  0.12500000000E+03 0.  0.
         25    1    1    2    0    0  0.25874586215E+03 -0.24864959773E+02  0.98961864947E+03  0.10307947219E+04  0.12500000000E+03 0.  0.
         25    1    1    2    0    0 -0.18706554874E+02  0.74848877763E+02 -0.63488747233E+02  0.16002534400E+03  0.12500000000E+03 0.  0.
</event>
<event>
 5    0  0.5735425E-005  0.2523447E+03  0.7546771E-02  0.1111832E+00
         21   -1    0    0  502  501  0.00000000000E+00  0.00000000000E+00  0.12664939258E+03  0.12664939258E+03  0.00000000000E+00 0. -1.
         21   -1    0    0  501  502 -0.00000000000E+00 -0.00000000000E+00 -0.50278841551E+03  0.50278841551E+03  0.00000000000E+00 0. -1.
         25    1    1    2    0    0 -0.25977423583E+02 -0.34267118237E+02  0.21837524614E+01  0.13220752892E+03  0.12500000000E+03 0.  0.
         25    1    1    2    0    0 -0.35751342672E+02  0.61743907894E+02 -0.30517979895E+03  0.33741692066E+03  0.12500000000E+03 0.  0.
         25    1    1    2    0    0  0.61728766255E+02 -0.27476789657E+02 -0.73142976448E+02  0.15981335851E+03  0.12500000000E+03 0.  0.
</event>
<event>
 5    0  0.6655324E-005  0.2883112E+03  0.7546771E-02  0.1091234E+00
         21   -1    0    0  502  501  0.00000000000E+00  0.00000000000E+00  0.14968286873E+03  0.14968286873E+03  0.00000000000E+00 0.  1.
         21   -1    0    0  501  502 -0.00000000000E+00 -0.00000000000E+00 -0.55532965901E+03  0.55532965901E+03  0.00000000000E+00 0.  1.
         25    1    1    2    0    0 -0.33219650304E+02 -0.86748900703E+02 -0.71892406406E+02  0.17152969142E+03  0.12500000000E+03 0.  0.
         25    1    1    2    0    0 -0.97845641314E+02  0.14944003315E+03 -0.22418672136E+03  0.31271517242E+03  0.12500000000E+03 0.  0.
         25    1    1    2    0    0  0.13106529162E+03 -0.62691132448E+02 -0.10956766251E+03  0.22076766390E+03  0.12500000000E+03 0.  0.
</event>
<event>
 5    0  0.5735425E-005  0.3689321E+03  0.7546771E-02  0.1055102E+00
         21   -1    0    0  502  501  0.00000000000E+00  0.00000000000E+00  0.38413531136E+03  0.38413531136E+03  0.00000000000E+00 0.  1.
         21   -1    0    0  501  502 -0.00000000000E+00 -0.00000000000E+00 -0.35433060688E+03  0.35433060688E+03  0.00000000000E+00 0.  1.
         25    1    1    2    0    0  0.11189836315E+03  0.15838615796E+03 -0.14437644454E+03  0.27217085892E+03  0.12500000000E+03 0.  0.
         25    1    1    2    0    0 -0.56777041442E+02 -0.23353585911E+03  0.14636856132E+03  0.30791457528E+03  0.12500000000E+03 0.  0.
         25    1    1    2    0    0 -0.55121321707E+02  0.75149701155E+02  0.27812587705E+02  0.15838048404E+03  0.12500000000E+03 0.  0.
</event>
<event>
 5    0  0.5735425E-005  0.3393012E+03  0.7546771E-02  0.1067094E+00
         21   -1    0    0  502  501  0.00000000000E+00  0.00000000000E+00  0.72708617543E+03  0.72708617543E+03  0.00000000000E+00 0. -1.
         21   -1    0    0  501  502 -0.00000000000E+00 -0.00000000000E+00 -0.15833791461E+03  0.15833791461E+03  0.00000000000E+00 0. -1.
         25    1    1    2    0    0  0.12693949431E+02  0.25219718790E+02  0.20859502346E+03  0.24481432634E+03  0.12500000000E+03 0.  0.
         25    1    1    2    0    0  0.46680408123E+02 -0.23316161256E+03  0.25228753534E+03  0.36853412129E+03  0.12500000000E+03 0.  0.
         25    1    1    2    0    0 -0.59374357555E+02  0.20794189377E+03  0.10786570202E+03  0.27207564241E+03  0.12500000000E+03 0.  0.
</event>
<event>
 5    0  0.5735425E-005  0.3769751E+03  0.7546771E-02  0.1052057E+00
         21   -1    0    0  502  501  0.00000000000E+00  0.00000000000E+00  0.11847905836E+04  0.11847905836E+04  0.00000000000E+00 0. -1.
         21   -1    0    0  501  502 -0.00000000000E+00 -0.00000000000E+00 -0.11994545319E+03  0.11994545319E+03  0.00000000000E+00 0. -1.
         25    1    1    2    0    0 -0.14335717900E+03  0.15043557032E+03  0.28016537306E+03  0.37053984651E+03  0.12500000000E+03 0.  0.
         25    1    1    2    0    0  0.71373682976E+02 -0.19469366931E+03  0.15684950705E+03  0.28849019975E+03  0.12500000000E+03 0.  0.
         25    1    1    2    0    0  0.71983496022E+02  0.44258098985E+02  0.62783025025E+03  0.64570599049E+03  0.12500000000E+03 0.  0.
</event>
<event>
 5    0  0.5735425E-005  0.5068678E+03  0.7546771E-02  0.1012002E+00
         21   -1    0    0  502  501  0.00000000000E+00  0.00000000000E+00  0.16667145648E+04  0.16667145648E+04  0.00000000000E+00 0. -1.
         21   -1    0    0  501  502 -0.00000000000E+00 -0.00000000000E+00 -0.15414454003E+03  0.15414454003E+03  0.00000000000E+00 0. -1.
         25    1    1    2    0    0  0.42510468374E+02  0.16681098058E+03  0.13100020675E+03  0.24983814227E+03  0.12500000000E+03 0.  0.
         25    1    1    2    0    0  0.28288823776E+03 -0.32371173701E+02  0.32257667656E+03  0.44805620207E+03  0.12500000000E+03 0.  0.
         25    1    1    2    0    0 -0.32539870614E+03 -0.13443980688E+03  0.10589931415E+04  0.11229647605E+04  0.12500000000E+03 0.  0.
</event>
<event>
 5    0  0.5735425E-005  0.3515118E+03  0.7546771E-02  0.1061996E+00
         21   -1    0    0  502  501  0.00000000000E+00  0.00000000000E+00  0.10887553499E+04  0.10887553499E+04  0.00000000000E+00 0. -1.
         21   -1    0    0  501  502 -0.00000000000E+00 -0.00000000000E+00 -0.11348786413E+03  0.11348786413E+03  0.00000000000E+00 0. -1.
         25    1    1    2    0    0 -0.23024922635E+03  0.12448359046E+03  0.41848479844E+03  0.50918110438E+03  0.12500000000E+03 0.  0.
         25    1    1    2    0    0  0.67315159036E+02 -0.94034952561E+02  0.39407363111E+03  0.42929352391E+03  0.12500000000E+03 0.  0.
         25    1    1    2    0    0  0.16293406732E+03 -0.30448637898E+02  0.16270905621E+03  0.26376858572E+03  0.12500000000E+03 0.  0.
</event>
<event>
 5    0  0.5735425E-005  0.2661707E+03  0.7546771E-02  0.1103491E+00
         21   -1    0    0  502  501  0.00000000000E+00  0.00000000000E+00  0.14225394677E+04  0.14225394677E+04  0.00000000000E+00 0.  1.
         21   -1    0    0  501  502 -0.00000000000E+00 -0.00000000000E+00 -0.49803057639E+02  0.49803057639E+02  0.00000000000E+00 0.  1.
         25    1    1    2    0    0  0.10089741910E+03  0.23685530386E+02  0.30379513160E+03  0.34446737946E+03  0.12500000000E+03 0.  0.
         25    1    1    2    0    0  0.57121555370E+02  0.37876905365E+02  0.54055446131E+03  0.55903636527E+03  0.12500000000E+03 0.  0.
         25    1    1    2    0    0 -0.15801897447E+03 -0.61562435751E+02  0.52838681716E+03  0.56883878062E+03  0.12500000000E+03 0.  0.
</event>
<event>
 5    0  0.5833558E-005  0.3504069E+03  0.7546771E-02  0.1062448E+00
         21   -1    0    0  502  501  0.00000000000E+00  0.00000000000E+00  0.12789149782E+04  0.12789149782E+04  0.00000000000E+00 0. -1.
         21   -1    0    0  501  502 -0.00000000000E+00 -0.00000000000E+00 -0.96007158957E+02  0.96007158957E+02  0.00000000000E+00 0. -1.
         25    1    1    2    0    0 -0.57938460416E+02 -0.10033559793E+03  0.56586041266E+03  0.59097132251E+03  0.12500000000E+03 0.  0.
         25    1    1    2    0    0  0.17108444232E+03 -0.66133160782E+02  0.17594221279E+03  0.28323866897E+03  0.12500000000E+03 0.  0.
         25    1    1    2    0    0 -0.11314598190E+03  0.16646875871E+03  0.44110519384E+03  0.50071214572E+03  0.12500000000E+03 0.  0.
</event>
<event>
 5    0  0.5735425E-005  0.2840174E+03  0.7546771E-02  0.1093515E+00
         21   -1    0    0  502  501  0.00000000000E+00  0.00000000000E+00  0.72053477759E+02  0.72053477759E+02  0.00000000000E+00 0.  1.
         21   -1    0    0  501  502 -0.00000000000E+00 -0.00000000000E+00 -0.11195283572E+04  0.11195283572E+04  0.00000000000E+00 0.  1.
         25    1    1    2    0    0 -0.98293845101E+02 -0.94511899139E+02 -0.62542068909E+03  0.65220412250E+03  0.12500000000E+03 0.  0.
         25    1    1    2    0    0 -0.15800094050E+02  0.92044133952E+02 -0.13593029995E+03  0.20693915050E+03  0.12500000000E+03 0.  0.
         25    1    1    2    0    0  0.11409393915E+03  0.24677651868E+01 -0.28612389040E+03  0.33243856195E+03  0.12500000000E+03 0.  0.
</event>
<event>
 5    0  0.5735425E-005  0.3023566E+03  0.7546771E-02  0.1084068E+00
         21   -1    0    0  502  501  0.00000000000E+00  0.00000000000E+00  0.12480777244E+03  0.12480777244E+03  0.00000000000E+00 0. -1.
         21   -1    0    0  501  502 -0.00000000000E+00 -0.00000000000E+00 -0.73248233676E+03  0.73248233676E+03  0.00000000000E+00 0. -1.
         25    1    1    2    0    0  0.12097359016E+03 -0.12687369084E+03 -0.39311276182E+03  0.44821221140E+03  0.12500000000E+03 0.  0.
         25    1    1    2    0    0 -0.14686761691E+03  0.54928063429E+02 -0.14082821153E+03  0.24504035221E+03  0.12500000000E+03 0.  0.
         25    1    1    2    0    0  0.25894026744E+02  0.71945627411E+02 -0.73733590972E+02  0.16403754559E+03  0.12500000000E+03 0.  0.
</event>
<event>
 5    0  0.5735425E-005  0.2761753E+03  0.7546771E-02  0.1097796E+00
         21   -1    0    0  502  501  0.00000000000E+00  0.00000000000E+00  0.62901581209E+03  0.62901581209E+03  0.00000000000E+00 0.  1.
         21   -1    0    0  501  502 -0.00000000000E+00 -0.00000000000E+00 -0.12125740111E+03  0.12125740111E+03  0.00000000000E+00 0.  1.
         25    1    1    2    0    0  0.81811138908E+02  0.56066645575E+02  0.12720354876E+03  0.20406438693E+03  0.12500000000E+03 0.  0.
         25    1    1    2    0    0 -0.67533648393E+02 -0.73647341227E+02  0.38723352673E+03  0.41899824434E+03  0.12500000000E+03 0.  0.
         25    1    1    2    0    0 -0.14277490515E+02  0.17580695652E+02 -0.66786645121E+01  0.12721058193E+03  0.12500000000E+03 0.  0.
</event>
<event>
 5    0  0.9990876E-005  0.8606411E+03  0.7546771E-02  0.9476165E-01
         21   -1    0    0  502  501  0.00000000000E+00  0.00000000000E+00  0.89499298250E+03  0.89499298250E+03  0.00000000000E+00 0. -1.
         21   -1    0    0  501  502 -0.00000000000E+00 -0.00000000000E+00 -0.82760779063E+03  0.82760779063E+03  0.00000000000E+00 0. -1.
         25    1    1    2    0    0  0.43566044199E+02 -0.60351216715E+03  0.19230315122E+03  0.64709384024E+03  0.12500000000E+03 0.  0.
         25    1    1    2    0    0  0.27410156122E+03  0.55238202918E+03  0.13487210436E+03  0.64348508651E+03  0.12500000000E+03 0.  0.
         25    1    1    2    0    0 -0.31766760542E+03  0.51130137970E+02 -0.25979006371E+03  0.43202184637E+03  0.12500000000E+03 0.  0.
</event>
<event>
 5    0  0.5735425E-005  0.2275622E+03  0.7546771E-02  0.1128367E+00
         21   -1    0    0  502  501  0.00000000000E+00  0.00000000000E+00  0.40437919491E+03  0.40437919491E+03  0.00000000000E+00 0. -1.
         21   -1    0    0  501  502 -0.00000000000E+00 -0.00000000000E+00 -0.12805934727E+03  0.12805934727E+03  0.00000000000E+00 0. -1.
         25    1    1    2    0    0  0.67315800568E+02 -0.26131543800E+02  0.22038472610E+02  0.14603071205E+03  0.12500000000E+03 0.  0.
         25    1    1    2    0    0  0.76485333555E+01  0.18951637542E+02  0.18664443117E+03  0.22556331332E+03  0.12500000000E+03 0.  0.
         25    1    1    2    0    0 -0.74964333923E+02  0.71799062582E+01  0.67636943859E+02  0.16084451681E+03  0.12500000000E+03 0.  0.
</event>
<event>
 5    0  0.5735425E-005  0.2693966E+03  0.7546771E-02  0.1101625E+00
         21   -1    0    0  502  501  0.00000000000E+00  0.00000000000E+00  0.28009487484E+03  0.28009487484E+03  0.00000000000E+00 0.  1.
         21   -1    0    0  501  502 -0.00000000000E+00 -0.00000000000E+00 -0.25910690290E+03  0.25910690290E+03  0.00000000000E+00 0.  1.
         25    1    1    2    0    0  0.12955488124E+03 -0.70148531624E+02 -0.69508676282E+01  0.19333545537E+03  0.12500000000E+03 0.  0.
         25    1    1    2    0    0 -0.22141691588E+02  0.58231235517E+01  0.92881517513E+02  0.15740438231E+03  0.12500000000E+03 0.  0.
         25    1    1    2    0    0 -0.10741318965E+03  0.64325408072E+02 -0.64942677940E+02  0.18846194006E+03  0.12500000000E+03 0.  0.
</event>
<event>
 5    0  0.6411093E-005  0.3411170E+03  0.7546771E-02  0.1066321E+00
         21   -1    0    0  502  501  0.00000000000E+00  0.00000000000E+00  0.77798288751E+03  0.77798288751E+03  0.00000000000E+00 0. -1.
         21   -1    0    0  501  502 -0.00000000000E+00 -0.00000000000E+00 -0.14956727420E+03  0.14956727420E+03  0.00000000000E+00 0. -1.
         25    1    1    2    0    0 -0.13015258026E+02  0.92602018830E+02  0.36370896807E+03  0.39579507866E+03  0.12500000000E+03 0.  0.
         25    1    1    2    0    0  0.16713899568E+03 -0.13334917506E+03  0.87718106419E+02  0.26274876319E+03  0.12500000000E+03 0.  0.
         25    1    1    2    0    0 -0.15412373766E+03  0.40747156228E+02  0.17698853882E+03  0.26900631986E+03  0.12500000000E+03 0.  0.
</event>
<event>
 5    0  0.5735425E-005  0.3332622E+03  0.7546771E-02  0.1069702E+00
         21   -1    0    0  502  501  0.00000000000E+00  0.00000000000E+00  0.54403943740E+03  0.54403943740E+03  0.00000000000E+00 0.  1.
         21   -1    0    0  501  502 -0.00000000000E+00 -0.00000000000E+00 -0.20414644260E+03  0.20414644260E+03  0.00000000000E+00 0.  1.
         25    1    1    2    0    0  0.52389128679E+02  0.98362404902E+02  0.61669141546E+02  0.17845970559E+03  0.12500000000E+03 0.  0.
         25    1    1    2    0    0 -0.16348523510E+03  0.10657159427E+03  0.14713315887E+03  0.27451428604E+03  0.12500000000E+03 0.  0.
         25    1    1    2    0    0  0.11109610642E+03 -0.20493399917E+03  0.13109069438E+03  0.29521188836E+03  0.12500000000E+03 0.  0.
</event>
<event>
 5    0  0.5735425E-005  0.3122906E+03  0.7546771E-02  0.1079253E+00
         21   -1    0    0  502  501  0.00000000000E+00  0.00000000000E+00  0.77183204002E+03  0.77183204002E+03  0.00000000000E+00 0.  1.
         21   -1    0    0  501  502 -0.00000000000E+00 -0.00000000000E+00 -0.12635574668E+03  0.12635574668E+03  0.00000000000E+00 0.  1.
         25    1    1    2    0    0  0.50346732676E+02  0.19708310712E+02  0.13099440015E+03  0.18896492763E+03  0.12500000000E+03 0.  0.
         25    1    1    2    0    0 -0.18023006904E+03  0.15357294289E+02  0.73996744817E+02  0.23198974658E+03  0.12500000000E+03 0.  0.
         25    1    1    2    0    0  0.12988333637E+03 -0.35065605000E+02  0.44048514837E+03  0.47723311249E+03  0.12500000000E+03 0.  0.
</event>
<event>
 5    0  0.5735425E-005  0.3748867E+03  0.7546771E-02  0.1052840E+00
         21   -1    0    0  502  501  0.00000000000E+00  0.00000000000E+00  0.12465116389E+04  0.12465116389E+04  0.00000000000E+00 0.  1.
         21   -1    0    0  501  502 -0.00000000000E+00 -0.00000000000E+00 -0.11274669517E+03  0.11274669517E+03  0.00000000000E+00 0.  1.
         25    1    1    2    0    0  0.19965153645E+02 -0.14747698826E+03  0.52695848992E+02  0.20137011180E+03  0.12500000000E+03 0.  0.
         25    1    1    2    0    0 -0.91642265907E+02 -0.54701419179E+02  0.37491531617E+03  0.40936175256E+03  0.12500000000E+03 0.  0.
         25    1    1    2    0    0  0.71677112262E+02  0.20217840744E+03  0.70615377856E+03  0.74852646970E+03  0.12500000000E+03 0.  0.
</event>
<event>
 5    0  0.5735425E-005  0.3820778E+03  0.7546771E-02  0.1050168E+00
         21   -1    0    0  502  501  0.00000000000E+00  0.00000000000E+00  0.28249274574E+03  0.28249274574E+03  0.00000000000E+00 0. -1.
         21   -1    0    0  501  502 -0.00000000000E+00 -0.00000000000E+00 -0.51676875667E+03  0.51676875667E+03  0.00000000000E+00 0. -1.
         25    1    1    2    0    0 -0.16137882513E+03  0.61180772237E+02 -0.21721052854E+03  0.30428872112E+03  0.12500000000E+03 0.  0.
         25    1    1    2    0    0 -0.26119942894E+02  0.64750641322E+02 -0.14765575491E+03  0.20567478923E+03  0.12500000000E+03 0.  0.
         25    1    1    2    0    0  0.18749876802E+03 -0.12593141356E+03  0.13059027251E+03  0.28929799205E+03  0.12500000000E+03 0.  0.
</event>
<event>
 5    0  0.5735425E-005  0.4151896E+03  0.7546771E-02  0.1038643E+00
         21   -1    0    0  502  501  0.00000000000E+00  0.00000000000E+00  0.49973969650E+03  0.49973969650E+03  0.00000000000E+00 0. -1.
         21   -1    0    0  501  502 -0.00000000000E+00 -0.00000000000E+00 -0.34494442256E+03  0.34494442256E+03  0.00000000000E+00 0. -1.
         25    1    1    2    0    0  0.11375969950E+03 -0.25532099293E+03  0.11387932812E+03  0.32668575120E+03  0.12500000000E+03 0.  0.
         25    1    1    2    0    0  0.22617001988E+02  0.30004144531E+03  0.33297332467E+02  0.32752115967E+03  0.12500000000E+03 0.  0.
         25    1    1    2    0    0 -0.13637670149E+03 -0.44720452378E+02  0.76186133545E+01  0.19047720819E+03  0.12500000000E+03 0.  0.
</event>
<event>
 5    0  0.5735425E-005  0.2221434E+03  0.7546771E-02  0.1132295E+00
         21   -1    0    0  502  501  0.00000000000E+00  0.00000000000E+00  0.25003219107E+02  0.25003219107E+02  0.00000000000E+00 0. -1.
         21   -1    0    0  501  502 -0.00000000000E+00 -0.00000000000E+00 -0.19736531562E+04  0.19736531562E+04  0.00000000000E+00 0. -1.
         25    1    1    2    0    0 -0.16287460261E+02  0.68993333433E+02 -0.82145115209E+03  0.83392587002E+03  0.12500000000E+03 0.  0.
         25    1    1    2    0    0 -0.29542059134E+02 -0.73150293652E+02 -0.75702675018E+03  0.77132237049E+03  0.12500000000E+03 0.  0.
         25    1    1    2    0    0  0.45829519395E+02  0.41569602188E+01 -0.37017203484E+03  0.39340813482E+03  0.12500000000E+03 0.  0.
</event>
<event>
 5    0  0.5735425E-005  0.5433025E+03  0.7546771E-02  0.1003056E+00
         21   -1    0    0  502  501  0.00000000000E+00  0.00000000000E+00  0.18988617681E+03  0.18988617681E+03  0.00000000000E+00 0. -1.
         21   -1    0    0  501  502 -0.00000000000E+00 -0.00000000000E+00 -0.15544977822E+04  0.15544977822E+04  0.00000000000E+00 0. -1.
         25    1    1    2    0    0 -0.14655606432E+03 -0.21611640867E+03  0.92688414738E+01  0.28964787848E+03  0.12500000000E+03 0.  0.
         25    1    1    2    0    0 -0.49251528347E+02  0.16605836758E+03 -0.89498610182E+03  0.92012293577E+03  0.12500000000E+03 0.  0.
         25    1    1    2    0    0  0.19580759267E+03  0.50058041093E+02 -0.47889434508E+03  0.53461314478E+03  0.12500000000E+03 0.  0.
</event>
<event>
 5    0  0.5735425E-005  0.2429666E+03  0.7546771E-02  0.1117832E+00
         21   -1    0    0  502  501  0.00000000000E+00  0.00000000000E+00  0.20445768763E+03  0.20445768763E+03  0.00000000000E+00 0.  1.
         21   -1    0    0  501  502 -0.00000000000E+00 -0.00000000000E+00 -0.28872843248E+03  0.28872843248E+03  0.00000000000E+00 0.  1.
         25    1    1    2    0    0 -0.83300912538E+02  0.14139948424E+02  0.34111235711E+01  0.15091592340E+03  0.12500000000E+03 0.  0.
         25    1    1    2    0    0  0.42935647949E+02  0.82973130312E+02  0.16913042496E+01  0.15606367524E+03  0.12500000000E+03 0.  0.
         25    1    1    2    0    0  0.40365264589E+02 -0.97113078736E+02 -0.89373172676E+02  0.18620652148E+03  0.12500000000E+03 0.  0.
</event>
<event>
 5    0  0.5735425E-005  0.2756134E+03  0.7546771E-02  0.1098109E+00
         21   -1    0    0  502  501  0.00000000000E+00  0.00000000000E+00  0.13218444000E+03  0.13218444000E+03  0.00000000000E+00 0.  1.
         21   -1    0    0  501  502 -0.00000000000E+00 -0.00000000000E+00 -0.57467243912E+03  0.57467243912E+03  0.00000000000E+00 0.  1.
         25    1    1    2    0    0  0.35292060479E+02  0.44088728396E+02 -0.16623644727E+03  0.21552007309E+03  0.12500000000E+03 0.  0.
         25    1    1    2    0    0 -0.16317532403E+03  0.25167922142E+02 -0.19008005050E+03  0.28109613351E+03  0.12500000000E+03 0.  0.
         25    1    1    2    0    0  0.12788326355E+03 -0.69256650537E+02 -0.86171501359E+02  0.21024067253E+03  0.12500000000E+03 0.  0.
</event>
<event>
 5    0  0.5735425E-005  0.3226430E+03  0.7546771E-02  0.1074439E+00
         21   -1    0    0  502  501  0.00000000000E+00  0.00000000000E+00  0.35664298328E+03  0.35664298328E+03  0.00000000000E+00 0. -1.
         21   -1    0    0  501  502 -0.00000000000E+00 -0.00000000000E+00 -0.29188442108E+03  0.29188442108E+03  0.00000000000E+00 0. -1.
         25    1    1    2    0    0  0.45661026823E+02  0.93255826345E+02  0.99465803922E+01  0.16280513806E+03  0.12500000000E+03 0.  0.
         25    1    1    2    0    0 -0.19188241499E+03  0.48891787562E+02 -0.20224619825E+02  0.23503894001E+03  0.12500000000E+03 0.  0.
         25    1    1    2    0    0  0.14622138817E+03 -0.14214761391E+03  0.75036601635E+02  0.25068332629E+03  0.12500000000E+03 0.  0.
</event>
<event>
 5    0  0.5735425E-005  0.2437219E+03  0.7546771E-02  0.1117338E+00
         21   -1    0    0  502  501  0.00000000000E+00  0.00000000000E+00  0.90662466134E+02  0.90662466134E+02  0.00000000000E+00 0. -1.
         21   -1    0    0  501  502 -0.00000000000E+00 -0.00000000000E+00 -0.65518120995E+03  0.65518120995E+03  0.00000000000E+00 0. -1.
         25    1    1    2    0    0  0.12805230172E+03 -0.41619255846E+02 -0.22085692107E+03  0.28728441311E+03  0.12500000000E+03 0.  0.
         25    1    1    2    0    0 -0.42784180909E+02 -0.21639879530E+02 -0.11103754877E+03  0.17393420526E+03  0.12500000000E+03 0.  0.
         25    1    1    2    0    0 -0.85268120808E+02  0.63259135375E+02 -0.23262427397E+03  0.28462505771E+03  0.12500000000E+03 0.  0.
</event>
<event>
 5    0  0.5735425E-005  0.2758632E+03  0.7546771E-02  0.1097970E+00
         21   -1    0    0  502  501  0.00000000000E+00  0.00000000000E+00  0.88335241051E+03  0.88335241051E+03  0.00000000000E+00 0.  1.
         21   -1    0    0  501  502 -0.00000000000E+00 -0.00000000000E+00 -0.86149642699E+02  0.86149642699E+02  0.00000000000E+00 0.  1.
         25    1    1    2    0    0 -0.64592631748E+02  0.10856468298E+03  0.25283055881E+03  0.30904172846E+03  0.12500000000E+03 0.  0.
         25    1    1    2    0    0 -0.83913925860E+01 -0.15506061741E+03  0.19237007684E+03  0.27702970419E+03  0.12500000000E+03 0.  0.
         25    1    1    2    0    0  0.72984024334E+02  0.46495934436E+02  0.35200213217E+03  0.38343062055E+03  0.12500000000E+03 0.  0.
</event>
<event>
 5    0  0.5735425E-005  0.2692903E+03  0.7546771E-02  0.1101686E+00
         21   -1    0    0  502  501  0.00000000000E+00  0.00000000000E+00  0.61953105921E+03  0.61953105921E+03  0.00000000000E+00 0. -1.
         21   -1    0    0  501  502 -0.00000000000E+00 -0.00000000000E+00 -0.11705184649E+03  0.11705184649E+03  0.00000000000E+00 0. -1.
         25    1    1    2    0    0 -0.25455830689E+02  0.31941684795E+02 -0.17341461758E+02  0.13264236442E+03  0.12500000000E+03 0.  0.
         25    1    1    2    0    0  0.65236455464E+02  0.53264220536E+02  0.24148366078E+03  0.28466160741E+03  0.12500000000E+03 0.  0.
         25    1    1    2    0    0 -0.39780624775E+02 -0.85205905331E+02  0.27833701371E+03  0.31927893387E+03  0.12500000000E+03 0.  0.
</event>
<event>
 5    0  0.5735425E-005  0.3998776E+03  0.7546771E-02  0.1043822E+00
         21   -1    0    0  502  501  0.00000000000E+00  0.00000000000E+00  0.26508012169E+04  0.26508012169E+04  0.00000000000E+00 0. -1.
         21   -1    0    0  501  502 -0.00000000000E+00 -0.00000000000E+00 -0.60322188097E+02  0.60322188097E+02  0.00000000000E+00 0. -1.
         25    1    1    2    0    0  0.33248287763E+02  0.22324659914E+03  0.31043328966E+03  0.40365619033E+03  0.12500000000E+03 0.  0.
         25    1    1    2    0    0  0.32542785772E+02 -0.11241993849E+03  0.12841168322E+04  0.12954838147E+04  0.12500000000E+03 0.  0.
         25    1    1    2    0    0 -0.65791073535E+02 -0.11082666064E+03  0.99592890694E+03  0.10119833999E+04  0.12500000000E+03 0.  0.
</event>
<event>
 5    0  0.5735425E-005  0.3240936E+03  0.7546771E-02  0.1073781E+00
         21   -1    0    0  502  501  0.00000000000E+00  0.00000000000E+00  0.68578851848E+03  0.68578851848E+03  0.00000000000E+00 0.  1.
         21   -1    0    0  501  502 -0.00000000000E+00 -0.00000000000E+00 -0.15316192680E+03  0.15316192680E+03  0.00000000000E+00 0.  1.
         25    1    1    2    0    0  0.13401009811E+03 -0.12471004745E+03  0.70998682288E+02  0.23275978007E+03  0.12500000000E+03 0.  0.
         25    1    1    2    0    0 -0.18651283561E+03  0.69774139575E+02  0.21058860688E+03  0.31563908146E+03  0.12500000000E+03 0.  0.
         25    1    1    2    0    0  0.52502737497E+02  0.54935907873E+02  0.25103930250E+03  0.29055158375E+03  0.12500000000E+03 0.  0.
</event>
<event>
 5    0  0.5735425E-005  0.3362001E+03  0.7546771E-02  0.1068426E+00
         21   -1    0    0  502  501  0.00000000000E+00  0.00000000000E+00  0.71338853979E+02  0.71338853979E+02  0.00000000000E+00 0. -1.
         21   -1    0    0  501  502 -0.00000000000E+00 -0.00000000000E+00 -0.15844168672E+04  0.15844168672E+04  0.00000000000E+00 0. -1.
         25    1    1    2    0    0  0.76361029503E+02  0.16775792534E+03 -0.27999974498E+03  0.35776889962E+03  0.12500000000E+03 0.  0.
         25    1    1    2    0    0  0.32354899033E+02 -0.17515864959E+03 -0.89971622819E+03  0.92565743301E+03  0.12500000000E+03 0.  0.
         25    1    1    2    0    0 -0.10871592854E+03  0.74007242505E+01 -0.33336204004E+03  0.37232938855E+03  0.12500000000E+03 0.  0.
</event>
<event>
 5    0  0.6168553E-005  0.3750802E+03  0.7546771E-02  0.1052767E+00
         21   -1    0    0  502  501  0.00000000000E+00  0.00000000000E+00  0.20094686589E+03  0.20094686589E+03  0.00000000000E+00 0.  1.
         21   -1    0    0  501  502 -0.00000000000E+00 -0.00000000000E+00 -0.70011110101E+03  0.70011110101E+03  0.00000000000E+00 0.  1.
         25    1    1    2    0    0 -0.51684908349E+02 -0.16222938962E+03 -0.14674073304E+03  0.25719165488E+03  0.12500000000E+03 0.  0.
         25    1    1    2    0    0  0.92985812367E+02 -0.23875878145E+01 -0.39869924768E+03  0.42806325698E+03  0.12500000000E+03 0.  0.
         25    1    1    2    0    0 -0.41300904018E+02  0.16461697744E+03  0.46275745591E+02  0.21580305504E+03  0.12500000000E+03 0.  0.
</event>
<event>
 5    0  0.5735425E-005  0.3151127E+03  0.7546771E-02  0.1077921E+00
         21   -1    0    0  502  501  0.00000000000E+00  0.00000000000E+00  0.73194747897E+02  0.73194747897E+02  0.00000000000E+00 0. -1.
         21   -1    0    0  501  502 -0.00000000000E+00 -0.00000000000E+00 -0.13566003432E+04  0.13566003432E+04  0.00000000000E+00 0. -1.
         25    1    1    2    0    0  0.20621728512E+03  0.37266538146E+02 -0.67383023398E+03  0.71664952925E+03  0.12500000000E+03 0.  0.
         25    1    1    2    0    0 -0.15302760452E+03  0.37053312710E+02 -0.24415369991E+03  0.31626954470E+03  0.12500000000E+03 0.  0.
         25    1    1    2    0    0 -0.53189680601E+02 -0.74319850855E+02 -0.36542166143E+03  0.39687601716E+03  0.12500000000E+03 0.  0.
</event>
<event>
 5    0  0.5735425E-005  0.2429662E+03  0.7546771E-02  0.1117832E+00
         21   -1    0    0  502  501  0.00000000000E+00  0.00000000000E+00  0.64698752212E+02  0.64698752212E+02  0.00000000000E+00 0.  1.
         21   -1    0    0  501  502 -0.00000000000E+00 -0.00000000000E+00 -0.91242234126E+03  0.91242234126E+03  0.00000000000E+00 0.  1.
         25    1    1    2    0    0 -0.36793277133E+02  0.97849617643E+02 -0.25550375429E+03  0.30304366249E+03  0.12500000000E+03 0.  0.
         25    1    1    2    0    0 -0.49533635443E+02 -0.10386736428E+03 -0.30858982870E+03  0.35227076628E+03  0.12500000000E+03 0.  0.
         25    1    1    2    0    0  0.86326912576E+02  0.60177466404E+01 -0.28363000606E+03  0.32180666470E+03  0.12500000000E+03 0.  0.
</event>
<event>
 5    0  0.5735425E-005  0.2418819E+03  0.7546771E-02  0.1118545E+00
         21   -1    0    0  502  501  0.00000000000E+00  0.00000000000E+00  0.20037454734E+03  0.20037454734E+03  0.00000000000E+00 0. -1.
         21   -1    0    0  501  502 -0.00000000000E+00 -0.00000000000E+00 -0.29198749009E+03  0.29198749009E+03  0.00000000000E+00 0. -1.
         25    1    1    2    0    0  0.48946672623E+02 -0.35342476240E+02 -0.90855377067E+02  0.16590529506E+03  0.12500000000E+03 0.  0.
         25    1    1    2    0    0  0.51037649114E+02 -0.45511301253E+02  0.26922398950E+02  0.14500322663E+03  0.12500000000E+03 0.  0.
         25    1    1    2    0    0 -0.99984321737E+02  0.80853777493E+02 -0.27679964630E+02  0.18145351573E+03  0.12500000000E+03 0.  0.
</event>
<event>
 5    0  0.5735425E-005  0.3836093E+03  0.7546771E-02  0.1049608E+00
         21   -1    0    0  502  501  0.00000000000E+00  0.00000000000E+00  0.54124539074E+03  0.54124539074E+03  0.00000000000E+00 0. -1.
         21   -1    0    0  501  502 -0.00000000000E+00 -0.00000000000E+00 -0.27188423140E+03  0.27188423140E+03  0.00000000000E+00 0. -1.
         25    1    1    2    0    0  0.96295670445E+02  0.24247006993E+02  0.92225827165E+01  0.15990881629E+03  0.12500000000E+03 0.  0.
         25    1    1    2    0    0 -0.11131019037E+03  0.40681116792E+02 -0.14429191682E+03  0.22469995328E+03  0.12500000000E+03 0.  0.
         25    1    1    2    0    0  0.15014519926E+02 -0.64928123785E+02  0.40443049345E+03  0.42852085258E+03  0.12500000000E+03 0.  0.
</event>
<event>
 5    0  0.5735425E-005  0.3776390E+03  0.7546771E-02  0.1051810E+00
         21   -1    0    0  502  501  0.00000000000E+00  0.00000000000E+00  0.50166397159E+02  0.50166397159E+02  0.00000000000E+00 0. -1.
         21   -1    0    0  501  502 -0.00000000000E+00 -0.00000000000E+00 -0.28427633414E+04  0.28427633414E+04  0.00000000000E+00 0. -1.
         25    1    1    2    0    0  0.35137312369E+02 -0.69659221715E+02 -0.23089574580E+03  0.27390670550E+03  0.12500000000E+03 0.  0.
         25    1    1    2    0    0 -0.21494822377E+03  0.12115320125E+03 -0.88280456000E+03  0.92512146675E+03  0.12500000000E+03 0.  0.
         25    1    1    2    0    0  0.17981091140E+03 -0.51493979536E+02 -0.16788966384E+04  0.16939015663E+04  0.12500000000E+03 0.  0.
</event>
<event>
 5    0  0.5735425E-005  0.3184302E+03  0.7546771E-02  0.1076374E+00
         21   -1    0    0  502  501  0.00000000000E+00  0.00000000000E+00  0.19507395431E+04  0.19507395431E+04  0.00000000000E+00 0. -1.
         21   -1    0    0  501  502 -0.00000000000E+00 -0.00000000000E+00 -0.51979151329E+02  0.51979151329E+02  0.00000000000E+00 0. -1.
         25    1    1    2    0    0  0.77869465321E+02 -0.13408488121E+03  0.63488043376E+03  0.66538753683E+03  0.12500000000E+03 0.  0.
         25    1    1    2    0    0 -0.20238630306E+03  0.73036582204E+02  0.77752710437E+03  0.81637488695E+03  0.12500000000E+03 0.  0.
         25    1    1    2    0    0  0.12451683774E+03  0.61048299003E+02  0.48635285367E+03  0.52095627068E+03  0.12500000000E+03 0.  0.
</event>
<event>
 5    0  0.5820430E-005  0.5812903E+03  0.7546771E-02  0.9945001E-01
         21   -1    0    0  502  501  0.00000000000E+00  0.00000000000E+00  0.14530495714E+04  0.14530495714E+04  0.00000000000E+00 0.  1.
         21   -1    0    0  501  502 -0.00000000000E+00 -0.00000000000E+00 -0.23254430548E+03  0.23254430548E+03  0.00000000000E+00 0.  1.
         25    1    1    2    0    0 -0.82475950416E+02  0.20870409965E+03  0.28034214291E+02  0.25840007890E+03  0.12500000000E+03 0.  0.
         25    1    1    2    0    0 -0.28185154303E+03 -0.23532940852E+03  0.48292672645E+03  0.61940571998E+03  0.12500000000E+03 0.  0.
         25    1    1    2    0    0  0.36432749345E+03  0.26625308875E+02  0.70954432513E+03  0.80778807795E+03  0.12500000000E+03 0.  0.
</event>
<event>
 5    0  0.5735425E-005  0.3481461E+03  0.7546771E-02  0.1063379E+00
         21   -1    0    0  502  501  0.00000000000E+00  0.00000000000E+00  0.83875436511E+03  0.83875436511E+03  0.00000000000E+00 0.  1.
         21   -1    0    0  501  502 -0.00000000000E+00 -0.00000000000E+00 -0.14450679478E+03  0.14450679478E+03  0.00000000000E+00 0.  1.
         25    1    1    2    0    0 -0.25404609630E+02 -0.62569463339E+02  0.86289021418E+02  0.16622613257E+03  0.12500000000E+03 0.  0.
         25    1    1    2    0    0  0.21696038668E+03  0.12540986723E+03  0.19653006630E+03  0.34212353200E+03  0.12500000000E+03 0.  0.
         25    1    1    2    0    0 -0.19155577705E+03 -0.62840403887E+02  0.41142848261E+03  0.47491149532E+03  0.12500000000E+03 0.  0.
</event>
<event>
 5    0  0.5735425E-005  0.2769436E+03  0.7546771E-02  0.1097370E+00
         21   -1    0    0  502  501  0.00000000000E+00  0.00000000000E+00  0.46467743668E+02  0.46467743668E+02  0.00000000000E+00 0. -1.
         21   -1    0    0  501  502 -0.00000000000E+00 -0.00000000000E+00 -0.16505589278E+04  0.16505589278E+04  0.00000000000E+00 0. -1.
         25    1    1    2    0    0 -0.31209790770E+02  0.53656932343E+02 -0.21356121447E+03  0.25512057886E+03  0.12500000000E+03 0.  0.
         25    1    1    2    0    0  0.44357864019E+02 -0.13013680059E+03 -0.40674090065E+03  0.44717599134E+03  0.12500000000E+03 0.  0.
         25    1    1    2    0    0 -0.13148073249E+02  0.76479868248E+02 -0.98378906905E+03  0.99473010131E+03  0.12500000000E+03 0.  0.
</event>
<event>
 5    0  0.6550498E-005  0.3405744E+03  0.7546771E-02  0.1066552E+00
         21   -1    0    0  502  501  0.00000000000E+00  0.00000000000E+00  0.59191450425E+03  0.59191450425E+03  0.00000000000E+00 0.  1.
         21   -1    0    0  501  502 -0.00000000000E+00 -0.00000000000E+00 -0.19595890771E+03  0.19595890771E+03  0.00000000000E+00 0.  1.
         25    1    1    2    0    0  0.29116386447E+02 -0.12551798136E+03  0.25038284492E+02  0.18125794684E+03  0.12500000000E+03 0.  0.
         25    1    1    2    0    0  0.17961060343E+02  0.25958849313E+03  0.19614481948E+03  0.34900798796E+03  0.12500000000E+03 0.  0.
         25    1    1    2    0    0 -0.47077446790E+02 -0.13407051177E+03  0.17477249257E+03  0.25760747715E+03  0.12500000000E+03 0.  0.
</event>
<event>
 5    0  0.5735425E-005  0.3731102E+03  0.7546771E-02  0.1053510E+00
         21   -1    0    0  502  501  0.00000000000E+00  0.00000000000E+00  0.34608601456E+03  0.34608601456E+03  0.00000000000E+00 0. -1.
         21   -1    0    0  501  502 -0.00000000000E+00 -0.00000000000E+00 -0.40224460378E+03  0.40224460378E+03  0.00000000000E+00 0. -1.
         25    1    1    2    0    0 -0.90023460760E+02  0.19564867724E+03 -0.96950239197E+02  0.26722083989E+03  0.12500000000E+03 0.  0.
         25    1    1    2    0    0  0.23635452374E+02 -0.28492615789E+03  0.26146024378E+02  0.31312962915E+03  0.12500000000E+03 0.  0.
         25    1    1    2    0    0  0.66388008386E+02  0.89277480657E+02  0.14645625603E+02  0.16798014930E+03  0.12500000000E+03 0.  0.
</event>
<event>
 5    0  0.5735425E-005  0.4964444E+03  0.7546771E-02  0.1014711E+00
         21   -1    0    0  502  501  0.00000000000E+00  0.00000000000E+00  0.57252712773E+03  0.57252712773E+03  0.00000000000E+00 0. -1.
         21   -1    0    0  501  502 -0.00000000000E+00 -0.00000000000E+00 -0.43047228552E+03  0.43047228552E+03  0.00000000000E+00 0. -1.
         25    1    1    2    0    0  0.12786502172E+02 -0.12043288897E+02 -0.20495365240E+03  0.24070632537E+03  0.12500000000E+03 0.  0.
         25    1    1    2    0    0  0.70586950175E+02  0.31139278882E+03  0.19515030472E+03  0.39453343064E+03  0.12500000000E+03 0.  0.
         25    1    1    2    0    0 -0.83373452346E+02 -0.29934949992E+03  0.15185818988E+03  0.36775965724E+03  0.12500000000E+03 0.  0.
</event>
<event>
 5    0  0.5735425E-005  0.2352212E+03  0.7546771E-02  0.1123018E+00
         21   -1    0    0  502  501  0.00000000000E+00  0.00000000000E+00  0.39179670790E+03  0.39179670790E+03  0.00000000000E+00 0. -1.
         21   -1    0    0  501  502 -0.00000000000E+00 -0.00000000000E+00 -0.14121867407E+03  0.14121867407E+03  0.00000000000E+00 0. -1.
         25    1    1    2    0    0 -0.73506099177E+02  0.76402435392E+02  0.13014836034E+03  0.20929422938E+03  0.12500000000E+03 0.  0.
         25    1    1    2    0    0  0.96557745854E+02 -0.32638625521E+02  0.94116209161E+02  0.18673922723E+03  0.12500000000E+03 0.  0.
         25    1    1    2    0    0 -0.23051646677E+02 -0.43763809871E+02  0.26313464327E+02  0.13698192535E+03  0.12500000000E+03 0.  0.
</event>
<event>
 5    0  0.5735425E-005  0.3689297E+03  0.7546771E-02  0.1055103E+00
         21   -1    0    0  502  501  0.00000000000E+00  0.00000000000E+00  0.93231805413E+02  0.93231805413E+02  0.00000000000E+00 0. -1.
         21   -1    0    0  501  502 -0.00000000000E+00 -0.00000000000E+00 -0.14598999319E+04  0.14598999319E+04  0.00000000000E+00 0.  1.
         25    1    1    2    0    0  0.15552179953E+03 -0.42703093231E+02 -0.74115602529E+03  0.76873131725E+03  0.12500000000E+03 0.  0.
         25    1    1    2    0    0  0.11339190684E+03  0.44318056936E+02 -0.26951651385E+03  0.32107003277E+03  0.12500000000E+03 0.  0.
         25    1    1    2    0    0 -0.26891370637E+03 -0.16149637046E+01 -0.35599558740E+03  0.46333038733E+03  0.12500000000E+03 0.  0.
</event>
<event>
 5    0  0.5735425E-005  0.3051177E+03  0.7546771E-02  0.1082710E+00
         21   -1    0    0  502  501  0.00000000000E+00  0.00000000000E+00  0.23324289677E+03  0.23324289677E+03  0.00000000000E+00 0. -1.
         21   -1    0    0  501  502 -0.00000000000E+00 -0.00000000000E+00 -0.39914092439E+03  0.39914092439E+03  0.00000000000E+00 0. -1.
         25    1    1    2    0    0 -0.26197937760E+02  0.15224578241E+03 -0.53561798092E+02  0.20581296465E+03  0.12500000000E+03 0.  0.
         25    1    1    2    0    0  0.34247151480E+02  0.39399103273E+02  0.51625293205E+02  0.14496664313E+03  0.12500000000E+03 0.  0.
         25    1    1    2    0    0 -0.80492137200E+01 -0.19164488568E+03 -0.16396152274E+03  0.28160421337E+03  0.12500000000E+03 0.  0.
</event>
<event>
 5    0  0.5735425E-005  0.3386186E+03  0.7546771E-02  0.1067386E+00
         21   -1    0    0  502  501  0.00000000000E+00  0.00000000000E+00  0.49260162678E+03  0.49260162678E+03  0.00000000000E+00 0. -1.
         21   -1    0    0  501  502 -0.00000000000E+00 -0.00000000000E+00 -0.23276937901E+03  0.23276937901E+03  0.00000000000E+00 0. -1.
         25    1    1    2    0    0  0.24100317654E+02  0.13378451967E+03  0.24578280140E+02  0.18630140866E+03  0.12500000000E+03 0.  0.
         25    1    1    2    0    0  0.12543125276E+03 -0.19842556205E+03  0.19510804988E+03  0.32984519698E+03  0.12500000000E+03 0.  0.
         25    1    1    2    0    0 -0.14953157041E+03  0.64641042380E+02  0.40145917751E+02  0.20922440016E+03  0.12500000000E+03 0.  0.
</event>
<event>
 5    0  0.5735425E-005  0.2744011E+03  0.7546771E-02  0.1098787E+00
         21   -1    0    0  502  501  0.00000000000E+00  0.00000000000E+00  0.10037183682E+03  0.10037183682E+03  0.00000000000E+00 0.  1.
         21   -1    0    0  501  502 -0.00000000000E+00 -0.00000000000E+00 -0.75017015317E+03  0.75017015317E+03  0.00000000000E+00 0.  1.
         25    1    1    2    0    0  0.11280656684E+03 -0.82258215684E+02 -0.22905719529E+03  0.29594582998E+03  0.12500000000E+03 0.  0.
         25    1    1    2    0    0 -0.15647644007E+02 -0.53855373150E+02 -0.91550168852E+02  0.16477767870E+03  0.12500000000E+03 0.  0.
         25    1    1    2    0    0 -0.97158922833E+02  0.13611358883E+03 -0.32919095222E+03  0.38981848131E+03  0.12500000000E+03 0.  0.
</event>
<event>
 5    0  0.5735425E-005  0.2936364E+03  0.7546771E-02  0.1088466E+00
         21   -1    0    0  502  501  0.00000000000E+00  0.00000000000E+00  0.60126512379E+02  0.60126512379E+02  0.00000000000E+00 0. -1.
         21   -1    0    0  501  502 -0.00000000000E+00 -0.00000000000E+00 -0.14340154911E+04  0.14340154911E+04  0.00000000000E+00 0. -1.
         25    1    1    2    0    0  0.10948423418E+03 -0.33602197322E+02 -0.20488900618E+03  0.26593309319E+03  0.12500000000E+03 0.  0.
         25    1    1    2    0    0 -0.77139620187E+02  0.13214876721E+03 -0.45641471616E+03  0.49734616798E+03  0.12500000000E+03 0.  0.
         25    1    1    2    0    0 -0.32344613993E+02 -0.98546569884E+02 -0.71258525642E+03  0.73086274235E+03  0.12500000000E+03 0.  0.
</event>
<event>
 5    0  0.5735425E-005  0.4294908E+03  0.7546771E-02  0.1034021E+00
         21   -1    0    0  502  501  0.00000000000E+00  0.00000000000E+00  0.61279452562E+03  0.61279452562E+03  0.00000000000E+00 0.  1.
         21   -1    0    0  501  502 -0.00000000000E+00 -0.00000000000E+00 -0.30101820765E+03  0.30101820765E+03  0.00000000000E+00 0.  1.
         25    1    1    2    0    0  0.27453612665E+03  0.75373220991E+02  0.10010689057E+02  0.31108908880E+03  0.12500000000E+03 0.  0.
         25    1    1    2    0    0 -0.27838816126E+03 -0.17621531656E+03  0.15443170394E+03  0.38474141615E+03  0.12500000000E+03 0.  0.
         25    1    1    2    0    0  0.38520346190E+01  0.10084209557E+03  0.14733392498E+03  0.21798222831E+03  0.12500000000E+03 0.  0.
</event>
<event>
 5    0  0.5735425E-005  0.4506279E+03  0.7546771E-02  0.1027535E+00
         21   -1    0    0  502  501  0.00000000000E+00  0.00000000000E+00  0.96032007668E+02  0.96032007668E+02  0.00000000000E+00 0.  1.
         21   -1    0    0  501  502 -0.00000000000E+00 -0.00000000000E+00 -0.21145609332E+04  0.21145609332E+04  0.00000000000E+00 0.  1.
         25    1    1    2    0    0  0.96489032290E+02  0.30255792211E+03 -0.39770264123E+03  0.52406471015E+03  0.12500000000E+03 0.  0.
         25    1    1    2    0    0  0.22830808888E+02 -0.20602318359E+03 -0.11600426986E+04  0.11850277889E+04  0.12500000000E+03 0.  0.
         25    1    1    2    0    0 -0.11931984118E+03 -0.96534738522E+02 -0.46078358574E+03  0.50150044180E+03  0.12500000000E+03 0.  0.
</event>
<event>
 5    0  0.5735425E-005  0.2891604E+03  0.7546771E-02  0.1090788E+00
         21   -1    0    0  502  501  0.00000000000E+00  0.00000000000E+00  0.78357460850E+03  0.78357460850E+03  0.00000000000E+00 0.  1.
         21   -1    0    0  501  502 -0.00000000000E+00 -0.00000000000E+00 -0.10670808718E+03  0.10670808718E+03  0.00000000000E+00 0.  1.
         25    1    1    2    0    0 -0.49083170041E+02  0.57221819246E+02  0.10259360483E+03  0.17842068807E+03  0.12500000000E+03 0.  0.
         25    1    1    2    0    0  0.15676432224E+03 -0.62215893395E+02  0.47481236626E+03  0.51915089644E+03  0.12500000000E+03 0.  0.
         25    1    1    2    0    0 -0.10768115220E+03  0.49940741489E+01  0.99460550233E+02  0.19271111117E+03  0.12500000000E+03 0.  0.
</event>
<event>
 5    0  0.5735425E-005  0.4169269E+03  0.7546771E-02  0.1038071E+00
         21   -1    0    0  502  501  0.00000000000E+00  0.00000000000E+00  0.34431011986E+03  0.34431011986E+03  0.00000000000E+00 0.  1.
         21   -1    0    0  501  502 -0.00000000000E+00 -0.00000000000E+00 -0.50485882952E+03  0.50485882952E+03  0.00000000000E+00 0.  1.
         25    1    1    2    0    0 -0.88854748032E+02  0.19261203282E+03 -0.24048534966E+03  0.34416967448E+03  0.12500000000E+03 0.  0.
         25    1    1    2    0    0  0.34124098894E+02 -0.29487382322E+03  0.14694480490E+02  0.32242201150E+03  0.12500000000E+03 0.  0.
         25    1    1    2    0    0  0.54730649138E+02  0.10226179040E+03  0.65242159510E+02  0.18257726339E+03  0.12500000000E+03 0.  0.
</event>
<event>
 5    0  0.5735425E-005  0.2851873E+03  0.7546771E-02  0.1092889E+00
         21   -1    0    0  502  501  0.00000000000E+00  0.00000000000E+00  0.28510098224E+04  0.28510098224E+04  0.00000000000E+00 0. -1.
         21   -1    0    0  501  502 -0.00000000000E+00 -0.00000000000E+00 -0.28527365903E+02  0.28527365903E+02  0.00000000000E+00 0. -1.
         25    1    1    2    0    0  0.11065205430E+03 -0.43372659067E+02  0.67513393934E+03  0.69681841302E+03  0.12500000000E+03 0.  0.
         25    1    1    2    0    0  0.69027212567E+01 -0.74651985390E+02  0.13777405875E+04  0.13854294254E+04  0.12500000000E+03 0.  0.
         25    1    1    2    0    0 -0.11755477555E+03  0.11802464446E+03  0.76960792969E+03  0.79728934986E+03  0.12500000000E+03 0.  0.
</event>
<event>
 5    0  0.5735425E-005  0.2394518E+03  0.7546771E-02  0.1120159E+00
         21   -1    0    0  502  501  0.00000000000E+00  0.00000000000E+00  0.29678765330E+02  0.29678765330E+02  0.00000000000E+00 0.  1.
         21   -1    0    0  501  502 -0.00000000000E+00 -0.00000000000E+00 -0.19319258486E+04  0.19319258486E+04  0.00000000000E+00 0.  1.
         25    1    1    2    0    0  0.14314645085E+02  0.17540122880E+02 -0.22898508990E+03  0.26186205600E+03  0.12500000000E+03 0.  0.
         25    1    1    2    0    0 -0.41444433461E+02  0.64155967058E+02 -0.87574930748E+03  0.88791636922E+03  0.12500000000E+03 0.  0.
         25    1    1    2    0    0  0.27129788376E+02 -0.81696089939E+02 -0.79751268593E+03  0.81182618875E+03  0.12500000000E+03 0.  0.
</event>
<event>
 5    0  0.5735425E-005  0.4170297E+03  0.7546771E-02  0.1038037E+00
         21   -1    0    0  502  501  0.00000000000E+00  0.00000000000E+00  0.14777827040E+03  0.14777827040E+03  0.00000000000E+00 0.  1.
         21   -1    0    0  501  502 -0.00000000000E+00 -0.00000000000E+00 -0.11768559784E+04  0.11768559784E+04  0.00000000000E+00 0.  1.
         25    1    1    2    0    0  0.43684604548E+02 -0.22320576791E+03 -0.49810957973E+03  0.56166476917E+03  0.12500000000E+03 0.  0.
         25    1    1    2    0    0  0.73161695998E+02  0.11415908720E+03 -0.52882218064E+03  0.56005609513E+03  0.12500000000E+03 0.  0.
         25    1    1    2    0    0 -0.11684630055E+03  0.10904668071E+03 -0.21459476341E+01  0.20291338452E+03  0.12500000000E+03 0.  0.
</event>
<event>
 5    0  0.5735425E-005  0.4464327E+03  0.7546771E-02  0.1028791E+00
         21   -1    0    0  502  501  0.00000000000E+00  0.00000000000E+00  0.29829395774E+03  0.29829395774E+03  0.00000000000E+00 0.  1.
         21   -1    0    0  501  502 -0.00000000000E+00 -0.00000000000E+00 -0.66814000574E+03  0.66814000574E+03  0.00000000000E+00 0.  1.
         25    1    1    2    0    0  0.31242134001E+03 -0.12858298625E+03 -0.36951090272E+03  0.51604649526E+03  0.12500000000E+03 0.  0.
         25    1    1    2    0    0 -0.22381108337E+03  0.14785952979E+03 -0.22830743321E+01  0.29594603227E+03  0.12500000000E+03 0.  0.
         25    1    1    2    0    0 -0.88610256637E+02 -0.19276543540E+02  0.19479290499E+01  0.15444143595E+03  0.12500000000E+03 0.  0.
</event>
<event>
 5    0  0.5735425E-005  0.3619901E+03  0.7546771E-02  0.1057799E+00
         21   -1    0    0  502  501  0.00000000000E+00  0.00000000000E+00  0.10374555333E+03  0.10374555333E+03  0.00000000000E+00 0.  1.
         21   -1    0    0  501  502 -0.00000000000E+00 -0.00000000000E+00 -0.12630600624E+04  0.12630600624E+04  0.00000000000E+00 0.  1.
         25    1    1    2    0    0 -0.54329271914E+02 -0.12238513340E+03 -0.20192716147E+03  0.27263413067E+03  0.12500000000E+03 0.  0.
         25    1    1    2    0    0  0.17292057254E+03 -0.10886622687E+03 -0.38966923090E+03  0.45740626282E+03  0.12500000000E+03 0.  0.
         25    1    1    2    0    0 -0.11859130063E+03  0.23125136027E+03 -0.56771811669E+03  0.63676522222E+03  0.12500000000E+03 0.  0.
</event>
<event>
 5    0  0.6748015E-005  0.2914006E+03  0.7546771E-02  0.1089620E+00
         21   -1    0    0  502  501  0.00000000000E+00  0.00000000000E+00  0.35350972088E+03  0.35350972088E+03  0.00000000000E+00 0.  1.
         21   -1    0    0  501  502 -0.00000000000E+00 -0.00000000000E+00 -0.24020363937E+03  0.24020363937E+03  0.00000000000E+00 0.  1.
         25    1    1    2    0    0  0.81941239918E+02  0.94309374056E+02  0.16184627987E+02  0.17746990454E+03  0.12500000000E+03 0.  0.
         25    1    1    2    0    0 -0.43403487877E+01 -0.48893048430E+02 -0.99042485033E+02  0.16686456381E+03  0.12500000000E+03 0.  0.
         25    1    1    2    0    0 -0.77600891131E+02 -0.45416325626E+02  0.19616393855E+03  0.24937889190E+03  0.12500000000E+03 0.  0.
</event>
<event>
 5    0  0.5735425E-005  0.2655319E+03  0.7546771E-02  0.1103864E+00
         21   -1    0    0  502  501  0.00000000000E+00  0.00000000000E+00  0.12261710932E+03  0.12261710932E+03  0.00000000000E+00 0. -1.
         21   -1    0    0  501  502 -0.00000000000E+00 -0.00000000000E+00 -0.57501935856E+03  0.57501935856E+03  0.00000000000E+00 0. -1.
         25    1    1    2    0    0  0.21743022369E+02  0.53540928459E+02 -0.54267292159E+00  0.13771232529E+03  0.12500000000E+03 0.  0.
         25    1    1    2    0    0  0.51319446272E+01 -0.33091102800E+02 -0.51726686929E+02  0.13936286478E+03  0.12500000000E+03 0.  0.
         25    1    1    2    0    0 -0.26874966997E+02 -0.20449825659E+02 -0.40013288939E+03  0.42056127781E+03  0.12500000000E+03 0.  0.
</event>
<event>
 5    0  0.5735425E-005  0.2113690E+03  0.7546771E-02  0.1140486E+00
         21   -1    0    0  502  501  0.00000000000E+00  0.00000000000E+00  0.97254840487E+02  0.97254840487E+02  0.00000000000E+00 0. -1.
         21   -1    0    0  501  502 -0.00000000000E+00 -0.00000000000E+00 -0.45937926691E+03  0.45937926691E+03  0.00000000000E+00 0. -1.
         25    1    1    2    0    0  0.34798051455E+01 -0.34090033205E+02 -0.11820668728E+03  0.17541966915E+03  0.12500000000E+03 0.  0.
         25    1    1    2    0    0  0.40506630290E+02  0.73780820956E+02 -0.15816062816E+03  0.21845864812E+03  0.12500000000E+03 0.  0.
         25    1    1    2    0    0 -0.43986435435E+02 -0.39690787751E+02 -0.85757110985E+02  0.16275579012E+03  0.12500000000E+03 0.  0.
</event>
<event>
 5    0  0.5735425E-005  0.5297119E+03  0.7546771E-02  0.1006302E+00
         21   -1    0    0  502  501  0.00000000000E+00  0.00000000000E+00  0.50533849911E+03  0.50533849911E+03  0.00000000000E+00 0.  1.
         21   -1    0    0  501  502 -0.00000000000E+00 -0.00000000000E+00 -0.55526096512E+03  0.55526096512E+03  0.00000000000E+00 0.  1.
         25    1    1    2    0    0  0.37477045441E+03 -0.12377019642E+02 -0.29850594984E+03  0.49531493638E+03  0.12500000000E+03 0.  0.
         25    1    1    2    0    0 -0.18902988632E+03  0.90027981553E+02  0.21662035171E+03  0.32616975973E+03  0.12500000000E+03 0.  0.
         25    1    1    2    0    0 -0.18574056809E+03 -0.77650961911E+02  0.31963132124E+02  0.23911476813E+03  0.12500000000E+03 0.  0.
</event>
<event>
 5    0  0.5735425E-005  0.2796286E+03  0.7546771E-02  0.1095892E+00
         21   -1    0    0  502  501  0.00000000000E+00  0.00000000000E+00  0.13051404412E+04  0.13051404412E+04  0.00000000000E+00 0. -1.
         21   -1    0    0  501  502 -0.00000000000E+00 -0.00000000000E+00 -0.59910912793E+02  0.59910912793E+02  0.00000000000E+00 0. -1.
         25    1    1    2    0    0 -0.29195056846E+02  0.17168868588E+02  0.35258533478E+03  0.37561754445E+03  0.12500000000E+03 0.  0.
         25    1    1    2    0    0  0.10187270930E+03 -0.49703681308E+02  0.13132232292E+03  0.21382015184E+03  0.12500000000E+03 0.  0.
         25    1    1    2    0    0 -0.72677652454E+02  0.32534812719E+02  0.76132187066E+03  0.77561365766E+03  0.12500000000E+03 0.  0.
</event>
<event>
 5    0  0.5735425E-005  0.4392219E+03  0.7546771E-02  0.1030986E+00
         21   -1    0    0  502  501  0.00000000000E+00  0.00000000000E+00  0.97299458665E+03  0.97299458665E+03  0.00000000000E+00 0.  1.
         21   -1    0    0  501  502 -0.00000000000E+00 -0.00000000000E+00 -0.19827026682E+03  0.19827026682E+03  0.00000000000E+00 0.  1.
         25    1    1    2    0    0 -0.21185315327E+03 -0.91405937173E+02  0.23959318244E+03  0.35534025521E+03  0.12500000000E+03 0.  0.
         25    1    1    2    0    0  0.11430175932E+03 -0.14756703894E+03  0.47132096650E+03  0.52212007875E+03  0.12500000000E+03 0.  0.
         25    1    1    2    0    0  0.97551393954E+02  0.23897297611E+03  0.63810170885E+02  0.29380451951E+03  0.12500000000E+03 0.  0.
</event>
<event>
 5    0  0.5735425E-005  0.2560035E+03  0.7546771E-02  0.1109568E+00
         21   -1    0    0  502  501  0.00000000000E+00  0.00000000000E+00  0.74382924592E+02  0.74382924592E+02  0.00000000000E+00 0. -1.
         21   -1    0    0  501  502 -0.00000000000E+00 -0.00000000000E+00 -0.88108624710E+03  0.88108624710E+03  0.00000000000E+00 0. -1.
         25    1    1    2    0    0 -0.12699737896E+03  0.52047770262E+02 -0.29400741083E+03  0.34771060133E+03  0.12500000000E+03 0.  0.
         25    1    1    2    0    0  0.99141197354E+02  0.32493456210E+02 -0.18852458794E+03  0.24910102763E+03  0.12500000000E+03 0.  0.
         25    1    1    2    0    0  0.27856181603E+02 -0.84541226473E+02 -0.32417132374E+03  0.35865754273E+03  0.12500000000E+03 0.  0.
</event>
<event>
 5    0  0.5735425E-005  0.2836741E+03  0.7546771E-02  0.1093699E+00
         21   -1    0    0  502  501  0.00000000000E+00  0.00000000000E+00  0.22301264089E+04  0.22301264089E+04  0.00000000000E+00 0. -1.
         21   -1    0    0  501  502 -0.00000000000E+00 -0.00000000000E+00 -0.36083602456E+02  0.36083602456E+02  0.00000000000E+00 0. -1.
         25    1    1    2    0    0  0.64790586525E+02  0.22305235551E+02  0.25546785645E+03  0.29254772143E+03  0.12500000000E+03 0.  0.
         25    1    1    2    0    0  0.74948545043E+02  0.18525577152E+02  0.12581384021E+04  0.12666876964E+04  0.12500000000E+03 0.  0.
         25    1    1    2    0    0 -0.13973913157E+03 -0.40830812704E+02  0.68043654791E+03  0.70697459353E+03  0.12500000000E+03 0.  0.
</event>
<event>
 5    0  0.5735425E-005  0.2809502E+03  0.7546771E-02  0.1095171E+00
         21   -1    0    0  502  501  0.00000000000E+00  0.00000000000E+00  0.17329685673E+04  0.17329685673E+04  0.00000000000E+00 0.  1.
         21   -1    0    0  501  502 -0.00000000000E+00 -0.00000000000E+00 -0.45547861937E+02  0.45547861937E+02  0.00000000000E+00 0.  1.
         25    1    1    2    0    0  0.26996153595E+02  0.33527262543E+01  0.89911310455E+03  0.90816816056E+03  0.12500000000E+03 0.  0.
         25    1    1    2    0    0 -0.53110890153E+02  0.10347140443E+03  0.22193747907E+03  0.28001489746E+03  0.12500000000E+03 0.  0.
         25    1    1    2    0    0  0.26114736558E+02 -0.10682413068E+03  0.56637012173E+03  0.59033337120E+03  0.12500000000E+03 0.  0.
</event>
<event>
 5    0  0.5735425E-005  0.2648966E+03  0.7546771E-02  0.1104236E+00
         21   -1    0    0  502  501  0.00000000000E+00  0.00000000000E+00  0.81654483686E+02  0.81654483686E+02  0.00000000000E+00 0.  1.
         21   -1    0    0  501  502 -0.00000000000E+00 -0.00000000000E+00 -0.85935518720E+03  0.85935518720E+03  0.00000000000E+00 0.  1.
         25    1    1    2    0    0 -0.34873132076E+02 -0.58342360367E+02 -0.23531100880E+03  0.27498406720E+03  0.12500000000E+03 0.  0.
         25    1    1    2    0    0  0.91975130148E+02  0.82185028613E+01 -0.68072289106E+02  0.16966379961E+03  0.12500000000E+03 0.  0.
         25    1    1    2    0    0 -0.57101998072E+02  0.50123857505E+02 -0.47431740562E+03  0.49636180408E+03  0.12500000000E+03 0.  0.
</event>
<event>
 5    0  0.5735425E-005  0.3144006E+03  0.7546771E-02  0.1078256E+00
         21   -1    0    0  502  501  0.00000000000E+00  0.00000000000E+00  0.39931774895E+03  0.39931774895E+03  0.00000000000E+00 0. -1.
         21   -1    0    0  501  502 -0.00000000000E+00 -0.00000000000E+00 -0.24754158316E+03  0.24754158316E+03  0.00000000000E+00 0. -1.
         25    1    1    2    0    0  0.11889102643E+03 -0.39684423998E+01  0.32219430673E+02  0.17553893133E+03  0.12500000000E+03 0.  0.
         25    1    1    2    0    0  0.10941497240E+03 -0.48901848723E+02  0.11078291151E+03  0.20557451320E+03  0.12500000000E+03 0.  0.
         25    1    1    2    0    0 -0.22830599883E+03  0.52870291122E+02  0.87738236034E+01  0.26574588758E+03  0.12500000000E+03 0.  0.
</event>
<event>
 5    0  0.5735425E-005  0.3013206E+03  0.7546771E-02  0.1084582E+00
         21   -1    0    0  502  501  0.00000000000E+00  0.00000000000E+00  0.47986250130E+03  0.47986250130E+03  0.00000000000E+00 0.  1.
         21   -1    0    0  501  502 -0.00000000000E+00 -0.00000000000E+00 -0.18920855780E+03  0.18920855780E+03  0.00000000000E+00 0.  1.
         25    1    1    2    0    0 -0.77980058011E+02  0.55464329733E+02  0.76293372239E+02  0.17493673133E+03  0.12500000000E+03 0.  0.
         25    1    1    2    0    0 -0.11070666311E+03  0.38025659247E+02  0.39905461475E+01  0.17129752035E+03  0.12500000000E+03 0.  0.
         25    1    1    2    0    0  0.18868672112E+03 -0.93489988979E+02  0.21037002511E+03  0.32283680743E+03  0.12500000000E+03 0.  0.
</event>
<event>
 5    0  0.5735425E-005  0.4068642E+03  0.7546771E-02  0.1041428E+00
         21   -1    0    0  502  501  0.00000000000E+00  0.00000000000E+00  0.94653132377E+03  0.94653132377E+03  0.00000000000E+00 0. -1.
         21   -1    0    0  501  502 -0.00000000000E+00 -0.00000000000E+00 -0.17488962588E+03  0.17488962588E+03  0.00000000000E+00 0. -1.
         25    1    1    2    0    0 -0.15811282260E+03  0.10696292431E+03  0.36828289099E+03  0.43324129494E+03  0.12500000000E+03 0.  0.
         25    1    1    2    0    0  0.18321510234E+03 -0.15851010237E+03  0.11462531487E+02  0.27285456915E+03  0.12500000000E+03 0.  0.
         25    1    1    2    0    0 -0.25102279740E+02  0.51547178055E+02  0.39189627541E+03  0.41532508555E+03  0.12500000000E+03 0.  0.
</event>
<event>
 5    0  0.5736337E-005  0.3893655E+03  0.7546771E-02  0.1047526E+00
         21   -1    0    0  502  501  0.00000000000E+00  0.00000000000E+00  0.31748370131E+03  0.31748370131E+03  0.00000000000E+00 0. -1.
         21   -1    0    0  501  502 -0.00000000000E+00 -0.00000000000E+00 -0.47752220544E+03  0.47752220544E+03  0.00000000000E+00 0. -1.
         25    1    1    2    0    0 -0.30616412676E+02  0.42801254497E+02 -0.28946883019E+03  0.31966625684E+03  0.12500000000E+03 0.  0.
         25    1    1    2    0    0 -0.12933668407E+03 -0.14991246146E+02  0.18961467226E+03  0.26178510126E+03  0.12500000000E+03 0.  0.
         25    1    1    2    0    0  0.15995309675E+03 -0.27810008351E+02 -0.60184346205E+02  0.21355454865E+03  0.12500000000E+03 0.  0.
</event>
<event>
 5    0  0.5735425E-005  0.3762080E+03  0.7546771E-02  0.1052344E+00
         21   -1    0    0  502  501  0.00000000000E+00  0.00000000000E+00  0.53634516951E+03  0.53634516951E+03  0.00000000000E+00 0. -1.
         21   -1    0    0  501  502 -0.00000000000E+00 -0.00000000000E+00 -0.26388320648E+03  0.26388320648E+03  0.00000000000E+00 0.  1.
         25    1    1    2    0    0 -0.27710565171E+03  0.34860889795E+02  0.14414987072E+03  0.33824105173E+03  0.12500000000E+03 0.  0.
         25    1    1    2    0    0  0.22218456065E+03  0.37817262766E+02 -0.50311946826E+01  0.25777206457E+03  0.12500000000E+03 0.  0.
         25    1    1    2    0    0  0.54921091059E+02 -0.72678152561E+02  0.13334328699E+03  0.20421525969E+03  0.12500000000E+03 0.  0.
</event>
<event>
 5    0  0.5735425E-005  0.3596185E+03  0.7546771E-02  0.1058735E+00
         21   -1    0    0  502  501  0.00000000000E+00  0.00000000000E+00  0.14972460251E+03  0.14972460251E+03  0.00000000000E+00 0. -1.
         21   -1    0    0  501  502 -0.00000000000E+00 -0.00000000000E+00 -0.86375558611E+03  0.86375558611E+03  0.00000000000E+00 0.  1.
         25    1    1    2    0    0  0.12983945653E+03 -0.23476586080E+03 -0.34337203170E+03  0.45332399675E+03  0.12500000000E+03 0.  0.
         25    1    1    2    0    0 -0.19854716041E+02  0.21782339561E+03 -0.20673646861E+03  0.32589294082E+03  0.12500000000E+03 0.  0.
         25    1    1    2    0    0 -0.10998474049E+03  0.16942465188E+02 -0.16392248328E+03  0.23426325105E+03  0.12500000000E+03 0.  0.
</event>
<event>
 5    0  0.5735425E-005  0.2213803E+03  0.7546771E-02  0.1132858E+00
         21   -1    0    0  502  501  0.00000000000E+00  0.00000000000E+00  0.27775006943E+03  0.27775006943E+03  0.00000000000E+00 0.  1.
         21   -1    0    0  501  502 -0.00000000000E+00 -0.00000000000E+00 -0.17645090743E+03  0.17645090743E+03  0.00000000000E+00 0.  1.
         25    1    1    2    0    0 -0.16669961779E+02 -0.59153274315E+02  0.18409584275E+02  0.14050234973E+03  0.12500000000E+03 0.  0.
         25    1    1    2    0    0 -0.40365110976E+02  0.91488837402E+02  0.58642783051E+02  0.17048027909E+03  0.12500000000E+03 0.  0.
         25    1    1    2    0    0  0.57035072755E+02 -0.32335563087E+02  0.24246794677E+02  0.14321834804E+03  0.12500000000E+03 0.  0.
</event>
<event>
 5    0  0.5735425E-005  0.2703570E+03  0.7546771E-02  0.1101075E+00
         21   -1    0    0  502  501  0.00000000000E+00  0.00000000000E+00  0.25922430807E+03  0.25922430807E+03  0.00000000000E+00 0.  1.
         21   -1    0    0  501  502 -0.00000000000E+00 -0.00000000000E+00 -0.28196775720E+03  0.28196775720E+03  0.00000000000E+00 0.  1.
         25    1    1    2    0    0 -0.17445630237E+02  0.10963699995E+03  0.37351181159E+02  0.17130304290E+03  0.12500000000E+03 0.  0.
         25    1    1    2    0    0 -0.78549808232E+02 -0.79782169364E+01 -0.99545231621E+02  0.17823573563E+03  0.12500000000E+03 0.  0.
         25    1    1    2    0    0  0.95995438469E+02 -0.10165878302E+03  0.39450601333E+02  0.19165328674E+03  0.12500000000E+03 0.  0.
</event>
<event>
 5    0  0.5735425E-005  0.2256490E+03  0.7546771E-02  0.1129740E+00
         21   -1    0    0  502  501  0.00000000000E+00  0.00000000000E+00  0.11493906839E+03  0.11493906839E+03  0.00000000000E+00 0.  1.
         21   -1    0    0  501  502 -0.00000000000E+00 -0.00000000000E+00 -0.44299537155E+03  0.44299537155E+03  0.00000000000E+00 0.  1.
         25    1    1    2    0    0 -0.65245171304E+02 -0.13266391103E+02 -0.36225121811E+02  0.14618546084E+03  0.12500000000E+03 0.  0.
         25    1    1    2    0    0  0.48261573518E+02 -0.47439213054E+02 -0.98014617588E+02  0.17266013922E+03  0.12500000000E+03 0.  0.
         25    1    1    2    0    0  0.16983597787E+02  0.60705604156E+02 -0.19381656376E+03  0.23908883988E+03  0.12500000000E+03 0.  0.
</event>
<event>
 5    0  0.5735425E-005  0.4159501E+03  0.7546771E-02  0.1038393E+00
         21   -1    0    0  502  501  0.00000000000E+00  0.00000000000E+00  0.30039811032E+04  0.30039811032E+04  0.00000000000E+00 0. -1.
         21   -1    0    0  501  502 -0.00000000000E+00 -0.00000000000E+00 -0.57595058644E+02  0.57595058644E+02  0.00000000000E+00 0. -1.
         25    1    1    2    0    0  0.21838694353E+03 -0.36859670835E+02  0.88702645359E+03  0.92276347014E+03  0.12500000000E+03 0.  0.
         25    1    1    2    0    0 -0.31724079753E+03 -0.10602738068E+03  0.14359197196E+04  0.14796533277E+04  0.12500000000E+03 0.  0.
         25    1    1    2    0    0  0.98853853998E+02  0.14288705152E+03  0.62343987135E+03  0.65915936398E+03  0.12500000000E+03 0.  0.
</event>
<event>
 5    0  0.5735425E-005  0.3618431E+03  0.7546771E-02  0.1057856E+00
         21   -1    0    0  502  501  0.00000000000E+00  0.00000000000E+00  0.27833324553E+04  0.27833324553E+04  0.00000000000E+00 0. -1.
         21   -1    0    0  501  502 -0.00000000000E+00 -0.00000000000E+00 -0.47040885534E+02  0.47040885534E+02  0.00000000000E+00 0. -1.
         25    1    1    2    0    0 -0.26835609248E+02 -0.59277691573E+02  0.93929892097E+03  0.94981127471E+03  0.12500000000E+03 0.  0.
         25    1    1    2    0    0 -0.82021387708E+02  0.16036036908E+03  0.15546929712E+04  0.15700758551E+04  0.12500000000E+03 0.  0.
         25    1    1    2    0    0  0.10885699696E+03 -0.10108267750E+03  0.24229967757E+03  0.31048621101E+03  0.12500000000E+03 0.  0.
</event>
<event>
 5    0  0.5735425E-005  0.2822912E+03  0.7546771E-02  0.1094444E+00
         21   -1    0    0  502  501  0.00000000000E+00  0.00000000000E+00  0.38206448557E+03  0.38206448557E+03  0.00000000000E+00 0.  1.
         21   -1    0    0  501  502 -0.00000000000E+00 -0.00000000000E+00 -0.20857294392E+03  0.20857294392E+03  0.00000000000E+00 0.  1.
         25    1    1    2    0    0 -0.72639228891E+02  0.80355023478E+02  0.18222107174E+03  0.24609531966E+03  0.12500000000E+03 0.  0.
         25    1    1    2    0    0  0.38303360120E+02 -0.99869525717E+02  0.83269284552E+02  0.18439046427E+03  0.12500000000E+03 0.  0.
         25    1    1    2    0    0  0.34335868771E+02  0.19514502239E+02 -0.91998814635E+02  0.16015164556E+03  0.12500000000E+03 0.  0.
</event>
<event>
 5    0  0.5735425E-005  0.2280656E+03  0.7546771E-02  0.1128009E+00
         21   -1    0    0  502  501  0.00000000000E+00  0.00000000000E+00  0.38452773896E+03  0.38452773896E+03  0.00000000000E+00 0.  1.
         21   -1    0    0  501  502 -0.00000000000E+00 -0.00000000000E+00 -0.13526696499E+03  0.13526696499E+03  0.00000000000E+00 0.  1.
         25    1    1    2    0    0  0.22892168997E+02  0.69014406743E+02  0.18191676665E+03  0.23239137189E+03  0.12500000000E+03 0.  0.
         25    1    1    2    0    0 -0.58003899080E+02 -0.19059399988E+02  0.46818201622E+02  0.14678098324E+03  0.12500000000E+03 0.  0.
         25    1    1    2    0    0  0.35111730083E+02 -0.49955006756E+02  0.20525805691E+02  0.14062234882E+03  0.12500000000E+03 0.  0.
</event>
<event>
 5    0  0.5735425E-005  0.2258430E+03  0.7546771E-02  0.1129600E+00
         21   -1    0    0  502  501  0.00000000000E+00  0.00000000000E+00  0.73970396826E+03  0.73970396826E+03  0.00000000000E+00 0. -1.
         21   -1    0    0  501  502 -0.00000000000E+00 -0.00000000000E+00 -0.68953346994E+02  0.68953346994E+02  0.00000000000E+00 0. -1.
         25    1    1    2    0    0  0.26045210978E+00  0.35788101116E+02  0.13177811885E+03  0.18512517015E+03  0.12500000000E+03 0.  0.
         25    1    1    2    0    0 -0.24151251032E+02 -0.16381723910E+02  0.90781307475E+02  0.15721924053E+03  0.12500000000E+03 0.  0.
         25    1    1    2    0    0  0.23890798922E+02 -0.19406377206E+02  0.44819119495E+03  0.46631290458E+03  0.12500000000E+03 0.  0.
</event>
<event>
 5    0  0.5735425E-005  0.4222147E+03  0.7546771E-02  0.1036348E+00
         21   -1    0    0  502  501  0.00000000000E+00  0.00000000000E+00  0.26274166256E+03  0.26274166256E+03  0.00000000000E+00 0. -1.
         21   -1    0    0  501  502 -0.00000000000E+00 -0.00000000000E+00 -0.67848112807E+03  0.67848112807E+03  0.00000000000E+00 0. -1.
         25    1    1    2    0    0 -0.22547949982E+03  0.12576041167E+03 -0.47477250629E+03  0.55469867379E+03  0.12500000000E+03 0.  0.
         25    1    1    2    0    0  0.33965445538E+02 -0.60648032609E+02  0.75375996376E+01  0.14322587322E+03  0.12500000000E+03 0.  0.
         25    1    1    2    0    0  0.19151405428E+03 -0.65112379059E+02  0.51495441134E+02  0.24329824362E+03  0.12500000000E+03 0.  0.
</event>
<event>
 5    0  0.5735425E-005  0.2274354E+03  0.7546771E-02  0.1128458E+00
         21   -1    0    0  502  501  0.00000000000E+00  0.00000000000E+00  0.14441798726E+04  0.14441798726E+04  0.00000000000E+00 0. -1.
         21   -1    0    0  501  502 -0.00000000000E+00 -0.00000000000E+00 -0.35817458678E+02  0.35817458678E+02  0.00000000000E+00 0. -1.
         25    1    1    2    0    0 -0.20247817442E+02  0.73303852297E+02  0.38274521412E+03  0.40975886543E+03  0.12500000000E+03 0.  0.
         25    1    1    2    0    0 -0.54348704489E+02 -0.14865854772E+02  0.33383289417E+03  0.36089358064E+03  0.12500000000E+03 0.  0.
         25    1    1    2    0    0  0.74596521931E+02 -0.58437997525E+02  0.69178430561E+03  0.70934488517E+03  0.12500000000E+03 0.  0.
</event>
<event>
 5    0  0.5735425E-005  0.3602557E+03  0.7546771E-02  0.1058483E+00
         21   -1    0    0  502  501  0.00000000000E+00  0.00000000000E+00  0.12079732957E+03  0.12079732957E+03  0.00000000000E+00 0.  1.
         21   -1    0    0  501  502 -0.00000000000E+00 -0.00000000000E+00 -0.10743960250E+04  0.10743960250E+04  0.00000000000E+00 0.  1.
         25    1    1    2    0    0  0.49502294121E+02 -0.10280195483E+03 -0.17069888242E+03  0.24037850881E+03  0.12500000000E+03 0.  0.
         25    1    1    2    0    0  0.19042037568E+03  0.16385776170E+02 -0.18874244151E+03  0.29627204114E+03  0.12500000000E+03 0.  0.
         25    1    1    2    0    0 -0.23992266980E+03  0.86416178659E+02 -0.59415737155E+03  0.65854280467E+03  0.12500000000E+03 0.  0.
</event>
<event>
 5    0  0.5735425E-005  0.2544563E+03  0.7546771E-02  0.1110520E+00
         21   -1    0    0  502  501  0.00000000000E+00  0.00000000000E+00  0.88640962555E+02  0.88640962555E+02  0.00000000000E+00 0.  1.
         21   -1    0    0  501  502 -0.00000000000E+00 -0.00000000000E+00 -0.73045240088E+03  0.73045240088E+03  0.00000000000E+00 0.  1.
         25    1    1    2    0    0 -0.60420116148E+02  0.55357389062E+02 -0.24490732726E+03  0.28691397649E+03  0.12500000000E+03 0.  0.
         25    1    1    2    0    0  0.52599754790E+02 -0.14554037472E+03 -0.20117488412E+03  0.28292237253E+03  0.12500000000E+03 0.  0.
         25    1    1    2    0    0  0.78203613574E+01  0.90182985661E+02 -0.19572922695E+03  0.24925701442E+03  0.12500000000E+03 0.  0.
</event>
<event>
 5    0  0.8168720E-005  0.3007277E+03  0.7546771E-02  0.1084877E+00
         21   -1    0    0  502  501  0.00000000000E+00  0.00000000000E+00  0.48775203896E+03  0.48775203896E+03  0.00000000000E+00 0.  1.
         21   -1    0    0  501  502 -0.00000000000E+00 -0.00000000000E+00 -0.18541623833E+03  0.18541623833E+03  0.00000000000E+00 0.  1.
         25    1    1    2    0    0 -0.38309156201E+02 -0.96234388008E+02  0.21296083035E+03  0.26777969331E+03  0.12500000000E+03 0.  0.
         25    1    1    2    0    0 -0.48768922700E+02 -0.68617316943E+02 -0.26126259568E+02  0.15295203642E+03  0.12500000000E+03 0.  0.
         25    1    1    2    0    0  0.87078078901E+02  0.16485170495E+03  0.11550122985E+03  0.25243654757E+03  0.12500000000E+03 0.  0.
</event>
<event>
 5    0  0.5735425E-005  0.2518737E+03  0.7546771E-02  0.1112126E+00
         21   -1    0    0  502  501  0.00000000000E+00  0.00000000000E+00  0.19303464915E+03  0.19303464915E+03  0.00000000000E+00 0.  1.
         21   -1    0    0  501  502 -0.00000000000E+00 -0.00000000000E+00 -0.32864750228E+03  0.32864750228E+03  0.00000000000E+00 0.  1.
         25    1    1    2    0    0  0.13827551818E+03 -0.62974116120E+02 -0.30089681045E+02  0.19903830570E+03  0.12500000000E+03 0.  0.
         25    1    1    2    0    0 -0.11737413772E+03  0.31922006242E+02 -0.60628075009E+02  0.18465228449E+03  0.12500000000E+03 0.  0.
         25    1    1    2    0    0 -0.20901380454E+02  0.31052109878E+02 -0.44895097078E+02  0.13799156124E+03  0.12500000000E+03 0.  0.
</event>
<event>
 5    0  0.5735425E-005  0.2301814E+03  0.7546771E-02  0.1126512E+00
         21   -1    0    0  502  501  0.00000000000E+00  0.00000000000E+00  0.16090441504E+03  0.16090441504E+03  0.00000000000E+00 0.  1.
         21   -1    0    0  501  502 -0.00000000000E+00 -0.00000000000E+00 -0.32928546810E+03  0.32928546810E+03  0.00000000000E+00 0.  1.
         25    1    1    2    0    0 -0.18434285559E+02  0.68048846522E+02 -0.52057769986E+00  0.14351215767E+03  0.12500000000E+03 0.  0.
         25    1    1    2    0    0 -0.47419144041E+02 -0.52160519181E+02 -0.14253485132E+03  0.20226338972E+03  0.12500000000E+03 0.  0.
         25    1    1    2    0    0  0.65853429600E+02 -0.15888327341E+02 -0.25325624044E+02  0.14441433575E+03  0.12500000000E+03 0.  0.
</event>
<event>
 5    0  0.5735425E-005  0.2608966E+03  0.7546771E-02  0.1106606E+00
         21   -1    0    0  502  501  0.00000000000E+00  0.00000000000E+00  0.11650915291E+03  0.11650915291E+03  0.00000000000E+00 0. -1.
         21   -1    0    0  501  502 -0.00000000000E+00 -0.00000000000E+00 -0.58422052174E+03  0.58422052174E+03  0.00000000000E+00 0. -1.
         25    1    1    2    0    0  0.60919954166E+02 -0.62445889685E+02 -0.27942378253E+03  0.31829762832E+03  0.12500000000E+03 0.  0.
         25    1    1    2    0    0  0.39484403276E+02 -0.35296752038E+02 -0.35424689451E+02  0.14030248547E+03  0.12500000000E+03 0.  0.
         25    1    1    2    0    0 -0.10040435744E+03  0.97742641722E+02 -0.15286289686E+03  0.24212956086E+03  0.12500000000E+03 0.  0.
</event>
<event>
 5    0  0.5735425E-005  0.4361959E+03  0.7546771E-02  0.1031920E+00
         21   -1    0    0  502  501  0.00000000000E+00  0.00000000000E+00  0.24872372680E+03  0.24872372680E+03  0.00000000000E+00 0. -1.
         21   -1    0    0  501  502 -0.00000000000E+00 -0.00000000000E+00 -0.76497253804E+03  0.76497253804E+03  0.00000000000E+00 0. -1.
         25    1    1    2    0    0  0.32398896595E+03  0.12961787060E-01 -0.64911036888E+02  0.35328075653E+03  0.12500000000E+03 0.  0.
         25    1    1    2    0    0 -0.32158229366E+03 -0.38916288884E+02 -0.28823573312E+03  0.45125878050E+03  0.12500000000E+03 0.  0.
         25    1    1    2    0    0 -0.24066722912E+01  0.38903327097E+02 -0.16310204124E+03  0.20915672781E+03  0.12500000000E+03 0.  0.
</event>
<event>
 5    0  0.5743122E-005  0.2609502E+03  0.7546771E-02  0.1106574E+00
         21   -1    0    0  502  501  0.00000000000E+00  0.00000000000E+00  0.38802363666E+03  0.38802363666E+03  0.00000000000E+00 0. -1.
         21   -1    0    0  501  502 -0.00000000000E+00 -0.00000000000E+00 -0.17549192638E+03  0.17549192638E+03  0.00000000000E+00 0. -1.
         25    1    1    2    0    0 -0.81703794661E+02 -0.76687351696E+02  0.13504862990E+03  0.21545206523E+03  0.12500000000E+03 0.  0.
         25    1    1    2    0    0  0.14253411548E+03  0.49011329982E+02  0.27347583829E+02  0.19771437703E+03  0.12500000000E+03 0.  0.
         25    1    1    2    0    0 -0.60830320817E+02  0.27676021714E+02  0.50135496547E+02  0.15034912079E+03  0.12500000000E+03 0.  0.
</event>
<event>
 5    0  0.5735425E-005  0.2891080E+03  0.7546771E-02  0.1090816E+00
         21   -1    0    0  502  501  0.00000000000E+00  0.00000000000E+00  0.36366040049E+03  0.36366040049E+03  0.00000000000E+00 0. -1.
         21   -1    0    0  501  502 -0.00000000000E+00 -0.00000000000E+00 -0.22983928072E+03  0.22983928072E+03  0.00000000000E+00 0. -1.
         25    1    1    2    0    0 -0.10057551181E+02 -0.98330308042E+02 -0.10634634173E+03  0.19158431098E+03  0.12500000000E+03 0.  0.
         25    1    1    2    0    0  0.78452326264E+02  0.62631486274E+02  0.64203015186E+02  0.17269770620E+03  0.12500000000E+03 0.  0.
         25    1    1    2    0    0 -0.68394775083E+02  0.35698821769E+02  0.17596444631E+03  0.22921766403E+03  0.12500000000E+03 0.  0.
</event>
<event>
 5    0  0.5735425E-005  0.2836779E+03  0.7546771E-02  0.1093697E+00
         21   -1    0    0  502  501  0.00000000000E+00  0.00000000000E+00  0.15207440300E+04  0.15207440300E+04  0.00000000000E+00 0. -1.
         21   -1    0    0  501  502 -0.00000000000E+00 -0.00000000000E+00 -0.52916955656E+02  0.52916955656E+02  0.00000000000E+00 0. -1.
         25    1    1    2    0    0 -0.98276390662E+02  0.12769438473E+03  0.68474630197E+03  0.71446945555E+03  0.12500000000E+03 0.  0.
         25    1    1    2    0    0 -0.40049729382E+02 -0.48274407358E+02  0.21933809301E+03  0.26013188631E+03  0.12500000000E+03 0.  0.
         25    1    1    2    0    0  0.13832612004E+03 -0.79419977372E+02  0.56374267940E+03  0.59905964383E+03  0.12500000000E+03 0.  0.
</event>
<event>
 5    0  0.5735425E-005  0.2480216E+03  0.7546771E-02  0.1114562E+00
         21   -1    0    0  502  501  0.00000000000E+00  0.00000000000E+00  0.48646233132E+03  0.48646233132E+03  0.00000000000E+00 0.  1.
         21   -1    0    0  501  502 -0.00000000000E+00 -0.00000000000E+00 -0.12645317450E+03  0.12645317450E+03  0.00000000000E+00 0.  1.
         25    1    1    2    0    0 -0.89424066878E+02 -0.14192471327E+02  0.13992497661E+03  0.20833168040E+03  0.12500000000E+03 0.  0.
         25    1    1    2    0    0  0.57621511129E+02  0.45671732248E+02  0.22950254914E+03  0.27148216467E+03  0.12500000000E+03 0.  0.
         25    1    1    2    0    0  0.31802555750E+02 -0.31479260921E+02 -0.94183689402E+01  0.13310166075E+03  0.12500000000E+03 0.  0.
</event>
<event>
 5    0  0.5735425E-005  0.3391817E+03  0.7546771E-02  0.1067145E+00
         21   -1    0    0  502  501  0.00000000000E+00  0.00000000000E+00  0.17267710826E+03  0.17267710826E+03  0.00000000000E+00 0. -1.
         21   -1    0    0  501  502 -0.00000000000E+00 -0.00000000000E+00 -0.66623890391E+03  0.66623890391E+03  0.00000000000E+00 0. -1.
         25    1    1    2    0    0 -0.17235592850E+03  0.40701631789E+02  0.10483475835E+02  0.21702094872E+03  0.12500000000E+03 0.  0.
         25    1    1    2    0    0  0.13393138184E+03 -0.49806836373E+02 -0.14268389371E+03  0.23749111460E+03  0.12500000000E+03 0.  0.
         25    1    1    2    0    0  0.38424546665E+02  0.91052045843E+01 -0.36136137778E+03  0.38440394884E+03  0.12500000000E+03 0.  0.
</event>
<event>
 5    0  0.5735425E-005  0.2526664E+03  0.7546771E-02  0.1111631E+00
         21   -1    0    0  502  501  0.00000000000E+00  0.00000000000E+00  0.83455959543E+03  0.83455959543E+03  0.00000000000E+00 0. -1.
         21   -1    0    0  501  502 -0.00000000000E+00 -0.00000000000E+00 -0.76495815974E+02  0.76495815974E+02  0.00000000000E+00 0. -1.
         25    1    1    2    0    0 -0.21983603148E+02 -0.22312589671E+02  0.19030921376E+03  0.22983412999E+03  0.12500000000E+03 0.  0.
         25    1    1    2    0    0  0.62746180441E+02 -0.99438667915E+02  0.15499707594E+03  0.23124494673E+03  0.12500000000E+03 0.  0.
         25    1    1    2    0    0 -0.40762577294E+02  0.12175125759E+03  0.41275748975E+03  0.44997633469E+03  0.12500000000E+03 0.  0.
</event>
<event>
 5    0  0.5735425E-005  0.3566566E+03  0.7546771E-02  0.1059916E+00
         21   -1    0    0  502  501  0.00000000000E+00  0.00000000000E+00  0.21210678592E+03  0.21210678592E+03  0.00000000000E+00 0. -1.
         21   -1    0    0  501  502 -0.00000000000E+00 -0.00000000000E+00 -0.59971644066E+03  0.59971644066E+03  0.00000000000E+00 0. -1.
         25    1    1    2    0    0 -0.48943951421E+02 -0.28943211964E+02 -0.14016499031E+03  0.19622549378E+03  0.12500000000E+03 0.  0.
         25    1    1    2    0    0  0.10762982813E+03  0.19797915986E+03  0.33465271147E+02  0.25985544446E+03  0.12500000000E+03 0.  0.
         25    1    1    2    0    0 -0.58685876712E+02 -0.16903594789E+03 -0.28090993558E+03  0.35574228834E+03  0.12500000000E+03 0.  0.
</event>
<event>
 5    0  0.5735425E-005  0.3080622E+03  0.7546771E-02  0.1081278E+00
         21   -1    0    0  502  501  0.00000000000E+00  0.00000000000E+00  0.27453755033E+03  0.27453755033E+03  0.00000000000E+00 0. -1.
         21   -1    0    0  501  502 -0.00000000000E+00 -0.00000000000E+00 -0.34568067038E+03  0.34568067038E+03  0.00000000000E+00 0. -1.
         25    1    1    2    0    0 -0.13453532899E+03 -0.48426960031E+02 -0.32889738276E+02  0.19274765910E+03  0.12500000000E+03 0.  0.
         25    1    1    2    0    0 -0.24612141076E+02  0.12241784575E+03  0.65356573444E+02  0.18838356653E+03  0.12500000000E+03 0.  0.
         25    1    1    2    0    0  0.15914747006E+03 -0.73990885716E+02 -0.10360995521E+03  0.23908699508E+03  0.12500000000E+03 0.  0.
</event>
<event>
 5    0  0.5735425E-005  0.4098527E+03  0.7546771E-02  0.1040420E+00
         21   -1    0    0  502  501  0.00000000000E+00  0.00000000000E+00  0.37531258277E+03  0.37531258277E+03  0.00000000000E+00 0. -1.
         21   -1    0    0  501  502 -0.00000000000E+00 -0.00000000000E+00 -0.44757164111E+03  0.44757164111E+03  0.00000000000E+00 0. -1.
         25    1    1    2    0    0 -0.60596127254E+01 -0.78280526724E+02  0.70041012287E+02  0.16338697369E+03  0.12500000000E+03 0.  0.
         25    1    1    2    0    0  0.23157656101E+03 -0.58403902171E+02  0.92441341427E+02  0.28497214075E+03  0.12500000000E+03 0.  0.
         25    1    1    2    0    0 -0.22551694829E+03  0.13668442890E+03 -0.23474141205E+03  0.37452510944E+03  0.12500000000E+03 0.  0.
</event>
<event>
 5    0  0.5735425E-005  0.2382565E+03  0.7546771E-02  0.1120960E+00
         21   -1    0    0  502  501  0.00000000000E+00  0.00000000000E+00  0.15925991153E+03  0.15925991153E+03  0.00000000000E+00 0.  1.
         21   -1    0    0  501  502 -0.00000000000E+00 -0.00000000000E+00 -0.35643712373E+03  0.35643712373E+03  0.00000000000E+00 0.  1.
         25    1    1    2    0    0 -0.24595803833E+02  0.65368446028E+02 -0.84052139301E+02  0.16603538606E+03  0.12500000000E+03 0.  0.
         25    1    1    2    0    0  0.77713525570E+01  0.39660820098E+02 -0.12980731184E+03  0.18468435986E+03  0.12500000000E+03 0.  0.
         25    1    1    2    0    0  0.16824451276E+02 -0.10502926613E+03  0.16682238937E+02  0.16497728935E+03  0.12500000000E+03 0.  0.
</event>
<event>
 5    0  0.5735425E-005  0.2944483E+03  0.7546771E-02  0.1088049E+00
         21   -1    0    0  502  501  0.00000000000E+00  0.00000000000E+00  0.98977011789E+02  0.98977011789E+02  0.00000000000E+00 0.  1.
         21   -1    0    0  501  502 -0.00000000000E+00 -0.00000000000E+00 -0.87595892064E+03  0.87595892064E+03  0.00000000000E+00 0.  1.
         25    1    1    2    0    0  0.11620175663E+03 -0.11222105986E+03 -0.36129451979E+03  0.41503631715E+03  0.12500000000E+03 0.  0.
         25    1    1    2    0    0 -0.14419791608E+03  0.13447254356E+03 -0.19692659592E+03  0.30541936441E+03  0.12500000000E+03 0.  0.
         25    1    1    2    0    0  0.27996159450E+02 -0.22251483704E+02 -0.21876079314E+03  0.25448025088E+03  0.12500000000E+03 0.  0.
</event>
<event>
 5    0  0.5735425E-005  0.2947511E+03  0.7546771E-02  0.1087894E+00
         21   -1    0    0  502  501  0.00000000000E+00  0.00000000000E+00  0.55673013873E+02  0.55673013873E+02  0.00000000000E+00 0. -1.
         21   -1    0    0  501  502 -0.00000000000E+00 -0.00000000000E+00 -0.15605088931E+04  0.15605088931E+04  0.00000000000E+00 0. -1.
         25    1    1    2    0    0 -0.87829347383E+02  0.68600364356E+02 -0.78695601569E+03  0.80457738899E+03  0.12500000000E+03 0.  0.
         25    1    1    2    0    0 -0.98048374025E+01 -0.53726289961E+02 -0.89036624550E+02  0.16289619265E+03  0.12500000000E+03 0.  0.
         25    1    1    2    0    0  0.97634184786E+02 -0.14874074395E+02 -0.62884323902E+03  0.64870832536E+03  0.12500000000E+03 0.  0.
</event>
<event>
 5    0  0.5735425E-005  0.3420604E+03  0.7546771E-02  0.1065922E+00
         21   -1    0    0  502  501  0.00000000000E+00  0.00000000000E+00  0.14474516922E+04  0.14474516922E+04  0.00000000000E+00 0. -1.
         21   -1    0    0  501  502 -0.00000000000E+00 -0.00000000000E+00 -0.80835393965E+02  0.80835393965E+02  0.00000000000E+00 0. -1.
         25    1    1    2    0    0 -0.15914932577E+03  0.86442540099E+02  0.74111322081E+03  0.77309419006E+03  0.12500000000E+03 0.  0.
         25    1    1    2    0    0  0.62882445341E+02  0.10067517363E+03  0.19747814870E+03  0.26213033348E+03  0.12500000000E+03 0.  0.
         25    1    1    2    0    0  0.96266880432E+02 -0.18711771373E+03  0.42802492874E+03  0.49306256265E+03  0.12500000000E+03 0.  0.
</event>
<event>
 5    0  0.5735425E-005  0.2434832E+03  0.7546771E-02  0.1117494E+00
         21   -1    0    0  502  501  0.00000000000E+00  0.00000000000E+00  0.40497705188E+03  0.40497705188E+03  0.00000000000E+00 0. -1.
         21   -1    0    0  501  502 -0.00000000000E+00 -0.00000000000E+00 -0.14638877086E+03  0.14638877086E+03  0.00000000000E+00 0. -1.
         25    1    1    2    0    0  0.70695360855E+02  0.18547121900E+02  0.64768185286E+02  0.15862454918E+03  0.12500000000E+03 0.  0.
         25    1    1    2    0    0 -0.19369213029E+02  0.88209383052E+02  0.14980682414E+03  0.21499568886E+03  0.12500000000E+03 0.  0.
         25    1    1    2    0    0 -0.51326147827E+02 -0.10675650495E+03  0.44013271601E+02  0.17774558469E+03  0.12500000000E+03 0.  0.
</event>
<event>
 5    0  0.5735425E-005  0.3324347E+03  0.7546771E-02  0.1070065E+00
         21   -1    0    0  502  501  0.00000000000E+00  0.00000000000E+00  0.24105926332E+03  0.24105926332E+03  0.00000000000E+00 0.  1.
         21   -1    0    0  501  502 -0.00000000000E+00 -0.00000000000E+00 -0.45844663666E+03  0.45844663666E+03  0.00000000000E+00 0.  1.
         25    1    1    2    0    0 -0.94440895750E+01  0.95304544844E+02  0.23000524375E+02  0.15914198446E+03  0.12500000000E+03 0.  0.
         25    1    1    2    0    0  0.18895934720E+03  0.26061607767E+01 -0.18946089743E+03  0.29535209264E+03  0.12500000000E+03 0.  0.
         25    1    1    2    0    0 -0.17951525763E+03 -0.97910705621E+02 -0.50927000292E+02  0.24501182289E+03  0.12500000000E+03 0.  0.
</event>
<event>
 5    0  0.5735425E-005  0.3304923E+03  0.7546771E-02  0.1070919E+00
         21   -1    0    0  502  501  0.00000000000E+00  0.00000000000E+00  0.39154337961E+02  0.39154337961E+02  0.00000000000E+00 0.  1.
         21   -1    0    0  501  502 -0.00000000000E+00 -0.00000000000E+00 -0.27896063795E+04  0.27896063795E+04  0.00000000000E+00 0.  1.
         25    1    1    2    0    0  0.83849487056E+02  0.83370182238E+02 -0.49380978450E+03  0.52292870168E+03  0.12500000000E+03 0.  0.
         25    1    1    2    0    0 -0.17953870444E+03 -0.17370199588E+03 -0.16164571101E+04  0.16404161419E+04  0.12500000000E+03 0.  0.
         25    1    1    2    0    0  0.95689217387E+02  0.90331813641E+02 -0.64018514694E+03  0.66541587390E+03  0.12500000000E+03 0.  0.
</event>
<event>
 5    0  0.5735425E-005  0.2760558E+03  0.7546771E-02  0.1097863E+00
         21   -1    0    0  502  501  0.00000000000E+00  0.00000000000E+00  0.80622801491E+02  0.80622801491E+02  0.00000000000E+00 0.  1.
         21   -1    0    0  501  502 -0.00000000000E+00 -0.00000000000E+00 -0.94522627769E+03  0.94522627769E+03  0.00000000000E+00 0.  1.
         25    1    1    2    0    0 -0.46652482784E+02 -0.45227345422E+01 -0.15263645632E+02  0.13436847903E+03  0.12500000000E+03 0.  0.
         25    1    1    2    0    0  0.20907215265E+02 -0.42293426966E+02 -0.46469800707E+03  0.48352361203E+03  0.12500000000E+03 0.  0.
         25    1    1    2    0    0  0.25745267519E+02  0.46816161508E+02 -0.38464182350E+03  0.40795698813E+03  0.12500000000E+03 0.  0.
</event>
<event>
 5    0  0.5735425E-005  0.3957071E+03  0.7546771E-02  0.1045276E+00
         21   -1    0    0  502  501  0.00000000000E+00  0.00000000000E+00  0.17215970046E+03  0.17215970046E+03  0.00000000000E+00 0.  1.
         21   -1    0    0  501  502 -0.00000000000E+00 -0.00000000000E+00 -0.90952828778E+03  0.90952828778E+03  0.00000000000E+00 0.  1.
         25    1    1    2    0    0 -0.92749099371E+01  0.10149616967E+02 -0.37585632909E+03  0.39633573999E+03  0.12500000000E+03 0.  0.
         25    1    1    2    0    0 -0.71150824712E+02 -0.45566419829E+02 -0.47282058016E+03  0.49630941911E+03  0.12500000000E+03 0.  0.
         25    1    1    2    0    0  0.80425734649E+02  0.35416802862E+02  0.11130832193E+03  0.18904282914E+03  0.12500000000E+03 0.  0.
</event>
<event>
 5    0  0.5735425E-005  0.3102237E+03  0.7546771E-02  0.1080239E+00
         21   -1    0    0  502  501  0.00000000000E+00  0.00000000000E+00  0.55716694089E+03  0.55716694089E+03  0.00000000000E+00 0. -1.
         21   -1    0    0  501  502 -0.00000000000E+00 -0.00000000000E+00 -0.17272872772E+03  0.17272872772E+03  0.00000000000E+00 0.  1.
         25    1    1    2    0    0 -0.91519635490E+02  0.14777264176E+02  0.16378553578E+03  0.22593121287E+03  0.12500000000E+03 0.  0.
         25    1    1    2    0    0 -0.12766126278E+03 -0.58764037678E+02  0.44994908921E+02  0.19339118896E+03  0.12500000000E+03 0.  0.
         25    1    1    2    0    0  0.21918089827E+03  0.43986773502E+02  0.17565776847E+03  0.31057326678E+03  0.12500000000E+03 0.  0.
</event>
<event>
 5    0  0.5735425E-005  0.2566295E+03  0.7546771E-02  0.1109185E+00
         21   -1    0    0  502  501  0.00000000000E+00  0.00000000000E+00  0.14944880536E+04  0.14944880536E+04  0.00000000000E+00 0. -1.
         21   -1    0    0  501  502 -0.00000000000E+00 -0.00000000000E+00 -0.44067734051E+02  0.44067734051E+02  0.00000000000E+00 0. -1.
         25    1    1    2    0    0  0.15476268955E+02 -0.94209133511E+02  0.17518136018E+03  0.23543233570E+03  0.12500000000E+03 0.  0.
         25    1    1    2    0    0 -0.70940686333E+01  0.47142195192E+02  0.67815154190E+03  0.69122154636E+03  0.12500000000E+03 0.  0.
         25    1    1    2    0    0 -0.83822003220E+01  0.47066938320E+02  0.59708741746E+03  0.61190190558E+03  0.12500000000E+03 0.  0.
</event>
<event>
 5    0  0.5735425E-005  0.4033449E+03  0.7546771E-02  0.1042628E+00
         21   -1    0    0  502  501  0.00000000000E+00  0.00000000000E+00  0.21002823549E+03  0.21002823549E+03  0.00000000000E+00 0. -1.
         21   -1    0    0  501  502 -0.00000000000E+00 -0.00000000000E+00 -0.77459636191E+03  0.77459636191E+03  0.00000000000E+00 0. -1.
         25    1    1    2    0    0  0.29703002205E+02  0.53618035449E+02 -0.27346997877E+03  0.30686803573E+03  0.12500000000E+03 0.  0.
         25    1    1    2    0    0  0.61678968922E+02  0.49228315570E+01 -0.43599533023E+03  0.45776135426E+03  0.12500000000E+03 0.  0.
         25    1    1    2    0    0 -0.91381971127E+02 -0.58540867006E+02  0.14489718258E+03  0.21999520740E+03  0.12500000000E+03 0.  0.
</event>
<event>
 5    0  0.5735425E-005  0.3885598E+03  0.7546771E-02  0.1047815E+00
         21   -1    0    0  502  501  0.00000000000E+00  0.00000000000E+00  0.35158569935E+03  0.35158569935E+03  0.00000000000E+00 0. -1.
         21   -1    0    0  501  502 -0.00000000000E+00 -0.00000000000E+00 -0.42942217116E+03  0.42942217116E+03  0.00000000000E+00 0. -1.
         25    1    1    2    0    0 -0.89722465575E+02 -0.39893391789E+02  0.57344774022E+02  0.16898232643E+03  0.12500000000E+03 0.  0.
         25    1    1    2    0    0 -0.11060877085E+03  0.23656314080E+03 -0.70742438118E+02  0.29803676338E+03  0.12500000000E+03 0.  0.
         25    1    1    2    0    0  0.20033123642E+03 -0.19666974901E+03 -0.64438807718E+02  0.31398878070E+03  0.12500000000E+03 0.  0.
</event>
<event>
 5    0  0.5735425E-005  0.3649649E+03  0.7546771E-02  0.1056635E+00
         21   -1    0    0  502  501  0.00000000000E+00  0.00000000000E+00  0.26515367167E+03  0.26515367167E+03  0.00000000000E+00 0.  1.
         21   -1    0    0  501  502 -0.00000000000E+00 -0.00000000000E+00 -0.50234773717E+03  0.50234773717E+03  0.00000000000E+00 0.  1.
         25    1    1    2    0    0 -0.18455683485E+03  0.18753212601E+03  0.41010752322E+02  0.29417070789E+03  0.12500000000E+03 0.  0.
         25    1    1    2    0    0  0.48251203666E+02 -0.79739146651E+02 -0.58365689635E+02  0.16648742863E+03  0.12500000000E+03 0.  0.
         25    1    1    2    0    0  0.13630563119E+03 -0.10779297936E+03 -0.21983912818E+03  0.30684327233E+03  0.12500000000E+03 0.  0.
</event>
<event>
 5    0  0.5735425E-005  0.3086694E+03  0.7546771E-02  0.1080985E+00
         21   -1    0    0  502  501  0.00000000000E+00  0.00000000000E+00  0.22038619874E+03  0.22038619874E+03  0.00000000000E+00 0.  1.
         21   -1    0    0  501  502 -0.00000000000E+00 -0.00000000000E+00 -0.43231731983E+03  0.43231731983E+03  0.00000000000E+00 0.  1.
         25    1    1    2    0    0 -0.16292578649E+02 -0.46294640415E+02  0.10065013253E+03  0.16782160477E+03  0.12500000000E+03 0.  0.
         25    1    1    2    0    0  0.11010414138E+03 -0.64920418574E+02 -0.14575471122E+03  0.23066646601E+03  0.12500000000E+03 0.  0.
         25    1    1    2    0    0 -0.93811562729E+02  0.11121505899E+03 -0.16682654239E+03  0.25421544779E+03  0.12500000000E+03 0.  0.
</event>
<event>
 5    0  0.5735425E-005  0.3192174E+03  0.7546771E-02  0.1076010E+00
         21   -1    0    0  502  501  0.00000000000E+00  0.00000000000E+00  0.89893792995E+03  0.89893792995E+03  0.00000000000E+00 0. -1.
         21   -1    0    0  501  502 -0.00000000000E+00 -0.00000000000E+00 -0.11335573744E+03  0.11335573744E+03  0.00000000000E+00 0.  1.
         25    1    1    2    0    0  0.11582267563E+03  0.84093690451E+02  0.34554670292E+03  0.39435284310E+03  0.12500000000E+03 0.  0.
         25    1    1    2    0    0  0.97265466995E+02 -0.47763103603E+02  0.91073715768E+02  0.18884201556E+03  0.12500000000E+03 0.  0.
         25    1    1    2    0    0 -0.21308814262E+03 -0.36330586848E+02  0.34896177382E+03  0.42909880873E+03  0.12500000000E+03 0.  0.
</event>
<event>
 5    0  0.5735425E-005  0.3772449E+03  0.7546771E-02  0.1051957E+00
         21   -1    0    0  502  501  0.00000000000E+00  0.00000000000E+00  0.97181098133E+02  0.97181098133E+02  0.00000000000E+00 0. -1.
         21   -1    0    0  501  502 -0.00000000000E+00 -0.00000000000E+00 -0.14644173309E+04  0.14644173309E+04  0.00000000000E+00 0. -1.
         25    1    1    2    0    0 -0.47459921511E+01 -0.15157214288E+03 -0.51190554851E+03  0.54833286381E+03  0.12500000000E+03 0.  0.
         25    1    1    2    0    0 -0.80817864853E+02  0.32714783569E+02 -0.79792057175E+03  0.81234476866E+03  0.12500000000E+03 0.  0.
         25    1    1    2    0    0  0.85563857004E+02  0.11885735931E+03 -0.57410112551E+02  0.20092079661E+03  0.12500000000E+03 0.  0.
</event>
<event>
 5    0  0.5735425E-005  0.3615247E+03  0.7546771E-02  0.1057982E+00
         21   -1    0    0  502  501  0.00000000000E+00  0.00000000000E+00  0.21674694770E+03  0.21674694770E+03  0.00000000000E+00 0. -1.
         21   -1    0    0  501  502 -0.00000000000E+00 -0.00000000000E+00 -0.60300798138E+03  0.60300798138E+03  0.00000000000E+00 0. -1.
         25    1    1    2    0    0  0.62387329170E+02  0.13246612595E+03 -0.39261311091E+03  0.43727509445E+03  0.12500000000E+03 0.  0.
         25    1    1    2    0    0 -0.17520598483E+02  0.62379365926E+02  0.34621238470E+02  0.14498891964E+03  0.12500000000E+03 0.  0.
         25    1    1    2    0    0 -0.44866730687E+02 -0.19484549188E+03 -0.28269161243E+02  0.23749091500E+03  0.12500000000E+03 0.  0.
</event>
<event>
 5    0  0.5735425E-005  0.3135629E+03  0.7546771E-02  0.1078651E+00
         21   -1    0    0  502  501  0.00000000000E+00  0.00000000000E+00  0.63929852201E+02  0.63929852201E+02  0.00000000000E+00 0. -1.
         21   -1    0    0  501  502 -0.00000000000E+00 -0.00000000000E+00 -0.15379622909E+04  0.15379622909E+04  0.00000000000E+00 0. -1.
         25    1    1    2    0    0  0.11858053216E+02 -0.10887806693E+03 -0.65386497743E+03  0.67465506415E+03  0.12500000000E+03 0.  0.
         25    1    1    2    0    0  0.11888720331E+03  0.80023609395E+02 -0.64990236065E+03  0.67715288048E+03  0.12500000000E+03 0.  0.
         25    1    1    2    0    0 -0.13074525653E+03  0.28854457533E+02 -0.17026510058E+03  0.25008419842E+03  0.12500000000E+03 0.  0.
</event>
<event>
 5    0  0.5735425E-005  0.2699010E+03  0.7546771E-02  0.1101336E+00
         21   -1    0    0  502  501  0.00000000000E+00  0.00000000000E+00  0.71874005696E+03  0.71874005696E+03  0.00000000000E+00 0. -1.
         21   -1    0    0  501  502 -0.00000000000E+00 -0.00000000000E+00 -0.10135308957E+03  0.10135308957E+03  0.00000000000E+00 0. -1.
         25    1    1    2    0    0  0.85478057422E+01 -0.62508083225E+02  0.85292875360E+02  0.16395182231E+03  0.12500000000E+03 0.  0.
         25    1    1    2    0    0  0.69214565134E+02  0.14735412267E+03  0.35934839460E+03  0.41383591216E+03  0.12500000000E+03 0.  0.
         25    1    1    2    0    0 -0.77762370876E+02 -0.84846039442E+02  0.17274569743E+03  0.24230541206E+03  0.12500000000E+03 0.  0.
</event>
<event>
 5    0  0.5735425E-005  0.3391417E+03  0.7546771E-02  0.1067162E+00
         21   -1    0    0  502  501  0.00000000000E+00  0.00000000000E+00  0.95607287787E+02  0.95607287787E+02  0.00000000000E+00 0.  1.
         21   -1    0    0  501  502 -0.00000000000E+00 -0.00000000000E+00 -0.12030160332E+04  0.12030160332E+04  0.00000000000E+00 0.  1.
         25    1    1    2    0    0 -0.56963998819E+02 -0.54208422941E+02 -0.48411367118E+03  0.50613683614E+03  0.12500000000E+03 0.  0.
         25    1    1    2    0    0  0.25382991553E+01  0.20189691742E+03 -0.15690046912E+03  0.28462530709E+03  0.12500000000E+03 0.  0.
         25    1    1    2    0    0  0.54425699664E+02 -0.14768849448E+03 -0.46639460509E+03  0.50786117773E+03  0.12500000000E+03 0.  0.
</event>
<event>
 5    0  0.5735425E-005  0.2719977E+03  0.7546771E-02  0.1100142E+00
         21   -1    0    0  502  501  0.00000000000E+00  0.00000000000E+00  0.18523881822E+04  0.18523881822E+04  0.00000000000E+00 0. -1.
         21   -1    0    0  501  502 -0.00000000000E+00 -0.00000000000E+00 -0.39939113218E+02  0.39939113218E+02  0.00000000000E+00 0. -1.
         25    1    1    2    0    0 -0.39160354991E+02 -0.54432476851E+02  0.67113910914E+03  0.68596583862E+03  0.12500000000E+03 0.  0.
         25    1    1    2    0    0  0.97152402256E+02  0.12190335074E+03  0.37569280960E+03  0.42552215379E+03  0.12500000000E+03 0.  0.
         25    1    1    2    0    0 -0.57992047266E+02 -0.67470873885E+02  0.76561715028E+03  0.78083930304E+03  0.12500000000E+03 0.  0.
</event>
<event>
 5    0  0.5735425E-005  0.2571988E+03  0.7546771E-02  0.1108838E+00
         21   -1    0    0  502  501  0.00000000000E+00  0.00000000000E+00  0.72914820106E+02  0.72914820106E+02  0.00000000000E+00 0. -1.
         21   -1    0    0  501  502 -0.00000000000E+00 -0.00000000000E+00 -0.90723969992E+03  0.90723969992E+03  0.00000000000E+00 0. -1.
         25    1    1    2    0    0  0.14014778328E+03  0.40868649137E+02 -0.47612025327E+03  0.51344633918E+03  0.12500000000E+03 0.  0.
         25    1    1    2    0    0 -0.95545388029E+02 -0.78990971205E+01 -0.14941888302E+03  0.21712282126E+03  0.12500000000E+03 0.  0.
         25    1    1    2    0    0 -0.44602395254E+02 -0.32969552016E+02 -0.20878574353E+03  0.24958535959E+03  0.12500000000E+03 0.  0.
</event>
<event>
 5    0  0.5735425E-005  0.3628766E+03  0.7546771E-02  0.1057451E+00
         21   -1    0    0  502  501  0.00000000000E+00  0.00000000000E+00  0.47787204823E+03  0.47787204823E+03  0.00000000000E+00 0. -1.
         21   -1    0    0  501  502 -0.00000000000E+00 -0.00000000000E+00 -0.27555379439E+03  0.27555379439E+03  0.00000000000E+00 0. -1.
         25    1    1    2    0    0  0.10953718213E+03  0.11446007187E+03  0.18635311789E+03  0.27468525055E+03  0.12500000000E+03 0.  0.
         25    1    1    2    0    0 -0.46924793334E+02 -0.61900148553E+02  0.19581868935E+03  0.24495616693E+03  0.12500000000E+03 0.  0.
         25    1    1    2    0    0 -0.62612388791E+02 -0.52559923317E+02 -0.17985355339E+03  0.23378442514E+03  0.12500000000E+03 0.  0.
</event>
<event>
 5    0  0.5735425E-005  0.2588859E+03  0.7546771E-02  0.1107814E+00
         21   -1    0    0  502  501  0.00000000000E+00  0.00000000000E+00  0.10136431491E+03  0.10136431491E+03  0.00000000000E+00 0.  1.
         21   -1    0    0  501  502 -0.00000000000E+00 -0.00000000000E+00 -0.66119805918E+03  0.66119805918E+03  0.00000000000E+00 0.  1.
         25    1    1    2    0    0  0.99000815694E+02  0.20971886578E+02 -0.36364120637E+03  0.39761904948E+03  0.12500000000E+03 0.  0.
         25    1    1    2    0    0 -0.31467453499E+02  0.60810662236E+02 -0.74821866035E+02  0.16097033549E+03  0.12500000000E+03 0.  0.
         25    1    1    2    0    0 -0.67533362195E+02 -0.81782548814E+02 -0.12137067187E+03  0.20397298912E+03  0.12500000000E+03 0.  0.
</event>
<event>
 5    0  0.5735425E-005  0.3982782E+03  0.7546771E-02  0.1044378E+00
         21   -1    0    0  502  501  0.00000000000E+00  0.00000000000E+00  0.61808894945E+02  0.61808894945E+02  0.00000000000E+00 0.  1.
         21   -1    0    0  501  502 -0.00000000000E+00 -0.00000000000E+00 -0.25663861451E+04  0.25663861451E+04  0.00000000000E+00 0.  1.
         25    1    1    2    0    0  0.14842741013E+02  0.20704499963E+03 -0.43910009593E+03  0.50151952413E+03  0.12500000000E+03 0.  0.
         25    1    1    2    0    0 -0.18401039026E+02 -0.30197490882E+03 -0.16578632216E+04  0.16898706771E+04  0.12500000000E+03 0.  0.
         25    1    1    2    0    0  0.35582980130E+01  0.94929909183E+02 -0.40761393257E+03  0.43680483876E+03  0.12500000000E+03 0.  0.
</event>
<event>
 5    0  0.5735425E-005  0.4296008E+03  0.7546771E-02  0.1033986E+00
         21   -1    0    0  502  501  0.00000000000E+00  0.00000000000E+00  0.54176897278E+03  0.54176897278E+03  0.00000000000E+00 0. -1.
         21   -1    0    0  501  502 -0.00000000000E+00 -0.00000000000E+00 -0.34065591919E+03  0.34065591919E+03  0.00000000000E+00 0. -1.
         25    1    1    2    0    0  0.14902994315E+03  0.88359463728E+02  0.19710888778E+03  0.29067891638E+03  0.12500000000E+03 0.  0.
         25    1    1    2    0    0  0.89121206581E+01  0.37275328229E+02 -0.22607193498E+03  0.26115588405E+03  0.12500000000E+03 0.  0.
         25    1    1    2    0    0 -0.15794206381E+03 -0.12563479196E+03  0.23007610079E+03  0.33059009154E+03  0.12500000000E+03 0.  0.
</event>
<event>
 5    0  0.6221491E-005  0.3617633E+03  0.7546771E-02  0.1057888E+00
         21   -1    0    0  502  501  0.00000000000E+00  0.00000000000E+00  0.21297152399E+03  0.21297152399E+03  0.00000000000E+00 0. -1.
         21   -1    0    0  501  502 -0.00000000000E+00 -0.00000000000E+00 -0.61450787612E+03  0.61450787612E+03  0.00000000000E+00 0. -1.
         25    1    1    2    0    0 -0.13354295217E+03  0.84800865832E+01 -0.21929924732E+03  0.28569702802E+03  0.12500000000E+03 0.  0.
         25    1    1    2    0    0  0.26668482366E+03 -0.93026879879E+02 -0.10511963820E+03  0.32626666070E+03  0.12500000000E+03 0.  0.
         25    1    1    2    0    0 -0.13314187149E+03  0.84546793296E+02 -0.77117466603E+02  0.21551571139E+03  0.12500000000E+03 0.  0.
</event>
<event>
 5    0  0.5735425E-005  0.3033069E+03  0.7546771E-02  0.1083599E+00
         21   -1    0    0  502  501  0.00000000000E+00  0.00000000000E+00  0.66490818910E+03  0.66490818910E+03  0.00000000000E+00 0. -1.
         21   -1    0    0  501  502 -0.00000000000E+00 -0.00000000000E+00 -0.13835758406E+03  0.13835758406E+03  0.00000000000E+00 0. -1.
         25    1    1    2    0    0 -0.59014286831E+02  0.15872473106E+02 -0.49992441958E+02  0.14784744065E+03  0.12500000000E+03 0.  0.
         25    1    1    2    0    0  0.49279323161E+02  0.37603600118E+02  0.44356126257E+03  0.46498825371E+03  0.12500000000E+03 0.  0.
         25    1    1    2    0    0  0.97349636698E+01 -0.53476073224E+02  0.13298178443E+03  0.19043007881E+03  0.12500000000E+03 0.  0.
</event>
<event>
 5    0  0.5765238E-005  0.3382765E+03  0.7546771E-02  0.1067532E+00
         21   -1    0    0  502  501  0.00000000000E+00  0.00000000000E+00  0.55969389722E+03  0.55969389722E+03  0.00000000000E+00 0.  1.
         21   -1    0    0  501  502 -0.00000000000E+00 -0.00000000000E+00 -0.20445284643E+03  0.20445284643E+03  0.00000000000E+00 0. -1.
         25    1    1    2    0    0 -0.60834577228E+02 -0.10199343608E+03 -0.52000483997E+02  0.18009041375E+03  0.12500000000E+03 0.  0.
         25    1    1    2    0    0  0.17529760218E+03  0.93602725085E+02  0.15971240621E+03  0.28394325519E+03  0.12500000000E+03 0.  0.
         25    1    1    2    0    0 -0.11446302495E+03  0.83907109959E+01  0.24752912858E+03  0.30011307470E+03  0.12500000000E+03 0.  0.
</event>
<event>
 5    0  0.5735425E-005  0.3314103E+03  0.7546771E-02  0.1070515E+00
         21   -1    0    0  502  501  0.00000000000E+00  0.00000000000E+00  0.83068063385E+03  0.83068063385E+03  0.00000000000E+00 0. -1.
         21   -1    0    0  501  502 -0.00000000000E+00 -0.00000000000E+00 -0.13222026098E+03  0.13222026098E+03  0.00000000000E+00 0. -1.
         25    1    1    2    0    0  0.39661243158E+02  0.37754218921E+02  0.53889707024E+03  0.55590776894E+03  0.12500000000E+03 0.  0.
         25    1    1    2    0    0  0.34675023413E+02 -0.24132150495E+02  0.21375136035E+03  0.25119586380E+03  0.12500000000E+03 0.  0.
         25    1    1    2    0    0 -0.74336266571E+02 -0.13622068426E+02 -0.54188057727E+02  0.15579726209E+03  0.12500000000E+03 0.  0.
</event>
<event>
 5    0  0.5735425E-005  0.2747934E+03  0.7546771E-02  0.1098567E+00
         21   -1    0    0  502  501  0.00000000000E+00  0.00000000000E+00  0.37825647092E+03  0.37825647092E+03  0.00000000000E+00 0. -1.
         21   -1    0    0  501  502 -0.00000000000E+00 -0.00000000000E+00 -0.19963023256E+03  0.19963023256E+03  0.00000000000E+00 0. -1.
         25    1    1    2    0    0  0.99210976244E+02 -0.11949238020E+03  0.34799238845E+02  0.20237893605E+03  0.12500000000E+03 0.  0.
         25    1    1    2    0    0 -0.10698668815E+03  0.11773539739E+03  0.26791418183E+02  0.20408467686E+03  0.12500000000E+03 0.  0.
         25    1    1    2    0    0  0.77757119041E+01  0.17569828146E+01  0.11703558133E+03  0.17142309057E+03  0.12500000000E+03 0.  0.
</event>
<event>
 5    0  0.5735425E-005  0.6247408E+03  0.7546771E-02  0.9855366E-01
         21   -1    0    0  502  501  0.00000000000E+00  0.00000000000E+00  0.57460370616E+03  0.57460370616E+03  0.00000000000E+00 0. -1.
         21   -1    0    0  501  502 -0.00000000000E+00 -0.00000000000E+00 -0.67925252370E+03  0.67925252370E+03  0.00000000000E+00 0. -1.
         25    1    1    2    0    0  0.84725754871E+02  0.90693710540E+02  0.38588283993E+02  0.18032708707E+03  0.12500000000E+03 0.  0.
         25    1    1    2    0    0  0.22979787582E+03 -0.45750692583E+03 -0.21521480094E+03  0.56926449165E+03  0.12500000000E+03 0.  0.
         25    1    1    2    0    0 -0.31452363069E+03  0.36681321529E+03  0.71977699412E+02  0.50426465113E+03  0.12500000000E+03 0.  0.
</event>
<event>
 5    0  0.5735425E-005  0.3939646E+03  0.7546771E-02  0.1045890E+00
         21   -1    0    0  502  501  0.00000000000E+00  0.00000000000E+00  0.51525005248E+03  0.51525005248E+03  0.00000000000E+00 0. -1.
         21   -1    0    0  501  502 -0.00000000000E+00 -0.00000000000E+00 -0.30122872430E+03  0.30122872430E+03  0.00000000000E+00 0. -1.
         25    1    1    2    0    0 -0.20893312298E+03 -0.12144122438E+03 -0.52903581836E+01  0.27212866212E+03  0.12500000000E+03 0.  0.
         25    1    1    2    0    0  0.24989088471E+01  0.20270669672E+03  0.66092519191E+02  0.24716284214E+03  0.12500000000E+03 0.  0.
         25    1    1    2    0    0  0.20643421413E+03 -0.81265472340E+02  0.15321916718E+03  0.29718727253E+03  0.12500000000E+03 0.  0.
</event>
<event>
 5    0  0.5735425E-005  0.2614103E+03  0.7546771E-02  0.1106299E+00
         21   -1    0    0  502  501  0.00000000000E+00  0.00000000000E+00  0.44779786034E+02  0.44779786034E+02  0.00000000000E+00 0.  1.
         21   -1    0    0  501  502 -0.00000000000E+00 -0.00000000000E+00 -0.15260311384E+04  0.15260311384E+04  0.00000000000E+00 0.  1.
         25    1    1    2    0    0  0.78179597913E+02  0.90479326606E+01 -0.31707771462E+03  0.34979592868E+03  0.12500000000E+03 0.  0.
         25    1    1    2    0    0 -0.82469971738E+02  0.46221303672E+02 -0.97544780797E+03  0.98795806147E+03  0.12500000000E+03 0.  0.
         25    1    1    2    0    0  0.42903738257E+01 -0.55269236332E+02 -0.18872582980E+03  0.23305693430E+03  0.12500000000E+03 0.  0.
</event>
<event>
 5    0  0.5735425E-005  0.2888315E+03  0.7546771E-02  0.1090961E+00
         21   -1    0    0  502  501  0.00000000000E+00  0.00000000000E+00  0.25668474296E+03  0.25668474296E+03  0.00000000000E+00 0. -1.
         21   -1    0    0  501  502 -0.00000000000E+00 -0.00000000000E+00 -0.32500419207E+03  0.32500419207E+03  0.00000000000E+00 0. -1.
         25    1    1    2    0    0  0.15276887750E+03  0.55966753306E+02 -0.14799879960E+02  0.20570523536E+03  0.12500000000E+03 0.  0.
         25    1    1    2    0    0 -0.11980505697E+03 -0.27900452158E+02 -0.13438193273E+03  0.22094160032E+03  0.12500000000E+03 0.  0.
         25    1    1    2    0    0 -0.32963820532E+02 -0.28066301148E+02  0.80862363581E+02  0.15504209934E+03  0.12500000000E+03 0.  0.
</event>
<event>
 5    0  0.5735425E-005  0.2730197E+03  0.7546771E-02  0.1099564E+00
         21   -1    0    0  502  501  0.00000000000E+00  0.00000000000E+00  0.10678044758E+03  0.10678044758E+03  0.00000000000E+00 0.  1.
         21   -1    0    0  501  502 -0.00000000000E+00 -0.00000000000E+00 -0.69806571179E+03  0.69806571179E+03  0.00000000000E+00 0.  1.
         25    1    1    2    0    0 -0.11032239187E+03 -0.86667896344E+02 -0.13440934229E+03  0.23102646104E+03  0.12500000000E+03 0.  0.
         25    1    1    2    0    0  0.10794109145E+03 -0.17059603567E+01 -0.12115526732E+03  0.20483600349E+03  0.12500000000E+03 0.  0.
         25    1    1    2    0    0  0.23813004221E+01  0.88373856701E+02 -0.33572065459E+03  0.36898369484E+03  0.12500000000E+03 0.  0.
</event>
<event>
 5    0  0.5735425E-005  0.3020936E+03  0.7546771E-02  0.1084199E+00
         21   -1    0    0  502  501  0.00000000000E+00  0.00000000000E+00  0.43650106691E+02  0.43650106691E+02  0.00000000000E+00 0.  1.
         21   -1    0    0  501  502 -0.00000000000E+00 -0.00000000000E+00 -0.20907292996E+04  0.20907292996E+04  0.00000000000E+00 0.  1.
         25    1    1    2    0    0  0.59936535288E+02 -0.71725628809E+02 -0.98187918718E+03  0.99420757003E+03  0.12500000000E+03 0.  0.
         25    1    1    2    0    0  0.85960038833E+02  0.68857861633E+02 -0.77093357201E+03  0.78872942499E+03  0.12500000000E+03 0.  0.
         25    1    1    2    0    0 -0.14589657412E+03  0.28677671756E+01 -0.29426643372E+03  0.35144241127E+03  0.12500000000E+03 0.  0.
</event>
<event>
 5    0  0.5735425E-005  0.2399456E+03  0.7546771E-02  0.1119829E+00
         21   -1    0    0  502  501  0.00000000000E+00  0.00000000000E+00  0.72488273916E+03  0.72488273916E+03  0.00000000000E+00 0.  1.
         21   -1    0    0  501  502 -0.00000000000E+00 -0.00000000000E+00 -0.79425101652E+02  0.79425101652E+02  0.00000000000E+00 0.  1.
         25    1    1    2    0    0 -0.56916746020E+02  0.17834258817E+02  0.41376325753E+03  0.43632855745E+03  0.12500000000E+03 0.  0.
         25    1    1    2    0    0  0.84766856686E+02 -0.38931619548E+02  0.12116282006E+03  0.19750068344E+03  0.12500000000E+03 0.  0.
         25    1    1    2    0    0 -0.27850110666E+02  0.21097360731E+02  0.11053155991E+03  0.17047859992E+03  0.12500000000E+03 0.  0.
</event>
<event>
 5    0  0.5735425E-005  0.3102662E+03  0.7546771E-02  0.1080218E+00
         21   -1    0    0  502  501  0.00000000000E+00  0.00000000000E+00  0.10956017506E+03  0.10956017506E+03  0.00000000000E+00 0.  1.
         21   -1    0    0  501  502 -0.00000000000E+00 -0.00000000000E+00 -0.87865035597E+03  0.87865035597E+03  0.00000000000E+00 0.  1.
         25    1    1    2    0    0  0.97172387495E+01 -0.16054139636E+03 -0.16484932581E+03  0.26204630296E+03  0.12500000000E+03 0.  0.
         25    1    1    2    0    0  0.11800971378E+03  0.13782604875E+03 -0.37032989935E+03  0.43091942010E+03  0.12500000000E+03 0.  0.
         25    1    1    2    0    0 -0.12772695253E+03  0.22715347611E+02 -0.23391095575E+03  0.29524480798E+03  0.12500000000E+03 0.  0.
</event>
<event>
 5    0  0.5735425E-005  0.3149532E+03  0.7546771E-02  0.1077996E+00
         21   -1    0    0  502  501  0.00000000000E+00  0.00000000000E+00  0.43280296281E+02  0.43280296281E+02  0.00000000000E+00 0.  1.
         21   -1    0    0  501  502 -0.00000000000E+00 -0.00000000000E+00 -0.22919321446E+04  0.22919321446E+04  0.00000000000E+00 0.  1.
         25    1    1    2    0    0 -0.48301083739E+02  0.77904610455E+02 -0.33023719963E+03  0.36480642955E+03  0.12500000000E+03 0.  0.
         25    1    1    2    0    0 -0.11227215822E+01 -0.25478398262E+02 -0.17218744509E+04  0.17265940559E+04  0.12500000000E+03 0.  0.
         25    1    1    2    0    0  0.49423805321E+02 -0.52426212194E+02 -0.19654019782E+03  0.24381195544E+03  0.12500000000E+03 0.  0.
</event>
<event>
 5    0  0.5735425E-005  0.3499212E+03  0.7546771E-02  0.1062647E+00
         21   -1    0    0  502  501  0.00000000000E+00  0.00000000000E+00  0.28716059412E+03  0.28716059412E+03  0.00000000000E+00 0.  1.
         21   -1    0    0  501  502 -0.00000000000E+00 -0.00000000000E+00 -0.42639852045E+03  0.42639852045E+03  0.00000000000E+00 0.  1.
         25    1    1    2    0    0  0.16008134227E+03  0.23934069901E+02 -0.81376776441E+02  0.22010464691E+03  0.12500000000E+03 0.  0.
         25    1    1    2    0    0 -0.16795478176E+03  0.15850920049E+03  0.74968711132E+01  0.26270740079E+03  0.12500000000E+03 0.  0.
         25    1    1    2    0    0  0.78734394843E+01 -0.18244327039E+03 -0.65358021002E+02  0.23074706687E+03  0.12500000000E+03 0.  0.
</event>
<event>
 5    0  0.5735425E-005  0.4299189E+03  0.7546771E-02  0.1033886E+00
         21   -1    0    0  502  501  0.00000000000E+00  0.00000000000E+00  0.27095343588E+03  0.27095343588E+03  0.00000000000E+00 0. -1.
         21   -1    0    0  501  502 -0.00000000000E+00 -0.00000000000E+00 -0.68214778849E+03  0.68214778849E+03  0.00000000000E+00 0. -1.
         25    1    1    2    0    0  0.77948318501E+01 -0.17046317082E+03 -0.12267991504E+03  0.24452773578E+03  0.12500000000E+03 0.  0.
         25    1    1    2    0    0 -0.11802661145E+03  0.35365255643E+03 -0.22441285583E+03  0.45275439428E+03  0.12500000000E+03 0.  0.
         25    1    1    2    0    0  0.11023177960E+03 -0.18318938561E+03 -0.64101581745E+02  0.25581909432E+03  0.12500000000E+03 0.  0.
</event>
<event>
 5    0  0.5735425E-005  0.3171967E+03  0.7546771E-02  0.1076947E+00
         21   -1    0    0  502  501  0.00000000000E+00  0.00000000000E+00  0.17343135265E+03  0.17343135265E+03  0.00000000000E+00 0. -1.
         21   -1    0    0  501  502 -0.00000000000E+00 -0.00000000000E+00 -0.58013580436E+03  0.58013580436E+03  0.00000000000E+00 0. -1.
         25    1    1    2    0    0 -0.18392476629E+03 -0.13322087202E+01 -0.20437905277E+03  0.30203624227E+03  0.12500000000E+03 0.  0.
         25    1    1    2    0    0  0.19434116312E+03 -0.79290640930E+02 -0.75262562290E+02  0.25562657668E+03  0.12500000000E+03 0.  0.
         25    1    1    2    0    0 -0.10416396826E+02  0.80622849650E+02 -0.12706283666E+03  0.19590433805E+03  0.12500000000E+03 0.  0.
</event>
<event>
 5    0  0.5735425E-005  0.2329088E+03  0.7546771E-02  0.1124609E+00
         21   -1    0    0  502  501  0.00000000000E+00  0.00000000000E+00  0.70568442904E+02  0.70568442904E+02  0.00000000000E+00 0.  1.
         21   -1    0    0  501  502 -0.00000000000E+00 -0.00000000000E+00 -0.76870792259E+03  0.76870792259E+03  0.00000000000E+00 0.  1.
         25    1    1    2    0    0 -0.60472469460E+02 -0.41412943016E+01 -0.74339995810E+02  0.15756111468E+03  0.12500000000E+03 0.  0.
         25    1    1    2    0    0  0.51444544503E+02 -0.38995006995E+02 -0.28273870847E+03  0.31580584066E+03  0.12500000000E+03 0.  0.
         25    1    1    2    0    0  0.90279249567E+01  0.43136301296E+02 -0.34106077541E+03  0.36590941015E+03  0.12500000000E+03 0.  0.
</event>
<event>
 5    0  0.5735425E-005  0.3094031E+03  0.7546771E-02  0.1080632E+00
         21   -1    0    0  502  501  0.00000000000E+00  0.00000000000E+00  0.48266283864E+03  0.48266283864E+03  0.00000000000E+00 0. -1.
         21   -1    0    0  501  502 -0.00000000000E+00 -0.00000000000E+00 -0.19833784350E+03  0.19833784350E+03  0.00000000000E+00 0. -1.
         25    1    1    2    0    0 -0.15454809408E+03  0.33439872668E+02  0.34001959414E+02  0.20441250380E+03  0.12500000000E+03 0.  0.
         25    1    1    2    0    0  0.18215033455E+03  0.57169133378E+02  0.21975459695E+03  0.31680299409E+03  0.12500000000E+03 0.  0.
         25    1    1    2    0    0 -0.27602240469E+02 -0.90609006047E+02  0.30568438774E+02  0.15978518425E+03  0.12500000000E+03 0.  0.
</event>
<event>
 5    0  0.5735425E-005  0.2716215E+03  0.7546771E-02  0.1100355E+00
         21   -1    0    0  502  501  0.00000000000E+00  0.00000000000E+00  0.25550835314E+03  0.25550835314E+03  0.00000000000E+00 0. -1.
         21   -1    0    0  501  502 -0.00000000000E+00 -0.00000000000E+00 -0.28875081669E+03  0.28875081669E+03  0.00000000000E+00 0. -1.
         25    1    1    2    0    0 -0.84381356139E+02  0.12977753066E+01 -0.11413332438E+02  0.15125198062E+03  0.12500000000E+03 0.  0.
         25    1    1    2    0    0  0.14051226263E+03 -0.27861297800E+01 -0.12118467298E+03  0.22374580093E+03  0.12500000000E+03 0.  0.
         25    1    1    2    0    0 -0.56130906491E+02  0.14883544733E+01  0.99355541869E+02  0.16926138828E+03  0.12500000000E+03 0.  0.
</event>
<event>
 5    0  0.5735425E-005  0.2859178E+03  0.7546771E-02  0.1092500E+00
         21   -1    0    0  502  501  0.00000000000E+00  0.00000000000E+00  0.15676226372E+03  0.15676226372E+03  0.00000000000E+00 0. -1.
         21   -1    0    0  501  502 -0.00000000000E+00 -0.00000000000E+00 -0.52148399054E+03  0.52148399054E+03  0.00000000000E+00 0. -1.
         25    1    1    2    0    0  0.23634359364E+02  0.76242427608E+02 -0.32771128192E+03  0.35970984836E+03  0.12500000000E+03 0.  0.
         25    1    1    2    0    0 -0.29109635542E+02 -0.12771243440E+03 -0.23197986028E+02  0.18254036085E+03  0.12500000000E+03 0.  0.
         25    1    1    2    0    0  0.54752761783E+01  0.51470006794E+02 -0.13812458870E+02  0.13599604505E+03  0.12500000000E+03 0.  0.
</event>
<event>
 5    0  0.5735425E-005  0.2791037E+03  0.7546771E-02  0.1096180E+00
         21   -1    0    0  502  501  0.00000000000E+00  0.00000000000E+00  0.19570107526E+03  0.19570107526E+03  0.00000000000E+00 0.  1.
         21   -1    0    0  501  502 -0.00000000000E+00 -0.00000000000E+00 -0.39805024030E+03  0.39805024030E+03  0.00000000000E+00 0.  1.
         25    1    1    2    0    0  0.40447987824E+02 -0.17096866435E+03 -0.19514117875E+02  0.21649971063E+03  0.12500000000E+03 0.  0.
         25    1    1    2    0    0  0.35455938692E+02  0.86413780610E+02 -0.55164070965E+02  0.16550691766E+03  0.12500000000E+03 0.  0.
         25    1    1    2    0    0 -0.75903926515E+02  0.84554883738E+02 -0.12767097620E+03  0.21174468727E+03  0.12500000000E+03 0.  0.
</event>
<event>
 5    0  0.6057458E-005  0.3118527E+03  0.7546771E-02  0.1079461E+00
         21   -1    0    0  502  501  0.00000000000E+00  0.00000000000E+00  0.57763572005E+03  0.57763572005E+03  0.00000000000E+00 0.  1.
         21   -1    0    0  501  502 -0.00000000000E+00 -0.00000000000E+00 -0.16836232342E+03  0.16836232342E+03  0.00000000000E+00 0.  1.
         25    1    1    2    0    0 -0.80441567100E+02 -0.73197338223E+02  0.33967758113E+03  0.37793459112E+03  0.12500000000E+03 0.  0.
         25    1    1    2    0    0  0.46650540532E+02  0.15439685544E+03  0.68405370350E+02  0.21521839279E+03  0.12500000000E+03 0.  0.
         25    1    1    2    0    0  0.33791026568E+02 -0.81199517213E+02  0.11904451433E+01  0.15284505956E+03  0.12500000000E+03 0.  0.
</event>
<event>
 5    0  0.5735425E-005  0.3492972E+03  0.7546771E-02  0.1062904E+00
         21   -1    0    0  502  501  0.00000000000E+00  0.00000000000E+00  0.79419755079E+03  0.79419755079E+03  0.00000000000E+00 0. -1.
         21   -1    0    0  501  502 -0.00000000000E+00 -0.00000000000E+00 -0.15362495371E+03  0.15362495371E+03  0.00000000000E+00 0. -1.
         25    1    1    2    0    0 -0.10497674984E+03 -0.17277225672E+03  0.22675844574E+03  0.32850382557E+03  0.12500000000E+03 0.  0.
         25    1    1    2    0    0  0.17027243029E+03 -0.18067956970E+02  0.26442118425E+03  0.33891402193E+03  0.12500000000E+03 0.  0.
         25    1    1    2    0    0 -0.65295680443E+02  0.19084021369E+03  0.14939296709E+03  0.28040465699E+03  0.12500000000E+03 0.  0.
</event>
<event>
 5    0  0.5735425E-005  0.3885900E+03  0.7546771E-02  0.1047804E+00
         21   -1    0    0  502  501  0.00000000000E+00  0.00000000000E+00  0.18532207106E+04  0.18532207106E+04  0.00000000000E+00 0. -1.
         21   -1    0    0  501  502 -0.00000000000E+00 -0.00000000000E+00 -0.81480971040E+02  0.81480971040E+02  0.00000000000E+00 0. -1.
         25    1    1    2    0    0 -0.14861907332E+03  0.42293863429E+02  0.96972093243E+03  0.98987882421E+03  0.12500000000E+03 0.  0.
         25    1    1    2    0    0  0.26965255072E+01  0.79490097023E+02  0.66049333171E+03  0.67690648394E+03  0.12500000000E+03 0.  0.
         25    1    1    2    0    0  0.14592254781E+03 -0.12178396045E+03  0.14152547541E+03  0.26791637347E+03  0.12500000000E+03 0.  0.
</event>
<event>
 5    0  0.5735425E-005  0.2815496E+03  0.7546771E-02  0.1094846E+00
         21   -1    0    0  502  501  0.00000000000E+00  0.00000000000E+00  0.44545540336E+03  0.44545540336E+03  0.00000000000E+00 0. -1.
         21   -1    0    0  501  502 -0.00000000000E+00 -0.00000000000E+00 -0.17795313493E+03  0.17795313493E+03  0.00000000000E+00 0. -1.
         25    1    1    2    0    0 -0.58902439125E+02  0.45759541429E+02  0.38882052815E+02  0.15066601142E+03  0.12500000000E+03 0.  0.
         25    1    1    2    0    0 -0.45913317255E+02 -0.12722109093E+03  0.22447471682E+03  0.29035691341E+03  0.12500000000E+03 0.  0.
         25    1    1    2    0    0  0.10481575638E+03  0.81461549498E+02  0.41454987984E+01  0.18238561345E+03  0.12500000000E+03 0.  0.
</event>
<event>
 5    0  0.5735425E-005  0.2584981E+03  0.7546771E-02  0.1108049E+00
         21   -1    0    0  502  501  0.00000000000E+00  0.00000000000E+00  0.11313453512E+03  0.11313453512E+03  0.00000000000E+00 0. -1.
         21   -1    0    0  501  502 -0.00000000000E+00 -0.00000000000E+00 -0.59063533700E+03  0.59063533700E+03  0.00000000000E+00 0. -1.
         25    1    1    2    0    0  0.76047114348E+02 -0.92443061793E+02 -0.12661384576E+03  0.21444101569E+03  0.12500000000E+03 0.  0.
         25    1    1    2    0    0 -0.78605443256E+02  0.13303653545E+03 -0.26899406650E+03  0.33445529340E+03  0.12500000000E+03 0.  0.
         25    1    1    2    0    0  0.25583289080E+01 -0.40593473662E+02 -0.81892889628E+02  0.15487356302E+03  0.12500000000E+03 0.  0.
</event>
<event>
 5    0  0.5735425E-005  0.2291860E+03  0.7546771E-02  0.1127214E+00
         21   -1    0    0  502  501  0.00000000000E+00  0.00000000000E+00  0.22831334039E+03  0.22831334039E+03  0.00000000000E+00 0.  1.
         21   -1    0    0  501  502 -0.00000000000E+00 -0.00000000000E+00 -0.23006195225E+03  0.23006195225E+03  0.00000000000E+00 0.  1.
         25    1    1    2    0    0 -0.34840288908E+02 -0.42892910110E+02 -0.31027846921E+02  0.14014768908E+03  0.12500000000E+03 0.  0.
         25    1    1    2    0    0 -0.50885652109E+02 -0.42502212686E+02 -0.17736150755E+01  0.14150594823E+03  0.12500000000E+03 0.  0.
         25    1    1    2    0    0  0.85725941018E+02  0.85395122796E+02  0.31052850137E+02  0.17672165533E+03  0.12500000000E+03 0.  0.
</event>
<event>
 5    0  0.5735425E-005  0.3836244E+03  0.7546771E-02  0.1049602E+00
         21   -1    0    0  502  501  0.00000000000E+00  0.00000000000E+00  0.18405347187E+03  0.18405347187E+03  0.00000000000E+00 0. -1.
         21   -1    0    0  501  502 -0.00000000000E+00 -0.00000000000E+00 -0.79959191985E+03  0.79959191985E+03  0.00000000000E+00 0. -1.
         25    1    1    2    0    0 -0.11434350349E+02 -0.57099034903E+02  0.24639150214E+02  0.14008258949E+03  0.12500000000E+03 0.  0.
         25    1    1    2    0    0 -0.20530089762E+02  0.24745399164E+03 -0.18597762848E+03  0.33446620287E+03  0.12500000000E+03 0.  0.
         25    1    1    2    0    0  0.31964440111E+02 -0.19035495674E+03 -0.45419996972E+03  0.50909659936E+03  0.12500000000E+03 0.  0.
</event>
<event>
 5    0  0.5735425E-005  0.4043995E+03  0.7546771E-02  0.1042267E+00
         21   -1    0    0  502  501  0.00000000000E+00  0.00000000000E+00  0.39681730172E+03  0.39681730172E+03  0.00000000000E+00 0.  1.
         21   -1    0    0  501  502 -0.00000000000E+00 -0.00000000000E+00 -0.41212664721E+03  0.41212664721E+03  0.00000000000E+00 0.  1.
         25    1    1    2    0    0 -0.79059053370E+02  0.13936116939E+02  0.16334895368E+03  0.22079952433E+03  0.12500000000E+03 0.  0.
         25    1    1    2    0    0 -0.10892635682E+03 -0.20165466285E+03 -0.12591457962E+03  0.28984312243E+03  0.12500000000E+03 0.  0.
         25    1    1    2    0    0  0.18798541019E+03  0.18771854591E+03 -0.52743719549E+02  0.29830130217E+03  0.12500000000E+03 0.  0.
</event>
<event>
 5    0  0.5735425E-005  0.3311928E+03  0.7546771E-02  0.1070610E+00
         21   -1    0    0  502  501  0.00000000000E+00  0.00000000000E+00  0.76857675734E+03  0.76857675734E+03  0.00000000000E+00 0. -1.
         21   -1    0    0  501  502 -0.00000000000E+00 -0.00000000000E+00 -0.14271663266E+03  0.14271663266E+03  0.00000000000E+00 0. -1.
         25    1    1    2    0    0 -0.21951054317E+02 -0.24003153656E+03  0.26128864153E+03  0.37682056940E+03  0.12500000000E+03 0.  0.
         25    1    1    2    0    0  0.10593965103E+01  0.18965678919E+03  0.31711370226E+03  0.39007296775E+03  0.12500000000E+03 0.  0.
         25    1    1    2    0    0  0.20891657807E+02  0.50374747361E+02  0.47457780881E+02  0.14439985285E+03  0.12500000000E+03 0.  0.
</event>
<event>
 5    0  0.5735425E-005  0.3417790E+03  0.7546771E-02  0.1066041E+00
         21   -1    0    0  502  501  0.00000000000E+00  0.00000000000E+00  0.56488302033E+03  0.56488302033E+03  0.00000000000E+00 0. -1.
         21   -1    0    0  501  502 -0.00000000000E+00 -0.00000000000E+00 -0.20679133921E+03  0.20679133921E+03  0.00000000000E+00 0. -1.
         25    1    1    2    0    0 -0.20333846141E+03  0.49074319218E+02  0.29422038932E+03  0.38202808299E+03  0.12500000000E+03 0.  0.
         25    1    1    2    0    0  0.22050015858E+03 -0.49110645874E+02  0.40919102774E+02  0.26140303832E+03  0.12500000000E+03 0.  0.
         25    1    1    2    0    0 -0.17161697168E+02  0.36326656280E-01  0.22952189022E+02  0.12824323822E+03  0.12500000000E+03 0.  0.
</event>
<event>
 5    0  0.5735425E-005  0.3275120E+03  0.7546771E-02  0.1072243E+00
         21   -1    0    0  502  501  0.00000000000E+00  0.00000000000E+00  0.70216410426E+02  0.70216410426E+02  0.00000000000E+00 0.  1.
         21   -1    0    0  501  502 -0.00000000000E+00 -0.00000000000E+00 -0.15276215604E+04  0.15276215604E+04  0.00000000000E+00 0.  1.
         25    1    1    2    0    0  0.18178990619E+03  0.46240115761E+02 -0.26851156694E+03  0.35058405537E+03  0.12500000000E+03 0.  0.
         25    1    1    2    0    0 -0.14745264772E+03 -0.15967149611E+02 -0.37146070519E+03  0.41905284713E+03  0.12500000000E+03 0.  0.
         25    1    1    2    0    0 -0.34337258471E+02 -0.30272966150E+02 -0.81743287783E+03  0.82820106832E+03  0.12500000000E+03 0.  0.
</event>
<event>
 5    0  0.5735425E-005  0.3146667E+03  0.7546771E-02  0.1078130E+00
         21   -1    0    0  502  501  0.00000000000E+00  0.00000000000E+00  0.92881742790E+02  0.92881742790E+02  0.00000000000E+00 0.  1.
         21   -1    0    0  501  502 -0.00000000000E+00 -0.00000000000E+00 -0.10660347203E+04  0.10660347203E+04  0.00000000000E+00 0.  1.
         25    1    1    2    0    0 -0.53944404803E+02 -0.84554883695E+02 -0.56558559276E+03  0.58785337450E+03  0.12500000000E+03 0.  0.
         25    1    1    2    0    0  0.84274921236E+02 -0.61444791813E+02 -0.31717200415E+03  0.35651199841E+03  0.12500000000E+03 0.  0.
         25    1    1    2    0    0 -0.30330516433E+02  0.14599967551E+03 -0.90395380629E+02  0.21455109022E+03  0.12500000000E+03 0.  0.
</event>
<event>
 5    0  0.5735425E-005  0.2760973E+03  0.7546771E-02  0.1097840E+00
         21   -1    0    0  502  501  0.00000000000E+00  0.00000000000E+00  0.72747726611E+03  0.72747726611E+03  0.00000000000E+00 0. -1.
         21   -1    0    0  501  502 -0.00000000000E+00 -0.00000000000E+00 -0.10478641839E+03  0.10478641839E+03  0.00000000000E+00 0. -1.
         25    1    1    2    0    0 -0.40554881559E+02 -0.49660798169E+02  0.27723305268E+02  0.14319383698E+03  0.12500000000E+03 0.  0.
         25    1    1    2    0    0 -0.38114618801E+02  0.12478717471E+03  0.33897678539E+03  0.38412865575E+03  0.12500000000E+03 0.  0.
         25    1    1    2    0    0  0.78669500360E+02 -0.75126376543E+02  0.25599075706E+03  0.30494119177E+03  0.12500000000E+03 0.  0.
</event>
<event>
 5    0  0.5735425E-005  0.3994947E+03  0.7546771E-02  0.1043955E+00
         21   -1    0    0  502  501  0.00000000000E+00  0.00000000000E+00  0.35601832242E+03  0.35601832242E+03  0.00000000000E+00 0.  1.
         21   -1    0    0  501  502 -0.00000000000E+00 -0.00000000000E+00 -0.44828035743E+03  0.44828035743E+03  0.00000000000E+00 0.  1.
         25    1    1    2    0    0  0.49758039218E+02  0.28030668709E+03 -0.24366804125E+03  0.39502761375E+03  0.12500000000E+03 0.  0.
         25    1    1    2    0    0 -0.21205857926E+02 -0.15901349276E+03  0.72119386179E+02  0.21578040957E+03  0.12500000000E+03 0.  0.
         25    1    1    2    0    0 -0.28552181292E+02 -0.12129319433E+03  0.79286620060E+02  0.19349065654E+03  0.12500000000E+03 0.  0.
</event>
<event>
 5    0  0.5735425E-005  0.3103220E+03  0.7546771E-02  0.1080192E+00
         21   -1    0    0  502  501  0.00000000000E+00  0.00000000000E+00  0.58621290346E+03  0.58621290346E+03  0.00000000000E+00 0.  1.
         21   -1    0    0  501  502 -0.00000000000E+00 -0.00000000000E+00 -0.16427432785E+03  0.16427432785E+03  0.00000000000E+00 0.  1.
         25    1    1    2    0    0  0.21153473157E+03 -0.99397206055E+02  0.13092702312E+03  0.29562414079E+03  0.12500000000E+03 0.  0.
         25    1    1    2    0    0 -0.92404886713E+02  0.71156466576E+02  0.11102921378E+03  0.20384894441E+03  0.12500000000E+03 0.  0.
         25    1    1    2    0    0 -0.11912984485E+03  0.28240739479E+02  0.17998233870E+03  0.25101414611E+03  0.12500000000E+03 0.  0.
</event>
<event>
 5    0  0.5735425E-005  0.3685908E+03  0.7546771E-02  0.1055233E+00
         21   -1    0    0  502  501  0.00000000000E+00  0.00000000000E+00  0.53758571337E+03  0.53758571337E+03  0.00000000000E+00 0.  1.
         21   -1    0    0  501  502 -0.00000000000E+00 -0.00000000000E+00 -0.25272090541E+03  0.25272090541E+03  0.00000000000E+00 0. -1.
         25    1    1    2    0    0  0.63104538853E+02 -0.28109326149E+03  0.14834477341E+03  0.34731365691E+03  0.12500000000E+03 0.  0.
         25    1    1    2    0    0 -0.45895013384E+02  0.19027188389E+03 -0.56719070917E+01  0.23230779708E+03  0.12500000000E+03 0.  0.
         25    1    1    2    0    0 -0.17209525470E+02  0.90821377602E+02  0.14219194165E+03  0.21068516480E+03  0.12500000000E+03 0.  0.
</event>
<event>
 5    0  0.5735425E-005  0.3863913E+03  0.7546771E-02  0.1048596E+00
         21   -1    0    0  502  501  0.00000000000E+00  0.00000000000E+00  0.27028812511E+03  0.27028812511E+03  0.00000000000E+00 0. -1.
         21   -1    0    0  501  502 -0.00000000000E+00 -0.00000000000E+00 -0.55236708463E+03  0.55236708463E+03  0.00000000000E+00 0. -1.
         25    1    1    2    0    0 -0.83054867610E+02  0.18929834856E+03 -0.21356314636E+03  0.32243789059E+03  0.12500000000E+03 0.  0.
         25    1    1    2    0    0  0.23169705136E+03 -0.11496144189E+03 -0.47980758624E+02  0.29125042477E+03  0.12500000000E+03 0.  0.
         25    1    1    2    0    0 -0.14864218375E+03 -0.74336906675E+02 -0.20535054540E+02  0.20896689438E+03  0.12500000000E+03 0.  0.
</event>
<event>
 5    0  0.5735425E-005  0.2626750E+03  0.7546771E-02  0.1105547E+00
         21   -1    0    0  502  501  0.00000000000E+00  0.00000000000E+00  0.44998396546E+02  0.44998396546E+02  0.00000000000E+00 0.  1.
         21   -1    0    0  501  502 -0.00000000000E+00 -0.00000000000E+00 -0.15333474932E+04  0.15333474932E+04  0.00000000000E+00 0.  1.
         25    1    1    2    0    0  0.32895187453E+02 -0.19384680811E+02 -0.21896345739E+03  0.25500559774E+03  0.12500000000E+03 0.  0.
         25    1    1    2    0    0 -0.69454274581E+02  0.84001544952E+02 -0.29718726722E+03  0.34033134973E+03  0.12500000000E+03 0.  0.
         25    1    1    2    0    0  0.36559087128E+02 -0.64616864141E+02 -0.97219837200E+03  0.98300894223E+03  0.12500000000E+03 0.  0.
</event>
<event>
 5    0  0.5735425E-005  0.3190532E+03  0.7546771E-02  0.1076086E+00
         21   -1    0    0  502  501  0.00000000000E+00  0.00000000000E+00  0.93946155577E+03  0.93946155577E+03  0.00000000000E+00 0. -1.
         21   -1    0    0  501  502 -0.00000000000E+00 -0.00000000000E+00 -0.10835454815E+03  0.10835454815E+03  0.00000000000E+00 0. -1.
         25    1    1    2    0    0  0.33442266016E+02 -0.93844178622E+02  0.38332936218E+02  0.16437618142E+03  0.12500000000E+03 0.  0.
         25    1    1    2    0    0 -0.14324912223E+03 -0.15193380089E+02  0.40178037113E+03  0.44475118487E+03  0.12500000000E+03 0.  0.
         25    1    1    2    0    0  0.10980685621E+03  0.10903755871E+03  0.39099370027E+03  0.43868873764E+03  0.12500000000E+03 0.  0.
</event>
<event>
 5    0  0.5735425E-005  0.2338550E+03  0.7546771E-02  0.1123956E+00
         21   -1    0    0  502  501  0.00000000000E+00  0.00000000000E+00  0.94179881656E+02  0.94179881656E+02  0.00000000000E+00 0. -1.
         21   -1    0    0  501  502 -0.00000000000E+00 -0.00000000000E+00 -0.58067751531E+03  0.58067751531E+03  0.00000000000E+00 0. -1.
         25    1    1    2    0    0 -0.20608754670E+02 -0.11434474275E+03 -0.17877724006E+03  0.24715530042E+03  0.12500000000E+03 0.  0.
         25    1    1    2    0    0  0.13258892089E+02  0.43792696270E+01 -0.17024262086E+03  0.21166607234E+03  0.12500000000E+03 0.  0.
         25    1    1    2    0    0  0.73498625810E+01  0.10996547312E+03 -0.13747777273E+03  0.21603602420E+03  0.12500000000E+03 0.  0.
</event>
<event>
 5    0  0.5735425E-005  0.2594656E+03  0.7546771E-02  0.1107465E+00
         21   -1    0    0  502  501  0.00000000000E+00  0.00000000000E+00  0.57537940926E+03  0.57537940926E+03  0.00000000000E+00 0. -1.
         21   -1    0    0  501  502 -0.00000000000E+00 -0.00000000000E+00 -0.11700526494E+03  0.11700526494E+03  0.00000000000E+00 0. -1.
         25    1    1    2    0    0 -0.55383642154E+02  0.27211306967E+02  0.26458289031E+03  0.29906004228E+03  0.12500000000E+03 0.  0.
         25    1    1    2    0    0  0.69527434198E+02  0.15241743655E+02  0.21519345157E+03  0.25884280259E+03  0.12500000000E+03 0.  0.
         25    1    1    2    0    0 -0.14143792044E+02 -0.42453050621E+02 -0.21402197555E+02  0.13448182933E+03  0.12500000000E+03 0.  0.
</event>
<event>
 5    0  0.5735425E-005  0.3850611E+03  0.7546771E-02  0.1049079E+00
         21   -1    0    0  502  501  0.00000000000E+00  0.00000000000E+00  0.17890858023E+04  0.17890858023E+04  0.00000000000E+00 0. -1.
         21   -1    0    0  501  502 -0.00000000000E+00 -0.00000000000E+00 -0.82875885695E+02  0.82875885695E+02  0.00000000000E+00 0. -1.
         25    1    1    2    0    0 -0.44413531749E+02 -0.10867519692E+03  0.69384819092E+03  0.71472594207E+03  0.12500000000E+03 0.  0.
         25    1    1    2    0    0 -0.21420899817E+02  0.17568047098E+03  0.97185104157E+03  0.99571177046E+03  0.12500000000E+03 0.  0.
         25    1    1    2    0    0  0.65834431566E+02 -0.67005274062E+02  0.40510684157E+02  0.16152397550E+03  0.12500000000E+03 0.  0.
</event>
<event>
 5    0  0.5735425E-005  0.3354689E+03  0.7546771E-02  0.1068742E+00
         21   -1    0    0  502  501  0.00000000000E+00  0.00000000000E+00  0.73190310887E+03  0.73190310887E+03  0.00000000000E+00 0.  1.
         21   -1    0    0  501  502 -0.00000000000E+00 -0.00000000000E+00 -0.15376271051E+03  0.15376271051E+03  0.00000000000E+00 0.  1.
         25    1    1    2    0    0  0.36859920943E+02  0.71513121144E+02  0.79099907587E+02  0.16838816956E+03  0.12500000000E+03 0.  0.
         25    1    1    2    0    0 -0.21431444771E+03 -0.11238028562E+03  0.17029922676E+03  0.32122708126E+03  0.12500000000E+03 0.  0.
         25    1    1    2    0    0  0.17745452677E+03  0.40867164475E+02  0.32874126401E+03  0.39605056857E+03  0.12500000000E+03 0.  0.
</event>
<event>
 5    0  0.5735425E-005  0.3744924E+03  0.7546771E-02  0.1052988E+00
         21   -1    0    0  502  501  0.00000000000E+00  0.00000000000E+00  0.61646497807E+03  0.61646497807E+03  0.00000000000E+00 0.  1.
         21   -1    0    0  501  502 -0.00000000000E+00 -0.00000000000E+00 -0.22749800772E+03  0.22749800772E+03  0.00000000000E+00 0.  1.
         25    1    1    2    0    0 -0.62402782801E+01 -0.61786922048E+02  0.11593540504E+03  0.18144581271E+03  0.12500000000E+03 0.  0.
         25    1    1    2    0    0 -0.10362226627E+03  0.10785099684E+03 -0.12299519381E+03  0.23048260083E+03  0.12500000000E+03 0.  0.
         25    1    1    2    0    0  0.10986254455E+03 -0.46064074790E+02  0.39602675912E+03  0.43203457225E+03  0.12500000000E+03 0.  0.
</event>
<event>
 5    0  0.5735425E-005  0.3502393E+03  0.7546771E-02  0.1062517E+00
         21   -1    0    0  502  501  0.00000000000E+00  0.00000000000E+00  0.15523811930E+03  0.15523811930E+03  0.00000000000E+00 0.  1.
         21   -1    0    0  501  502 -0.00000000000E+00 -0.00000000000E+00 -0.79018955369E+03  0.79018955369E+03  0.00000000000E+00 0.  1.
         25    1    1    2    0    0 -0.79605168002E+02  0.11812146019E+03 -0.48035598067E+03  0.51638796490E+03  0.12500000000E+03 0.  0.
         25    1    1    2    0    0  0.13745364917E+03 -0.14016097546E+03 -0.17388483756E+02  0.23337944228E+03  0.12500000000E+03 0.  0.
         25    1    1    2    0    0 -0.57848481167E+02  0.22039515271E+02 -0.13720696997E+03  0.19566026580E+03  0.12500000000E+03 0.  0.
</event>
<event>
 5    0  0.5735425E-005  0.3357839E+03  0.7546771E-02  0.1068606E+00
         21   -1    0    0  502  501  0.00000000000E+00  0.00000000000E+00  0.35260060888E+03  0.35260060888E+03  0.00000000000E+00 0. -1.
         21   -1    0    0  501  502 -0.00000000000E+00 -0.00000000000E+00 -0.31976916158E+03  0.31976916158E+03  0.00000000000E+00 0. -1.
         25    1    1    2    0    0 -0.10916924269E+03 -0.16952381118E+03 -0.13374181594E+03  0.27233824454E+03  0.12500000000E+03 0.  0.
         25    1    1    2    0    0  0.54598401940E+02  0.16182713912E+03  0.15616902823E+03  0.26302618468E+03  0.12500000000E+03 0.  0.
         25    1    1    2    0    0  0.54570840752E+02  0.76966720594E+01  0.10404235016E+02  0.13700534124E+03  0.12500000000E+03 0.  0.
</event>
<event>
 5    0  0.5735425E-005  0.3078562E+03  0.7546771E-02  0.1081378E+00
         21   -1    0    0  502  501  0.00000000000E+00  0.00000000000E+00  0.12329969373E+03  0.12329969373E+03  0.00000000000E+00 0.  1.
         21   -1    0    0  501  502 -0.00000000000E+00 -0.00000000000E+00 -0.76865937339E+03  0.76865937339E+03  0.00000000000E+00 0.  1.
         25    1    1    2    0    0 -0.78574952435E+02 -0.20460151450E+01 -0.39537441415E+03  0.42204755264E+03  0.12500000000E+03 0.  0.
         25    1    1    2    0    0  0.58845807894E+02 -0.14581486132E+03 -0.15274490537E+03  0.25235056767E+03  0.12500000000E+03 0.  0.
         25    1    1    2    0    0  0.19729144540E+02  0.14786087647E+03 -0.97240360142E+02  0.21756094680E+03  0.12500000000E+03 0.  0.
</event>
<event>
 5    0  0.5735425E-005  0.4571938E+03  0.7546771E-02  0.1025598E+00
         21   -1    0    0  502  501  0.00000000000E+00  0.00000000000E+00  0.20068490768E+03  0.20068490768E+03  0.00000000000E+00 0.  1.
         21   -1    0    0  501  502 -0.00000000000E+00 -0.00000000000E+00 -0.10415637993E+04  0.10415637993E+04  0.00000000000E+00 0.  1.
         25    1    1    2    0    0  0.21755930505E+03  0.63955824191E+02 -0.64747357351E+03  0.69733021378E+03  0.12500000000E+03 0.  0.
         25    1    1    2    0    0  0.51819139973E+02  0.39046937539E+02 -0.18234427548E+03  0.23040035026E+03  0.12500000000E+03 0.  0.
         25    1    1    2    0    0 -0.26937844503E+03 -0.10300276173E+03 -0.11061042615E+02  0.31451814293E+03  0.12500000000E+03 0.  0.
</event>
<event>
 5    0  0.5735425E-005  0.2676193E+03  0.7546771E-02  0.1102650E+00
         21   -1    0    0  502  501  0.00000000000E+00  0.00000000000E+00  0.41215892321E+03  0.41215892321E+03  0.00000000000E+00 0.  1.
         21   -1    0    0  501  502 -0.00000000000E+00 -0.00000000000E+00 -0.17376818079E+03  0.17376818079E+03  0.00000000000E+00 0.  1.
         25    1    1    2    0    0 -0.19434471463E+02  0.74499478689E+02  0.48129150873E+02  0.15449688078E+03  0.12500000000E+03 0.  0.
         25    1    1    2    0    0  0.14816191577E+03 -0.63060738419E+02  0.71823960507E+02  0.21613026470E+03  0.12500000000E+03 0.  0.
         25    1    1    2    0    0 -0.12872744431E+03 -0.11438740270E+02  0.11843763103E+03  0.21529995853E+03  0.12500000000E+03 0.  0.
</event>
<event>
 5    0  0.5735425E-005  0.2147582E+03  0.7546771E-02  0.1137852E+00
         21   -1    0    0  502  501  0.00000000000E+00  0.00000000000E+00  0.81868626913E+03  0.81868626913E+03  0.00000000000E+00 0. -1.
         21   -1    0    0  501  502 -0.00000000000E+00 -0.00000000000E+00 -0.56335478483E+02  0.56335478483E+02  0.00000000000E+00 0. -1.
         25    1    1    2    0    0 -0.42965992015E+02  0.63875483845E+00  0.40613403528E+03  0.42710225835E+03  0.12500000000E+03 0.  0.
         25    1    1    2    0    0  0.40747588216E+02 -0.39663438278E+02  0.21680947317E+03  0.25664158263E+03  0.12500000000E+03 0.  0.
         25    1    1    2    0    0  0.22184037985E+01  0.39024683439E+02  0.13940728220E+03  0.19127790662E+03  0.12500000000E+03 0.  0.
</event>
<event>
 5    0  0.5735425E-005  0.2399673E+03  0.7546771E-02  0.1119815E+00
         21   -1    0    0  502  501  0.00000000000E+00  0.00000000000E+00  0.13450670370E+03  0.13450670370E+03  0.00000000000E+00 0. -1.
         21   -1    0    0  501  502 -0.00000000000E+00 -0.00000000000E+00 -0.42811490011E+03  0.42811490011E+03  0.00000000000E+00 0. -1.
         25    1    1    2    0    0 -0.57439663375E+02 -0.47192583825E+02 -0.23683605972E+03  0.27792584277E+03  0.12500000000E+03 0.  0.
         25    1    1    2    0    0  0.56226082659E+02 -0.17420921101E+02 -0.31828173146E+02  0.14178467290E+03  0.12500000000E+03 0.  0.
         25    1    1    2    0    0  0.12135807165E+01  0.64613504926E+02 -0.24943963542E+02  0.14291108814E+03  0.12500000000E+03 0.  0.
</event>
<event>
 5    0  0.5735425E-005  0.3525433E+03  0.7546771E-02  0.1061576E+00
         21   -1    0    0  502  501  0.00000000000E+00  0.00000000000E+00  0.12051670157E+03  0.12051670157E+03  0.00000000000E+00 0. -1.
         21   -1    0    0  501  502 -0.00000000000E+00 -0.00000000000E+00 -0.10312827985E+04  0.10312827985E+04  0.00000000000E+00 0. -1.
         25    1    1    2    0    0  0.11933006639E+03 -0.48733110954E+02 -0.47899005228E+03  0.51153792726E+03  0.12500000000E+03 0.  0.
         25    1    1    2    0    0  0.12781227231E+03  0.75891210253E+02 -0.18798793523E+03  0.27029597951E+03  0.12500000000E+03 0.  0.
         25    1    1    2    0    0 -0.24714233870E+03 -0.27158099299E+02 -0.24378810945E+03  0.36996559332E+03  0.12500000000E+03 0.  0.
</event>
<event>
 5    0  0.5735425E-005  0.3566717E+03  0.7546771E-02  0.1059910E+00
         21   -1    0    0  502  501  0.00000000000E+00  0.00000000000E+00  0.33164225087E+03  0.33164225087E+03  0.00000000000E+00 0.  1.
         21   -1    0    0  501  502 -0.00000000000E+00 -0.00000000000E+00 -0.38359005437E+03  0.38359005437E+03  0.00000000000E+00 0.  1.
         25    1    1    2    0    0 -0.92643147800E+02  0.81963243163E+02 -0.81097914551E+02  0.19365587471E+03  0.12500000000E+03 0.  0.
         25    1    1    2    0    0  0.13916071900E+03 -0.24541326891E+03 -0.25861322378E+00  0.30857486150E+03  0.12500000000E+03 0.  0.
         25    1    1    2    0    0 -0.46517571203E+02  0.16345002574E+03  0.29408724273E+02  0.21300156903E+03  0.12500000000E+03 0.  0.
</event>
<event>
 5    0  0.5735425E-005  0.2780158E+03  0.7546771E-02  0.1096778E+00
         21   -1    0    0  502  501  0.00000000000E+00  0.00000000000E+00  0.14994733143E+04  0.14994733143E+04  0.00000000000E+00 0.  1.
         21   -1    0    0  501  502 -0.00000000000E+00 -0.00000000000E+00 -0.51546622200E+02  0.51546622200E+02  0.00000000000E+00 0.  1.
         25    1    1    2    0    0 -0.23392323786E+02  0.11139207128E+02  0.55117766688E+03  0.56576771136E+03  0.12500000000E+03 0.  0.
         25    1    1    2    0    0 -0.14740286200E+03 -0.29412320060E+02  0.41474922635E+03  0.45851347751E+03  0.12500000000E+03 0.  0.
         25    1    1    2    0    0  0.17079518579E+03  0.18273112932E+02  0.48199979882E+03  0.52673874759E+03  0.12500000000E+03 0.  0.
</event>
<event>
 5    0  0.5735425E-005  0.3307315E+03  0.7546771E-02  0.1070814E+00
         21   -1    0    0  502  501  0.00000000000E+00  0.00000000000E+00  0.14084619841E+04  0.14084619841E+04  0.00000000000E+00 0.  1.
         21   -1    0    0  501  502 -0.00000000000E+00 -0.00000000000E+00 -0.77661553883E+02  0.77661553883E+02  0.00000000000E+00 0.  1.
         25    1    1    2    0    0  0.95774862945E+02  0.32347758230E+02  0.16041652448E+03  0.22710716228E+03  0.12500000000E+03 0.  0.
         25    1    1    2    0    0 -0.34753809003E+02  0.28530122842E+02  0.73788623147E+02  0.15195906046E+03  0.12500000000E+03 0.  0.
         25    1    1    2    0    0 -0.61021053942E+02 -0.60877881071E+02  0.10965952825E+04  0.11070573152E+04  0.12500000000E+03 0.  0.
</event>
<event>
 5    0  0.5735425E-005  0.4392151E+03  0.7546771E-02  0.1030988E+00
         21   -1    0    0  502  501  0.00000000000E+00  0.00000000000E+00  0.97002933143E+03  0.97002933143E+03  0.00000000000E+00 0.  1.
         21   -1    0    0  501  502 -0.00000000000E+00 -0.00000000000E+00 -0.19887021836E+03  0.19887021836E+03  0.00000000000E+00 0.  1.
         25    1    1    2    0    0  0.15997471163E+03  0.16124094937E+03  0.51854061395E+03  0.57974125300E+03  0.12500000000E+03 0.  0.
         25    1    1    2    0    0 -0.18973264232E+03 -0.27428954257E+03  0.20733610776E+03  0.41212436267E+03  0.12500000000E+03 0.  0.
         25    1    1    2    0    0  0.29757930691E+02  0.11304859320E+03  0.45282391358E+02  0.17703393412E+03  0.12500000000E+03 0.  0.
</event>
<event>
 5    0  0.5735425E-005  0.3427182E+03  0.7546771E-02  0.1065644E+00
         21   -1    0    0  502  501  0.00000000000E+00  0.00000000000E+00  0.14854816212E+03  0.14854816212E+03  0.00000000000E+00 0. -1.
         21   -1    0    0  501  502 -0.00000000000E+00 -0.00000000000E+00 -0.79069126082E+03  0.79069126082E+03  0.00000000000E+00 0. -1.
         25    1    1    2    0    0 -0.14075743501E+03 -0.25686162860E+02 -0.27534217783E+02  0.19197803943E+03  0.12500000000E+03 0.  0.
         25    1    1    2    0    0  0.17110909736E+03  0.10563516689E+03 -0.21465433503E+03  0.31959129405E+03  0.12500000000E+03 0.  0.
         25    1    1    2    0    0 -0.30351662349E+02 -0.79949004030E+02 -0.39995454589E+03  0.42767008947E+03  0.12500000000E+03 0.  0.
</event>
<event>
 5    0  0.5735425E-005  0.3012688E+03  0.7546771E-02  0.1084608E+00
         21   -1    0    0  502  501  0.00000000000E+00  0.00000000000E+00  0.68386950645E+02  0.68386950645E+02  0.00000000000E+00 0.  1.
         21   -1    0    0  501  502 -0.00000000000E+00 -0.00000000000E+00 -0.13271962827E+04  0.13271962827E+04  0.00000000000E+00 0.  1.
         25    1    1    2    0    0 -0.17468231682E+03 -0.30227026834E+02 -0.33955755502E+03  0.40292917260E+03  0.12500000000E+03 0.  0.
         25    1    1    2    0    0  0.15529563186E+03  0.82705858920E+02 -0.38751522354E+03  0.44356514837E+03  0.12500000000E+03 0.  0.
         25    1    1    2    0    0  0.19386684955E+02 -0.52478832086E+02 -0.53173655347E+03  0.54908891235E+03  0.12500000000E+03 0.  0.
</event>
<event>
 5    0  0.5735425E-005  0.2643159E+03  0.7546771E-02  0.1104578E+00
         21   -1    0    0  502  501  0.00000000000E+00  0.00000000000E+00  0.54485078142E+03  0.54485078142E+03  0.00000000000E+00 0.  1.
         21   -1    0    0  501  502 -0.00000000000E+00 -0.00000000000E+00 -0.12822387911E+03  0.12822387911E+03  0.00000000000E+00 0.  1.
         25    1    1    2    0    0 -0.13896934239E+03 -0.11163036364E+03  0.13933306202E+03  0.25848117607E+03  0.12500000000E+03 0.  0.
         25    1    1    2    0    0  0.82950659793E+02  0.61050550741E+02  0.15380295783E+03  0.22335695992E+03  0.12500000000E+03 0.  0.
         25    1    1    2    0    0  0.56018682598E+02  0.50579812896E+02  0.12349088246E+03  0.19123652456E+03  0.12500000000E+03 0.  0.
</event>
<event>
 5    0  0.5735425E-005  0.3239253E+03  0.7546771E-02  0.1073857E+00
         21   -1    0    0  502  501  0.00000000000E+00  0.00000000000E+00  0.13311106855E+03  0.13311106855E+03  0.00000000000E+00 0. -1.
         21   -1    0    0  501  502 -0.00000000000E+00 -0.00000000000E+00 -0.78827084149E+03  0.78827084149E+03  0.00000000000E+00 0. -1.
         25    1    1    2    0    0  0.20201156376E+03  0.72594188601E+02 -0.25470910226E+03  0.35578127394E+03  0.12500000000E+03 0.  0.
         25    1    1    2    0    0 -0.32541767294E+02 -0.99701051757E+02 -0.27276363350E+03  0.31784314701E+03  0.12500000000E+03 0.  0.
         25    1    1    2    0    0 -0.16946979646E+03  0.27106863156E+02 -0.12768703718E+03  0.24775748910E+03  0.12500000000E+03 0.  0.
</event>
<event>
 5    0  0.5735425E-005  0.5282396E+03  0.7546771E-02  0.1006660E+00
         21   -1    0    0  502  501  0.00000000000E+00  0.00000000000E+00  0.33969649125E+03  0.33969649125E+03  0.00000000000E+00 0. -1.
         21   -1    0    0  501  502 -0.00000000000E+00 -0.00000000000E+00 -0.82143040161E+03  0.82143040161E+03  0.00000000000E+00 0. -1.
         25    1    1    2    0    0 -0.14629264474E+03 -0.71033319450E+02 -0.31054003577E+03  0.37216580203E+03  0.12500000000E+03 0.  0.
         25    1    1    2    0    0 -0.18230141262E+03  0.46627599639E+02 -0.33202081353E+03  0.40158530689E+03  0.12500000000E+03 0.  0.
         25    1    1    2    0    0  0.32859405736E+03  0.24405719811E+02  0.16082693895E+03  0.38737578394E+03  0.12500000000E+03 0.  0.
</event>
<event>
 5    0  0.5735425E-005  0.4735837E+03  0.7546771E-02  0.1020914E+00
         21   -1    0    0  502  501  0.00000000000E+00  0.00000000000E+00  0.18423695716E+03  0.18423695716E+03  0.00000000000E+00 0. -1.
         21   -1    0    0  501  502 -0.00000000000E+00 -0.00000000000E+00 -0.12173537568E+04  0.12173537568E+04  0.00000000000E+00 0. -1.
         25    1    1    2    0    0 -0.19195936343E+03  0.71465350310E+02 -0.41206525390E+03  0.47684218246E+03  0.12500000000E+03 0.  0.
         25    1    1    2    0    0 -0.18188932059E+03  0.53877635171E+02 -0.74025373027E+02  0.23893781695E+03  0.12500000000E+03 0.  0.
         25    1    1    2    0    0  0.37384868403E+03 -0.12534298548E+03 -0.54702617273E+03  0.68581071456E+03  0.12500000000E+03 0.  0.
</event>
<event>
 5    0  0.5735425E-005  0.3769169E+03  0.7546771E-02  0.1052079E+00
         21   -1    0    0  502  501  0.00000000000E+00  0.00000000000E+00  0.69636549999E+03  0.69636549999E+03  0.00000000000E+00 0.  1.
         21   -1    0    0  501  502 -0.00000000000E+00 -0.00000000000E+00 -0.20401120248E+03  0.20401120248E+03  0.00000000000E+00 0.  1.
         25    1    1    2    0    0 -0.52706163437E+01  0.97726715188E+02  0.18937106897E+03  0.24711271116E+03  0.12500000000E+03 0.  0.
         25    1    1    2    0    0 -0.48261992497E+02  0.12080897351E+03  0.34798391369E+03  0.39197172371E+03  0.12500000000E+03 0.  0.
         25    1    1    2    0    0  0.53532608840E+02 -0.21853568870E+03 -0.45000685146E+02  0.26129226760E+03  0.12500000000E+03 0.  0.
</event>
<event>
 5    0  0.5735425E-005  0.2658822E+03  0.7546771E-02  0.1103660E+00
         21   -1    0    0  502  501  0.00000000000E+00  0.00000000000E+00  0.52550333034E+02  0.52550333034E+02  0.00000000000E+00 0. -1.
         21   -1    0    0  501  502 -0.00000000000E+00 -0.00000000000E+00 -0.13452498736E+04  0.13452498736E+04  0.00000000000E+00 0. -1.
         25    1    1    2    0    0  0.13072300544E+03 -0.95385688051E+02 -0.45013478211E+03  0.49440191717E+03  0.12500000000E+03 0.  0.
         25    1    1    2    0    0 -0.10057827837E+02  0.74804441874E+02 -0.30648584530E+03  0.33949291273E+03  0.12500000000E+03 0.  0.
         25    1    1    2    0    0 -0.12066517760E+03  0.20581246178E+02 -0.53607891313E+03  0.56390537671E+03  0.12500000000E+03 0.  0.
</event>
<event>
 5    0  0.5735425E-005  0.3994521E+03  0.7546771E-02  0.1043970E+00
         21   -1    0    0  502  501  0.00000000000E+00  0.00000000000E+00  0.23385122177E+03  0.23385122177E+03  0.00000000000E+00 0. -1.
         21   -1    0    0  501  502 -0.00000000000E+00 -0.00000000000E+00 -0.68232248903E+03  0.68232248903E+03  0.00000000000E+00 0. -1.
         25    1    1    2    0    0  0.13892068948E+03 -0.66921077627E+02 -0.17166635362E+03  0.26243423092E+03  0.12500000000E+03 0.  0.
         25    1    1    2    0    0 -0.49088913688E+02 -0.21543541410E+03 -0.19979930831E+03  0.32305866758E+03  0.12500000000E+03 0.  0.
         25    1    1    2    0    0 -0.89831775789E+02  0.28235649173E+03 -0.77005605330E+02  0.33068081229E+03  0.12500000000E+03 0.  0.
</event>
<event>
 5    0  0.5735425E-005  0.3006847E+03  0.7546771E-02  0.1084899E+00
         21   -1    0    0  502  501  0.00000000000E+00  0.00000000000E+00  0.56209388392E+03  0.56209388392E+03  0.00000000000E+00 0.  1.
         21   -1    0    0  501  502 -0.00000000000E+00 -0.00000000000E+00 -0.16084727166E+03  0.16084727166E+03  0.00000000000E+00 0.  1.
         25    1    1    2    0    0  0.45799162665E+02 -0.14415737264E+03  0.19715992321E+03  0.27816532262E+03  0.12500000000E+03 0.  0.
         25    1    1    2    0    0 -0.12862521855E+02  0.13345591367E+03 -0.21495075489E+02  0.18456154429E+03  0.12500000000E+03 0.  0.
         25    1    1    2    0    0 -0.32936640810E+02  0.10701458975E+02  0.22558176454E+03  0.26021428867E+03  0.12500000000E+03 0.  0.
</event>
<event>
 5    0  0.5735425E-005  0.3046700E+03  0.7546771E-02  0.1082929E+00
         21   -1    0    0  502  501  0.00000000000E+00  0.00000000000E+00  0.97705862080E+02  0.97705862080E+02  0.00000000000E+00 0. -1.
         21   -1    0    0  501  502 -0.00000000000E+00 -0.00000000000E+00 -0.95003311733E+03  0.95003311733E+03  0.00000000000E+00 0. -1.
         25    1    1    2    0    0  0.36043767337E+02 -0.17738376693E+03 -0.52392559560E+03  0.56823162853E+03  0.12500000000E+03 0.  0.
         25    1    1    2    0    0  0.26532914118E+02  0.28811194342E+02 -0.64668404274E+02  0.14608587530E+03  0.12500000000E+03 0.  0.
         25    1    1    2    0    0 -0.62576681455E+02  0.14857257259E+03 -0.26373325538E+03  0.33342147558E+03  0.12500000000E+03 0.  0.
</event>
<event>
 5    0  0.5735425E-005  0.2972729E+03  0.7546771E-02  0.1086612E+00
         21   -1    0    0  502  501  0.00000000000E+00  0.00000000000E+00  0.34231563264E+03  0.34231563264E+03  0.00000000000E+00 0. -1.
         21   -1    0    0  501  502 -0.00000000000E+00 -0.00000000000E+00 -0.25815704054E+03  0.25815704054E+03  0.00000000000E+00 0. -1.
         25    1    1    2    0    0 -0.81574110209E+02  0.50802508434E+02 -0.65928319092E+01  0.15780904838E+03  0.12500000000E+03 0.  0.
         25    1    1    2    0    0  0.80903669625E+02 -0.97198107654E+02 -0.10448628032E+03  0.20624077838E+03  0.12500000000E+03 0.  0.
         25    1    1    2    0    0  0.67044058372E+00  0.46395599220E+02  0.19523770433E+03  0.23642284642E+03  0.12500000000E+03 0.  0.
</event>
<event>
 5    0  0.5735425E-005  0.2711495E+03  0.7546771E-02  0.1100623E+00
         21   -1    0    0  502  501  0.00000000000E+00  0.00000000000E+00  0.69070864750E+03  0.69070864750E+03  0.00000000000E+00 0.  1.
         21   -1    0    0  501  502 -0.00000000000E+00 -0.00000000000E+00 -0.10644440574E+03  0.10644440574E+03  0.00000000000E+00 0.  1.
         25    1    1    2    0    0 -0.17121291046E+02  0.99340537209E+02  0.16411915029E+03  0.22961223058E+03  0.12500000000E+03 0.  0.
         25    1    1    2    0    0 -0.12586235842E+03 -0.51646010192E+02  0.22432384771E+03  0.29061113587E+03  0.12500000000E+03 0.  0.
         25    1    1    2    0    0  0.14298364947E+03 -0.47694527017E+02  0.19582124376E+03  0.27692968680E+03  0.12500000000E+03 0.  0.
</event>
<event>
 5    0  0.5735425E-005  0.2825951E+03  0.7546771E-02  0.1094280E+00
         21   -1    0    0  502  501  0.00000000000E+00  0.00000000000E+00  0.32613570902E+03  0.32613570902E+03  0.00000000000E+00 0.  1.
         21   -1    0    0  501  502 -0.00000000000E+00 -0.00000000000E+00 -0.24486742724E+03  0.24486742724E+03  0.00000000000E+00 0.  1.
         25    1    1    2    0    0 -0.21207950770E+01  0.18221101464E+03  0.19875588019E+02  0.22186795764E+03  0.12500000000E+03 0.  0.
         25    1    1    2    0    0  0.34390116841E+02 -0.24040504943E+02 -0.11478367770E+02  0.13235323548E+03  0.12500000000E+03 0.  0.
         25    1    1    2    0    0 -0.32269321764E+02 -0.15817050970E+03  0.72871061529E+02  0.21678194315E+03  0.12500000000E+03 0.  0.
</event>
<event>
 5    0  0.5735425E-005  0.2935012E+03  0.7546771E-02  0.1088535E+00
         21   -1    0    0  502  501  0.00000000000E+00  0.00000000000E+00  0.57748843086E+03  0.57748843086E+03  0.00000000000E+00 0. -1.
         21   -1    0    0  501  502 -0.00000000000E+00 -0.00000000000E+00 -0.14916824285E+03  0.14916824285E+03  0.00000000000E+00 0. -1.
         25    1    1    2    0    0  0.18059961124E+02 -0.44096501880E+02  0.15880149813E+03  0.20763809737E+03  0.12500000000E+03 0.  0.
         25    1    1    2    0    0  0.85759561412E+02  0.14874891550E+03  0.35208249800E+02  0.21528019670E+03  0.12500000000E+03 0.  0.
         25    1    1    2    0    0 -0.10381952254E+03 -0.10465241362E+03  0.23431044008E+03  0.30373837964E+03  0.12500000000E+03 0.  0.
</event>
<event>
 5    0  0.5735425E-005  0.4641426E+03  0.7546771E-02  0.1023587E+00
         21   -1    0    0  502  501  0.00000000000E+00  0.00000000000E+00  0.66938595461E+03  0.66938595461E+03  0.00000000000E+00 0. -1.
         21   -1    0    0  501  502 -0.00000000000E+00 -0.00000000000E+00 -0.32182984310E+03  0.32182984310E+03  0.00000000000E+00 0. -1.
         25    1    1    2    0    0 -0.24366391482E+03  0.21383408670E+03  0.17202014837E+03  0.38770227168E+03  0.12500000000E+03 0.  0.
         25    1    1    2    0    0  0.34444733302E+03 -0.13952312996E+03  0.16758612110E+03  0.42640447583E+03  0.12500000000E+03 0.  0.
         25    1    1    2    0    0 -0.10078341820E+03 -0.74310956739E+02  0.79498420289E+01  0.17710905021E+03  0.12500000000E+03 0.  0.
</event>
<event>
 5    0  0.5735425E-005  0.2753426E+03  0.7546771E-02  0.1098260E+00
         21   -1    0    0  502  501  0.00000000000E+00  0.00000000000E+00  0.46914945623E+03  0.46914945623E+03  0.00000000000E+00 0.  1.
         21   -1    0    0  501  502 -0.00000000000E+00 -0.00000000000E+00 -0.16159781420E+03  0.16159781420E+03  0.00000000000E+00 0.  1.
         25    1    1    2    0    0 -0.11131253138E+03 -0.12154875416E+02  0.10151583054E+03  0.19613435316E+03  0.12500000000E+03 0.  0.
         25    1    1    2    0    0 -0.81304374775E+02  0.29430415029E+02  0.72137690988E+02  0.16824207900E+03  0.12500000000E+03 0.  0.
         25    1    1    2    0    0  0.19261690615E+03 -0.17275539613E+02  0.13389812050E+03  0.26637083826E+03  0.12500000000E+03 0.  0.
</event>
<event>
 5    0  0.5735425E-005  0.4732877E+03  0.7546771E-02  0.1020996E+00
         21   -1    0    0  502  501  0.00000000000E+00  0.00000000000E+00  0.36006635587E+03  0.36006635587E+03  0.00000000000E+00 0.  1.
         21   -1    0    0  501  502 -0.00000000000E+00 -0.00000000000E+00 -0.62211095197E+03  0.62211095197E+03  0.00000000000E+00 0.  1.
         25    1    1    2    0    0  0.26474745834E+02  0.36402883494E+02 -0.10687596395E+03  0.17050968818E+03  0.12500000000E+03 0.  0.
         25    1    1    2    0    0 -0.13437377078E+03 -0.33111495531E+03 -0.25848420056E+03  0.45840212243E+03  0.12500000000E+03 0.  0.
         25    1    1    2    0    0  0.10789902495E+03  0.29471207182E+03  0.10331556840E+03  0.35326549723E+03  0.12500000000E+03 0.  0.
</event>
<event>
 5    0  0.5735425E-005  0.2741141E+03  0.7546771E-02  0.1098948E+00
         21   -1    0    0  502  501  0.00000000000E+00  0.00000000000E+00  0.18407851209E+03  0.18407851209E+03  0.00000000000E+00 0.  1.
         21   -1    0    0  501  502 -0.00000000000E+00 -0.00000000000E+00 -0.40818760029E+03  0.40818760029E+03  0.00000000000E+00 0.  1.
         25    1    1    2    0    0 -0.11095350209E+03 -0.56205092750E+02  0.14231191063E+02  0.17691020003E+03  0.12500000000E+03 0.  0.
         25    1    1    2    0    0  0.51873596204E+02  0.12175264191E+03 -0.93436768679E+02  0.20462161551E+03  0.12500000000E+03 0.  0.
         25    1    1    2    0    0  0.59079905885E+02 -0.65547549156E+02 -0.14490351059E+03  0.21073429683E+03  0.12500000000E+03 0.  0.
</event>
<event>
 5    0  0.5735425E-005  0.2388568E+03  0.7546771E-02  0.1120557E+00
         21   -1    0    0  502  501  0.00000000000E+00  0.00000000000E+00  0.47264667932E+02  0.47264667932E+02  0.00000000000E+00 0. -1.
         21   -1    0    0  501  502 -0.00000000000E+00 -0.00000000000E+00 -0.12070866390E+04  0.12070866390E+04  0.00000000000E+00 0. -1.
         25    1    1    2    0    0 -0.86397997689E+02 -0.24648456645E+01 -0.16624889596E+03  0.22524294634E+03  0.12500000000E+03 0.  0.
         25    1    1    2    0    0  0.48136584461E+02  0.82689437629E+00 -0.58449879687E+03  0.59965128038E+03  0.12500000000E+03 0.  0.
         25    1    1    2    0    0  0.38261413228E+02  0.16379512882E+01 -0.40907427824E+03  0.42945708021E+03  0.12500000000E+03 0.  0.
</event>
<event>
 5    0  0.5735425E-005  0.4652357E+03  0.7546771E-02  0.1023274E+00
         21   -1    0    0  502  501  0.00000000000E+00  0.00000000000E+00  0.12434724441E+03  0.12434724441E+03  0.00000000000E+00 0. -1.
         21   -1    0    0  501  502 -0.00000000000E+00 -0.00000000000E+00 -0.17406436065E+04  0.17406436065E+04  0.00000000000E+00 0. -1.
         25    1    1    2    0    0 -0.11670415236E+02 -0.32092917309E+02 -0.32277381577E+03  0.34781329773E+03  0.12500000000E+03 0.  0.
         25    1    1    2    0    0 -0.97639167127E+02  0.37529348776E+03 -0.74559577551E+03  0.84965679505E+03  0.12500000000E+03 0.  0.
         25    1    1    2    0    0  0.10930958236E+03 -0.34320057045E+03 -0.54792677077E+03  0.66752075809E+03  0.12500000000E+03 0.  0.
</event>
<event>
 5    0  0.5735425E-005  0.2910859E+03  0.7546771E-02  0.1089784E+00
         21   -1    0    0  502  501  0.00000000000E+00  0.00000000000E+00  0.66175535608E+02  0.66175535608E+02  0.00000000000E+00 0. -1.
         21   -1    0    0  501  502 -0.00000000000E+00 -0.00000000000E+00 -0.12803972293E+04  0.12803972293E+04  0.00000000000E+00 0. -1.
         25    1    1    2    0    0  0.64620430041E+01  0.30528367737E+01 -0.92563933203E+03  0.93406865423E+03  0.12500000000E+03 0.  0.
         25    1    1    2    0    0 -0.13157126264E+01  0.75210830290E+02 -0.16279408866E+03  0.21859852561E+03  0.12500000000E+03 0.  0.
         25    1    1    2    0    0 -0.51463303777E+01 -0.78263667063E+02 -0.12578827299E+03  0.19390558507E+03  0.12500000000E+03 0.  0.
</event>
<event>
 5    0  0.5735425E-005  0.2814975E+03  0.7546771E-02  0.1094874E+00
         21   -1    0    0  502  501  0.00000000000E+00  0.00000000000E+00  0.47499289595E+02  0.47499289595E+02  0.00000000000E+00 0.  1.
         21   -1    0    0  501  502 -0.00000000000E+00 -0.00000000000E+00 -0.16682535920E+04  0.16682535920E+04  0.00000000000E+00 0.  1.
         25    1    1    2    0    0  0.78949008092E+02 -0.85343734698E+01 -0.54357072005E+03  0.56338256017E+03  0.12500000000E+03 0.  0.
         25    1    1    2    0    0 -0.16281120762E+03 -0.20699008392E+02 -0.32672658237E+03  0.38640807173E+03  0.12500000000E+03 0.  0.
         25    1    1    2    0    0  0.83862199523E+02  0.29233381862E+02 -0.75045699998E+03  0.76596224968E+03  0.12500000000E+03 0.  0.
</event>
<event>
 5    0  0.5735425E-005  0.2729526E+03  0.7546771E-02  0.1099602E+00
         21   -1    0    0  502  501  0.00000000000E+00  0.00000000000E+00  0.11632331785E+04  0.11632331785E+04  0.00000000000E+00 0. -1.
         21   -1    0    0  501  502 -0.00000000000E+00 -0.00000000000E+00 -0.64048322071E+02  0.64048322071E+02  0.00000000000E+00 0. -1.
         25    1    1    2    0    0  0.40547766178E+02 -0.10312263100E+03  0.68795082649E+03  0.70794049046E+03  0.12500000000E+03 0.  0.
         25    1    1    2    0    0 -0.37152509062E+02  0.27355084408E+02  0.32093378463E+03  0.34749403404E+03  0.12500000000E+03 0.  0.
         25    1    1    2    0    0 -0.33952571159E+01  0.75767546590E+02  0.90300245331E+02  0.17184697610E+03  0.12500000000E+03 0.  0.
</event>
<event>
 5    0  0.5735425E-005  0.2488522E+03  0.7546771E-02  0.1114032E+00
         21   -1    0    0  502  501  0.00000000000E+00  0.00000000000E+00  0.19829807741E+03  0.19829807741E+03  0.00000000000E+00 0.  1.
         21   -1    0    0  501  502 -0.00000000000E+00 -0.00000000000E+00 -0.31229466007E+03  0.31229466007E+03  0.00000000000E+00 0.  1.
         25    1    1    2    0    0  0.27520261646E+02 -0.47196285371E+02 -0.54299220890E+02  0.14682731198E+03  0.12500000000E+03 0.  0.
         25    1    1    2    0    0  0.42286052007E+02  0.13029987371E+03  0.62929540793E+01  0.18555529783E+03  0.12500000000E+03 0.  0.
         25    1    1    2    0    0 -0.69806313652E+02 -0.83103588336E+02 -0.65990315847E+02  0.17821012767E+03  0.12500000000E+03 0.  0.
</event>
<event>
 5    0  0.5735425E-005  0.2218964E+03  0.7546771E-02  0.1132477E+00
         21   -1    0    0  502  501  0.00000000000E+00  0.00000000000E+00  0.12460143207E+03  0.12460143207E+03  0.00000000000E+00 0. -1.
         21   -1    0    0  501  502 -0.00000000000E+00 -0.00000000000E+00 -0.39516419853E+03  0.39516419853E+03  0.00000000000E+00 0. -1.
         25    1    1    2    0    0 -0.82295936290E+02  0.22793627374E+02 -0.16289433842E+03  0.22237746304E+03  0.12500000000E+03 0.  0.
         25    1    1    2    0    0  0.33265498225E+02  0.26267726173E+02 -0.32756023453E+02  0.13599464652E+03  0.12500000000E+03 0.  0.
         25    1    1    2    0    0  0.49030438064E+02 -0.49061353548E+02 -0.74912404585E+02  0.16139352103E+03  0.12500000000E+03 0.  0.
</event>
<event>
 5    0  0.5735425E-005  0.2054193E+03  0.7546771E-02  0.1145246E+00
         21   -1    0    0  502  501  0.00000000000E+00  0.00000000000E+00  0.60027096656E+03  0.60027096656E+03  0.00000000000E+00 0. -1.
         21   -1    0    0  501  502 -0.00000000000E+00 -0.00000000000E+00 -0.70296745182E+02  0.70296745182E+02  0.00000000000E+00 0. -1.
         25    1    1    2    0    0  0.14170284285E+02 -0.21835853763E+02  0.17303561800E+03  0.21504401076E+03  0.12500000000E+03 0.  0.
         25    1    1    2    0    0 -0.51765069781E+02 -0.26707416206E+02  0.13158828567E+03  0.19061318280E+03  0.12500000000E+03 0.  0.
         25    1    1    2    0    0  0.37594785496E+02  0.48543269968E+02  0.22535031771E+03  0.26491051819E+03  0.12500000000E+03 0.  0.
</event>
<event>
 5    0  0.5735425E-005  0.4480068E+03  0.7546771E-02  0.1028318E+00
         21   -1    0    0  502  501  0.00000000000E+00  0.00000000000E+00  0.20293291183E+03  0.20293291183E+03  0.00000000000E+00 0. -1.
         21   -1    0    0  501  502 -0.00000000000E+00 -0.00000000000E+00 -0.98904643926E+03  0.98904643926E+03  0.00000000000E+00 0. -1.
         25    1    1    2    0    0  0.84746391152E+02 -0.15760696080E+03 -0.20965304903E+03  0.30265707637E+03  0.12500000000E+03 0.  0.
         25    1    1    2    0    0 -0.28104355703E+03  0.49410611492E+02 -0.66682804758E+02  0.31858827023E+03  0.12500000000E+03 0.  0.
         25    1    1    2    0    0  0.19629716588E+03  0.10819634931E+03 -0.50977767364E+03  0.57073400449E+03  0.12500000000E+03 0.  0.
</event>
<event>
 5    0  0.5735425E-005  0.3135882E+03  0.7546771E-02  0.1078639E+00
         21   -1    0    0  502  501  0.00000000000E+00  0.00000000000E+00  0.37959009574E+02  0.37959009574E+02  0.00000000000E+00 0.  1.
         21   -1    0    0  501  502 -0.00000000000E+00 -0.00000000000E+00 -0.25906251394E+04  0.25906251394E+04  0.00000000000E+00 0.  1.
         25    1    1    2    0    0 -0.14822344457E+03  0.69412139494E+02 -0.96476537217E+03  0.98650162593E+03  0.12500000000E+03 0.  0.
         25    1    1    2    0    0  0.17852191919E+03 -0.71153870378E+02 -0.54466632147E+03  0.59094784089E+03  0.12500000000E+03 0.  0.
         25    1    1    2    0    0 -0.30298474626E+02  0.17417308839E+01 -0.10432344362E+04  0.10511346821E+04  0.12500000000E+03 0.  0.
</event>
<event>
 5    0  0.5735425E-005  0.2414410E+03  0.7546771E-02  0.1118837E+00
         21   -1    0    0  502  501  0.00000000000E+00  0.00000000000E+00  0.87117128445E+02  0.87117128445E+02  0.00000000000E+00 0.  1.
         21   -1    0    0  501  502 -0.00000000000E+00 -0.00000000000E+00 -0.66914240591E+03  0.66914240591E+03  0.00000000000E+00 0.  1.
         25    1    1    2    0    0 -0.71188745282E+02 -0.73110329731E+01 -0.18841264955E+03  0.23716158030E+03  0.12500000000E+03 0.  0.
         25    1    1    2    0    0  0.52749240474E+02 -0.86471979698E+02 -0.11045002340E+03  0.19515146249E+03  0.12500000000E+03 0.  0.
         25    1    1    2    0    0  0.18439504808E+02  0.93783012671E+02 -0.28316260452E+03  0.32394649157E+03  0.12500000000E+03 0.  0.
</event>
<event>
 5    0  0.5735425E-005  0.3121960E+03  0.7546771E-02  0.1079298E+00
         21   -1    0    0  502  501  0.00000000000E+00  0.00000000000E+00  0.15609576963E+03  0.15609576963E+03  0.00000000000E+00 0. -1.
         21   -1    0    0  501  502 -0.00000000000E+00 -0.00000000000E+00 -0.62440100280E+03  0.62440100280E+03  0.00000000000E+00 0. -1.
         25    1    1    2    0    0 -0.68745602991E+02 -0.16707215380E+03 -0.80220350325E+02  0.23387895825E+03  0.12500000000E+03 0.  0.
         25    1    1    2    0    0  0.11374571330E+03  0.16589390353E+03 -0.31773858578E+03  0.39628485136E+03  0.12500000000E+03 0.  0.
         25    1    1    2    0    0 -0.45000110307E+02  0.11782502723E+01 -0.70346297064E+02  0.15033296283E+03  0.12500000000E+03 0.  0.
</event>
<event>
 5    0  0.5735425E-005  0.6277113E+03  0.7546771E-02  0.9849525E-01
         21   -1    0    0  502  501  0.00000000000E+00  0.00000000000E+00  0.25621606720E+03  0.25621606720E+03  0.00000000000E+00 0.  1.
         21   -1    0    0  501  502 -0.00000000000E+00 -0.00000000000E+00 -0.15378485139E+04  0.15378485139E+04  0.00000000000E+00 0.  1.
         25    1    1    2    0    0  0.26497049031E+01  0.11456189639E+02 -0.35526763061E+03  0.37680015204E+03  0.12500000000E+03 0.  0.
         25    1    1    2    0    0 -0.55884634287E+02 -0.52186090066E+03 -0.40037290395E+03  0.67185218181E+03  0.12500000000E+03 0.  0.
         25    1    1    2    0    0  0.53234929384E+02  0.51040471102E+03 -0.52599191217E+03  0.74541224729E+03  0.12500000000E+03 0.  0.
</event>
<event>
 5    0  0.5735425E-005  0.2498331E+03  0.7546771E-02  0.1113410E+00
         21   -1    0    0  502  501  0.00000000000E+00  0.00000000000E+00  0.11091921456E+03  0.11091921456E+03  0.00000000000E+00 0.  1.
         21   -1    0    0  501  502 -0.00000000000E+00 -0.00000000000E+00 -0.56272120391E+03  0.56272120391E+03  0.00000000000E+00 0.  1.
         25    1    1    2    0    0  0.67415095287E+02 -0.72555202134E+02 -0.13423786212E+03  0.20845588516E+03  0.12500000000E+03 0.  0.
         25    1    1    2    0    0  0.39287814585E+02  0.89176300228E+02 -0.22683172360E+03  0.27671930855E+03  0.12500000000E+03 0.  0.
         25    1    1    2    0    0 -0.10670290987E+03 -0.16621098095E+02 -0.90732403633E+02  0.18846522477E+03  0.12500000000E+03 0.  0.
</event>
<event>
 5    0  0.5735425E-005  0.3695979E+03  0.7546771E-02  0.1054847E+00
         21   -1    0    0  502  501  0.00000000000E+00  0.00000000000E+00  0.15170086547E+03  0.15170086547E+03  0.00000000000E+00 0. -1.
         21   -1    0    0  501  502 -0.00000000000E+00 -0.00000000000E+00 -0.90047342723E+03  0.90047342723E+03  0.00000000000E+00 0. -1.
         25    1    1    2    0    0  0.11337908505E+03 -0.35563772934E+01 -0.66184260639E+03  0.68302862339E+03  0.12500000000E+03 0.  0.
         25    1    1    2    0    0 -0.37290888210E+02  0.99953964641E+02  0.17319728060E+02  0.16524641712E+03  0.12500000000E+03 0.  0.
         25    1    1    2    0    0 -0.76088196844E+02 -0.96397587348E+02 -0.10424968343E+03  0.20389925219E+03  0.12500000000E+03 0.  0.
</event>
<event>
 5    0  0.5735425E-005  0.2313429E+03  0.7546771E-02  0.1125698E+00
         21   -1    0    0  502  501  0.00000000000E+00  0.00000000000E+00  0.33074645063E+02  0.33074645063E+02  0.00000000000E+00 0.  1.
         21   -1    0    0  501  502 -0.00000000000E+00 -0.00000000000E+00 -0.16181444730E+04  0.16181444730E+04  0.00000000000E+00 0.  1.
         25    1    1    2    0    0  0.16252720214E+02 -0.82442295655E+02 -0.67102896985E+03  0.68772506236E+03  0.12500000000E+03 0.  0.
         25    1    1    2    0    0 -0.57709748347E+02  0.60509205607E+02 -0.65533583309E+03  0.67237030954E+03  0.12500000000E+03 0.  0.
         25    1    1    2    0    0  0.41457028134E+02  0.21933090048E+02 -0.25870502502E+03  0.29112374618E+03  0.12500000000E+03 0.  0.
</event>
<event>
 5    0  0.5735425E-005  0.2644058E+03  0.7546771E-02  0.1104525E+00
         21   -1    0    0  502  501  0.00000000000E+00  0.00000000000E+00  0.11850399070E+03  0.11850399070E+03  0.00000000000E+00 0.  1.
         21   -1    0    0  501  502 -0.00000000000E+00 -0.00000000000E+00 -0.58994141499E+03  0.58994141499E+03  0.00000000000E+00 0.  1.
         25    1    1    2    0    0  0.49971753482E+02 -0.98649355023E+01 -0.12860292456E+03  0.18643552586E+03  0.12500000000E+03 0.  0.
         25    1    1    2    0    0  0.56601357105E+02  0.13065701699E+03 -0.17496439876E+03  0.25790019493E+03  0.12500000000E+03 0.  0.
         25    1    1    2    0    0 -0.10657311059E+03 -0.12079208149E+03 -0.16787010098E+03  0.26410968489E+03  0.12500000000E+03 0.  0.
</event>
<event>
 5    0  0.5735425E-005  0.4165102E+03  0.7546771E-02  0.1038208E+00
         21   -1    0    0  502  501  0.00000000000E+00  0.00000000000E+00  0.89820226736E+03  0.89820226736E+03  0.00000000000E+00 0.  1.
         21   -1    0    0  501  502 -0.00000000000E+00 -0.00000000000E+00 -0.19314222774E+03  0.19314222774E+03  0.00000000000E+00 0.  1.
         25    1    1    2    0    0 -0.11025624126E+03  0.21567340949E+03  0.12830807483E+03  0.30126304182E+03  0.12500000000E+03 0.  0.
         25    1    1    2    0    0 -0.78909459847E+02 -0.15372757053E+03  0.49874547726E+03  0.54243056688E+03  0.12500000000E+03 0.  0.
         25    1    1    2    0    0  0.18916570111E+03 -0.61945838958E+02  0.78006487524E+02  0.24765088640E+03  0.12500000000E+03 0.  0.
</event>
<event>
 5    0  0.5735425E-005  0.7298361E+03  0.7546771E-02  0.9667526E-01
         21   -1    0    0  502  501  0.00000000000E+00  0.00000000000E+00  0.55020728739E+03  0.55020728739E+03  0.00000000000E+00 0. -1.
         21   -1    0    0  501  502 -0.00000000000E+00 -0.00000000000E+00 -0.96810927124E+03  0.96810927124E+03  0.00000000000E+00 0. -1.
         25    1    1    2    0    0 -0.37395435201E+03  0.26756206472E+03  0.11738653656E+03  0.49075035897E+03  0.12500000000E+03 0.  0.
         25    1    1    2    0    0 -0.98777238699E+02  0.93702694306E+02 -0.34350884716E+03  0.39007751266E+03  0.12500000000E+03 0.  0.
         25    1    1    2    0    0  0.47273159071E+03 -0.36126475902E+03 -0.19177967326E+03  0.63748868699E+03  0.12500000000E+03 0.  0.
</event>
<event>
 5    0  0.6507511E-005  0.2972322E+03  0.7546771E-02  0.1086632E+00
         21   -1    0    0  502  501  0.00000000000E+00  0.00000000000E+00  0.16186171338E+03  0.16186171338E+03  0.00000000000E+00 0.  1.
         21   -1    0    0  501  502 -0.00000000000E+00 -0.00000000000E+00 -0.54581765212E+03  0.54581765212E+03  0.00000000000E+00 0.  1.
         25    1    1    2    0    0 -0.65037731150E+02 -0.90227100675E+02 -0.77895414914E+02  0.18456308362E+03  0.12500000000E+03 0.  0.
         25    1    1    2    0    0  0.13329252834E+03 -0.74360967859E+01 -0.29873500218E+03  0.35027103102E+03  0.12500000000E+03 0.  0.
         25    1    1    2    0    0 -0.68254797191E+02  0.97663197461E+02 -0.73255216474E+01  0.17284525086E+03  0.12500000000E+03 0.  0.
</event>
<event>
 5    0  0.5735425E-005  0.2680708E+03  0.7546771E-02  0.1102389E+00
         21   -1    0    0  502  501  0.00000000000E+00  0.00000000000E+00  0.20694302277E+04  0.20694302277E+04  0.00000000000E+00 0. -1.
         21   -1    0    0  501  502 -0.00000000000E+00 -0.00000000000E+00 -0.34725475621E+02  0.34725475621E+02  0.00000000000E+00 0. -1.
         25    1    1    2    0    0 -0.50637826481E+02 -0.38744889991E+02  0.66790250003E+03  0.68248377674E+03  0.12500000000E+03 0.  0.
         25    1    1    2    0    0 -0.36881457786E+02  0.11151993957E+03  0.33759052659E+03  0.37866779965E+03  0.12500000000E+03 0.  0.
         25    1    1    2    0    0  0.87519284267E+02 -0.72775049583E+02  0.10292117255E+04  0.10430041270E+04  0.12500000000E+03 0.  0.
</event>
<event>
 5    0  0.5735425E-005  0.3322229E+03  0.7546771E-02  0.1070158E+00
         21   -1    0    0  502  501  0.00000000000E+00  0.00000000000E+00  0.90738482770E+03  0.90738482770E+03  0.00000000000E+00 0. -1.
         21   -1    0    0  501  502 -0.00000000000E+00 -0.00000000000E+00 -0.12163755857E+03  0.12163755857E+03  0.00000000000E+00 0. -1.
         25    1    1    2    0    0  0.13188426777E+03  0.13658046491E+03  0.39377732448E+03  0.45467929880E+03  0.12500000000E+03 0.  0.
         25    1    1    2    0    0 -0.14192899756E+03  0.33418836916E+02  0.26699713305E+03  0.32889683499E+03  0.12500000000E+03 0.  0.
         25    1    1    2    0    0  0.10044729792E+02 -0.16999930182E+03  0.12497281160E+03  0.24544625248E+03  0.12500000000E+03 0.  0.
</event>
<event>
 5    0  0.5735425E-005  0.3008877E+03  0.7546771E-02  0.1084798E+00
         21   -1    0    0  502  501  0.00000000000E+00  0.00000000000E+00  0.82104755607E+03  0.82104755607E+03  0.00000000000E+00 0.  1.
         21   -1    0    0  501  502 -0.00000000000E+00 -0.00000000000E+00 -0.11026570602E+03  0.11026570602E+03  0.00000000000E+00 0.  1.
         25    1    1    2    0    0  0.40234404610E+02 -0.22795606681E+02  0.47761838246E+02  0.14157909518E+03  0.12500000000E+03 0.  0.
         25    1    1    2    0    0  0.10783294671E+03 -0.14600379786E+02  0.10102027597E+03  0.19409073044E+03  0.12500000000E+03 0.  0.
         25    1    1    2    0    0 -0.14806735132E+03  0.37395986467E+02  0.56199973584E+03  0.59564343647E+03  0.12500000000E+03 0.  0.
</event>
<event>
 5    0  0.5735425E-005  0.3595282E+03  0.7546771E-02  0.1058771E+00
         21   -1    0    0  502  501  0.00000000000E+00  0.00000000000E+00  0.11864640962E+04  0.11864640962E+04  0.00000000000E+00 0. -1.
         21   -1    0    0  501  502 -0.00000000000E+00 -0.00000000000E+00 -0.10894601200E+03  0.10894601200E+03  0.00000000000E+00 0. -1.
         25    1    1    2    0    0  0.11832884253E+03  0.11573487315E+03  0.20390483927E+03  0.29085814294E+03  0.12500000000E+03 0.  0.
         25    1    1    2    0    0 -0.17254750411E+03 -0.19474926875E+02  0.78900158135E+03  0.81749642771E+03  0.12500000000E+03 0.  0.
         25    1    1    2    0    0  0.54218661576E+02 -0.96259946271E+02  0.84611663604E+02  0.18705553757E+03  0.12500000000E+03 0.  0.
</event>
<event>
 5    0  0.5735425E-005  0.4888523E+03  0.7546771E-02  0.1016730E+00
         21   -1    0    0  502  501  0.00000000000E+00  0.00000000000E+00  0.73318390599E+03  0.73318390599E+03  0.00000000000E+00 0.  1.
         21   -1    0    0  501  502 -0.00000000000E+00 -0.00000000000E+00 -0.32594359070E+03  0.32594359070E+03  0.00000000000E+00 0.  1.
         25    1    1    2    0    0  0.12536975182E+03 -0.23066177531E+01  0.29886863287E+03  0.34737638790E+03  0.12500000000E+03 0.  0.
         25    1    1    2    0    0 -0.43128419354E+02  0.31636410342E+03  0.12108535239E+03  0.36363851426E+03  0.12500000000E+03 0.  0.
         25    1    1    2    0    0 -0.82241332465E+02 -0.31405748567E+03 -0.12713669965E+02  0.34811259453E+03  0.12500000000E+03 0.  0.
</event>
<event>
 5    0  0.5735425E-005  0.3644849E+03  0.7546771E-02  0.1056822E+00
         21   -1    0    0  502  501  0.00000000000E+00  0.00000000000E+00  0.65134757621E+03  0.65134757621E+03  0.00000000000E+00 0. -1.
         21   -1    0    0  501  502 -0.00000000000E+00 -0.00000000000E+00 -0.20396062868E+03  0.20396062868E+03  0.00000000000E+00 0. -1.
         25    1    1    2    0    0  0.22653635310E+03 -0.45963922367E+02  0.76475968917E+02  0.27368773311E+03  0.12500000000E+03 0.  0.
         25    1    1    2    0    0 -0.70757767301E+02  0.74062274465E+02  0.34147706695E+03  0.37778759824E+03  0.12500000000E+03 0.  0.
         25    1    1    2    0    0 -0.15577858580E+03 -0.28098352097E+02  0.29433911667E+02  0.20383287355E+03  0.12500000000E+03 0.  0.
</event>
<event>
 5    0  0.5735425E-005  0.2714865E+03  0.7546771E-02  0.1100432E+00
         21   -1    0    0  502  501  0.00000000000E+00  0.00000000000E+00  0.34724899474E+03  0.34724899474E+03  0.00000000000E+00 0.  1.
         21   -1    0    0  501  502 -0.00000000000E+00 -0.00000000000E+00 -0.21225381112E+03  0.21225381112E+03  0.00000000000E+00 0.  1.
         25    1    1    2    0    0  0.91576383154E+02 -0.89034031226E+02  0.19504782356E+03  0.26454101033E+03  0.12500000000E+03 0.  0.
         25    1    1    2    0    0 -0.34281859471E+02  0.35868695539E+02 -0.60661691420E+02  0.14753525007E+03  0.12500000000E+03 0.  0.
         25    1    1    2    0    0 -0.57294523683E+02  0.53165335688E+02  0.60905147697E+00  0.14742654546E+03  0.12500000000E+03 0.  0.
</event>
<event>
 5    0  0.5735425E-005  0.2454492E+03  0.7546771E-02  0.1116215E+00
         21   -1    0    0  502  501  0.00000000000E+00  0.00000000000E+00  0.24558505770E+03  0.24558505770E+03  0.00000000000E+00 0. -1.
         21   -1    0    0  501  502 -0.00000000000E+00 -0.00000000000E+00 -0.24531345010E+03  0.24531345010E+03  0.00000000000E+00 0. -1.
         25    1    1    2    0    0 -0.55672856449E+01 -0.94171751847E+02 -0.95578373577E+02  0.18346536188E+03  0.12500000000E+03 0.  0.
         25    1    1    2    0    0  0.44202554523E+02  0.62777822817E+02  0.83473248054E+01  0.14693399435E+03  0.12500000000E+03 0.  0.
         25    1    1    2    0    0 -0.38635268878E+02  0.31393929030E+02  0.87502656374E+02  0.16049915157E+03  0.12500000000E+03 0.  0.
</event>
<event>
 5    0  0.5735425E-005  0.4447248E+03  0.7546771E-02  0.1029307E+00
         21   -1    0    0  502  501  0.00000000000E+00  0.00000000000E+00  0.12508381415E+03  0.12508381415E+03  0.00000000000E+00 0. -1.
         21   -1    0    0  501  502 -0.00000000000E+00 -0.00000000000E+00 -0.15811811581E+04  0.15811811581E+04  0.00000000000E+00 0. -1.
         25    1    1    2    0    0 -0.22016020992E+03  0.26089749087E+03 -0.58223807561E+03  0.68641401170E+03  0.12500000000E+03 0.  0.
         25    1    1    2    0    0  0.28214822610E+03 -0.17358335454E+03 -0.67035523218E+03  0.75811604638E+03  0.12500000000E+03 0.  0.
         25    1    1    2    0    0 -0.61988016184E+02 -0.87314136331E+02 -0.20350403612E+03  0.26173491412E+03  0.12500000000E+03 0.  0.
</event>
<event>
 5    0  0.5735425E-005  0.3081819E+03  0.7546771E-02  0.1081221E+00
         21   -1    0    0  502  501  0.00000000000E+00  0.00000000000E+00  0.16221513518E+03  0.16221513518E+03  0.00000000000E+00 0.  1.
         21   -1    0    0  501  502 -0.00000000000E+00 -0.00000000000E+00 -0.58549447007E+03  0.58549447007E+03  0.00000000000E+00 0.  1.
         25    1    1    2    0    0  0.18022976724E+03  0.33145948297E+02 -0.14836291587E+03  0.26686696629E+03  0.12500000000E+03 0.  0.
         25    1    1    2    0    0 -0.13193687473E+03  0.94157141500E+02 -0.18231276723E+03  0.27410919595E+03  0.12500000000E+03 0.  0.
         25    1    1    2    0    0 -0.48292892513E+02 -0.12730308980E+03 -0.92603651793E+02  0.20673344302E+03  0.12500000000E+03 0.  0.
</event>
<event>
 5    0  0.5735425E-005  0.2894438E+03  0.7546771E-02  0.1090640E+00
         21   -1    0    0  502  501  0.00000000000E+00  0.00000000000E+00  0.90578336903E+02  0.90578336903E+02  0.00000000000E+00 0.  1.
         21   -1    0    0  501  502 -0.00000000000E+00 -0.00000000000E+00 -0.92491969622E+03  0.92491969622E+03  0.00000000000E+00 0.  1.
         25    1    1    2    0    0 -0.50611010813E+01  0.11071666036E+03 -0.15384347253E+03  0.22710483849E+03  0.12500000000E+03 0.  0.
         25    1    1    2    0    0  0.11397723833E+03 -0.10146836287E+03 -0.52525704810E+03  0.56107629258E+03  0.12500000000E+03 0.  0.
         25    1    1    2    0    0 -0.10891613725E+03 -0.92482974895E+01 -0.15524083868E+03  0.22731690204E+03  0.12500000000E+03 0.  0.
</event>
<event>
 5    0  0.5735425E-005  0.2048232E+03  0.7546771E-02  0.1145732E+00
         21   -1    0    0  502  501  0.00000000000E+00  0.00000000000E+00  0.14257692731E+03  0.14257692731E+03  0.00000000000E+00 0.  1.
         21   -1    0    0  501  502 -0.00000000000E+00 -0.00000000000E+00 -0.29424504812E+03  0.29424504812E+03  0.00000000000E+00 0.  1.
         25    1    1    2    0    0 -0.58758547717E+02 -0.43398758802E+02 -0.24436636143E+02  0.14682700154E+03  0.12500000000E+03 0.  0.
         25    1    1    2    0    0  0.29972931245E+02  0.22001521330E+02 -0.58998284605E+02  0.14313714100E+03  0.12500000000E+03 0.  0.
         25    1    1    2    0    0  0.28785616472E+02  0.21397237472E+02 -0.68233200064E+02  0.14685783288E+03  0.12500000000E+03 0.  0.
</event>
<event>
 5    0  0.5735425E-005  0.4079247E+03  0.7546771E-02  0.1041070E+00
         21   -1    0    0  502  501  0.00000000000E+00  0.00000000000E+00  0.74036317483E+03  0.74036317483E+03  0.00000000000E+00 0.  1.
         21   -1    0    0  501  502 -0.00000000000E+00 -0.00000000000E+00 -0.22475800964E+03  0.22475800964E+03  0.00000000000E+00 0.  1.
         25    1    1    2    0    0  0.20077454422E+03  0.27388812726E+03  0.23168587343E+03  0.42968414889E+03  0.12500000000E+03 0.  0.
         25    1    1    2    0    0 -0.49231851738E+02 -0.75015827618E+02  0.27904431898E+02  0.15638032785E+03  0.12500000000E+03 0.  0.
         25    1    1    2    0    0 -0.15154269249E+03 -0.19887229964E+03  0.25601485986E+03  0.37905670774E+03  0.12500000000E+03 0.  0.
</event>
<event>
 5    0  0.5735425E-005  0.3194825E+03  0.7546771E-02  0.1075888E+00
         21   -1    0    0  502  501  0.00000000000E+00  0.00000000000E+00  0.12537252048E+03  0.12537252048E+03  0.00000000000E+00 0. -1.
         21   -1    0    0  501  502 -0.00000000000E+00 -0.00000000000E+00 -0.81412634716E+03  0.81412634716E+03  0.00000000000E+00 0. -1.
         25    1    1    2    0    0  0.50992022187E+02  0.71228949827E+02 -0.32010865373E+02  0.15595975482E+03  0.12500000000E+03 0.  0.
         25    1    1    2    0    0 -0.12156681494E+03 -0.80848992939E+02 -0.59802081217E+03  0.62814722951E+03  0.12500000000E+03 0.  0.
         25    1    1    2    0    0  0.70574792751E+02  0.96200431114E+01 -0.58722149141E+02  0.15539188332E+03  0.12500000000E+03 0.  0.
</event>
<event>
 5    0  0.5735425E-005  0.3560758E+03  0.7546771E-02  0.1060149E+00
         21   -1    0    0  502  501  0.00000000000E+00  0.00000000000E+00  0.30519864283E+03  0.30519864283E+03  0.00000000000E+00 0.  1.
         21   -1    0    0  501  502 -0.00000000000E+00 -0.00000000000E+00 -0.41543416239E+03  0.41543416239E+03  0.00000000000E+00 0.  1.
         25    1    1    2    0    0 -0.70150063526E+02 -0.16223392620E+03  0.15370850881E+03  0.26550364198E+03  0.12500000000E+03 0.  0.
         25    1    1    2    0    0 -0.63613467348E+02  0.30845506421E+02 -0.81028007296E+02  0.16488983128E+03  0.12500000000E+03 0.  0.
         25    1    1    2    0    0  0.13376353087E+03  0.13138841978E+03 -0.18291602108E+03  0.29023933195E+03  0.12500000000E+03 0.  0.
</event>
<event>
 5    0  0.5735425E-005  0.3829412E+03  0.7546771E-02  0.1049852E+00
         21   -1    0    0  502  501  0.00000000000E+00  0.00000000000E+00  0.85549957236E+03  0.85549957236E+03  0.00000000000E+00 0.  1.
         21   -1    0    0  501  502 -0.00000000000E+00 -0.00000000000E+00 -0.17141320780E+03  0.17141320780E+03  0.00000000000E+00 0. -1.
         25    1    1    2    0    0 -0.26603038446E+03  0.49618522011E+02  0.31845110179E+03  0.43619980217E+03  0.12500000000E+03 0.  0.
         25    1    1    2    0    0  0.15661488530E+03 -0.43770386338E+02  0.18633914504E+02  0.20595215898E+03  0.12500000000E+03 0.  0.
         25    1    1    2    0    0  0.10941549916E+03 -0.58481356731E+01  0.34700134827E+03  0.38476081901E+03  0.12500000000E+03 0.  0.
</event>
<event>
 5    0  0.5735425E-005  0.3016244E+03  0.7546771E-02  0.1084431E+00
         21   -1    0    0  502  501  0.00000000000E+00  0.00000000000E+00  0.83101994448E+02  0.83101994448E+02  0.00000000000E+00 0. -1.
         21   -1    0    0  501  502 -0.00000000000E+00 -0.00000000000E+00 -0.10947664249E+04  0.10947664249E+04  0.00000000000E+00 0. -1.
         25    1    1    2    0    0 -0.93681520579E+02 -0.46447441693E+02 -0.15218459291E+03  0.22297699984E+03  0.12500000000E+03 0.  0.
         25    1    1    2    0    0  0.10650516042E+03  0.15318461252E+03 -0.32115805301E+03  0.39188821075E+03  0.12500000000E+03 0.  0.
         25    1    1    2    0    0 -0.12823639843E+02 -0.10673717082E+03 -0.53832178450E+03  0.56300320874E+03  0.12500000000E+03 0.  0.
</event>
<event>
 5    0  0.5735425E-005  0.3723382E+03  0.7546771E-02  0.1053803E+00
         21   -1    0    0  502  501  0.00000000000E+00  0.00000000000E+00  0.10900293313E+03  0.10900293313E+03  0.00000000000E+00 0. -1.
         21   -1    0    0  501  502 -0.00000000000E+00 -0.00000000000E+00 -0.12718529193E+04  0.12718529193E+04  0.00000000000E+00 0. -1.
         25    1    1    2    0    0  0.21826667580E+02  0.29353297804E+03 -0.66880727732E+03  0.74132731422E+03  0.12500000000E+03 0.  0.
         25    1    1    2    0    0 -0.22629919083E+02 -0.19552136229E+03 -0.20856563111E+03  0.31283436325E+03  0.12500000000E+03 0.  0.
         25    1    1    2    0    0  0.80325150327E+00 -0.98011615743E+02 -0.28547707771E+03  0.32669417492E+03  0.12500000000E+03 0.  0.
</event>
<event>
 5    0  0.5735425E-005  0.2370279E+03  0.7546771E-02  0.1121789E+00
         21   -1    0    0  502  501  0.00000000000E+00  0.00000000000E+00  0.56549435657E+02  0.56549435657E+02  0.00000000000E+00 0. -1.
         21   -1    0    0  501  502 -0.00000000000E+00 -0.00000000000E+00 -0.99350606832E+03  0.99350606832E+03  0.00000000000E+00 0. -1.
         25    1    1    2    0    0 -0.14816541359E+02  0.89626274809E+02 -0.51127010529E+03  0.53411096188E+03  0.12500000000E+03 0.  0.
         25    1    1    2    0    0 -0.89119859273E+01 -0.98066569396E+02 -0.28231618562E+03  0.32407391778E+03  0.12500000000E+03 0.  0.
         25    1    1    2    0    0  0.23728527286E+02  0.84402945871E+01 -0.14337034176E+03  0.19187062432E+03  0.12500000000E+03 0.  0.
</event>
<event>
 5    0  0.5735425E-005  0.2243231E+03  0.7546771E-02  0.1130700E+00
         21   -1    0    0  502  501  0.00000000000E+00  0.00000000000E+00  0.22025735758E+03  0.22025735758E+03  0.00000000000E+00 0. -1.
         21   -1    0    0  501  502 -0.00000000000E+00 -0.00000000000E+00 -0.22846392834E+03  0.22846392834E+03  0.00000000000E+00 0. -1.
         25    1    1    2    0    0 -0.15277725085E+02  0.28852709737E+01 -0.50820689787E+02  0.13582884886E+03  0.12500000000E+03 0.  0.
         25    1    1    2    0    0  0.52406971503E+02 -0.20068116836E+02  0.99760950101E+02  0.16948884076E+03  0.12500000000E+03 0.  0.
         25    1    1    2    0    0 -0.37129246418E+02  0.17182845862E+02 -0.57146831080E+02  0.14340359631E+03  0.12500000000E+03 0.  0.
</event>
<event>
 5    0  0.5735425E-005  0.2653538E+03  0.7546771E-02  0.1103969E+00
         21   -1    0    0  502  501  0.00000000000E+00  0.00000000000E+00  0.57370806484E+03  0.57370806484E+03  0.00000000000E+00 0. -1.
         21   -1    0    0  501  502 -0.00000000000E+00 -0.00000000000E+00 -0.12273254957E+03  0.12273254957E+03  0.00000000000E+00 0. -1.
         25    1    1    2    0    0  0.24929545510E+02 -0.52214362326E+02  0.18953775566E+03  0.23430190501E+03  0.12500000000E+03 0.  0.
         25    1    1    2    0    0 -0.75118947980E+02  0.11767002318E+03  0.24931911780E+03  0.31188798182E+03  0.12500000000E+03 0.  0.
         25    1    1    2    0    0  0.50189402471E+02 -0.65455660858E+02  0.12118641816E+02  0.15025072758E+03  0.12500000000E+03 0.  0.
</event>
<event>
 5    0  0.5735425E-005  0.2654105E+03  0.7546771E-02  0.1103935E+00
         21   -1    0    0  502  501  0.00000000000E+00  0.00000000000E+00  0.16640680770E+03  0.16640680770E+03  0.00000000000E+00 0. -1.
         21   -1    0    0  501  502 -0.00000000000E+00 -0.00000000000E+00 -0.42331630758E+03  0.42331630758E+03  0.00000000000E+00 0. -1.
         25    1    1    2    0    0 -0.10595242073E+03  0.93177495334E+02 -0.21069966909E+02  0.18967578813E+03  0.12500000000E+03 0.  0.
         25    1    1    2    0    0 -0.15259548905E+01 -0.13935784538E+02 -0.39802381130E+02  0.13193090681E+03  0.12500000000E+03 0.  0.
         25    1    1    2    0    0  0.10747837562E+03 -0.79241710796E+02 -0.19603715184E+03  0.26811642034E+03  0.12500000000E+03 0.  0.
</event>
<event>
 5    0  0.5735425E-005  0.2993695E+03  0.7546771E-02  0.1085556E+00
         21   -1    0    0  502  501  0.00000000000E+00  0.00000000000E+00  0.10650666681E+04  0.10650666681E+04  0.00000000000E+00 0.  1.
         21   -1    0    0  501  502 -0.00000000000E+00 -0.00000000000E+00 -0.84146918998E+02  0.84146918998E+02  0.00000000000E+00 0.  1.
         25    1    1    2    0    0 -0.91032536309E+02 -0.70582905406E+02  0.26836667692E+03  0.31767049357E+03  0.12500000000E+03 0.  0.
         25    1    1    2    0    0  0.17658589054E+03  0.13336872648E+03  0.51887043537E+03  0.57777272577E+03  0.12500000000E+03 0.  0.
         25    1    1    2    0    0 -0.85553354227E+02 -0.62785821070E+02  0.19368263676E+03  0.25377036771E+03  0.12500000000E+03 0.  0.
</event>
<event>
 5    0  0.5735425E-005  0.2675535E+03  0.7546771E-02  0.1102688E+00
         21   -1    0    0  502  501  0.00000000000E+00  0.00000000000E+00  0.10839288286E+04  0.10839288286E+04  0.00000000000E+00 0.  1.
         21   -1    0    0  501  502 -0.00000000000E+00 -0.00000000000E+00 -0.66042040397E+02  0.66042040397E+02  0.00000000000E+00 0.  1.
         25    1    1    2    0    0  0.61794920832E+01  0.10029986902E+03  0.40821971597E+03  0.43859615406E+03  0.12500000000E+03 0.  0.
         25    1    1    2    0    0 -0.66698614743E+02 -0.61406608137E+02  0.10557659210E+03  0.18705852969E+03  0.12500000000E+03 0.  0.
         25    1    1    2    0    0  0.60519122660E+02 -0.38893260881E+02  0.50409048009E+03  0.52431618520E+03  0.12500000000E+03 0.  0.
</event>
<event>
 5    0  0.5735425E-005  0.2810611E+03  0.7546771E-02  0.1095111E+00
         21   -1    0    0  502  501  0.00000000000E+00  0.00000000000E+00  0.69485301521E+03  0.69485301521E+03  0.00000000000E+00 0.  1.
         21   -1    0    0  501  502 -0.00000000000E+00 -0.00000000000E+00 -0.11368644360E+03  0.11368644360E+03  0.00000000000E+00 0.  1.
         25    1    1    2    0    0 -0.98243393087E+02 -0.13220125086E+03  0.23397812520E+03  0.31224941647E+03  0.12500000000E+03 0.  0.
         25    1    1    2    0    0 -0.23488996607E+01  0.12425336185E+03  0.10347149859E+03  0.20439120891E+03  0.12500000000E+03 0.  0.
         25    1    1    2    0    0  0.10059229275E+03  0.79478890048E+01  0.24371694782E+03  0.29189883343E+03  0.12500000000E+03 0.  0.
</event>
<event>
 5    0  0.5735425E-005  0.4060781E+03  0.7546771E-02  0.1041695E+00
         21   -1    0    0  502  501  0.00000000000E+00  0.00000000000E+00  0.24528154248E+03  0.24528154248E+03  0.00000000000E+00 0. -1.
         21   -1    0    0  501  502 -0.00000000000E+00 -0.00000000000E+00 -0.67228623082E+03  0.67228623082E+03  0.00000000000E+00 0. -1.
         25    1    1    2    0    0 -0.17710570261E+03  0.11456480265E+02  0.13603762381E+03  0.25618141215E+03  0.12500000000E+03 0.  0.
         25    1    1    2    0    0  0.99829128576E+02  0.73376334057E+02 -0.31550141408E+03  0.36127009785E+03  0.12500000000E+03 0.  0.
         25    1    1    2    0    0  0.77276574031E+02 -0.84832814322E+02 -0.24754089808E+03  0.30011626331E+03  0.12500000000E+03 0.  0.
</event>
<event>
 5    0  0.5735425E-005  0.2678294E+03  0.7546771E-02  0.1102528E+00
         21   -1    0    0  502  501  0.00000000000E+00  0.00000000000E+00  0.33601240833E+03  0.33601240833E+03  0.00000000000E+00 0. -1.
         21   -1    0    0  501  502 -0.00000000000E+00 -0.00000000000E+00 -0.21348192748E+03  0.21348192748E+03  0.00000000000E+00 0. -1.
         25    1    1    2    0    0  0.56161825550E+02  0.51948950530E+02  0.19449876497E+03  0.24353154556E+03  0.12500000000E+03 0.  0.
         25    1    1    2    0    0 -0.33046679846E+02  0.41349729845E+02 -0.58146876871E+02  0.14767512484E+03  0.12500000000E+03 0.  0.
         25    1    1    2    0    0 -0.23115145704E+02 -0.93298680375E+02 -0.13821407251E+02  0.15828766540E+03  0.12500000000E+03 0.  0.
</event>
<event>
 5    0  0.5735425E-005  0.3802550E+03  0.7546771E-02  0.1050840E+00
         21   -1    0    0  502  501  0.00000000000E+00  0.00000000000E+00  0.15617597082E+03  0.15617597082E+03  0.00000000000E+00 0.  1.
         21   -1    0    0  501  502 -0.00000000000E+00 -0.00000000000E+00 -0.92583917468E+03  0.92583917468E+03  0.00000000000E+00 0.  1.
         25    1    1    2    0    0 -0.31188242738E+03 -0.38640709732E+02 -0.35465376880E+03  0.49006943251E+03  0.12500000000E+03 0.  0.
         25    1    1    2    0    0  0.20229255837E+03  0.13067722636E+02 -0.31960227090E+03  0.39857703912E+03  0.12500000000E+03 0.  0.
         25    1    1    2    0    0  0.10958986901E+03  0.25572987096E+02 -0.95407164160E+02  0.19336867386E+03  0.12500000000E+03 0.  0.
</event>
<event>
 5    0  0.5735425E-005  0.7366950E+03  0.7546771E-02  0.9656458E-01
         21   -1    0    0  502  501  0.00000000000E+00  0.00000000000E+00  0.11940801929E+04  0.11940801929E+04  0.00000000000E+00 0.  1.
         21   -1    0    0  501  502 -0.00000000000E+00 -0.00000000000E+00 -0.45450838836E+03  0.45450838836E+03  0.00000000000E+00 0.  1.
         25    1    1    2    0    0 -0.25017429798E+03  0.53448685034E+02  0.10921069583E+03  0.30495231986E+03  0.12500000000E+03 0.  0.
         25    1    1    2    0    0 -0.18435960629E+03  0.42975168354E+03  0.96941123350E+02  0.49365732582E+03  0.12500000000E+03 0.  0.
         25    1    1    2    0    0  0.43453390427E+03 -0.48320036857E+03  0.53341998536E+03  0.84997893558E+03  0.12500000000E+03 0.  0.
</event>
<event>
 5    0  0.5735425E-005  0.4587170E+03  0.7546771E-02  0.1025154E+00
         21   -1    0    0  502  501  0.00000000000E+00  0.00000000000E+00  0.53476767898E+03  0.53476767898E+03  0.00000000000E+00 0.  1.
         21   -1    0    0  501  502 -0.00000000000E+00 -0.00000000000E+00 -0.39348168537E+03  0.39348168537E+03  0.00000000000E+00 0.  1.
         25    1    1    2    0    0  0.20122448249E+03  0.15574616988E+03 -0.17606539385E+03  0.33372471395E+03  0.12500000000E+03 0.  0.
         25    1    1    2    0    0 -0.10617782259E+03 -0.11194201355E+03 -0.39262378877E+02  0.20241363295E+03  0.12500000000E+03 0.  0.
         25    1    1    2    0    0 -0.95046659905E+02 -0.43804156327E+02  0.35661376633E+03  0.39211101745E+03  0.12500000000E+03 0.  0.
</event>
<event>
 5    0  0.5735425E-005  0.2463878E+03  0.7546771E-02  0.1115609E+00
         21   -1    0    0  502  501  0.00000000000E+00  0.00000000000E+00  0.15754784440E+03  0.15754784440E+03  0.00000000000E+00 0. -1.
         21   -1    0    0  501  502 -0.00000000000E+00 -0.00000000000E+00 -0.38532396989E+03  0.38532396989E+03  0.00000000000E+00 0. -1.
         25    1    1    2    0    0  0.53195742846E+02  0.12160765032E+03 -0.15486491929E+03  0.23922029785E+03  0.12500000000E+03 0.  0.
         25    1    1    2    0    0 -0.79952420009E+01 -0.19210167262E+02 -0.37676027828E+02  0.13220225979E+03  0.12500000000E+03 0.  0.
         25    1    1    2    0    0 -0.45200500846E+02 -0.10239748306E+03 -0.35235178369E+02  0.17144925666E+03  0.12500000000E+03 0.  0.
</event>
<event>
 5    0  0.5978034E-005  0.2786593E+03  0.7546771E-02  0.1096423E+00
         21   -1    0    0  502  501  0.00000000000E+00  0.00000000000E+00  0.40349947642E+03  0.40349947642E+03  0.00000000000E+00 0.  1.
         21   -1    0    0  501  502 -0.00000000000E+00 -0.00000000000E+00 -0.19244388638E+03  0.19244388638E+03  0.00000000000E+00 0.  1.
         25    1    1    2    0    0 -0.27768233124E+02  0.12312175327E+02 -0.61410195332E+02  0.14254429670E+03  0.12500000000E+03 0.  0.
         25    1    1    2    0    0 -0.30970354280E+02 -0.36674633208E+02 -0.13815894799E+02  0.13461081128E+03  0.12500000000E+03 0.  0.
         25    1    1    2    0    0  0.58738587405E+02  0.24362457880E+02  0.28628168017E+03  0.31878825481E+03  0.12500000000E+03 0.  0.
</event>
<event>
 5    0  0.5735425E-005  0.2448436E+03  0.7546771E-02  0.1116608E+00
         21   -1    0    0  502  501  0.00000000000E+00  0.00000000000E+00  0.20419370106E+03  0.20419370106E+03  0.00000000000E+00 0. -1.
         21   -1    0    0  501  502 -0.00000000000E+00 -0.00000000000E+00 -0.29358590682E+03  0.29358590682E+03  0.00000000000E+00 0. -1.
         25    1    1    2    0    0  0.31898973166E+02 -0.33887880039E+02  0.33758966320E+02  0.13758851954E+03  0.12500000000E+03 0.  0.
         25    1    1    2    0    0 -0.93243123138E+02 -0.49310162289E+02 -0.12898563386E+02  0.16406445397E+03  0.12500000000E+03 0.  0.
         25    1    1    2    0    0  0.61344149972E+02  0.83198042327E+02 -0.11025260870E+03  0.19612663436E+03  0.12500000000E+03 0.  0.
</event>
<event>
 5    0  0.5735425E-005  0.6127702E+03  0.7546771E-02  0.9879261E-01
         21   -1    0    0  502  501  0.00000000000E+00  0.00000000000E+00  0.15398530713E+04  0.15398530713E+04  0.00000000000E+00 0. -1.
         21   -1    0    0  501  502 -0.00000000000E+00 -0.00000000000E+00 -0.24384618940E+03  0.24384618940E+03  0.00000000000E+00 0. -1.
         25    1    1    2    0    0  0.60056831545E+02  0.71899646461E+02 -0.44023267407E+02  0.16229427054E+03  0.12500000000E+03 0.  0.
         25    1    1    2    0    0  0.10084032219E+03 -0.14027904192E+02 -0.83946326926E+02  0.18176231314E+03  0.12500000000E+03 0.  0.
         25    1    1    2    0    0 -0.16089715373E+03 -0.57871742269E+02  0.14239764762E+04  0.14396426770E+04  0.12500000000E+03 0.  0.
</event>
<event>
 5    0  0.6000964E-005  0.3059712E+03  0.7546771E-02  0.1082293E+00
         21   -1    0    0  502  501  0.00000000000E+00  0.00000000000E+00  0.13010057864E+03  0.13010057864E+03  0.00000000000E+00 0. -1.
         21   -1    0    0  501  502 -0.00000000000E+00 -0.00000000000E+00 -0.71958446525E+03  0.71958446525E+03  0.00000000000E+00 0. -1.
         25    1    1    2    0    0  0.50947763117E+01 -0.52922267643E+02  0.28310221583E+02  0.13875587124E+03  0.12500000000E+03 0.  0.
         25    1    1    2    0    0  0.10660675793E+03  0.76618925358E+02 -0.29000632446E+03  0.34200018829E+03  0.12500000000E+03 0.  0.
         25    1    1    2    0    0 -0.11170153424E+03 -0.23696657715E+02 -0.32778778373E+03  0.36892898436E+03  0.12500000000E+03 0.  0.
</event>
<event>
 5    0  0.5735425E-005  0.2310527E+03  0.7546771E-02  0.1125901E+00
         21   -1    0    0  502  501  0.00000000000E+00  0.00000000000E+00  0.56149231384E+02  0.56149231384E+02  0.00000000000E+00 0.  1.
         21   -1    0    0  501  502 -0.00000000000E+00 -0.00000000000E+00 -0.95077599847E+03  0.95077599847E+03  0.00000000000E+00 0.  1.
         25    1    1    2    0    0 -0.37790571050E+02  0.19058612382E+02 -0.20080133185E+03  0.24028635591E+03  0.12500000000E+03 0.  0.
         25    1    1    2    0    0  0.75330053878E+02 -0.92510713251E+02 -0.31494721641E+03  0.35923473970E+03  0.12500000000E+03 0.  0.
         25    1    1    2    0    0 -0.37539482829E+02  0.73452100869E+02 -0.37887821884E+03  0.40740413425E+03  0.12500000000E+03 0.  0.
</event>
<event>
 5    0  0.5735425E-005  0.3240606E+03  0.7546771E-02  0.1073796E+00
         21   -1    0    0  502  501  0.00000000000E+00  0.00000000000E+00  0.90783119023E+02  0.90783119023E+02  0.00000000000E+00 0.  1.
         21   -1    0    0  501  502 -0.00000000000E+00 -0.00000000000E+00 -0.11567707104E+04  0.11567707104E+04  0.00000000000E+00 0.  1.
         25    1    1    2    0    0  0.52618651100E+02  0.82258924167E+01 -0.43744820689E+03  0.45806366530E+03  0.12500000000E+03 0.  0.
         25    1    1    2    0    0 -0.27107899672E+02  0.19427082176E+03 -0.24853562003E+03  0.34039821509E+03  0.12500000000E+03 0.  0.
         25    1    1    2    0    0 -0.25510751428E+02 -0.20249671418E+03 -0.38000376444E+03  0.44909194902E+03  0.12500000000E+03 0.  0.
</event>
<event>
 5    0  0.5735425E-005  0.3214830E+03  0.7546771E-02  0.1074969E+00
         21   -1    0    0  502  501  0.00000000000E+00  0.00000000000E+00  0.33781174480E+03  0.33781174480E+03  0.00000000000E+00 0.  1.
         21   -1    0    0  501  502 -0.00000000000E+00 -0.00000000000E+00 -0.30594346405E+03  0.30594346405E+03  0.00000000000E+00 0.  1.
         25    1    1    2    0    0  0.15692295064E+03  0.16303257898E+02  0.96808522077E+02  0.22335509531E+03  0.12500000000E+03 0.  0.
         25    1    1    2    0    0 -0.10569585929E+03 -0.15140011647E+03 -0.18220605307E+02  0.22371991506E+03  0.12500000000E+03 0.  0.
         25    1    1    2    0    0 -0.51227091353E+02  0.13509685857E+03 -0.46719636018E+02  0.19668019848E+03  0.12500000000E+03 0.  0.
</event>
<event>
 5    0  0.5735425E-005  0.2544805E+03  0.7546771E-02  0.1110506E+00
         21   -1    0    0  502  501  0.00000000000E+00  0.00000000000E+00  0.78051036886E+02  0.78051036886E+02  0.00000000000E+00 0. -1.
         21   -1    0    0  501  502 -0.00000000000E+00 -0.00000000000E+00 -0.82971774844E+03  0.82971774844E+03  0.00000000000E+00 0. -1.
         25    1    1    2    0    0 -0.36544645167E+00  0.11049005618E+02 -0.18440273685E+02  0.12683555404E+03  0.12500000000E+03 0.  0.
         25    1    1    2    0    0  0.24957496442E+02 -0.34039668728E+02 -0.46076681163E+03  0.47928345514E+03  0.12500000000E+03 0.  0.
         25    1    1    2    0    0 -0.24592049991E+02  0.22990663110E+02 -0.27245962624E+03  0.30164977614E+03  0.12500000000E+03 0.  0.
</event>
<event>
 5    0  0.5735425E-005  0.2643465E+03  0.7546771E-02  0.1104560E+00
         21   -1    0    0  502  501  0.00000000000E+00  0.00000000000E+00  0.72349390328E+02  0.72349390328E+02  0.00000000000E+00 0.  1.
         21   -1    0    0  501  502 -0.00000000000E+00 -0.00000000000E+00 -0.96585583934E+03  0.96585583934E+03  0.00000000000E+00 0.  1.
         25    1    1    2    0    0  0.41860671398E+02 -0.42377882832E+02 -0.13923222501E+03  0.19636398154E+03  0.12500000000E+03 0.  0.
         25    1    1    2    0    0  0.54983125929E+02  0.11817864706E+03 -0.25348010697E+03  0.31123383715E+03  0.12500000000E+03 0.  0.
         25    1    1    2    0    0 -0.96843797326E+02 -0.75800764226E+02 -0.50079411703E+03  0.53060741098E+03  0.12500000000E+03 0.  0.
</event>
<event>
 5    0  0.8444571E-005  0.2904062E+03  0.7546771E-02  0.1090137E+00
         21   -1    0    0  502  501  0.00000000000E+00  0.00000000000E+00  0.86575348401E+02  0.86575348401E+02  0.00000000000E+00 0.  1.
         21   -1    0    0  501  502 -0.00000000000E+00 -0.00000000000E+00 -0.97413143419E+03  0.97413143419E+03  0.00000000000E+00 0.  1.
         25    1    1    2    0    0  0.94578997270E+02 -0.31395703550E+02 -0.12612902911E+03  0.20362811424E+03  0.12500000000E+03 0.  0.
         25    1    1    2    0    0 -0.15065145885E+03  0.77964209395E+02 -0.25715834821E+03  0.33246006686E+03  0.12500000000E+03 0.  0.
         25    1    1    2    0    0  0.56072461585E+02 -0.46568505845E+02 -0.50426870848E+03  0.52461860150E+03  0.12500000000E+03 0.  0.
</event>
<event>
 5    0  0.5735425E-005  0.3356845E+03  0.7546771E-02  0.1068649E+00
         21   -1    0    0  502  501  0.00000000000E+00  0.00000000000E+00  0.38833911825E+03  0.38833911825E+03  0.00000000000E+00 0. -1.
         21   -1    0    0  501  502 -0.00000000000E+00 -0.00000000000E+00 -0.29016932820E+03  0.29016932820E+03  0.00000000000E+00 0. -1.
         25    1    1    2    0    0  0.22638389881E+02  0.20523545621E+03  0.59800508066E+02  0.24866682518E+03  0.12500000000E+03 0.  0.
         25    1    1    2    0    0  0.59608724854E+01 -0.24282459960E+03  0.88453388630E+02  0.28713815513E+03  0.12500000000E+03 0.  0.
         25    1    1    2    0    0 -0.28599262367E+02  0.37589143395E+02 -0.50084106638E+02  0.14270346613E+03  0.12500000000E+03 0.  0.
</event>
<event>
 5    0  0.5735425E-005  0.4518401E+03  0.7546771E-02  0.1027175E+00
         21   -1    0    0  502  501  0.00000000000E+00  0.00000000000E+00  0.87901391262E+02  0.87901391262E+02  0.00000000000E+00 0.  1.
         21   -1    0    0  501  502 -0.00000000000E+00 -0.00000000000E+00 -0.23225968230E+04  0.23225968230E+04  0.00000000000E+00 0.  1.
         25    1    1    2    0    0  0.29697078196E+03 -0.15661799439E+03 -0.12040111519E+04  0.12561802002E+04  0.12500000000E+03 0.  0.
         25    1    1    2    0    0 -0.94003962206E+02 -0.74262006921E+02 -0.49248704403E+03  0.52203455740E+03  0.12500000000E+03 0.  0.
         25    1    1    2    0    0 -0.20296681975E+03  0.23088000131E+03 -0.53819723581E+03  0.63228345666E+03  0.12500000000E+03 0.  0.
</event>
<event>
 5    0  0.5735425E-005  0.4180509E+03  0.7546771E-02  0.1037703E+00
         21   -1    0    0  502  501  0.00000000000E+00  0.00000000000E+00  0.98472306575E+03  0.98472306575E+03  0.00000000000E+00 0.  1.
         21   -1    0    0  501  502 -0.00000000000E+00 -0.00000000000E+00 -0.17747788033E+03  0.17747788033E+03  0.00000000000E+00 0.  1.
         25    1    1    2    0    0  0.16240410094E+03 -0.52688039877E+01  0.15311926963E+03  0.25587763292E+03  0.12500000000E+03 0.  0.
         25    1    1    2    0    0  0.78674172078E+02  0.20668613872E+03  0.13739663282E+03  0.28881069925E+03  0.12500000000E+03 0.  0.
         25    1    1    2    0    0 -0.24107827302E+03 -0.20141733473E+03  0.51672928297E+03  0.61751261391E+03  0.12500000000E+03 0.  0.
</event>
<event>
 5    0  0.5735425E-005  0.3509825E+03  0.7546771E-02  0.1062213E+00
         21   -1    0    0  502  501  0.00000000000E+00  0.00000000000E+00  0.14506958466E+03  0.14506958466E+03  0.00000000000E+00 0.  1.
         21   -1    0    0  501  502 -0.00000000000E+00 -0.00000000000E+00 -0.84916970361E+03  0.84916970361E+03  0.00000000000E+00 0. -1.
         25    1    1    2    0    0  0.45445503213E+02 -0.13447652580E+03 -0.12980415839E+03  0.22939779704E+03  0.12500000000E+03 0.  0.
         25    1    1    2    0    0  0.12153421811E+03 -0.53780035382E+02 -0.86515519366E+02  0.20192274134E+03  0.12500000000E+03 0.  0.
         25    1    1    2    0    0 -0.16697972133E+03  0.18825656119E+03 -0.48778044119E+03  0.56291874989E+03  0.12500000000E+03 0.  0.
</event>
<event>
 5    0  0.5735425E-005  0.3088008E+03  0.7546771E-02  0.1080922E+00
         21   -1    0    0  502  501  0.00000000000E+00  0.00000000000E+00  0.55795625983E+02  0.55795625983E+02  0.00000000000E+00 0.  1.
         21   -1    0    0  501  502 -0.00000000000E+00 -0.00000000000E+00 -0.17090574517E+04  0.17090574517E+04  0.00000000000E+00 0.  1.
         25    1    1    2    0    0  0.15548772480E+03 -0.94628904522E+02 -0.56852576696E+03  0.60989967193E+03  0.12500000000E+03 0.  0.
         25    1    1    2    0    0 -0.12293595166E+03 -0.62667850718E+02 -0.41233010216E+03  0.45241752936E+03  0.12500000000E+03 0.  0.
         25    1    1    2    0    0 -0.32551773137E+02  0.15729675524E+03 -0.67240595661E+03  0.70253587640E+03  0.12500000000E+03 0.  0.
</event>
<event>
 5    0  0.5735425E-005  0.2720918E+03  0.7546771E-02  0.1100088E+00
         21   -1    0    0  502  501  0.00000000000E+00  0.00000000000E+00  0.91857399795E+02  0.91857399795E+02  0.00000000000E+00 0. -1.
         21   -1    0    0  501  502 -0.00000000000E+00 -0.00000000000E+00 -0.80596603403E+03  0.80596603403E+03  0.00000000000E+00 0. -1.
         25    1    1    2    0    0  0.11332645924E+03  0.58718022565E+02 -0.13239245132E+03  0.22235883995E+03  0.12500000000E+03 0.  0.
         25    1    1    2    0    0 -0.10894033534E+03 -0.85284006835E+02 -0.47012705029E+03  0.50575270825E+03  0.12500000000E+03 0.  0.
         25    1    1    2    0    0 -0.43861238919E+01  0.26565984270E+02 -0.11158913262E+03  0.16971188562E+03  0.12500000000E+03 0.  0.
</event>
<event>
 5    0  0.5735425E-005  0.3171393E+03  0.7546771E-02  0.1076973E+00
         21   -1    0    0  502  501  0.00000000000E+00  0.00000000000E+00  0.63482624425E+02  0.63482624425E+02  0.00000000000E+00 0. -1.
         21   -1    0    0  501  502 -0.00000000000E+00 -0.00000000000E+00 -0.15843286619E+04  0.15843286619E+04  0.00000000000E+00 0. -1.
         25    1    1    2    0    0 -0.17163554258E+02 -0.52203721693E+02 -0.11317750902E+03  0.17735265631E+03  0.12500000000E+03 0.  0.
         25    1    1    2    0    0 -0.14867740326E+03 -0.13426404588E+02 -0.84419775102E+03  0.86636024920E+03  0.12500000000E+03 0.  0.
         25    1    1    2    0    0  0.16584095752E+03  0.65630126281E+02 -0.56347077746E+03  0.60409838083E+03  0.12500000000E+03 0.  0.
</event>
<event>
 5    0  0.5735425E-005  0.6134825E+03  0.7546771E-02  0.9877822E-01
         21   -1    0    0  502  501  0.00000000000E+00  0.00000000000E+00  0.34670403673E+03  0.34670403673E+03  0.00000000000E+00 0. -1.
         21   -1    0    0  501  502 -0.00000000000E+00 -0.00000000000E+00 -0.10855389839E+04  0.10855389839E+04  0.00000000000E+00 0. -1.
         25    1    1    2    0    0 -0.14463745928E+02 -0.63041748890E+02 -0.16376610845E+03  0.21593471311E+03  0.12500000000E+03 0.  0.
         25    1    1    2    0    0 -0.24731117371E+03  0.40143032795E+03  0.12004039481E+01  0.48778639362E+03  0.12500000000E+03 0.  0.
         25    1    1    2    0    0  0.26177491964E+03 -0.33838857906E+03 -0.57626924268E+03  0.72852191391E+03  0.12500000000E+03 0.  0.
</event>
<event>
 5    0  0.5735425E-005  0.2561821E+03  0.7546771E-02  0.1109459E+00
         21   -1    0    0  502  501  0.00000000000E+00  0.00000000000E+00  0.79141508457E+03  0.79141508457E+03  0.00000000000E+00 0. -1.
         21   -1    0    0  501  502 -0.00000000000E+00 -0.00000000000E+00 -0.82926492472E+02  0.82926492472E+02  0.00000000000E+00 0. -1.
         25    1    1    2    0    0 -0.31906527115E+02 -0.27844701035E+02  0.19206126630E+03  0.23303622864E+03  0.12500000000E+03 0.  0.
         25    1    1    2    0    0 -0.39311463344E+02  0.72984065217E+02  0.61617716561E+02  0.16215365528E+03  0.12500000000E+03 0.  0.
         25    1    1    2    0    0  0.71217990459E+02 -0.45139364182E+02  0.45480960924E+03  0.47915169312E+03  0.12500000000E+03 0.  0.
</event>
<event>
 5    0  0.5735425E-005  0.2820524E+03  0.7546771E-02  0.1094573E+00
         21   -1    0    0  502  501  0.00000000000E+00  0.00000000000E+00  0.10334369602E+03  0.10334369602E+03  0.00000000000E+00 0.  1.
         21   -1    0    0  501  502 -0.00000000000E+00 -0.00000000000E+00 -0.76979615819E+03  0.76979615819E+03  0.00000000000E+00 0.  1.
         25    1    1    2    0    0 -0.49225147636E+02  0.77338786998E+02 -0.15542409389E+03  0.21951321622E+03  0.12500000000E+03 0.  0.
         25    1    1    2    0    0 -0.76414554290E+02  0.28009776583E+02 -0.38278519503E+03  0.41082020060E+03  0.12500000000E+03 0.  0.
         25    1    1    2    0    0  0.12563970193E+03 -0.10534856358E+03 -0.12824317326E+03  0.24280643739E+03  0.12500000000E+03 0.  0.
</event>
<event>
 5    0  0.5735425E-005  0.2602335E+03  0.7546771E-02  0.1107003E+00
         21   -1    0    0  502  501  0.00000000000E+00  0.00000000000E+00  0.30382951873E+03  0.30382951873E+03  0.00000000000E+00 0.  1.
         21   -1    0    0  501  502 -0.00000000000E+00 -0.00000000000E+00 -0.22289298570E+03  0.22289298570E+03  0.00000000000E+00 0.  1.
         25    1    1    2    0    0 -0.25001011137E+02  0.24928814190E+01  0.20473875670E+03  0.24119333223E+03  0.12500000000E+03 0.  0.
         25    1    1    2    0    0  0.95777039227E+01  0.83705107625E+01 -0.33074601467E+02  0.12992585241E+03  0.12500000000E+03 0.  0.
         25    1    1    2    0    0  0.15423307214E+02 -0.10863392181E+02 -0.90727622211E+02  0.15560331978E+03  0.12500000000E+03 0.  0.
</event>
<event>
 5    0  0.5735425E-005  0.2759410E+03  0.7546771E-02  0.1097927E+00
         21   -1    0    0  502  501  0.00000000000E+00  0.00000000000E+00  0.76147373415E+02  0.76147373415E+02  0.00000000000E+00 0. -1.
         21   -1    0    0  501  502 -0.00000000000E+00 -0.00000000000E+00 -0.99994826566E+03  0.99994826566E+03  0.00000000000E+00 0. -1.
         25    1    1    2    0    0  0.30551653467E+02 -0.10496062562E+02 -0.59288511093E+03  0.60677947034E+03  0.12500000000E+03 0.  0.
         25    1    1    2    0    0  0.41960635646E+01 -0.37714440052E+02 -0.30041403028E+03  0.32758750820E+03  0.12500000000E+03 0.  0.
         25    1    1    2    0    0 -0.34747717031E+02  0.48210502614E+02 -0.30501751029E+02  0.14172866053E+03  0.12500000000E+03 0.  0.
</event>
<event>
 5    0  0.5735425E-005  0.2751744E+03  0.7546771E-02  0.1098354E+00
         21   -1    0    0  502  501  0.00000000000E+00  0.00000000000E+00  0.32825451520E+02  0.32825451520E+02  0.00000000000E+00 0.  1.
         21   -1    0    0  501  502 -0.00000000000E+00 -0.00000000000E+00 -0.23067760136E+04  0.23067760136E+04  0.00000000000E+00 0.  1.
         25    1    1    2    0    0 -0.99664218499E+02  0.50777197322E+02 -0.46764874986E+03  0.49682153080E+03  0.12500000000E+03 0.  0.
         25    1    1    2    0    0 -0.57965864590E+02  0.37131722321E+02 -0.60699650365E+03  0.62354515610E+03  0.12500000000E+03 0.  0.
         25    1    1    2    0    0  0.15763008309E+03 -0.87908919643E+02 -0.11993053085E+04  0.12192347782E+04  0.12500000000E+03 0.  0.
</event>
<event>
 5    0  0.5735425E-005  0.3216202E+03  0.7546771E-02  0.1074906E+00
         21   -1    0    0  502  501  0.00000000000E+00  0.00000000000E+00  0.16686317229E+04  0.16686317229E+04  0.00000000000E+00 0.  1.
         21   -1    0    0  501  502 -0.00000000000E+00 -0.00000000000E+00 -0.61990631716E+02  0.61990631716E+02  0.00000000000E+00 0.  1.
         25    1    1    2    0    0 -0.62494623317E+02  0.13702323177E+03  0.34846191142E+03  0.39966441885E+03  0.12500000000E+03 0.  0.
         25    1    1    2    0    0  0.56461503861E+02  0.75462049906E+02  0.26650865710E+03  0.30908621241E+03  0.12500000000E+03 0.  0.
         25    1    1    2    0    0  0.60331194552E+01 -0.21248528167E+03  0.99167052263E+03  0.10218717233E+04  0.12500000000E+03 0.  0.
</event>
<event>
 5    0  0.6611540E-005  0.5512863E+03  0.7546771E-02  0.1001197E+00
         21   -1    0    0  502  501  0.00000000000E+00  0.00000000000E+00  0.31115912906E+03  0.31115912906E+03  0.00000000000E+00 0. -1.
         21   -1    0    0  501  502 -0.00000000000E+00 -0.00000000000E+00 -0.97672413646E+03  0.97672413646E+03  0.00000000000E+00 0. -1.
         25    1    1    2    0    0  0.83012355779E+02 -0.34809600557E+03 -0.12117919817E+03  0.39795889031E+03  0.12500000000E+03 0.  0.
         25    1    1    2    0    0  0.90125115129E+02  0.15624100332E+02 -0.46066502848E+03  0.48600814536E+03  0.12500000000E+03 0.  0.
         25    1    1    2    0    0 -0.17313747091E+03  0.33247190524E+03 -0.83720780756E+02  0.40391622985E+03  0.12500000000E+03 0.  0.
</event>
<event>
 5    0  0.5735425E-005  0.2266166E+03  0.7546771E-02  0.1129044E+00
         21   -1    0    0  502  501  0.00000000000E+00  0.00000000000E+00  0.13463557338E+03  0.13463557338E+03  0.00000000000E+00 0.  1.
         21   -1    0    0  501  502 -0.00000000000E+00 -0.00000000000E+00 -0.38143756045E+03  0.38143756045E+03  0.00000000000E+00 0.  1.
         25    1    1    2    0    0 -0.16819636294E+02 -0.10487251439E+03 -0.95923724152E+02  0.19001974975E+03  0.12500000000E+03 0.  0.
         25    1    1    2    0    0  0.58932172605E+01  0.33666644965E+01 -0.87155010574E+02  0.15253543951E+03  0.12500000000E+03 0.  0.
         25    1    1    2    0    0  0.10926419034E+02  0.10150584990E+03 -0.63723252345E+02  0.17351794456E+03  0.12500000000E+03 0.  0.
</event>
<event>
 5    0  0.5735425E-005  0.3625066E+03  0.7546771E-02  0.1057596E+00
         21   -1    0    0  502  501  0.00000000000E+00  0.00000000000E+00  0.28215175360E+03  0.28215175360E+03  0.00000000000E+00 0.  1.
         21   -1    0    0  501  502 -0.00000000000E+00 -0.00000000000E+00 -0.46574588005E+03  0.46574588005E+03  0.00000000000E+00 0.  1.
         25    1    1    2    0    0 -0.48120200186E+02  0.15569634518E+03  0.32222017650E+02  0.20789459827E+03  0.12500000000E+03 0.  0.
         25    1    1    2    0    0  0.66694488163E+01  0.12661242805E+03 -0.11757820349E+03  0.21336546680E+03  0.12500000000E+03 0.  0.
         25    1    1    2    0    0  0.41450751370E+02 -0.28230877323E+03 -0.98237940610E+02  0.32663756858E+03  0.12500000000E+03 0.  0.
</event>
<event>
 5    0  0.5735425E-005  0.6467221E+03  0.7546771E-02  0.9812949E-01
         21   -1    0    0  502  501  0.00000000000E+00  0.00000000000E+00  0.42005402023E+03  0.42005402023E+03  0.00000000000E+00 0.  1.
         21   -1    0    0  501  502 -0.00000000000E+00 -0.00000000000E+00 -0.99570393142E+03  0.99570393142E+03  0.00000000000E+00 0.  1.
         25    1    1    2    0    0 -0.12562096407E+03 -0.20262013849E+03  0.47583472358E+02  0.27335825207E+03  0.12500000000E+03 0.  0.
         25    1    1    2    0    0  0.43839480271E+03 -0.40330939235E+02 -0.55854092350E+03  0.72208694139E+03  0.12500000000E+03 0.  0.
         25    1    1    2    0    0 -0.31277383864E+03  0.24295107773E+03 -0.64692460047E+02  0.42031275819E+03  0.12500000000E+03 0.  0.
</event>
<event>
 5    0  0.5735425E-005  0.2510943E+03  0.7546771E-02  0.1112615E+00
         21   -1    0    0  502  501  0.00000000000E+00  0.00000000000E+00  0.11230975761E+04  0.11230975761E+04  0.00000000000E+00 0. -1.
         21   -1    0    0  501  502 -0.00000000000E+00 -0.00000000000E+00 -0.56137918606E+02  0.56137918606E+02  0.00000000000E+00 0. -1.
         25    1    1    2    0    0  0.60777047713E+02 -0.11971181726E+03  0.35215235240E+03  0.39706554626E+03  0.12500000000E+03 0.  0.
         25    1    1    2    0    0  0.37075109773E+02  0.71410952128E+02  0.39138621062E+03  0.41866723506E+03  0.12500000000E+03 0.  0.
         25    1    1    2    0    0 -0.97852157487E+02  0.48300865132E+02  0.32342109451E+03  0.36350271343E+03  0.12500000000E+03 0.  0.
</event>
<event>
 5    0  0.5735425E-005  0.2361785E+03  0.7546771E-02  0.1122365E+00
         21   -1    0    0  502  501  0.00000000000E+00  0.00000000000E+00  0.25023786596E+03  0.25023786596E+03  0.00000000000E+00 0.  1.
         21   -1    0    0  501  502 -0.00000000000E+00 -0.00000000000E+00 -0.22290909788E+03  0.22290909788E+03  0.00000000000E+00 0.  1.
         25    1    1    2    0    0  0.79166834661E+02  0.89958113316E+02  0.44715480928E+02  0.17884161735E+03  0.12500000000E+03 0.  0.
         25    1    1    2    0    0  0.69030588460E+01 -0.60639319410E+02 -0.12355258969E+02  0.13965110706E+03  0.12500000000E+03 0.  0.
         25    1    1    2    0    0 -0.86069893507E+02 -0.29318793907E+02 -0.50314538833E+01  0.15465423943E+03  0.12500000000E+03 0.  0.
</event>
<event>
 5    0  0.5735425E-005  0.6289649E+03  0.7546771E-02  0.9847071E-01
         21   -1    0    0  502  501  0.00000000000E+00  0.00000000000E+00  0.30216670225E+03  0.30216670225E+03  0.00000000000E+00 0.  1.
         21   -1    0    0  501  502 -0.00000000000E+00 -0.00000000000E+00 -0.13092004701E+04  0.13092004701E+04  0.00000000000E+00 0.  1.
         25    1    1    2    0    0  0.24213340868E+03  0.24639889318E+02 -0.67490181821E+02  0.28180780043E+03  0.12500000000E+03 0.  0.
         25    1    1    2    0    0 -0.21756536966E+03 -0.43686051387E+03 -0.57717522514E+03  0.76611881531E+03  0.12500000000E+03 0.  0.
         25    1    1    2    0    0 -0.24568039016E+02  0.41222062455E+03 -0.36236836087E+03  0.56344055659E+03  0.12500000000E+03 0.  0.
</event>
<event>
 5    0  0.5735425E-005  0.3304538E+03  0.7546771E-02  0.1070936E+00
         21   -1    0    0  502  501  0.00000000000E+00  0.00000000000E+00  0.11621093992E+03  0.11621093992E+03  0.00000000000E+00 0.  1.
         21   -1    0    0  501  502 -0.00000000000E+00 -0.00000000000E+00 -0.93966806949E+03  0.93966806949E+03  0.00000000000E+00 0.  1.
         25    1    1    2    0    0 -0.74186141422E+01  0.23469743622E+03 -0.22476896586E+03  0.34825853962E+03  0.12500000000E+03 0.  0.
         25    1    1    2    0    0 -0.74553115732E+02 -0.11712135713E+03 -0.30899026804E+03  0.36107556703E+03  0.12500000000E+03 0.  0.
         25    1    1    2    0    0  0.81971729875E+02 -0.11757607909E+03 -0.28969789567E+03  0.34654490276E+03  0.12500000000E+03 0.  0.
</event>
<event>
 5    0  0.5735425E-005  0.3023459E+03  0.7546771E-02  0.1084074E+00
         21   -1    0    0  502  501  0.00000000000E+00  0.00000000000E+00  0.15017080567E+03  0.15017080567E+03  0.00000000000E+00 0.  1.
         21   -1    0    0  501  502 -0.00000000000E+00 -0.00000000000E+00 -0.60872706809E+03  0.60872706809E+03  0.00000000000E+00 0.  1.
         25    1    1    2    0    0  0.19512216288E+03  0.97472780563E+02 -0.17253703453E+03  0.30490593579E+03  0.12500000000E+03 0.  0.
         25    1    1    2    0    0 -0.41230476339E+02 -0.71203546927E+01 -0.80359986759E+02  0.15438063059E+03  0.12500000000E+03 0.  0.
         25    1    1    2    0    0 -0.15389168654E+03 -0.90352425870E+02 -0.20565924114E+03  0.29961130738E+03  0.12500000000E+03 0.  0.
</event>
<event>
 5    0  0.5735425E-005  0.2541072E+03  0.7546771E-02  0.1110736E+00
         21   -1    0    0  502  501  0.00000000000E+00  0.00000000000E+00  0.29226983546E+03  0.29226983546E+03  0.00000000000E+00 0. -1.
         21   -1    0    0  501  502 -0.00000000000E+00 -0.00000000000E+00 -0.22092765210E+03  0.22092765210E+03  0.00000000000E+00 0.  1.
         25    1    1    2    0    0 -0.77245897045E+01 -0.10736620196E+03 -0.48701209580E+02  0.17199993728E+03  0.12500000000E+03 0.  0.
         25    1    1    2    0    0 -0.48871130583E+02  0.12051813324E+03  0.82356701082E+02  0.19829431171E+03  0.12500000000E+03 0.  0.
         25    1    1    2    0    0  0.56595720288E+02 -0.13151931283E+02  0.37686691858E+02  0.14290323857E+03  0.12500000000E+03 0.  0.
</event>
<event>
 5    0  0.5735425E-005  0.2640631E+03  0.7546771E-02  0.1104726E+00
         21   -1    0    0  502  501  0.00000000000E+00  0.00000000000E+00  0.11361843420E+04  0.11361843420E+04  0.00000000000E+00 0.  1.
         21   -1    0    0  501  502 -0.00000000000E+00 -0.00000000000E+00 -0.61371473486E+02  0.61371473486E+02  0.00000000000E+00 0.  1.
         25    1    1    2    0    0 -0.31386602457E+02  0.96561336403E+02  0.27431429844E+03  0.31809203830E+03  0.12500000000E+03 0.  0.
         25    1    1    2    0    0  0.12464273843E+03 -0.18760912121E+02  0.28982681974E+03  0.33987110720E+03  0.12500000000E+03 0.  0.
         25    1    1    2    0    0 -0.93256135972E+02 -0.77800424282E+02  0.51067175031E+03  0.53959266996E+03  0.12500000000E+03 0.  0.
</event>
<event>
 5    0  0.5735425E-005  0.3091230E+03  0.7546771E-02  0.1080767E+00
         21   -1    0    0  502  501  0.00000000000E+00  0.00000000000E+00  0.75061750853E+03  0.75061750853E+03  0.00000000000E+00 0. -1.
         21   -1    0    0  501  502 -0.00000000000E+00 -0.00000000000E+00 -0.12730454426E+03  0.12730454426E+03  0.00000000000E+00 0. -1.
         25    1    1    2    0    0  0.10013780682E+03  0.17024787461E+03  0.32382963887E+03  0.39937770866E+03  0.12500000000E+03 0.  0.
         25    1    1    2    0    0 -0.54825191351E+02 -0.19497853225E+03  0.19158758722E+03  0.30553761343E+03  0.12500000000E+03 0.  0.
         25    1    1    2    0    0 -0.45312615473E+02  0.24730657633E+02  0.10789573818E+03  0.17300673070E+03  0.12500000000E+03 0.  0.
</event>
<event>
 5    0  0.5735425E-005  0.2773129E+03  0.7546771E-02  0.1097166E+00
         21   -1    0    0  502  501  0.00000000000E+00  0.00000000000E+00  0.28790279823E+03  0.28790279823E+03  0.00000000000E+00 0. -1.
         21   -1    0    0  501  502 -0.00000000000E+00 -0.00000000000E+00 -0.26711252110E+03  0.26711252110E+03  0.00000000000E+00 0. -1.
         25    1    1    2    0    0 -0.95760934568E+02 -0.46727309901E+02  0.11040689718E+03  0.19790978001E+03  0.12500000000E+03 0.  0.
         25    1    1    2    0    0 -0.38586365887E+02 -0.22905728161E+02  0.16752545058E+02  0.13386271991E+03  0.12500000000E+03 0.  0.
         25    1    1    2    0    0  0.13434730046E+03  0.69633038062E+02 -0.10636916511E+03  0.22324281940E+03  0.12500000000E+03 0.  0.
</event>
<event>
 5    0  0.5735425E-005  0.6068600E+03  0.7546771E-02  0.9891275E-01
         21   -1    0    0  502  501  0.00000000000E+00  0.00000000000E+00  0.35055879718E+03  0.35055879718E+03  0.00000000000E+00 0.  1.
         21   -1    0    0  501  502 -0.00000000000E+00 -0.00000000000E+00 -0.10505487657E+04  0.10505487657E+04  0.00000000000E+00 0.  1.
         25    1    1    2    0    0  0.43654869801E+03  0.28171293354E+03 -0.10169429161E+03  0.54397028559E+03  0.12500000000E+03 0.  0.
         25    1    1    2    0    0 -0.26433963718E+03 -0.18006832824E+03 -0.48820407275E+03  0.59688211840E+03  0.12500000000E+03 0.  0.
         25    1    1    2    0    0 -0.17220906083E+03 -0.10164460531E+03 -0.11009160415E+03  0.26025515888E+03  0.12500000000E+03 0.  0.
</event>
<event>
 5    0  0.5735425E-005  0.2534571E+03  0.7546771E-02  0.1111139E+00
         21   -1    0    0  502  501  0.00000000000E+00  0.00000000000E+00  0.16918283630E+03  0.16918283630E+03  0.00000000000E+00 0. -1.
         21   -1    0    0  501  502 -0.00000000000E+00 -0.00000000000E+00 -0.37971061584E+03  0.37971061584E+03  0.00000000000E+00 0. -1.
         25    1    1    2    0    0  0.20386558658E+02  0.34242603179E+02 -0.10240825890E+02  0.13159803251E+03  0.12500000000E+03 0.  0.
         25    1    1    2    0    0  0.11261065935E+03  0.29482897185E+02 -0.72517782529E+02  0.18556462650E+03  0.12500000000E+03 0.  0.
         25    1    1    2    0    0 -0.13299721801E+03 -0.63725500364E+02 -0.12776917112E+03  0.23173079313E+03  0.12500000000E+03 0.  0.
</event>
<event>
 5    0  0.5735425E-005  0.3609066E+03  0.7546771E-02  0.1058225E+00
         21   -1    0    0  502  501  0.00000000000E+00  0.00000000000E+00  0.83933817635E+03  0.83933817635E+03  0.00000000000E+00 0.  1.
         21   -1    0    0  501  502 -0.00000000000E+00 -0.00000000000E+00 -0.15518603697E+03  0.15518603697E+03  0.00000000000E+00 0.  1.
         25    1    1    2    0    0  0.67068495675E+02  0.27616505862E+03  0.39257407167E+03  0.50050446998E+03  0.12500000000E+03 0.  0.
         25    1    1    2    0    0 -0.43158492786E+02 -0.72523323728E+02  0.16126204657E+03  0.22080021660E+03  0.12500000000E+03 0.  0.
         25    1    1    2    0    0 -0.23910002889E+02 -0.20364173489E+03  0.13031602114E+03  0.27321952674E+03  0.12500000000E+03 0.  0.
</event>
<event>
 5    0  0.6115380E-005  0.5465221E+03  0.7546771E-02  0.1002302E+00
         21   -1    0    0  502  501  0.00000000000E+00  0.00000000000E+00  0.38454074984E+03  0.38454074984E+03  0.00000000000E+00 0. -1.
         21   -1    0    0  501  502 -0.00000000000E+00 -0.00000000000E+00 -0.77673537631E+03  0.77673537631E+03  0.00000000000E+00 0. -1.
         25    1    1    2    0    0  0.10667885750E+03  0.22202177581E+03 -0.21543105913E+03  0.35029928462E+03  0.12500000000E+03 0.  0.
         25    1    1    2    0    0 -0.27168491136E+02 -0.34853622489E+03 -0.37873627424E+03  0.53036005921E+03  0.12500000000E+03 0.  0.
         25    1    1    2    0    0 -0.79510366365E+02  0.12651444908E+03  0.20197270691E+03  0.28061678232E+03  0.12500000000E+03 0.  0.
</event>
<event>
 5    0  0.5735425E-005  0.2514681E+03  0.7546771E-02  0.1112381E+00
         21   -1    0    0  502  501  0.00000000000E+00  0.00000000000E+00  0.18113064238E+02  0.18113064238E+02  0.00000000000E+00 0. -1.
         21   -1    0    0  501  502 -0.00000000000E+00 -0.00000000000E+00 -0.34911933033E+04  0.34911933033E+04  0.00000000000E+00 0. -1.
         25    1    1    2    0    0  0.22356793748E+02  0.35085161294E+01 -0.96084646999E+03  0.96920744673E+03  0.12500000000E+03 0.  0.
         25    1    1    2    0    0 -0.14821594469E+03 -0.91355607414E+01 -0.11351055204E+04  0.11515819411E+04  0.12500000000E+03 0.  0.
         25    1    1    2    0    0  0.12585915094E+03  0.56270446120E+01 -0.13771282487E+04  0.13885169797E+04  0.12500000000E+03 0.  0.
</event>
<event>
 5    0  0.5735425E-005  0.2499567E+03  0.7546771E-02  0.1113332E+00
         21   -1    0    0  502  501  0.00000000000E+00  0.00000000000E+00  0.19042809280E+03  0.19042809280E+03  0.00000000000E+00 0. -1.
         21   -1    0    0  501  502 -0.00000000000E+00 -0.00000000000E+00 -0.32809430562E+03  0.32809430562E+03  0.00000000000E+00 0. -1.
         25    1    1    2    0    0  0.97185527252E+02 -0.95132043685E+02  0.12586893098E+02  0.18514470643E+03  0.12500000000E+03 0.  0.
         25    1    1    2    0    0 -0.28755239135E+02  0.41644809361E+02 -0.27026707107E+02  0.13753761966E+03  0.12500000000E+03 0.  0.
         25    1    1    2    0    0 -0.68430288117E+02  0.53487234325E+02 -0.12322639880E+03  0.19584007233E+03  0.12500000000E+03 0.  0.
</event>
<event>
 5    0  0.6897279E-005  0.5618398E+03  0.7546771E-02  0.9987900E-01
         21   -1    0    0  502  501  0.00000000000E+00  0.00000000000E+00  0.37336044841E+03  0.37336044841E+03  0.00000000000E+00 0. -1.
         21   -1    0    0  501  502 -0.00000000000E+00 -0.00000000000E+00 -0.84546706084E+03  0.84546706084E+03  0.00000000000E+00 0. -1.
         25    1    1    2    0    0  0.92985655391E+02 -0.14673093369E+03 -0.47418422839E+03  0.52024223344E+03  0.12500000000E+03 0.  0.
         25    1    1    2    0    0 -0.24600152591E+03  0.93807872665E+02 -0.24293051208E+03  0.37941652761E+03  0.12500000000E+03 0.  0.
         25    1    1    2    0    0  0.15301587052E+03  0.52923061026E+02  0.24500812804E+03  0.31916874819E+03  0.12500000000E+03 0.  0.
</event>
<event>
 5    0  0.5735425E-005  0.2656111E+03  0.7546771E-02  0.1103818E+00
         21   -1    0    0  502  501  0.00000000000E+00  0.00000000000E+00  0.86435225980E+03  0.86435225980E+03  0.00000000000E+00 0.  1.
         21   -1    0    0  501  502 -0.00000000000E+00 -0.00000000000E+00 -0.81620943499E+02  0.81620943499E+02  0.00000000000E+00 0.  1.
         25    1    1    2    0    0  0.12994356472E+03 -0.35485144298E+02  0.18342488548E+03  0.25964247359E+03  0.12500000000E+03 0.  0.
         25    1    1    2    0    0 -0.29728692390E+02  0.94158676377E+02  0.23311854842E+03  0.28234537203E+03  0.12500000000E+03 0.  0.
         25    1    1    2    0    0 -0.10021487233E+03 -0.58673532079E+02  0.36618788240E+03  0.40398535768E+03  0.12500000000E+03 0.  0.
</event>
<event>
 5    0  0.6600935E-005  0.3454840E+03  0.7546771E-02  0.1064484E+00
         21   -1    0    0  502  501  0.00000000000E+00  0.00000000000E+00  0.14210399808E+04  0.14210399808E+04  0.00000000000E+00 0. -1.
         21   -1    0    0  501  502 -0.00000000000E+00 -0.00000000000E+00 -0.83994259364E+02  0.83994259364E+02  0.00000000000E+00 0. -1.
         25    1    1    2    0    0  0.11997239768E+03 -0.34584892931E+02  0.73532439720E+03  0.75625158521E+03  0.12500000000E+03 0.  0.
         25    1    1    2    0    0  0.61031396033E+02 -0.52646418549E+02  0.65204482178E+02  0.16239797161E+03  0.12500000000E+03 0.  0.
         25    1    1    2    0    0 -0.18100379371E+03  0.87231311480E+02  0.53651684208E+03  0.58638468335E+03  0.12500000000E+03 0.  0.
</event>
<event>
 5    0  0.5735425E-005  0.4186197E+03  0.7546771E-02  0.1037516E+00
         21   -1    0    0  502  501  0.00000000000E+00  0.00000000000E+00  0.42112473484E+03  0.42112473484E+03  0.00000000000E+00 0.  1.
         21   -1    0    0  501  502 -0.00000000000E+00 -0.00000000000E+00 -0.41612955825E+03  0.41612955825E+03  0.00000000000E+00 0.  1.
         25    1    1    2    0    0 -0.19487077013E+03  0.17601900250E+03 -0.34536425254E+02  0.29287381406E+03  0.12500000000E+03 0.  0.
         25    1    1    2    0    0  0.18217598789E+03  0.29013961738E+02 -0.12262611209E+03  0.25434634636E+03  0.12500000000E+03 0.  0.
         25    1    1    2    0    0  0.12694782244E+02 -0.20503296424E+03  0.16215771394E+03  0.29003413267E+03  0.12500000000E+03 0.  0.
</event>
<event>
 5    0  0.5735425E-005  0.4232881E+03  0.7546771E-02  0.1036001E+00
         21   -1    0    0  502  501  0.00000000000E+00  0.00000000000E+00  0.70750793284E+03  0.70750793284E+03  0.00000000000E+00 0. -1.
         21   -1    0    0  501  502 -0.00000000000E+00 -0.00000000000E+00 -0.25324501402E+03  0.25324501402E+03  0.00000000000E+00 0. -1.
         25    1    1    2    0    0 -0.13288488543E+03 -0.63457381972E+02 -0.13104955003E+03  0.23341854396E+03  0.12500000000E+03 0.  0.
         25    1    1    2    0    0  0.33925852156E+02  0.10753667034E+03  0.52490201653E+03  0.55123699610E+03  0.12500000000E+03 0.  0.
         25    1    1    2    0    0  0.98959033278E+02 -0.44079288369E+02  0.60410452310E+02  0.17609740679E+03  0.12500000000E+03 0.  0.
</event>
<event>
 5    0  0.5735425E-005  0.3465051E+03  0.7546771E-02  0.1064059E+00
         21   -1    0    0  502  501  0.00000000000E+00  0.00000000000E+00  0.52718619905E+03  0.52718619905E+03  0.00000000000E+00 0. -1.
         21   -1    0    0  501  502 -0.00000000000E+00 -0.00000000000E+00 -0.22774829953E+03  0.22774829953E+03  0.00000000000E+00 0. -1.
         25    1    1    2    0    0 -0.10744399619E+03  0.22148849108E+03  0.24580301553E+03  0.36965590275E+03  0.12500000000E+03 0.  0.
         25    1    1    2    0    0  0.39418221766E+02 -0.12907804882E+03  0.99993995697E+02  0.20937702374E+03  0.12500000000E+03 0.  0.
         25    1    1    2    0    0  0.68025774422E+02 -0.92410442265E+02 -0.46359111702E+02  0.17590157209E+03  0.12500000000E+03 0.  0.
</event>
<event>
 5    0  0.5735425E-005  0.3659587E+03  0.7546771E-02  0.1056249E+00
         21   -1    0    0  502  501  0.00000000000E+00  0.00000000000E+00  0.47670320405E+03  0.47670320405E+03  0.00000000000E+00 0.  1.
         21   -1    0    0  501  502 -0.00000000000E+00 -0.00000000000E+00 -0.28094165915E+03  0.28094165915E+03  0.00000000000E+00 0.  1.
         25    1    1    2    0    0  0.16505908306E+03  0.53889416734E+02  0.16305404134E+03  0.26899849541E+03  0.12500000000E+03 0.  0.
         25    1    1    2    0    0  0.96912876978E+02  0.17162424212E+01  0.97865910689E+02  0.18600480555E+03  0.12500000000E+03 0.  0.
         25    1    1    2    0    0 -0.26197196004E+03 -0.55605659156E+02 -0.65158407133E+02  0.30264156224E+03  0.12500000000E+03 0.  0.
</event>
<event>
 5    0  0.5735425E-005  0.3401708E+03  0.7546771E-02  0.1066723E+00
         21   -1    0    0  502  501  0.00000000000E+00  0.00000000000E+00  0.16435305159E+04  0.16435305159E+04  0.00000000000E+00 0. -1.
         21   -1    0    0  501  502 -0.00000000000E+00 -0.00000000000E+00 -0.70407056259E+02  0.70407056259E+02  0.00000000000E+00 0. -1.
         25    1    1    2    0    0 -0.18042670349E+02  0.66960040631E+02  0.92488421639E+03  0.93586590852E+03  0.12500000000E+03 0.  0.
         25    1    1    2    0    0  0.60220002818E+02 -0.11651313334E+03  0.60366252764E+03  0.63026598056E+03  0.12500000000E+03 0.  0.
         25    1    1    2    0    0 -0.42177332469E+02  0.49553092709E+02  0.44576715588E+02  0.14780568306E+03  0.12500000000E+03 0.  0.
</event>
<event>
 5    0  0.5735425E-005  0.3886084E+03  0.7546771E-02  0.1047797E+00
         21   -1    0    0  502  501  0.00000000000E+00  0.00000000000E+00  0.24320998229E+03  0.24320998229E+03  0.00000000000E+00 0. -1.
         21   -1    0    0  501  502 -0.00000000000E+00 -0.00000000000E+00 -0.62093055640E+03  0.62093055640E+03  0.00000000000E+00 0. -1.
         25    1    1    2    0    0 -0.19425349160E+03 -0.14806470268E+02 -0.21826989344E+03  0.31815153142E+03  0.12500000000E+03 0.  0.
         25    1    1    2    0    0 -0.22491982418E+01 -0.88433789727E+02 -0.23480576310E+03  0.28032898609E+03  0.12500000000E+03 0.  0.
         25    1    1    2    0    0  0.19650268985E+03  0.10324025999E+03  0.75355082437E+02  0.26566002117E+03  0.12500000000E+03 0.  0.
</event>
<event>
 5    0  0.6133940E-005  0.2444501E+03  0.7546771E-02  0.1116863E+00
         21   -1    0    0  502  501  0.00000000000E+00  0.00000000000E+00  0.44843786036E+03  0.44843786036E+03  0.00000000000E+00 0. -1.
         21   -1    0    0  501  502 -0.00000000000E+00 -0.00000000000E+00 -0.13325334003E+03  0.13325334003E+03  0.00000000000E+00 0. -1.
         25    1    1    2    0    0 -0.65011661139E+02 -0.59321767407E+02  0.95203850453E+02  0.18009542280E+03  0.12500000000E+03 0.  0.
         25    1    1    2    0    0 -0.42219370521E+02 -0.22288917351E+02  0.15928735281E+03  0.20803060315E+03  0.12500000000E+03 0.  0.
         25    1    1    2    0    0  0.10723103166E+03  0.81610684759E+02  0.60693317068E+02  0.19356517444E+03  0.12500000000E+03 0.  0.
</event>
<event>
 5    0  0.5735425E-005  0.2770740E+03  0.7546771E-02  0.1097298E+00
         21   -1    0    0  502  501  0.00000000000E+00  0.00000000000E+00  0.72712276485E+02  0.72712276485E+02  0.00000000000E+00 0.  1.
         21   -1    0    0  501  502 -0.00000000000E+00 -0.00000000000E+00 -0.10558050356E+04  0.10558050356E+04  0.00000000000E+00 0.  1.
         25    1    1    2    0    0 -0.13996557687E+03 -0.34599244374E+02 -0.29688574562E+03  0.35292154422E+03  0.12500000000E+03 0.  0.
         25    1    1    2    0    0  0.18140240791E+03  0.35334599948E+02 -0.35650830021E+03  0.42056929948E+03  0.12500000000E+03 0.  0.
         25    1    1    2    0    0 -0.41436831034E+02 -0.73535557439E+00 -0.32969871333E+03  0.35502646843E+03  0.12500000000E+03 0.  0.
</event>
<event>
 5    0  0.5735425E-005  0.2423528E+03  0.7546771E-02  0.1118235E+00
         21   -1    0    0  502  501  0.00000000000E+00  0.00000000000E+00  0.62096206142E+03  0.62096206142E+03  0.00000000000E+00 0.  1.
         21   -1    0    0  501  502 -0.00000000000E+00 -0.00000000000E+00 -0.94586929742E+02  0.94586929742E+02  0.00000000000E+00 0.  1.
         25    1    1    2    0    0 -0.10546431986E+02 -0.12753089052E+02  0.33279300235E+03  0.35587926453E+03  0.12500000000E+03 0.  0.
         25    1    1    2    0    0  0.59025607173E+02  0.39806574548E+02  0.30904808532E+02  0.14713494782E+03  0.12500000000E+03 0.  0.
         25    1    1    2    0    0 -0.48479175187E+02 -0.27053485496E+02  0.16267732079E+03  0.21253477881E+03  0.12500000000E+03 0.  0.
</event>
<event>
 5    0  0.5735425E-005  0.6552878E+03  0.7546771E-02  0.9796907E-01
         21   -1    0    0  502  501  0.00000000000E+00  0.00000000000E+00  0.68453100383E+03  0.68453100383E+03  0.00000000000E+00 0. -1.
         21   -1    0    0  501  502 -0.00000000000E+00 -0.00000000000E+00 -0.62729388565E+03  0.62729388565E+03  0.00000000000E+00 0.  1.
         25    1    1    2    0    0  0.18051499126E+03  0.42388246677E+03 -0.20481714384E+02  0.47781430318E+03  0.12500000000E+03 0.  0.
         25    1    1    2    0    0 -0.29799938270E+02  0.62559229648E+02  0.24496822350E+03  0.28361263029E+03  0.12500000000E+03 0.  0.
         25    1    1    2    0    0 -0.15071505299E+03 -0.48644169642E+03 -0.16724939094E+03  0.55039795601E+03  0.12500000000E+03 0.  0.
</event>
<event>
 5    0  0.5735425E-005  0.2717828E+03  0.7546771E-02  0.1100264E+00
         21   -1    0    0  502  501  0.00000000000E+00  0.00000000000E+00  0.11497953390E+03  0.11497953390E+03  0.00000000000E+00 0. -1.
         21   -1    0    0  501  502 -0.00000000000E+00 -0.00000000000E+00 -0.64242638129E+03  0.64242638129E+03  0.00000000000E+00 0. -1.
         25    1    1    2    0    0  0.80245309376E+01 -0.90349064314E+02 -0.27456630933E+03  0.31502222896E+03  0.12500000000E+03 0.  0.
         25    1    1    2    0    0 -0.12683458463E+03  0.58331674198E+02 -0.12347539538E+03  0.22441205256E+03  0.12500000000E+03 0.  0.
         25    1    1    2    0    0  0.11881005369E+03  0.32017390116E+02 -0.12940514268E+03  0.21797163366E+03  0.12500000000E+03 0.  0.
</event>
<event>
 5    0  0.5735425E-005  0.3166615E+03  0.7546771E-02  0.1077196E+00
         21   -1    0    0  502  501  0.00000000000E+00  0.00000000000E+00  0.15574746000E+03  0.15574746000E+03  0.00000000000E+00 0. -1.
         21   -1    0    0  501  502 -0.00000000000E+00 -0.00000000000E+00 -0.64382746974E+03  0.64382746974E+03  0.00000000000E+00 0. -1.
         25    1    1    2    0    0 -0.11440560339E+02 -0.15088065778E+03 -0.43003485202E+03  0.47270586337E+03  0.12500000000E+03 0.  0.
         25    1    1    2    0    0  0.72773112584E+02  0.72658779009E+02 -0.25037780261E+02  0.16378984866E+03  0.12500000000E+03 0.  0.
         25    1    1    2    0    0 -0.61332552245E+02  0.78221878773E+02 -0.33007377465E+02  0.16307921772E+03  0.12500000000E+03 0.  0.
</event>
<event>
 5    0  0.5735425E-005  0.3014575E+03  0.7546771E-02  0.1084514E+00
         21   -1    0    0  502  501  0.00000000000E+00  0.00000000000E+00  0.41404724489E+03  0.41404724489E+03  0.00000000000E+00 0. -1.
         21   -1    0    0  501  502 -0.00000000000E+00 -0.00000000000E+00 -0.21948364908E+03  0.21948364908E+03  0.00000000000E+00 0. -1.
         25    1    1    2    0    0  0.19842693839E+02  0.14206824315E+01 -0.15452729775E+02  0.12751289227E+03  0.12500000000E+03 0.  0.
         25    1    1    2    0    0 -0.10331597464E+03 -0.16408426505E+03  0.15460277105E+03  0.27771361772E+03  0.12500000000E+03 0.  0.
         25    1    1    2    0    0  0.83473280801E+02  0.16266358262E+03  0.55413554539E+02  0.22830438398E+03  0.12500000000E+03 0.  0.
</event>
<event>
 5    0  0.5735425E-005  0.3192034E+03  0.7546771E-02  0.1076017E+00
         21   -1    0    0  502  501  0.00000000000E+00  0.00000000000E+00  0.12527686583E+04  0.12527686583E+04  0.00000000000E+00 0. -1.
         21   -1    0    0  501  502 -0.00000000000E+00 -0.00000000000E+00 -0.81332491177E+02  0.81332491177E+02  0.00000000000E+00 0. -1.
         25    1    1    2    0    0  0.15325237988E+03 -0.70704119193E+02  0.17227024653E+03  0.27163836668E+03  0.12500000000E+03 0.  0.
         25    1    1    2    0    0 -0.98377865997E+02  0.12368190609E+03  0.43171529632E+03  0.47642262277E+03  0.12500000000E+03 0.  0.
         25    1    1    2    0    0 -0.54874513888E+02 -0.52977786896E+02  0.56745062428E+03  0.58604016004E+03  0.12500000000E+03 0.  0.
</event>
<event>
 5    0  0.5735425E-005  0.2860667E+03  0.7546771E-02  0.1092421E+00
         21   -1    0    0  502  501  0.00000000000E+00  0.00000000000E+00  0.34982168045E+03  0.34982168045E+03  0.00000000000E+00 0. -1.
         21   -1    0    0  501  502 -0.00000000000E+00 -0.00000000000E+00 -0.23393107146E+03  0.23393107146E+03  0.00000000000E+00 0. -1.
         25    1    1    2    0    0 -0.83161498544E+02  0.39467791195E+02  0.39823496073E+02  0.16026369589E+03  0.12500000000E+03 0.  0.
         25    1    1    2    0    0 -0.47130225138E+02  0.15615670601E+02 -0.98233917498E+02  0.16655332430E+03  0.12500000000E+03 0.  0.
         25    1    1    2    0    0  0.13029172368E+03 -0.55083461796E+02  0.17430103042E+03  0.25693573171E+03  0.12500000000E+03 0.  0.
</event>
<event>
 5    0  0.5735425E-005  0.2706040E+03  0.7546771E-02  0.1100934E+00
         21   -1    0    0  502  501  0.00000000000E+00  0.00000000000E+00  0.19052632560E+04  0.19052632560E+04  0.00000000000E+00 0. -1.
         21   -1    0    0  501  502 -0.00000000000E+00 -0.00000000000E+00 -0.38433797193E+02  0.38433797193E+02  0.00000000000E+00 0. -1.
         25    1    1    2    0    0 -0.52976593465E+02 -0.18179519636E+02  0.22784593951E+03  0.26584918006E+03  0.12500000000E+03 0.  0.
         25    1    1    2    0    0 -0.24942167518E+02 -0.88452485887E+02  0.47366951172E+03  0.49843129949E+03  0.12500000000E+03 0.  0.
         25    1    1    2    0    0  0.77918760983E+02  0.10663200552E+03  0.11653140076E+04  0.11794165736E+04  0.12500000000E+03 0.  0.
</event>
<event>
 5    0  0.5735425E-005  0.2919381E+03  0.7546771E-02  0.1089342E+00
         21   -1    0    0  502  501  0.00000000000E+00  0.00000000000E+00  0.59571910526E+03  0.59571910526E+03  0.00000000000E+00 0.  1.
         21   -1    0    0  501  502 -0.00000000000E+00 -0.00000000000E+00 -0.14306719612E+03  0.14306719612E+03  0.00000000000E+00 0.  1.
         25    1    1    2    0    0 -0.21192364252E+02 -0.16740019446E+03  0.17469849931E+03  0.27316022234E+03  0.12500000000E+03 0.  0.
         25    1    1    2    0    0 -0.57079888878E+01  0.18657795207E+03  0.10060232989E+03  0.24614983671E+03  0.12500000000E+03 0.  0.
         25    1    1    2    0    0  0.26900353140E+02 -0.19177757603E+02  0.17735107995E+03  0.21947624232E+03  0.12500000000E+03 0.  0.
</event>
<event>
 5    0  0.5735425E-005  0.3556985E+03  0.7546771E-02  0.1060300E+00
         21   -1    0    0  502  501  0.00000000000E+00  0.00000000000E+00  0.22689857741E+04  0.22689857741E+04  0.00000000000E+00 0.  1.
         21   -1    0    0  501  502 -0.00000000000E+00 -0.00000000000E+00 -0.55761237527E+02  0.55761237527E+02  0.00000000000E+00 0.  1.
         25    1    1    2    0    0  0.11791000536E+03  0.53390183522E+02  0.23455271783E+03  0.29562350803E+03  0.12500000000E+03 0.  0.
         25    1    1    2    0    0  0.12235034915E+02 -0.11972900518E+03  0.15453948403E+04  0.15551060874E+04  0.12500000000E+03 0.  0.
         25    1    1    2    0    0 -0.13014504028E+03  0.66338821660E+02  0.43327697844E+03  0.47401741615E+03  0.12500000000E+03 0.  0.
</event>
<event>
 5    0  0.5735425E-005  0.4200591E+03  0.7546771E-02  0.1037047E+00
         21   -1    0    0  502  501  0.00000000000E+00  0.00000000000E+00  0.11438974584E+04  0.11438974584E+04  0.00000000000E+00 0.  1.
         21   -1    0    0  501  502 -0.00000000000E+00 -0.00000000000E+00 -0.15425304915E+03  0.15425304915E+03  0.00000000000E+00 0.  1.
         25    1    1    2    0    0 -0.35929084882E+02  0.25320080572E+02 -0.29235970887E+02  0.13568989503E+03  0.12500000000E+03 0.  0.
         25    1    1    2    0    0  0.26200189400E+02  0.19003840128E+03  0.79551349253E+03  0.82780901220E+03  0.12500000000E+03 0.  0.
         25    1    1    2    0    0  0.97288954815E+01 -0.21535848185E+03  0.22336688758E+03  0.33465160029E+03  0.12500000000E+03 0.  0.
</event>
<event>
 5    0  0.5735425E-005  0.3287376E+03  0.7546771E-02  0.1071697E+00
         21   -1    0    0  502  501  0.00000000000E+00  0.00000000000E+00  0.88966623993E+03  0.88966623993E+03  0.00000000000E+00 0. -1.
         21   -1    0    0  501  502 -0.00000000000E+00 -0.00000000000E+00 -0.12147069892E+03  0.12147069892E+03  0.00000000000E+00 0. -1.
         25    1    1    2    0    0 -0.15299697953E+03  0.13992127442E+03  0.49878556666E+03  0.55443491980E+03  0.12500000000E+03 0.  0.
         25    1    1    2    0    0  0.62523540792E+01 -0.51370826847E+02  0.33365645109E+02  0.13934245604E+03  0.12500000000E+03 0.  0.
         25    1    1    2    0    0  0.14674462545E+03 -0.88550447572E+02  0.23604432924E+03  0.31735956301E+03  0.12500000000E+03 0.  0.
</event>
<event>
 5    0  0.5735425E-005  0.4046604E+03  0.7546771E-02  0.1042178E+00
         21   -1    0    0  502  501  0.00000000000E+00  0.00000000000E+00  0.11111366303E+04  0.11111366303E+04  0.00000000000E+00 0.  1.
         21   -1    0    0  501  502 -0.00000000000E+00 -0.00000000000E+00 -0.14737168666E+03  0.14737168666E+03  0.00000000000E+00 0.  1.
         25    1    1    2    0    0 -0.19437280444E+03 -0.59072787727E+02  0.19267336747E+03  0.30662421282E+03  0.12500000000E+03 0.  0.
         25    1    1    2    0    0  0.16671408391E+03 -0.17346401773E+03  0.25834669851E+03  0.37450149246E+03  0.12500000000E+03 0.  0.
         25    1    1    2    0    0  0.27658720527E+02  0.23253680546E+03  0.51274487771E+03  0.57738261173E+03  0.12500000000E+03 0.  0.
</event>
<event>
 5    0  0.5735425E-005  0.2605767E+03  0.7546771E-02  0.1106797E+00
         21   -1    0    0  502  501  0.00000000000E+00  0.00000000000E+00  0.26507168377E+03  0.26507168377E+03  0.00000000000E+00 0. -1.
         21   -1    0    0  501  502 -0.00000000000E+00 -0.00000000000E+00 -0.25615792787E+03  0.25615792787E+03  0.00000000000E+00 0. -1.
         25    1    1    2    0    0  0.12639808160E+02 -0.39017387504E+02  0.45303882146E+02  0.13913864674E+03  0.12500000000E+03 0.  0.
         25    1    1    2    0    0  0.12651266231E+03 -0.17353776136E+02  0.17179151077E+02  0.17951805063E+03  0.12500000000E+03 0.  0.
         25    1    1    2    0    0 -0.13915247047E+03  0.56371163639E+02 -0.53569277317E+02  0.20257291428E+03  0.12500000000E+03 0.  0.
</event>
<event>
 5    0  0.5735425E-005  0.2456467E+03  0.7546771E-02  0.1116087E+00
         21   -1    0    0  502  501  0.00000000000E+00  0.00000000000E+00  0.35335312849E+03  0.35335312849E+03  0.00000000000E+00 0.  1.
         21   -1    0    0  501  502 -0.00000000000E+00 -0.00000000000E+00 -0.17077049543E+03  0.17077049543E+03  0.00000000000E+00 0.  1.
         25    1    1    2    0    0  0.13110429361E+03  0.26973460401E+02  0.85010895157E+02  0.20191026637E+03  0.12500000000E+03 0.  0.
         25    1    1    2    0    0 -0.66975027241E+02 -0.72654682576E+02  0.49092581790E+02  0.16673163695E+03  0.12500000000E+03 0.  0.
         25    1    1    2    0    0 -0.64129266372E+02  0.45681222175E+02  0.48479156112E+02  0.15548172060E+03  0.12500000000E+03 0.  0.
</event>
<event>
 5    0  0.5735425E-005  0.3952592E+03  0.7546771E-02  0.1045434E+00
         21   -1    0    0  502  501  0.00000000000E+00  0.00000000000E+00  0.53465943134E+03  0.53465943134E+03  0.00000000000E+00 0.  1.
         21   -1    0    0  501  502 -0.00000000000E+00 -0.00000000000E+00 -0.29220440218E+03  0.29220440218E+03  0.00000000000E+00 0.  1.
         25    1    1    2    0    0  0.24218150580E+03  0.85327117519E+02  0.16350482385E+03  0.32907662658E+03  0.12500000000E+03 0.  0.
         25    1    1    2    0    0 -0.27236200010E+03 -0.14504752683E+03 -0.50825427203E+01  0.33297248592E+03  0.12500000000E+03 0.  0.
         25    1    1    2    0    0  0.30180494301E+02  0.59720409307E+02  0.84032748027E+02  0.16481472102E+03  0.12500000000E+03 0.  0.
</event>
<event>
 5    0  0.5977162E-005  0.2737865E+03  0.7546771E-02  0.1099132E+00
         21   -1    0    0  502  501  0.00000000000E+00  0.00000000000E+00  0.11904409763E+03  0.11904409763E+03  0.00000000000E+00 0.  1.
         21   -1    0    0  501  502 -0.00000000000E+00 -0.00000000000E+00 -0.62967448987E+03  0.62967448987E+03  0.00000000000E+00 0.  1.
         25    1    1    2    0    0 -0.20658301118E+02 -0.73667288645E+02  0.20682584796E+02  0.14800812186E+03  0.12500000000E+03 0.  0.
         25    1    1    2    0    0  0.55263859339E+02  0.48688816641E+02 -0.23323700093E+03  0.27468016604E+03  0.12500000000E+03 0.  0.
         25    1    1    2    0    0 -0.34605558220E+02  0.24978472005E+02 -0.29807597611E+03  0.32603029960E+03  0.12500000000E+03 0.  0.
</event>
<event>
 5    0  0.5735425E-005  0.5974696E+03  0.7546771E-02  0.9910670E-01
         21   -1    0    0  502  501  0.00000000000E+00  0.00000000000E+00  0.12534743558E+04  0.12534743558E+04  0.00000000000E+00 0. -1.
         21   -1    0    0  501  502 -0.00000000000E+00 -0.00000000000E+00 -0.28478441928E+03  0.28478441928E+03  0.00000000000E+00 0. -1.
         25    1    1    2    0    0  0.43533382735E+02  0.17721047349E+03 -0.32084157821E+00  0.22118727420E+03  0.12500000000E+03 0.  0.
         25    1    1    2    0    0  0.29613088506E+03 -0.30973339621E+03  0.75265111489E+03  0.87506398541E+03  0.12500000000E+03 0.  0.
         25    1    1    2    0    0 -0.33966426779E+03  0.13252292271E+03  0.21635966316E+03  0.44200751544E+03  0.12500000000E+03 0.  0.
</event>
<event>
 5    0  0.5735425E-005  0.2796116E+03  0.7546771E-02  0.1095901E+00
         21   -1    0    0  502  501  0.00000000000E+00  0.00000000000E+00  0.99446168743E+02  0.99446168743E+02  0.00000000000E+00 0. -1.
         21   -1    0    0  501  502 -0.00000000000E+00 -0.00000000000E+00 -0.78618031709E+03  0.78618031709E+03  0.00000000000E+00 0. -1.
         25    1    1    2    0    0 -0.53236368997E+02  0.53505764246E+02 -0.29549206693E+03  0.32960209255E+03  0.12500000000E+03 0.  0.
         25    1    1    2    0    0  0.15111587605E+03 -0.25384228634E+02 -0.32765532006E+03  0.38270533811E+03  0.12500000000E+03 0.  0.
         25    1    1    2    0    0 -0.97879507050E+02 -0.28121535612E+02 -0.63586761354E+02  0.17331905517E+03  0.12500000000E+03 0.  0.
</event>
<event>
 5    0  0.5735425E-005  0.2608052E+03  0.7546771E-02  0.1106660E+00
         21   -1    0    0  502  501  0.00000000000E+00  0.00000000000E+00  0.29588932360E+03  0.29588932360E+03  0.00000000000E+00 0.  1.
         21   -1    0    0  501  502 -0.00000000000E+00 -0.00000000000E+00 -0.22988107750E+03  0.22988107750E+03  0.00000000000E+00 0.  1.
         25    1    1    2    0    0  0.39134872081E+02 -0.14256375067E+02 -0.36615550098E+02  0.13674970183E+03  0.12500000000E+03 0.  0.
         25    1    1    2    0    0  0.65386049276E+02 -0.93635039073E+02  0.22573149075E+01  0.16933089338E+03  0.12500000000E+03 0.  0.
         25    1    1    2    0    0 -0.10452092136E+03  0.10789141414E+03  0.10036648129E+03  0.21968980589E+03  0.12500000000E+03 0.  0.
</event>
<event>
 5    0  0.5735425E-005  0.2578538E+03  0.7546771E-02  0.1108440E+00
         21   -1    0    0  502  501  0.00000000000E+00  0.00000000000E+00  0.34262154386E+03  0.34262154386E+03  0.00000000000E+00 0. -1.
         21   -1    0    0  501  502 -0.00000000000E+00 -0.00000000000E+00 -0.19405831769E+03  0.19405831769E+03  0.00000000000E+00 0. -1.
         25    1    1    2    0    0 -0.79189161850E+02 -0.31607011316E+02  0.36776498239E+02  0.15571588661E+03  0.12500000000E+03 0.  0.
         25    1    1    2    0    0  0.14492307598E+03 -0.25936583841E+02  0.21569388529E+01  0.19314517006E+03  0.12500000000E+03 0.  0.
         25    1    1    2    0    0 -0.65733914133E+02  0.57543595157E+02  0.10962978908E+03  0.18781880487E+03  0.12500000000E+03 0.  0.
</event>
<event>
 5    0  0.5735425E-005  0.3576282E+03  0.7546771E-02  0.1059527E+00
         21   -1    0    0  502  501  0.00000000000E+00  0.00000000000E+00  0.11036595730E+03  0.11036595730E+03  0.00000000000E+00 0. -1.
         21   -1    0    0  501  502 -0.00000000000E+00 -0.00000000000E+00 -0.11588528241E+04  0.11588528241E+04  0.00000000000E+00 0. -1.
         25    1    1    2    0    0  0.78509780752E+02 -0.77933205391E+02 -0.30150735103E+03  0.34462886255E+03  0.12500000000E+03 0.  0.
         25    1    1    2    0    0  0.69322935272E+02  0.14145995912E+03 -0.62744062852E+02  0.21066183046E+03  0.12500000000E+03 0.  0.
         25    1    1    2    0    0 -0.14783271602E+03 -0.63526753733E+02 -0.68423545289E+03  0.71392808837E+03  0.12500000000E+03 0.  0.
</event>
<event>
 5    0  0.5975068E-005  0.2662326E+03  0.7546771E-02  0.1103455E+00
         21   -1    0    0  502  501  0.00000000000E+00  0.00000000000E+00  0.15346801694E+03  0.15346801694E+03  0.00000000000E+00 0.  1.
         21   -1    0    0  501  502 -0.00000000000E+00 -0.00000000000E+00 -0.46185397683E+03  0.46185397683E+03  0.00000000000E+00 0.  1.
         25    1    1    2    0    0  0.13505947906E+03 -0.31772197557E+02 -0.22116202782E+03  0.28946187654E+03  0.12500000000E+03 0.  0.
         25    1    1    2    0    0 -0.59825150325E+02 -0.47829509511E+02 -0.54933283863E+02  0.15655470695E+03  0.12500000000E+03 0.  0.
         25    1    1    2    0    0 -0.75234328740E+02  0.79601707067E+02 -0.32290648210E+02  0.16930541028E+03  0.12500000000E+03 0.  0.
</event>
<event>
 5    0  0.5735425E-005  0.2814355E+03  0.7546771E-02  0.1094907E+00
         21   -1    0    0  502  501  0.00000000000E+00  0.00000000000E+00  0.46445098376E+03  0.46445098376E+03  0.00000000000E+00 0.  1.
         21   -1    0    0  501  502 -0.00000000000E+00 -0.00000000000E+00 -0.17053667311E+03  0.17053667311E+03  0.00000000000E+00 0.  1.
         25    1    1    2    0    0  0.60137637385E+02 -0.12059837922E+02  0.13245948798E+03  0.19217827941E+03  0.12500000000E+03 0.  0.
         25    1    1    2    0    0 -0.90687263961E+02  0.94621717471E+02  0.21472392005E+03  0.28090712185E+03  0.12500000000E+03 0.  0.
         25    1    1    2    0    0  0.30549626576E+02 -0.82561879548E+02 -0.53269097372E+02  0.16190225562E+03  0.12500000000E+03 0.  0.
</event>
<event>
 5    0  0.5735425E-005  0.4617367E+03  0.7546771E-02  0.1024279E+00
         21   -1    0    0  502  501  0.00000000000E+00  0.00000000000E+00  0.40223594094E+03  0.40223594094E+03  0.00000000000E+00 0. -1.
         21   -1    0    0  501  502 -0.00000000000E+00 -0.00000000000E+00 -0.53003917051E+03  0.53003917051E+03  0.00000000000E+00 0.  1.
         25    1    1    2    0    0  0.97699006796E+02 -0.64689633372E+01  0.84164872226E+02  0.17970995836E+03  0.12500000000E+03 0.  0.
         25    1    1    2    0    0  0.18680934747E+03  0.14775979286E+03 -0.29706053596E+03  0.40075011006E+03  0.12500000000E+03 0.  0.
         25    1    1    2    0    0 -0.28450835427E+03 -0.14129082952E+03  0.85092434165E+02  0.35181504304E+03  0.12500000000E+03 0.  0.
</event>
<event>
 5    0  0.5735425E-005  0.5421547E+03  0.7546771E-02  0.1003326E+00
         21   -1    0    0  502  501  0.00000000000E+00  0.00000000000E+00  0.14966747117E+03  0.14966747117E+03  0.00000000000E+00 0. -1.
         21   -1    0    0  501  502 -0.00000000000E+00 -0.00000000000E+00 -0.19638982333E+04  0.19638982333E+04  0.00000000000E+00 0. -1.
         25    1    1    2    0    0 -0.16832501508E+02  0.58641803118E+02 -0.99492572211E+01  0.13944956758E+03  0.12500000000E+03 0.  0.
         25    1    1    2    0    0  0.17290462788E+03 -0.30141080690E+02 -0.17523756450E+04  0.17655735319E+04  0.12500000000E+03 0.  0.
         25    1    1    2    0    0 -0.15607212638E+03 -0.28500722428E+02 -0.51905859824E+02  0.20854260499E+03  0.12500000000E+03 0.  0.
</event>
<event>
 5    0  0.5735425E-005  0.5006380E+03  0.7546771E-02  0.1013613E+00
         21   -1    0    0  502  501  0.00000000000E+00  0.00000000000E+00  0.73293308871E+03  0.73293308871E+03  0.00000000000E+00 0.  1.
         21   -1    0    0  501  502 -0.00000000000E+00 -0.00000000000E+00 -0.34196626791E+03  0.34196626791E+03  0.00000000000E+00 0. -1.
         25    1    1    2    0    0 -0.40223275067E+03 -0.42401433745E+02  0.30741508601E+03  0.52318075500E+03  0.12500000000E+03 0.  0.
         25    1    1    2    0    0  0.29728506173E+03  0.89169926157E+02 -0.46551022230E+02  0.33781900676E+03  0.12500000000E+03 0.  0.
         25    1    1    2    0    0  0.10494768894E+03 -0.46768492412E+02  0.13010275702E+03  0.21389959486E+03  0.12500000000E+03 0.  0.
</event>
<event>
 5    0  0.5735425E-005  0.3624724E+03  0.7546771E-02  0.1057609E+00
         21   -1    0    0  502  501  0.00000000000E+00  0.00000000000E+00  0.85756179432E+03  0.85756179432E+03  0.00000000000E+00 0.  1.
         21   -1    0    0  501  502 -0.00000000000E+00 -0.00000000000E+00 -0.15320902876E+03  0.15320902876E+03  0.00000000000E+00 0.  1.
         25    1    1    2    0    0 -0.24101221029E+03  0.48853054257E+02  0.29997414080E+03  0.40753281042E+03  0.12500000000E+03 0.  0.
         25    1    1    2    0    0  0.12189031955E+03  0.41022461052E+02  0.36203896586E+03  0.40402636685E+03  0.12500000000E+03 0.  0.
         25    1    1    2    0    0  0.11912189075E+03 -0.89875515309E+02  0.42339658900E+02  0.19921164580E+03  0.12500000000E+03 0.  0.
</event>
<event>
 5    0  0.5735425E-005  0.2336163E+03  0.7546771E-02  0.1124120E+00
         21   -1    0    0  502  501  0.00000000000E+00  0.00000000000E+00  0.11190775641E+03  0.11190775641E+03  0.00000000000E+00 0.  1.
         21   -1    0    0  501  502 -0.00000000000E+00 -0.00000000000E+00 -0.48769245048E+03  0.48769245048E+03  0.00000000000E+00 0.  1.
         25    1    1    2    0    0 -0.54466921096E+02 -0.82374610928E+02 -0.14673229380E+03  0.21658159678E+03  0.12500000000E+03 0.  0.
         25    1    1    2    0    0  0.63694536214E+02  0.10665813095E+03 -0.15917674057E+03  0.23747670534E+03  0.12500000000E+03 0.  0.
         25    1    1    2    0    0 -0.92276151178E+01 -0.24283520017E+02 -0.69875659707E+02  0.14554190477E+03  0.12500000000E+03 0.  0.
</event>
<event>
 5    0  0.5735425E-005  0.5405677E+03  0.7546771E-02  0.1003701E+00
         21   -1    0    0  502  501  0.00000000000E+00  0.00000000000E+00  0.12901305162E+04  0.12901305162E+04  0.00000000000E+00 0. -1.
         21   -1    0    0  501  502 -0.00000000000E+00 -0.00000000000E+00 -0.22649912947E+03  0.22649912947E+03  0.00000000000E+00 0. -1.
         25    1    1    2    0    0 -0.81245522807E+02  0.30227596211E+02  0.88991596300E+03  0.90282332920E+03  0.12500000000E+03 0.  0.
         25    1    1    2    0    0  0.22986415904E+03 -0.13090441644E+02  0.28678966815E+03  0.38843558672E+03  0.12500000000E+03 0.  0.
         25    1    1    2    0    0 -0.14861863624E+03 -0.17137154567E+02 -0.11307424438E+03  0.22537072979E+03  0.12500000000E+03 0.  0.
</event>
<event>
 5    0  0.5735425E-005  0.3122979E+03  0.7546771E-02  0.1079250E+00
         21   -1    0    0  502  501  0.00000000000E+00  0.00000000000E+00  0.10252955691E+03  0.10252955691E+03  0.00000000000E+00 0. -1.
         21   -1    0    0  501  502 -0.00000000000E+00 -0.00000000000E+00 -0.95123792450E+03  0.95123792450E+03  0.00000000000E+00 0. -1.
         25    1    1    2    0    0  0.83828150666E+01 -0.19553758616E+03 -0.44929578208E+03  0.50576369876E+03  0.12500000000E+03 0.  0.
         25    1    1    2    0    0  0.73144406233E+02  0.35155488322E+02 -0.21522949587E+03  0.26179142159E+03  0.12500000000E+03 0.  0.
         25    1    1    2    0    0 -0.81527221300E+02  0.16038209784E+03 -0.18418308964E+03  0.28621236107E+03  0.12500000000E+03 0.  0.
</event>
<event>
 5    0  0.5735425E-005  0.2758387E+03  0.7546771E-02  0.1097984E+00
         21   -1    0    0  502  501  0.00000000000E+00  0.00000000000E+00  0.48542927076E+03  0.48542927076E+03  0.00000000000E+00 0. -1.
         21   -1    0    0  501  502 -0.00000000000E+00 -0.00000000000E+00 -0.15674164210E+03  0.15674164210E+03  0.00000000000E+00 0. -1.
         25    1    1    2    0    0  0.12632369026E+03  0.74735898040E+02  0.10215949143E+03  0.21818499230E+03  0.12500000000E+03 0.  0.
         25    1    1    2    0    0 -0.10214622900E+03  0.53106057579E+02  0.65407325834E+02  0.18209125109E+03  0.12500000000E+03 0.  0.
         25    1    1    2    0    0 -0.24177461258E+02 -0.12784195562E+03  0.16112081139E+03  0.24189466946E+03  0.12500000000E+03 0.  0.
</event>
<event>
 5    0  0.5735425E-005  0.7000451E+03  0.7546771E-02  0.9717155E-01
         21   -1    0    0  502  501  0.00000000000E+00  0.00000000000E+00  0.14841940452E+04  0.14841940452E+04  0.00000000000E+00 0. -1.
         21   -1    0    0  501  502 -0.00000000000E+00 -0.00000000000E+00 -0.33018806932E+03  0.33018806932E+03  0.00000000000E+00 0. -1.
         25    1    1    2    0    0  0.50307617667E+03 -0.27334044577E+03  0.91071237124E+03  0.10829693726E+04  0.12500000000E+03 0.  0.
         25    1    1    2    0    0 -0.41173151251E+03  0.11193072224E+03  0.73580005513E+02  0.45065545840E+03  0.12500000000E+03 0.  0.
         25    1    1    2    0    0 -0.91344664156E+02  0.16140972353E+03  0.16971359911E+03  0.28075728351E+03  0.12500000000E+03 0.  0.
</event>
<event>
 5    0  0.5735425E-005  0.2794649E+03  0.7546771E-02  0.1095982E+00
         21   -1    0    0  502  501  0.00000000000E+00  0.00000000000E+00  0.22386222069E+03  0.22386222069E+03  0.00000000000E+00 0. -1.
         21   -1    0    0  501  502 -0.00000000000E+00 -0.00000000000E+00 -0.34887808940E+03  0.34887808940E+03  0.00000000000E+00 0. -1.
         25    1    1    2    0    0  0.14303266666E+03 -0.30689028837E+02  0.78732745738E+02  0.20790383709E+03  0.12500000000E+03 0.  0.
         25    1    1    2    0    0 -0.75901267505E+02 -0.23342779064E+01 -0.15015167385E+03  0.20961148924E+03  0.12500000000E+03 0.  0.
         25    1    1    2    0    0 -0.67131399159E+02  0.33023306744E+02 -0.53596940591E+02  0.15522498376E+03  0.12500000000E+03 0.  0.
</event>
<event>
 5    0  0.5735425E-005  0.3481385E+03  0.7546771E-02  0.1063382E+00
         21   -1    0    0  502  501  0.00000000000E+00  0.00000000000E+00  0.20754960206E+03  0.20754960206E+03  0.00000000000E+00 0. -1.
         21   -1    0    0  501  502 -0.00000000000E+00 -0.00000000000E+00 -0.58395872496E+03  0.58395872496E+03  0.00000000000E+00 0. -1.
         25    1    1    2    0    0 -0.11121830308E+03 -0.29995603811E+02  0.98543701738E+01  0.17026848152E+03  0.12500000000E+03 0.  0.
         25    1    1    2    0    0 -0.96670490988E+02  0.66629861701E+02 -0.96413720005E+01  0.17176343718E+03  0.12500000000E+03 0.  0.
         25    1    1    2    0    0  0.20788879407E+03 -0.36634257890E+02 -0.37662212108E+03  0.44947640832E+03  0.12500000000E+03 0.  0.
</event>
<event>
 5    0  0.6299275E-005  0.3145772E+03  0.7546771E-02  0.1078172E+00
         21   -1    0    0  502  501  0.00000000000E+00  0.00000000000E+00  0.66210130117E+03  0.66210130117E+03  0.00000000000E+00 0.  1.
         21   -1    0    0  501  502 -0.00000000000E+00 -0.00000000000E+00 -0.14946178828E+03  0.14946178828E+03  0.00000000000E+00 0.  1.
         25    1    1    2    0    0 -0.66244117055E+02  0.61646992397E+02  0.33399771208E+03  0.36792404976E+03  0.12500000000E+03 0.  0.
         25    1    1    2    0    0  0.28745152401E+02  0.10283504525E+03  0.16548306783E+03  0.23326160433E+03  0.12500000000E+03 0.  0.
         25    1    1    2    0    0  0.37498964654E+02 -0.16448203765E+03  0.13158732986E+02  0.21037743537E+03  0.12500000000E+03 0.  0.
</event>
<event>
 5    0  0.5735425E-005  0.3287566E+03  0.7546771E-02  0.1071688E+00
         21   -1    0    0  502  501  0.00000000000E+00  0.00000000000E+00  0.16781758985E+03  0.16781758985E+03  0.00000000000E+00 0.  1.
         21   -1    0    0  501  502 -0.00000000000E+00 -0.00000000000E+00 -0.64403796345E+03  0.64403796345E+03  0.00000000000E+00 0.  1.
         25    1    1    2    0    0  0.50438647103E+02  0.10888342339E+03 -0.15781138355E+03  0.23436955815E+03  0.12500000000E+03 0.  0.
         25    1    1    2    0    0 -0.10410562603E+03 -0.59740494969E+02 -0.38201145712E+03  0.41948141971E+03  0.12500000000E+03 0.  0.
         25    1    1    2    0    0  0.53666978932E+02 -0.49142928419E+02  0.63602467065E+02  0.15800457543E+03  0.12500000000E+03 0.  0.
</event>
<event>
 5    0  0.5735425E-005  0.3231266E+03  0.7546771E-02  0.1074219E+00
         21   -1    0    0  502  501  0.00000000000E+00  0.00000000000E+00  0.24955865016E+03  0.24955865016E+03  0.00000000000E+00 0.  1.
         21   -1    0    0  501  502 -0.00000000000E+00 -0.00000000000E+00 -0.41838178444E+03  0.41838178444E+03  0.00000000000E+00 0.  1.
         25    1    1    2    0    0  0.71962979578E+02 -0.66302850787E+02  0.93287067347E+02  0.18412554246E+03  0.12500000000E+03 0.  0.
         25    1    1    2    0    0 -0.12636350171E+03  0.87812794160E+02 -0.28164943572E+03  0.34442738861E+03  0.12500000000E+03 0.  0.
         25    1    1    2    0    0  0.54400522133E+02 -0.21509943373E+02  0.19539234090E+02  0.13938750353E+03  0.12500000000E+03 0.  0.
</event>
<event>
 5    0  0.5735425E-005  0.5479293E+03  0.7546771E-02  0.1001974E+00
         21   -1    0    0  502  501  0.00000000000E+00  0.00000000000E+00  0.57020740665E+03  0.57020740665E+03  0.00000000000E+00 0.  1.
         21   -1    0    0  501  502 -0.00000000000E+00 -0.00000000000E+00 -0.52652151127E+03  0.52652151127E+03  0.00000000000E+00 0.  1.
         25    1    1    2    0    0 -0.22590078470E+03  0.79093504477E+01  0.40834591174E+03  0.48318226994E+03  0.12500000000E+03 0.  0.
         25    1    1    2    0    0 -0.19938698143E+01  0.13778968259E+03 -0.19977933077E+03  0.27299588486E+03  0.12500000000E+03 0.  0.
         25    1    1    2    0    0  0.22789465451E+03 -0.14569903304E+03 -0.16488068558E+03  0.34055076312E+03  0.12500000000E+03 0.  0.
</event>
<event>
 5    0  0.5735425E-005  0.2340876E+03  0.7546771E-02  0.1123795E+00
         21   -1    0    0  502  501  0.00000000000E+00  0.00000000000E+00  0.42939235873E+03  0.42939235873E+03  0.00000000000E+00 0. -1.
         21   -1    0    0  501  502 -0.00000000000E+00 -0.00000000000E+00 -0.12761518424E+03  0.12761518424E+03  0.00000000000E+00 0. -1.
         25    1    1    2    0    0 -0.10532858009E+03 -0.12658883863E+01  0.57617487681E+02  0.17332191767E+03  0.12500000000E+03 0.  0.
         25    1    1    2    0    0 -0.81123612371E+01  0.22238192781E+01  0.12563964481E+03  0.17742907351E+03  0.12500000000E+03 0.  0.
         25    1    1    2    0    0  0.11344094133E+03 -0.95793089183E+00  0.11852004200E+03  0.20625655179E+03  0.12500000000E+03 0.  0.
</event>
<event>
 5    0  0.5735425E-005  0.3056341E+03  0.7546771E-02  0.1082458E+00
         21   -1    0    0  502  501  0.00000000000E+00  0.00000000000E+00  0.11772164754E+04  0.11772164754E+04  0.00000000000E+00 0.  1.
         21   -1    0    0  501  502 -0.00000000000E+00 -0.00000000000E+00 -0.79350065408E+02  0.79350065408E+02  0.00000000000E+00 0.  1.
         25    1    1    2    0    0 -0.11332124207E+03  0.69423569236E+02  0.13771480107E+03  0.22858631259E+03  0.12500000000E+03 0.  0.
         25    1    1    2    0    0  0.17515119033E+03 -0.43817868413E+02  0.66939396301E+03  0.70449359315E+03  0.12500000000E+03 0.  0.
         25    1    1    2    0    0 -0.61829948258E+02 -0.25605700823E+02  0.29075764593E+03  0.32348663510E+03  0.12500000000E+03 0.  0.
</event>
<event>
 5    0  0.5735425E-005  0.2137824E+03  0.7546771E-02  0.1138605E+00
         21   -1    0    0  502  501  0.00000000000E+00  0.00000000000E+00  0.98048086175E+02  0.98048086175E+02  0.00000000000E+00 0. -1.
         21   -1    0    0  501  502 -0.00000000000E+00 -0.00000000000E+00 -0.46612771806E+03  0.46612771806E+03  0.00000000000E+00 0. -1.
         25    1    1    2    0    0  0.20787930101E+02  0.18116400833E+02 -0.19405914768E+03  0.23247428850E+03  0.12500000000E+03 0.  0.
         25    1    1    2    0    0 -0.22016174745E+02  0.26366511582E+02 -0.24733616349E+02  0.13197218139E+03  0.12500000000E+03 0.  0.
         25    1    1    2    0    0  0.12282446445E+01 -0.44482912416E+02 -0.14928686786E+03  0.19972933434E+03  0.12500000000E+03 0.  0.
</event>
<event>
 5    0  0.5735425E-005  0.2685571E+03  0.7546771E-02  0.1102108E+00
         21   -1    0    0  502  501  0.00000000000E+00  0.00000000000E+00  0.63811741914E+03  0.63811741914E+03  0.00000000000E+00 0.  1.
         21   -1    0    0  501  502 -0.00000000000E+00 -0.00000000000E+00 -0.11302452970E+03  0.11302452970E+03  0.00000000000E+00 0.  1.
         25    1    1    2    0    0 -0.28258370654E+02  0.20018399015E+01  0.10437478049E+03  0.16529258204E+03  0.12500000000E+03 0.  0.
         25    1    1    2    0    0  0.16784370826E+03 -0.34790608354E+02  0.26864992755E+03  0.34231517700E+03  0.12500000000E+03 0.  0.
         25    1    1    2    0    0 -0.13958533760E+03  0.32788768452E+02  0.15206818139E+03  0.24353418980E+03  0.12500000000E+03 0.  0.
</event>
<event>
 5    0  0.5735425E-005  0.2935014E+03  0.7546771E-02  0.1088535E+00
         21   -1    0    0  502  501  0.00000000000E+00  0.00000000000E+00  0.48020804485E+03  0.48020804485E+03  0.00000000000E+00 0.  1.
         21   -1    0    0  501  502 -0.00000000000E+00 -0.00000000000E+00 -0.17938694027E+03  0.17938694027E+03  0.00000000000E+00 0.  1.
         25    1    1    2    0    0  0.47178129904E+02  0.47884780781E+02  0.79784931978E+02  0.16281696331E+03  0.12500000000E+03 0.  0.
         25    1    1    2    0    0 -0.84710919388E+02 -0.84921325345E+02 -0.61114828684E+02  0.18370518133E+03  0.12500000000E+03 0.  0.
         25    1    1    2    0    0  0.37532789484E+02  0.37036544564E+02  0.28215100129E+03  0.31307284048E+03  0.12500000000E+03 0.  0.
</event>
<event>
 5    0  0.5735425E-005  0.3134737E+03  0.7546771E-02  0.1078693E+00
         21   -1    0    0  502  501  0.00000000000E+00  0.00000000000E+00  0.51485862283E+03  0.51485862283E+03  0.00000000000E+00 0. -1.
         21   -1    0    0  501  502 -0.00000000000E+00 -0.00000000000E+00 -0.19085975203E+03  0.19085975203E+03  0.00000000000E+00 0. -1.
         25    1    1    2    0    0  0.64407367097E+02 -0.58604362090E+02 -0.90025882185E+01  0.15260677176E+03  0.12500000000E+03 0.  0.
         25    1    1    2    0    0 -0.14576465156E+03  0.16787828682E+03  0.21668330905E+03  0.33467463192E+03  0.12500000000E+03 0.  0.
         25    1    1    2    0    0  0.81357284461E+02 -0.10927392473E+03  0.11631814997E+03  0.21843697117E+03  0.12500000000E+03 0.  0.
</event>
<event>
 5    0  0.5735425E-005  0.3724551E+03  0.7546771E-02  0.1053758E+00
         21   -1    0    0  502  501  0.00000000000E+00  0.00000000000E+00  0.35619925013E+03  0.35619925013E+03  0.00000000000E+00 0. -1.
         21   -1    0    0  501  502 -0.00000000000E+00 -0.00000000000E+00 -0.38945289535E+03  0.38945289535E+03  0.00000000000E+00 0. -1.
         25    1    1    2    0    0 -0.60687954775E+02 -0.61579528875E+02  0.64229048904E+02  0.16500132410E+03  0.12500000000E+03 0.  0.
         25    1    1    2    0    0 -0.84232579027E+02  0.25536176218E+03 -0.18656482489E+02  0.29711583817E+03  0.12500000000E+03 0.  0.
         25    1    1    2    0    0  0.14492053380E+03 -0.19378223331E+03 -0.78826211641E+02  0.28353498321E+03  0.12500000000E+03 0.  0.
</event>
<event>
 5    0  0.5735425E-005  0.2769993E+03  0.7546771E-02  0.1097339E+00
         21   -1    0    0  502  501  0.00000000000E+00  0.00000000000E+00  0.10705345806E+04  0.10705345806E+04  0.00000000000E+00 0. -1.
         21   -1    0    0  501  502 -0.00000000000E+00 -0.00000000000E+00 -0.71673195623E+02  0.71673195623E+02  0.00000000000E+00 0. -1.
         25    1    1    2    0    0 -0.68617368128E+02  0.19163104433E+02  0.46817133012E+03  0.48978052444E+03  0.12500000000E+03 0.  0.
         25    1    1    2    0    0  0.15361474423E+03 -0.77955953733E+02  0.34988305522E+03  0.40953360387E+03  0.12500000000E+03 0.  0.
         25    1    1    2    0    0 -0.84997376101E+02  0.58792849300E+02  0.18080699960E+03  0.24289364787E+03  0.12500000000E+03 0.  0.
</event>
<event>
 5    0  0.5735425E-005  0.4616882E+03  0.7546771E-02  0.1024293E+00
         21   -1    0    0  502  501  0.00000000000E+00  0.00000000000E+00  0.12195049510E+04  0.12195049510E+04  0.00000000000E+00 0. -1.
         21   -1    0    0  501  502 -0.00000000000E+00 -0.00000000000E+00 -0.17478896871E+03  0.17478896871E+03  0.00000000000E+00 0. -1.
         25    1    1    2    0    0  0.19889581982E+03 -0.19179036973E+03  0.14985769635E+03  0.33826826960E+03  0.12500000000E+03 0.  0.
         25    1    1    2    0    0 -0.22474297970E+03  0.26045205415E+03  0.80804086536E+03  0.88707368325E+03  0.12500000000E+03 0.  0.
         25    1    1    2    0    0  0.25847159882E+02 -0.68661684419E+02  0.86817420535E+02  0.16895196681E+03  0.12500000000E+03 0.  0.
</event>
<event>
 5    0  0.5735425E-005  0.4514281E+03  0.7546771E-02  0.1027297E+00
         21   -1    0    0  502  501  0.00000000000E+00  0.00000000000E+00  0.20795492243E+03  0.20795492243E+03  0.00000000000E+00 0. -1.
         21   -1    0    0  501  502 -0.00000000000E+00 -0.00000000000E+00 -0.97995927268E+03  0.97995927268E+03  0.00000000000E+00 0. -1.
         25    1    1    2    0    0  0.30973560484E+03  0.43732802652E+02 -0.14840272654E+03  0.36809926946E+03  0.12500000000E+03 0.  0.
         25    1    1    2    0    0 -0.21597741624E+03  0.27447897532E+02 -0.59493550808E+03  0.64573438051E+03  0.12500000000E+03 0.  0.
         25    1    1    2    0    0 -0.93758188603E+02 -0.71180700184E+02 -0.28666115634E+02  0.17408054513E+03  0.12500000000E+03 0.  0.
</event>
<event>
 5    0  0.6157048E-005  0.5612285E+03  0.7546771E-02  0.9989279E-01
         21   -1    0    0  502  501  0.00000000000E+00  0.00000000000E+00  0.31908312984E+03  0.31908312984E+03  0.00000000000E+00 0.  1.
         21   -1    0    0  501  502 -0.00000000000E+00 -0.00000000000E+00 -0.98713265680E+03  0.98713265680E+03  0.00000000000E+00 0.  1.
         25    1    1    2    0    0  0.75293866939E+02  0.28002101829E+03 -0.31268524508E+03  0.44438496776E+03  0.12500000000E+03 0.  0.
         25    1    1    2    0    0  0.13764794429E+03 -0.61478494408E+02  0.15804304437E+03  0.25165286749E+03  0.12500000000E+03 0.  0.
         25    1    1    2    0    0 -0.21294181123E+03 -0.21854252388E+03 -0.51340732625E+03  0.61017795139E+03  0.12500000000E+03 0.  0.
</event>
<event>
 5    0  0.6005713E-005  0.2854580E+03  0.7546771E-02  0.1092745E+00
         21   -1    0    0  502  501  0.00000000000E+00  0.00000000000E+00  0.15125579491E+03  0.15125579491E+03  0.00000000000E+00 0. -1.
         21   -1    0    0  501  502 -0.00000000000E+00 -0.00000000000E+00 -0.53873155824E+03  0.53873155824E+03  0.00000000000E+00 0. -1.
         25    1    1    2    0    0  0.94943609435E+02  0.14782966281E+03 -0.14339243463E+03  0.25894842824E+03  0.12500000000E+03 0.  0.
         25    1    1    2    0    0 -0.12695770551E+03 -0.34457716886E+02 -0.14840437941E+03  0.23442366149E+03  0.12500000000E+03 0.  0.
         25    1    1    2    0    0  0.32014096074E+02 -0.11337194592E+03 -0.95678949300E+02  0.19661526342E+03  0.12500000000E+03 0.  0.
</event>
<event>
 5    0  0.5735425E-005  0.4818506E+03  0.7546771E-02  0.1018628E+00
         21   -1    0    0  502  501  0.00000000000E+00  0.00000000000E+00  0.20465100357E+03  0.20465100357E+03  0.00000000000E+00 0. -1.
         21   -1    0    0  501  502 -0.00000000000E+00 -0.00000000000E+00 -0.11345166204E+04  0.11345166204E+04  0.00000000000E+00 0. -1.
         25    1    1    2    0    0 -0.83771507413E+02 -0.43970091781E+02  0.13427278384E+03  0.20641030717E+03  0.12500000000E+03 0.  0.
         25    1    1    2    0    0  0.10162074490E+03  0.13515986913E+03 -0.78952187900E+03  0.81704636554E+03  0.12500000000E+03 0.  0.
         25    1    1    2    0    0 -0.17849237488E+02 -0.91189777344E+02 -0.27461652167E+03  0.31571095126E+03  0.12500000000E+03 0.  0.
</event>
<event>
 5    0  0.5735425E-005  0.2322710E+03  0.7546771E-02  0.1125051E+00
         21   -1    0    0  502  501  0.00000000000E+00  0.00000000000E+00  0.15139534480E+04  0.15139534480E+04  0.00000000000E+00 0. -1.
         21   -1    0    0  501  502 -0.00000000000E+00 -0.00000000000E+00 -0.35635070771E+02  0.35635070771E+02  0.00000000000E+00 0. -1.
         25    1    1    2    0    0 -0.23492508142E+02  0.86406285796E+02  0.40365839833E+03  0.43195259775E+03  0.12500000000E+03 0.  0.
         25    1    1    2    0    0  0.32016093315E+02 -0.10913380192E+03  0.46341033342E+03  0.49326398011E+03  0.12500000000E+03 0.  0.
         25    1    1    2    0    0 -0.85235851727E+01  0.22727516127E+02  0.61124964551E+03  0.62437194094E+03  0.12500000000E+03 0.  0.
</event>
<event>
 5    0  0.5735425E-005  0.3773826E+03  0.7546771E-02  0.1051905E+00
         21   -1    0    0  502  501  0.00000000000E+00  0.00000000000E+00  0.13300429715E+03  0.13300429715E+03  0.00000000000E+00 0. -1.
         21   -1    0    0  501  502 -0.00000000000E+00 -0.00000000000E+00 -0.10707748809E+04  0.10707748809E+04  0.00000000000E+00 0. -1.
         25    1    1    2    0    0  0.11564164287E+03  0.37395104381E+02  0.11808549252E+02  0.17474502921E+03  0.12500000000E+03 0.  0.
         25    1    1    2    0    0 -0.17710006186E+03  0.84377088862E+01 -0.34994680342E+03  0.41173218488E+03  0.12500000000E+03 0.  0.
         25    1    1    2    0    0  0.61458418992E+02 -0.45832813267E+02 -0.59963232958E+03  0.61730196396E+03  0.12500000000E+03 0.  0.
</event>
<event>
 5    0  0.5735425E-005  0.3337548E+03  0.7546771E-02  0.1069487E+00
         21   -1    0    0  502  501  0.00000000000E+00  0.00000000000E+00  0.27449604408E+03  0.27449604408E+03  0.00000000000E+00 0. -1.
         21   -1    0    0  501  502 -0.00000000000E+00 -0.00000000000E+00 -0.40580649269E+03  0.40580649269E+03  0.00000000000E+00 0. -1.
         25    1    1    2    0    0  0.17578000097E+02  0.58920573823E+01 -0.92877236188E+02  0.15682755953E+03  0.12500000000E+03 0.  0.
         25    1    1    2    0    0  0.31761725751E+02  0.32569888595E+00  0.20682551641E+03  0.24374311794E+03  0.12500000000E+03 0.  0.
         25    1    1    2    0    0 -0.49339725847E+02 -0.62177562682E+01 -0.24525872884E+03  0.27973185931E+03  0.12500000000E+03 0.  0.
</event>
<event>
 5    0  0.5735425E-005  0.2369721E+03  0.7546771E-02  0.1121826E+00
         21   -1    0    0  502  501  0.00000000000E+00  0.00000000000E+00  0.60537113271E+02  0.60537113271E+02  0.00000000000E+00 0.  1.
         21   -1    0    0  501  502 -0.00000000000E+00 -0.00000000000E+00 -0.92762592316E+03  0.92762592316E+03  0.00000000000E+00 0.  1.
         25    1    1    2    0    0  0.18467718429E+01 -0.22076444964E+01 -0.19463502707E+03  0.23133542319E+03  0.12500000000E+03 0.  0.
         25    1    1    2    0    0 -0.77236639422E+02 -0.20094132786E+02 -0.53468547907E+03  0.55487190790E+03  0.12500000000E+03 0.  0.
         25    1    1    2    0    0  0.75389867580E+02  0.22301777282E+02 -0.13776830375E+03  0.20195570534E+03  0.12500000000E+03 0.  0.
</event>
<event>
 5    0  0.5735425E-005  0.3150956E+03  0.7546771E-02  0.1077929E+00
         21   -1    0    0  502  501  0.00000000000E+00  0.00000000000E+00  0.77005824140E+03  0.77005824140E+03  0.00000000000E+00 0. -1.
         21   -1    0    0  501  502 -0.00000000000E+00 -0.00000000000E+00 -0.12893208896E+03  0.12893208896E+03  0.00000000000E+00 0. -1.
         25    1    1    2    0    0 -0.13512668820E+03  0.56047433952E+02  0.27750381096E+03  0.33768906085E+03  0.12500000000E+03 0.  0.
         25    1    1    2    0    0 -0.61309916689E+02 -0.12173173640E+03  0.17390513764E+03  0.25386121883E+03  0.12500000000E+03 0.  0.
         25    1    1    2    0    0  0.19643660489E+03  0.65684302445E+02  0.18971720384E+03  0.30744005068E+03  0.12500000000E+03 0.  0.
</event>
<event>
 5    0  0.7718603E-005  0.3451091E+03  0.7546771E-02  0.1064641E+00
         21   -1    0    0  502  501  0.00000000000E+00  0.00000000000E+00  0.12555368046E+03  0.12555368046E+03  0.00000000000E+00 0. -1.
         21   -1    0    0  501  502 -0.00000000000E+00 -0.00000000000E+00 -0.94860075808E+03  0.94860075808E+03  0.00000000000E+00 0. -1.
         25    1    1    2    0    0  0.39050869459E+02 -0.94019757379E+02 -0.10197037209E+02  0.16153533592E+03  0.12500000000E+03 0.  0.
         25    1    1    2    0    0  0.25056078050E+02 -0.10911027640E+03 -0.31768470131E+03  0.35927904045E+03  0.12500000000E+03 0.  0.
         25    1    1    2    0    0 -0.64106947509E+02  0.20313003378E+03 -0.49516533911E+03  0.55334006217E+03  0.12500000000E+03 0.  0.
</event>
<event>
 5    0  0.5735425E-005  0.4030549E+03  0.7546771E-02  0.1042727E+00
         21   -1    0    0  502  501  0.00000000000E+00  0.00000000000E+00  0.16738912629E+03  0.16738912629E+03  0.00000000000E+00 0. -1.
         21   -1    0    0  501  502 -0.00000000000E+00 -0.00000000000E+00 -0.97051238170E+03  0.97051238170E+03  0.00000000000E+00 0. -1.
         25    1    1    2    0    0  0.76335310503E+02  0.85507583901E+02 -0.36575678113E+03  0.40316454392E+03  0.12500000000E+03 0.  0.
         25    1    1    2    0    0 -0.25366106509E+03  0.86818218567E+02 -0.13668534555E+03  0.32586687881E+03  0.12500000000E+03 0.  0.
         25    1    1    2    0    0  0.17732575459E+03 -0.17232580247E+03 -0.30068112874E+03  0.40887008526E+03  0.12500000000E+03 0.  0.
</event>
<event>
 5    0  0.5735425E-005  0.2539118E+03  0.7546771E-02  0.1110857E+00
         21   -1    0    0  502  501  0.00000000000E+00  0.00000000000E+00  0.78656353456E+03  0.78656353456E+03  0.00000000000E+00 0. -1.
         21   -1    0    0  501  502 -0.00000000000E+00 -0.00000000000E+00 -0.81965684404E+02  0.81965684404E+02  0.00000000000E+00 0. -1.
         25    1    1    2    0    0 -0.85895198923E+02 -0.90717616397E+02  0.15372901537E+03  0.23423339064E+03  0.12500000000E+03 0.  0.
         25    1    1    2    0    0  0.32527194298E+01  0.73322270896E+02  0.16303699941E+03  0.21815773827E+03  0.12500000000E+03 0.  0.
         25    1    1    2    0    0  0.82642479493E+02  0.17395345501E+02  0.38783183538E+03  0.41613809005E+03  0.12500000000E+03 0.  0.
</event>
<event>
 5    0  0.5735425E-005  0.4486944E+03  0.7546771E-02  0.1028112E+00
         21   -1    0    0  502  501  0.00000000000E+00  0.00000000000E+00  0.19866178514E+03  0.19866178514E+03  0.00000000000E+00 0.  1.
         21   -1    0    0  501  502 -0.00000000000E+00 -0.00000000000E+00 -0.10134141834E+04  0.10134141834E+04  0.00000000000E+00 0.  1.
         25    1    1    2    0    0 -0.10722146706E+03 -0.39465847512E+02 -0.11559407213E+02  0.16974279370E+03  0.12500000000E+03 0.  0.
         25    1    1    2    0    0  0.41517052545E+01 -0.22505206096E+03 -0.64424780866E+03  0.69379096690E+03  0.12500000000E+03 0.  0.
         25    1    1    2    0    0  0.10306976181E+03  0.26451790847E+03 -0.15894518238E+03  0.34854220792E+03  0.12500000000E+03 0.  0.
</event>
<event>
 5    0  0.5735425E-005  0.3504706E+03  0.7546771E-02  0.1062422E+00
         21   -1    0    0  502  501  0.00000000000E+00  0.00000000000E+00  0.18697928899E+03  0.18697928899E+03  0.00000000000E+00 0. -1.
         21   -1    0    0  501  502 -0.00000000000E+00 -0.00000000000E+00 -0.65691584776E+03  0.65691584776E+03  0.00000000000E+00 0. -1.
         25    1    1    2    0    0 -0.77978559012E+02 -0.76607470028E+02  0.45283066443E+00  0.16605590982E+03  0.12500000000E+03 0.  0.
         25    1    1    2    0    0  0.24131271083E+03  0.23881753124E+02 -0.30087713311E+03  0.40614555491E+03  0.12500000000E+03 0.  0.
         25    1    1    2    0    0 -0.16333415182E+03  0.52725716903E+02 -0.16951225633E+03  0.27169367203E+03  0.12500000000E+03 0.  0.
</event>
<event>
 5    0  0.5735425E-005  0.3852690E+03  0.7546771E-02  0.1049003E+00
         21   -1    0    0  502  501  0.00000000000E+00  0.00000000000E+00  0.61092420350E+03  0.61092420350E+03  0.00000000000E+00 0.  1.
         21   -1    0    0  501  502 -0.00000000000E+00 -0.00000000000E+00 -0.24296334300E+03  0.24296334300E+03  0.00000000000E+00 0.  1.
         25    1    1    2    0    0 -0.89774132954E+02  0.13589806366E+03 -0.10118575992E+03  0.22889132064E+03  0.12500000000E+03 0.  0.
         25    1    1    2    0    0 -0.80184387100E+02  0.19875986708E+02  0.19022158086E+03  0.24214425578E+03  0.12500000000E+03 0.  0.
         25    1    1    2    0    0  0.16995852005E+03 -0.15577405037E+03  0.27892503956E+03  0.38285197009E+03  0.12500000000E+03 0.  0.
</event>
<event>
 5    0  0.5735425E-005  0.2601736E+03  0.7546771E-02  0.1107039E+00
         21   -1    0    0  502  501  0.00000000000E+00  0.00000000000E+00  0.12263009093E+03  0.12263009093E+03  0.00000000000E+00 0.  1.
         21   -1    0    0  501  502 -0.00000000000E+00 -0.00000000000E+00 -0.55198761725E+03  0.55198761725E+03  0.00000000000E+00 0.  1.
         25    1    1    2    0    0 -0.64573364980E+01 -0.30920085282E+02 -0.10584003859E+03  0.16680786144E+03  0.12500000000E+03 0.  0.
         25    1    1    2    0    0 -0.36389577913E+02 -0.11073581220E+03 -0.24513026207E+03  0.29883183710E+03  0.12500000000E+03 0.  0.
         25    1    1    2    0    0  0.42846914411E+02  0.14165589748E+03 -0.78387225663E+02  0.20897800964E+03  0.12500000000E+03 0.  0.
</event>
<event>
 5    0  0.5735425E-005  0.3799603E+03  0.7546771E-02  0.1050948E+00
         21   -1    0    0  502  501  0.00000000000E+00  0.00000000000E+00  0.27752970824E+03  0.27752970824E+03  0.00000000000E+00 0.  1.
         21   -1    0    0  501  502 -0.00000000000E+00 -0.00000000000E+00 -0.52019597980E+03  0.52019597980E+03  0.00000000000E+00 0.  1.
         25    1    1    2    0    0 -0.75525939896E+02  0.22222246690E+03 -0.46136053581E+02  0.26988984388E+03  0.12500000000E+03 0.  0.
         25    1    1    2    0    0  0.95396433676E+02 -0.20817138613E+03 -0.27435480853E+03  0.37859129220E+03  0.12500000000E+03 0.  0.
         25    1    1    2    0    0 -0.19870493780E+02 -0.14051080766E+02  0.77824590556E+02  0.14924455196E+03  0.12500000000E+03 0.  0.
</event>
<event>
 5    0  0.5735425E-005  0.3305892E+03  0.7546771E-02  0.1070876E+00
         21   -1    0    0  502  501  0.00000000000E+00  0.00000000000E+00  0.13887496855E+03  0.13887496855E+03  0.00000000000E+00 0. -1.
         21   -1    0    0  501  502 -0.00000000000E+00 -0.00000000000E+00 -0.78696138754E+03  0.78696138754E+03  0.00000000000E+00 0. -1.
         25    1    1    2    0    0 -0.11768137120E+03 -0.37847960171E+02 -0.13092262530E+03  0.21919650324E+03  0.12500000000E+03 0.  0.
         25    1    1    2    0    0  0.24930385315E+03 -0.22446703144E+02 -0.37714498438E+03  0.46959515002E+03  0.12500000000E+03 0.  0.
         25    1    1    2    0    0 -0.13162248195E+03  0.60294663315E+02 -0.14001880932E+03  0.23704470284E+03  0.12500000000E+03 0.  0.
</event>
<event>
 5    0  0.5735425E-005  0.2861497E+03  0.7546771E-02  0.1092377E+00
         21   -1    0    0  502  501  0.00000000000E+00  0.00000000000E+00  0.31059599762E+03  0.31059599762E+03  0.00000000000E+00 0. -1.
         21   -1    0    0  501  502 -0.00000000000E+00 -0.00000000000E+00 -0.26362756402E+03  0.26362756402E+03  0.00000000000E+00 0. -1.
         25    1    1    2    0    0 -0.49675897829E+02  0.34270328337E+02  0.30571151547E+02  0.14213284468E+03  0.12500000000E+03 0.  0.
         25    1    1    2    0    0  0.12634841142E+03  0.53771483455E+02  0.13007808592E+03  0.22671700849E+03  0.12500000000E+03 0.  0.
         25    1    1    2    0    0 -0.76672513591E+02 -0.88041811792E+02 -0.11368080387E+03  0.20537370848E+03  0.12500000000E+03 0.  0.
</event>
<event>
 5    0  0.5735425E-005  0.2340246E+03  0.7546771E-02  0.1123839E+00
         21   -1    0    0  502  501  0.00000000000E+00  0.00000000000E+00  0.44096768039E+03  0.44096768039E+03  0.00000000000E+00 0. -1.
         21   -1    0    0  501  502 -0.00000000000E+00 -0.00000000000E+00 -0.12419848198E+03  0.12419848198E+03  0.00000000000E+00 0. -1.
         25    1    1    2    0    0 -0.24621264382E+02 -0.37322515849E+02 -0.71887470675E+01  0.13295057327E+03  0.12500000000E+03 0.  0.
         25    1    1    2    0    0 -0.19391029902E+01 -0.43275934300E+02  0.12168929006E+03  0.17974940869E+03  0.12500000000E+03 0.  0.
         25    1    1    2    0    0  0.26560367372E+02  0.80598450149E+02  0.20226865541E+03  0.25246618040E+03  0.12500000000E+03 0.  0.
</event>
<event>
 5    0  0.5735425E-005  0.1104746E+04  0.7546771E-02  0.9200579E-01
         21   -1    0    0  502  501  0.00000000000E+00  0.00000000000E+00  0.10244278931E+04  0.10244278931E+04  0.00000000000E+00 0.  1.
         21   -1    0    0  501  502 -0.00000000000E+00 -0.00000000000E+00 -0.11913606469E+04  0.11913606469E+04  0.00000000000E+00 0.  1.
         25    1    1    2    0    0  0.51032143936E+03  0.33990875747E+03  0.99914093651E+02  0.63369847797E+03  0.12500000000E+03 0.  0.
         25    1    1    2    0    0  0.45493061515E+03  0.10059756419E+03 -0.63657348585E+01  0.48243886359E+03  0.12500000000E+03 0.  0.
         25    1    1    2    0    0 -0.96525205451E+03 -0.44050632166E+03 -0.26048111256E+03  0.10996511984E+04  0.12500000000E+03 0.  0.
</event>
<event>
 5    0  0.5735425E-005  0.2414208E+03  0.7546771E-02  0.1118850E+00
         21   -1    0    0  502  501  0.00000000000E+00  0.00000000000E+00  0.93202008244E+02  0.93202008244E+02  0.00000000000E+00 0. -1.
         21   -1    0    0  501  502 -0.00000000000E+00 -0.00000000000E+00 -0.62535150172E+03  0.62535150172E+03  0.00000000000E+00 0. -1.
         25    1    1    2    0    0  0.93905661367E+02  0.31589831383E+01 -0.89917069015E+02  0.18038384548E+03  0.12500000000E+03 0.  0.
         25    1    1    2    0    0 -0.26720791586E+02 -0.74152178363E+02 -0.22375309523E+03  0.26814733615E+03  0.12500000000E+03 0.  0.
         25    1    1    2    0    0 -0.67184869782E+02  0.70993195225E+02 -0.21847932923E+03  0.27002232833E+03  0.12500000000E+03 0.  0.
</event>
<event>
 5    0  0.5735425E-005  0.3620737E+03  0.7546771E-02  0.1057766E+00
         21   -1    0    0  502  501  0.00000000000E+00  0.00000000000E+00  0.43293356941E+03  0.43293356941E+03  0.00000000000E+00 0. -1.
         21   -1    0    0  501  502 -0.00000000000E+00 -0.00000000000E+00 -0.30281178836E+03  0.30281178836E+03  0.00000000000E+00 0. -1.
         25    1    1    2    0    0 -0.36107759362E+02 -0.11288234764E+02  0.18866070788E+03  0.22945382374E+03  0.12500000000E+03 0.  0.
         25    1    1    2    0    0 -0.15704677722E+02 -0.13739846127E+03  0.13270006869E+03  0.22882150750E+03  0.12500000000E+03 0.  0.
         25    1    1    2    0    0  0.51812437084E+02  0.14868669604E+03 -0.19123899552E+03  0.27747002653E+03  0.12500000000E+03 0.  0.
</event>
<event>
 5    0  0.5735425E-005  0.3639775E+03  0.7546771E-02  0.1057020E+00
         21   -1    0    0  502  501  0.00000000000E+00  0.00000000000E+00  0.15767327331E+03  0.15767327331E+03  0.00000000000E+00 0. -1.
         21   -1    0    0  501  502 -0.00000000000E+00 -0.00000000000E+00 -0.84021589538E+03  0.84021589538E+03  0.00000000000E+00 0. -1.
         25    1    1    2    0    0  0.11824005717E+03 -0.69551010868E+02 -0.47288010035E+03  0.50799472786E+03  0.12500000000E+03 0.  0.
         25    1    1    2    0    0  0.39228032184E+02 -0.13787106854E+01 -0.24109464835E+03  0.27439454953E+03  0.12500000000E+03 0.  0.
         25    1    1    2    0    0 -0.15746808935E+03  0.70929721554E+02  0.31432126622E+02  0.21549989130E+03  0.12500000000E+03 0.  0.
</event>
<event>
 5    0  0.5735425E-005  0.2494430E+03  0.7546771E-02  0.1113657E+00
         21   -1    0    0  502  501  0.00000000000E+00  0.00000000000E+00  0.38940394652E+03  0.38940394652E+03  0.00000000000E+00 0. -1.
         21   -1    0    0  501  502 -0.00000000000E+00 -0.00000000000E+00 -0.15978725482E+03  0.15978725482E+03  0.00000000000E+00 0. -1.
         25    1    1    2    0    0 -0.84027196076E+01 -0.13217209319E+03  0.14335528699E+03  0.23176670646E+03  0.12500000000E+03 0.  0.
         25    1    1    2    0    0 -0.18698651191E+02  0.82534663761E+01  0.46702261444E+02  0.13499577952E+03  0.12500000000E+03 0.  0.
         25    1    1    2    0    0  0.27101370799E+02  0.12391862682E+03  0.39559143264E+02  0.18242871536E+03  0.12500000000E+03 0.  0.
</event>
<event>
 5    0  0.5735425E-005  0.3504265E+03  0.7546771E-02  0.1062440E+00
         21   -1    0    0  502  501  0.00000000000E+00  0.00000000000E+00  0.12685270800E+03  0.12685270800E+03  0.00000000000E+00 0. -1.
         21   -1    0    0  501  502 -0.00000000000E+00 -0.00000000000E+00 -0.96804180180E+03  0.96804180180E+03  0.00000000000E+00 0. -1.
         25    1    1    2    0    0  0.29857558230E+02  0.91819078527E+02 -0.13242108292E+03  0.20611297913E+03  0.12500000000E+03 0.  0.
         25    1    1    2    0    0  0.19391021219E+03 -0.72335099460E+02 -0.50804141703E+03  0.56264075432E+03  0.12500000000E+03 0.  0.
         25    1    1    2    0    0 -0.22376777041E+03 -0.19483979067E+02 -0.20072659385E+03  0.32614077635E+03  0.12500000000E+03 0.  0.
</event>
<event>
 5    0  0.5735425E-005  0.2356395E+03  0.7546771E-02  0.1122732E+00
         21   -1    0    0  502  501  0.00000000000E+00  0.00000000000E+00  0.16438798730E+03  0.16438798730E+03  0.00000000000E+00 0.  1.
         21   -1    0    0  501  502 -0.00000000000E+00 -0.00000000000E+00 -0.33777380773E+03  0.33777380773E+03  0.00000000000E+00 0.  1.
         25    1    1    2    0    0 -0.34902188900E+02 -0.60831795571E+02 -0.44419365715E+02  0.15005582359E+03  0.12500000000E+03 0.  0.
         25    1    1    2    0    0 -0.39015917409E+02  0.80497015413E+02 -0.13621470467E+03  0.20538124810E+03  0.12500000000E+03 0.  0.
         25    1    1    2    0    0  0.73918106309E+02 -0.19665219842E+02  0.72482499573E+01  0.14672472334E+03  0.12500000000E+03 0.  0.
</event>
<event>
 5    0  0.5735425E-005  0.2811099E+03  0.7546771E-02  0.1095084E+00
         21   -1    0    0  502  501  0.00000000000E+00  0.00000000000E+00  0.41297319220E+03  0.41297319220E+03  0.00000000000E+00 0. -1.
         21   -1    0    0  501  502 -0.00000000000E+00 -0.00000000000E+00 -0.19135087161E+03  0.19135087161E+03  0.00000000000E+00 0. -1.
         25    1    1    2    0    0  0.87322980619E+01  0.79416814611E+02  0.14916676262E+03  0.21037824636E+03  0.12500000000E+03 0.  0.
         25    1    1    2    0    0 -0.20831354021E+02 -0.29996327469E+02  0.17944830365E+03  0.22172148893E+03  0.12500000000E+03 0.  0.
         25    1    1    2    0    0  0.12099055959E+02 -0.49420487143E+02 -0.10699274567E+03  0.17222432851E+03  0.12500000000E+03 0.  0.
</event>
<event>
 5    0  0.5735425E-005  0.2595769E+03  0.7546771E-02  0.1107398E+00
         21   -1    0    0  502  501  0.00000000000E+00  0.00000000000E+00  0.26739505561E+03  0.26739505561E+03  0.00000000000E+00 0. -1.
         21   -1    0    0  501  502 -0.00000000000E+00 -0.00000000000E+00 -0.25198738207E+03  0.25198738207E+03  0.00000000000E+00 0. -1.
         25    1    1    2    0    0 -0.12031659868E+03  0.11857337848E+02 -0.19008841415E+02  0.17493717853E+03  0.12500000000E+03 0.  0.
         25    1    1    2    0    0  0.13063190697E+03 -0.46654558207E+01 -0.56370228726E+02  0.18944409276E+03  0.12500000000E+03 0.  0.
         25    1    1    2    0    0 -0.10315308285E+02 -0.71918820273E+01  0.90786743680E+02  0.15500116638E+03  0.12500000000E+03 0.  0.
</event>
<event>
 5    0  0.5735425E-005  0.4625450E+03  0.7546771E-02  0.1024046E+00
         21   -1    0    0  502  501  0.00000000000E+00  0.00000000000E+00  0.17428527481E+03  0.17428527481E+03  0.00000000000E+00 0. -1.
         21   -1    0    0  501  502 -0.00000000000E+00 -0.00000000000E+00 -0.12275730624E+04  0.12275730624E+04  0.00000000000E+00 0. -1.
         25    1    1    2    0    0  0.35651343999E+03 -0.14835427752E+03 -0.61266837545E+03  0.73491384722E+03  0.12500000000E+03 0.  0.
         25    1    1    2    0    0 -0.25692922343E+03  0.28863697695E+02 -0.33473730378E+03  0.44104399037E+03  0.12500000000E+03 0.  0.
         25    1    1    2    0    0 -0.99584216558E+02  0.11949057983E+03 -0.10588210834E+03  0.22590049960E+03  0.12500000000E+03 0.  0.
</event>
<event>
 5    0  0.6435589E-005  0.4761943E+03  0.7546771E-02  0.1020186E+00
         21   -1    0    0  502  501  0.00000000000E+00  0.00000000000E+00  0.25837469162E+03  0.25837469162E+03  0.00000000000E+00 0. -1.
         21   -1    0    0  501  502 -0.00000000000E+00 -0.00000000000E+00 -0.87764423521E+03  0.87764423521E+03  0.00000000000E+00 0. -1.
         25    1    1    2    0    0 -0.17437028297E+03  0.25287886106E+02  0.55872114241E+02  0.22313934193E+03  0.12500000000E+03 0.  0.
         25    1    1    2    0    0 -0.18319415252E+03 -0.15310182273E+02 -0.34443142288E+03  0.40994207428E+03  0.12500000000E+03 0.  0.
         25    1    1    2    0    0  0.35756443549E+03 -0.99777038337E+01 -0.33071023495E+03  0.50293751063E+03  0.12500000000E+03 0.  0.
</event>
<event>
 5    0  0.5735425E-005  0.2749224E+03  0.7546771E-02  0.1098495E+00
         21   -1    0    0  502  501  0.00000000000E+00  0.00000000000E+00  0.16686172291E+04  0.16686172291E+04  0.00000000000E+00 0. -1.
         21   -1    0    0  501  502 -0.00000000000E+00 -0.00000000000E+00 -0.45296389307E+02  0.45296389307E+02  0.00000000000E+00 0. -1.
         25    1    1    2    0    0 -0.90131303264E+02 -0.10921483928E+03  0.78430317580E+03  0.80672672233E+03  0.12500000000E+03 0.  0.
         25    1    1    2    0    0  0.10869789484E+03  0.18104734249E+00  0.53883234886E+03  0.56372028995E+03  0.12500000000E+03 0.  0.
         25    1    1    2    0    0 -0.18566591580E+02  0.10903379194E+03  0.30018531517E+03  0.34346660617E+03  0.12500000000E+03 0.  0.
</event>
<event>
 5    0  0.5735425E-005  0.2432838E+03  0.7546771E-02  0.1117624E+00
         21   -1    0    0  502  501  0.00000000000E+00  0.00000000000E+00  0.42227156656E+03  0.42227156656E+03  0.00000000000E+00 0. -1.
         21   -1    0    0  501  502 -0.00000000000E+00 -0.00000000000E+00 -0.14016333861E+03  0.14016333861E+03  0.00000000000E+00 0. -1.
         25    1    1    2    0    0  0.82921320572E+02  0.47582288388E+02  0.11156934864E+03  0.19290603705E+03  0.12500000000E+03 0.  0.
         25    1    1    2    0    0  0.38529850118E+01 -0.97979574860E+02  0.12708896605E+03  0.20344888271E+03  0.12500000000E+03 0.  0.
         25    1    1    2    0    0 -0.86774305583E+02  0.50397286472E+02  0.43449913258E+02  0.16607998541E+03  0.12500000000E+03 0.  0.
</event>
<event>
 5    0  0.5735425E-005  0.3897999E+03  0.7546771E-02  0.1047370E+00
         21   -1    0    0  502  501  0.00000000000E+00  0.00000000000E+00  0.35654317881E+03  0.35654317881E+03  0.00000000000E+00 0.  1.
         21   -1    0    0  501  502 -0.00000000000E+00 -0.00000000000E+00 -0.42615857492E+03  0.42615857492E+03  0.00000000000E+00 0.  1.
         25    1    1    2    0    0 -0.77224645008E+02 -0.90827326481E+02 -0.55274572459E+02  0.18136572828E+03  0.12500000000E+03 0.  0.
         25    1    1    2    0    0 -0.19781187132E+03  0.10840543398E+03 -0.11506443995E+03  0.28239351957E+03  0.12500000000E+03 0.  0.
         25    1    1    2    0    0  0.27503651633E+03 -0.17578107497E+02  0.10072361630E+03  0.31894250588E+03  0.12500000000E+03 0.  0.
</event>
<event>
 5    0  0.5735425E-005  0.5895900E+03  0.7546771E-02  0.9927242E-01
         21   -1    0    0  502  501  0.00000000000E+00  0.00000000000E+00  0.11716059043E+04  0.11716059043E+04  0.00000000000E+00 0.  1.
         21   -1    0    0  501  502 -0.00000000000E+00 -0.00000000000E+00 -0.29670074284E+03  0.29670074284E+03  0.00000000000E+00 0.  1.
         25    1    1    2    0    0 -0.23166831956E+02 -0.13770313851E+03 -0.16260457266E+03  0.24812114684E+03  0.12500000000E+03 0.  0.
         25    1    1    2    0    0 -0.76994372357E+02  0.11009915080E+03  0.10415530323E+04  0.10575952323E+04  0.12500000000E+03 0.  0.
         25    1    1    2    0    0  0.10016120431E+03  0.27603987710E+02 -0.40432981477E+01  0.16259026800E+03  0.12500000000E+03 0.  0.
</event>
<event>
 5    0  0.6755459E-005  0.4190300E+03  0.7546771E-02  0.1037382E+00
         21   -1    0    0  502  501  0.00000000000E+00  0.00000000000E+00  0.92205906673E+03  0.92205906673E+03  0.00000000000E+00 0.  1.
         21   -1    0    0  501  502 -0.00000000000E+00 -0.00000000000E+00 -0.19042828583E+03  0.19042828583E+03  0.00000000000E+00 0.  1.
         25    1    1    2    0    0  0.11821711243E+03  0.84311136051E+02  0.46822598750E+03  0.50590930878E+03  0.12500000000E+03 0.  0.
         25    1    1    2    0    0  0.15278249189E+03  0.70040774655E+02  0.83857630915E+02  0.22562203395E+03  0.12500000000E+03 0.  0.
         25    1    1    2    0    0 -0.27099960432E+03 -0.15435191071E+03  0.17954716248E+03  0.38095600984E+03  0.12500000000E+03 0.  0.
</event>
<event>
 5    0  0.5735425E-005  0.2090288E+03  0.7546771E-02  0.1142337E+00
         21   -1    0    0  502  501  0.00000000000E+00  0.00000000000E+00  0.18402565218E+04  0.18402565218E+04  0.00000000000E+00 0. -1.
         21   -1    0    0  501  502 -0.00000000000E+00 -0.00000000000E+00 -0.23742906279E+02  0.23742906279E+02  0.00000000000E+00 0. -1.
         25    1    1    2    0    0 -0.25004795450E+02 -0.73688126012E+02  0.61024500233E+03  0.62775723220E+03  0.12500000000E+03 0.  0.
         25    1    1    2    0    0 -0.13699095761E+02  0.53806387965E+02  0.54921425764E+03  0.56598948171E+03  0.12500000000E+03 0.  0.
         25    1    1    2    0    0  0.38703891211E+02  0.19881738048E+02  0.65705435556E+03  0.67025271418E+03  0.12500000000E+03 0.  0.
</event>
<event>
 5    0  0.5735425E-005  0.4520582E+03  0.7546771E-02  0.1027110E+00
         21   -1    0    0  502  501  0.00000000000E+00  0.00000000000E+00  0.26755363606E+04  0.26755363606E+04  0.00000000000E+00 0. -1.
         21   -1    0    0  501  502 -0.00000000000E+00 -0.00000000000E+00 -0.76379681480E+02  0.76379681480E+02  0.00000000000E+00 0. -1.
         25    1    1    2    0    0  0.36409917855E+02 -0.12032316829E+03  0.17934982068E+03  0.25217990626E+03  0.12500000000E+03 0.  0.
         25    1    1    2    0    0 -0.28887784809E+03 -0.11745097815E+02  0.11485680648E+04  0.11909752130E+04  0.12500000000E+03 0.  0.
         25    1    1    2    0    0  0.25246793023E+03  0.13206826610E+03  0.12712387937E+04  0.13087609229E+04  0.12500000000E+03 0.  0.
</event>
<event>
 5    0  0.5735425E-005  0.3056295E+03  0.7546771E-02  0.1082460E+00
         21   -1    0    0  502  501  0.00000000000E+00  0.00000000000E+00  0.59603160832E+03  0.59603160832E+03  0.00000000000E+00 0. -1.
         21   -1    0    0  501  502 -0.00000000000E+00 -0.00000000000E+00 -0.15671882749E+03  0.15671882749E+03  0.00000000000E+00 0. -1.
         25    1    1    2    0    0 -0.76949797251E+01  0.63991135825E+02  0.17055672448E+03  0.22106260299E+03  0.12500000000E+03 0.  0.
         25    1    1    2    0    0  0.13554489639E+03  0.33369205038E+02 -0.86625829762E+01  0.18757921827E+03  0.12500000000E+03 0.  0.
         25    1    1    2    0    0 -0.12784991666E+03 -0.97360340863E+02  0.27741863932E+03  0.34410861455E+03  0.12500000000E+03 0.  0.
</event>
<event>
 5    0  0.5735425E-005  0.2785461E+03  0.7546771E-02  0.1096486E+00
         21   -1    0    0  502  501  0.00000000000E+00  0.00000000000E+00  0.56664122987E+03  0.56664122987E+03  0.00000000000E+00 0. -1.
         21   -1    0    0  501  502 -0.00000000000E+00 -0.00000000000E+00 -0.13692602678E+03  0.13692602678E+03  0.00000000000E+00 0. -1.
         25    1    1    2    0    0  0.11397798286E+03 -0.86826094773E+02  0.32451577453E+02  0.19289338037E+03  0.12500000000E+03 0.  0.
         25    1    1    2    0    0  0.35273969042E+01  0.62571706744E+02  0.23406326059E+03  0.27265045566E+03  0.12500000000E+03 0.  0.
         25    1    1    2    0    0 -0.11750537976E+03  0.24254388029E+02  0.16320036506E+03  0.23802342063E+03  0.12500000000E+03 0.  0.
</event>
<event>
 5    0  0.5735425E-005  0.2385960E+03  0.7546771E-02  0.1120732E+00
         21   -1    0    0  502  501  0.00000000000E+00  0.00000000000E+00  0.45983439621E+02  0.45983439621E+02  0.00000000000E+00 0.  1.
         21   -1    0    0  501  502 -0.00000000000E+00 -0.00000000000E+00 -0.12380119949E+04  0.12380119949E+04  0.00000000000E+00 0.  1.
         25    1    1    2    0    0  0.45208746261E+02  0.28602376653E+02 -0.40038184348E+03  0.42283867760E+03  0.12500000000E+03 0.  0.
         25    1    1    2    0    0  0.31352436053E+02 -0.93860241517E+02 -0.53707181756E+03  0.56023553743E+03  0.12500000000E+03 0.  0.
         25    1    1    2    0    0 -0.76561182314E+02  0.65257864864E+02 -0.25457489428E+03  0.30092121953E+03  0.12500000000E+03 0.  0.
</event>
<event>
 5    0  0.5735425E-005  0.3652535E+03  0.7546771E-02  0.1056523E+00
         21   -1    0    0  502  501  0.00000000000E+00  0.00000000000E+00  0.23741202634E+04  0.23741202634E+04  0.00000000000E+00 0.  1.
         21   -1    0    0  501  502 -0.00000000000E+00 -0.00000000000E+00 -0.56193485595E+02  0.56193485595E+02  0.00000000000E+00 0.  1.
         25    1    1    2    0    0  0.13975007295E+03 -0.41748676793E+02  0.19624035003E+03  0.27460573534E+03  0.12500000000E+03 0.  0.
         25    1    1    2    0    0  0.15276232926E+02  0.10885415886E+03  0.11115143568E+04  0.11239091407E+04  0.12500000000E+03 0.  0.
         25    1    1    2    0    0 -0.15502630587E+03 -0.67105482067E+02  0.10101720710E+04  0.10317988730E+04  0.12500000000E+03 0.  0.
</event>
<event>
 5    0  0.5735425E-005  0.4117036E+03  0.7546771E-02  0.1039801E+00
         21   -1    0    0  502  501  0.00000000000E+00  0.00000000000E+00  0.28110840205E+03  0.28110840205E+03  0.00000000000E+00 0. -1.
         21   -1    0    0  501  502 -0.00000000000E+00 -0.00000000000E+00 -0.60296962310E+03  0.60296962310E+03  0.00000000000E+00 0. -1.
         25    1    1    2    0    0  0.13219198363E+03  0.53548578643E+02  0.11234342772E+03  0.22042734985E+03  0.12500000000E+03 0.  0.
         25    1    1    2    0    0  0.13384850623E+03 -0.61654261285E+02 -0.25259647335E+03  0.31803560949E+03  0.12500000000E+03 0.  0.
         25    1    1    2    0    0 -0.26604048986E+03  0.81056826420E+01 -0.18160817542E+03  0.34561506581E+03  0.12500000000E+03 0.  0.
</event>
<event>
 5    0  0.5735425E-005  0.4724280E+03  0.7546771E-02  0.1021237E+00
         21   -1    0    0  502  501  0.00000000000E+00  0.00000000000E+00  0.74859180129E+03  0.74859180129E+03  0.00000000000E+00 0.  1.
         21   -1    0    0  501  502 -0.00000000000E+00 -0.00000000000E+00 -0.29814404179E+03  0.29814404179E+03  0.00000000000E+00 0.  1.
         25    1    1    2    0    0 -0.56701429928E+02  0.48613336051E+02  0.55613095792E+02  0.15587214319E+03  0.12500000000E+03 0.  0.
         25    1    1    2    0    0  0.55024344324E+01  0.34355794412E+03  0.91237317297E+02  0.37684424610E+03  0.12500000000E+03 0.  0.
         25    1    1    2    0    0  0.51198995496E+02 -0.39217128017E+03  0.30359734641E+03  0.51401945379E+03  0.12500000000E+03 0.  0.
</event>
<event>
 5    0  0.5735425E-005  0.2744005E+03  0.7546771E-02  0.1098787E+00
         21   -1    0    0  502  501  0.00000000000E+00  0.00000000000E+00  0.39401549114E+03  0.39401549114E+03  0.00000000000E+00 0. -1.
         21   -1    0    0  501  502 -0.00000000000E+00 -0.00000000000E+00 -0.19109810388E+03  0.19109810388E+03  0.00000000000E+00 0. -1.
         25    1    1    2    0    0  0.37017225579E+02  0.91107342246E+02  0.98727245120E+02  0.18719746721E+03  0.12500000000E+03 0.  0.
         25    1    1    2    0    0  0.21438698613E+02 -0.15910664882E+03 -0.13954375616E+02  0.20394672857E+03  0.12500000000E+03 0.  0.
         25    1    1    2    0    0 -0.58455924191E+02  0.67999306574E+02  0.11814451775E+03  0.19396939924E+03  0.12500000000E+03 0.  0.
</event>
<event>
 5    0  0.5735425E-005  0.2502588E+03  0.7546771E-02  0.1113141E+00
         21   -1    0    0  502  501  0.00000000000E+00  0.00000000000E+00  0.16525035533E+03  0.16525035533E+03  0.00000000000E+00 0.  1.
         21   -1    0    0  501  502 -0.00000000000E+00 -0.00000000000E+00 -0.37899750220E+03  0.37899750220E+03  0.00000000000E+00 0.  1.
         25    1    1    2    0    0  0.13983041627E+01 -0.51989897262E+02  0.48694547255E+01  0.13547551905E+03  0.12500000000E+03 0.  0.
         25    1    1    2    0    0 -0.10967822392E+03 -0.14736023641E+02 -0.11114303002E+03  0.20055980733E+03  0.12500000000E+03 0.  0.
         25    1    1    2    0    0  0.10827991976E+03  0.66725920903E+02 -0.10747357157E+03  0.20821253116E+03  0.12500000000E+03 0.  0.
</event>
<event>
 5    0  0.5735425E-005  0.3600734E+03  0.7546771E-02  0.1058555E+00
         21   -1    0    0  502  501  0.00000000000E+00  0.00000000000E+00  0.24600961108E+03  0.24600961108E+03  0.00000000000E+00 0. -1.
         21   -1    0    0  501  502 -0.00000000000E+00 -0.00000000000E+00 -0.52702357057E+03  0.52702357057E+03  0.00000000000E+00 0. -1.
         25    1    1    2    0    0 -0.20222738091E+02  0.59345727291E+01 -0.17760795976E+03  0.21820578741E+03  0.12500000000E+03 0.  0.
         25    1    1    2    0    0  0.45455910763E+02 -0.15082872667E+03  0.13936995060E+03  0.24467228642E+03  0.12500000000E+03 0.  0.
         25    1    1    2    0    0 -0.25233172673E+02  0.14489415394E+03 -0.24277595032E+03  0.31015510782E+03  0.12500000000E+03 0.  0.
</event>
<event>
 5    0  0.5735425E-005  0.3229329E+03  0.7546771E-02  0.1074307E+00
         21   -1    0    0  502  501  0.00000000000E+00  0.00000000000E+00  0.31033076358E+03  0.31033076358E+03  0.00000000000E+00 0.  1.
         21   -1    0    0  501  502 -0.00000000000E+00 -0.00000000000E+00 -0.33604688344E+03  0.33604688344E+03  0.00000000000E+00 0.  1.
         25    1    1    2    0    0 -0.18890161863E+03 -0.52134632757E+01 -0.16026105402E+03  0.27752406591E+03  0.12500000000E+03 0.  0.
         25    1    1    2    0    0  0.11581746642E+02  0.67225955277E+01  0.61330566230E+02  0.13987769122E+03  0.12500000000E+03 0.  0.
         25    1    1    2    0    0  0.17731987199E+03 -0.15091322521E+01  0.73214367925E+02  0.22897588990E+03  0.12500000000E+03 0.  0.
</event>
<event>
 5    0  0.5735425E-005  0.3373670E+03  0.7546771E-02  0.1067923E+00
         21   -1    0    0  502  501  0.00000000000E+00  0.00000000000E+00  0.10626784100E+04  0.10626784100E+04  0.00000000000E+00 0.  1.
         21   -1    0    0  501  502 -0.00000000000E+00 -0.00000000000E+00 -0.10710340588E+03  0.10710340588E+03  0.00000000000E+00 0.  1.
         25    1    1    2    0    0 -0.24748660684E+02 -0.15589135459E+03  0.42099579056E+03  0.46666590438E+03  0.12500000000E+03 0.  0.
         25    1    1    2    0    0  0.81578966755E+02 -0.52941291119E+02  0.65058125291E+02  0.17121760362E+03  0.12500000000E+03 0.  0.
         25    1    1    2    0    0 -0.56830306072E+02  0.20883264571E+03  0.46952108829E+03  0.53189830791E+03  0.12500000000E+03 0.  0.
</event>
<event>
 5    0  0.5735425E-005  0.2731450E+03  0.7546771E-02  0.1099493E+00
         21   -1    0    0  502  501  0.00000000000E+00  0.00000000000E+00  0.16150120743E+03  0.16150120743E+03  0.00000000000E+00 0.  1.
         21   -1    0    0  501  502 -0.00000000000E+00 -0.00000000000E+00 -0.46196668161E+03  0.46196668161E+03  0.00000000000E+00 0.  1.
         25    1    1    2    0    0 -0.71808060893E+02 -0.10652014752E+03 -0.22175367202E+03  0.28513616131E+03  0.12500000000E+03 0.  0.
         25    1    1    2    0    0 -0.22147569049E+01  0.12969918030E+03 -0.60834725025E+02  0.19013849239E+03  0.12500000000E+03 0.  0.
         25    1    1    2    0    0  0.74022817798E+02 -0.23179032782E+02 -0.17877077135E+02  0.14819323535E+03  0.12500000000E+03 0.  0.
</event>
<event>
 5    0  0.5735425E-005  0.2753191E+03  0.7546771E-02  0.1098273E+00
         21   -1    0    0  502  501  0.00000000000E+00  0.00000000000E+00  0.11619407151E+04  0.11619407151E+04  0.00000000000E+00 0.  1.
         21   -1    0    0  501  502 -0.00000000000E+00 -0.00000000000E+00 -0.65236205261E+02  0.65236205261E+02  0.00000000000E+00 0.  1.
         25    1    1    2    0    0 -0.60746656599E+02  0.49637022395E+02  0.36980316510E+03  0.39816249346E+03  0.12500000000E+03 0.  0.
         25    1    1    2    0    0  0.12369418117E+02  0.36287142174E+02  0.60876730834E+02  0.14422460105E+03  0.12500000000E+03 0.  0.
         25    1    1    2    0    0  0.48377238482E+02 -0.85924164570E+02  0.66602461392E+03  0.68478982587E+03  0.12500000000E+03 0.  0.
</event>
<event>
 5    0  0.5735425E-005  0.2792952E+03  0.7546771E-02  0.1096074E+00
         21   -1    0    0  502  501  0.00000000000E+00  0.00000000000E+00  0.42064983654E+03  0.42064983654E+03  0.00000000000E+00 0. -1.
         21   -1    0    0  501  502 -0.00000000000E+00 -0.00000000000E+00 -0.18544124023E+03  0.18544124023E+03  0.00000000000E+00 0. -1.
         25    1    1    2    0    0 -0.14010005847E+03  0.12761707885E+02  0.59930486038E+02  0.19750329295E+03  0.12500000000E+03 0.  0.
         25    1    1    2    0    0  0.12498032414E+03  0.54675801607E+02  0.33329358551E+01  0.18505575691E+03  0.12500000000E+03 0.  0.
         25    1    1    2    0    0  0.15119734329E+02 -0.67437509492E+02  0.17194517441E+03  0.22353202691E+03  0.12500000000E+03 0.  0.
</event>
<event>
 5    0  0.5735425E-005  0.2577670E+03  0.7546771E-02  0.1108492E+00
         21   -1    0    0  502  501  0.00000000000E+00  0.00000000000E+00  0.13699978246E+03  0.13699978246E+03  0.00000000000E+00 0. -1.
         21   -1    0    0  501  502 -0.00000000000E+00 -0.00000000000E+00 -0.48499208907E+03  0.48499208907E+03  0.00000000000E+00 0. -1.
         25    1    1    2    0    0 -0.99927825034E+02  0.58316611970E+02 -0.14342745709E+03  0.22267202989E+03  0.12500000000E+03 0.  0.
         25    1    1    2    0    0  0.22266815879E+01  0.26811158457E+02 -0.17519553030E+03  0.21689230085E+03  0.12500000000E+03 0.  0.
         25    1    1    2    0    0  0.97701143446E+02 -0.85127770426E+02 -0.29369319217E+02  0.18242754079E+03  0.12500000000E+03 0.  0.
</event>
<event>
 5    0  0.5735425E-005  0.6238448E+03  0.7546771E-02  0.9857134E-01
         21   -1    0    0  502  501  0.00000000000E+00  0.00000000000E+00  0.40298888101E+03  0.40298888101E+03  0.00000000000E+00 0.  1.
         21   -1    0    0  501  502 -0.00000000000E+00 -0.00000000000E+00 -0.96573958145E+03  0.96573958145E+03  0.00000000000E+00 0.  1.
         25    1    1    2    0    0 -0.11691071639E+03  0.18450633023E+03  0.78012882217E+02  0.26348000170E+03  0.12500000000E+03 0.  0.
         25    1    1    2    0    0  0.17285836430E+03 -0.45448336920E+03 -0.62559874839E+03  0.80214334191E+03  0.12500000000E+03 0.  0.
         25    1    1    2    0    0 -0.55947647913E+02  0.26997703897E+03 -0.15164834258E+02  0.30310511885E+03  0.12500000000E+03 0.  0.
</event>
<event>
 5    0  0.6079465E-005  0.2724047E+03  0.7546771E-02  0.1099911E+00
         21   -1    0    0  502  501  0.00000000000E+00  0.00000000000E+00  0.27585202662E+03  0.27585202662E+03  0.00000000000E+00 0. -1.
         21   -1    0    0  501  502 -0.00000000000E+00 -0.00000000000E+00 -0.26900051747E+03  0.26900051747E+03  0.00000000000E+00 0. -1.
         25    1    1    2    0    0  0.83398081506E+02  0.14972674902E+02  0.35493134646E+02  0.15512634721E+03  0.12500000000E+03 0.  0.
         25    1    1    2    0    0 -0.36041606712E+02  0.14363506498E+02  0.12707243326E+03  0.18242179428E+03  0.12500000000E+03 0.  0.
         25    1    1    2    0    0 -0.47356474794E+02 -0.29336181401E+02 -0.15571405876E+03  0.20730440260E+03  0.12500000000E+03 0.  0.
</event>
<event>
 5    0  0.5735425E-005  0.2626976E+03  0.7546771E-02  0.1105533E+00
         21   -1    0    0  502  501  0.00000000000E+00  0.00000000000E+00  0.20864113182E+03  0.20864113182E+03  0.00000000000E+00 0.  1.
         21   -1    0    0  501  502 -0.00000000000E+00 -0.00000000000E+00 -0.33075956892E+03  0.33075956892E+03  0.00000000000E+00 0.  1.
         25    1    1    2    0    0  0.13769511683E+02 -0.15065062852E+02  0.31432217918E+02  0.13049727926E+03  0.12500000000E+03 0.  0.
         25    1    1    2    0    0  0.37342976137E+02 -0.65312196094E+02 -0.19766262885E+03  0.24567396213E+03  0.12500000000E+03 0.  0.
         25    1    1    2    0    0 -0.51112487820E+02  0.80377258947E+02  0.44111973832E+02  0.16322945936E+03  0.12500000000E+03 0.  0.
</event>
<event>
 5    0  0.5735425E-005  0.1115734E+04  0.7546771E-02  0.9189991E-01
         21   -1    0    0  502  501  0.00000000000E+00  0.00000000000E+00  0.12680357122E+04  0.12680357122E+04  0.00000000000E+00 0.  1.
         21   -1    0    0  501  502 -0.00000000000E+00 -0.00000000000E+00 -0.98172500702E+03  0.98172500702E+03  0.00000000000E+00 0.  1.
         25    1    1    2    0    0  0.52700615296E+02 -0.49830834102E+03  0.77240395983E+03  0.92915092140E+03  0.12500000000E+03 0.  0.
         25    1    1    2    0    0 -0.17378260087E+03 -0.25297143104E+03  0.10646253823E+03  0.34807213237E+03  0.12500000000E+03 0.  0.
         25    1    1    2    0    0  0.12108198557E+03  0.75127977206E+03 -0.59255579284E+03  0.97253766548E+03  0.12500000000E+03 0.  0.
</event>
<event>
 5    0  0.5735425E-005  0.5351670E+03  0.7546771E-02  0.1004987E+00
         21   -1    0    0  502  501  0.00000000000E+00  0.00000000000E+00  0.21453145229E+03  0.21453145229E+03  0.00000000000E+00 0.  1.
         21   -1    0    0  501  502 -0.00000000000E+00 -0.00000000000E+00 -0.13350196475E+04  0.13350196475E+04  0.00000000000E+00 0.  1.
         25    1    1    2    0    0  0.25822403013E+03  0.34234995192E+03 -0.59984056040E+03  0.74787488072E+03  0.12500000000E+03 0.  0.
         25    1    1    2    0    0 -0.14305635964E+03 -0.35082195141E+03 -0.48464591456E+03  0.62773228858E+03  0.12500000000E+03 0.  0.
         25    1    1    2    0    0 -0.11516767049E+03  0.84719994928E+01 -0.36001720271E+02  0.17394393052E+03  0.12500000000E+03 0.  0.
</event>
<event>
 5    0  0.5735425E-005  0.2322365E+03  0.7546771E-02  0.1125075E+00
         21   -1    0    0  502  501  0.00000000000E+00  0.00000000000E+00  0.13859083335E+03  0.13859083335E+03  0.00000000000E+00 0. -1.
         21   -1    0    0  501  502 -0.00000000000E+00 -0.00000000000E+00 -0.38915833871E+03  0.38915833871E+03  0.00000000000E+00 0. -1.
         25    1    1    2    0    0  0.42488695370E+02  0.44471734652E+02 -0.14379934094E+03  0.20021557100E+03  0.12500000000E+03 0.  0.
         25    1    1    2    0    0 -0.65573642071E+02 -0.97723779420E+02 -0.64167504340E+02  0.18328204553E+03  0.12500000000E+03 0.  0.
         25    1    1    2    0    0  0.23084946702E+02  0.53252044767E+02 -0.42600660085E+02  0.14425155554E+03  0.12500000000E+03 0.  0.
</event>
<event>
 5    0  0.5735425E-005  0.3147146E+03  0.7546771E-02  0.1078108E+00
         21   -1    0    0  502  501  0.00000000000E+00  0.00000000000E+00  0.18828870315E+03  0.18828870315E+03  0.00000000000E+00 0.  1.
         21   -1    0    0  501  502 -0.00000000000E+00 -0.00000000000E+00 -0.52602894681E+03  0.52602894681E+03  0.00000000000E+00 0.  1.
         25    1    1    2    0    0 -0.19307392613E+01  0.41464669440E+01 -0.21849069895E+03  0.25176200363E+03  0.12500000000E+03 0.  0.
         25    1    1    2    0    0 -0.19665251969E+02  0.17994304220E+03 -0.87526783679E+02  0.23675337047E+03  0.12500000000E+03 0.  0.
         25    1    1    2    0    0  0.21595991230E+02 -0.18408950914E+03 -0.31722761022E+02  0.22580227585E+03  0.12500000000E+03 0.  0.
</event>
<event>
 5    0  0.5735425E-005  0.2811208E+03  0.7546771E-02  0.1095078E+00
         21   -1    0    0  502  501  0.00000000000E+00  0.00000000000E+00  0.21993840272E+03  0.21993840272E+03  0.00000000000E+00 0.  1.
         21   -1    0    0  501  502 -0.00000000000E+00 -0.00000000000E+00 -0.35932297652E+03  0.35932297652E+03  0.00000000000E+00 0.  1.
         25    1    1    2    0    0 -0.15262702807E+03  0.17190620078E+02 -0.47365135301E+02  0.20361479111E+03  0.12500000000E+03 0.  0.
         25    1    1    2    0    0 -0.11948274626E+02 -0.32101771641E+02  0.32877920586E+02  0.13371328532E+03  0.12500000000E+03 0.  0.
         25    1    1    2    0    0  0.16457530270E+03  0.14911151563E+02 -0.12489735909E+03  0.24193330280E+03  0.12500000000E+03 0.  0.
</event>
<event>
 5    0  0.5735425E-005  0.4899370E+03  0.7546771E-02  0.1016439E+00
         21   -1    0    0  502  501  0.00000000000E+00  0.00000000000E+00  0.10487527750E+04  0.10487527750E+04  0.00000000000E+00 0. -1.
         21   -1    0    0  501  502 -0.00000000000E+00 -0.00000000000E+00 -0.22887971108E+03  0.22887971108E+03  0.00000000000E+00 0. -1.
         25    1    1    2    0    0 -0.28344494159E+03 -0.15249646744E+03  0.21470653344E+03  0.40659574887E+03  0.12500000000E+03 0.  0.
         25    1    1    2    0    0  0.37206722477E+03  0.70326182730E+02  0.23697288750E+03  0.46385443960E+03  0.12500000000E+03 0.  0.
         25    1    1    2    0    0 -0.88622283183E+02  0.82170284714E+02  0.36819364300E+03  0.40718229764E+03  0.12500000000E+03 0.  0.
</event>
<event>
 5    0  0.5735425E-005  0.3707058E+03  0.7546771E-02  0.1054423E+00
         21   -1    0    0  502  501  0.00000000000E+00  0.00000000000E+00  0.22551765197E+03  0.22551765197E+03  0.00000000000E+00 0.  1.
         21   -1    0    0  501  502 -0.00000000000E+00 -0.00000000000E+00 -0.60936598508E+03  0.60936598508E+03  0.00000000000E+00 0.  1.
         25    1    1    2    0    0 -0.12412669538E+03 -0.43428344116E+02  0.93020305118E+02  0.20389025171E+03  0.12500000000E+03 0.  0.
         25    1    1    2    0    0  0.12869319507E+03  0.83446217543E+02 -0.45722735920E+03  0.49820384149E+03  0.12500000000E+03 0.  0.
         25    1    1    2    0    0 -0.45664996894E+01 -0.40017873427E+02 -0.19641279035E+02  0.13278954385E+03  0.12500000000E+03 0.  0.
</event>
<event>
 5    0  0.5735425E-005  0.2167919E+03  0.7546771E-02  0.1136298E+00
         21   -1    0    0  502  501  0.00000000000E+00  0.00000000000E+00  0.13676779814E+03  0.13676779814E+03  0.00000000000E+00 0. -1.
         21   -1    0    0  501  502 -0.00000000000E+00 -0.00000000000E+00 -0.34363875230E+03  0.34363875230E+03  0.00000000000E+00 0. -1.
         25    1    1    2    0    0 -0.37779413224E+02 -0.24415644895E+02 -0.73621517598E+02  0.15188329609E+03  0.12500000000E+03 0.  0.
         25    1    1    2    0    0 -0.13891544952E+02  0.56359543892E+02 -0.27033086788E+01  0.13784658533E+03  0.12500000000E+03 0.  0.
         25    1    1    2    0    0  0.51670958176E+02 -0.31943898998E+02 -0.13054612788E+03  0.19067666902E+03  0.12500000000E+03 0.  0.
</event>
<event>
 5    0  0.5735425E-005  0.3664163E+03  0.7546771E-02  0.1056072E+00
         21   -1    0    0  502  501  0.00000000000E+00  0.00000000000E+00  0.89820608252E+02  0.89820608252E+02  0.00000000000E+00 0. -1.
         21   -1    0    0  501  502 -0.00000000000E+00 -0.00000000000E+00 -0.14947671243E+04  0.14947671243E+04  0.00000000000E+00 0. -1.
         25    1    1    2    0    0 -0.14061082907E+03  0.89056517032E+02 -0.49257653204E+03  0.53475144543E+03  0.12500000000E+03 0.  0.
         25    1    1    2    0    0 -0.11365433078E+03  0.62235308086E+02 -0.46882570458E+03  0.50220820559E+03  0.12500000000E+03 0.  0.
         25    1    1    2    0    0  0.25426515985E+03 -0.15129182512E+03 -0.44354427938E+03  0.54762808149E+03  0.12500000000E+03 0.  0.
</event>
<event>
 5    0  0.5735425E-005  0.2379950E+03  0.7546771E-02  0.1121136E+00
         21   -1    0    0  502  501  0.00000000000E+00  0.00000000000E+00  0.11709040585E+03  0.11709040585E+03  0.00000000000E+00 0.  1.
         21   -1    0    0  501  502 -0.00000000000E+00 -0.00000000000E+00 -0.48374256270E+03  0.48374256270E+03  0.00000000000E+00 0.  1.
         25    1    1    2    0    0  0.13649423271E+03 -0.48404398611E+01 -0.17900201569E+03  0.25752830338E+03  0.12500000000E+03 0.  0.
         25    1    1    2    0    0 -0.80278380976E+02 -0.13461023435E+02 -0.94569586033E+02  0.17661886707E+03  0.12500000000E+03 0.  0.
         25    1    1    2    0    0 -0.56215851734E+02  0.18301463296E+02 -0.93080555127E+02  0.16668579810E+03  0.12500000000E+03 0.  0.
</event>
<event>
 5    0  0.5735425E-005  0.2498537E+03  0.7546771E-02  0.1113397E+00
         21   -1    0    0  502  501  0.00000000000E+00  0.00000000000E+00  0.11345096886E+04  0.11345096886E+04  0.00000000000E+00 0.  1.
         21   -1    0    0  501  502 -0.00000000000E+00 -0.00000000000E+00 -0.55025412688E+02  0.55025412688E+02  0.00000000000E+00 0.  1.
         25    1    1    2    0    0  0.62227180067E+02 -0.62437872791E+02  0.31092323910E+03  0.34650969757E+03  0.12500000000E+03 0.  0.
         25    1    1    2    0    0 -0.11278963445E+03 -0.30850432407E+02  0.49870760009E+03  0.52726418540E+03  0.12500000000E+03 0.  0.
         25    1    1    2    0    0  0.50562454387E+02  0.93288305198E+02  0.26985343671E+03  0.31576121830E+03  0.12500000000E+03 0.  0.
</event>
<event>
 5    0  0.5735425E-005  0.3306040E+03  0.7546771E-02  0.1070870E+00
         21   -1    0    0  502  501  0.00000000000E+00  0.00000000000E+00  0.17018768358E+03  0.17018768358E+03  0.00000000000E+00 0. -1.
         21   -1    0    0  501  502 -0.00000000000E+00 -0.00000000000E+00 -0.64222637013E+03  0.64222637013E+03  0.00000000000E+00 0. -1.
         25    1    1    2    0    0  0.34726155347E+02 -0.36528589452E+02 -0.25073246771E+03  0.28466122686E+03  0.12500000000E+03 0.  0.
         25    1    1    2    0    0  0.11979688730E+02  0.12679464044E+03 -0.29953210656E+03  0.34866155029E+03  0.12500000000E+03 0.  0.
         25    1    1    2    0    0 -0.46705844077E+02 -0.90266050992E+02  0.78225887725E+02  0.17909127657E+03  0.12500000000E+03 0.  0.
</event>
<event>
 5    0  0.5735425E-005  0.3484330E+03  0.7546771E-02  0.1063260E+00
         21   -1    0    0  502  501  0.00000000000E+00  0.00000000000E+00  0.17154027812E+03  0.17154027812E+03  0.00000000000E+00 0.  1.
         21   -1    0    0  501  502 -0.00000000000E+00 -0.00000000000E+00 -0.70773782372E+03  0.70773782372E+03  0.00000000000E+00 0.  1.
         25    1    1    2    0    0 -0.10196893629E+03 -0.15187218013E+03 -0.45916920068E+02  0.22626574335E+03  0.12500000000E+03 0.  0.
         25    1    1    2    0    0  0.16363007296E+03 -0.92276225573E+01 -0.31839013220E+03  0.37928515141E+03  0.12500000000E+03 0.  0.
         25    1    1    2    0    0 -0.61661136665E+02  0.16109980268E+03 -0.17189049333E+03  0.27372720708E+03  0.12500000000E+03 0.  0.
</event>
<event>
 5    0  0.5735425E-005  0.2392462E+03  0.7546771E-02  0.1120296E+00
         21   -1    0    0  502  501  0.00000000000E+00  0.00000000000E+00  0.61700548856E+02  0.61700548856E+02  0.00000000000E+00 0.  1.
         21   -1    0    0  501  502 -0.00000000000E+00 -0.00000000000E+00 -0.92768652259E+03  0.92768652259E+03  0.00000000000E+00 0.  1.
         25    1    1    2    0    0 -0.12537629051E+02 -0.12685693476E+03 -0.32789128569E+03  0.37334644671E+03  0.12500000000E+03 0.  0.
         25    1    1    2    0    0  0.45924589099E+01  0.11104975632E+03 -0.24225749271E+03  0.29439230939E+03  0.12500000000E+03 0.  0.
         25    1    1    2    0    0  0.79451701415E+01  0.15807178440E+02 -0.29583719534E+03  0.32164831534E+03  0.12500000000E+03 0.  0.
</event>
<event>
 5    0  0.5735425E-005  0.3190912E+03  0.7546771E-02  0.1076068E+00
         21   -1    0    0  502  501  0.00000000000E+00  0.00000000000E+00  0.67227829434E+03  0.67227829434E+03  0.00000000000E+00 0. -1.
         21   -1    0    0  501  502 -0.00000000000E+00 -0.00000000000E+00 -0.15145389107E+03  0.15145389107E+03  0.00000000000E+00 0. -1.
         25    1    1    2    0    0 -0.41222653837E+02 -0.11250318980E+02  0.34146753486E+03  0.36612969591E+03  0.12500000000E+03 0.  0.
         25    1    1    2    0    0 -0.11549060363E+03 -0.50524832289E+02  0.17279490140E+03  0.24773759536E+03  0.12500000000E+03 0.  0.
         25    1    1    2    0    0  0.15671325747E+03  0.61775151269E+02  0.65619670180E+01  0.20986489414E+03  0.12500000000E+03 0.  0.
</event>
<event>
 5    0  0.5735425E-005  0.2759428E+03  0.7546771E-02  0.1097926E+00
         21   -1    0    0  502  501  0.00000000000E+00  0.00000000000E+00  0.54491788885E+03  0.54491788885E+03  0.00000000000E+00 0.  1.
         21   -1    0    0  501  502 -0.00000000000E+00 -0.00000000000E+00 -0.13973557282E+03  0.13973557282E+03  0.00000000000E+00 0.  1.
         25    1    1    2    0    0  0.29035465304E+02 -0.10851671130E+03  0.25120010358E+03  0.30223405982E+03  0.12500000000E+03 0.  0.
         25    1    1    2    0    0 -0.10395561260E+03  0.10915015863E+03  0.12917662611E+03  0.23458927353E+03  0.12500000000E+03 0.  0.
         25    1    1    2    0    0  0.74920147300E+02 -0.63344732186E+00  0.24805586349E+02  0.14783012833E+03  0.12500000000E+03 0.  0.
</event>
<event>
 5    0  0.5735425E-005  0.4164332E+03  0.7546771E-02  0.1038233E+00
         21   -1    0    0  502  501  0.00000000000E+00  0.00000000000E+00  0.25251051016E+03  0.25251051016E+03  0.00000000000E+00 0. -1.
         21   -1    0    0  501  502 -0.00000000000E+00 -0.00000000000E+00 -0.68677002677E+03  0.68677002677E+03  0.00000000000E+00 0. -1.
         25    1    1    2    0    0  0.23161631770E+03 -0.17162466383E+03 -0.94696780986E+01  0.31434983484E+03  0.12500000000E+03 0.  0.
         25    1    1    2    0    0 -0.15245748228E+03  0.25699882518E+02 -0.35287201459E+03  0.40502768615E+03  0.12500000000E+03 0.  0.
         25    1    1    2    0    0 -0.79158835418E+02  0.14592478131E+03 -0.71917823924E+02  0.21990301595E+03  0.12500000000E+03 0.  0.
</event>
<event>
 5    0  0.6448430E-005  0.2475809E+03  0.7546771E-02  0.1114843E+00
         21   -1    0    0  502  501  0.00000000000E+00  0.00000000000E+00  0.19893909979E+03  0.19893909979E+03  0.00000000000E+00 0.  1.
         21   -1    0    0  501  502 -0.00000000000E+00 -0.00000000000E+00 -0.30811595821E+03  0.30811595821E+03  0.00000000000E+00 0.  1.
         25    1    1    2    0    0 -0.59666751096E+02  0.54595182653E+02  0.14777665097E+02  0.14961328330E+03  0.12500000000E+03 0.  0.
         25    1    1    2    0    0 -0.87230415651E+01  0.62317267751E+02 -0.90294408444E+01  0.14023574479E+03  0.12500000000E+03 0.  0.
         25    1    1    2    0    0  0.68389792662E+02 -0.11691245040E+03 -0.11492508267E+03  0.21720602991E+03  0.12500000000E+03 0.  0.
</event>
<event>
 5    0  0.5735425E-005  0.2782382E+03  0.7546771E-02  0.1096655E+00
         21   -1    0    0  502  501  0.00000000000E+00  0.00000000000E+00  0.22552177995E+03  0.22552177995E+03  0.00000000000E+00 0.  1.
         21   -1    0    0  501  502 -0.00000000000E+00 -0.00000000000E+00 -0.34327716068E+03  0.34327716068E+03  0.00000000000E+00 0.  1.
         25    1    1    2    0    0  0.13009487169E+03 -0.26521234927E+02 -0.90390657840E+02  0.20352769484E+03  0.12500000000E+03 0.  0.
         25    1    1    2    0    0  0.24871949153E+02  0.33831722968E+02 -0.86193627993E+02  0.15753583986E+03  0.12500000000E+03 0.  0.
         25    1    1    2    0    0 -0.15496682085E+03 -0.73104880413E+01  0.58828905098E+02  0.20773540592E+03  0.12500000000E+03 0.  0.
</event>
<event>
 5    0  0.5735425E-005  0.3110003E+03  0.7546771E-02  0.1079867E+00
         21   -1    0    0  502  501  0.00000000000E+00  0.00000000000E+00  0.81840460448E+02  0.81840460448E+02  0.00000000000E+00 0.  1.
         21   -1    0    0  501  502 -0.00000000000E+00 -0.00000000000E+00 -0.11818262918E+04  0.11818262918E+04  0.00000000000E+00 0.  1.
         25    1    1    2    0    0  0.41854648073E+02  0.13981664136E+03 -0.46864425981E+03  0.50651055963E+03  0.12500000000E+03 0.  0.
         25    1    1    2    0    0 -0.11722229899E+03  0.49263254876E+02 -0.29307662526E+03  0.34305516165E+03  0.12500000000E+03 0.  0.
         25    1    1    2    0    0  0.75367650916E+02 -0.18907989624E+03 -0.33826494630E+03  0.41410103099E+03  0.12500000000E+03 0.  0.
</event>
<event>
 5    0  0.5735425E-005  0.3802657E+03  0.7546771E-02  0.1050836E+00
         21   -1    0    0  502  501  0.00000000000E+00  0.00000000000E+00  0.10493621523E+03  0.10493621523E+03  0.00000000000E+00 0.  1.
         21   -1    0    0  501  502 -0.00000000000E+00 -0.00000000000E+00 -0.13779987252E+04  0.13779987252E+04  0.00000000000E+00 0.  1.
         25    1    1    2    0    0 -0.14232571843E+03 -0.54842637327E+02 -0.18887701202E+03  0.27306382160E+03  0.12500000000E+03 0.  0.
         25    1    1    2    0    0 -0.31522011620E+02  0.15812377384E+03 -0.17085148214E+03  0.26610523110E+03  0.12500000000E+03 0.  0.
         25    1    1    2    0    0  0.17384773005E+03 -0.10328113651E+03 -0.91333401579E+03  0.94376588771E+03  0.12500000000E+03 0.  0.
</event>
<event>
 5    0  0.5735425E-005  0.2200763E+03  0.7546771E-02  0.1133826E+00
         21   -1    0    0  502  501  0.00000000000E+00  0.00000000000E+00  0.12190773362E+03  0.12190773362E+03  0.00000000000E+00 0. -1.
         21   -1    0    0  501  502 -0.00000000000E+00 -0.00000000000E+00 -0.39729703489E+03  0.39729703489E+03  0.00000000000E+00 0. -1.
         25    1    1    2    0    0 -0.55276323448E+02  0.72300833028E+02 -0.38325464179E+02  0.15930073319E+03  0.12500000000E+03 0.  0.
         25    1    1    2    0    0  0.11702533791E+02 -0.53507499712E+02 -0.10756838804E+03  0.17376984758E+03  0.12500000000E+03 0.  0.
         25    1    1    2    0    0  0.43573789657E+02 -0.18793333316E+02 -0.12949544905E+03  0.18613418775E+03  0.12500000000E+03 0.  0.
</event>
<event>
 5    0  0.5807003E-005  0.2822072E+03  0.7546771E-02  0.1094489E+00
         21   -1    0    0  502  501  0.00000000000E+00  0.00000000000E+00  0.33040399786E+03  0.33040399786E+03  0.00000000000E+00 0. -1.
         21   -1    0    0  501  502 -0.00000000000E+00 -0.00000000000E+00 -0.24104098881E+03  0.24104098881E+03  0.00000000000E+00 0. -1.
         25    1    1    2    0    0  0.42199365589E+02  0.90419596681E+02 -0.33595542925E+02  0.16343240323E+03  0.12500000000E+03 0.  0.
         25    1    1    2    0    0  0.38081900860E+02 -0.75101818950E+02  0.19149311268E+03  0.24369063705E+03  0.12500000000E+03 0.  0.
         25    1    1    2    0    0 -0.80281266449E+02 -0.15317777732E+02 -0.68534560703E+02  0.16432194640E+03  0.12500000000E+03 0.  0.
</event>
<event>
 5    0  0.5735425E-005  0.9892845E+03  0.7546771E-02  0.9320376E-01
         21   -1    0    0  502  501  0.00000000000E+00  0.00000000000E+00  0.15906435733E+04  0.15906435733E+04  0.00000000000E+00 0.  1.
         21   -1    0    0  501  502 -0.00000000000E+00 -0.00000000000E+00 -0.61527542184E+03  0.61527542184E+03  0.00000000000E+00 0.  1.
         25    1    1    2    0    0 -0.87636931886E+02 -0.55052189075E+03  0.13239195567E+04  0.14419232214E+04  0.12500000000E+03 0.  0.
         25    1    1    2    0    0 -0.54953860328E+01  0.47954323631E+03 -0.19054158222E+03  0.53096422602E+03  0.12500000000E+03 0.  0.
         25    1    1    2    0    0  0.93132317918E+02  0.70978654437E+02 -0.15800982301E+03  0.23303154764E+03  0.12500000000E+03 0.  0.
</event>
<event>
 5    0  0.5735425E-005  0.2966081E+03  0.7546771E-02  0.1086949E+00
         21   -1    0    0  502  501  0.00000000000E+00  0.00000000000E+00  0.10526508369E+04  0.10526508369E+04  0.00000000000E+00 0.  1.
         21   -1    0    0  501  502 -0.00000000000E+00 -0.00000000000E+00 -0.83575999231E+02  0.83575999231E+02  0.00000000000E+00 0.  1.
         25    1    1    2    0    0 -0.90909340866E+02 -0.87439483487E+02  0.27492172709E+03  0.32728753040E+03  0.12500000000E+03 0.  0.
         25    1    1    2    0    0  0.14154263344E+03  0.17214600046E+03  0.44828996401E+03  0.51600140929E+03  0.12500000000E+03 0.  0.
         25    1    1    2    0    0 -0.50633292575E+02 -0.84706516968E+02  0.24586314659E+03  0.29293789646E+03  0.12500000000E+03 0.  0.
</event>
<event>
 5    0  0.5735425E-005  0.2891145E+03  0.7546771E-02  0.1090812E+00
         21   -1    0    0  502  501  0.00000000000E+00  0.00000000000E+00  0.11942576838E+04  0.11942576838E+04  0.00000000000E+00 0. -1.
         21   -1    0    0  501  502 -0.00000000000E+00 -0.00000000000E+00 -0.69990904323E+02  0.69990904323E+02  0.00000000000E+00 0. -1.
         25    1    1    2    0    0  0.50195890581E+02 -0.10939081953E+03  0.29739264370E+03  0.34431579016E+03  0.12500000000E+03 0.  0.
         25    1    1    2    0    0  0.64216489643E+02 -0.48046787807E+02  0.18245687167E+03  0.23526104944E+03  0.12500000000E+03 0.  0.
         25    1    1    2    0    0 -0.11441238022E+03  0.15743760734E+03  0.64441726409E+03  0.68467174851E+03  0.12500000000E+03 0.  0.
</event>
<event>
 5    0  0.5735425E-005  0.3291676E+03  0.7546771E-02  0.1071506E+00
         21   -1    0    0  502  501  0.00000000000E+00  0.00000000000E+00  0.93866922788E+03  0.93866922788E+03  0.00000000000E+00 0. -1.
         21   -1    0    0  501  502 -0.00000000000E+00 -0.00000000000E+00 -0.11543075534E+03  0.11543075534E+03  0.00000000000E+00 0. -1.
         25    1    1    2    0    0 -0.10170311037E+03 -0.46693963088E+02  0.57869104572E+02  0.17747586346E+03  0.12500000000E+03 0.  0.
         25    1    1    2    0    0  0.12838770829E+03  0.15896670425E+03  0.31892078780E+03  0.39885998244E+03  0.12500000000E+03 0.  0.
         25    1    1    2    0    0 -0.26684597919E+02 -0.11227274117E+03  0.44644858016E+03  0.47776413731E+03  0.12500000000E+03 0.  0.
</event>
<event>
 5    0  0.5735425E-005  0.2868236E+03  0.7546771E-02  0.1092019E+00
         21   -1    0    0  502  501  0.00000000000E+00  0.00000000000E+00  0.13350768765E+03  0.13350768765E+03  0.00000000000E+00 0.  1.
         21   -1    0    0  501  502 -0.00000000000E+00 -0.00000000000E+00 -0.61620261897E+03  0.61620261897E+03  0.00000000000E+00 0.  1.
         25    1    1    2    0    0  0.31591720115E+02  0.56849643478E+02 -0.29825866401E+03  0.32986838194E+03  0.12500000000E+03 0.  0.
         25    1    1    2    0    0  0.18522640677E+02 -0.37413334592E+02  0.56303092293E+02  0.14331044632E+03  0.12500000000E+03 0.  0.
         25    1    1    2    0    0 -0.50114360791E+02 -0.19436308886E+02 -0.24073935960E+03  0.27653147836E+03  0.12500000000E+03 0.  0.
</event>
<event>
 5    0  0.5735425E-005  0.2437662E+03  0.7546771E-02  0.1117309E+00
         21   -1    0    0  502  501  0.00000000000E+00  0.00000000000E+00  0.14403998976E+03  0.14403998976E+03  0.00000000000E+00 0. -1.
         21   -1    0    0  501  502 -0.00000000000E+00 -0.00000000000E+00 -0.41253778619E+03  0.41253778619E+03  0.00000000000E+00 0. -1.
         25    1    1    2    0    0 -0.38964878711E+02  0.89490223962E+02 -0.32444020102E+02  0.16187765874E+03  0.12500000000E+03 0.  0.
         25    1    1    2    0    0 -0.48190779164E+02  0.79083706343E+01 -0.11823291583E+03  0.17885445454E+03  0.12500000000E+03 0.  0.
         25    1    1    2    0    0  0.87155657875E+02 -0.97398594596E+02 -0.11782086050E+03  0.21584566268E+03  0.12500000000E+03 0.  0.
</event>
<event>
 5    0  0.6370090E-005  0.3534706E+03  0.7546771E-02  0.1061199E+00
         21   -1    0    0  502  501  0.00000000000E+00  0.00000000000E+00  0.13029580263E+04  0.13029580263E+04  0.00000000000E+00 0.  1.
         21   -1    0    0  501  502 -0.00000000000E+00 -0.00000000000E+00 -0.95890655297E+02  0.95890655297E+02  0.00000000000E+00 0.  1.
         25    1    1    2    0    0  0.81687081748E+02 -0.93723153199E+02  0.96798249317E+02  0.20112610432E+03  0.12500000000E+03 0.  0.
         25    1    1    2    0    0 -0.11662676097E+02 -0.52249296528E+01  0.95861659019E+03  0.96681646909E+03  0.12500000000E+03 0.  0.
         25    1    1    2    0    0 -0.70024405651E+02  0.98948082851E+02  0.15165253148E+03  0.23090610817E+03  0.12500000000E+03 0.  0.
</event>
<event>
 5    0  0.5735425E-005  0.2819117E+03  0.7546771E-02  0.1094649E+00
         21   -1    0    0  502  501  0.00000000000E+00  0.00000000000E+00  0.65554460229E+02  0.65554460229E+02  0.00000000000E+00 0. -1.
         21   -1    0    0  501  502 -0.00000000000E+00 -0.00000000000E+00 -0.12123388338E+04  0.12123388338E+04  0.00000000000E+00 0. -1.
         25    1    1    2    0    0  0.57688657529E+02  0.10446039746E+03 -0.14024858514E+03  0.22256374700E+03  0.12500000000E+03 0.  0.
         25    1    1    2    0    0  0.45285627436E+01 -0.10659322192E+03 -0.69100555349E+03  0.71027902812E+03  0.12500000000E+03 0.  0.
         25    1    1    2    0    0 -0.62217220273E+02  0.21328244664E+01 -0.31553023499E+03  0.34505051895E+03  0.12500000000E+03 0.  0.
</event>
<event>
 5    0  0.5735425E-005  0.3963614E+03  0.7546771E-02  0.1045047E+00
         21   -1    0    0  502  501  0.00000000000E+00  0.00000000000E+00  0.42239306669E+03  0.42239306669E+03  0.00000000000E+00 0. -1.
         21   -1    0    0  501  502 -0.00000000000E+00 -0.00000000000E+00 -0.37193404933E+03  0.37193404933E+03  0.00000000000E+00 0. -1.
         25    1    1    2    0    0  0.10485099106E+03 -0.17720743068E+03 -0.21000367033E+03  0.31956649600E+03  0.12500000000E+03 0.  0.
         25    1    1    2    0    0 -0.10138160281E+03  0.79110502156E+02  0.25996964226E+03  0.31582576816E+03  0.12500000000E+03 0.  0.
         25    1    1    2    0    0 -0.34693882457E+01  0.98096928521E+02  0.49304543435E+00  0.15893485185E+03  0.12500000000E+03 0.  0.
</event>
<event>
 5    0  0.5735425E-005  0.4342902E+03  0.7546771E-02  0.1032513E+00
         21   -1    0    0  502  501  0.00000000000E+00  0.00000000000E+00  0.11269590186E+04  0.11269590186E+04  0.00000000000E+00 0.  1.
         21   -1    0    0  501  502 -0.00000000000E+00 -0.00000000000E+00 -0.16736009162E+03  0.16736009162E+03  0.00000000000E+00 0.  1.
         25    1    1    2    0    0  0.10848558280E+03 -0.11559339703E+03  0.73887336698E+03  0.76595679222E+03  0.12500000000E+03 0.  0.
         25    1    1    2    0    0 -0.87517413301E+02  0.11642699411E+03  0.31605124920E+03  0.36976740623E+03  0.12500000000E+03 0.  0.
         25    1    1    2    0    0 -0.20968169504E+02 -0.83359708169E+00 -0.95325689206E+02  0.15859491177E+03  0.12500000000E+03 0.  0.
</event>
<event>
 5    0  0.5735425E-005  0.3262458E+03  0.7546771E-02  0.1072810E+00
         21   -1    0    0  502  501  0.00000000000E+00  0.00000000000E+00  0.87875021592E+02  0.87875021592E+02  0.00000000000E+00 0.  1.
         21   -1    0    0  501  502 -0.00000000000E+00 -0.00000000000E+00 -0.12112239226E+04  0.12112239226E+04  0.00000000000E+00 0.  1.
         25    1    1    2    0    0  0.14538970624E+03  0.19379788681E+03 -0.51558892655E+03  0.58322613864E+03  0.12500000000E+03 0.  0.
         25    1    1    2    0    0 -0.29638992261E+02 -0.14770600806E+03 -0.38275927676E+03  0.42991301286E+03  0.12500000000E+03 0.  0.
         25    1    1    2    0    0 -0.11575071398E+03 -0.46091878757E+02 -0.22500069770E+03  0.28595979270E+03  0.12500000000E+03 0.  0.
</event>
<event>
 5    0  0.5735425E-005  0.2808150E+03  0.7546771E-02  0.1095245E+00
         21   -1    0    0  502  501  0.00000000000E+00  0.00000000000E+00  0.10167760383E+03  0.10167760383E+03  0.00000000000E+00 0.  1.
         21   -1    0    0  501  502 -0.00000000000E+00 -0.00000000000E+00 -0.77556008689E+03  0.77556008689E+03  0.00000000000E+00 0.  1.
         25    1    1    2    0    0 -0.10121130959E+03 -0.13221785122E+02 -0.25944532951E+03  0.30554119820E+03  0.12500000000E+03 0.  0.
         25    1    1    2    0    0  0.10587612082E+03  0.12256912220E+03 -0.13033547653E+03  0.24258045906E+03  0.12500000000E+03 0.  0.
         25    1    1    2    0    0 -0.46648112259E+01 -0.10934733708E+03 -0.28410167703E+03  0.32911603346E+03  0.12500000000E+03 0.  0.
</event>
<event>
 5    0  0.5735425E-005  0.4177984E+03  0.7546771E-02  0.1037785E+00
         21   -1    0    0  502  501  0.00000000000E+00  0.00000000000E+00  0.21890352225E+04  0.21890352225E+04  0.00000000000E+00 0.  1.
         21   -1    0    0  501  502 -0.00000000000E+00 -0.00000000000E+00 -0.79740821192E+02  0.79740821192E+02  0.00000000000E+00 0.  1.
         25    1    1    2    0    0 -0.39614316666E+01 -0.98521700352E+02  0.62382382484E+03  0.64381937127E+03  0.12500000000E+03 0.  0.
         25    1    1    2    0    0  0.21440954964E+03 -0.12809845745E+03  0.38908330198E+03  0.47894831209E+03  0.12500000000E+03 0.  0.
         25    1    1    2    0    0 -0.21044811798E+03  0.22662015780E+03  0.10963872745E+04  0.11460083603E+04  0.12500000000E+03 0.  0.
</event>
<event>
 5    0  0.5735425E-005  0.2419590E+03  0.7546771E-02  0.1118495E+00
         21   -1    0    0  502  501  0.00000000000E+00  0.00000000000E+00  0.64914380919E+03  0.64914380919E+03  0.00000000000E+00 0. -1.
         21   -1    0    0  501  502 -0.00000000000E+00 -0.00000000000E+00 -0.90186700482E+02  0.90186700482E+02  0.00000000000E+00 0. -1.
         25    1    1    2    0    0  0.68344928594E+02  0.85870075020E+02  0.27292698618E+03  0.31962296356E+03  0.12500000000E+03 0.  0.
         25    1    1    2    0    0  0.25065534246E+02  0.27845555225E+01  0.11217329501E+03  0.16983486942E+03  0.12500000000E+03 0.  0.
         25    1    1    2    0    0 -0.93410462840E+02 -0.88654630543E+02  0.17385682751E+03  0.24987267669E+03  0.12500000000E+03 0.  0.
</event>
<event>
 5    0  0.5735425E-005  0.2104617E+03  0.7546771E-02  0.1141201E+00
         21   -1    0    0  502  501  0.00000000000E+00  0.00000000000E+00  0.41380786523E+02  0.41380786523E+02  0.00000000000E+00 0. -1.
         21   -1    0    0  501  502 -0.00000000000E+00 -0.00000000000E+00 -0.10704036450E+04  0.10704036450E+04  0.00000000000E+00 0. -1.
         25    1    1    2    0    0  0.77984040006E+01 -0.26976898839E+01 -0.25293480992E+03  0.28225717122E+03  0.12500000000E+03 0.  0.
         25    1    1    2    0    0  0.52757694278E+02 -0.28934615629E+01 -0.52787313364E+03  0.54503833961E+03  0.12500000000E+03 0.  0.
         25    1    1    2    0    0 -0.60556098279E+02  0.55911514468E+01 -0.24821491496E+03  0.28448892073E+03  0.12500000000E+03 0.  0.
</event>
<event>
 5    0  0.5735425E-005  0.3894724E+03  0.7546771E-02  0.1047487E+00
         21   -1    0    0  502  501  0.00000000000E+00  0.00000000000E+00  0.15535108675E+03  0.15535108675E+03  0.00000000000E+00 0. -1.
         21   -1    0    0  501  502 -0.00000000000E+00 -0.00000000000E+00 -0.97642567154E+03  0.97642567154E+03  0.00000000000E+00 0. -1.
         25    1    1    2    0    0  0.39184444290E+02 -0.41244814472E+02 -0.39918757646E+03  0.42215195913E+03  0.12500000000E+03 0.  0.
         25    1    1    2    0    0 -0.26942739109E+03  0.46203955163E+02 -0.16600775637E+03  0.34337952723E+03  0.12500000000E+03 0.  0.
         25    1    1    2    0    0  0.23024294681E+03 -0.49591406912E+01 -0.25587925196E+03  0.36624527193E+03  0.12500000000E+03 0.  0.
</event>
<event>
 5    0  0.5735425E-005  0.2399454E+03  0.7546771E-02  0.1119829E+00
         21   -1    0    0  502  501  0.00000000000E+00  0.00000000000E+00  0.28703774063E+03  0.28703774063E+03  0.00000000000E+00 0.  1.
         21   -1    0    0  501  502 -0.00000000000E+00 -0.00000000000E+00 -0.20057922978E+03  0.20057922978E+03  0.00000000000E+00 0.  1.
         25    1    1    2    0    0 -0.11159234924E+03  0.28243940999E+02  0.15125319666E+02  0.17059996455E+03  0.12500000000E+03 0.  0.
         25    1    1    2    0    0  0.92965995388E+02  0.35601733661E+02  0.30645798320E+01  0.15982662916E+03  0.12500000000E+03 0.  0.
         25    1    1    2    0    0  0.18626353847E+02 -0.63845674660E+02  0.68268611353E+02  0.15719037670E+03  0.12500000000E+03 0.  0.
</event>
<event>
 5    0  0.5735425E-005  0.2198883E+03  0.7546771E-02  0.1133966E+00
         21   -1    0    0  502  501  0.00000000000E+00  0.00000000000E+00  0.18191357093E+03  0.18191357093E+03  0.00000000000E+00 0. -1.
         21   -1    0    0  501  502 -0.00000000000E+00 -0.00000000000E+00 -0.26579021757E+03  0.26579021757E+03  0.00000000000E+00 0. -1.
         25    1    1    2    0    0  0.78836297743E+01 -0.51075321480E+02 -0.52021835425E+02  0.14492105245E+03  0.12500000000E+03 0.  0.
         25    1    1    2    0    0 -0.92462870412E+01 -0.51908269124E+02 -0.37392362368E+02  0.14072366891E+03  0.12500000000E+03 0.  0.
         25    1    1    2    0    0  0.13626572669E+01  0.10298359060E+03  0.55375511562E+01  0.16205906714E+03  0.12500000000E+03 0.  0.
</event>
<event>
 5    0  0.5735425E-005  0.4903754E+03  0.7546771E-02  0.1016322E+00
         21   -1    0    0  502  501  0.00000000000E+00  0.00000000000E+00  0.17654000106E+03  0.17654000106E+03  0.00000000000E+00 0. -1.
         21   -1    0    0  501  502 -0.00000000000E+00 -0.00000000000E+00 -0.13621163466E+04  0.13621163466E+04  0.00000000000E+00 0. -1.
         25    1    1    2    0    0  0.10564343486E+03 -0.23571061515E+03 -0.20599118140E+03  0.35323844105E+03  0.12500000000E+03 0.  0.
         25    1    1    2    0    0  0.18973386078E+03  0.31011956786E+02 -0.15358991361E+03  0.27599916839E+03  0.12500000000E+03 0.  0.
         25    1    1    2    0    0 -0.29537729565E+03  0.20469865836E+03 -0.82599525058E+03  0.90941873826E+03  0.12500000000E+03 0.  0.
</event>
<event>
 5    0  0.5735425E-005  0.4247296E+03  0.7546771E-02  0.1035538E+00
         21   -1    0    0  502  501  0.00000000000E+00  0.00000000000E+00  0.74254767221E+03  0.74254767221E+03  0.00000000000E+00 0. -1.
         21   -1    0    0  501  502 -0.00000000000E+00 -0.00000000000E+00 -0.24294096447E+03  0.24294096447E+03  0.00000000000E+00 0. -1.
         25    1    1    2    0    0  0.26509952202E+03  0.12376838114E+03  0.20128931835E+03  0.37648208248E+03  0.12500000000E+03 0.  0.
         25    1    1    2    0    0 -0.11644957726E+03 -0.68883528924E+02  0.35450438738E+03  0.39950444963E+03  0.12500000000E+03 0.  0.
         25    1    1    2    0    0 -0.14864994476E+03 -0.54884852219E+02 -0.56186997985E+02  0.20950210458E+03  0.12500000000E+03 0.  0.
</event>
<event>
 5    0  0.5735425E-005  0.2658172E+03  0.7546771E-02  0.1103698E+00
         21   -1    0    0  502  501  0.00000000000E+00  0.00000000000E+00  0.22741482749E+03  0.22741482749E+03  0.00000000000E+00 0. -1.
         21   -1    0    0  501  502 -0.00000000000E+00 -0.00000000000E+00 -0.31070435501E+03  0.31070435501E+03  0.00000000000E+00 0. -1.
         25    1    1    2    0    0 -0.31897319042E+02 -0.44097364946E+01 -0.78355035749E+02  0.15100131246E+03  0.12500000000E+03 0.  0.
         25    1    1    2    0    0 -0.58949657042E+02 -0.66331773124E+02 -0.10876424516E+03  0.18796177062E+03  0.12500000000E+03 0.  0.
         25    1    1    2    0    0  0.90846976084E+02  0.70741509619E+02  0.10382975338E+03  0.19915609941E+03  0.12500000000E+03 0.  0.
</event>
<event>
 5    0  0.5735425E-005  0.2724851E+03  0.7546771E-02  0.1099866E+00
         21   -1    0    0  502  501  0.00000000000E+00  0.00000000000E+00  0.30729857007E+03  0.30729857007E+03  0.00000000000E+00 0. -1.
         21   -1    0    0  501  502 -0.00000000000E+00 -0.00000000000E+00 -0.24161563181E+03  0.24161563181E+03  0.00000000000E+00 0. -1.
         25    1    1    2    0    0  0.13586504872E+03  0.16346163075E+02  0.14759756834E+02  0.18592837043E+03  0.12500000000E+03 0.  0.
         25    1    1    2    0    0  0.39712199389E+02 -0.51198509439E+02  0.26876749204E+02  0.14333773333E+03  0.12500000000E+03 0.  0.
         25    1    1    2    0    0 -0.17557724811E+03  0.34852346365E+02  0.24046432228E+02  0.21964809811E+03  0.12500000000E+03 0.  0.
</event>
<event>
 5    0  0.5735425E-005  0.2716990E+03  0.7546771E-02  0.1100311E+00
         21   -1    0    0  502  501  0.00000000000E+00  0.00000000000E+00  0.69126888009E+02  0.69126888009E+02  0.00000000000E+00 0. -1.
         21   -1    0    0  501  502 -0.00000000000E+00 -0.00000000000E+00 -0.10678965590E+04  0.10678965590E+04  0.00000000000E+00 0. -1.
         25    1    1    2    0    0 -0.61780404488E+02  0.80424914151E+02 -0.11402522815E+03  0.19726058362E+03  0.12500000000E+03 0.  0.
         25    1    1    2    0    0  0.56639525764E+02 -0.85665561610E+02 -0.29087302549E+03  0.33283440520E+03  0.12500000000E+03 0.  0.
         25    1    1    2    0    0  0.51408787235E+01  0.52406474585E+01 -0.59387141730E+03  0.60692845815E+03  0.12500000000E+03 0.  0.
</event>
<event>
 5    0  0.5735425E-005  0.4637065E+03  0.7546771E-02  0.1023712E+00
         21   -1    0    0  502  501  0.00000000000E+00  0.00000000000E+00  0.19238200090E+03  0.19238200090E+03  0.00000000000E+00 0. -1.
         21   -1    0    0  501  502 -0.00000000000E+00 -0.00000000000E+00 -0.11176914554E+04  0.11176914554E+04  0.00000000000E+00 0. -1.
         25    1    1    2    0    0 -0.13579879128E+03 -0.96493424102E+02 -0.18764175127E+03  0.28033322926E+03  0.12500000000E+03 0.  0.
         25    1    1    2    0    0  0.41429024738E+01  0.47906793299E+02  0.10259985622E+03  0.16871264025E+03  0.12500000000E+03 0.  0.
         25    1    1    2    0    0  0.13165588881E+03  0.48586630804E+02 -0.84026755940E+03  0.86102758674E+03  0.12500000000E+03 0.  0.
</event>
<event>
 5    0  0.5735425E-005  0.2760335E+03  0.7546771E-02  0.1097875E+00
         21   -1    0    0  502  501  0.00000000000E+00  0.00000000000E+00  0.31229051231E+03  0.31229051231E+03  0.00000000000E+00 0.  1.
         21   -1    0    0  501  502 -0.00000000000E+00 -0.00000000000E+00 -0.24398600927E+03  0.24398600927E+03  0.00000000000E+00 0.  1.
         25    1    1    2    0    0 -0.12634082980E+03 -0.23848660617E+02  0.91436839322E+02  0.20128700771E+03  0.12500000000E+03 0.  0.
         25    1    1    2    0    0  0.84619894204E+01  0.10148032268E+03 -0.38699182609E+02  0.16580858811E+03  0.12500000000E+03 0.  0.
         25    1    1    2    0    0  0.11787884038E+03 -0.77631662062E+02  0.15566846329E+02  0.18918092575E+03  0.12500000000E+03 0.  0.
</event>
<event>
 5    0  0.5735425E-005  0.4367235E+03  0.7546771E-02  0.1031757E+00
         21   -1    0    0  502  501  0.00000000000E+00  0.00000000000E+00  0.89436816164E+03  0.89436816164E+03  0.00000000000E+00 0.  1.
         21   -1    0    0  501  502 -0.00000000000E+00 -0.00000000000E+00 -0.21325382489E+03  0.21325382489E+03  0.00000000000E+00 0.  1.
         25    1    1    2    0    0  0.29323073317E+03 -0.17093468259E+03  0.33308025245E+03  0.49170151836E+03  0.12500000000E+03 0.  0.
         25    1    1    2    0    0 -0.71858319047E+02  0.14941269108E+03  0.28587376911E+03  0.35332220725E+03  0.12500000000E+03 0.  0.
         25    1    1    2    0    0 -0.22137241412E+03  0.21521991509E+02  0.62160315191E+02  0.26259826092E+03  0.12500000000E+03 0.  0.
</event>
<event>
 5    0  0.5735425E-005  0.2989398E+03  0.7546771E-02  0.1085772E+00
         21   -1    0    0  502  501  0.00000000000E+00  0.00000000000E+00  0.32071101440E+03  0.32071101440E+03  0.00000000000E+00 0. -1.
         21   -1    0    0  501  502 -0.00000000000E+00 -0.00000000000E+00 -0.27864653755E+03  0.27864653755E+03  0.00000000000E+00 0. -1.
         25    1    1    2    0    0  0.23562346084E+02 -0.20492545805E+03  0.20821062049E+02  0.24209118971E+03  0.12500000000E+03 0.  0.
         25    1    1    2    0    0  0.24805056712E+02  0.69234276301E+02  0.69066619760E+02  0.16063584226E+03  0.12500000000E+03 0.  0.
         25    1    1    2    0    0 -0.48367402796E+02  0.13569118175E+03 -0.47823204957E+02  0.19663051998E+03  0.12500000000E+03 0.  0.
</event>
<event>
 5    0  0.5735425E-005  0.3330196E+03  0.7546771E-02  0.1069809E+00
         21   -1    0    0  502  501  0.00000000000E+00  0.00000000000E+00  0.69787826304E+03  0.69787826304E+03  0.00000000000E+00 0.  1.
         21   -1    0    0  501  502 -0.00000000000E+00 -0.00000000000E+00 -0.15891316416E+03  0.15891316416E+03  0.00000000000E+00 0.  1.
         25    1    1    2    0    0 -0.62720033342E+02  0.15577257560E+03  0.26054636156E+03  0.33422792285E+03  0.12500000000E+03 0.  0.
         25    1    1    2    0    0 -0.13757208173E+02 -0.14349886244E+03 -0.18022089193E+02  0.19165328069E+03  0.12500000000E+03 0.  0.
         25    1    1    2    0    0  0.76477241514E+02 -0.12273713159E+02  0.29644082651E+03  0.33091022366E+03  0.12500000000E+03 0.  0.
</event>
<event>
 5    0  0.5735425E-005  0.3769568E+03  0.7546771E-02  0.1052064E+00
         21   -1    0    0  502  501  0.00000000000E+00  0.00000000000E+00  0.32448025942E+03  0.32448025942E+03  0.00000000000E+00 0. -1.
         21   -1    0    0  501  502 -0.00000000000E+00 -0.00000000000E+00 -0.43792010662E+03  0.43792010662E+03  0.00000000000E+00 0. -1.
         25    1    1    2    0    0  0.11244506485E+03  0.93216481722E+01 -0.11556015962E+03  0.20423010607E+03  0.12500000000E+03 0.  0.
         25    1    1    2    0    0 -0.20503429983E+03 -0.18070432993E+03 -0.82643073791E+02  0.31168573372E+03  0.12500000000E+03 0.  0.
         25    1    1    2    0    0  0.92589234978E+02  0.17138268176E+03  0.84763386208E+02  0.24648452625E+03  0.12500000000E+03 0.  0.
</event>
<event>
 5    0  0.5735425E-005  0.3696538E+03  0.7546771E-02  0.1054825E+00
         21   -1    0    0  502  501  0.00000000000E+00  0.00000000000E+00  0.63259637236E+03  0.63259637236E+03  0.00000000000E+00 0.  1.
         21   -1    0    0  501  502 -0.00000000000E+00 -0.00000000000E+00 -0.21600494814E+03  0.21600494814E+03  0.00000000000E+00 0.  1.
         25    1    1    2    0    0  0.54697487327E+02  0.73508678847E+02 -0.68080783953E+02  0.16927886498E+03  0.12500000000E+03 0.  0.
         25    1    1    2    0    0  0.42328632021E+02 -0.17196854322E+03  0.75221049401E+02  0.22945173615E+03  0.12500000000E+03 0.  0.
         25    1    1    2    0    0 -0.97026119348E+02  0.98459864376E+02  0.40945115878E+03  0.44987071938E+03  0.12500000000E+03 0.  0.
</event>
<event>
 5    0  0.5735425E-005  0.2256544E+03  0.7546771E-02  0.1129736E+00
         21   -1    0    0  502  501  0.00000000000E+00  0.00000000000E+00  0.56834489626E+03  0.56834489626E+03  0.00000000000E+00 0.  1.
         21   -1    0    0  501  502 -0.00000000000E+00 -0.00000000000E+00 -0.89593335662E+02  0.89593335662E+02  0.00000000000E+00 0.  1.
         25    1    1    2    0    0 -0.10982704911E+02 -0.21272564468E+02  0.14515921072E+03  0.19305268261E+03  0.12500000000E+03 0.  0.
         25    1    1    2    0    0  0.47490812087E+02 -0.81880374038E+02  0.14508791593E+03  0.21362414712E+03  0.12500000000E+03 0.  0.
         25    1    1    2    0    0 -0.36508107176E+02  0.10315293851E+03  0.18850443395E+03  0.25126140219E+03  0.12500000000E+03 0.  0.
</event>
<event>
 5    0  0.5735425E-005  0.4216757E+03  0.7546771E-02  0.1036522E+00
         21   -1    0    0  502  501  0.00000000000E+00  0.00000000000E+00  0.60147324239E+03  0.60147324239E+03  0.00000000000E+00 0. -1.
         21   -1    0    0  501  502 -0.00000000000E+00 -0.00000000000E+00 -0.29562478451E+03  0.29562478451E+03  0.00000000000E+00 0. -1.
         25    1    1    2    0    0  0.18368442306E+03  0.19872555779E+03  0.11585000947E+03  0.31980937961E+03  0.12500000000E+03 0.  0.
         25    1    1    2    0    0  0.58274605431E+02 -0.11976987672E+03 -0.67035442820E+02  0.19457518753E+03  0.12500000000E+03 0.  0.
         25    1    1    2    0    0 -0.24195902849E+03 -0.78955681068E+02  0.25703389124E+03  0.38271345976E+03  0.12500000000E+03 0.  0.
</event>
<event>
 5    0  0.5735425E-005  0.2288280E+03  0.7546771E-02  0.1127467E+00
         21   -1    0    0  502  501  0.00000000000E+00  0.00000000000E+00  0.22636335128E+04  0.22636335128E+04  0.00000000000E+00 0. -1.
         21   -1    0    0  501  502 -0.00000000000E+00 -0.00000000000E+00 -0.23131946907E+02  0.23131946907E+02  0.00000000000E+00 0. -1.
         25    1    1    2    0    0  0.76259003207E+02 -0.88410278405E+02  0.95683455367E+03  0.97200266255E+03  0.12500000000E+03 0.  0.
         25    1    1    2    0    0 -0.47391337068E+02  0.60854981385E+02  0.54057664580E+03  0.56017620226E+03  0.12500000000E+03 0.  0.
         25    1    1    2    0    0 -0.28867666140E+02  0.27555297021E+02  0.74309036642E+03  0.75458659490E+03  0.12500000000E+03 0.  0.
</event>
<event>
 5    0  0.5735425E-005  0.3228006E+03  0.7546771E-02  0.1074368E+00
         21   -1    0    0  502  501  0.00000000000E+00  0.00000000000E+00  0.79081888434E+03  0.79081888434E+03  0.00000000000E+00 0.  1.
         21   -1    0    0  501  502 -0.00000000000E+00 -0.00000000000E+00 -0.13176243103E+03  0.13176243103E+03  0.00000000000E+00 0.  1.
         25    1    1    2    0    0 -0.96682155669E+02 -0.11001867644E+03  0.47713657187E+03  0.51452488434E+03  0.12500000000E+03 0.  0.
         25    1    1    2    0    0 -0.16523289479E+02 -0.23566384427E+02  0.13813349935E+03  0.18850532409E+03  0.12500000000E+03 0.  0.
         25    1    1    2    0    0  0.11320544515E+03  0.13358506087E+03  0.43786382098E+02  0.21955110693E+03  0.12500000000E+03 0.  0.
</event>
<event>
 5    0  0.5735425E-005  0.2805814E+03  0.7546771E-02  0.1095372E+00
         21   -1    0    0  502  501  0.00000000000E+00  0.00000000000E+00  0.25942738533E+03  0.25942738533E+03  0.00000000000E+00 0.  1.
         21   -1    0    0  501  502 -0.00000000000E+00 -0.00000000000E+00 -0.30346029068E+03  0.30346029068E+03  0.00000000000E+00 0.  1.
         25    1    1    2    0    0  0.11044428603E+03  0.87182592482E+02 -0.97283300993E+02  0.21186737692E+03  0.12500000000E+03 0.  0.
         25    1    1    2    0    0  0.13391515125E+02  0.17652207704E+02  0.70964929568E+02  0.14543711474E+03  0.12500000000E+03 0.  0.
         25    1    1    2    0    0 -0.12383580116E+03 -0.10483480019E+03 -0.17714533923E+02  0.20558318436E+03  0.12500000000E+03 0.  0.
</event>
<event>
 5    0  0.5735425E-005  0.3041971E+03  0.7546771E-02  0.1083161E+00
         21   -1    0    0  502  501  0.00000000000E+00  0.00000000000E+00  0.23246717645E+03  0.23246717645E+03  0.00000000000E+00 0.  1.
         21   -1    0    0  501  502 -0.00000000000E+00 -0.00000000000E+00 -0.39805985981E+03  0.39805985981E+03  0.00000000000E+00 0.  1.
         25    1    1    2    0    0 -0.24646159403E+02 -0.10528712973E+03 -0.13338544476E+03  0.21238994734E+03  0.12500000000E+03 0.  0.
         25    1    1    2    0    0 -0.14001747700E+03  0.92619459162E+02 -0.26096362487E+02  0.21092481650E+03  0.12500000000E+03 0.  0.
         25    1    1    2    0    0  0.16466363640E+03  0.12667670564E+02 -0.61108761191E+01  0.20721227241E+03  0.12500000000E+03 0.  0.
</event>
<event>
 5    0  0.5902200E-005  0.2459657E+03  0.7546771E-02  0.1115881E+00
         21   -1    0    0  502  501  0.00000000000E+00  0.00000000000E+00  0.26271150368E+03  0.26271150368E+03  0.00000000000E+00 0. -1.
         21   -1    0    0  501  502 -0.00000000000E+00 -0.00000000000E+00 -0.23028730793E+03  0.23028730793E+03  0.00000000000E+00 0. -1.
         25    1    1    2    0    0 -0.47738792849E+02 -0.38826464508E+02  0.77024358292E+02  0.15919873887E+03  0.12500000000E+03 0.  0.
         25    1    1    2    0    0  0.24210172976E+02  0.42324945793E+02  0.79584365926E+02  0.15600065645E+03  0.12500000000E+03 0.  0.
         25    1    1    2    0    0  0.23528619873E+02 -0.34984812844E+01 -0.12418452846E+03  0.17779941629E+03  0.12500000000E+03 0.  0.
</event>
<event>
 5    0  0.5735425E-005  0.5228549E+03  0.7546771E-02  0.1007980E+00
         21   -1    0    0  502  501  0.00000000000E+00  0.00000000000E+00  0.22013245103E+04  0.22013245103E+04  0.00000000000E+00 0. -1.
         21   -1    0    0  501  502 -0.00000000000E+00 -0.00000000000E+00 -0.12418763065E+03  0.12418763065E+03  0.00000000000E+00 0. -1.
         25    1    1    2    0    0  0.82935895411E+02 -0.68747185647E+01  0.92091309397E+03  0.93307639084E+03  0.12500000000E+03 0.  0.
         25    1    1    2    0    0 -0.19495915506E+03  0.32487530999E+03  0.46058685596E+03  0.60935891810E+03  0.12500000000E+03 0.  0.
         25    1    1    2    0    0  0.11202325965E+03 -0.31800059142E+03  0.69563692970E+03  0.78307683199E+03  0.12500000000E+03 0.  0.
</event>
<event>
 5    0  0.5735425E-005  0.4180807E+03  0.7546771E-02  0.1037693E+00
         21   -1    0    0  502  501  0.00000000000E+00  0.00000000000E+00  0.15396593893E+03  0.15396593893E+03  0.00000000000E+00 0.  1.
         21   -1    0    0  501  502 -0.00000000000E+00 -0.00000000000E+00 -0.11352607058E+04  0.11352607058E+04  0.00000000000E+00 0.  1.
         25    1    1    2    0    0 -0.10202920689E+02 -0.26431169964E+03 -0.29535454224E+03  0.41572115628E+03  0.12500000000E+03 0.  0.
         25    1    1    2    0    0  0.10012129994E+03  0.38098406598E+02 -0.36292021003E+02  0.16857601869E+03  0.12500000000E+03 0.  0.
         25    1    1    2    0    0 -0.89918379252E+02  0.22621329304E+03 -0.64964820360E+03  0.70492946975E+03  0.12500000000E+03 0.  0.
</event>
<event>
 5    0  0.5735425E-005  0.3203090E+03  0.7546771E-02  0.1075507E+00
         21   -1    0    0  502  501  0.00000000000E+00  0.00000000000E+00  0.14007813512E+04  0.14007813512E+04  0.00000000000E+00 0. -1.
         21   -1    0    0  501  502 -0.00000000000E+00 -0.00000000000E+00 -0.73243326262E+02  0.73243326262E+02  0.00000000000E+00 0. -1.
         25    1    1    2    0    0 -0.22044352770E+02  0.66763598217E+02  0.72316923359E+03  0.73725305828E+03  0.12500000000E+03 0.  0.
         25    1    1    2    0    0  0.42025734979E+02 -0.19856941307E+03  0.35515118977E+03  0.42773045461E+03  0.12500000000E+03 0.  0.
         25    1    1    2    0    0 -0.19981382208E+02  0.13180581486E+03  0.24921760161E+03  0.30904116460E+03  0.12500000000E+03 0.  0.
</event>
<event>
 5    0  0.5799891E-005  0.2884879E+03  0.7546771E-02  0.1091141E+00
         21   -1    0    0  502  501  0.00000000000E+00  0.00000000000E+00  0.21715462515E+03  0.21715462515E+03  0.00000000000E+00 0. -1.
         21   -1    0    0  501  502 -0.00000000000E+00 -0.00000000000E+00 -0.38325354120E+03  0.38325354120E+03  0.00000000000E+00 0. -1.
         25    1    1    2    0    0  0.77691858334E+02  0.88748298868E+02 -0.41655716693E+02  0.17684027860E+03  0.12500000000E+03 0.  0.
         25    1    1    2    0    0  0.10097464705E+03 -0.52799930130E+02  0.16126328963E+01  0.16914878821E+03  0.12500000000E+03 0.  0.
         25    1    1    2    0    0 -0.17866650539E+03 -0.35948368738E+02 -0.12605583225E+03  0.25441909953E+03  0.12500000000E+03 0.  0.
</event>
<event>
 5    0  0.5735425E-005  0.3202626E+03  0.7546771E-02  0.1075529E+00
         21   -1    0    0  502  501  0.00000000000E+00  0.00000000000E+00  0.44461386376E+03  0.44461386376E+03  0.00000000000E+00 0. -1.
         21   -1    0    0  501  502 -0.00000000000E+00 -0.00000000000E+00 -0.23069030864E+03  0.23069030864E+03  0.00000000000E+00 0. -1.
         25    1    1    2    0    0  0.10746824791E+02 -0.79257671410E+02  0.15861427070E+03  0.21721132473E+03  0.12500000000E+03 0.  0.
         25    1    1    2    0    0  0.13924901066E+03 -0.38751050228E+02  0.11400698823E+03  0.22251859299E+03  0.12500000000E+03 0.  0.
         25    1    1    2    0    0 -0.14999583545E+03  0.11800872164E+03 -0.58697703806E+02  0.23557425468E+03  0.12500000000E+03 0.  0.
</event>
<event>
 5    0  0.5735425E-005  0.2533636E+03  0.7546771E-02  0.1111197E+00
         21   -1    0    0  502  501  0.00000000000E+00  0.00000000000E+00  0.65693115449E+02  0.65693115449E+02  0.00000000000E+00 0. -1.
         21   -1    0    0  501  502 -0.00000000000E+00 -0.00000000000E+00 -0.97716621404E+03  0.97716621404E+03  0.00000000000E+00 0. -1.
         25    1    1    2    0    0 -0.10012655583E+03  0.11840253650E+03 -0.35235504641E+03  0.40475124034E+03  0.12500000000E+03 0.  0.
         25    1    1    2    0    0  0.29836155081E+02 -0.17826977185E+02 -0.19753310115E+03  0.23633096140E+03  0.12500000000E+03 0.  0.
         25    1    1    2    0    0  0.70290400744E+02 -0.10057555931E+03 -0.36158495104E+03  0.40177712775E+03  0.12500000000E+03 0.  0.
</event>
<event>
 5    0  0.5735425E-005  0.2688199E+03  0.7546771E-02  0.1101957E+00
         21   -1    0    0  502  501  0.00000000000E+00  0.00000000000E+00  0.59600299787E+03  0.59600299787E+03  0.00000000000E+00 0.  1.
         21   -1    0    0  501  502 -0.00000000000E+00 -0.00000000000E+00 -0.12124793300E+03  0.12124793300E+03  0.00000000000E+00 0.  1.
         25    1    1    2    0    0  0.16355780774E+00 -0.13735656994E+03  0.12182784340E+03  0.22211230827E+03  0.12500000000E+03 0.  0.
         25    1    1    2    0    0 -0.62131872964E+02  0.14908853106E+03  0.24090983694E+03  0.31583272355E+03  0.12500000000E+03 0.  0.
         25    1    1    2    0    0  0.61968315156E+02 -0.11731961127E+02  0.11201738454E+03  0.17930589905E+03  0.12500000000E+03 0.  0.
</event>
<event>
 5    0  0.5735425E-005  0.2718068E+03  0.7546771E-02  0.1100250E+00
         21   -1    0    0  502  501  0.00000000000E+00  0.00000000000E+00  0.32935325394E+03  0.32935325394E+03  0.00000000000E+00 0.  1.
         21   -1    0    0  501  502 -0.00000000000E+00 -0.00000000000E+00 -0.22431510519E+03  0.22431510519E+03  0.00000000000E+00 0.  1.
         25    1    1    2    0    0 -0.65259490038E+02  0.32479941908E+02  0.19276133484E+03  0.24103045425E+03  0.12500000000E+03 0.  0.
         25    1    1    2    0    0  0.53096894801E+02  0.31788981039E+02  0.11812642380E+02  0.13997984881E+03  0.12500000000E+03 0.  0.
         25    1    1    2    0    0  0.12162595237E+02 -0.64268922947E+02 -0.99535828467E+02  0.17265805608E+03  0.12500000000E+03 0.  0.
</event>
<event>
 5    0  0.6959233E-005  0.5235439E+03  0.7546771E-02  0.1007810E+00
         21   -1    0    0  502  501  0.00000000000E+00  0.00000000000E+00  0.84926206148E+03  0.84926206148E+03  0.00000000000E+00 0. -1.
         21   -1    0    0  501  502 -0.00000000000E+00 -0.00000000000E+00 -0.32274864962E+03  0.32274864962E+03  0.00000000000E+00 0. -1.
         25    1    1    2    0    0  0.20168497293E+03 -0.68569320731E+02 -0.30605177174E+02  0.24887799605E+03  0.12500000000E+03 0.  0.
         25    1    1    2    0    0  0.35213252438E+02 -0.39101662710E+02  0.61408310015E+03  0.62888152068E+03  0.12500000000E+03 0.  0.
         25    1    1    2    0    0 -0.23689822537E+03  0.10767098344E+03 -0.56964511106E+02  0.29425119436E+03  0.12500000000E+03 0.  0.
</event>
<event>
 5    0  0.5735425E-005  0.2431797E+03  0.7546771E-02  0.1117693E+00
         21   -1    0    0  502  501  0.00000000000E+00  0.00000000000E+00  0.21328017309E+03  0.21328017309E+03  0.00000000000E+00 0.  1.
         21   -1    0    0  501  502 -0.00000000000E+00 -0.00000000000E+00 -0.27727092257E+03  0.27727092257E+03  0.00000000000E+00 0.  1.
         25    1    1    2    0    0  0.19441679113E+02  0.96192434037E+01 -0.81731332473E+02  0.15091560369E+03  0.12500000000E+03 0.  0.
         25    1    1    2    0    0 -0.30622736255E+02  0.53398831675E+02 -0.87158581272E+02  0.16434964402E+03  0.12500000000E+03 0.  0.
         25    1    1    2    0    0  0.11181057143E+02 -0.63018075079E+02  0.10489916427E+03  0.17528584795E+03  0.12500000000E+03 0.  0.
</event>
<event>
 5    0  0.5779158E-005  0.2865191E+03  0.7546771E-02  0.1092181E+00
         21   -1    0    0  502  501  0.00000000000E+00  0.00000000000E+00  0.63160868629E+02  0.63160868629E+02  0.00000000000E+00 0. -1.
         21   -1    0    0  501  502 -0.00000000000E+00 -0.00000000000E+00 -0.12997481671E+04  0.12997481671E+04  0.00000000000E+00 0. -1.
         25    1    1    2    0    0  0.10023160874E+03 -0.17391715535E+02 -0.46006130149E+03  0.48747333085E+03  0.12500000000E+03 0.  0.
         25    1    1    2    0    0  0.23123512269E+02 -0.98168126465E+02 -0.51740317012E+03  0.54175891162E+03  0.12500000000E+03 0.  0.
         25    1    1    2    0    0 -0.12335512101E+03  0.11555984200E+03 -0.25912282688E+03  0.33367679328E+03  0.12500000000E+03 0.  0.
</event>
<event>
 5    0  0.5735425E-005  0.5000018E+03  0.7546771E-02  0.1013778E+00
         21   -1    0    0  502  501  0.00000000000E+00  0.00000000000E+00  0.11951558711E+04  0.11951558711E+04  0.00000000000E+00 0. -1.
         21   -1    0    0  501  502 -0.00000000000E+00 -0.00000000000E+00 -0.20917925379E+03  0.20917925379E+03  0.00000000000E+00 0. -1.
         25    1    1    2    0    0  0.24380193503E+03  0.28806815459E+01  0.63919088027E+03  0.69544062527E+03  0.12500000000E+03 0.  0.
         25    1    1    2    0    0 -0.21518505352E+03  0.20447045616E+03  0.51836345487E+02  0.32622811254E+03  0.12500000000E+03 0.  0.
         25    1    1    2    0    0 -0.28616881515E+02 -0.20735113771E+03  0.29494939152E+03  0.38266638705E+03  0.12500000000E+03 0.  0.
</event>
<event>
 5    0  0.5735425E-005  0.4616069E+03  0.7546771E-02  0.1024316E+00
         21   -1    0    0  502  501  0.00000000000E+00  0.00000000000E+00  0.28932141364E+03  0.28932141364E+03  0.00000000000E+00 0. -1.
         21   -1    0    0  501  502 -0.00000000000E+00 -0.00000000000E+00 -0.73648520881E+03  0.73648520881E+03  0.00000000000E+00 0. -1.
         25    1    1    2    0    0  0.16956998197E+03  0.20034090101E+03 -0.54114729324E+03  0.61429296625E+03  0.12500000000E+03 0.  0.
         25    1    1    2    0    0 -0.87220783949E+02 -0.39522489649E+01  0.51625712821E+02  0.16097608409E+03  0.12500000000E+03 0.  0.
         25    1    1    2    0    0 -0.82349198025E+02 -0.19638865204E+03  0.42357785249E+02  0.25053757211E+03  0.12500000000E+03 0.  0.
</event>
<event>
 5    0  0.5735425E-005  0.2450345E+03  0.7546771E-02  0.1116484E+00
         21   -1    0    0  502  501  0.00000000000E+00  0.00000000000E+00  0.81525688736E+03  0.81525688736E+03  0.00000000000E+00 0.  1.
         21   -1    0    0  501  502 -0.00000000000E+00 -0.00000000000E+00 -0.73647813047E+02  0.73647813047E+02  0.00000000000E+00 0.  1.
         25    1    1    2    0    0  0.72530846432E+02 -0.16203625715E+02  0.21306450293E+03  0.25796271742E+03  0.12500000000E+03 0.  0.
         25    1    1    2    0    0 -0.11608581168E+03 -0.34125425964E+02  0.41308435258E+03  0.44822331791E+03  0.12500000000E+03 0.  0.
         25    1    1    2    0    0  0.43554965250E+02  0.50329051679E+02  0.11546021880E+03  0.18271866507E+03  0.12500000000E+03 0.  0.
</event>
<event>
 5    0  0.5735425E-005  0.2990401E+03  0.7546771E-02  0.1085721E+00
         21   -1    0    0  502  501  0.00000000000E+00  0.00000000000E+00  0.23036280582E+03  0.23036280582E+03  0.00000000000E+00 0.  1.
         21   -1    0    0  501  502 -0.00000000000E+00 -0.00000000000E+00 -0.38819204229E+03  0.38819204229E+03  0.00000000000E+00 0.  1.
         25    1    1    2    0    0  0.84841037632E+02 -0.32294651061E+02 -0.23059713406E+03  0.27756257743E+03  0.12500000000E+03 0.  0.
         25    1    1    2    0    0  0.18604247407E+02  0.95835611926E+02  0.27677768452E+02  0.16100199192E+03  0.12500000000E+03 0.  0.
         25    1    1    2    0    0 -0.10344528504E+03 -0.63540960865E+02  0.45090129137E+02  0.17999027876E+03  0.12500000000E+03 0.  0.
</event>
<event>
 5    0  0.5735425E-005  0.2365209E+03  0.7546771E-02  0.1122132E+00
         21   -1    0    0  502  501  0.00000000000E+00  0.00000000000E+00  0.68773702590E+02  0.68773702590E+02  0.00000000000E+00 0. -1.
         21   -1    0    0  501  502 -0.00000000000E+00 -0.00000000000E+00 -0.81342325064E+03  0.81342325064E+03  0.00000000000E+00 0. -1.
         25    1    1    2    0    0  0.59475016459E+02  0.20559600549E+02 -0.20917364190E+03  0.25167158605E+03  0.12500000000E+03 0.  0.
         25    1    1    2    0    0  0.25173748478E+02 -0.10024442421E+03 -0.25884512554E+03  0.30546433705E+03  0.12500000000E+03 0.  0.
         25    1    1    2    0    0 -0.84648764937E+02  0.79684823657E+02 -0.27663078061E+03  0.32506103013E+03  0.12500000000E+03 0.  0.
</event>
<event>
 5    0  0.5735425E-005  0.4276607E+03  0.7546771E-02  0.1034601E+00
         21   -1    0    0  502  501  0.00000000000E+00  0.00000000000E+00  0.11528711396E+04  0.11528711396E+04  0.00000000000E+00 0. -1.
         21   -1    0    0  501  502 -0.00000000000E+00 -0.00000000000E+00 -0.15864190901E+03  0.15864190901E+03  0.00000000000E+00 0. -1.
         25    1    1    2    0    0 -0.15868755291E+03  0.24711967273E+03  0.35822896333E+03  0.47979460425E+03  0.12500000000E+03 0.  0.
         25    1    1    2    0    0  0.16583254250E+03 -0.10461063303E+03  0.59335063923E+03  0.63728627615E+03  0.12500000000E+03 0.  0.
         25    1    1    2    0    0 -0.71449895899E+01 -0.14250903970E+03  0.42649628057E+02  0.19443216824E+03  0.12500000000E+03 0.  0.
</event>
<event>
 5    0  0.5735425E-005  0.2735632E+03  0.7546771E-02  0.1099257E+00
         21   -1    0    0  502  501  0.00000000000E+00  0.00000000000E+00  0.62042866742E+03  0.62042866742E+03  0.00000000000E+00 0.  1.
         21   -1    0    0  501  502 -0.00000000000E+00 -0.00000000000E+00 -0.12062117541E+03  0.12062117541E+03  0.00000000000E+00 0. -1.
         25    1    1    2    0    0 -0.52883850100E+01  0.94426981924E+02  0.16662957291E+03  0.22876808453E+03  0.12500000000E+03 0.  0.
         25    1    1    2    0    0 -0.27330464769E+02 -0.17726664950E+03  0.11933604526E+03  0.24907129707E+03  0.12500000000E+03 0.  0.
         25    1    1    2    0    0  0.32618849779E+02  0.82839667575E+02  0.21384187385E+03  0.26321046122E+03  0.12500000000E+03 0.  0.
</event>
<event>
 5    0  0.5735425E-005  0.3861092E+03  0.7546771E-02  0.1048699E+00
         21   -1    0    0  502  501  0.00000000000E+00  0.00000000000E+00  0.66973977213E+03  0.66973977213E+03  0.00000000000E+00 0. -1.
         21   -1    0    0  501  502 -0.00000000000E+00 -0.00000000000E+00 -0.22259436554E+03  0.22259436554E+03  0.00000000000E+00 0. -1.
         25    1    1    2    0    0  0.10931837866E+03  0.69032400318E+02  0.14128934208E+03  0.22869993090E+03  0.12500000000E+03 0.  0.
         25    1    1    2    0    0  0.47374494900E+02 -0.13020213406E+03 -0.96418412121E+02  0.21004392083E+03  0.12500000000E+03 0.  0.
         25    1    1    2    0    0 -0.15669287356E+03  0.61169733738E+02  0.40227447663E+03  0.45359028594E+03  0.12500000000E+03 0.  0.
</event>
<event>
 5    0  0.5735425E-005  0.3336876E+03  0.7546771E-02  0.1069517E+00
         21   -1    0    0  502  501  0.00000000000E+00  0.00000000000E+00  0.49161966225E+03  0.49161966225E+03  0.00000000000E+00 0.  1.
         21   -1    0    0  501  502 -0.00000000000E+00 -0.00000000000E+00 -0.22649098109E+03  0.22649098109E+03  0.00000000000E+00 0.  1.
         25    1    1    2    0    0 -0.99714841022E+00 -0.46855109428E+02  0.47522081735E+02  0.14170301280E+03  0.12500000000E+03 0.  0.
         25    1    1    2    0    0 -0.20056331466E+03  0.78671372944E+02 -0.56399636018E+01  0.24914180159E+03  0.12500000000E+03 0.  0.
         25    1    1    2    0    0  0.20156046307E+03 -0.31816263516E+02  0.22324656302E+03  0.32726582895E+03  0.12500000000E+03 0.  0.
</event>
<event>
 5    0  0.5735425E-005  0.4296124E+03  0.7546771E-02  0.1033982E+00
         21   -1    0    0  502  501  0.00000000000E+00  0.00000000000E+00  0.61517189729E+03  0.61517189729E+03  0.00000000000E+00 0.  1.
         21   -1    0    0  501  502 -0.00000000000E+00 -0.00000000000E+00 -0.30002483760E+03  0.30002483760E+03  0.00000000000E+00 0.  1.
         25    1    1    2    0    0 -0.19255268747E+03  0.18814784399E+03  0.15259075277E+03  0.33374404336E+03  0.12500000000E+03 0.  0.
         25    1    1    2    0    0  0.17952708710E+03  0.93279719209E+02  0.11197228381E+02  0.23807868225E+03  0.12500000000E+03 0.  0.
         25    1    1    2    0    0  0.13025600370E+02 -0.28142756320E+03  0.15135907853E+03  0.34337400928E+03  0.12500000000E+03 0.  0.
</event>
<event>
 5    0  0.5735425E-005  0.2480773E+03  0.7546771E-02  0.1114526E+00
         21   -1    0    0  502  501  0.00000000000E+00  0.00000000000E+00  0.14899085627E+03  0.14899085627E+03  0.00000000000E+00 0. -1.
         21   -1    0    0  501  502 -0.00000000000E+00 -0.00000000000E+00 -0.41306119715E+03  0.41306119715E+03  0.00000000000E+00 0. -1.
         25    1    1    2    0    0  0.14407532380E+02  0.76333352349E+01 -0.10950709501E+02  0.12653364309E+03  0.12500000000E+03 0.  0.
         25    1    1    2    0    0  0.35097175356E+02 -0.47463881610E+02 -0.26070905795E+03  0.29509124804E+03  0.12500000000E+03 0.  0.
         25    1    1    2    0    0 -0.49504707736E+02  0.39830546375E+02  0.75894265644E+01  0.14042716229E+03  0.12500000000E+03 0.  0.
</event>
<event>
 5    0  0.5735425E-005  0.3251378E+03  0.7546771E-02  0.1073309E+00
         21   -1    0    0  502  501  0.00000000000E+00  0.00000000000E+00  0.15894055371E+03  0.15894055371E+03  0.00000000000E+00 0.  1.
         21   -1    0    0  501  502 -0.00000000000E+00 -0.00000000000E+00 -0.66512016451E+03  0.66512016451E+03  0.00000000000E+00 0.  1.
         25    1    1    2    0    0 -0.12982995137E+03 -0.51683438179E+02 -0.36328633159E+03  0.40881408094E+03  0.12500000000E+03 0.  0.
         25    1    1    2    0    0  0.12320733007E+03 -0.59382302554E+02 -0.16289459293E+03  0.24671026012E+03  0.12500000000E+03 0.  0.
         25    1    1    2    0    0  0.66226213047E+01  0.11106574073E+03  0.20001313728E+02  0.16853637717E+03  0.12500000000E+03 0.  0.
</event>
<event>
 5    0  0.5735425E-005  0.3378938E+03  0.7546771E-02  0.1067697E+00
         21   -1    0    0  502  501  0.00000000000E+00  0.00000000000E+00  0.10945286147E+03  0.10945286147E+03  0.00000000000E+00 0.  1.
         21   -1    0    0  501  502 -0.00000000000E+00 -0.00000000000E+00 -0.10431179485E+04  0.10431179485E+04  0.00000000000E+00 0.  1.
         25    1    1    2    0    0  0.11516226703E+03 -0.18309994928E+03 -0.40289953826E+03  0.47406853629E+03  0.12500000000E+03 0.  0.
         25    1    1    2    0    0 -0.90011412981E+02  0.12910000697E+03 -0.49682097728E+03  0.53593371766E+03  0.12500000000E+03 0.  0.
         25    1    1    2    0    0 -0.25150854054E+02  0.53999942308E+02 -0.33944571502E+02  0.14256855601E+03  0.12500000000E+03 0.  0.
</event>
<event>
 5    0  0.5735425E-005  0.3789596E+03  0.7546771E-02  0.1051319E+00
         21   -1    0    0  502  501  0.00000000000E+00  0.00000000000E+00  0.44528299896E+03  0.44528299896E+03  0.00000000000E+00 0. -1.
         21   -1    0    0  501  502 -0.00000000000E+00 -0.00000000000E+00 -0.32251480369E+03  0.32251480369E+03  0.00000000000E+00 0. -1.
         25    1    1    2    0    0  0.17048315707E+03 -0.76746253918E+02 -0.18508600857E+03  0.29126675901E+03  0.12500000000E+03 0.  0.
         25    1    1    2    0    0 -0.78164605896E+02 -0.54510610755E+02  0.10350638536E+03  0.18820117989E+03  0.12500000000E+03 0.  0.
         25    1    1    2    0    0 -0.92318551178E+02  0.13125686467E+03  0.20434781848E+03  0.28832986376E+03  0.12500000000E+03 0.  0.
</event>
<event>
 5    0  0.5735425E-005  0.3659045E+03  0.7546771E-02  0.1056270E+00
         21   -1    0    0  502  501  0.00000000000E+00  0.00000000000E+00  0.81479924646E+03  0.81479924646E+03  0.00000000000E+00 0. -1.
         21   -1    0    0  501  502 -0.00000000000E+00 -0.00000000000E+00 -0.16431792098E+03  0.16431792098E+03  0.00000000000E+00 0. -1.
         25    1    1    2    0    0 -0.73757190601E+02  0.81234970838E+02  0.21022566278E+03  0.26806542661E+03  0.12500000000E+03 0.  0.
         25    1    1    2    0    0 -0.20859489696E+03 -0.43429774158E+02  0.18442091980E+03  0.30827593481E+03  0.12500000000E+03 0.  0.
         25    1    1    2    0    0  0.28235208756E+03 -0.37805196680E+02  0.25583474290E+03  0.40277580602E+03  0.12500000000E+03 0.  0.
</event>
<event>
 5    0  0.5735425E-005  0.3550345E+03  0.7546771E-02  0.1060567E+00
         21   -1    0    0  502  501  0.00000000000E+00  0.00000000000E+00  0.82567358801E+02  0.82567358801E+02  0.00000000000E+00 0.  1.
         21   -1    0    0  501  502 -0.00000000000E+00 -0.00000000000E+00 -0.15266266163E+04  0.15266266163E+04  0.00000000000E+00 0.  1.
         25    1    1    2    0    0 -0.37933199599E+02  0.12102930531E+02 -0.34006977044E+02  0.13552447398E+03  0.12500000000E+03 0.  0.
         25    1    1    2    0    0 -0.14238460254E+03 -0.64072146040E+02 -0.57898600843E+03  0.61255890566E+03  0.12500000000E+03 0.  0.
         25    1    1    2    0    0  0.18031780214E+03  0.51969215508E+02 -0.83106627198E+03  0.86111059543E+03  0.12500000000E+03 0.  0.
</event>
<event>
 5    0  0.5735425E-005  0.3428183E+03  0.7546771E-02  0.1065602E+00
         21   -1    0    0  502  501  0.00000000000E+00  0.00000000000E+00  0.12572469779E+03  0.12572469779E+03  0.00000000000E+00 0.  1.
         21   -1    0    0  501  502 -0.00000000000E+00 -0.00000000000E+00 -0.93477546736E+03  0.93477546736E+03  0.00000000000E+00 0.  1.
         25    1    1    2    0    0 -0.54585950937E+02  0.10407959943E+03 -0.90261036456E+02  0.19386656174E+03  0.12500000000E+03 0.  0.
         25    1    1    2    0    0 -0.23093773215E+02  0.11654612008E+03 -0.11532402155E+03  0.20746313025E+03  0.12500000000E+03 0.  0.
         25    1    1    2    0    0  0.77679724151E+02 -0.22062571951E+03 -0.60346571156E+03  0.65917047316E+03  0.12500000000E+03 0.  0.
</event>
<event>
 5    0  0.5735425E-005  0.5136997E+03  0.7546771E-02  0.1010264E+00
         21   -1    0    0  502  501  0.00000000000E+00  0.00000000000E+00  0.27342267775E+03  0.27342267775E+03  0.00000000000E+00 0. -1.
         21   -1    0    0  501  502 -0.00000000000E+00 -0.00000000000E+00 -0.96512620622E+03  0.96512620622E+03  0.00000000000E+00 0. -1.
         25    1    1    2    0    0  0.36435264364E+03  0.19719865732E+03 -0.32946272428E+03  0.54388495665E+03  0.12500000000E+03 0.  0.
         25    1    1    2    0    0 -0.28028616852E+03 -0.16046662782E+03 -0.40591776508E+03  0.53357671137E+03  0.12500000000E+03 0.  0.
         25    1    1    2    0    0 -0.84066475124E+02 -0.36732029502E+02  0.43676960884E+02  0.16108721595E+03  0.12500000000E+03 0.  0.
</event>
<event>
 5    0  0.6164739E-005  0.3433910E+03  0.7546771E-02  0.1065361E+00
         21   -1    0    0  502  501  0.00000000000E+00  0.00000000000E+00  0.24527322476E+03  0.24527322476E+03  0.00000000000E+00 0.  1.
         21   -1    0    0  501  502 -0.00000000000E+00 -0.00000000000E+00 -0.48075917282E+03  0.48075917282E+03  0.00000000000E+00 0.  1.
         25    1    1    2    0    0  0.90204982503E+02 -0.25436754143E+02 -0.33421241172E+03  0.36892669120E+03  0.12500000000E+03 0.  0.
         25    1    1    2    0    0 -0.14717801751E+03 -0.19960090830E+02  0.28234868615E+02  0.19616824888E+03  0.12500000000E+03 0.  0.
         25    1    1    2    0    0  0.56973035008E+02  0.45396844973E+02  0.70491595048E+02  0.16093745749E+03  0.12500000000E+03 0.  0.
</event>
<event>
 5    0  0.5735425E-005  0.4383686E+03  0.7546771E-02  0.1031249E+00
         21   -1    0    0  502  501  0.00000000000E+00  0.00000000000E+00  0.13610041530E+03  0.13610041530E+03  0.00000000000E+00 0.  1.
         21   -1    0    0  501  502 -0.00000000000E+00 -0.00000000000E+00 -0.14119501098E+04  0.14119501098E+04  0.00000000000E+00 0.  1.
         25    1    1    2    0    0  0.87563196607E+02  0.22442332514E+01 -0.12600036246E+04  0.12692149086E+04  0.12500000000E+03 0.  0.
         25    1    1    2    0    0 -0.34615809691E+02  0.37733238453E+02  0.80301475704E+01  0.13532011984E+03  0.12500000000E+03 0.  0.
         25    1    1    2    0    0 -0.52947386916E+02 -0.39977471705E+02 -0.23876217376E+02  0.14351549666E+03  0.12500000000E+03 0.  0.
</event>
<event>
 5    0  0.5735425E-005  0.3318421E+03  0.7546771E-02  0.1070325E+00
         21   -1    0    0  502  501  0.00000000000E+00  0.00000000000E+00  0.12382443912E+04  0.12382443912E+04  0.00000000000E+00 0. -1.
         21   -1    0    0  501  502 -0.00000000000E+00 -0.00000000000E+00 -0.88931723110E+02  0.88931723110E+02  0.00000000000E+00 0. -1.
         25    1    1    2    0    0  0.19148303393E+03 -0.77855456055E+02  0.46082610699E+03  0.52030080262E+03  0.12500000000E+03 0.  0.
         25    1    1    2    0    0 -0.16592402198E+03  0.13243739806E+03  0.26776941686E+03  0.36386248238E+03  0.12500000000E+03 0.  0.
         25    1    1    2    0    0 -0.25559011950E+02 -0.54581942008E+02  0.42071714426E+03  0.44301282934E+03  0.12500000000E+03 0.  0.
</event>
<event>
 5    0  0.5735425E-005  0.2625586E+03  0.7546771E-02  0.1105616E+00
         21   -1    0    0  502  501  0.00000000000E+00  0.00000000000E+00  0.92860430674E+02  0.92860430674E+02  0.00000000000E+00 0.  1.
         21   -1    0    0  501  502 -0.00000000000E+00 -0.00000000000E+00 -0.74237211611E+03  0.74237211611E+03  0.00000000000E+00 0.  1.
         25    1    1    2    0    0 -0.76100286474E+02  0.54303201133E+02 -0.18861895230E+03  0.24483096296E+03  0.12500000000E+03 0.  0.
         25    1    1    2    0    0  0.76662733018E+02 -0.35350006867E+02 -0.43625242772E+03  0.46159287073E+03  0.12500000000E+03 0.  0.
         25    1    1    2    0    0 -0.56244654438E+00 -0.18953194267E+02 -0.24640305416E+02  0.12880871310E+03  0.12500000000E+03 0.  0.
</event>
<event>
 5    0  0.5735425E-005  0.7184099E+03  0.7546771E-02  0.9686257E-01
         21   -1    0    0  502  501  0.00000000000E+00  0.00000000000E+00  0.64881933912E+03  0.64881933912E+03  0.00000000000E+00 0.  1.
         21   -1    0    0  501  502 -0.00000000000E+00 -0.00000000000E+00 -0.79546464348E+03  0.79546464348E+03  0.00000000000E+00 0.  1.
         25    1    1    2    0    0 -0.25905926789E+03 -0.50439379086E+02  0.54114446390E+03  0.61491313700E+03  0.12500000000E+03 0.  0.
         25    1    1    2    0    0  0.25155887827E+03  0.37187217836E+02 -0.63006072358E+03  0.69084460901E+03  0.12500000000E+03 0.  0.
         25    1    1    2    0    0  0.75003896246E+01  0.13252161250E+02 -0.57729044682E+02  0.13852623658E+03  0.12500000000E+03 0.  0.
</event>
<event>
 5    0  0.5735425E-005  0.4368150E+03  0.7546771E-02  0.1031729E+00
         21   -1    0    0  502  501  0.00000000000E+00  0.00000000000E+00  0.11389442134E+04  0.11389442134E+04  0.00000000000E+00 0. -1.
         21   -1    0    0  501  502 -0.00000000000E+00 -0.00000000000E+00 -0.16752999985E+03  0.16752999985E+03  0.00000000000E+00 0. -1.
         25    1    1    2    0    0 -0.14410417014E+03  0.10859056347E+02  0.25300342090E+03  0.31704835900E+03  0.12500000000E+03 0.  0.
         25    1    1    2    0    0 -0.13560140646E+03 -0.57350955634E+02  0.64178835079E+03  0.67021948700E+03  0.12500000000E+03 0.  0.
         25    1    1    2    0    0  0.27970557660E+03  0.46491899287E+02  0.76622441815E+02  0.31920636721E+03  0.12500000000E+03 0.  0.
</event>
<event>
 5    0  0.5735425E-005  0.4019868E+03  0.7546771E-02  0.1043094E+00
         21   -1    0    0  502  501  0.00000000000E+00  0.00000000000E+00  0.85579815642E+03  0.85579815642E+03  0.00000000000E+00 0. -1.
         21   -1    0    0  501  502 -0.00000000000E+00 -0.00000000000E+00 -0.18882181498E+03  0.18882181498E+03  0.00000000000E+00 0. -1.
         25    1    1    2    0    0  0.27907683232E+02 -0.17556675459E+03  0.47791536376E+03  0.52500535142E+03  0.12500000000E+03 0.  0.
         25    1    1    2    0    0  0.41388955311E+01  0.21296297774E+03  0.26747146793E+03  0.36405541680E+03  0.12500000000E+03 0.  0.
         25    1    1    2    0    0 -0.32046578763E+02 -0.37396223145E+02 -0.78410490244E+02  0.15555920319E+03  0.12500000000E+03 0.  0.
</event>
<event>
 5    0  0.5735425E-005  0.2498253E+03  0.7546771E-02  0.1113415E+00
         21   -1    0    0  502  501  0.00000000000E+00  0.00000000000E+00  0.54731461538E+03  0.54731461538E+03  0.00000000000E+00 0.  1.
         21   -1    0    0  501  502 -0.00000000000E+00 -0.00000000000E+00 -0.11403441777E+03  0.11403441777E+03  0.00000000000E+00 0.  1.
         25    1    1    2    0    0  0.31309039723E+02 -0.97794867067E+02  0.18624220117E+03  0.24668856781E+03  0.12500000000E+03 0.  0.
         25    1    1    2    0    0 -0.94383748057E+02 -0.82771414911E+01  0.10482519718E+03  0.18865345195E+03  0.12500000000E+03 0.  0.
         25    1    1    2    0    0  0.63074708333E+02  0.10607200856E+03  0.14221279926E+03  0.22600701340E+03  0.12500000000E+03 0.  0.
</event>
<event>
 5    0  0.5735425E-005  0.2571960E+03  0.7546771E-02  0.1108840E+00
         21   -1    0    0  502  501  0.00000000000E+00  0.00000000000E+00  0.97575416122E+02  0.97575416122E+02  0.00000000000E+00 0. -1.
         21   -1    0    0  501  502 -0.00000000000E+00 -0.00000000000E+00 -0.67793481181E+03  0.67793481181E+03  0.00000000000E+00 0. -1.
         25    1    1    2    0    0  0.42024346056E+02  0.10153915207E+02 -0.59222135428E+02  0.14491862882E+03  0.12500000000E+03 0.  0.
         25    1    1    2    0    0 -0.11974885868E+03  0.68065510199E+02 -0.23840754478E+03  0.30238363091E+03  0.12500000000E+03 0.  0.
         25    1    1    2    0    0  0.77724512627E+02 -0.78219425405E+02 -0.28272971548E+03  0.32820796820E+03  0.12500000000E+03 0.  0.
</event>
<event>
 5    0  0.5735425E-005  0.2387384E+03  0.7546771E-02  0.1120636E+00
         21   -1    0    0  502  501  0.00000000000E+00  0.00000000000E+00  0.40884132030E+03  0.40884132030E+03  0.00000000000E+00 0. -1.
         21   -1    0    0  501  502 -0.00000000000E+00 -0.00000000000E+00 -0.13940872443E+03  0.13940872443E+03  0.00000000000E+00 0. -1.
         25    1    1    2    0    0 -0.58446330638E+02 -0.87029952162E+02  0.44215056867E+02  0.16902709070E+03  0.12500000000E+03 0.  0.
         25    1    1    2    0    0  0.93350353624E+01  0.37921325923E+02  0.19201256115E+03  0.23241986465E+03  0.12500000000E+03 0.  0.
         25    1    1    2    0    0  0.49111295275E+02  0.49108626238E+02  0.33204977844E+02  0.14680308937E+03  0.12500000000E+03 0.  0.
</event>
<event>
 5    0  0.5735425E-005  0.3681904E+03  0.7546771E-02  0.1055387E+00
         21   -1    0    0  502  501  0.00000000000E+00  0.00000000000E+00  0.83151415275E+03  0.83151415275E+03  0.00000000000E+00 0.  1.
         21   -1    0    0  501  502 -0.00000000000E+00 -0.00000000000E+00 -0.16303290351E+03  0.16303290351E+03  0.00000000000E+00 0. -1.
         25    1    1    2    0    0 -0.37848561984E+02 -0.13365579196E+03  0.22835042805E+03  0.29506830118E+03  0.12500000000E+03 0.  0.
         25    1    1    2    0    0  0.14311411632E+03  0.26889418594E+03  0.29846984667E+03  0.44440407614E+03  0.12500000000E+03 0.  0.
         25    1    1    2    0    0 -0.10526555434E+03 -0.13523839398E+03  0.14166097452E+03  0.25507467894E+03  0.12500000000E+03 0.  0.
</event>
<event>
 5    0  0.5735425E-005  0.2185150E+03  0.7546771E-02  0.1134995E+00
         21   -1    0    0  502  501  0.00000000000E+00  0.00000000000E+00  0.42226628910E+03  0.42226628910E+03  0.00000000000E+00 0.  1.
         21   -1    0    0  501  502 -0.00000000000E+00 -0.00000000000E+00 -0.11307743232E+03  0.11307743232E+03  0.00000000000E+00 0.  1.
         25    1    1    2    0    0 -0.20220090996E+02 -0.18353153441E+01  0.81079962377E+02  0.15037014584E+03  0.12500000000E+03 0.  0.
         25    1    1    2    0    0 -0.30400271527E+02 -0.12536648813E+02  0.11968853237E+02  0.12980599955E+03  0.12500000000E+03 0.  0.
         25    1    1    2    0    0  0.50620362524E+02  0.14371964157E+02  0.21614004117E+03  0.25516757602E+03  0.12500000000E+03 0.  0.
</event>
<event>
 5    0  0.5989183E-005  0.3272187E+03  0.7546771E-02  0.1072374E+00
         21   -1    0    0  502  501  0.00000000000E+00  0.00000000000E+00  0.15014391136E+03  0.15014391136E+03  0.00000000000E+00 0.  1.
         21   -1    0    0  501  502 -0.00000000000E+00 -0.00000000000E+00 -0.71312958221E+03  0.71312958221E+03  0.00000000000E+00 0.  1.
         25    1    1    2    0    0 -0.44791004296E+02 -0.14141354886E+03 -0.73740313605E+02  0.20752508214E+03  0.12500000000E+03 0.  0.
         25    1    1    2    0    0  0.82976425567E+02  0.57431338652E+02 -0.20529790558E+02  0.16195653170E+03  0.12500000000E+03 0.  0.
         25    1    1    2    0    0 -0.38185421271E+02  0.83982210208E+02 -0.46871556669E+03  0.49379187973E+03  0.12500000000E+03 0.  0.
</event>
<event>
 5    0  0.5735425E-005  0.2594174E+03  0.7546771E-02  0.1107494E+00
         21   -1    0    0  502  501  0.00000000000E+00  0.00000000000E+00  0.51489394774E+02  0.51489394774E+02  0.00000000000E+00 0. -1.
         21   -1    0    0  501  502 -0.00000000000E+00 -0.00000000000E+00 -0.13070148084E+04  0.13070148084E+04  0.00000000000E+00 0. -1.
         25    1    1    2    0    0 -0.25087928217E+02  0.13788702923E+02 -0.18551468832E+03  0.22552213207E+03  0.12500000000E+03 0.  0.
         25    1    1    2    0    0  0.13751707539E+03 -0.56181596823E+02 -0.47272481381E+03  0.51103920342E+03  0.12500000000E+03 0.  0.
         25    1    1    2    0    0 -0.11242914717E+03  0.42392893901E+02 -0.59728591144E+03  0.62194286763E+03  0.12500000000E+03 0.  0.
</event>
<event>
 5    0  0.5735425E-005  0.3488237E+03  0.7546771E-02  0.1063099E+00
         21   -1    0    0  502  501  0.00000000000E+00  0.00000000000E+00  0.36151917851E+03  0.36151917851E+03  0.00000000000E+00 0. -1.
         21   -1    0    0  501  502 -0.00000000000E+00 -0.00000000000E+00 -0.33657410611E+03  0.33657410611E+03  0.00000000000E+00 0. -1.
         25    1    1    2    0    0 -0.23065407765E+03 -0.73878278727E+01  0.36068167979E+02  0.26491847101E+03  0.12500000000E+03 0.  0.
         25    1    1    2    0    0  0.10870541105E+02 -0.82975119060E+02  0.48647809293E+02  0.15809695884E+03  0.12500000000E+03 0.  0.
         25    1    1    2    0    0  0.21978353655E+03  0.90362946932E+02 -0.59770904870E+02  0.27507785477E+03  0.12500000000E+03 0.  0.
</event>
<event>
 5    0  0.5735425E-005  0.3225827E+03  0.7546771E-02  0.1074467E+00
         21   -1    0    0  502  501  0.00000000000E+00  0.00000000000E+00  0.17936097038E+03  0.17936097038E+03  0.00000000000E+00 0. -1.
         21   -1    0    0  501  502 -0.00000000000E+00 -0.00000000000E+00 -0.58016851276E+03  0.58016851276E+03  0.00000000000E+00 0. -1.
         25    1    1    2    0    0  0.15029060053E+03 -0.14551617039E+03 -0.21909552584E+03  0.32770424150E+03  0.12500000000E+03 0.  0.
         25    1    1    2    0    0 -0.15973212823E+03  0.55154387402E+02 -0.24892894844E+02  0.21166250365E+03  0.12500000000E+03 0.  0.
         25    1    1    2    0    0  0.94415277075E+01  0.90361782989E+02 -0.15681912169E+03  0.22016273799E+03  0.12500000000E+03 0.  0.
</event>
<event>
 5    0  0.5735425E-005  0.2245409E+03  0.7546771E-02  0.1130542E+00
         21   -1    0    0  502  501  0.00000000000E+00  0.00000000000E+00  0.15984963557E+04  0.15984963557E+04  0.00000000000E+00 0. -1.
         21   -1    0    0  501  502 -0.00000000000E+00 -0.00000000000E+00 -0.31541288921E+02  0.31541288921E+02  0.00000000000E+00 0. -1.
         25    1    1    2    0    0  0.64922182492E+02  0.20009065411E+01  0.44504229907E+03  0.46680460727E+03  0.12500000000E+03 0.  0.
         25    1    1    2    0    0  0.19861396791E+02 -0.15246565517E+02  0.76349108196E+03  0.77406108614E+03  0.12500000000E+03 0.  0.
         25    1    1    2    0    0 -0.84783579283E+02  0.13245658976E+02  0.35842168579E+03  0.38917195125E+03  0.12500000000E+03 0.  0.
</event>
<event>
 5    0  0.5735425E-005  0.3041193E+03  0.7546771E-02  0.1083199E+00
         21   -1    0    0  502  501  0.00000000000E+00  0.00000000000E+00  0.51172537805E+02  0.51172537805E+02  0.00000000000E+00 0. -1.
         21   -1    0    0  501  502 -0.00000000000E+00 -0.00000000000E+00 -0.18073860671E+04  0.18073860671E+04  0.00000000000E+00 0. -1.
         25    1    1    2    0    0  0.35191796464E+02 -0.37309710993E+02 -0.52474843474E+03  0.54186381761E+03  0.12500000000E+03 0.  0.
         25    1    1    2    0    0  0.22433983178E+02 -0.16026294229E+03 -0.37621503793E+03  0.42819417212E+03  0.12500000000E+03 0.  0.
         25    1    1    2    0    0 -0.57625779641E+02  0.19757265329E+03 -0.85525005659E+03  0.88850061514E+03  0.12500000000E+03 0.  0.
</event>
<event>
 5    0  0.5735425E-005  0.3413668E+03  0.7546771E-02  0.1066215E+00
         21   -1    0    0  502  501  0.00000000000E+00  0.00000000000E+00  0.88055263446E+03  0.88055263446E+03  0.00000000000E+00 0. -1.
         21   -1    0    0  501  502 -0.00000000000E+00 -0.00000000000E+00 -0.13233882475E+03  0.13233882475E+03  0.00000000000E+00 0. -1.
         25    1    1    2    0    0 -0.35544521060E+02  0.20602345426E+03  0.44358306023E+03  0.50606324506E+03  0.12500000000E+03 0.  0.
         25    1    1    2    0    0 -0.98101180804E+01 -0.33524812611E+02  0.25092233128E+03  0.28250162444E+03  0.12500000000E+03 0.  0.
         25    1    1    2    0    0  0.45354639141E+02 -0.17249864165E+03  0.53708418204E+02  0.22432658970E+03  0.12500000000E+03 0.  0.
</event>
<event>
 5    0  0.5735425E-005  0.2781583E+03  0.7546771E-02  0.1096699E+00
         21   -1    0    0  502  501  0.00000000000E+00  0.00000000000E+00  0.18099567800E+03  0.18099567800E+03  0.00000000000E+00 0. -1.
         21   -1    0    0  501  502 -0.00000000000E+00 -0.00000000000E+00 -0.42747998712E+03  0.42747998712E+03  0.00000000000E+00 0. -1.
         25    1    1    2    0    0  0.12350773955E+02  0.17267613075E+03 -0.20889645317E+03  0.29871778637E+03  0.12500000000E+03 0.  0.
         25    1    1    2    0    0 -0.10453898078E+02 -0.94268847172E+02 -0.40897851475E+02  0.16215280999E+03  0.12500000000E+03 0.  0.
         25    1    1    2    0    0 -0.18968758777E+01 -0.78407283575E+02  0.33099955241E+01  0.14760506877E+03  0.12500000000E+03 0.  0.
</event>
<event>
 5    0  0.5735425E-005  0.3550315E+03  0.7546771E-02  0.1060569E+00
         21   -1    0    0  502  501  0.00000000000E+00  0.00000000000E+00  0.17141744508E+03  0.17141744508E+03  0.00000000000E+00 0.  1.
         21   -1    0    0  501  502 -0.00000000000E+00 -0.00000000000E+00 -0.73532384106E+03  0.73532384106E+03  0.00000000000E+00 0.  1.
         25    1    1    2    0    0 -0.94306954954E+02 -0.74263322614E+02 -0.16884396724E+03  0.24195480593E+03  0.12500000000E+03 0.  0.
         25    1    1    2    0    0  0.11617983767E+03 -0.15419023724E+03 -0.31775980428E+03  0.39226098093E+03  0.12500000000E+03 0.  0.
         25    1    1    2    0    0 -0.21872882715E+02  0.22845355986E+03 -0.77302624458E+02  0.27252549928E+03  0.12500000000E+03 0.  0.
</event>
<event>
 5    0  0.5735425E-005  0.2298983E+03  0.7546771E-02  0.1126711E+00
         21   -1    0    0  502  501  0.00000000000E+00  0.00000000000E+00  0.43600505081E+03  0.43600505081E+03  0.00000000000E+00 0. -1.
         21   -1    0    0  501  502 -0.00000000000E+00 -0.00000000000E+00 -0.12122164627E+03  0.12122164627E+03  0.00000000000E+00 0. -1.
         25    1    1    2    0    0  0.17683258402E+02 -0.33100509873E+02  0.82372860191E+02  0.15433285288E+03  0.12500000000E+03 0.  0.
         25    1    1    2    0    0  0.94139151489E+02  0.37859461599E+02  0.10494250646E+03  0.19218076995E+03  0.12500000000E+03 0.  0.
         25    1    1    2    0    0 -0.11182240989E+03 -0.47589517260E+01  0.12746803788E+03  0.21071307424E+03  0.12500000000E+03 0.  0.
</event>
<event>
 5    0  0.5735425E-005  0.2808485E+03  0.7546771E-02  0.1095226E+00
         21   -1    0    0  502  501  0.00000000000E+00  0.00000000000E+00  0.79904325444E+02  0.79904325444E+02  0.00000000000E+00 0. -1.
         21   -1    0    0  501  502 -0.00000000000E+00 -0.00000000000E+00 -0.98712928678E+03  0.98712928678E+03  0.00000000000E+00 0. -1.
         25    1    1    2    0    0  0.26689989282E+02  0.94474297828E+02 -0.48043037275E+03  0.50603961460E+03  0.12500000000E+03 0.  0.
         25    1    1    2    0    0 -0.16867334528E+02  0.76992925101E+02 -0.13565212789E+03  0.20059640398E+03  0.12500000000E+03 0.  0.
         25    1    1    2    0    0 -0.98226547537E+01 -0.17146722293E+03 -0.29114246070E+03  0.36039759365E+03  0.12500000000E+03 0.  0.
</event>
<event>
 5    0  0.5735425E-005  0.2297172E+03  0.7546771E-02  0.1126839E+00
         21   -1    0    0  502  501  0.00000000000E+00  0.00000000000E+00  0.54484765672E+03  0.54484765672E+03  0.00000000000E+00 0. -1.
         21   -1    0    0  501  502 -0.00000000000E+00 -0.00000000000E+00 -0.96852724339E+02  0.96852724339E+02  0.00000000000E+00 0. -1.
         25    1    1    2    0    0 -0.30039854276E+02  0.16017365424E+02  0.18070724649E+03  0.22234895496E+03  0.12500000000E+03 0.  0.
         25    1    1    2    0    0  0.10908031411E+03 -0.37120053368E+02  0.17379190960E+03  0.24311528362E+03  0.12500000000E+03 0.  0.
         25    1    1    2    0    0 -0.79040459834E+02  0.21102687944E+02  0.93495776296E+02  0.17623614248E+03  0.12500000000E+03 0.  0.
</event>
<event>
 5    0  0.5735425E-005  0.3707209E+03  0.7546771E-02  0.1054418E+00
         21   -1    0    0  502  501  0.00000000000E+00  0.00000000000E+00  0.62389724938E+03  0.62389724938E+03  0.00000000000E+00 0.  1.
         21   -1    0    0  501  502 -0.00000000000E+00 -0.00000000000E+00 -0.22028306117E+03  0.22028306117E+03  0.00000000000E+00 0.  1.
         25    1    1    2    0    0 -0.28623801459E+03 -0.10948023413E+03  0.18961333612E+03  0.38143982474E+03  0.12500000000E+03 0.  0.
         25    1    1    2    0    0  0.10925434565E+03  0.21893538672E+02  0.13798331296E+03  0.21697980029E+03  0.12500000000E+03 0.  0.
         25    1    1    2    0    0  0.17698366894E+03  0.87586695461E+02  0.76017539124E+02  0.24576068552E+03  0.12500000000E+03 0.  0.
</event>
<event>
 5    0  0.5735425E-005  0.3535479E+03  0.7546771E-02  0.1061168E+00
         21   -1    0    0  502  501  0.00000000000E+00  0.00000000000E+00  0.12547307143E+03  0.12547307143E+03  0.00000000000E+00 0. -1.
         21   -1    0    0  501  502 -0.00000000000E+00 -0.00000000000E+00 -0.99619870772E+03  0.99619870772E+03  0.00000000000E+00 0. -1.
         25    1    1    2    0    0 -0.11483745037E+03  0.17244736503E+03 -0.54173678265E+03  0.59332071883E+03  0.12500000000E+03 0.  0.
         25    1    1    2    0    0  0.15752849708E+03 -0.94700315215E+01 -0.18910074380E+03  0.27620463464E+03  0.12500000000E+03 0.  0.
         25    1    1    2    0    0 -0.42691046715E+02 -0.16297733351E+03 -0.13988810985E+03  0.25214642568E+03  0.12500000000E+03 0.  0.
</event>
<event>
 5    0  0.5735425E-005  0.3433898E+03  0.7546771E-02  0.1065361E+00
         21   -1    0    0  502  501  0.00000000000E+00  0.00000000000E+00  0.31837198187E+03  0.31837198187E+03  0.00000000000E+00 0. -1.
         21   -1    0    0  501  502 -0.00000000000E+00 -0.00000000000E+00 -0.37037348159E+03  0.37037348159E+03  0.00000000000E+00 0. -1.
         25    1    1    2    0    0 -0.21180294634E+03  0.80030862083E+02  0.10214195452E+03  0.27807086478E+03  0.12500000000E+03 0.  0.
         25    1    1    2    0    0  0.11998860905E+03  0.10396656616E+02  0.71351127428E+00  0.17358244689E+03  0.12500000000E+03 0.  0.
         25    1    1    2    0    0  0.91814337290E+02 -0.90427518699E+02 -0.15485696552E+03  0.23709215179E+03  0.12500000000E+03 0.  0.
</event>
<event>
 5    0  0.5735425E-005  0.2675422E+03  0.7546771E-02  0.1102695E+00
         21   -1    0    0  502  501  0.00000000000E+00  0.00000000000E+00  0.37797144930E+03  0.37797144930E+03  0.00000000000E+00 0.  1.
         21   -1    0    0  501  502 -0.00000000000E+00 -0.00000000000E+00 -0.18937626972E+03  0.18937626972E+03  0.00000000000E+00 0.  1.
         25    1    1    2    0    0  0.36115724397E+02 -0.67875531458E+02  0.19932629851E+03  0.24752253755E+03  0.12500000000E+03 0.  0.
         25    1    1    2    0    0  0.61357129736E+02 -0.14410909682E+02 -0.17619288680E+02  0.14109504251E+03  0.12500000000E+03 0.  0.
         25    1    1    2    0    0 -0.97472854133E+02  0.82286441140E+02  0.68881697571E+01  0.17873013896E+03  0.12500000000E+03 0.  0.
</event>
<event>
 5    0  0.5735425E-005  0.5388614E+03  0.7546771E-02  0.1004105E+00
         21   -1    0    0  502  501  0.00000000000E+00  0.00000000000E+00  0.16926886473E+03  0.16926886473E+03  0.00000000000E+00 0. -1.
         21   -1    0    0  501  502 -0.00000000000E+00 -0.00000000000E+00 -0.17154461119E+04  0.17154461119E+04  0.00000000000E+00 0. -1.
         25    1    1    2    0    0  0.62023908791E+02 -0.14396934857E+03 -0.84692295811E+02  0.21765092134E+03  0.12500000000E+03 0.  0.
         25    1    1    2    0    0 -0.21709385789E+02  0.36853324996E+03 -0.34450690705E+03  0.52019041010E+03  0.12500000000E+03 0.  0.
         25    1    1    2    0    0 -0.40314523002E+02 -0.22456390139E+03 -0.11169780444E+04  0.11468736452E+04  0.12500000000E+03 0.  0.
</event>
<event>
 5    0  0.5735425E-005  0.3543539E+03  0.7546771E-02  0.1060842E+00
         21   -1    0    0  502  501  0.00000000000E+00  0.00000000000E+00  0.17987804238E+03  0.17987804238E+03  0.00000000000E+00 0.  1.
         21   -1    0    0  501  502 -0.00000000000E+00 -0.00000000000E+00 -0.69806584940E+03  0.69806584940E+03  0.00000000000E+00 0.  1.
         25    1    1    2    0    0  0.12565509422E+02 -0.10542404567E+03  0.10708775702E+03  0.19586962280E+03  0.12500000000E+03 0.  0.
         25    1    1    2    0    0 -0.73242336278E+01  0.40871060176E+02 -0.30120769605E+03  0.32874787318E+03  0.12500000000E+03 0.  0.
         25    1    1    2    0    0 -0.52412757946E+01  0.64552985492E+02 -0.32406786799E+03  0.35332639580E+03  0.12500000000E+03 0.  0.
</event>
<event>
 5    0  0.5735425E-005  0.5722752E+03  0.7546771E-02  0.9964656E-01
         21   -1    0    0  502  501  0.00000000000E+00  0.00000000000E+00  0.37064803684E+03  0.37064803684E+03  0.00000000000E+00 0.  1.
         21   -1    0    0  501  502 -0.00000000000E+00 -0.00000000000E+00 -0.88358476547E+03  0.88358476547E+03  0.00000000000E+00 0.  1.
         25    1    1    2    0    0 -0.42470772013E+03 -0.20039021693E+03 -0.80394858728E+02  0.49256595486E+03  0.12500000000E+03 0.  0.
         25    1    1    2    0    0  0.24730110688E+03  0.10143258558E+03 -0.43198714287E+03  0.52314844785E+03  0.12500000000E+03 0.  0.
         25    1    1    2    0    0  0.17740661325E+03  0.98957631353E+02 -0.55472703092E+00  0.23851839960E+03  0.12500000000E+03 0.  0.
</event>
<event>
 5    0  0.5735425E-005  0.3463078E+03  0.7546771E-02  0.1064141E+00
         21   -1    0    0  502  501  0.00000000000E+00  0.00000000000E+00  0.20892647125E+03  0.20892647125E+03  0.00000000000E+00 0.  1.
         21   -1    0    0  501  502 -0.00000000000E+00 -0.00000000000E+00 -0.57402547054E+03  0.57402547054E+03  0.00000000000E+00 0.  1.
         25    1    1    2    0    0 -0.10167780287E+03 -0.19627258957E+03 -0.40760435668E+02  0.25719198690E+03  0.12500000000E+03 0.  0.
         25    1    1    2    0    0  0.92296943840E+02 -0.24070749096E+02 -0.93698393105E+02  0.18303692435E+03  0.12500000000E+03 0.  0.
         25    1    1    2    0    0  0.93808590319E+01  0.22034333866E+03 -0.23064017052E+03  0.34272303054E+03  0.12500000000E+03 0.  0.
</event>
<event>
 5    0  0.5735425E-005  0.3028399E+03  0.7546771E-02  0.1083830E+00
         21   -1    0    0  502  501  0.00000000000E+00  0.00000000000E+00  0.19178137676E+03  0.19178137676E+03  0.00000000000E+00 0.  1.
         21   -1    0    0  501  502 -0.00000000000E+00 -0.00000000000E+00 -0.47821132046E+03  0.47821132046E+03  0.00000000000E+00 0.  1.
         25    1    1    2    0    0  0.19133246824E+03 -0.10752113369E+03 -0.10816786331E+03  0.27476206843E+03  0.12500000000E+03 0.  0.
         25    1    1    2    0    0 -0.13291606649E+03  0.10064418935E+02 -0.10808532939E+03  0.21230970700E+03  0.12500000000E+03 0.  0.
         25    1    1    2    0    0 -0.58416401754E+02  0.97456714753E+02 -0.70176751007E+02  0.18292092178E+03  0.12500000000E+03 0.  0.
</event>
<event>
 5    0  0.5735425E-005  0.2784751E+03  0.7546771E-02  0.1096525E+00
         21   -1    0    0  502  501  0.00000000000E+00  0.00000000000E+00  0.75911168861E+02  0.75911168861E+02  0.00000000000E+00 0. -1.
         21   -1    0    0  501  502 -0.00000000000E+00 -0.00000000000E+00 -0.10215677223E+04  0.10215677223E+04  0.00000000000E+00 0. -1.
         25    1    1    2    0    0 -0.53509792556E+02 -0.15689259092E+03 -0.42379719927E+03  0.47191911288E+03  0.12500000000E+03 0.  0.
         25    1    1    2    0    0  0.17580912614E+02  0.55413615359E+01 -0.30874770452E+03  0.33360146916E+03  0.12500000000E+03 0.  0.
         25    1    1    2    0    0  0.35928879943E+02  0.15135122938E+03 -0.21311164961E+03  0.29195830909E+03  0.12500000000E+03 0.  0.
</event>
<event>
 5    0  0.5735425E-005  0.2408587E+03  0.7546771E-02  0.1119222E+00
         21   -1    0    0  502  501  0.00000000000E+00  0.00000000000E+00  0.31947060281E+03  0.31947060281E+03  0.00000000000E+00 0. -1.
         21   -1    0    0  501  502 -0.00000000000E+00 -0.00000000000E+00 -0.18159083960E+03  0.18159083960E+03  0.00000000000E+00 0. -1.
         25    1    1    2    0    0  0.27945400731E+02  0.70864328507E+02  0.28746212836E+01  0.14641025211E+03  0.12500000000E+03 0.  0.
         25    1    1    2    0    0 -0.16056545539E+02 -0.11948340843E+02  0.16966414280E+03  0.21168726191E+03  0.12500000000E+03 0.  0.
         25    1    1    2    0    0 -0.11888855192E+02 -0.58915987663E+02 -0.34659000870E+02  0.14296392839E+03  0.12500000000E+03 0.  0.
</event>
<event>
 5    0  0.5735425E-005  0.2722767E+03  0.7546771E-02  0.1099984E+00
         21   -1    0    0  502  501  0.00000000000E+00  0.00000000000E+00  0.13716735931E+03  0.13716735931E+03  0.00000000000E+00 0.  1.
         21   -1    0    0  501  502 -0.00000000000E+00 -0.00000000000E+00 -0.54046833039E+03  0.54046833039E+03  0.00000000000E+00 0.  1.
         25    1    1    2    0    0  0.91901699496E+02 -0.75721187066E+02 -0.38351714382E+02  0.17684873349E+03  0.12500000000E+03 0.  0.
         25    1    1    2    0    0  0.53177769451E+02  0.66390943544E+02 -0.16019123245E+03  0.22027678839E+03  0.12500000000E+03 0.  0.
         25    1    1    2    0    0 -0.14507946895E+03  0.93302435216E+01 -0.20475802425E+03  0.28051016782E+03  0.12500000000E+03 0.  0.
</event>
<event>
 5    0  0.5735425E-005  0.2629758E+03  0.7546771E-02  0.1105368E+00
         21   -1    0    0  502  501  0.00000000000E+00  0.00000000000E+00  0.28824653379E+03  0.28824653379E+03  0.00000000000E+00 0.  1.
         21   -1    0    0  501  502 -0.00000000000E+00 -0.00000000000E+00 -0.23992062942E+03  0.23992062942E+03  0.00000000000E+00 0.  1.
         25    1    1    2    0    0 -0.28359653871E+02  0.27778913307E+02  0.94802102368E+02  0.16182823179E+03  0.12500000000E+03 0.  0.
         25    1    1    2    0    0 -0.32326616915E+02  0.76054774533E+01  0.98392724938E+02  0.16250840523E+03  0.12500000000E+03 0.  0.
         25    1    1    2    0    0  0.60686270786E+02 -0.35384390761E+02 -0.14486892294E+03  0.20383052619E+03  0.12500000000E+03 0.  0.
</event>
<event>
 5    0  0.5735425E-005  0.2487816E+03  0.7546771E-02  0.1114077E+00
         21   -1    0    0  502  501  0.00000000000E+00  0.00000000000E+00  0.71528806205E+03  0.71528806205E+03  0.00000000000E+00 0.  1.
         21   -1    0    0  501  502 -0.00000000000E+00 -0.00000000000E+00 -0.86527767449E+02  0.86527767449E+02  0.00000000000E+00 0.  1.
         25    1    1    2    0    0 -0.10875284542E+02  0.80940100499E+02  0.11001216908E+03  0.18546495364E+03  0.12500000000E+03 0.  0.
         25    1    1    2    0    0 -0.21195040615E+02 -0.13020512022E+03  0.37652058949E+03  0.41808534701E+03  0.12500000000E+03 0.  0.
         25    1    1    2    0    0  0.32070325157E+02  0.49265019717E+02  0.14222753603E+03  0.19826552885E+03  0.12500000000E+03 0.  0.
</event>
<event>
 5    0  0.5735425E-005  0.4423381E+03  0.7546771E-02  0.1030032E+00
         21   -1    0    0  502  501  0.00000000000E+00  0.00000000000E+00  0.47207346167E+03  0.47207346167E+03  0.00000000000E+00 0. -1.
         21   -1    0    0  501  502 -0.00000000000E+00 -0.00000000000E+00 -0.41447580082E+03  0.41447580082E+03  0.00000000000E+00 0. -1.
         25    1    1    2    0    0 -0.83997430959E+01  0.47281032746E+02  0.18852787647E+02  0.13522750957E+03  0.12500000000E+03 0.  0.
         25    1    1    2    0    0  0.24873718276E+03  0.59785042346E+02  0.25996295903E+03  0.38555178309E+03  0.12500000000E+03 0.  0.
         25    1    1    2    0    0 -0.24033743966E+03 -0.10706607509E+03 -0.22121808583E+03  0.36576996984E+03  0.12500000000E+03 0.  0.
</event>
<event>
 5    0  0.5735425E-005  0.2022560E+03  0.7546771E-02  0.1147849E+00
         21   -1    0    0  502  501  0.00000000000E+00  0.00000000000E+00  0.69799007472E+03  0.69799007472E+03  0.00000000000E+00 0. -1.
         21   -1    0    0  501  502 -0.00000000000E+00 -0.00000000000E+00 -0.58607540349E+02  0.58607540349E+02  0.00000000000E+00 0. -1.
         25    1    1    2    0    0 -0.30259044363E+02 -0.39977340414E+02  0.29544063306E+03  0.32469056835E+03  0.12500000000E+03 0.  0.
         25    1    1    2    0    0  0.37313443785E+02  0.13935705507E+02  0.14635127505E+03  0.19654565038E+03  0.12500000000E+03 0.  0.
         25    1    1    2    0    0 -0.70543994220E+01  0.26041634907E+02  0.19759062627E+03  0.23536139635E+03  0.12500000000E+03 0.  0.
</event>
<event>
 5    0  0.5735425E-005  0.5236405E+03  0.7546771E-02  0.1007786E+00
         21   -1    0    0  502  501  0.00000000000E+00  0.00000000000E+00  0.10890034409E+04  0.10890034409E+04  0.00000000000E+00 0. -1.
         21   -1    0    0  501  502 -0.00000000000E+00 -0.00000000000E+00 -0.25178926989E+03  0.25178926989E+03  0.00000000000E+00 0. -1.
         25    1    1    2    0    0  0.18187904939E+03 -0.10998094223E+03  0.10206419767E+03  0.26686681455E+03  0.12500000000E+03 0.  0.
         25    1    1    2    0    0 -0.36729743107E+03  0.25097770236E+03  0.64738497042E+03  0.79538010402E+03  0.12500000000E+03 0.  0.
         25    1    1    2    0    0  0.18541838168E+03 -0.14099676013E+03  0.87765002949E+02  0.27854579224E+03  0.12500000000E+03 0.  0.
</event>
<event>
 5    0  0.5735425E-005  0.2132862E+03  0.7546771E-02  0.1138990E+00
         21   -1    0    0  502  501  0.00000000000E+00  0.00000000000E+00  0.80246906058E+03  0.80246906058E+03  0.00000000000E+00 0. -1.
         21   -1    0    0  501  502 -0.00000000000E+00 -0.00000000000E+00 -0.56688777175E+02  0.56688777175E+02  0.00000000000E+00 0. -1.
         25    1    1    2    0    0 -0.25880802189E+02  0.40083757552E+02  0.15502693021E+03  0.20478005917E+03  0.12500000000E+03 0.  0.
         25    1    1    2    0    0  0.62086165387E+02 -0.33570832863E+02  0.38439451350E+03  0.41032406067E+03  0.12500000000E+03 0.  0.
         25    1    1    2    0    0 -0.36205363197E+02 -0.65129246890E+01  0.20635883969E+03  0.24405371792E+03  0.12500000000E+03 0.  0.
</event>
<event>
 5    0  0.5735425E-005  0.2855891E+03  0.7546771E-02  0.1092675E+00
         21   -1    0    0  502  501  0.00000000000E+00  0.00000000000E+00  0.33358550349E+02  0.33358550349E+02  0.00000000000E+00 0. -1.
         21   -1    0    0  501  502 -0.00000000000E+00 -0.00000000000E+00 -0.24449846671E+04  0.24449846671E+04  0.00000000000E+00 0. -1.
         25    1    1    2    0    0 -0.97663180374E+00  0.12911307349E+03 -0.83455808953E+03  0.85368808376E+03  0.12500000000E+03 0.  0.
         25    1    1    2    0    0 -0.56863041771E+02 -0.12458843747E+03 -0.13201815957E+04  0.13331392012E+04  0.12500000000E+03 0.  0.
         25    1    1    2    0    0  0.57839673575E+02 -0.45246360145E+01 -0.25688643154E+03  0.29151593246E+03  0.12500000000E+03 0.  0.
</event>
<event>
 5    0  0.5735425E-005  0.3166035E+03  0.7546771E-02  0.1077223E+00
         21   -1    0    0  502  501  0.00000000000E+00  0.00000000000E+00  0.19814523627E+03  0.19814523627E+03  0.00000000000E+00 0.  1.
         21   -1    0    0  501  502 -0.00000000000E+00 -0.00000000000E+00 -0.50588043005E+03  0.50588043005E+03  0.00000000000E+00 0.  1.
         25    1    1    2    0    0 -0.25291837318E+02  0.58003651166E+02 -0.33273874232E+03  0.36103209168E+03  0.12500000000E+03 0.  0.
         25    1    1    2    0    0 -0.18967696309E+02  0.55410395833E+02  0.80615586612E+02  0.15985605486E+03  0.12500000000E+03 0.  0.
         25    1    1    2    0    0  0.44259533627E+02 -0.11341404700E+03 -0.55612038077E+02  0.18313751978E+03  0.12500000000E+03 0.  0.
</event>
<event>
 5    0  0.5735425E-005  0.2196862E+03  0.7546771E-02  0.1134117E+00
         21   -1    0    0  502  501  0.00000000000E+00  0.00000000000E+00  0.13759552853E+04  0.13759552853E+04  0.00000000000E+00 0. -1.
         21   -1    0    0  501  502 -0.00000000000E+00 -0.00000000000E+00 -0.35075280814E+02  0.35075280814E+02  0.00000000000E+00 0. -1.
         25    1    1    2    0    0 -0.62207386162E+01  0.58099344986E+01  0.42747099728E+03  0.44545359628E+03  0.12500000000E+03 0.  0.
         25    1    1    2    0    0 -0.31967497624E+02  0.78150607620E+02  0.34954274058E+03  0.38070272637E+03  0.12500000000E+03 0.  0.
         25    1    1    2    0    0  0.38188236240E+02 -0.83960542119E+02  0.56386626664E+03  0.58487424347E+03  0.12500000000E+03 0.  0.
</event>
<event>
 5    0  0.5735425E-005  0.3102907E+03  0.7546771E-02  0.1080207E+00
         21   -1    0    0  502  501  0.00000000000E+00  0.00000000000E+00  0.15200675559E+03  0.15200675559E+03  0.00000000000E+00 0.  1.
         21   -1    0    0  501  502 -0.00000000000E+00 -0.00000000000E+00 -0.63339514071E+03  0.63339514071E+03  0.00000000000E+00 0.  1.
         25    1    1    2    0    0  0.86078231949E+02  0.64656381111E+02 -0.68332133305E+02  0.17856144622E+03  0.12500000000E+03 0.  0.
         25    1    1    2    0    0 -0.10438405641E+03  0.10438228356E+03 -0.32492840063E+03  0.37814700566E+03  0.12500000000E+03 0.  0.
         25    1    1    2    0    0  0.18305824462E+02 -0.16903866467E+03 -0.88127851182E+02  0.22869344441E+03  0.12500000000E+03 0.  0.
</event>
<event>
 5    0  0.5856437E-005  0.3347213E+03  0.7546771E-02  0.1069067E+00
         21   -1    0    0  502  501  0.00000000000E+00  0.00000000000E+00  0.32951651564E+03  0.32951651564E+03  0.00000000000E+00 0. -1.
         21   -1    0    0  501  502 -0.00000000000E+00 -0.00000000000E+00 -0.34000825266E+03  0.34000825266E+03  0.00000000000E+00 0. -1.
         25    1    1    2    0    0  0.72478374121E+02  0.89170008708E+02 -0.15403119288E+03  0.22924880272E+03  0.12500000000E+03 0.  0.
         25    1    1    2    0    0 -0.18479916660E+03 -0.76622152333E+02  0.13443196054E+03  0.27151176442E+03  0.12500000000E+03 0.  0.
         25    1    1    2    0    0  0.11232079248E+03 -0.12547856375E+02  0.91074953257E+01  0.16876420116E+03  0.12500000000E+03 0.  0.
</event>
<event>
 5    0  0.7945715E-005  0.2859461E+03  0.7546771E-02  0.1092485E+00
         21   -1    0    0  502  501  0.00000000000E+00  0.00000000000E+00  0.66645922968E+03  0.66645922968E+03  0.00000000000E+00 0. -1.
         21   -1    0    0  501  502 -0.00000000000E+00 -0.00000000000E+00 -0.12268589896E+03  0.12268589896E+03  0.00000000000E+00 0. -1.
         25    1    1    2    0    0 -0.92625783342E+02  0.12440184489E+03  0.88163480897E+02  0.21783744884E+03  0.12500000000E+03 0.  0.
         25    1    1    2    0    0 -0.35036224697E+02 -0.80593201215E+02  0.26835579812E+03  0.30880841230E+03  0.12500000000E+03 0.  0.
         25    1    1    2    0    0  0.12766200804E+03 -0.43808643675E+02  0.18725405170E+03  0.26249926749E+03  0.12500000000E+03 0.  0.
</event>
<event>
 5    0  0.5735425E-005  0.2905729E+03  0.7546771E-02  0.1090050E+00
         21   -1    0    0  502  501  0.00000000000E+00  0.00000000000E+00  0.18712374925E+04  0.18712374925E+04  0.00000000000E+00 0. -1.
         21   -1    0    0  501  502 -0.00000000000E+00 -0.00000000000E+00 -0.45121258273E+02  0.45121258273E+02  0.00000000000E+00 0. -1.
         25    1    1    2    0    0  0.19169850206E+02 -0.30511206072E+02  0.95975651302E+02  0.16166243378E+03  0.12500000000E+03 0.  0.
         25    1    1    2    0    0 -0.29409083554E+02  0.62954744854E+02  0.58393985224E+03  0.60119792509E+03  0.12500000000E+03 0.  0.
         25    1    1    2    0    0  0.10239233349E+02 -0.32443538782E+02  0.11462007307E+04  0.11534983919E+04  0.12500000000E+03 0.  0.
</event>
<event>
 5    0  0.5735425E-005  0.2904942E+03  0.7546771E-02  0.1090091E+00
         21   -1    0    0  502  501  0.00000000000E+00  0.00000000000E+00  0.14199177031E+03  0.14199177031E+03  0.00000000000E+00 0.  1.
         21   -1    0    0  501  502 -0.00000000000E+00 -0.00000000000E+00 -0.59430830600E+03  0.59430830600E+03  0.00000000000E+00 0.  1.
         25    1    1    2    0    0 -0.74844611642E+02 -0.61450603772E+02 -0.24260522592E+03  0.28958623628E+03  0.12500000000E+03 0.  0.
         25    1    1    2    0    0  0.14108017279E+03 -0.36451460315E+01 -0.22111397392E+03  0.29057407267E+03  0.12500000000E+03 0.  0.
         25    1    1    2    0    0 -0.66235561144E+02  0.65095749804E+02  0.11402664149E+02  0.15613976736E+03  0.12500000000E+03 0.  0.
</event>
<event>
 5    0  0.5735425E-005  0.3642522E+03  0.7546771E-02  0.1056913E+00
         21   -1    0    0  502  501  0.00000000000E+00  0.00000000000E+00  0.10184384081E+04  0.10184384081E+04  0.00000000000E+00 0.  1.
         21   -1    0    0  501  502 -0.00000000000E+00 -0.00000000000E+00 -0.13027755316E+03  0.13027755316E+03  0.00000000000E+00 0.  1.
         25    1    1    2    0    0 -0.73186771453E+02 -0.78361575748E+01  0.61540717246E+02  0.15757527966E+03  0.12500000000E+03 0.  0.
         25    1    1    2    0    0  0.18219396000E+03  0.11008878078E+03  0.15420198975E+03  0.29106259183E+03  0.12500000000E+03 0.  0.
         25    1    1    2    0    0 -0.10900718855E+03 -0.10225262321E+03  0.67241814795E+03  0.70007808979E+03  0.12500000000E+03 0.  0.
</event>
<event>
 5    0  0.6150739E-005  0.2862632E+03  0.7546771E-02  0.1092316E+00
         21   -1    0    0  502  501  0.00000000000E+00  0.00000000000E+00  0.33848667678E+03  0.33848667678E+03  0.00000000000E+00 0.  1.
         21   -1    0    0  501  502 -0.00000000000E+00 -0.00000000000E+00 -0.24209699295E+03  0.24209699295E+03  0.00000000000E+00 0.  1.
         25    1    1    2    0    0  0.16797798108E+02 -0.10220202082E+03  0.20740220382E+03  0.26337823227E+03  0.12500000000E+03 0.  0.
         25    1    1    2    0    0  0.43396364706E+02  0.67030086774E+02 -0.25574353224E+02  0.15051685801E+03  0.12500000000E+03 0.  0.
         25    1    1    2    0    0 -0.60194162813E+02  0.35171934047E+02 -0.85438166768E+02  0.16668857946E+03  0.12500000000E+03 0.  0.
</event>
<event>
 5    0  0.5735425E-005  0.3506843E+03  0.7546771E-02  0.1062335E+00
         21   -1    0    0  502  501  0.00000000000E+00  0.00000000000E+00  0.54890236778E+03  0.54890236778E+03  0.00000000000E+00 0. -1.
         21   -1    0    0  501  502 -0.00000000000E+00 -0.00000000000E+00 -0.22404618101E+03  0.22404618101E+03  0.00000000000E+00 0. -1.
         25    1    1    2    0    0  0.84864675357E+02  0.28598330728E+00  0.23102073238E+03  0.27603926116E+03  0.12500000000E+03 0.  0.
         25    1    1    2    0    0 -0.11137882453E+03  0.14259473797E+03 -0.84021598149E+02  0.23542117748E+03  0.12500000000E+03 0.  0.
         25    1    1    2    0    0  0.26514149172E+02 -0.14288072128E+03  0.17785705253E+03  0.26148811015E+03  0.12500000000E+03 0.  0.
</event>
<event>
 5    0  0.5735425E-005  0.2783863E+03  0.7546771E-02  0.1096574E+00
         21   -1    0    0  502  501  0.00000000000E+00  0.00000000000E+00  0.27330972566E+03  0.27330972566E+03  0.00000000000E+00 0. -1.
         21   -1    0    0  501  502 -0.00000000000E+00 -0.00000000000E+00 -0.28355712620E+03  0.28355712620E+03  0.00000000000E+00 0. -1.
         25    1    1    2    0    0  0.12567774119E+03  0.55147808294E+02 -0.17706575345E+02  0.18647975279E+03  0.12500000000E+03 0.  0.
         25    1    1    2    0    0 -0.73840342407E+00 -0.38600562946E+02 -0.98409156603E+02  0.16370678301E+03  0.12500000000E+03 0.  0.
         25    1    1    2    0    0 -0.12493933777E+03 -0.16547245348E+02  0.10586833142E+03  0.20668031606E+03  0.12500000000E+03 0.  0.
</event>
<event>
 5    0  0.5735425E-005  0.2766784E+03  0.7546771E-02  0.1097517E+00
         21   -1    0    0  502  501  0.00000000000E+00  0.00000000000E+00  0.26616516414E+04  0.26616516414E+04  0.00000000000E+00 0. -1.
         21   -1    0    0  501  502 -0.00000000000E+00 -0.00000000000E+00 -0.28760680513E+02  0.28760680513E+02  0.00000000000E+00 0. -1.
         25    1    1    2    0    0  0.59498805242E+02  0.15046710802E+02  0.34667625128E+03  0.37359862758E+03  0.12500000000E+03 0.  0.
         25    1    1    2    0    0 -0.10335185036E+03 -0.10834514779E+03  0.15939715128E+04  0.16058612829E+04  0.12500000000E+03 0.  0.
         25    1    1    2    0    0  0.43853045117E+02  0.93298436991E+02  0.69224319676E+03  0.71095241147E+03  0.12500000000E+03 0.  0.
</event>
<event>
 5    0  0.5735425E-005  0.2302881E+03  0.7546771E-02  0.1126437E+00
         21   -1    0    0  502  501  0.00000000000E+00  0.00000000000E+00  0.35343752307E+03  0.35343752307E+03  0.00000000000E+00 0.  1.
         21   -1    0    0  501  502 -0.00000000000E+00 -0.00000000000E+00 -0.15004805958E+03  0.15004805958E+03  0.00000000000E+00 0.  1.
         25    1    1    2    0    0  0.80430783777E+01  0.83564073054E+02  0.60276169840E+01  0.15069498194E+03  0.12500000000E+03 0.  0.
         25    1    1    2    0    0 -0.39097339232E+01 -0.10463932877E+03  0.13375518072E+03  0.21090311405E+03  0.12500000000E+03 0.  0.
         25    1    1    2    0    0 -0.41333444545E+01  0.21075255711E+02  0.63606665789E+02  0.14188748667E+03  0.12500000000E+03 0.  0.
</event>
<event>
 5    0  0.5735425E-005  0.2797256E+03  0.7546771E-02  0.1095839E+00
         21   -1    0    0  502  501  0.00000000000E+00  0.00000000000E+00  0.38540662205E+03  0.38540662205E+03  0.00000000000E+00 0.  1.
         21   -1    0    0  501  502 -0.00000000000E+00 -0.00000000000E+00 -0.20302306376E+03  0.20302306376E+03  0.00000000000E+00 0.  1.
         25    1    1    2    0    0  0.38901305079E+02 -0.26679649536E+02  0.23007648252E+03  0.26605507521E+03  0.12500000000E+03 0.  0.
         25    1    1    2    0    0  0.35682646208E+01  0.98496057993E+02 -0.63240981631E+02  0.17128522327E+03  0.12500000000E+03 0.  0.
         25    1    1    2    0    0 -0.42469569700E+02 -0.71816408457E+02  0.15548057405E+02  0.15108938733E+03  0.12500000000E+03 0.  0.
</event>
<event>
 5    0  0.5735425E-005  0.2686848E+03  0.7546771E-02  0.1102035E+00
         21   -1    0    0  502  501  0.00000000000E+00  0.00000000000E+00  0.99016643643E+03  0.99016643643E+03  0.00000000000E+00 0. -1.
         21   -1    0    0  501  502 -0.00000000000E+00 -0.00000000000E+00 -0.72908461844E+02  0.72908461844E+02  0.00000000000E+00 0. -1.
         25    1    1    2    0    0  0.20097005612E+02 -0.10238077254E+03  0.17826619602E+03  0.24143228629E+03  0.12500000000E+03 0.  0.
         25    1    1    2    0    0 -0.36706309292E+02  0.15041913591E+03  0.57956505169E+03  0.61277558594E+03  0.12500000000E+03 0.  0.
         25    1    1    2    0    0  0.16609303680E+02 -0.48038363370E+02  0.15942672688E+03  0.20886702604E+03  0.12500000000E+03 0.  0.
</event>
<event>
 5    0  0.5735425E-005  0.2639695E+03  0.7546771E-02  0.1104781E+00
         21   -1    0    0  502  501  0.00000000000E+00  0.00000000000E+00  0.16203137271E+04  0.16203137271E+04  0.00000000000E+00 0. -1.
         21   -1    0    0  501  502 -0.00000000000E+00 -0.00000000000E+00 -0.43003950607E+02  0.43003950607E+02  0.00000000000E+00 0. -1.
         25    1    1    2    0    0 -0.86920421270E+01 -0.48139334109E+02  0.31252234433E+03  0.34012962646E+03  0.12500000000E+03 0.  0.
         25    1    1    2    0    0  0.10346061868E+03 -0.59238279971E+02  0.36868799197E+03  0.40714752714E+03  0.12500000000E+03 0.  0.
         25    1    1    2    0    0 -0.94768576557E+02  0.10737761408E+03  0.89609944018E+03  0.91604052410E+03  0.12500000000E+03 0.  0.
</event>
<event>
 5    0  0.5735425E-005  0.3253275E+03  0.7546771E-02  0.1073223E+00
         21   -1    0    0  502  501  0.00000000000E+00  0.00000000000E+00  0.14641024968E+03  0.14641024968E+03  0.00000000000E+00 0. -1.
         21   -1    0    0  501  502 -0.00000000000E+00 -0.00000000000E+00 -0.72288621758E+03  0.72288621758E+03  0.00000000000E+00 0. -1.
         25    1    1    2    0    0 -0.54470934742E+01 -0.24041417373E+03 -0.24246427864E+03  0.36365171823E+03  0.12500000000E+03 0.  0.
         25    1    1    2    0    0 -0.19141935672E+02  0.21541302029E+03 -0.21821473346E+03  0.33168034749E+03  0.12500000000E+03 0.  0.
         25    1    1    2    0    0  0.24589029146E+02  0.25001153435E+02 -0.11579695580E+03  0.17396440153E+03  0.12500000000E+03 0.  0.
</event>
<event>
 5    0  0.5735425E-005  0.4675390E+03  0.7546771E-02  0.1022617E+00
         21   -1    0    0  502  501  0.00000000000E+00  0.00000000000E+00  0.22530288110E+03  0.22530288110E+03  0.00000000000E+00 0. -1.
         21   -1    0    0  501  502 -0.00000000000E+00 -0.00000000000E+00 -0.97021727849E+03  0.97021727849E+03  0.00000000000E+00 0. -1.
         25    1    1    2    0    0  0.13977863890E+03 -0.92052496057E+02 -0.81426533736E+03  0.84063355247E+03  0.12500000000E+03 0.  0.
         25    1    1    2    0    0 -0.63691393122E+02  0.81978467282E+02  0.11748170858E+03  0.20050938758E+03  0.12500000000E+03 0.  0.
         25    1    1    2    0    0 -0.76087245775E+02  0.10074028775E+02 -0.48130768610E+02  0.15437721954E+03  0.12500000000E+03 0.  0.
</event>
<event>
 5    0  0.5735425E-005  0.2605266E+03  0.7546771E-02  0.1106827E+00
         21   -1    0    0  502  501  0.00000000000E+00  0.00000000000E+00  0.35203980666E+03  0.35203980666E+03  0.00000000000E+00 0. -1.
         21   -1    0    0  501  502 -0.00000000000E+00 -0.00000000000E+00 -0.19280241901E+03  0.19280241901E+03  0.00000000000E+00 0. -1.
         25    1    1    2    0    0  0.10988817942E+03  0.55521089619E+02  0.67203128220E+02  0.18788098310E+03  0.12500000000E+03 0.  0.
         25    1    1    2    0    0  0.37989932605E+02 -0.38557813383E+02 -0.11559358000E+02  0.13670610341E+03  0.12500000000E+03 0.  0.
         25    1    1    2    0    0 -0.14787811202E+03 -0.16963276236E+02  0.10359361743E+03  0.22025513916E+03  0.12500000000E+03 0.  0.
</event>
<event>
 5    0  0.5735425E-005  0.2494465E+03  0.7546771E-02  0.1113655E+00
         21   -1    0    0  502  501  0.00000000000E+00  0.00000000000E+00  0.30034329059E+03  0.30034329059E+03  0.00000000000E+00 0. -1.
         21   -1    0    0  501  502 -0.00000000000E+00 -0.00000000000E+00 -0.20717471070E+03  0.20717471070E+03  0.00000000000E+00 0. -1.
         25    1    1    2    0    0 -0.48364066953E+02  0.24740193064E+02 -0.84441612206E+02  0.16033261052E+03  0.12500000000E+03 0.  0.
         25    1    1    2    0    0 -0.47433200879E+02 -0.42505762242E+01  0.47730492719E+02  0.14202526493E+03  0.12500000000E+03 0.  0.
         25    1    1    2    0    0  0.95797267832E+02 -0.20489616840E+02  0.12987969938E+03  0.20516012584E+03  0.12500000000E+03 0.  0.
</event>
<event>
 5    0  0.5735425E-005  0.4061540E+03  0.7546771E-02  0.1041669E+00
         21   -1    0    0  502  501  0.00000000000E+00  0.00000000000E+00  0.18687184760E+03  0.18687184760E+03  0.00000000000E+00 0.  1.
         21   -1    0    0  501  502 -0.00000000000E+00 -0.00000000000E+00 -0.88274953190E+03  0.88274953190E+03  0.00000000000E+00 0.  1.
         25    1    1    2    0    0 -0.48415152080E+01 -0.29609565918E+03 -0.21575858220E+03  0.38713414399E+03  0.12500000000E+03 0.  0.
         25    1    1    2    0    0  0.11369357565E+03  0.26729358762E+03 -0.32926090364E+03  0.45651925895E+03  0.12500000000E+03 0.  0.
         25    1    1    2    0    0 -0.10885206044E+03  0.28802071553E+02 -0.15085819845E+03  0.22596797656E+03  0.12500000000E+03 0.  0.
</event>
<event>
 5    0  0.5735425E-005  0.3432597E+03  0.7546771E-02  0.1065416E+00
         21   -1    0    0  502  501  0.00000000000E+00  0.00000000000E+00  0.28188899529E+03  0.28188899529E+03  0.00000000000E+00 0. -1.
         21   -1    0    0  501  502 -0.00000000000E+00 -0.00000000000E+00 -0.41799161627E+03  0.41799161627E+03  0.00000000000E+00 0. -1.
         25    1    1    2    0    0 -0.10937933070E+03  0.70567151218E+02  0.12081937272E+03  0.21717707438E+03  0.12500000000E+03 0.  0.
         25    1    1    2    0    0  0.10544832396E+03  0.28764745687E+01  0.25193650352E+02  0.16549121774E+03  0.12500000000E+03 0.  0.
         25    1    1    2    0    0  0.39310067372E+01 -0.73443625787E+02 -0.28211564405E+03  0.31721231943E+03  0.12500000000E+03 0.  0.
</event>
<event>
 5    0  0.5735425E-005  0.2475984E+03  0.7546771E-02  0.1114832E+00
         21   -1    0    0  502  501  0.00000000000E+00  0.00000000000E+00  0.92673274921E+02  0.92673274921E+02  0.00000000000E+00 0.  1.
         21   -1    0    0  501  502 -0.00000000000E+00 -0.00000000000E+00 -0.66151699003E+03  0.66151699003E+03  0.00000000000E+00 0.  1.
         25    1    1    2    0    0 -0.10341744582E+02 -0.13509527093E+03 -0.29179522380E+03  0.34514799223E+03  0.12500000000E+03 0.  0.
         25    1    1    2    0    0 -0.82082732190E+01  0.11880985161E+03 -0.14394943660E+03  0.22478789311E+03  0.12500000000E+03 0.  0.
         25    1    1    2    0    0  0.18550017801E+02  0.16285419318E+02 -0.13309905471E+03  0.18425437962E+03  0.12500000000E+03 0.  0.
</event>
<event>
 5    0  0.5735425E-005  0.3646329E+03  0.7546771E-02  0.1056764E+00
         21   -1    0    0  502  501  0.00000000000E+00  0.00000000000E+00  0.16265713684E+03  0.16265713684E+03  0.00000000000E+00 0.  1.
         21   -1    0    0  501  502 -0.00000000000E+00 -0.00000000000E+00 -0.81740728150E+03  0.81740728150E+03  0.00000000000E+00 0.  1.
         25    1    1    2    0    0  0.10617953089E+03  0.29144878939E+02  0.32740764473E+02  0.16976594006E+03  0.12500000000E+03 0.  0.
         25    1    1    2    0    0 -0.16491755130E+03 -0.47108222310E+02 -0.62041696876E+03  0.65571274081E+03  0.12500000000E+03 0.  0.
         25    1    1    2    0    0  0.58738020411E+02  0.17963343371E+02 -0.67073940370E+02  0.15458573745E+03  0.12500000000E+03 0.  0.
</event>
<event>
 5    0  0.5735425E-005  0.2630459E+03  0.7546771E-02  0.1105327E+00
         21   -1    0    0  502  501  0.00000000000E+00  0.00000000000E+00  0.35443339807E+02  0.35443339807E+02  0.00000000000E+00 0.  1.
         21   -1    0    0  501  502 -0.00000000000E+00 -0.00000000000E+00 -0.19522189826E+04  0.19522189826E+04  0.00000000000E+00 0.  1.
         25    1    1    2    0    0  0.45532082041E+02 -0.62178985399E+02 -0.20900017201E+03  0.25543192561E+03  0.12500000000E+03 0.  0.
         25    1    1    2    0    0  0.97286898581E+01 -0.15809282158E+01 -0.10459846538E+04  0.10534733232E+04  0.12500000000E+03 0.  0.
         25    1    1    2    0    0 -0.55260771899E+02  0.63759913615E+02 -0.66179081700E+03  0.67875707360E+03  0.12500000000E+03 0.  0.
</event>
<event>
 5    0  0.5735425E-005  0.3280043E+03  0.7546771E-02  0.1072023E+00
         21   -1    0    0  502  501  0.00000000000E+00  0.00000000000E+00  0.21312037398E+03  0.21312037398E+03  0.00000000000E+00 0.  1.
         21   -1    0    0  501  502 -0.00000000000E+00 -0.00000000000E+00 -0.50481720990E+03  0.50481720990E+03  0.00000000000E+00 0.  1.
         25    1    1    2    0    0 -0.78022537511E+02 -0.10786252422E+03 -0.24993630822E+03  0.30953997909E+03  0.12500000000E+03 0.  0.
         25    1    1    2    0    0  0.16282038539E+03  0.21363296983E+02  0.48968797294E+02  0.21210801839E+03  0.12500000000E+03 0.  0.
         25    1    1    2    0    0 -0.84797847877E+02  0.86499227239E+02 -0.90729324994E+02  0.19628958641E+03  0.12500000000E+03 0.  0.
</event>
<event>
 5    0  0.5735425E-005  0.3094981E+03  0.7546771E-02  0.1080587E+00
         21   -1    0    0  502  501  0.00000000000E+00  0.00000000000E+00  0.19577560769E+04  0.19577560769E+04  0.00000000000E+00 0. -1.
         21   -1    0    0  501  502 -0.00000000000E+00 -0.00000000000E+00 -0.48927992838E+02  0.48927992838E+02  0.00000000000E+00 0. -1.
         25    1    1    2    0    0  0.14170412738E+03 -0.85609531266E+02  0.72169997372E+03  0.75092270150E+03  0.12500000000E+03 0.  0.
         25    1    1    2    0    0 -0.73510472645E+02 -0.50090820690E+02  0.21616945877E+03  0.26507945000E+03  0.12500000000E+03 0.  0.
         25    1    1    2    0    0 -0.68193654733E+02  0.13570035196E+03  0.97095865158E+03  0.99068191825E+03  0.12500000000E+03 0.  0.
</event>
<event>
 5    0  0.5735425E-005  0.2960170E+03  0.7546771E-02  0.1087249E+00
         21   -1    0    0  502  501  0.00000000000E+00  0.00000000000E+00  0.18426633563E+03  0.18426633563E+03  0.00000000000E+00 0.  1.
         21   -1    0    0  501  502 -0.00000000000E+00 -0.00000000000E+00 -0.47554040242E+03  0.47554040242E+03  0.00000000000E+00 0.  1.
         25    1    1    2    0    0 -0.16023267057E+02  0.17669254653E+03 -0.96782418815E+02  0.23763172700E+03  0.12500000000E+03 0.  0.
         25    1    1    2    0    0 -0.47232297848E+02 -0.18112359903E+03 -0.16463599215E+03  0.27886673878E+03  0.12500000000E+03 0.  0.
         25    1    1    2    0    0  0.63255564905E+02  0.44310525038E+01 -0.29855655833E+02  0.14330827228E+03  0.12500000000E+03 0.  0.
</event>
<event>
 5    0  0.5735425E-005  0.3607724E+03  0.7546771E-02  0.1058278E+00
         21   -1    0    0  502  501  0.00000000000E+00  0.00000000000E+00  0.15930263784E+04  0.15930263784E+04  0.00000000000E+00 0. -1.
         21   -1    0    0  501  502 -0.00000000000E+00 -0.00000000000E+00 -0.81704048859E+02  0.81704048859E+02  0.00000000000E+00 0. -1.
         25    1    1    2    0    0 -0.10045369403E+03  0.12043895999E+03  0.63936699313E+03  0.67008330797E+03  0.12500000000E+03 0.  0.
         25    1    1    2    0    0 -0.14600750486E+03 -0.10417660350E+03  0.32600286208E+03  0.39252238443E+03  0.12500000000E+03 0.  0.
         25    1    1    2    0    0  0.24646119889E+03 -0.16262356490E+02  0.54595247434E+03  0.61212473486E+03  0.12500000000E+03 0.  0.
</event>
<event>
 5    0  0.6272175E-005  0.5711646E+03  0.7546771E-02  0.9967105E-01
         21   -1    0    0  502  501  0.00000000000E+00  0.00000000000E+00  0.46393479088E+03  0.46393479088E+03  0.00000000000E+00 0.  1.
         21   -1    0    0  501  502 -0.00000000000E+00 -0.00000000000E+00 -0.70317854497E+03  0.70317854497E+03  0.00000000000E+00 0.  1.
         25    1    1    2    0    0 -0.38693407837E+03  0.33832971362E+01 -0.11677061952E+03  0.42307186776E+03  0.12500000000E+03 0.  0.
         25    1    1    2    0    0  0.65824816258E+02 -0.23939596115E+03  0.66198397079E+02  0.28574562188E+03  0.12500000000E+03 0.  0.
         25    1    1    2    0    0  0.32110926212E+03  0.23601266401E+03 -0.18867153165E+03  0.45829584620E+03  0.12500000000E+03 0.  0.
</event>
<event>
 5    0  0.5735425E-005  0.4553567E+03  0.7546771E-02  0.1026137E+00
         21   -1    0    0  502  501  0.00000000000E+00  0.00000000000E+00  0.15706615807E+04  0.15706615807E+04  0.00000000000E+00 0. -1.
         21   -1    0    0  501  502 -0.00000000000E+00 -0.00000000000E+00 -0.13201426682E+03  0.13201426682E+03  0.00000000000E+00 0. -1.
         25    1    1    2    0    0  0.24280574340E+02  0.26457919975E+03  0.13344700168E+03  0.32252876072E+03  0.12500000000E+03 0.  0.
         25    1    1    2    0    0 -0.80322603623E+02  0.42336908223E+00  0.37871851666E+03  0.40682258388E+03  0.12500000000E+03 0.  0.
         25    1    1    2    0    0  0.56042029284E+02 -0.26500256884E+03  0.92648179551E+03  0.97332450290E+03  0.12500000000E+03 0.  0.
</event>
<event>
 5    0  0.5735425E-005  0.3652270E+03  0.7546771E-02  0.1056533E+00
         21   -1    0    0  502  501  0.00000000000E+00  0.00000000000E+00  0.76160295064E+03  0.76160295064E+03  0.00000000000E+00 0. -1.
         21   -1    0    0  501  502 -0.00000000000E+00 -0.00000000000E+00 -0.17514477502E+03  0.17514477502E+03  0.00000000000E+00 0. -1.
         25    1    1    2    0    0 -0.11600533899E+03 -0.10968352346E+03  0.27168475768E+03  0.33900637390E+03  0.12500000000E+03 0.  0.
         25    1    1    2    0    0 -0.48647444626E+02  0.10676969203E+03 -0.49887263393E+02  0.17854993714E+03  0.12500000000E+03 0.  0.
         25    1    1    2    0    0  0.16465278361E+03  0.29138314334E+01  0.36466068135E+03  0.41919141461E+03  0.12500000000E+03 0.  0.
</event>
<event>
 5    0  0.6188099E-005  0.3253741E+03  0.7546771E-02  0.1073202E+00
         21   -1    0    0  502  501  0.00000000000E+00  0.00000000000E+00  0.58187518998E+03  0.58187518998E+03  0.00000000000E+00 0.  1.
         21   -1    0    0  501  502 -0.00000000000E+00 -0.00000000000E+00 -0.18194332353E+03  0.18194332353E+03  0.00000000000E+00 0.  1.
         25    1    1    2    0    0 -0.14357037584E+03  0.23301439741E+02  0.15608888688E+03  0.24727343270E+03  0.12500000000E+03 0.  0.
         25    1    1    2    0    0  0.22011913256E+03  0.93440788068E+01  0.29765948233E+02  0.25505049696E+03  0.12500000000E+03 0.  0.
         25    1    1    2    0    0 -0.76548756715E+02 -0.32645518547E+02  0.21407703133E+03  0.26149458384E+03  0.12500000000E+03 0.  0.
</event>
<event>
 5    0  0.5735425E-005  0.3074862E+03  0.7546771E-02  0.1081557E+00
         21   -1    0    0  502  501  0.00000000000E+00  0.00000000000E+00  0.30587218572E+03  0.30587218572E+03  0.00000000000E+00 0. -1.
         21   -1    0    0  501  502 -0.00000000000E+00 -0.00000000000E+00 -0.30910866451E+03  0.30910866451E+03  0.00000000000E+00 0. -1.
         25    1    1    2    0    0 -0.79586588877E+02  0.76103304803E+02  0.16093832017E+02  0.16736113515E+03  0.12500000000E+03 0.  0.
         25    1    1    2    0    0  0.17107467798E+03  0.43842610665E+02  0.76543707590E+02  0.22950524859E+03  0.12500000000E+03 0.  0.
         25    1    1    2    0    0 -0.91488089106E+02 -0.11994591547E+03 -0.95874018405E+02  0.21811446649E+03  0.12500000000E+03 0.  0.
</event>
<event>
 5    0  0.5735425E-005  0.3597934E+03  0.7546771E-02  0.1058666E+00
         21   -1    0    0  502  501  0.00000000000E+00  0.00000000000E+00  0.20462098065E+04  0.20462098065E+04  0.00000000000E+00 0. -1.
         21   -1    0    0  501  502 -0.00000000000E+00 -0.00000000000E+00 -0.63263929463E+02  0.63263929463E+02  0.00000000000E+00 0. -1.
         25    1    1    2    0    0  0.19139293735E+03 -0.84648000589E+02  0.38605420425E+03  0.45657353087E+03  0.12500000000E+03 0.  0.
         25    1    1    2    0    0  0.56525162842E+02  0.53478051318E+02  0.55085712895E+03  0.57019608252E+03  0.12500000000E+03 0.  0.
         25    1    1    2    0    0 -0.24791810019E+03  0.31169949271E+02  0.10460345439E+04  0.10827041226E+04  0.12500000000E+03 0.  0.
</event>
<event>
 5    0  0.5735425E-005  0.2905684E+03  0.7546771E-02  0.1090053E+00
         21   -1    0    0  502  501  0.00000000000E+00  0.00000000000E+00  0.28842692135E+04  0.28842692135E+04  0.00000000000E+00 0.  1.
         21   -1    0    0  501  502 -0.00000000000E+00 -0.00000000000E+00 -0.29272581485E+02  0.29272581485E+02  0.00000000000E+00 0.  1.
         25    1    1    2    0    0 -0.54603075013E+02  0.10492715818E+01  0.16545189808E+04  0.16601327220E+04  0.12500000000E+03 0.  0.
         25    1    1    2    0    0  0.90536799854E+02 -0.64635809329E+02  0.32000518013E+03  0.36111357671E+03  0.12500000000E+03 0.  0.
         25    1    1    2    0    0 -0.35933724841E+02  0.63586537748E+02  0.88047247112E+03  0.89229549632E+03  0.12500000000E+03 0.  0.
</event>
<event>
 5    0  0.5735425E-005  0.2565933E+03  0.7546771E-02  0.1109207E+00
         21   -1    0    0  502  501  0.00000000000E+00  0.00000000000E+00  0.18248335019E+03  0.18248335019E+03  0.00000000000E+00 0.  1.
         21   -1    0    0  501  502 -0.00000000000E+00 -0.00000000000E+00 -0.36080069503E+03  0.36080069503E+03  0.00000000000E+00 0.  1.
         25    1    1    2    0    0 -0.74937568977E+02 -0.31754693705E+02 -0.18028270864E+03  0.23398900583E+03  0.12500000000E+03 0.  0.
         25    1    1    2    0    0  0.69819819052E+02 -0.57346965180E+02  0.16005109847E+02  0.15506335831E+03  0.12500000000E+03 0.  0.
         25    1    1    2    0    0  0.51177499250E+01  0.89101658885E+02 -0.14039746045E+02  0.15423168108E+03  0.12500000000E+03 0.  0.
</event>
<event>
 5    0  0.5735425E-005  0.3155601E+03  0.7546771E-02  0.1077711E+00
         21   -1    0    0  502  501  0.00000000000E+00  0.00000000000E+00  0.92640964907E+02  0.92640964907E+02  0.00000000000E+00 0.  1.
         21   -1    0    0  501  502 -0.00000000000E+00 -0.00000000000E+00 -0.10748828895E+04  0.10748828895E+04  0.00000000000E+00 0.  1.
         25    1    1    2    0    0 -0.24800741926E+02 -0.15299951935E+03 -0.20860705637E+03  0.28838487077E+03  0.12500000000E+03 0.  0.
         25    1    1    2    0    0  0.25719320812E+02  0.20078590288E+03 -0.27872520099E+03  0.36645490845E+03  0.12500000000E+03 0.  0.
         25    1    1    2    0    0 -0.91857888649E+00 -0.47786383527E+02 -0.49490966726E+03  0.51268407522E+03  0.12500000000E+03 0.  0.
</event>
<event>
 5    0  0.5735425E-005  0.3133323E+03  0.7546771E-02  0.1078760E+00
         21   -1    0    0  502  501  0.00000000000E+00  0.00000000000E+00  0.64662148178E+03  0.64662148178E+03  0.00000000000E+00 0. -1.
         21   -1    0    0  501  502 -0.00000000000E+00 -0.00000000000E+00 -0.15183089956E+03  0.15183089956E+03  0.00000000000E+00 0. -1.
         25    1    1    2    0    0 -0.33883493552E+02 -0.85874647775E+02  0.24640354833E+02  0.15733624297E+03  0.12500000000E+03 0.  0.
         25    1    1    2    0    0  0.76460878722E+02 -0.83238580957E+02  0.36531435368E+03  0.40231145191E+03  0.12500000000E+03 0.  0.
         25    1    1    2    0    0 -0.42577385170E+02  0.16911322873E+03  0.10483587370E+03  0.23880468646E+03  0.12500000000E+03 0.  0.
</event>
<event>
 5    0  0.5735425E-005  0.3065671E+03  0.7546771E-02  0.1082003E+00
         21   -1    0    0  502  501  0.00000000000E+00  0.00000000000E+00  0.17725002987E+03  0.17725002987E+03  0.00000000000E+00 0.  1.
         21   -1    0    0  501  502 -0.00000000000E+00 -0.00000000000E+00 -0.53023065295E+03  0.53023065295E+03  0.00000000000E+00 0.  1.
         25    1    1    2    0    0 -0.12281329054E+03  0.12649480345E+03 -0.23370758821E+03  0.31832102730E+03  0.12500000000E+03 0.  0.
         25    1    1    2    0    0  0.35653359111E+02  0.45410760420E+02 -0.20932499757E+02  0.13927120565E+03  0.12500000000E+03 0.  0.
         25    1    1    2    0    0  0.87159931429E+02 -0.17190556387E+03 -0.98340535104E+02  0.24988844987E+03  0.12500000000E+03 0.  0.
</event>
<event>
 5    0  0.5735425E-005  0.2603595E+03  0.7546771E-02  0.1106927E+00
         21   -1    0    0  502  501  0.00000000000E+00  0.00000000000E+00  0.30842998186E+03  0.30842998186E+03  0.00000000000E+00 0.  1.
         21   -1    0    0  501  502 -0.00000000000E+00 -0.00000000000E+00 -0.21978106134E+03  0.21978106134E+03  0.00000000000E+00 0.  1.
         25    1    1    2    0    0 -0.71427146068E+02  0.72864471461E+02 -0.20444213327E+02  0.16264696202E+03  0.12500000000E+03 0.  0.
         25    1    1    2    0    0 -0.69321305776E+02 -0.37377013454E+01  0.14125123321E+02  0.14367996713E+03  0.12500000000E+03 0.  0.
         25    1    1    2    0    0  0.14074845184E+03 -0.69126770116E+02  0.94968010530E+02  0.22188411405E+03  0.12500000000E+03 0.  0.
</event>
<event>
 5    0  0.5735425E-005  0.3862160E+03  0.7546771E-02  0.1048660E+00
         21   -1    0    0  502  501  0.00000000000E+00  0.00000000000E+00  0.33351014987E+03  0.33351014987E+03  0.00000000000E+00 0. -1.
         21   -1    0    0  501  502 -0.00000000000E+00 -0.00000000000E+00 -0.44725104907E+03  0.44725104907E+03  0.00000000000E+00 0. -1.
         25    1    1    2    0    0  0.53300399223E+02 -0.80787553670E+02  0.25315416919E+03  0.29846204912E+03  0.12500000000E+03 0.  0.
         25    1    1    2    0    0 -0.57336403769E+02  0.66741210397E+02 -0.88143378352E+02  0.17645426464E+03  0.12500000000E+03 0.  0.
         25    1    1    2    0    0  0.40360045464E+01  0.14046343272E+02 -0.27875169004E+03  0.30584488518E+03  0.12500000000E+03 0.  0.
</event>
<event>
 5    0  0.5735425E-005  0.3321972E+03  0.7546771E-02  0.1070169E+00
         21   -1    0    0  502  501  0.00000000000E+00  0.00000000000E+00  0.35450923318E+03  0.35450923318E+03  0.00000000000E+00 0.  1.
         21   -1    0    0  501  502 -0.00000000000E+00 -0.00000000000E+00 -0.31128939906E+03  0.31128939906E+03  0.00000000000E+00 0. -1.
         25    1    1    2    0    0 -0.18990088581E+03 -0.72410980099E+02  0.14146568269E+03  0.27738643775E+03  0.12500000000E+03 0.  0.
         25    1    1    2    0    0  0.62959661113E+02  0.12436099723E+03 -0.73740148749E+02  0.20122670324E+03  0.12500000000E+03 0.  0.
         25    1    1    2    0    0  0.12694122469E+03 -0.51950017134E+02 -0.24505699821E+02  0.18718549124E+03  0.12500000000E+03 0.  0.
</event>
<event>
 5    0  0.5735425E-005  0.3824176E+03  0.7546771E-02  0.1050044E+00
         21   -1    0    0  502  501  0.00000000000E+00  0.00000000000E+00  0.19112358512E+04  0.19112358512E+04  0.00000000000E+00 0. -1.
         21   -1    0    0  501  502 -0.00000000000E+00 -0.00000000000E+00 -0.76517635415E+02  0.76517635415E+02  0.00000000000E+00 0. -1.
         25    1    1    2    0    0 -0.41912952256E+02 -0.10245588039E+03  0.38177606902E+03  0.41669157643E+03  0.12500000000E+03 0.  0.
         25    1    1    2    0    0 -0.96999228396E+02  0.13834225515E+03  0.13254562037E+04  0.13420158635E+04  0.12500000000E+03 0.  0.
         25    1    1    2    0    0  0.13891218065E+03 -0.35886374760E+02  0.12748594301E+03  0.22904604667E+03  0.12500000000E+03 0.  0.
</event>
<event>
 5    0  0.5735425E-005  0.2689507E+03  0.7546771E-02  0.1101882E+00
         21   -1    0    0  502  501  0.00000000000E+00  0.00000000000E+00  0.20453049848E+03  0.20453049848E+03  0.00000000000E+00 0. -1.
         21   -1    0    0  501  502 -0.00000000000E+00 -0.00000000000E+00 -0.35366119070E+03  0.35366119070E+03  0.00000000000E+00 0. -1.
         25    1    1    2    0    0 -0.40899284126E+02 -0.11034346749E+02 -0.57178646134E+02  0.14383638560E+03  0.12500000000E+03 0.  0.
         25    1    1    2    0    0  0.16477847320E+03  0.69249122506E+02 -0.38944021809E+02  0.22156042750E+03  0.12500000000E+03 0.  0.
         25    1    1    2    0    0 -0.12387918908E+03 -0.58214775757E+02 -0.53008024277E+02  0.19279487608E+03  0.12500000000E+03 0.  0.
</event>
<event>
 5    0  0.5735425E-005  0.2814454E+03  0.7546771E-02  0.1094902E+00
         21   -1    0    0  502  501  0.00000000000E+00  0.00000000000E+00  0.19599696796E+03  0.19599696796E+03  0.00000000000E+00 0. -1.
         21   -1    0    0  501  502 -0.00000000000E+00 -0.00000000000E+00 -0.40414653046E+03  0.40414653046E+03  0.00000000000E+00 0. -1.
         25    1    1    2    0    0 -0.11327609984E+03  0.19868941587E+02 -0.75896630258E+02  0.18604179133E+03  0.12500000000E+03 0.  0.
         25    1    1    2    0    0 -0.11706411063E+02 -0.47103413972E+02  0.63996570249E+02  0.14858106431E+03  0.12500000000E+03 0.  0.
         25    1    1    2    0    0  0.12498251090E+03  0.27234472385E+02 -0.19624950249E+03  0.26552064278E+03  0.12500000000E+03 0.  0.
</event>
<event>
 5    0  0.5836111E-005  0.3407327E+03  0.7546771E-02  0.1066484E+00
         21   -1    0    0  502  501  0.00000000000E+00  0.00000000000E+00  0.46731336914E+03  0.46731336914E+03  0.00000000000E+00 0. -1.
         21   -1    0    0  501  502 -0.00000000000E+00 -0.00000000000E+00 -0.24843873500E+03  0.24843873500E+03  0.00000000000E+00 0. -1.
         25    1    1    2    0    0 -0.42369598484E+02 -0.94944141247E+02  0.13979072511E+03  0.21442019415E+03  0.12500000000E+03 0.  0.
         25    1    1    2    0    0  0.19033994927E+03  0.93726545757E+02  0.15755054229E+03  0.29233736512E+03  0.12500000000E+03 0.  0.
         25    1    1    2    0    0 -0.14797035079E+03  0.12175954904E+01 -0.78466633260E+02  0.20899454487E+03  0.12500000000E+03 0.  0.
</event>
<event>
 5    0  0.5735425E-005  0.2271237E+03  0.7546771E-02  0.1128681E+00
         21   -1    0    0  502  501  0.00000000000E+00  0.00000000000E+00  0.26658920170E+02  0.26658920170E+02  0.00000000000E+00 0. -1.
         21   -1    0    0  501  502 -0.00000000000E+00 -0.00000000000E+00 -0.19350060777E+04  0.19350060777E+04  0.00000000000E+00 0. -1.
         25    1    1    2    0    0 -0.46939239753E+02  0.41170677477E+02 -0.56814143034E+03  0.58507093739E+03  0.12500000000E+03 0.  0.
         25    1    1    2    0    0  0.19089197680E+02 -0.10994433764E+03 -0.78404742522E+03  0.80175277975E+03  0.12500000000E+03 0.  0.
         25    1    1    2    0    0  0.27850042073E+02  0.68773660164E+02 -0.55615830196E+03  0.57484128072E+03  0.12500000000E+03 0.  0.
</event>
<event>
 5    0  0.5735425E-005  0.3484665E+03  0.7546771E-02  0.1063246E+00
         21   -1    0    0  502  501  0.00000000000E+00  0.00000000000E+00  0.58114158651E+03  0.58114158651E+03  0.00000000000E+00 0. -1.
         21   -1    0    0  501  502 -0.00000000000E+00 -0.00000000000E+00 -0.20894891471E+03  0.20894891471E+03  0.00000000000E+00 0. -1.
         25    1    1    2    0    0 -0.88656254961E+02 -0.20572660216E+03  0.26026120210E+03  0.36543708036E+03  0.12500000000E+03 0.  0.
         25    1    1    2    0    0  0.15770624065E+03  0.12446647423E+03  0.22759463526E+02  0.23771023270E+03  0.12500000000E+03 0.  0.
         25    1    1    2    0    0 -0.69049985690E+02  0.81260127929E+02  0.89172006167E+02  0.18694318816E+03  0.12500000000E+03 0.  0.
</event>
<event>
 5    0  0.6402289E-005  0.5026059E+03  0.7546771E-02  0.1013101E+00
         21   -1    0    0  502  501  0.00000000000E+00  0.00000000000E+00  0.34817247774E+03  0.34817247774E+03  0.00000000000E+00 0. -1.
         21   -1    0    0  501  502 -0.00000000000E+00 -0.00000000000E+00 -0.72553894677E+03  0.72553894677E+03  0.00000000000E+00 0.  1.
         25    1    1    2    0    0 -0.19345891373E+03 -0.87732239960E+02 -0.27263745318E+03  0.36753160150E+03  0.12500000000E+03 0.  0.
         25    1    1    2    0    0  0.23151249924E+03  0.47094277078E+02 -0.34092450147E+03  0.43320944581E+03  0.12500000000E+03 0.  0.
         25    1    1    2    0    0 -0.38053585518E+02  0.40637962882E+02  0.23619548562E+03  0.27297037719E+03  0.12500000000E+03 0.  0.
</event>
<event>
 5    0  0.5735425E-005  0.3162258E+03  0.7546771E-02  0.1077400E+00
         21   -1    0    0  502  501  0.00000000000E+00  0.00000000000E+00  0.17806405457E+03  0.17806405457E+03  0.00000000000E+00 0. -1.
         21   -1    0    0  501  502 -0.00000000000E+00 -0.00000000000E+00 -0.56158869516E+03  0.56158869516E+03  0.00000000000E+00 0. -1.
         25    1    1    2    0    0  0.40576959939E+01 -0.15144115848E+03 -0.29797705545E+03  0.35688403572E+03  0.12500000000E+03 0.  0.
         25    1    1    2    0    0 -0.25829806486E+02  0.15803523565E+03 -0.13771398934E+03  0.24542301740E+03  0.12500000000E+03 0.  0.
         25    1    1    2    0    0  0.21772110492E+02 -0.65940771773E+01  0.52166404201E+02  0.13734569661E+03  0.12500000000E+03 0.  0.
</event>
<event>
 5    0  0.5735425E-005  0.2763408E+03  0.7546771E-02  0.1097704E+00
         21   -1    0    0  502  501  0.00000000000E+00  0.00000000000E+00  0.78424636083E+03  0.78424636083E+03  0.00000000000E+00 0. -1.
         21   -1    0    0  501  502 -0.00000000000E+00 -0.00000000000E+00 -0.97372776128E+02  0.97372776128E+02  0.00000000000E+00 0. -1.
         25    1    1    2    0    0  0.14560625982E+02  0.36787005545E+02  0.19327108864E+03  0.23354658917E+03  0.12500000000E+03 0.  0.
         25    1    1    2    0    0 -0.13905419716E+03  0.82735060562E+02  0.27624544648E+03  0.34368256676E+03  0.12500000000E+03 0.  0.
         25    1    1    2    0    0  0.12449357118E+03 -0.11952206611E+03  0.21735704958E+03  0.30438998103E+03  0.12500000000E+03 0.  0.
</event>
<event>
 5    0  0.5735425E-005  0.3200041E+03  0.7546771E-02  0.1075647E+00
         21   -1    0    0  502  501  0.00000000000E+00  0.00000000000E+00  0.72031146409E+02  0.72031146409E+02  0.00000000000E+00 0.  1.
         21   -1    0    0  501  502 -0.00000000000E+00 -0.00000000000E+00 -0.14216437155E+04  0.14216437155E+04  0.00000000000E+00 0.  1.
         25    1    1    2    0    0 -0.26202142027E+02 -0.18336525925E+03 -0.31898772859E+03  0.38947084812E+03  0.12500000000E+03 0.  0.
         25    1    1    2    0    0  0.17985223557E+02  0.45317890988E+02 -0.78216067523E+03  0.79358521999E+03  0.12500000000E+03 0.  0.
         25    1    1    2    0    0  0.82169184696E+01  0.13804736826E+03 -0.24846416523E+03  0.31061879376E+03  0.12500000000E+03 0.  0.
</event>
<event>
 5    0  0.5735425E-005  0.4270596E+03  0.7546771E-02  0.1034793E+00
         21   -1    0    0  502  501  0.00000000000E+00  0.00000000000E+00  0.59875462575E+03  0.59875462575E+03  0.00000000000E+00 0. -1.
         21   -1    0    0  501  502 -0.00000000000E+00 -0.00000000000E+00 -0.30459876465E+03  0.30459876465E+03  0.00000000000E+00 0. -1.
         25    1    1    2    0    0  0.24686407218E+03 -0.22890140998E+03  0.13604154156E+03  0.38401826344E+03  0.12500000000E+03 0.  0.
         25    1    1    2    0    0 -0.22561089368E+03  0.25592959952E+03  0.13515432179E+03  0.38767502623E+03  0.12500000000E+03 0.  0.
         25    1    1    2    0    0 -0.21253178499E+02 -0.27028189541E+02  0.22959997747E+02  0.13166010072E+03  0.12500000000E+03 0.  0.
</event>
<event>
 5    0  0.5735425E-005  0.2713436E+03  0.7546771E-02  0.1100513E+00
         21   -1    0    0  502  501  0.00000000000E+00  0.00000000000E+00  0.53637421110E+03  0.53637421110E+03  0.00000000000E+00 0.  1.
         21   -1    0    0  501  502 -0.00000000000E+00 -0.00000000000E+00 -0.13726860209E+03  0.13726860209E+03  0.00000000000E+00 0.  1.
         25    1    1    2    0    0 -0.25138846730E+02  0.50550525426E+02  0.12604989618E+03  0.18628175853E+03  0.12500000000E+03 0.  0.
         25    1    1    2    0    0  0.23363797360E+02  0.11745129945E+03  0.47335712512E+02  0.17946126169E+03  0.12500000000E+03 0.  0.
         25    1    1    2    0    0  0.17750493694E+01 -0.16800182487E+03  0.22572000033E+03  0.30789979297E+03  0.12500000000E+03 0.  0.
</event>
<event>
 5    0  0.5735425E-005  0.4512188E+03  0.7546771E-02  0.1027359E+00
         21   -1    0    0  502  501  0.00000000000E+00  0.00000000000E+00  0.12420605646E+03  0.12420605646E+03  0.00000000000E+00 0.  1.
         21   -1    0    0  501  502 -0.00000000000E+00 -0.00000000000E+00 -0.16391990402E+04  0.16391990402E+04  0.00000000000E+00 0.  1.
         25    1    1    2    0    0 -0.46599577027E+02  0.25048291727E+02  0.16010925180E+02  0.13667584725E+03  0.12500000000E+03 0.  0.
         25    1    1    2    0    0  0.26399630103E+03 -0.54080157282E+02 -0.85394155327E+03  0.90413488306E+03  0.12500000000E+03 0.  0.
         25    1    1    2    0    0 -0.21739672400E+03  0.29031865554E+02 -0.67706235568E+03  0.72259436637E+03  0.12500000000E+03 0.  0.
</event>
<event>
 5    0  0.5735425E-005  0.2515485E+03  0.7546771E-02  0.1112330E+00
         21   -1    0    0  502  501  0.00000000000E+00  0.00000000000E+00  0.60449400986E+03  0.60449400986E+03  0.00000000000E+00 0. -1.
         21   -1    0    0  501  502 -0.00000000000E+00 -0.00000000000E+00 -0.10467706144E+03  0.10467706144E+03  0.00000000000E+00 0. -1.
         25    1    1    2    0    0 -0.23125509583E+02  0.80228787450E+02  0.26624252328E+03  0.30574749178E+03  0.12500000000E+03 0.  0.
         25    1    1    2    0    0 -0.47655318401E+02  0.23992554881E+02  0.16351021718E+03  0.21261999714E+03  0.12500000000E+03 0.  0.
         25    1    1    2    0    0  0.70780827984E+02 -0.10422134233E+03  0.70064207957E+02  0.19080358237E+03  0.12500000000E+03 0.  0.
</event>
<event>
 5    0  0.5735425E-005  0.4412276E+03  0.7546771E-02  0.1030371E+00
         21   -1    0    0  502  501  0.00000000000E+00  0.00000000000E+00  0.26432772242E+03  0.26432772242E+03  0.00000000000E+00 0. -1.
         21   -1    0    0  501  502 -0.00000000000E+00 -0.00000000000E+00 -0.73651675350E+03  0.73651675350E+03  0.00000000000E+00 0.  1.
         25    1    1    2    0    0  0.22970771764E+03 -0.20112959091E+03 -0.56773056316E+02  0.33476398822E+03  0.12500000000E+03 0.  0.
         25    1    1    2    0    0  0.65434217941E+02  0.32331538559E+02 -0.19208794097E+03  0.24051973376E+03  0.12500000000E+03 0.  0.
         25    1    1    2    0    0 -0.29514193558E+03  0.16879805235E+03 -0.22332803379E+03  0.42556075394E+03  0.12500000000E+03 0.  0.
</event>
<event>
 5    0  0.5735425E-005  0.3711901E+03  0.7546771E-02  0.1054239E+00
         21   -1    0    0  502  501  0.00000000000E+00  0.00000000000E+00  0.16531626710E+03  0.16531626710E+03  0.00000000000E+00 0. -1.
         21   -1    0    0  501  502 -0.00000000000E+00 -0.00000000000E+00 -0.83344526723E+03  0.83344526723E+03  0.00000000000E+00 0. -1.
         25    1    1    2    0    0 -0.13015333297E+03 -0.97864263137E+02 -0.22797875463E+03  0.30678431617E+03  0.12500000000E+03 0.  0.
         25    1    1    2    0    0  0.10021735864E+03 -0.10801555670E+03 -0.40235004750E+03  0.44634229039E+03  0.12500000000E+03 0.  0.
         25    1    1    2    0    0  0.29935974332E+02  0.20587981984E+03 -0.37800197993E+02  0.24563492778E+03  0.12500000000E+03 0.  0.
</event>
<event>
 5    0  0.5735425E-005  0.2419597E+03  0.7546771E-02  0.1118494E+00
         21   -1    0    0  502  501  0.00000000000E+00  0.00000000000E+00  0.89616153499E+02  0.89616153499E+02  0.00000000000E+00 0.  1.
         21   -1    0    0  501  502 -0.00000000000E+00 -0.00000000000E+00 -0.65328070312E+03  0.65328070312E+03  0.00000000000E+00 0.  1.
         25    1    1    2    0    0 -0.23489286037E+02 -0.27991870363E+02 -0.22900580663E+03  0.26344629592E+03  0.12500000000E+03 0.  0.
         25    1    1    2    0    0 -0.95269056608E+02  0.41347005843E+02 -0.21341261629E+03  0.26824562034E+03  0.12500000000E+03 0.  0.
         25    1    1    2    0    0  0.11875834265E+03 -0.13355135479E+02 -0.12124612670E+03  0.21120494036E+03  0.12500000000E+03 0.  0.
</event>
<event>
 5    0  0.5735425E-005  0.2845055E+03  0.7546771E-02  0.1093253E+00
         21   -1    0    0  502  501  0.00000000000E+00  0.00000000000E+00  0.11482734994E+04  0.11482734994E+04  0.00000000000E+00 0. -1.
         21   -1    0    0  501  502 -0.00000000000E+00 -0.00000000000E+00 -0.70491396575E+02  0.70491396575E+02  0.00000000000E+00 0. -1.
         25    1    1    2    0    0  0.13195427450E+03  0.94889736617E+02  0.24716825790E+03  0.32114348878E+03  0.12500000000E+03 0.  0.
         25    1    1    2    0    0  0.10869324738E+02  0.54795883157E+01  0.30391132966E+03  0.32883926834E+03  0.12500000000E+03 0.  0.
         25    1    1    2    0    0 -0.14282359924E+03 -0.10036932493E+03  0.52670251526E+03  0.56878213884E+03  0.12500000000E+03 0.  0.
</event>
<event>
 5    0  0.5735425E-005  0.3011833E+03  0.7546771E-02  0.1084651E+00
         21   -1    0    0  502  501  0.00000000000E+00  0.00000000000E+00  0.69489892742E+03  0.69489892742E+03  0.00000000000E+00 0.  1.
         21   -1    0    0  501  502 -0.00000000000E+00 -0.00000000000E+00 -0.13053895275E+03  0.13053895275E+03  0.00000000000E+00 0.  1.
         25    1    1    2    0    0  0.71315064326E+02  0.16215820908E+03  0.80481122093E+02  0.23126464102E+03  0.12500000000E+03 0.  0.
         25    1    1    2    0    0 -0.54372882181E+02  0.36533864911E+01  0.19914416270E+03  0.24135690396E+03  0.12500000000E+03 0.  0.
         25    1    1    2    0    0 -0.16942182145E+02 -0.16581159557E+03  0.28473468988E+03  0.35281633519E+03  0.12500000000E+03 0.  0.
</event>
<event>
 5    0  0.8060555E-005  0.2946369E+03  0.7546771E-02  0.1087953E+00
         21   -1    0    0  502  501  0.00000000000E+00  0.00000000000E+00  0.47007372261E+03  0.47007372261E+03  0.00000000000E+00 0.  1.
         21   -1    0    0  501  502 -0.00000000000E+00 -0.00000000000E+00 -0.18467502768E+03  0.18467502768E+03  0.00000000000E+00 0.  1.
         25    1    1    2    0    0  0.89561495251E+02 -0.12418635745E+03  0.60373865499E+02  0.20667248594E+03  0.12500000000E+03 0.  0.
         25    1    1    2    0    0 -0.52001033268E+01 -0.54454424961E+01 -0.25928669270E+02  0.12788271896E+03  0.12500000000E+03 0.  0.
         25    1    1    2    0    0 -0.84361391924E+02  0.12963179994E+03  0.25095349870E+03  0.32019354539E+03  0.12500000000E+03 0.  0.
</event>
<event>
 5    0  0.5735425E-005  0.2713411E+03  0.7546771E-02  0.1100514E+00
         21   -1    0    0  502  501  0.00000000000E+00  0.00000000000E+00  0.13115777812E+03  0.13115777812E+03  0.00000000000E+00 0.  1.
         21   -1    0    0  501  502 -0.00000000000E+00 -0.00000000000E+00 -0.56135445618E+03  0.56135445618E+03  0.00000000000E+00 0.  1.
         25    1    1    2    0    0  0.87488320523E+01 -0.33668424800E+02 -0.71378962505E+02  0.14808801835E+03  0.12500000000E+03 0.  0.
         25    1    1    2    0    0 -0.77690061495E+02 -0.89529586409E+02 -0.30167113142E+03  0.34739280941E+03  0.12500000000E+03 0.  0.
         25    1    1    2    0    0  0.68941229442E+02  0.12319801121E+03 -0.57146584134E+02  0.19703140653E+03  0.12500000000E+03 0.  0.
</event>
<event>
 5    0  0.5735425E-005  0.2812405E+03  0.7546771E-02  0.1095013E+00
         21   -1    0    0  502  501  0.00000000000E+00  0.00000000000E+00  0.11715669513E+04  0.11715669513E+04  0.00000000000E+00 0.  1.
         21   -1    0    0  501  502 -0.00000000000E+00 -0.00000000000E+00 -0.67513177445E+02  0.67513177445E+02  0.00000000000E+00 0.  1.
         25    1    1    2    0    0 -0.10631700084E+02 -0.47482967009E+02  0.69931699342E+02  0.15127163573E+03  0.12500000000E+03 0.  0.
         25    1    1    2    0    0 -0.26233655615E+02  0.42971708223E+02  0.18580984263E+03  0.22953228534E+03  0.12500000000E+03 0.  0.
         25    1    1    2    0    0  0.36865355699E+02  0.45112587864E+01  0.84831223184E+03  0.85827620763E+03  0.12500000000E+03 0.  0.
</event>
<event>
 5    0  0.5735425E-005  0.2012499E+03  0.7546771E-02  0.1148689E+00
         21   -1    0    0  502  501  0.00000000000E+00  0.00000000000E+00  0.14023109175E+03  0.14023109175E+03  0.00000000000E+00 0.  1.
         21   -1    0    0  501  502 -0.00000000000E+00 -0.00000000000E+00 -0.28881992742E+03  0.28881992742E+03  0.00000000000E+00 0.  1.
         25    1    1    2    0    0 -0.50426820546E+02  0.40963495020E+02 -0.56028549229E+02  0.15160827973E+03  0.12500000000E+03 0.  0.
         25    1    1    2    0    0  0.37677951836E+02 -0.96691913259E+01 -0.33549228838E+02  0.13514315399E+03  0.12500000000E+03 0.  0.
         25    1    1    2    0    0  0.12748868710E+02 -0.31294303694E+02 -0.59011057609E+02  0.14229958544E+03  0.12500000000E+03 0.  0.
</event>
<event>
 5    0  0.5735425E-005  0.2111198E+03  0.7546771E-02  0.1140682E+00
         21   -1    0    0  502  501  0.00000000000E+00  0.00000000000E+00  0.64813026890E+03  0.64813026890E+03  0.00000000000E+00 0. -1.
         21   -1    0    0  501  502 -0.00000000000E+00 -0.00000000000E+00 -0.68769462153E+02  0.68769462153E+02  0.00000000000E+00 0. -1.
         25    1    1    2    0    0 -0.71740101953E+02 -0.11969963436E+02  0.20307327474E+03  0.24930639215E+03  0.12500000000E+03 0.  0.
         25    1    1    2    0    0  0.90920711382E+00 -0.63073126640E+01  0.12102317059E+03  0.17410403979E+03  0.12500000000E+03 0.  0.
         25    1    1    2    0    0  0.70830894840E+02  0.18277276100E+02  0.25526436142E+03  0.29348929912E+03  0.12500000000E+03 0.  0.
</event>
<event>
 5    0  0.5735425E-005  0.4389211E+03  0.7546771E-02  0.1031078E+00
         21   -1    0    0  502  501  0.00000000000E+00  0.00000000000E+00  0.28583462215E+03  0.28583462215E+03  0.00000000000E+00 0.  1.
         21   -1    0    0  501  502 -0.00000000000E+00 -0.00000000000E+00 -0.67399715352E+03  0.67399715352E+03  0.00000000000E+00 0.  1.
         25    1    1    2    0    0 -0.58835784542E+02  0.32667869190E+02  0.12048677222E+03  0.18620123926E+03  0.12500000000E+03 0.  0.
         25    1    1    2    0    0  0.11950957932E+03  0.70714523961E+02 -0.56213485940E+03  0.59237123799E+03  0.12500000000E+03 0.  0.
         25    1    1    2    0    0 -0.60673794783E+02 -0.10338239315E+03  0.53485555800E+02  0.18125929843E+03  0.12500000000E+03 0.  0.
</event>
<event>
 5    0  0.5735425E-005  0.2430539E+03  0.7546771E-02  0.1117775E+00
         21   -1    0    0  502  501  0.00000000000E+00  0.00000000000E+00  0.96496991920E+02  0.96496991920E+02  0.00000000000E+00 0.  1.
         21   -1    0    0  501  502 -0.00000000000E+00 -0.00000000000E+00 -0.61219750221E+03  0.61219750221E+03  0.00000000000E+00 0.  1.
         25    1    1    2    0    0 -0.68320463771E+02  0.57463927931E+02 -0.95823969019E+02  0.18104425377E+03  0.12500000000E+03 0.  0.
         25    1    1    2    0    0  0.82802738351E+02  0.45106153668E+02 -0.18945661675E+03  0.24578378345E+03  0.12500000000E+03 0.  0.
         25    1    1    2    0    0 -0.14482274580E+02 -0.10257008160E+03 -0.23041992452E+03  0.28186645691E+03  0.12500000000E+03 0.  0.
</event>
<event>
 5    0  0.5735425E-005  0.3565475E+03  0.7546771E-02  0.1059959E+00
         21   -1    0    0  502  501  0.00000000000E+00  0.00000000000E+00  0.24049258657E+03  0.24049258657E+03  0.00000000000E+00 0.  1.
         21   -1    0    0  501  502 -0.00000000000E+00 -0.00000000000E+00 -0.52860717492E+03  0.52860717492E+03  0.00000000000E+00 0.  1.
         25    1    1    2    0    0  0.53173171859E+02  0.56530709392E+02 -0.58985162828E+02  0.15851610878E+03  0.12500000000E+03 0.  0.
         25    1    1    2    0    0  0.15300589274E+03 -0.16481514667E+03  0.52131568186E+01  0.25734609534E+03  0.12500000000E+03 0.  0.
         25    1    1    2    0    0 -0.20617906460E+03  0.10828443728E+03 -0.23434258233E+03  0.35323755736E+03  0.12500000000E+03 0.  0.
</event>
<event>
 5    0  0.9830370E-005  0.7712392E+03  0.7546771E-02  0.9602606E-01
         21   -1    0    0  502  501  0.00000000000E+00  0.00000000000E+00  0.61996588926E+03  0.61996588926E+03  0.00000000000E+00 0. -1.
         21   -1    0    0  501  502 -0.00000000000E+00 -0.00000000000E+00 -0.95942365337E+03  0.95942365337E+03  0.00000000000E+00 0. -1.
         25    1    1    2    0    0 -0.29170097107E+03 -0.11349220689E+03  0.12197510271E+03  0.35843111365E+03  0.12500000000E+03 0.  0.
         25    1    1    2    0    0 -0.16750563676E+03  0.15372744278E+03  0.25247318202E+03  0.36201929873E+03  0.12500000000E+03 0.  0.
         25    1    1    2    0    0  0.45920660783E+03 -0.40235235888E+02 -0.71390604885E+03  0.85893913025E+03  0.12500000000E+03 0.  0.
</event>
<event>
 5    0  0.5735425E-005  0.2344631E+03  0.7546771E-02  0.1123537E+00
         21   -1    0    0  502  501  0.00000000000E+00  0.00000000000E+00  0.29269591303E+04  0.29269591303E+04  0.00000000000E+00 0.  1.
         21   -1    0    0  501  502 -0.00000000000E+00 -0.00000000000E+00 -0.18781583231E+02  0.18781583231E+02  0.00000000000E+00 0.  1.
         25    1    1    2    0    0 -0.87274753780E+02  0.35920586128E+02  0.83156866163E+03  0.84619064646E+03  0.12500000000E+03 0.  0.
         25    1    1    2    0    0  0.17861754299E+01 -0.33816695805E+02  0.53209444397E+03  0.54762784502E+03  0.12500000000E+03 0.  0.
         25    1    1    2    0    0  0.85488578350E+02 -0.21038903227E+01  0.15445144415E+04  0.15519222220E+04  0.12500000000E+03 0.  0.
</event>
<event>
 5    0  0.5735425E-005  0.2895369E+03  0.7546771E-02  0.1090591E+00
         21   -1    0    0  502  501  0.00000000000E+00  0.00000000000E+00  0.23922535242E+03  0.23922535242E+03  0.00000000000E+00 0. -1.
         21   -1    0    0  501  502 -0.00000000000E+00 -0.00000000000E+00 -0.35042953159E+03  0.35042953159E+03  0.00000000000E+00 0. -1.
         25    1    1    2    0    0  0.10574323217E+03 -0.55192031858E+02 -0.18180172954E+03  0.25080801501E+03  0.12500000000E+03 0.  0.
         25    1    1    2    0    0 -0.10606091153E+03  0.22978185234E+02 -0.38363782553E+02  0.16992261110E+03  0.12500000000E+03 0.  0.
         25    1    1    2    0    0  0.31767936294E+00  0.32213846623E+02  0.10896133293E+03  0.16892425790E+03  0.12500000000E+03 0.  0.
</event>
<event>
 5    0  0.5735425E-005  0.3047685E+03  0.7546771E-02  0.1082881E+00
         21   -1    0    0  502  501  0.00000000000E+00  0.00000000000E+00  0.24451813653E+03  0.24451813653E+03  0.00000000000E+00 0.  1.
         21   -1    0    0  501  502 -0.00000000000E+00 -0.00000000000E+00 -0.37986486165E+03  0.37986486165E+03  0.00000000000E+00 0.  1.
         25    1    1    2    0    0 -0.12686055996E+02 -0.10310181168E+03 -0.59182634224E+02  0.17296966145E+03  0.12500000000E+03 0.  0.
         25    1    1    2    0    0  0.14095697109E+03  0.82554747854E+02  0.72136662920E+02  0.21797443022E+03  0.12500000000E+03 0.  0.
         25    1    1    2    0    0 -0.12827091510E+03  0.20547063829E+02 -0.14830075381E+03  0.23343890651E+03  0.12500000000E+03 0.  0.
</event>
<event>
 5    0  0.5735425E-005  0.2615522E+03  0.7546771E-02  0.1106214E+00
         21   -1    0    0  502  501  0.00000000000E+00  0.00000000000E+00  0.51573978853E+03  0.51573978853E+03  0.00000000000E+00 0.  1.
         21   -1    0    0  501  502 -0.00000000000E+00 -0.00000000000E+00 -0.13264351502E+03  0.13264351502E+03  0.00000000000E+00 0.  1.
         25    1    1    2    0    0  0.34900372648E+02  0.35277130550E+02  0.86588407035E+02  0.15995331876E+03  0.12500000000E+03 0.  0.
         25    1    1    2    0    0 -0.10155418564E+03  0.10186334175E+03  0.15683350338E+03  0.24680182494E+03  0.12500000000E+03 0.  0.
         25    1    1    2    0    0  0.66653812988E+02 -0.13714047230E+03  0.13967436309E+03  0.24162815985E+03  0.12500000000E+03 0.  0.
</event>
<event>
 5    0  0.5735425E-005  0.3005829E+03  0.7546771E-02  0.1084950E+00
         21   -1    0    0  502  501  0.00000000000E+00  0.00000000000E+00  0.28174998083E+03  0.28174998083E+03  0.00000000000E+00 0.  1.
         21   -1    0    0  501  502 -0.00000000000E+00 -0.00000000000E+00 -0.32067471929E+03  0.32067471929E+03  0.00000000000E+00 0.  1.
         25    1    1    2    0    0 -0.23191884606E+02 -0.53106751187E+02 -0.12279036457E+03  0.18455531465E+03  0.12500000000E+03 0.  0.
         25    1    1    2    0    0 -0.56181977056E+02 -0.98816859272E+02  0.11367751093E+03  0.20363880454E+03  0.12500000000E+03 0.  0.
         25    1    1    2    0    0  0.79373861662E+02  0.15192361046E+03 -0.29811884820E+02  0.21423058093E+03  0.12500000000E+03 0.  0.
</event>
<event>
 5    0  0.5735425E-005  0.2483137E+03  0.7546771E-02  0.1114375E+00
         21   -1    0    0  502  501  0.00000000000E+00  0.00000000000E+00  0.70317838320E+02  0.70317838320E+02  0.00000000000E+00 0. -1.
         21   -1    0    0  501  502 -0.00000000000E+00 -0.00000000000E+00 -0.87687134703E+03  0.87687134703E+03  0.00000000000E+00 0. -1.
         25    1    1    2    0    0  0.31947430175E+02  0.14637793033E+03 -0.25075700332E+03  0.31772820381E+03  0.12500000000E+03 0.  0.
         25    1    1    2    0    0 -0.56428449998E+01 -0.92746643991E+02 -0.26581610012E+03  0.30808599571E+03  0.12500000000E+03 0.  0.
         25    1    1    2    0    0 -0.26304585175E+02 -0.53631286338E+02 -0.28998040527E+03  0.32137498583E+03  0.12500000000E+03 0.  0.
</event>
<event>
 5    0  0.5735425E-005  0.8770588E+03  0.7546771E-02  0.9454722E-01
         21   -1    0    0  502  501  0.00000000000E+00  0.00000000000E+00  0.67775983368E+03  0.67775983368E+03  0.00000000000E+00 0. -1.
         21   -1    0    0  501  502 -0.00000000000E+00 -0.00000000000E+00 -0.11349627910E+04  0.11349627910E+04  0.00000000000E+00 0. -1.
         25    1    1    2    0    0 -0.54564992673E+03 -0.53642230679E+03  0.57824231207E+02  0.77746471012E+03  0.12500000000E+03 0.  0.
         25    1    1    2    0    0  0.22448774405E+03  0.25020317178E+03 -0.46092798734E+03  0.58401710926E+03  0.12500000000E+03 0.  0.
         25    1    1    2    0    0  0.32116218269E+03  0.28621913501E+03 -0.54099201225E+02  0.45124080534E+03  0.12500000000E+03 0.  0.
</event>
<event>
 5    0  0.5854980E-005  0.2838524E+03  0.7546771E-02  0.1093603E+00
         21   -1    0    0  502  501  0.00000000000E+00  0.00000000000E+00  0.52350842046E+03  0.52350842046E+03  0.00000000000E+00 0.  1.
         21   -1    0    0  501  502 -0.00000000000E+00 -0.00000000000E+00 -0.15390808441E+03  0.15390808441E+03  0.00000000000E+00 0.  1.
         25    1    1    2    0    0  0.85532479402E+02 -0.67395405148E+02  0.24941864939E+03  0.29948724236E+03  0.12500000000E+03 0.  0.
         25    1    1    2    0    0 -0.42515124320E+01 -0.69664436627E+01 -0.54427611352E+02  0.13657954302E+03  0.12500000000E+03 0.  0.
         25    1    1    2    0    0 -0.81280966970E+02  0.74361848810E+02  0.17460929801E+03  0.24134971950E+03  0.12500000000E+03 0.  0.
</event>
<event>
 5    0  0.5735425E-005  0.4257179E+03  0.7546771E-02  0.1035221E+00
         21   -1    0    0  502  501  0.00000000000E+00  0.00000000000E+00  0.51282831356E+03  0.51282831356E+03  0.00000000000E+00 0.  1.
         21   -1    0    0  501  502 -0.00000000000E+00 -0.00000000000E+00 -0.35340425560E+03  0.35340425560E+03  0.00000000000E+00 0.  1.
         25    1    1    2    0    0  0.65101631271E+02  0.14280099239E+03  0.87916435592E+02  0.21905397844E+03  0.12500000000E+03 0.  0.
         25    1    1    2    0    0  0.25333202478E+03 -0.92521957942E+02  0.25145181756E+02  0.29831980767E+03  0.12500000000E+03 0.  0.
         25    1    1    2    0    0 -0.31843365605E+03 -0.50279034450E+02  0.46362440612E+02  0.34885878305E+03  0.12500000000E+03 0.  0.
</event>
<event>
 5    0  0.5735425E-005  0.2255298E+03  0.7546771E-02  0.1129826E+00
         21   -1    0    0  502  501  0.00000000000E+00  0.00000000000E+00  0.20150748339E+03  0.20150748339E+03  0.00000000000E+00 0. -1.
         21   -1    0    0  501  502 -0.00000000000E+00 -0.00000000000E+00 -0.25241583158E+03  0.25241583158E+03  0.00000000000E+00 0. -1.
         25    1    1    2    0    0 -0.53968449969E+02  0.29076614364E+02 -0.11770276944E+02  0.13971965686E+03  0.12500000000E+03 0.  0.
         25    1    1    2    0    0 -0.42592721089E+02  0.76711122463E+01 -0.69173282928E+02  0.14927467610E+03  0.12500000000E+03 0.  0.
         25    1    1    2    0    0  0.96561171058E+02 -0.36747726611E+02  0.30035211682E+02  0.16492898201E+03  0.12500000000E+03 0.  0.
</event>
<event>
 5    0  0.6422718E-005  0.3037432E+03  0.7546771E-02  0.1083384E+00
         21   -1    0    0  502  501  0.00000000000E+00  0.00000000000E+00  0.84955115857E+03  0.84955115857E+03  0.00000000000E+00 0. -1.
         21   -1    0    0  501  502 -0.00000000000E+00 -0.00000000000E+00 -0.10859842209E+03  0.10859842209E+03  0.00000000000E+00 0. -1.
         25    1    1    2    0    0 -0.14856338950E+03  0.11021942488E+03  0.13748618239E+03  0.26219621024E+03  0.12500000000E+03 0.  0.
         25    1    1    2    0    0  0.11458485348E+03 -0.74064178857E+02  0.20875936343E+03  0.27896355149E+03  0.12500000000E+03 0.  0.
         25    1    1    2    0    0  0.33978536017E+02 -0.36155246018E+02  0.39470719066E+03  0.41698981892E+03  0.12500000000E+03 0.  0.
</event>
<event>
 5    0  0.5735425E-005  0.2085605E+03  0.7546771E-02  0.1142711E+00
         21   -1    0    0  502  501  0.00000000000E+00  0.00000000000E+00  0.24095842012E+04  0.24095842012E+04  0.00000000000E+00 0.  1.
         21   -1    0    0  501  502 -0.00000000000E+00 -0.00000000000E+00 -0.18051861543E+02  0.18051861543E+02  0.00000000000E+00 0.  1.
         25    1    1    2    0    0 -0.42193099940E+02 -0.54416536663E+01  0.11672494242E+04  0.11746940400E+04  0.12500000000E+03 0.  0.
         25    1    1    2    0    0 -0.87955392602E+01  0.28685241285E+02  0.54104329475E+03  0.55610525206E+03  0.12500000000E+03 0.  0.
         25    1    1    2    0    0  0.50988639200E+02 -0.23243587619E+02  0.68323962077E+03  0.69683677076E+03  0.12500000000E+03 0.  0.
</event>
<event>
 5    0  0.5735425E-005  0.3652313E+03  0.7546771E-02  0.1056531E+00
         21   -1    0    0  502  501  0.00000000000E+00  0.00000000000E+00  0.45734772231E+03  0.45734772231E+03  0.00000000000E+00 0.  1.
         21   -1    0    0  501  502 -0.00000000000E+00 -0.00000000000E+00 -0.29166843760E+03  0.29166843760E+03  0.00000000000E+00 0.  1.
         25    1    1    2    0    0 -0.14557611931E+03  0.13195377400E+03  0.30336784940E+03  0.38244118115E+03  0.12500000000E+03 0.  0.
         25    1    1    2    0    0  0.44313670105E+02 -0.11815526013E+03 -0.83449512409E+02  0.19624777190E+03  0.12500000000E+03 0.  0.
         25    1    1    2    0    0  0.10126244921E+03 -0.13798513870E+02 -0.54239052290E+02  0.17032720686E+03  0.12500000000E+03 0.  0.
</event>
<event>
 5    0  0.5735425E-005  0.3641792E+03  0.7546771E-02  0.1056941E+00
         21   -1    0    0  502  501  0.00000000000E+00  0.00000000000E+00  0.29253900134E+03  0.29253900134E+03  0.00000000000E+00 0.  1.
         21   -1    0    0  501  502 -0.00000000000E+00 -0.00000000000E+00 -0.45336347520E+03  0.45336347520E+03  0.00000000000E+00 0.  1.
         25    1    1    2    0    0 -0.22480552936E+03  0.37322592413E+02 -0.46697667762E+02  0.26407607637E+03  0.12500000000E+03 0.  0.
         25    1    1    2    0    0  0.19218278895E+03  0.85143136867E+02  0.38219512991E+02  0.24752638101E+03  0.12500000000E+03 0.  0.
         25    1    1    2    0    0  0.32622740414E+02 -0.12246572928E+03 -0.15234631909E+03  0.23430001916E+03  0.12500000000E+03 0.  0.
</event>
<event>
 5    0  0.5735425E-005  0.3485540E+03  0.7546771E-02  0.1063210E+00
         21   -1    0    0  502  501  0.00000000000E+00  0.00000000000E+00  0.54379767407E+03  0.54379767407E+03  0.00000000000E+00 0. -1.
         21   -1    0    0  501  502 -0.00000000000E+00 -0.00000000000E+00 -0.22341006807E+03  0.22341006807E+03  0.00000000000E+00 0. -1.
         25    1    1    2    0    0 -0.69068076839E+02 -0.52903753833E+02 -0.60696488225E+02  0.16394593649E+03  0.12500000000E+03 0.  0.
         25    1    1    2    0    0 -0.19933498725E+02  0.27443034043E+02 -0.54664506342E+02  0.14058333024E+03  0.12500000000E+03 0.  0.
         25    1    1    2    0    0  0.89001575564E+02  0.25460719790E+02  0.43574860057E+03  0.46267847540E+03  0.12500000000E+03 0.  0.
</event>
<event>
 5    0  0.5735425E-005  0.4266346E+03  0.7546771E-02  0.1034928E+00
         21   -1    0    0  502  501  0.00000000000E+00  0.00000000000E+00  0.69610650085E+03  0.69610650085E+03  0.00000000000E+00 0.  1.
         21   -1    0    0  501  502 -0.00000000000E+00 -0.00000000000E+00 -0.26147873916E+03  0.26147873916E+03  0.00000000000E+00 0.  1.
         25    1    1    2    0    0  0.67097887557E+02 -0.12111401227E+03  0.44958471533E+02  0.19187755118E+03  0.12500000000E+03 0.  0.
         25    1    1    2    0    0  0.96500715615E+02 -0.74903302822E+02 -0.98629014137E+02  0.20068775577E+03  0.12500000000E+03 0.  0.
         25    1    1    2    0    0 -0.16359860317E+03  0.19601731510E+03  0.48829830430E+03  0.56501993306E+03  0.12500000000E+03 0.  0.
</event>
<event>
 5    0  0.5735425E-005  0.5527029E+03  0.7546771E-02  0.1000870E+00
         21   -1    0    0  502  501  0.00000000000E+00  0.00000000000E+00  0.15706484570E+04  0.15706484570E+04  0.00000000000E+00 0. -1.
         21   -1    0    0  501  502 -0.00000000000E+00 -0.00000000000E+00 -0.19449320871E+03  0.19449320871E+03  0.00000000000E+00 0. -1.
         25    1    1    2    0    0  0.20963129603E+03  0.14956007192E+03  0.14794326833E+03  0.32221996529E+03  0.12500000000E+03 0.  0.
         25    1    1    2    0    0  0.19201499444E+03 -0.20172596200E+03  0.71405351443E+03  0.77656972855E+03  0.12500000000E+03 0.  0.
         25    1    1    2    0    0 -0.40164629047E+03  0.52165890076E+02  0.51415846554E+03  0.66635197188E+03  0.12500000000E+03 0.  0.
</event>
<event>
 5    0  0.5735425E-005  0.3193250E+03  0.7546771E-02  0.1075960E+00
         21   -1    0    0  502  501  0.00000000000E+00  0.00000000000E+00  0.15127483900E+04  0.15127483900E+04  0.00000000000E+00 0. -1.
         21   -1    0    0  501  502 -0.00000000000E+00 -0.00000000000E+00 -0.67406090955E+02  0.67406090955E+02  0.00000000000E+00 0. -1.
         25    1    1    2    0    0  0.13852412371E+03  0.12160185483E+03  0.51511008426E+03  0.56119456774E+03  0.12500000000E+03 0.  0.
         25    1    1    2    0    0 -0.20835577077E+03 -0.83678240130E+02  0.47254478762E+03  0.53790124688E+03  0.12500000000E+03 0.  0.
         25    1    1    2    0    0  0.69831647056E+02 -0.37923614696E+02  0.45768742721E+03  0.48105866639E+03  0.12500000000E+03 0.  0.
</event>
<event>
 5    0  0.5735425E-005  0.2103038E+03  0.7546771E-02  0.1141326E+00
         21   -1    0    0  502  501  0.00000000000E+00  0.00000000000E+00  0.32524548482E+03  0.32524548482E+03  0.00000000000E+00 0. -1.
         21   -1    0    0  501  502 -0.00000000000E+00 -0.00000000000E+00 -0.13598243749E+03  0.13598243749E+03  0.00000000000E+00 0. -1.
         25    1    1    2    0    0 -0.48281909658E+01 -0.13712629558E+02  0.89574914882E+01  0.12616094598E+03  0.12500000000E+03 0.  0.
         25    1    1    2    0    0  0.13898608150E+02  0.71208086128E+02  0.92635271955E+02  0.17166844919E+03  0.12500000000E+03 0.  0.
         25    1    1    2    0    0 -0.90704171839E+01 -0.57495456570E+02  0.87670283889E+02  0.16339852714E+03  0.12500000000E+03 0.  0.
</event>
<event>
 5    0  0.5735425E-005  0.4346214E+03  0.7546771E-02  0.1032410E+00
         21   -1    0    0  502  501  0.00000000000E+00  0.00000000000E+00  0.24853565609E+03  0.24853565609E+03  0.00000000000E+00 0.  1.
         21   -1    0    0  501  502 -0.00000000000E+00 -0.00000000000E+00 -0.76003493466E+03  0.76003493466E+03  0.00000000000E+00 0.  1.
         25    1    1    2    0    0  0.34574466250E+03  0.63299197736E+01 -0.10689396340E+03  0.38292395974E+03  0.12500000000E+03 0.  0.
         25    1    1    2    0    0 -0.32250281435E+03  0.28754303194E+01 -0.32937072393E+03  0.47762580243E+03  0.12500000000E+03 0.  0.
         25    1    1    2    0    0 -0.23241848146E+02 -0.92053500930E+01 -0.75234591238E+02  0.14802082858E+03  0.12500000000E+03 0.  0.
</event>
<event>
 5    0  0.5735425E-005  0.3188835E+03  0.7546771E-02  0.1076164E+00
         21   -1    0    0  502  501  0.00000000000E+00  0.00000000000E+00  0.22548275324E+03  0.22548275324E+03  0.00000000000E+00 0. -1.
         21   -1    0    0  501  502 -0.00000000000E+00 -0.00000000000E+00 -0.45097336984E+03  0.45097336984E+03  0.00000000000E+00 0. -1.
         25    1    1    2    0    0 -0.58590648801E+02  0.53490965639E+02 -0.24522510219E+03  0.28645156358E+03  0.12500000000E+03 0.  0.
         25    1    1    2    0    0  0.56598746526E+02  0.28130527691E+02  0.14018678268E+03  0.19817184143E+03  0.12500000000E+03 0.  0.
         25    1    1    2    0    0  0.19919022747E+01 -0.81621493331E+02 -0.12045229709E+03  0.19183271807E+03  0.12500000000E+03 0.  0.
</event>
<event>
 5    0  0.5735425E-005  0.3914379E+03  0.7546771E-02  0.1046785E+00
         21   -1    0    0  502  501  0.00000000000E+00  0.00000000000E+00  0.11164706037E+03  0.11164706037E+03  0.00000000000E+00 0. -1.
         21   -1    0    0  501  502 -0.00000000000E+00 -0.00000000000E+00 -0.13723929571E+04  0.13723929571E+04  0.00000000000E+00 0. -1.
         25    1    1    2    0    0  0.29947815046E+03  0.11576794919E+03 -0.60069966432E+03  0.69249871291E+03  0.12500000000E+03 0.  0.
         25    1    1    2    0    0 -0.21426552642E+03 -0.11890868740E+03 -0.33859867122E+03  0.43626030292E+03  0.12500000000E+03 0.  0.
         25    1    1    2    0    0 -0.85212624041E+02  0.31407382037E+01 -0.32144756118E+03  0.35528100164E+03  0.12500000000E+03 0.  0.
</event>
<event>
 5    0  0.5735425E-005  0.2620732E+03  0.7546771E-02  0.1105904E+00
         21   -1    0    0  502  501  0.00000000000E+00  0.00000000000E+00  0.12244246017E+03  0.12244246017E+03  0.00000000000E+00 0.  1.
         21   -1    0    0  501  502 -0.00000000000E+00 -0.00000000000E+00 -0.56093598089E+03  0.56093598089E+03  0.00000000000E+00 0.  1.
         25    1    1    2    0    0  0.65380036086E+02  0.62359904141E+02 -0.22584225136E+03  0.27348314255E+03  0.12500000000E+03 0.  0.
         25    1    1    2    0    0 -0.14234817128E+02  0.77361292509E+02 -0.13672869150E+03  0.20126384344E+03  0.12500000000E+03 0.  0.
         25    1    1    2    0    0 -0.51145218958E+02 -0.13972119665E+03 -0.75922577869E+02  0.20863145507E+03  0.12500000000E+03 0.  0.
</event>
<event>
 5    0  0.5735425E-005  0.3485969E+03  0.7546771E-02  0.1063192E+00
         21   -1    0    0  502  501  0.00000000000E+00  0.00000000000E+00  0.12988866888E+03  0.12988866888E+03  0.00000000000E+00 0. -1.
         21   -1    0    0  501  502 -0.00000000000E+00 -0.00000000000E+00 -0.93556889777E+03  0.93556889777E+03  0.00000000000E+00 0. -1.
         25    1    1    2    0    0  0.15468116851E+03 -0.10551454666E+03 -0.43122090547E+03  0.48645251850E+03  0.12500000000E+03 0.  0.
         25    1    1    2    0    0 -0.23639260717E+03  0.11670017130E+03 -0.25325644962E+03  0.38634728416E+03  0.12500000000E+03 0.  0.
         25    1    1    2    0    0  0.81711438655E+02 -0.11185624644E+02 -0.12120287380E+03  0.19265776398E+03  0.12500000000E+03 0.  0.
</event>
<event>
 5    0  0.5735425E-005  0.2635741E+03  0.7546771E-02  0.1105015E+00
         21   -1    0    0  502  501  0.00000000000E+00  0.00000000000E+00  0.51098442448E+02  0.51098442448E+02  0.00000000000E+00 0. -1.
         21   -1    0    0  501  502 -0.00000000000E+00 -0.00000000000E+00 -0.13595580562E+04  0.13595580562E+04  0.00000000000E+00 0. -1.
         25    1    1    2    0    0  0.56362982936E+02 -0.96563838920E+02 -0.25391136428E+03  0.30429811327E+03  0.12500000000E+03 0.  0.
         25    1    1    2    0    0 -0.36936959426E+02  0.10393650577E+03 -0.31859501764E+03  0.35957603017E+03  0.12500000000E+03 0.  0.
         25    1    1    2    0    0 -0.19426023510E+02 -0.73726668490E+01 -0.73595323183E+03  0.74678235521E+03  0.12500000000E+03 0.  0.
</event>
<event>
 5    0  0.5735425E-005  0.5650680E+03  0.7546771E-02  0.9980652E-01
         21   -1    0    0  502  501  0.00000000000E+00  0.00000000000E+00  0.60144447344E+03  0.60144447344E+03  0.00000000000E+00 0. -1.
         21   -1    0    0  501  502 -0.00000000000E+00 -0.00000000000E+00 -0.53089156233E+03  0.53089156233E+03  0.00000000000E+00 0.  1.
         25    1    1    2    0    0 -0.23045639069E+03 -0.18070002142E+03  0.15538984024E+03  0.35430727935E+03  0.12500000000E+03 0.  0.
         25    1    1    2    0    0  0.40704693532E+03 -0.54999568935E+02 -0.14362227471E+03  0.45273007182E+03  0.12500000000E+03 0.  0.
         25    1    1    2    0    0 -0.17659054463E+03  0.23569959036E+03  0.58785345580E+02  0.32529868460E+03  0.12500000000E+03 0.  0.
</event>
<event>
 5    0  0.5735425E-005  0.3722771E+03  0.7546771E-02  0.1053826E+00
         21   -1    0    0  502  501  0.00000000000E+00  0.00000000000E+00  0.26383425439E+03  0.26383425439E+03  0.00000000000E+00 0. -1.
         21   -1    0    0  501  502 -0.00000000000E+00 -0.00000000000E+00 -0.52529289653E+03  0.52529289653E+03  0.00000000000E+00 0. -1.
         25    1    1    2    0    0  0.19110607178E+03 -0.13412674716E+01 -0.72443433028E+02  0.23957541747E+03  0.12500000000E+03 0.  0.
         25    1    1    2    0    0  0.19309323651E+02 -0.73317893229E+02 -0.24715024820E+03  0.28715258772E+03  0.12500000000E+03 0.  0.
         25    1    1    2    0    0 -0.21041539543E+03  0.74659160701E+02  0.58135039097E+02  0.26239914573E+03  0.12500000000E+03 0.  0.
</event>
<event>
 5    0  0.5735425E-005  0.5366627E+03  0.7546771E-02  0.1004629E+00
         21   -1    0    0  502  501  0.00000000000E+00  0.00000000000E+00  0.54573912932E+03  0.54573912932E+03  0.00000000000E+00 0. -1.
         21   -1    0    0  501  502 -0.00000000000E+00 -0.00000000000E+00 -0.52773726587E+03  0.52773726587E+03  0.00000000000E+00 0. -1.
         25    1    1    2    0    0 -0.51711332859E+02 -0.41168137869E+03 -0.14662721421E+03  0.45747148485E+03  0.12500000000E+03 0.  0.
         25    1    1    2    0    0 -0.11690190676E+03  0.29785701838E+03  0.15544330285E+03  0.37705766085E+03  0.12500000000E+03 0.  0.
         25    1    1    2    0    0  0.16861323962E+03  0.11382436031E+03  0.91857748120E+01  0.23894724948E+03  0.12500000000E+03 0.  0.
</event>
<event>
 5    0  0.7356308E-005  0.3872308E+03  0.7546771E-02  0.1048293E+00
         21   -1    0    0  502  501  0.00000000000E+00  0.00000000000E+00  0.15661058218E+03  0.15661058218E+03  0.00000000000E+00 0.  1.
         21   -1    0    0  501  502 -0.00000000000E+00 -0.00000000000E+00 -0.95745570637E+03  0.95745570637E+03  0.00000000000E+00 0.  1.
         25    1    1    2    0    0  0.77830056840E+02  0.10257632122E+03 -0.37478362118E+02  0.18332770399E+03  0.12500000000E+03 0.  0.
         25    1    1    2    0    0 -0.16298364195E+03 -0.18446762242E+03 -0.19786105726E+03  0.33965566276E+03  0.12500000000E+03 0.  0.
         25    1    1    2    0    0  0.85153585106E+02  0.81891301202E+02 -0.56550570482E+03  0.59108292180E+03  0.12500000000E+03 0.  0.
</event>
<event>
 5    0  0.5735425E-005  0.2359810E+03  0.7546771E-02  0.1122499E+00
         21   -1    0    0  502  501  0.00000000000E+00  0.00000000000E+00  0.18824643381E+03  0.18824643381E+03  0.00000000000E+00 0. -1.
         21   -1    0    0  501  502 -0.00000000000E+00 -0.00000000000E+00 -0.29581996219E+03  0.29581996219E+03  0.00000000000E+00 0. -1.
         25    1    1    2    0    0 -0.23250288115E+02 -0.82173787471E+02 -0.26926309821E+02  0.15376323815E+03  0.12500000000E+03 0.  0.
         25    1    1    2    0    0  0.29154025017E+02 -0.37421065492E+02  0.11525781742E+02  0.13419439989E+03  0.12500000000E+03 0.  0.
         25    1    1    2    0    0 -0.59037369018E+01  0.11959485296E+03 -0.92173000300E+02  0.19610875796E+03  0.12500000000E+03 0.  0.
</event>
<event>
 5    0  0.5735425E-005  0.2563272E+03  0.7546771E-02  0.1109370E+00
         21   -1    0    0  502  501  0.00000000000E+00  0.00000000000E+00  0.25815550120E+02  0.25815550120E+02  0.00000000000E+00 0. -1.
         21   -1    0    0  501  502 -0.00000000000E+00 -0.00000000000E+00 -0.25451176450E+04  0.25451176450E+04  0.00000000000E+00 0. -1.
         25    1    1    2    0    0  0.13079453053E+02 -0.14282923531E+03 -0.64869069978E+03  0.67601470882E+03  0.12500000000E+03 0.  0.
         25    1    1    2    0    0 -0.30119127885E+02  0.81192283788E+02 -0.72800457866E+03  0.74371702640E+03  0.12500000000E+03 0.  0.
         25    1    1    2    0    0  0.17039674832E+02  0.61636951520E+02 -0.11426068164E+04  0.11512014599E+04  0.12500000000E+03 0.  0.
</event>
<event>
 5    0  0.5735425E-005  0.2877996E+03  0.7546771E-02  0.1091504E+00
         21   -1    0    0  502  501  0.00000000000E+00  0.00000000000E+00  0.85763014190E+02  0.85763014190E+02  0.00000000000E+00 0.  1.
         21   -1    0    0  501  502 -0.00000000000E+00 -0.00000000000E+00 -0.96578498843E+03  0.96578498843E+03  0.00000000000E+00 0.  1.
         25    1    1    2    0    0 -0.30400170122E+02  0.11362240174E+03 -0.26286996054E+03  0.31394240980E+03  0.12500000000E+03 0.  0.
         25    1    1    2    0    0  0.62885700575E+02 -0.20442029383E+02 -0.54449231808E+03  0.56255610596E+03  0.12500000000E+03 0.  0.
         25    1    1    2    0    0 -0.32485530453E+02 -0.93180372352E+02 -0.72659695615E+02  0.17504948685E+03  0.12500000000E+03 0.  0.
</event>
<event>
 5    0  0.5735425E-005  0.3214055E+03  0.7546771E-02  0.1075004E+00
         21   -1    0    0  502  501  0.00000000000E+00  0.00000000000E+00  0.12102645567E+03  0.12102645567E+03  0.00000000000E+00 0.  1.
         21   -1    0    0  501  502 -0.00000000000E+00 -0.00000000000E+00 -0.85354451295E+03  0.85354451295E+03  0.00000000000E+00 0.  1.
         25    1    1    2    0    0 -0.14605267255E+02 -0.13353033271E+03 -0.29681359346E+02  0.18587535253E+03  0.12500000000E+03 0.  0.
         25    1    1    2    0    0  0.11633236675E+03  0.72653058056E+02 -0.36181668540E+03  0.40663005328E+03  0.12500000000E+03 0.  0.
         25    1    1    2    0    0 -0.10172709950E+03  0.60877274653E+02 -0.34102001253E+03  0.38206556281E+03  0.12500000000E+03 0.  0.
</event>
<event>
 5    0  0.5735425E-005  0.2260213E+03  0.7546771E-02  0.1129472E+00
         21   -1    0    0  502  501  0.00000000000E+00  0.00000000000E+00  0.25462225358E+03  0.25462225358E+03  0.00000000000E+00 0.  1.
         21   -1    0    0  501  502 -0.00000000000E+00 -0.00000000000E+00 -0.20063297225E+03  0.20063297225E+03  0.00000000000E+00 0.  1.
         25    1    1    2    0    0  0.56207230564E+02 -0.59978296965E+02 -0.91353159543E+01  0.14988363110E+03  0.12500000000E+03 0.  0.
         25    1    1    2    0    0 -0.26595732138E+02  0.10086153277E+03  0.21108935906E+02  0.16416750268E+03  0.12500000000E+03 0.  0.
         25    1    1    2    0    0 -0.29611498425E+02 -0.40883235804E+02  0.42015661377E+02  0.14120409204E+03  0.12500000000E+03 0.  0.
</event>
<event>
 5    0  0.5735425E-005  0.2634800E+03  0.7546771E-02  0.1105070E+00
         21   -1    0    0  502  501  0.00000000000E+00  0.00000000000E+00  0.29528093114E+03  0.29528093114E+03  0.00000000000E+00 0. -1.
         21   -1    0    0  501  502 -0.00000000000E+00 -0.00000000000E+00 -0.23510390527E+03  0.23510390527E+03  0.00000000000E+00 0. -1.
         25    1    1    2    0    0 -0.21290096880E+02  0.43094473373E+02 -0.54093894188E+02  0.14443528395E+03  0.12500000000E+03 0.  0.
         25    1    1    2    0    0 -0.14349331246E+02  0.96443279068E+02 -0.91514642240E+01  0.15879533583E+03  0.12500000000E+03 0.  0.
         25    1    1    2    0    0  0.35639428126E+02 -0.13953775244E+03  0.12342238428E+03  0.22715421663E+03  0.12500000000E+03 0.  0.
</event>
<event>
 5    0  0.5735425E-005  0.3058431E+03  0.7546771E-02  0.1082356E+00
         21   -1    0    0  502  501  0.00000000000E+00  0.00000000000E+00  0.87622317420E+03  0.87622317420E+03  0.00000000000E+00 0.  1.
         21   -1    0    0  501  502 -0.00000000000E+00 -0.00000000000E+00 -0.10675364436E+03  0.10675364436E+03  0.00000000000E+00 0.  1.
         25    1    1    2    0    0  0.52516445706E+02 -0.16213000236E+02  0.63704332840E+03  0.65151365351E+03  0.12500000000E+03 0.  0.
         25    1    1    2    0    0  0.13470152136E+02 -0.49957634604E+02  0.14925366583E+02  0.13610649074E+03  0.12500000000E+03 0.  0.
         25    1    1    2    0    0 -0.65986597842E+02  0.66170634840E+02  0.11750083485E+03  0.19535667432E+03  0.12500000000E+03 0.  0.
</event>
<event>
 5    0  0.5735425E-005  0.2582759E+03  0.7546771E-02  0.1108184E+00
         21   -1    0    0  502  501  0.00000000000E+00  0.00000000000E+00  0.21808610641E+02  0.21808610641E+02  0.00000000000E+00 0. -1.
         21   -1    0    0  501  502 -0.00000000000E+00 -0.00000000000E+00 -0.30587200535E+04  0.30587200535E+04  0.00000000000E+00 0. -1.
         25    1    1    2    0    0 -0.39480125379E+02 -0.97796044797E+01 -0.85531751887E+03  0.86535968190E+03  0.12500000000E+03 0.  0.
         25    1    1    2    0    0  0.10293509244E+03 -0.59614176464E+02 -0.17017042640E+04  0.17104303217E+04  0.12500000000E+03 0.  0.
         25    1    1    2    0    0 -0.63454967066E+02  0.69393780944E+02 -0.47988965995E+03  0.50473866050E+03  0.12500000000E+03 0.  0.
</event>
<event>
 5    0  0.5735425E-005  0.3719469E+03  0.7546771E-02  0.1053951E+00
         21   -1    0    0  502  501  0.00000000000E+00  0.00000000000E+00  0.17169949301E+03  0.17169949301E+03  0.00000000000E+00 0. -1.
         21   -1    0    0  501  502 -0.00000000000E+00 -0.00000000000E+00 -0.80573610873E+03  0.80573610873E+03  0.00000000000E+00 0. -1.
         25    1    1    2    0    0  0.20145371796E+03 -0.67227679148E+02 -0.22394887042E+03  0.33298837500E+03  0.12500000000E+03 0.  0.
         25    1    1    2    0    0 -0.27493340938E+03  0.14052572632E+02 -0.13969104687E+03  0.33305321342E+03  0.12500000000E+03 0.  0.
         25    1    1    2    0    0  0.73479691428E+02  0.53175106517E+02 -0.27039669843E+03  0.31139401331E+03  0.12500000000E+03 0.  0.
</event>
<event>
 5    0  0.5735425E-005  0.3056892E+03  0.7546771E-02  0.1082431E+00
         21   -1    0    0  502  501  0.00000000000E+00  0.00000000000E+00  0.12343236148E+03  0.12343236148E+03  0.00000000000E+00 0. -1.
         21   -1    0    0  501  502 -0.00000000000E+00 -0.00000000000E+00 -0.75706143836E+03  0.75706143836E+03  0.00000000000E+00 0. -1.
         25    1    1    2    0    0 -0.11394433100E+03 -0.10856056425E+03 -0.22062600272E+03  0.29844520394E+03  0.12500000000E+03 0.  0.
         25    1    1    2    0    0  0.94247885028E+01  0.15794800222E+03 -0.34315940101E+03  0.39801981426E+03  0.12500000000E+03 0.  0.
         25    1    1    2    0    0  0.10451954249E+03 -0.49387437965E+02 -0.69843673153E+02  0.18402878164E+03  0.12500000000E+03 0.  0.
</event>
<event>
 5    0  0.5735425E-005  0.2897129E+03  0.7546771E-02  0.1090499E+00
         21   -1    0    0  502  501  0.00000000000E+00  0.00000000000E+00  0.19796232422E+03  0.19796232422E+03  0.00000000000E+00 0.  1.
         21   -1    0    0  501  502 -0.00000000000E+00 -0.00000000000E+00 -0.42398744908E+03  0.42398744908E+03  0.00000000000E+00 0.  1.
         25    1    1    2    0    0 -0.12889600616E+02  0.83265666027E+02 -0.65789601429E+02  0.16447669926E+03  0.12500000000E+03 0.  0.
         25    1    1    2    0    0 -0.46784817370E+02  0.10529391430E+03 -0.14425991934E+03  0.22296087516E+03  0.12500000000E+03 0.  0.
         25    1    1    2    0    0  0.59674417985E+02 -0.18855958033E+03 -0.15975604095E+02  0.23451219888E+03  0.12500000000E+03 0.  0.
</event>
<event>
 5    0  0.5735425E-005  0.2626816E+03  0.7546771E-02  0.1105543E+00
         21   -1    0    0  502  501  0.00000000000E+00  0.00000000000E+00  0.25227923681E+03  0.25227923681E+03  0.00000000000E+00 0.  1.
         21   -1    0    0  501  502 -0.00000000000E+00 -0.00000000000E+00 -0.27351283803E+03  0.27351283803E+03  0.00000000000E+00 0.  1.
         25    1    1    2    0    0 -0.35523476361E+02 -0.10916811445E+02  0.16431904126E+03  0.20977807671E+03  0.12500000000E+03 0.  0.
         25    1    1    2    0    0  0.79651552297E+01  0.91309015903E+01 -0.11259280651E+03  0.16866818651E+03  0.12500000000E+03 0.  0.
         25    1    1    2    0    0  0.27558321131E+02  0.17859098545E+01 -0.72959835980E+02  0.14734581163E+03  0.12500000000E+03 0.  0.
</event>
<event>
 5    0  0.5735425E-005  0.3701052E+03  0.7546771E-02  0.1054653E+00
         21   -1    0    0  502  501  0.00000000000E+00  0.00000000000E+00  0.30823084052E+03  0.30823084052E+03  0.00000000000E+00 0.  1.
         21   -1    0    0  501  502 -0.00000000000E+00 -0.00000000000E+00 -0.44440016569E+03  0.44440016569E+03  0.00000000000E+00 0.  1.
         25    1    1    2    0    0  0.14369471016E+03 -0.11640354808E+03  0.80111853303E+02  0.23715156499E+03  0.12500000000E+03 0.  0.
         25    1    1    2    0    0 -0.12686331284E+02  0.17669487397E+03 -0.23969037685E+03  0.32320039951E+03  0.12500000000E+03 0.  0.
         25    1    1    2    0    0 -0.13100837888E+03 -0.60291325881E+02  0.23409198376E+02  0.19227904171E+03  0.12500000000E+03 0.  0.
</event>
<event>
 5    0  0.5735425E-005  0.4753160E+03  0.7546771E-02  0.1020430E+00
         21   -1    0    0  502  501  0.00000000000E+00  0.00000000000E+00  0.14889826416E+04  0.14889826416E+04  0.00000000000E+00 0.  1.
         21   -1    0    0  501  502 -0.00000000000E+00 -0.00000000000E+00 -0.15173129044E+03  0.15173129044E+03  0.00000000000E+00 0.  1.
         25    1    1    2    0    0 -0.33539615996E+03 -0.79243753744E+02  0.28951451271E+03  0.46713361011E+03  0.12500000000E+03 0.  0.
         25    1    1    2    0    0  0.87506290120E+02 -0.10639659696E+03  0.48161085484E+03  0.51628635674E+03  0.12500000000E+03 0.  0.
         25    1    1    2    0    0  0.24788986984E+03  0.18564035070E+03  0.56612598365E+03  0.65729396524E+03  0.12500000000E+03 0.  0.
</event>
<event>
 5    0  0.5735425E-005  0.3776739E+03  0.7546771E-02  0.1051797E+00
         21   -1    0    0  502  501  0.00000000000E+00  0.00000000000E+00  0.11564545708E+03  0.11564545708E+03  0.00000000000E+00 0. -1.
         21   -1    0    0  501  502 -0.00000000000E+00 -0.00000000000E+00 -0.12334040512E+04  0.12334040512E+04  0.00000000000E+00 0. -1.
         25    1    1    2    0    0  0.18748192287E+03 -0.10960426986E+03 -0.68564416568E+03  0.72999691048E+03  0.12500000000E+03 0.  0.
         25    1    1    2    0    0 -0.99244564151E+02 -0.72406239396E+02 -0.29891589601E+03  0.34650809501E+03  0.12500000000E+03 0.  0.
         25    1    1    2    0    0 -0.88237358721E+02  0.18201050925E+03 -0.13319853239E+03  0.27254450276E+03  0.12500000000E+03 0.  0.
</event>
<event>
 5    0  0.5735425E-005  0.2875620E+03  0.7546771E-02  0.1091629E+00
         21   -1    0    0  502  501  0.00000000000E+00  0.00000000000E+00  0.14673395340E+03  0.14673395340E+03  0.00000000000E+00 0.  1.
         21   -1    0    0  501  502 -0.00000000000E+00 -0.00000000000E+00 -0.56354975711E+03  0.56354975711E+03  0.00000000000E+00 0.  1.
         25    1    1    2    0    0 -0.49789146166E+01  0.83715233229E+02 -0.10673435833E+03  0.18452710672E+03  0.12500000000E+03 0.  0.
         25    1    1    2    0    0 -0.52509352908E+02  0.68030638452E+02  0.28838355389E+01  0.15171920254E+03  0.12500000000E+03 0.  0.
         25    1    1    2    0    0  0.57488267524E+02 -0.15174587168E+03 -0.31296528092E+03  0.37403740126E+03  0.12500000000E+03 0.  0.
</event>
<event>
 5    0  0.5735425E-005  0.3202057E+03  0.7546771E-02  0.1075555E+00
         21   -1    0    0  502  501  0.00000000000E+00  0.00000000000E+00  0.24703452496E+04  0.24703452496E+04  0.00000000000E+00 0. -1.
         21   -1    0    0  501  502 -0.00000000000E+00 -0.00000000000E+00 -0.41504993741E+02  0.41504993741E+02  0.00000000000E+00 0. -1.
         25    1    1    2    0    0 -0.11374072383E+03  0.11228755474E+03  0.87009875441E+03  0.89344406072E+03  0.12500000000E+03 0.  0.
         25    1    1    2    0    0  0.20905050334E+03 -0.33203611291E+02  0.10985962364E+04  0.11257634224E+04  0.12500000000E+03 0.  0.
         25    1    1    2    0    0 -0.95309779502E+02 -0.79083943449E+02  0.46014526507E+03  0.49264276017E+03  0.12500000000E+03 0.  0.
</event>
<event>
 5    0  0.5735425E-005  0.2767233E+03  0.7546771E-02  0.1097492E+00
         21   -1    0    0  502  501  0.00000000000E+00  0.00000000000E+00  0.20646865448E+03  0.20646865448E+03  0.00000000000E+00 0.  1.
         21   -1    0    0  501  502 -0.00000000000E+00 -0.00000000000E+00 -0.37088339626E+03  0.37088339626E+03  0.00000000000E+00 0.  1.
         25    1    1    2    0    0  0.87429120189E+02 -0.10623253906E+03 -0.64481334197E+02  0.19675376965E+03  0.12500000000E+03 0.  0.
         25    1    1    2    0    0 -0.90771040442E+02 -0.53166015397E+02 -0.60415015197E+02  0.17418662703E+03  0.12500000000E+03 0.  0.
         25    1    1    2    0    0  0.33419202532E+01  0.15939855445E+03 -0.39518392380E+02  0.20641165405E+03  0.12500000000E+03 0.  0.
</event>
<event>
 5    0  0.5735425E-005  0.2997760E+03  0.7546771E-02  0.1085353E+00
         21   -1    0    0  502  501  0.00000000000E+00  0.00000000000E+00  0.18052521527E+03  0.18052521527E+03  0.00000000000E+00 0. -1.
         21   -1    0    0  501  502 -0.00000000000E+00 -0.00000000000E+00 -0.49780109298E+03  0.49780109298E+03  0.00000000000E+00 0. -1.
         25    1    1    2    0    0  0.97069167855E+02  0.20340844601E+03 -0.16948178308E+03  0.30845825334E+03  0.12500000000E+03 0.  0.
         25    1    1    2    0    0 -0.57648121162E+02 -0.12266882347E+03 -0.92640638637E+02  0.20634493948E+03  0.12500000000E+03 0.  0.
         25    1    1    2    0    0 -0.39421046693E+02 -0.80739622542E+02 -0.55153455999E+02  0.16352311543E+03  0.12500000000E+03 0.  0.
</event>
<event>
 5    0  0.5735425E-005  0.3192466E+03  0.7546771E-02  0.1075997E+00
         21   -1    0    0  502  501  0.00000000000E+00  0.00000000000E+00  0.60456759314E+02  0.60456759314E+02  0.00000000000E+00 0. -1.
         21   -1    0    0  501  502 -0.00000000000E+00 -0.00000000000E+00 -0.16858063497E+04  0.16858063497E+04  0.00000000000E+00 0. -1.
         25    1    1    2    0    0  0.90624692416E+02 -0.13987259150E+01 -0.12324782143E+03  0.19755965377E+03  0.12500000000E+03 0.  0.
         25    1    1    2    0    0  0.64211801464E+02 -0.62704428734E+02 -0.85283054886E+03  0.86660253052E+03  0.12500000000E+03 0.  0.
         25    1    1    2    0    0 -0.15483649388E+03  0.64103154649E+02 -0.64927122011E+03  0.68210092474E+03  0.12500000000E+03 0.  0.
</event>
<event>
 5    0  0.5735425E-005  0.2752901E+03  0.7546771E-02  0.1098290E+00
         21   -1    0    0  502  501  0.00000000000E+00  0.00000000000E+00  0.15191647304E+03  0.15191647304E+03  0.00000000000E+00 0.  1.
         21   -1    0    0  501  502 -0.00000000000E+00 -0.00000000000E+00 -0.49885722183E+03  0.49885722183E+03  0.00000000000E+00 0. -1.
         25    1    1    2    0    0 -0.15893679996E+03  0.28420125256E+02 -0.10599993696E+03  0.23006433130E+03  0.12500000000E+03 0.  0.
         25    1    1    2    0    0  0.13889665850E+03  0.34822549235E+02 -0.19403597005E+03  0.27162446383E+03  0.12500000000E+03 0.  0.
         25    1    1    2    0    0  0.20040141456E+02 -0.63242674492E+02 -0.46904841779E+02  0.14908489973E+03  0.12500000000E+03 0.  0.
</event>
<event>
 5    0  0.5735425E-005  0.2872873E+03  0.7546771E-02  0.1091774E+00
         21   -1    0    0  502  501  0.00000000000E+00  0.00000000000E+00  0.19562538552E+04  0.19562538552E+04  0.00000000000E+00 0. -1.
         21   -1    0    0  501  502 -0.00000000000E+00 -0.00000000000E+00 -0.42189823347E+02  0.42189823347E+02  0.00000000000E+00 0. -1.
         25    1    1    2    0    0  0.54931981876E+02 -0.19506432372E+02  0.39118665000E+03  0.41478912555E+03  0.12500000000E+03 0.  0.
         25    1    1    2    0    0 -0.14764099380E+03  0.39634372245E+01  0.12815716830E+04  0.12960958879E+04  0.12500000000E+03 0.  0.
         25    1    1    2    0    0  0.92709011928E+02  0.15542995147E+02  0.24130569885E+03  0.28755866513E+03  0.12500000000E+03 0.  0.
</event>
<event>
 5    0  0.5735425E-005  0.2414912E+03  0.7546771E-02  0.1118803E+00
         21   -1    0    0  502  501  0.00000000000E+00  0.00000000000E+00  0.46420446480E+03  0.46420446480E+03  0.00000000000E+00 0. -1.
         21   -1    0    0  501  502 -0.00000000000E+00 -0.00000000000E+00 -0.12563000470E+03  0.12563000470E+03  0.00000000000E+00 0. -1.
         25    1    1    2    0    0 -0.25998625997E+02 -0.79569688343E+02  0.42100948309E+02  0.15622020902E+03  0.12500000000E+03 0.  0.
         25    1    1    2    0    0  0.61494944703E+02  0.62866448589E+02  0.61820727316E+02  0.16486546305E+03  0.12500000000E+03 0.  0.
         25    1    1    2    0    0 -0.35496318706E+02  0.16703239754E+02  0.23465278447E+03  0.26874879743E+03  0.12500000000E+03 0.  0.
</event>
<event>
 5    0  0.5735425E-005  0.2309491E+03  0.7546771E-02  0.1125974E+00
         21   -1    0    0  502  501  0.00000000000E+00  0.00000000000E+00  0.22380843592E+03  0.22380843592E+03  0.00000000000E+00 0.  1.
         21   -1    0    0  501  502 -0.00000000000E+00 -0.00000000000E+00 -0.23831761055E+03  0.23831761055E+03  0.00000000000E+00 0.  1.
         25    1    1    2    0    0 -0.53086666228E+02  0.11146268395E+02 -0.30491783476E+02  0.13963231105E+03  0.12500000000E+03 0.  0.
         25    1    1    2    0    0 -0.70166835529E+02  0.79926736145E+01  0.24761260767E+02  0.14568935333E+03  0.12500000000E+03 0.  0.
         25    1    1    2    0    0  0.12325350176E+03 -0.19138942009E+02 -0.87786519227E+01  0.17680438209E+03  0.12500000000E+03 0.  0.
</event>
<event>
 5    0  0.5735425E-005  0.3886457E+03  0.7546771E-02  0.1047784E+00
         21   -1    0    0  502  501  0.00000000000E+00  0.00000000000E+00  0.11937527476E+03  0.11937527476E+03  0.00000000000E+00 0.  1.
         21   -1    0    0  501  502 -0.00000000000E+00 -0.00000000000E+00 -0.12652996638E+04  0.12652996638E+04  0.00000000000E+00 0.  1.
         25    1    1    2    0    0 -0.39463242093E+02  0.56130773262E+02 -0.91971541870E+03  0.93070374587E+03  0.12500000000E+03 0.  0.
         25    1    1    2    0    0  0.15461675569E+03 -0.77480159393E+02 -0.17269430504E+03  0.27451382339E+03  0.12500000000E+03 0.  0.
         25    1    1    2    0    0 -0.11515351360E+03  0.21349386130E+02 -0.53514665260E+02  0.17945736926E+03  0.12500000000E+03 0.  0.
</event>
<event>
 5    0  0.6139945E-005  0.3341785E+03  0.7546771E-02  0.1069303E+00
         21   -1    0    0  502  501  0.00000000000E+00  0.00000000000E+00  0.72576731142E+03  0.72576731142E+03  0.00000000000E+00 0.  1.
         21   -1    0    0  501  502 -0.00000000000E+00 -0.00000000000E+00 -0.15387199051E+03  0.15387199051E+03  0.00000000000E+00 0.  1.
         25    1    1    2    0    0  0.19306084786E+03 -0.48216520740E+02  0.22193908480E+03  0.32323254974E+03  0.12500000000E+03 0.  0.
         25    1    1    2    0    0  0.18604517161E+02 -0.86257516470E+01  0.21063671120E+01  0.12668847001E+03  0.12500000000E+03 0.  0.
         25    1    1    2    0    0 -0.21166536503E+03  0.56842272387E+02  0.34784986899E+03  0.42971828218E+03  0.12500000000E+03 0.  0.
</event>
<event>
 5    0  0.5735425E-005  0.5768195E+03  0.7546771E-02  0.9954700E-01
         21   -1    0    0  502  501  0.00000000000E+00  0.00000000000E+00  0.12064003612E+04  0.12064003612E+04  0.00000000000E+00 0.  1.
         21   -1    0    0  501  502 -0.00000000000E+00 -0.00000000000E+00 -0.27579632229E+03  0.27579632229E+03  0.00000000000E+00 0.  1.
         25    1    1    2    0    0 -0.19613875238E+02 -0.30788761615E+02  0.32810399658E+03  0.35300125285E+03  0.12500000000E+03 0.  0.
         25    1    1    2    0    0 -0.37228174241E+03  0.11360429177E+03  0.17385460003E+02  0.40917830472E+03  0.12500000000E+03 0.  0.
         25    1    1    2    0    0  0.39189561764E+03 -0.82815530159E+02  0.58511458232E+03  0.72001712591E+03  0.12500000000E+03 0.  0.
</event>
<event>
 5    0  0.5735425E-005  0.4372943E+03  0.7546771E-02  0.1031580E+00
         21   -1    0    0  502  501  0.00000000000E+00  0.00000000000E+00  0.18658633009E+03  0.18658633009E+03  0.00000000000E+00 0. -1.
         21   -1    0    0  501  502 -0.00000000000E+00 -0.00000000000E+00 -0.10248675778E+04  0.10248675778E+04  0.00000000000E+00 0. -1.
         25    1    1    2    0    0 -0.93114573916E+02 -0.12331083115E+03 -0.18639550939E+03  0.27247783557E+03  0.12500000000E+03 0.  0.
         25    1    1    2    0    0  0.26388985909E+03  0.24135786829E+03 -0.56758721526E+03  0.68240143995E+03  0.12500000000E+03 0.  0.
         25    1    1    2    0    0 -0.17077528517E+03 -0.11804703715E+03 -0.84298523106E+02  0.25657463242E+03  0.12500000000E+03 0.  0.
</event>
<event>
 5    0  0.5735425E-005  0.3182961E+03  0.7546771E-02  0.1076436E+00
         21   -1    0    0  502  501  0.00000000000E+00  0.00000000000E+00  0.17817122101E+03  0.17817122101E+03  0.00000000000E+00 0.  1.
         21   -1    0    0  501  502 -0.00000000000E+00 -0.00000000000E+00 -0.56862394773E+03  0.56862394773E+03  0.00000000000E+00 0.  1.
         25    1    1    2    0    0 -0.48538812635E+02  0.78365965875E+02  0.45151415219E+02  0.16174328807E+03  0.12500000000E+03 0.  0.
         25    1    1    2    0    0  0.12892287637E+03  0.36583998403E+02 -0.12427963712E+03  0.22142702001E+03  0.12500000000E+03 0.  0.
         25    1    1    2    0    0 -0.80384063730E+02 -0.11494996428E+03 -0.31132450482E+03  0.36362486066E+03  0.12500000000E+03 0.  0.
</event>
<event>
 5    0  0.5735425E-005  0.2552837E+03  0.7546771E-02  0.1110010E+00
         21   -1    0    0  502  501  0.00000000000E+00  0.00000000000E+00  0.47776595947E+03  0.47776595947E+03  0.00000000000E+00 0. -1.
         21   -1    0    0  501  502 -0.00000000000E+00 -0.00000000000E+00 -0.13640520689E+03  0.13640520689E+03  0.00000000000E+00 0. -1.
         25    1    1    2    0    0 -0.14186922154E+03 -0.36444395893E+02  0.19226976574E+03  0.27211713072E+03  0.12500000000E+03 0.  0.
         25    1    1    2    0    0  0.48123700039E+02  0.61639684478E+02  0.51824360479E+02  0.15628853300E+03  0.12500000000E+03 0.  0.
         25    1    1    2    0    0  0.93745521506E+02 -0.25195288586E+02  0.97266626358E+02  0.18576550264E+03  0.12500000000E+03 0.  0.
</event>
<event>
 5    0  0.7790262E-005  0.3289891E+03  0.7546771E-02  0.1071585E+00
         21   -1    0    0  502  501  0.00000000000E+00  0.00000000000E+00  0.68041319405E+03  0.68041319405E+03  0.00000000000E+00 0.  1.
         21   -1    0    0  501  502 -0.00000000000E+00 -0.00000000000E+00 -0.15907069070E+03  0.15907069070E+03  0.00000000000E+00 0.  1.
         25    1    1    2    0    0  0.96501867924E+02 -0.19362228818E+02 -0.38157891613E+02  0.16361091379E+03  0.12500000000E+03 0.  0.
         25    1    1    2    0    0 -0.13818838834E+03  0.76488255113E+01  0.13228717309E+03  0.22864695793E+03  0.12500000000E+03 0.  0.
         25    1    1    2    0    0  0.41686520416E+02  0.11713403307E+02  0.42721322186E+03  0.44722601304E+03  0.12500000000E+03 0.  0.
</event>
<event>
 5    0  0.6669445E-005  0.2900593E+03  0.7546771E-02  0.1090318E+00
         21   -1    0    0  502  501  0.00000000000E+00  0.00000000000E+00  0.15742400386E+03  0.15742400386E+03  0.00000000000E+00 0. -1.
         21   -1    0    0  501  502 -0.00000000000E+00 -0.00000000000E+00 -0.53444446622E+03  0.53444446622E+03  0.00000000000E+00 0. -1.
         25    1    1    2    0    0 -0.28737533394E+02  0.14633238143E+03 -0.33066462687E+03  0.38367057112E+03  0.12500000000E+03 0.  0.
         25    1    1    2    0    0  0.56544604679E+02 -0.83802074752E+02 -0.97235416481E+01  0.16105783841E+03  0.12500000000E+03 0.  0.
         25    1    1    2    0    0 -0.27807071284E+02 -0.62530306682E+02 -0.36632293838E+02  0.14714006055E+03  0.12500000000E+03 0.  0.
</event>
<event>
 5    0  0.5735425E-005  0.3675037E+03  0.7546771E-02  0.1055652E+00
         21   -1    0    0  502  501  0.00000000000E+00  0.00000000000E+00  0.12024969121E+03  0.12024969121E+03  0.00000000000E+00 0.  1.
         21   -1    0    0  501  502 -0.00000000000E+00 -0.00000000000E+00 -0.11231543305E+04  0.11231543305E+04  0.00000000000E+00 0.  1.
         25    1    1    2    0    0 -0.95190902100E+02  0.15759963456E+02 -0.48564896617E+03  0.51067563348E+03  0.12500000000E+03 0.  0.
         25    1    1    2    0    0 -0.42463861771E+02  0.18789674134E+03 -0.31913535468E+03  0.39316757187E+03  0.12500000000E+03 0.  0.
         25    1    1    2    0    0  0.13765476387E+03 -0.20365670479E+03 -0.19812031841E+03  0.33956081633E+03  0.12500000000E+03 0.  0.
</event>
<event>
 5    0  0.5880835E-005  0.3788789E+03  0.7546771E-02  0.1051349E+00
         21   -1    0    0  502  501  0.00000000000E+00  0.00000000000E+00  0.87060294521E+03  0.87060294521E+03  0.00000000000E+00 0.  1.
         21   -1    0    0  501  502 -0.00000000000E+00 -0.00000000000E+00 -0.16488486033E+03  0.16488486033E+03  0.00000000000E+00 0.  1.
         25    1    1    2    0    0  0.21608900817E+03 -0.47455218893E+02  0.12511746626E+03  0.28324165939E+03  0.12500000000E+03 0.  0.
         25    1    1    2    0    0 -0.80642719923E+01  0.28023086119E+02  0.46562886106E+03  0.48299644107E+03  0.12500000000E+03 0.  0.
         25    1    1    2    0    0 -0.20802473618E+03  0.19432132775E+02  0.11497175756E+03  0.26924970507E+03  0.12500000000E+03 0.  0.
</event>
<event>
 5    0  0.5735425E-005  0.2257930E+03  0.7546771E-02  0.1129636E+00
         21   -1    0    0  502  501  0.00000000000E+00  0.00000000000E+00  0.54208012570E+03  0.54208012570E+03  0.00000000000E+00 0.  1.
         21   -1    0    0  501  502 -0.00000000000E+00 -0.00000000000E+00 -0.94049719221E+02  0.94049719221E+02  0.00000000000E+00 0.  1.
         25    1    1    2    0    0 -0.12199441724E+02  0.26242304644E+02  0.41714953198E+02  0.13491709399E+03  0.12500000000E+03 0.  0.
         25    1    1    2    0    0  0.12096899736E+02 -0.88582849286E+02  0.20630864969E+03  0.25725768231E+03  0.12500000000E+03 0.  0.
         25    1    1    2    0    0  0.10254198795E+00  0.62340544642E+02  0.20000680359E+03  0.24395506862E+03  0.12500000000E+03 0.  0.
</event>
<event>
 5    0  0.5735425E-005  0.2498166E+03  0.7546771E-02  0.1113421E+00
         21   -1    0    0  502  501  0.00000000000E+00  0.00000000000E+00  0.49587323275E+03  0.49587323275E+03  0.00000000000E+00 0.  1.
         21   -1    0    0  501  502 -0.00000000000E+00 -0.00000000000E+00 -0.12585537779E+03  0.12585537779E+03  0.00000000000E+00 0.  1.
         25    1    1    2    0    0  0.49340631430E+02  0.76448850462E+02  0.59208043535E+02  0.16555819843E+03  0.12500000000E+03 0.  0.
         25    1    1    2    0    0  0.69960444762E+02 -0.73485037951E+02  0.14477534250E+03  0.21651654540E+03  0.12500000000E+03 0.  0.
         25    1    1    2    0    0 -0.11930107619E+03 -0.29638125109E+01  0.16603446892E+03  0.23965386672E+03  0.12500000000E+03 0.  0.
</event>
<event>
 5    0  0.5735425E-005  0.3658827E+03  0.7546771E-02  0.1056279E+00
         21   -1    0    0  502  501  0.00000000000E+00  0.00000000000E+00  0.20186136183E+03  0.20186136183E+03  0.00000000000E+00 0. -1.
         21   -1    0    0  501  502 -0.00000000000E+00 -0.00000000000E+00 -0.66317871388E+03  0.66317871388E+03  0.00000000000E+00 0. -1.
         25    1    1    2    0    0  0.14610845145E+03  0.11445340466E+03  0.40830942189E+02  0.22746302395E+03  0.12500000000E+03 0.  0.
         25    1    1    2    0    0 -0.50414738181E+02 -0.14681243747E+03 -0.14665739285E+03  0.24744479889E+03  0.12500000000E+03 0.  0.
         25    1    1    2    0    0 -0.95693713268E+02  0.32359032808E+02 -0.35549090138E+03  0.39013225287E+03  0.12500000000E+03 0.  0.
</event>
<event>
 5    0  0.5735425E-005  0.3002068E+03  0.7546771E-02  0.1085137E+00
         21   -1    0    0  502  501  0.00000000000E+00  0.00000000000E+00  0.13318218304E+03  0.13318218304E+03  0.00000000000E+00 0. -1.
         21   -1    0    0  501  502 -0.00000000000E+00 -0.00000000000E+00 -0.67669795122E+03  0.67669795122E+03  0.00000000000E+00 0. -1.
         25    1    1    2    0    0  0.37227302666E+02 -0.33695739662E+02 -0.28649068169E+03  0.31658045681E+03  0.12500000000E+03 0.  0.
         25    1    1    2    0    0  0.77209542524E+02  0.11690002645E+03 -0.23858912930E+03  0.30360616308E+03  0.12500000000E+03 0.  0.
         25    1    1    2    0    0 -0.11443684519E+03 -0.83204286785E+02 -0.18435957194E+02  0.18969351437E+03  0.12500000000E+03 0.  0.
</event>
<event>
 5    0  0.5735425E-005  0.2603483E+03  0.7546771E-02  0.1106934E+00
         21   -1    0    0  502  501  0.00000000000E+00  0.00000000000E+00  0.19683953383E+02  0.19683953383E+02  0.00000000000E+00 0.  1.
         21   -1    0    0  501  502 -0.00000000000E+00 -0.00000000000E+00 -0.34434778389E+04  0.34434778389E+04  0.00000000000E+00 0.  1.
         25    1    1    2    0    0  0.75014618894E+02  0.24260265760E+02 -0.64168188155E+03  0.65848036467E+03  0.12500000000E+03 0.  0.
         25    1    1    2    0    0 -0.13893716101E+03  0.30464755139E+02 -0.19376621714E+04  0.19468927362E+04  0.12500000000E+03 0.  0.
         25    1    1    2    0    0  0.63922542113E+02 -0.54725020900E+02 -0.84444983258E+03  0.85778869137E+03  0.12500000000E+03 0.  0.
</event>
<event>
 5    0  0.5735425E-005  0.7883320E+03  0.7546771E-02  0.9577061E-01
         21   -1    0    0  502  501  0.00000000000E+00  0.00000000000E+00  0.47108816878E+03  0.47108816878E+03  0.00000000000E+00 0. -1.
         21   -1    0    0  501  502 -0.00000000000E+00 -0.00000000000E+00 -0.13192165543E+04  0.13192165543E+04  0.00000000000E+00 0. -1.
         25    1    1    2    0    0 -0.23932786682E+03  0.19090513208E+03 -0.68253549901E+02  0.33764795922E+03  0.12500000000E+03 0.  0.
         25    1    1    2    0    0  0.23776081468E+03 -0.97495040621E+02 -0.10784992184E+04  0.11157154888E+04  0.12500000000E+03 0.  0.
         25    1    1    2    0    0  0.15670521375E+01 -0.93410091460E+02  0.29862438277E+03  0.33694127504E+03  0.12500000000E+03 0.  0.
</event>
<event>
 5    0  0.5735425E-005  0.3051483E+03  0.7546771E-02  0.1082695E+00
         21   -1    0    0  502  501  0.00000000000E+00  0.00000000000E+00  0.40346786177E+03  0.40346786177E+03  0.00000000000E+00 0.  1.
         21   -1    0    0  501  502 -0.00000000000E+00 -0.00000000000E+00 -0.23078781885E+03  0.23078781885E+03  0.00000000000E+00 0.  1.
         25    1    1    2    0    0  0.49486885605E+02 -0.26669009989E+02  0.11036440275E+02  0.13750269435E+03  0.12500000000E+03 0.  0.
         25    1    1    2    0    0  0.13161325631E+03 -0.10482638453E+03  0.41621363870E+02  0.21370062719E+03  0.12500000000E+03 0.  0.
         25    1    1    2    0    0 -0.18110014191E+03  0.13149539452E+03  0.12002223877E+03  0.28305235908E+03  0.12500000000E+03 0.  0.
</event>
<event>
 5    0  0.5735425E-005  0.2374722E+03  0.7546771E-02  0.1121488E+00
         21   -1    0    0  502  501  0.00000000000E+00  0.00000000000E+00  0.20738066263E+03  0.20738066263E+03  0.00000000000E+00 0.  1.
         21   -1    0    0  501  502 -0.00000000000E+00 -0.00000000000E+00 -0.27193013424E+03  0.27193013424E+03  0.00000000000E+00 0.  1.
         25    1    1    2    0    0  0.31512520858E+02 -0.44189137155E+02  0.16165554205E+02  0.13722989454E+03  0.12500000000E+03 0.  0.
         25    1    1    2    0    0  0.71526090637E+02  0.40158838844E+02  0.20670606330E+02  0.15093372037E+03  0.12500000000E+03 0.  0.
         25    1    1    2    0    0 -0.10303861149E+03  0.40302983113E+01 -0.10138563215E+03  0.19114718195E+03  0.12500000000E+03 0.  0.
</event>
<event>
 5    0  0.5766419E-005  0.3190475E+03  0.7546771E-02  0.1076089E+00
         21   -1    0    0  502  501  0.00000000000E+00  0.00000000000E+00  0.64574402292E+03  0.64574402292E+03  0.00000000000E+00 0. -1.
         21   -1    0    0  501  502 -0.00000000000E+00 -0.00000000000E+00 -0.15763414680E+03  0.15763414680E+03  0.00000000000E+00 0. -1.
         25    1    1    2    0    0 -0.78069236235E+02  0.74919330816E+02  0.10206963136E+03  0.19429596347E+03  0.12500000000E+03 0.  0.
         25    1    1    2    0    0  0.11372526872E+03 -0.20688122236E+03  0.14145082310E+03  0.30226910571E+03  0.12500000000E+03 0.  0.
         25    1    1    2    0    0 -0.35656032483E+02  0.13196189155E+03  0.24458942166E+03  0.30681310054E+03  0.12500000000E+03 0.  0.
</event>
<event>
 5    0  0.5735425E-005  0.3110632E+03  0.7546771E-02  0.1079837E+00
         21   -1    0    0  502  501  0.00000000000E+00  0.00000000000E+00  0.12802501505E+03  0.12802501505E+03  0.00000000000E+00 0. -1.
         21   -1    0    0  501  502 -0.00000000000E+00 -0.00000000000E+00 -0.75579246440E+03  0.75579246440E+03  0.00000000000E+00 0. -1.
         25    1    1    2    0    0 -0.53260449141E+02  0.18292152168E+03 -0.13646662162E+03  0.26560327060E+03  0.12500000000E+03 0.  0.
         25    1    1    2    0    0 -0.48338229900E+02 -0.15726591397E+03 -0.32614766724E+03  0.38609124959E+03  0.12500000000E+03 0.  0.
         25    1    1    2    0    0  0.10159867904E+03 -0.25655607712E+02 -0.16515316050E+03  0.23212295925E+03  0.12500000000E+03 0.  0.
</event>
<event>
 5    0  0.5735425E-005  0.5809478E+03  0.7546771E-02  0.9945741E-01
         21   -1    0    0  502  501  0.00000000000E+00  0.00000000000E+00  0.12719621907E+04  0.12719621907E+04  0.00000000000E+00 0. -1.
         21   -1    0    0  501  502 -0.00000000000E+00 -0.00000000000E+00 -0.26533836635E+03  0.26533836635E+03  0.00000000000E+00 0. -1.
         25    1    1    2    0    0 -0.11039551957E+03  0.35449414969E+03  0.23307821108E+03  0.45585493897E+03  0.12500000000E+03 0.  0.
         25    1    1    2    0    0  0.13255823160E+02 -0.33596986639E+03  0.83642727060E+03  0.91010276726E+03  0.12500000000E+03 0.  0.
         25    1    1    2    0    0  0.97139696410E+02 -0.18524283296E+02 -0.62881657347E+02  0.17134285080E+03  0.12500000000E+03 0.  0.
</event>
<event>
 5    0  0.5735425E-005  0.3184543E+03  0.7546771E-02  0.1076363E+00
         21   -1    0    0  502  501  0.00000000000E+00  0.00000000000E+00  0.21620826452E+03  0.21620826452E+03  0.00000000000E+00 0. -1.
         21   -1    0    0  501  502 -0.00000000000E+00 -0.00000000000E+00 -0.46905290435E+03  0.46905290435E+03  0.00000000000E+00 0. -1.
         25    1    1    2    0    0 -0.27899418123E+02  0.59256537512E+02  0.15162090499E+01  0.14112765023E+03  0.12500000000E+03 0.  0.
         25    1    1    2    0    0 -0.12061744226E+03 -0.17182134261E+03 -0.19339209693E+03  0.31160334451E+03  0.12500000000E+03 0.  0.
         25    1    1    2    0    0  0.14851686038E+03  0.11256480510E+03 -0.60968751951E+02  0.23253017413E+03  0.12500000000E+03 0.  0.
</event>
<event>
 5    0  0.5735425E-005  0.3397861E+03  0.7546771E-02  0.1066887E+00
         21   -1    0    0  502  501  0.00000000000E+00  0.00000000000E+00  0.11091325863E+03  0.11091325863E+03  0.00000000000E+00 0.  1.
         21   -1    0    0  501  502 -0.00000000000E+00 -0.00000000000E+00 -0.10409450486E+04  0.10409450486E+04  0.00000000000E+00 0.  1.
         25    1    1    2    0    0 -0.52555102597E+02 -0.66378777818E+02 -0.38582350253E+03  0.41431021717E+03  0.12500000000E+03 0.  0.
         25    1    1    2    0    0 -0.35346474933E+02  0.19379910363E+03 -0.47086121198E+03  0.52549286085E+03  0.12500000000E+03 0.  0.
         25    1    1    2    0    0  0.87901577530E+02 -0.12742032581E+03 -0.73347075505E+02  0.21205522924E+03  0.12500000000E+03 0.  0.
</event>
<event>
 5    0  0.5735425E-005  0.2024615E+03  0.7546771E-02  0.1147679E+00
         21   -1    0    0  502  501  0.00000000000E+00  0.00000000000E+00  0.28850971500E+02  0.28850971500E+02  0.00000000000E+00 0. -1.
         21   -1    0    0  501  502 -0.00000000000E+00 -0.00000000000E+00 -0.14207724971E+04  0.14207724971E+04  0.00000000000E+00 0. -1.
         25    1    1    2    0    0 -0.35794855604E+02  0.34001669073E+02 -0.42642861395E+03  0.44710596952E+03  0.12500000000E+03 0.  0.
         25    1    1    2    0    0  0.19814101898E+02 -0.51779252798E+02 -0.60371938694E+03  0.61901194482E+03  0.12500000000E+03 0.  0.
         25    1    1    2    0    0  0.15980753706E+02  0.17777583725E+02 -0.36177352475E+03  0.38350555430E+03  0.12500000000E+03 0.  0.
</event>
<event>
 5    0  0.5735425E-005  0.4356764E+03  0.7546771E-02  0.1032082E+00
         21   -1    0    0  502  501  0.00000000000E+00  0.00000000000E+00  0.15608367605E+03  0.15608367605E+03  0.00000000000E+00 0. -1.
         21   -1    0    0  501  502 -0.00000000000E+00 -0.00000000000E+00 -0.12161035029E+04  0.12161035029E+04  0.00000000000E+00 0. -1.
         25    1    1    2    0    0 -0.45371659884E+02  0.17176209175E+03 -0.38800499001E+02  0.22066101242E+03  0.12500000000E+03 0.  0.
         25    1    1    2    0    0 -0.81316192540E+02 -0.16357041604E+03 -0.92076367188E+03  0.94699437360E+03  0.12500000000E+03 0.  0.
         25    1    1    2    0    0  0.12668785242E+03 -0.81916757107E+01 -0.10045565597E+03  0.20453179293E+03  0.12500000000E+03 0.  0.
</event>
<event>
 5    0  0.5735425E-005  0.2154407E+03  0.7546771E-02  0.1137329E+00
         21   -1    0    0  502  501  0.00000000000E+00  0.00000000000E+00  0.77030154965E+02  0.77030154965E+02  0.00000000000E+00 0.  1.
         21   -1    0    0  501  502 -0.00000000000E+00 -0.00000000000E+00 -0.60255253084E+03  0.60255253084E+03  0.00000000000E+00 0.  1.
         25    1    1    2    0    0 -0.32742406660E+02  0.15119311497E+02 -0.52834897520E+02  0.14041789476E+03  0.12500000000E+03 0.  0.
         25    1    1    2    0    0  0.90907714836E+01  0.12621077756E+02 -0.27463186439E+03  0.30214167980E+03  0.12500000000E+03 0.  0.
         25    1    1    2    0    0  0.23651635176E+02 -0.27740389253E+02 -0.19805561396E+03  0.23702311124E+03  0.12500000000E+03 0.  0.
</event>
<event>
 5    0  0.5735425E-005  0.3240523E+03  0.7546771E-02  0.1073799E+00
         21   -1    0    0  502  501  0.00000000000E+00  0.00000000000E+00  0.70584718188E+02  0.70584718188E+02  0.00000000000E+00 0.  1.
         21   -1    0    0  501  502 -0.00000000000E+00 -0.00000000000E+00 -0.14877145691E+04  0.14877145691E+04  0.00000000000E+00 0.  1.
         25    1    1    2    0    0  0.12378577804E+02 -0.18210893021E+03 -0.82658330243E+03  0.85567625157E+03  0.12500000000E+03 0.  0.
         25    1    1    2    0    0  0.85305786699E+02  0.14364931556E+03 -0.25508507230E+03  0.32955363329E+03  0.12500000000E+03 0.  0.
         25    1    1    2    0    0 -0.97684364503E+02  0.38459614657E+02 -0.33546147622E+03  0.37306940247E+03  0.12500000000E+03 0.  0.
</event>
<event>
 5    0  0.5735425E-005  0.2241600E+03  0.7546771E-02  0.1130819E+00
         21   -1    0    0  502  501  0.00000000000E+00  0.00000000000E+00  0.11481117502E+04  0.11481117502E+04  0.00000000000E+00 0. -1.
         21   -1    0    0  501  502 -0.00000000000E+00 -0.00000000000E+00 -0.43765527514E+02  0.43765527514E+02  0.00000000000E+00 0. -1.
         25    1    1    2    0    0 -0.16448336870E+02  0.49122957132E+01  0.25081001342E+03  0.28075851059E+03  0.12500000000E+03 0.  0.
         25    1    1    2    0    0  0.45925027969E+02  0.69665731984E+02  0.27031195762E+03  0.30928300445E+03  0.12500000000E+03 0.  0.
         25    1    1    2    0    0 -0.29476691099E+02 -0.74578027697E+02  0.58322425164E+03  0.60183576268E+03  0.12500000000E+03 0.  0.
</event>
<event>
 5    0  0.5735425E-005  0.2154955E+03  0.7546771E-02  0.1137287E+00
         21   -1    0    0  502  501  0.00000000000E+00  0.00000000000E+00  0.10398161714E+03  0.10398161714E+03  0.00000000000E+00 0. -1.
         21   -1    0    0  501  502 -0.00000000000E+00 -0.00000000000E+00 -0.44660125275E+03  0.44660125275E+03  0.00000000000E+00 0. -1.
         25    1    1    2    0    0  0.44873281056E+02 -0.12520085150E+02 -0.66915233070E+02  0.14924145638E+03  0.12500000000E+03 0.  0.
         25    1    1    2    0    0 -0.19598220924E+01 -0.58421182675E+02 -0.16393156644E+03  0.21427886962E+03  0.12500000000E+03 0.  0.
         25    1    1    2    0    0 -0.42913458964E+02  0.70941267825E+02 -0.11177283609E+03  0.18706254390E+03  0.12500000000E+03 0.  0.
</event>
<event>
 5    0  0.5735425E-005  0.4249366E+03  0.7546771E-02  0.1035471E+00
         21   -1    0    0  502  501  0.00000000000E+00  0.00000000000E+00  0.82481495235E+02  0.82481495235E+02  0.00000000000E+00 0.  1.
         21   -1    0    0  501  502 -0.00000000000E+00 -0.00000000000E+00 -0.21892319576E+04  0.21892319576E+04  0.00000000000E+00 0.  1.
         25    1    1    2    0    0 -0.17463338519E+03  0.32273527471E+01 -0.15750261436E+03  0.26634434208E+03  0.12500000000E+03 0.  0.
         25    1    1    2    0    0  0.64430284617E+01 -0.13107249471E+03 -0.12751951446E+04  0.12880097702E+04  0.12500000000E+03 0.  0.
         25    1    1    2    0    0  0.16819035673E+03  0.12784514196E+03 -0.67405270344E+03  0.71735934053E+03  0.12500000000E+03 0.  0.
</event>
<event>
 5    0  0.5735425E-005  0.3195880E+03  0.7546771E-02  0.1075839E+00
         21   -1    0    0  502  501  0.00000000000E+00  0.00000000000E+00  0.32348323666E+03  0.32348323666E+03  0.00000000000E+00 0.  1.
         21   -1    0    0  501  502 -0.00000000000E+00 -0.00000000000E+00 -0.31573957921E+03  0.31573957921E+03  0.00000000000E+00 0.  1.
         25    1    1    2    0    0 -0.67028058965E+02 -0.19085485452E+03 -0.90754932175E+02  0.25451874960E+03  0.12500000000E+03 0.  0.
         25    1    1    2    0    0 -0.43106520182E+02  0.57056735691E+02  0.92085563284E+02  0.17093388820E+03  0.12500000000E+03 0.  0.
         25    1    1    2    0    0  0.11013457915E+03  0.13379811883E+03  0.64130263432E+01  0.21377017807E+03  0.12500000000E+03 0.  0.
</event>
<event>
 5    0  0.5735425E-005  0.3987457E+03  0.7546771E-02  0.1044215E+00
         21   -1    0    0  502  501  0.00000000000E+00  0.00000000000E+00  0.14521789858E+04  0.14521789858E+04  0.00000000000E+00 0.  1.
         21   -1    0    0  501  502 -0.00000000000E+00 -0.00000000000E+00 -0.10948936237E+03  0.10948936237E+03  0.00000000000E+00 0.  1.
         25    1    1    2    0    0  0.52295760131E+02 -0.12058036371E+03  0.18683378665E+03  0.26039649474E+03  0.12500000000E+03 0.  0.
         25    1    1    2    0    0  0.88096250631E+01  0.11540678059E+03  0.37696602928E+02  0.17447741507E+03  0.12500000000E+03 0.  0.
         25    1    1    2    0    0 -0.61105385194E+02  0.51735831238E+01  0.11181592339E+04  0.11267944384E+04  0.12500000000E+03 0.  0.
</event>
<event>
 5    0  0.5735425E-005  0.7769091E+03  0.7546771E-02  0.9594055E-01
         21   -1    0    0  502  501  0.00000000000E+00  0.00000000000E+00  0.81023650962E+03  0.81023650962E+03  0.00000000000E+00 0.  1.
         21   -1    0    0  501  502 -0.00000000000E+00 -0.00000000000E+00 -0.74495257600E+03  0.74495257600E+03  0.00000000000E+00 0.  1.
         25    1    1    2    0    0 -0.60583311988E+03  0.16043862296E+03 -0.29026975568E+03  0.70189447351E+03  0.12500000000E+03 0.  0.
         25    1    1    2    0    0  0.36454147371E+03 -0.24225537768E+03  0.88731777274E+02  0.46376339050E+03  0.12500000000E+03 0.  0.
         25    1    1    2    0    0  0.24129164617E+03  0.81816754717E+02  0.26682191204E+03  0.38953122161E+03  0.12500000000E+03 0.  0.
</event>
<event>
 5    0  0.5735425E-005  0.3373391E+03  0.7546771E-02  0.1067935E+00
         21   -1    0    0  502  501  0.00000000000E+00  0.00000000000E+00  0.54141049157E+02  0.54141049157E+02  0.00000000000E+00 0. -1.
         21   -1    0    0  501  502 -0.00000000000E+00 -0.00000000000E+00 -0.21018743669E+04  0.21018743669E+04  0.00000000000E+00 0. -1.
         25    1    1    2    0    0 -0.14321931790E+03  0.94715185910E+02 -0.11877334434E+04  0.12065730281E+04  0.12500000000E+03 0.  0.
         25    1    1    2    0    0  0.92810374174E+01 -0.79260375482E+02 -0.13184660744E+03  0.19843606696E+03  0.12500000000E+03 0.  0.
         25    1    1    2    0    0  0.13393828048E+03 -0.15454810428E+02 -0.72815326694E+03  0.75100632108E+03  0.12500000000E+03 0.  0.
</event>
<event>
 5    0  0.5735425E-005  0.2107440E+03  0.7546771E-02  0.1140978E+00
         21   -1    0    0  502  501  0.00000000000E+00  0.00000000000E+00  0.53922396759E+03  0.53922396759E+03  0.00000000000E+00 0. -1.
         21   -1    0    0  501  502 -0.00000000000E+00 -0.00000000000E+00 -0.82364759338E+02  0.82364759338E+02  0.00000000000E+00 0. -1.
         25    1    1    2    0    0 -0.52577539798E+01  0.32354441880E+02  0.22384643627E+03  0.25846988397E+03  0.12500000000E+03 0.  0.
         25    1    1    2    0    0  0.53707655516E+02 -0.83978117229E+00  0.82507409917E+02  0.15911533611E+03  0.12500000000E+03 0.  0.
         25    1    1    2    0    0 -0.48449901536E+02 -0.31514660708E+02  0.15050536206E+03  0.20400350685E+03  0.12500000000E+03 0.  0.
</event>
<event>
 5    0  0.5735425E-005  0.2986879E+03  0.7546771E-02  0.1085898E+00
         21   -1    0    0  502  501  0.00000000000E+00  0.00000000000E+00  0.73883152182E+03  0.73883152182E+03  0.00000000000E+00 0.  1.
         21   -1    0    0  501  502 -0.00000000000E+00 -0.00000000000E+00 -0.12075072277E+03  0.12075072277E+03  0.00000000000E+00 0.  1.
         25    1    1    2    0    0 -0.15638111415E+03  0.12131100175E+03  0.14240974654E+03  0.27400172977E+03  0.12500000000E+03 0.  0.
         25    1    1    2    0    0  0.77886490161E+02 -0.11640900729E+03  0.32000165354E+03  0.37100326224E+03  0.12500000000E+03 0.  0.
         25    1    1    2    0    0  0.78494623985E+02 -0.49019944630E+01  0.15566939897E+03  0.21457725257E+03  0.12500000000E+03 0.  0.
</event>
<event>
 5    0  0.5735425E-005  0.1990755E+03  0.7546771E-02  0.1150521E+00
         21   -1    0    0  502  501  0.00000000000E+00  0.00000000000E+00  0.41332911649E+03  0.41332911649E+03  0.00000000000E+00 0. -1.
         21   -1    0    0  501  502 -0.00000000000E+00 -0.00000000000E+00 -0.95882579642E+02  0.95882579642E+02  0.00000000000E+00 0. -1.
         25    1    1    2    0    0 -0.41480300228E+02 -0.38743800740E+01  0.12855420972E+03  0.18408370641E+03  0.12500000000E+03 0.  0.
         25    1    1    2    0    0  0.16681159768E+02 -0.22629369613E+02  0.12911170697E+03  0.18189332680E+03  0.12500000000E+03 0.  0.
         25    1    1    2    0    0  0.24799140460E+02  0.26503749687E+02  0.59780620163E+02  0.14323466292E+03  0.12500000000E+03 0.  0.
</event>
<event>
 5    0  0.5735425E-005  0.3325293E+03  0.7546771E-02  0.1070023E+00
         21   -1    0    0  502  501  0.00000000000E+00  0.00000000000E+00  0.43191314730E+03  0.43191314730E+03  0.00000000000E+00 0.  1.
         21   -1    0    0  501  502 -0.00000000000E+00 -0.00000000000E+00 -0.25601382253E+03  0.25601382253E+03  0.00000000000E+00 0.  1.
         25    1    1    2    0    0  0.83004953533E+02  0.64220749030E+02  0.29754332968E+03  0.33936876691E+03  0.12500000000E+03 0.  0.
         25    1    1    2    0    0  0.29853505499E+02  0.31609724654E+02 -0.59154724672E+02  0.14496443679E+03  0.12500000000E+03 0.  0.
         25    1    1    2    0    0 -0.11285845903E+03 -0.95830473684E+02 -0.62489280239E+02  0.20359376613E+03  0.12500000000E+03 0.  0.
</event>
<event>
 5    0  0.5735425E-005  0.2041804E+03  0.7546771E-02  0.1146259E+00
         21   -1    0    0  502  501  0.00000000000E+00  0.00000000000E+00  0.92420150543E+03  0.92420150543E+03  0.00000000000E+00 0. -1.
         21   -1    0    0  501  502 -0.00000000000E+00 -0.00000000000E+00 -0.45108802926E+02  0.45108802926E+02  0.00000000000E+00 0. -1.
         25    1    1    2    0    0 -0.15790816219E+02  0.14805154525E+02  0.25286148235E+03  0.28290010911E+03  0.12500000000E+03 0.  0.
         25    1    1    2    0    0  0.22802265724E+01 -0.56729345600E+02  0.22215130143E+03  0.26115056732E+03  0.12500000000E+03 0.  0.
         25    1    1    2    0    0  0.13510589647E+02  0.41924191075E+02  0.40407991872E+03  0.42525963192E+03  0.12500000000E+03 0.  0.
</event>
<event>
 5    0  0.5735425E-005  0.2613349E+03  0.7546771E-02  0.1106344E+00
         21   -1    0    0  502  501  0.00000000000E+00  0.00000000000E+00  0.96973341015E+03  0.96973341015E+03  0.00000000000E+00 0. -1.
         21   -1    0    0  501  502 -0.00000000000E+00 -0.00000000000E+00 -0.70427549577E+02  0.70427549577E+02  0.00000000000E+00 0. -1.
         25    1    1    2    0    0 -0.19109867208E+01  0.92668259809E+01  0.29876735436E+03  0.32400070673E+03  0.12500000000E+03 0.  0.
         25    1    1    2    0    0 -0.94004922457E+02 -0.70116077464E+02  0.47711769062E+03  0.50697088720E+03  0.12500000000E+03 0.  0.
         25    1    1    2    0    0  0.95915909178E+02  0.60849251483E+02  0.12342081560E+03  0.20918936580E+03  0.12500000000E+03 0.  0.
</event>
<event>
 5    0  0.5735425E-005  0.4535959E+03  0.7546771E-02  0.1026655E+00
         21   -1    0    0  502  501  0.00000000000E+00  0.00000000000E+00  0.44401248502E+03  0.44401248502E+03  0.00000000000E+00 0. -1.
         21   -1    0    0  501  502 -0.00000000000E+00 -0.00000000000E+00 -0.46338608594E+03  0.46338608594E+03  0.00000000000E+00 0. -1.
         25    1    1    2    0    0  0.57950261402E+02  0.29017698432E+02 -0.27932016995E+03  0.31280188132E+03  0.12500000000E+03 0.  0.
         25    1    1    2    0    0  0.19665314677E+02 -0.70303681721E+02 -0.11810661217E+03  0.18682479521E+03  0.12500000000E+03 0.  0.
         25    1    1    2    0    0 -0.77615576079E+02  0.41285983289E+02  0.37805318120E+03  0.40777189443E+03  0.12500000000E+03 0.  0.
</event>
<event>
 5    0  0.5890201E-005  0.2832725E+03  0.7546771E-02  0.1093915E+00
         21   -1    0    0  502  501  0.00000000000E+00  0.00000000000E+00  0.39106338913E+03  0.39106338913E+03  0.00000000000E+00 0.  1.
         21   -1    0    0  501  502 -0.00000000000E+00 -0.00000000000E+00 -0.20519255712E+03  0.20519255712E+03  0.00000000000E+00 0.  1.
         25    1    1    2    0    0  0.12861373506E+03  0.23892546613E+02  0.19763734244E+02  0.18201085633E+03  0.12500000000E+03 0.  0.
         25    1    1    2    0    0  0.42061397899E+02  0.68505772692E+02  0.66786569653E+02  0.16293448982E+03  0.12500000000E+03 0.  0.
         25    1    1    2    0    0 -0.17067513296E+03 -0.92398319304E+02  0.99320528120E+02  0.25131060011E+03  0.12500000000E+03 0.  0.
</event>
<event>
 5    0  0.5735425E-005  0.2728417E+03  0.7546771E-02  0.1099664E+00
         21   -1    0    0  502  501  0.00000000000E+00  0.00000000000E+00  0.92741908313E+03  0.92741908313E+03  0.00000000000E+00 0.  1.
         21   -1    0    0  501  502 -0.00000000000E+00 -0.00000000000E+00 -0.80268559550E+02  0.80268559550E+02  0.00000000000E+00 0.  1.
         25    1    1    2    0    0 -0.38828823678E+01 -0.17387288038E+03  0.23518340266E+03  0.31809289239E+03  0.12500000000E+03 0.  0.
         25    1    1    2    0    0 -0.21522972338E+02  0.13304527281E+03  0.36312606738E+03  0.40700101200E+03  0.12500000000E+03 0.  0.
         25    1    1    2    0    0  0.25405854706E+02  0.40827607566E+02  0.24884105354E+03  0.28259373829E+03  0.12500000000E+03 0.  0.
</event>
<event>
 5    0  0.6078404E-005  0.3442962E+03  0.7546771E-02  0.1064981E+00
         21   -1    0    0  502  501  0.00000000000E+00  0.00000000000E+00  0.39668764741E+03  0.39668764741E+03  0.00000000000E+00 0.  1.
         21   -1    0    0  501  502 -0.00000000000E+00 -0.00000000000E+00 -0.29882423312E+03  0.29882423312E+03  0.00000000000E+00 0.  1.
         25    1    1    2    0    0 -0.54944505347E+02 -0.12290210528E+03  0.15767850391E+03  0.24209778344E+03  0.12500000000E+03 0.  0.
         25    1    1    2    0    0 -0.86646952029E+02  0.11876979414E+03 -0.14967208797E+03  0.24421443899E+03  0.12500000000E+03 0.  0.
         25    1    1    2    0    0  0.14159145738E+03  0.41323111436E+01  0.89856998346E+02  0.20919965810E+03  0.12500000000E+03 0.  0.
</event>
<event>
 5    0  0.5735425E-005  0.4348896E+03  0.7546771E-02  0.1032326E+00
         21   -1    0    0  502  501  0.00000000000E+00  0.00000000000E+00  0.82405288251E+03  0.82405288251E+03  0.00000000000E+00 0.  1.
         21   -1    0    0  501  502 -0.00000000000E+00 -0.00000000000E+00 -0.22951070344E+03  0.22951070344E+03  0.00000000000E+00 0.  1.
         25    1    1    2    0    0 -0.22730683825E+03 -0.13568685565E+03  0.40587233986E+03  0.50043648725E+03  0.12500000000E+03 0.  0.
         25    1    1    2    0    0 -0.93970078684E+02  0.49318587803E+02  0.47414052184E+02  0.17069209453E+03  0.12500000000E+03 0.  0.
         25    1    1    2    0    0  0.32127691693E+03  0.86368267843E+02  0.14125578702E+03  0.38243500416E+03  0.12500000000E+03 0.  0.
</event>
<event>
 5    0  0.5735425E-005  0.5544916E+03  0.7546771E-02  0.1000460E+00
         21   -1    0    0  502  501  0.00000000000E+00  0.00000000000E+00  0.62189826140E+03  0.62189826140E+03  0.00000000000E+00 0.  1.
         21   -1    0    0  501  502 -0.00000000000E+00 -0.00000000000E+00 -0.49439112384E+03  0.49439112384E+03  0.00000000000E+00 0.  1.
         25    1    1    2    0    0  0.86724261943E+02 -0.23785002978E+03 -0.75245653852E+02  0.29219966239E+03  0.12500000000E+03 0.  0.
         25    1    1    2    0    0  0.92972274635E+02  0.10208238895E+03 -0.24486476496E+03  0.30764981896E+03  0.12500000000E+03 0.  0.
         25    1    1    2    0    0 -0.17969653658E+03  0.13576764083E+03  0.44761755638E+03  0.51643990389E+03  0.12500000000E+03 0.  0.
</event>
<event>
 5    0  0.5735425E-005  0.4452665E+03  0.7546771E-02  0.1029143E+00
         21   -1    0    0  502  501  0.00000000000E+00  0.00000000000E+00  0.15686173893E+03  0.15686173893E+03  0.00000000000E+00 0.  1.
         21   -1    0    0  501  502 -0.00000000000E+00 -0.00000000000E+00 -0.12639301356E+04  0.12639301356E+04  0.00000000000E+00 0.  1.
         25    1    1    2    0    0 -0.11709284653E+03 -0.19120049396E+03 -0.42771839966E+03  0.49883503586E+03  0.12500000000E+03 0.  0.
         25    1    1    2    0    0 -0.86884387063E+02  0.37508919052E+02  0.28299498465E+02  0.15931628083E+03  0.12500000000E+03 0.  0.
         25    1    1    2    0    0  0.20397723360E+03  0.15369157491E+03 -0.70764949546E+03  0.76264055783E+03  0.12500000000E+03 0.  0.
</event>
<event>
 5    0  0.5735425E-005  0.5136235E+03  0.7546771E-02  0.1010283E+00
         21   -1    0    0  502  501  0.00000000000E+00  0.00000000000E+00  0.28058904100E+03  0.28058904100E+03  0.00000000000E+00 0. -1.
         21   -1    0    0  501  502 -0.00000000000E+00 -0.00000000000E+00 -0.94019759723E+03  0.94019759723E+03  0.00000000000E+00 0. -1.
         25    1    1    2    0    0  0.11438637316E+03 -0.12264074741E+03 -0.69251155180E+03  0.72341014969E+03  0.12500000000E+03 0.  0.
         25    1    1    2    0    0 -0.12973399083E+03 -0.20212159415E+02  0.18096564018E+03  0.25615035172E+03  0.12500000000E+03 0.  0.
         25    1    1    2    0    0  0.15347617665E+02  0.14285290683E+03 -0.14806264460E+03  0.24122613682E+03  0.12500000000E+03 0.  0.
</event>
<event>
 5    0  0.5735425E-005  0.2595728E+03  0.7546771E-02  0.1107400E+00
         21   -1    0    0  502  501  0.00000000000E+00  0.00000000000E+00  0.40022613913E+03  0.40022613913E+03  0.00000000000E+00 0. -1.
         21   -1    0    0  501  502 -0.00000000000E+00 -0.00000000000E+00 -0.16834987379E+03  0.16834987379E+03  0.00000000000E+00 0. -1.
         25    1    1    2    0    0 -0.35768397848E+02 -0.73352858212E+02  0.16705997947E+03  0.22404030181E+03  0.12500000000E+03 0.  0.
         25    1    1    2    0    0  0.19187564371E+02  0.42452116840E+02  0.14092173589E+03  0.19404710896E+03  0.12500000000E+03 0.  0.
         25    1    1    2    0    0  0.16580833478E+02  0.30900741372E+02 -0.76105450018E+02  0.15048860216E+03  0.12500000000E+03 0.  0.
</event>
<event>
 5    0  0.5735425E-005  0.9361009E+03  0.7546771E-02  0.9381546E-01
         21   -1    0    0  502  501  0.00000000000E+00  0.00000000000E+00  0.32488119745E+03  0.32488119745E+03  0.00000000000E+00 0. -1.
         21   -1    0    0  501  502 -0.00000000000E+00 -0.00000000000E+00 -0.26972472087E+04  0.26972472087E+04  0.00000000000E+00 0. -1.
         25    1    1    2    0    0 -0.26279038205E+03  0.79861996938E+03 -0.64462961385E+03  0.10667825362E+04  0.12500000000E+03 0.  0.
         25    1    1    2    0    0  0.80898247296E+02 -0.58149031596E+03 -0.10327764585E+04  0.11945408018E+04  0.12500000000E+03 0.  0.
         25    1    1    2    0    0  0.18189213475E+03 -0.21712965342E+03 -0.69495993888E+03  0.76080506815E+03  0.12500000000E+03 0.  0.
</event>
<event>
 5    0  0.5735425E-005  0.2965133E+03  0.7546771E-02  0.1086997E+00
         21   -1    0    0  502  501  0.00000000000E+00  0.00000000000E+00  0.83158779502E+03  0.83158779502E+03  0.00000000000E+00 0. -1.
         21   -1    0    0  501  502 -0.00000000000E+00 -0.00000000000E+00 -0.10572563539E+03  0.10572563539E+03  0.00000000000E+00 0. -1.
         25    1    1    2    0    0 -0.45753113118E+02  0.10960894995E+03  0.75474501176E+02  0.18822558168E+03  0.12500000000E+03 0.  0.
         25    1    1    2    0    0  0.46973072769E+02  0.71436550095E+02  0.27747214622E+03  0.31610985777E+03  0.12500000000E+03 0.  0.
         25    1    1    2    0    0 -0.12199596502E+01 -0.18104550005E+03  0.37291551224E+03  0.43297799096E+03  0.12500000000E+03 0.  0.
</event>
