<event>
 6    0  0.6132510E+002  0.9035168E+02  0.7546771E-02  0.1302002E+00
         21   -1    0    0  502  501  0.00000000000E+00  0.00000000000E+00  0.65353226566E+02  0.65353226566E+02  0.00000000000E+00 0.  1.
         21   -1    0    0  506  502 -0.00000000000E+00 -0.00000000000E+00 -0.87244717256E+03  0.87244717256E+03  0.00000000000E+00 0.  1.
         21    1    1    2  503  501 -0.19301058153E+02 -0.23309656749E+02  0.20798106334E+02  0.36721004489E+02  0.00000000000E+00 0.  1.
         21    1    1    2  504  503  0.13695421667E+02 -0.67179775740E+02 -0.26683287499E+02  0.73570949939E+02  0.00000000000E+00 0.  1.
         21    1    1    2  505  504 -0.26666005365E+02  0.13385452151E+03 -0.39932052917E+03  0.42200117747E+03  0.00000000000E+00 0.  1.
         21    1    1    2  506  505  0.32271641851E+02 -0.43365089018E+02 -0.40188823566E+03  0.40550726723E+03  0.00000000000E+00 0.  1.
<scales pt_clust_3="30.26336" pt_clust_4="90.35168" pt_clust_5="14000.00000" pt_clust_6="54.42974"></scales>
<clustering>
<clus scale="   30.263">  1  3  2 -1</clus>
<clus scale="   54.430">  2  6  1 -1</clus>
<clus scale="   90.352">  1  4  2 -1</clus>
<clus scale="   30.263">  1  3  2 -1</clus>
</clustering>
</event>
<event>
 6    0  0.6132510E+002  0.8139348E+02  0.7546771E-02  0.1325143E+00
         21   -1    0    0  504  501  0.00000000000E+00  0.00000000000E+00  0.65550302992E+03  0.65550302992E+03  0.00000000000E+00 0. -1.
         21   -1    0    0  506  502 -0.00000000000E+00 -0.00000000000E+00 -0.49208286451E+03  0.49208286451E+03  0.00000000000E+00 0. -1.
         21    1    1    2  503  505 -0.84953536663E+02  0.33684525529E+02 -0.15725181670E+02  0.92730965649E+02  0.00000000000E+00 0. -1.
         21    1    1    2  504  503  0.65262039794E+02 -0.80191209691E+02  0.26617687253E+03  0.28555190670E+03  0.00000000000E+00 0. -1.
         21    1    1    2  505  502  0.13149006393E+02 -0.32876260161E+02 -0.42276755915E+03  0.42424775064E+03  0.00000000000E+00 0. -1.
         21    1    1    2  506  501  0.65424904754E+01  0.79382944323E+02  0.33573603370E+03  0.34505527145E+03  0.00000000000E+00 0. -1.
<scales pt_clust_3="74.95072" pt_clust_4="14000.00000" pt_clust_5="35.40826" pt_clust_6="81.39348"></scales>
<clustering>
<clus scale="   35.408">  2  5  1 -1</clus>
<clus scale="   74.951">  2  3  1 -1</clus>
<clus scale="   81.393">  1  6  2 -1</clus>
<clus scale="   81.393">  1  3  2 -1</clus>
</clustering>
</event>
<event>
 6    0  0.6132510E+002  0.1085897E+03  0.7546771E-02  0.1263204E+00
         21   -1    0    0  505  501  0.00000000000E+00  0.00000000000E+00  0.29396531676E+03  0.29396531676E+03  0.00000000000E+00 0.  1.
         21   -1    0    0  504  502 -0.00000000000E+00 -0.00000000000E+00 -0.14773221775E+03  0.14773221775E+03  0.00000000000E+00 0. -1.
         21    1    1    2  503  501 -0.26562736213E+02 -0.24770960714E+02  0.37796469933E+02  0.52419009808E+02  0.00000000000E+00 0.  1.
         21    1    1    2  504  506  0.98754286439E+02 -0.42707449948E+02 -0.76766102673E+02  0.13217174392E+03  0.00000000000E+00 0. -1.
         21    1    1    2  505  502  0.17398577769E+01 -0.37452926659E+02  0.89376531931E+02  0.96922202206E+02  0.00000000000E+00 0.  1.
         21    1    1    2  506  503 -0.73931408003E+02  0.10493133732E+03  0.95826199818E+02  0.16018457857E+03  0.00000000000E+00 0.  1.
<scales pt_clust_3="36.32051" pt_clust_4="108.58968" pt_clust_5="47.43945" pt_clust_6="14000.00000"></scales>
<clustering>
<clus scale="   36.321">  1  3  2 -1</clus>
<clus scale="   47.439">  1  5  2 -1</clus>
<clus scale="  108.590">  2  4  1 -1</clus>
<clus scale="   36.321">  1  3  2 -1</clus>
</clustering>
</event>
<event>
 6    0  0.6132510E+002  0.1280877E+03  0.7546771E-02  0.1230321E+00
         21   -1    0    0  504  501  0.00000000000E+00  0.00000000000E+00  0.30782167926E+03  0.30782167926E+03  0.00000000000E+00 0. -1.
         21   -1    0    0  506  502 -0.00000000000E+00 -0.00000000000E+00 -0.23463494697E+03  0.23463494697E+03  0.00000000000E+00 0. -1.
         21    1    1    2  503  505 -0.89443752844E+02  0.16885739225E+03 -0.89538888159E+02  0.21102183852E+03  0.00000000000E+00 0. -1.
         21    1    1    2  504  503  0.58886653389E+02 -0.33218187088E+02  0.15547756820E+03  0.16954161765E+03  0.00000000000E+00 0. -1.
         21    1    1    2  505  502  0.33419418697E+02 -0.87731918483E+02 -0.32737715917E+02  0.99425877468E+02  0.00000000000E+00 0. -1.
         21    1    1    2  506  501 -0.28623192408E+01 -0.47907286682E+02  0.39985768160E+02  0.62467292595E+02  0.00000000000E+00 0. -1.
<scales pt_clust_3="128.08766" pt_clust_4="85.42374" pt_clust_5="14000.00000" pt_clust_6="47.99272"></scales>
<clustering>
<clus scale="   47.993">  1  6  2 -1</clus>
<clus scale="   85.424">  1  4  2 -1</clus>
<clus scale="  128.088">  1  3  2 -1</clus>
<clus scale="   47.993">  1  3  2 -1</clus>
</clustering>
</event>
<event>
 6    0  0.6132510E+002  0.1083242E+03  0.7546771E-02  0.1263705E+00
         21   -1    0    0  506  501  0.00000000000E+00  0.00000000000E+00  0.86162911156E+03  0.86162911156E+03  0.00000000000E+00 0. -1.
         21   -1    0    0  505  502 -0.00000000000E+00 -0.00000000000E+00 -0.61587309482E+02  0.61587309482E+02  0.00000000000E+00 0.  1.
         21    1    1    2  503  504 -0.64059959774E+02  0.16276424174E+02  0.56445582935E+03  0.56831239975E+03  0.00000000000E+00 0. -1.
         21    1    1    2  504  502 -0.79641426495E+01  0.34145120793E+02 -0.76140726878E+01  0.35878837007E+02  0.00000000000E+00 0.  1.
         21    1    1    2  505  501  0.93785499796E+02 -0.79539416677E+02  0.68867695128E+02  0.14094324464E+03  0.00000000000E+00 0.  1.
         21    1    1    2  506  503 -0.21761397373E+02  0.29117871711E+02  0.17433235029E+03  0.17808193964E+03  0.00000000000E+00 0.  1.
<scales pt_clust_3="32.07471" pt_clust_4="35.06161" pt_clust_5="99.31542" pt_clust_6="32.07471"></scales>
<clustering>
<clus scale="   32.075">  3  6 -1 -1</clus>
<clus scale="   35.062">  2  4  1 -1</clus>
<clus scale="   99.315">  2  5  1 -1</clus>
<clus scale="  108.324">  1  3  2 -1</clus>
</clustering>
</event>
<event>
 6    0  0.6132510E+002  0.7292235E+02  0.7546771E-02  0.1350428E+00
         21   -1    0    0  504  501  0.00000000000E+00  0.00000000000E+00  0.19056592560E+04  0.19056592560E+04  0.00000000000E+00 0. -1.
         21   -1    0    0  505  502 -0.00000000000E+00 -0.00000000000E+00 -0.24458564380E+03  0.24458564380E+03  0.00000000000E+00 0. -1.
         21    1    1    2  503  506  0.77406127449E+02  0.41737311282E+02  0.57182989431E+02  0.10489807434E+03  0.00000000000E+00 0.  1.
         21    1    1    2  504  502 -0.40316353527E+02 -0.96844582247E+02  0.15652301780E+04  0.15687414674E+04  0.00000000000E+00 0. -1.
         21    1    1    2  505  503 -0.42813182160E+02  0.20143770476E+02 -0.21517176372E+03  0.22031256877E+03  0.00000000000E+00 0. -1.
         21    1    1    2  506  501  0.57234082378E+01  0.34963500489E+02  0.25383220846E+03  0.25629278925E+03  0.00000000000E+00 0. -1.
<scales pt_clust_3="72.92235" pt_clust_4="14000.00000" pt_clust_5="47.33047" pt_clust_6="35.42886"></scales>
<clustering>
<clus scale="   35.429">  1  6  2 -1</clus>
<clus scale="   47.330">  2  5  1 -1</clus>
<clus scale="   72.922">  2  3  1 -1</clus>
<clus scale="   35.429">  1  3  2 -1</clus>
</clustering>
</event>
<event>
 6    0  0.6132510E+002  0.6953728E+02  0.7546771E-02  0.1361674E+00
         21   -1    0    0  505  501  0.00000000000E+00  0.00000000000E+00  0.14068968054E+03  0.14068968054E+03  0.00000000000E+00 0. -1.
         21   -1    0    0  504  502 -0.00000000000E+00 -0.00000000000E+00 -0.39534458405E+03  0.39534458405E+03  0.00000000000E+00 0. -1.
         21    1    1    2  503  502 -0.34179496150E+02  0.69121170184E+02 -0.91102699041E+02  0.11935525082E+03  0.00000000000E+00 0.  1.
         21    1    1    2  504  506 -0.16519234905E+02 -0.69564515263E+02 -0.25624560126E+03  0.26603367282E+03  0.00000000000E+00 0. -1.
         21    1    1    2  505  503  0.75711904598E+02  0.18920333078E+02  0.90455393573E+02  0.11946735842E+03  0.00000000000E+00 0. -1.
         21    1    1    2  506  501 -0.25013173543E+02 -0.18476988000E+02  0.22380032225E+01  0.31177982531E+02  0.00000000000E+00 0. -1.
<scales pt_clust_3="14000.00000" pt_clust_4="69.53728" pt_clust_5="54.63448" pt_clust_6="31.09756"></scales>
<clustering>
<clus scale="   31.098">  1  6  2 -1</clus>
<clus scale="   54.634">  1  5  2 -1</clus>
<clus scale="   69.537">  2  4  1 -1</clus>
<clus scale="   31.098">  1  3  2 -1</clus>
</clustering>
</event>
<event>
 6    0  0.6132510E+002  0.7703748E+02  0.7546771E-02  0.1337675E+00
         21   -1    0    0  504  501  0.00000000000E+00  0.00000000000E+00  0.14554470889E+04  0.14554470889E+04  0.00000000000E+00 0.  1.
         21   -1    0    0  506  502 -0.00000000000E+00 -0.00000000000E+00 -0.53368573586E+03  0.53368573586E+03  0.00000000000E+00 0. -1.
         21    1    1    2  503  502  0.41032555111E+02  0.74664506136E+02  0.95827532056E+03  0.96205511747E+03  0.00000000000E+00 0.  1.
         21    1    1    2  504  503 -0.29987923294E+02 -0.36889892077E+02  0.19380070082E+03  0.19954661441E+03  0.00000000000E+00 0. -1.
         21    1    1    2  505  501  0.60559917534E+02 -0.66096270379E+02  0.28897655948E+03  0.30256184904E+03  0.00000000000E+00 0.  1.
         21    1    1    2  506  505 -0.71604549351E+02  0.28321656320E+02 -0.51929122781E+03  0.52496924385E+03  0.00000000000E+00 0. -1.
<scales pt_clust_3="49.94365" pt_clust_4="47.54093" pt_clust_5="14000.00000" pt_clust_6="77.03748"></scales>
<clustering>
<clus scale="   47.541">  1  4  2 -1</clus>
<clus scale="   49.944">  1  3  2 -1</clus>
<clus scale="   77.037">  2  6  1 -1</clus>
<clus scale="   47.541">  1  3  2 -1</clus>
</clustering>
</event>
<event>
 6    0  0.6132510E+002  0.1155586E+03  0.7546771E-02  0.1250609E+00
         21   -1    0    0  504  501  0.00000000000E+00  0.00000000000E+00  0.96264632051E+03  0.96264632051E+03  0.00000000000E+00 0. -1.
         21   -1    0    0  505  502 -0.00000000000E+00 -0.00000000000E+00 -0.78751900221E+02  0.78751900221E+02  0.00000000000E+00 0. -1.
         21    1    1    2  503  506  0.29731450475E+02 -0.21557009742E+02  0.16907380932E+02  0.40429238756E+02  0.00000000000E+00 0. -1.
         21    1    1    2  504  503 -0.73332616183E+02 -0.60201751634E+02  0.16793573309E+03  0.19288425012E+03  0.00000000000E+00 0. -1.
         21    1    1    2  505  501  0.75476950332E+02  0.99738378642E+02  0.74153605649E+03  0.75201079599E+03  0.00000000000E+00 0. -1.
         21    1    1    2  506  502 -0.31875784625E+02 -0.17979617265E+02 -0.42484750221E+02  0.56073935869E+02  0.00000000000E+00 0. -1.
<scales pt_clust_3="33.39017" pt_clust_4="14000.00000" pt_clust_5="115.55857" pt_clust_6="36.59689"></scales>
<clustering>
<clus scale="   36.597">  2  6  1 -1</clus>
<clus scale="   33.390">  2  3  1 -1</clus>
<clus scale="  115.559">  1  5  2 -1</clus>
<clus scale="  115.559">  1  3  2 -1</clus>
</clustering>
</event>
<event>
 6    0  0.6132510E+002  0.1072355E+03  0.7546771E-02  0.1265777E+00
         21   -1    0    0  505  501  0.00000000000E+00  0.00000000000E+00  0.29276741926E+03  0.29276741926E+03  0.00000000000E+00 0. -1.
         21   -1    0    0  501  502 -0.00000000000E+00 -0.00000000000E+00 -0.11448353891E+03  0.11448353891E+03  0.00000000000E+00 0. -1.
         21    1    1    2  503  502  0.55493820826E+02 -0.98402597583E+00 -0.84608313084E+01  0.56143727374E+02  0.00000000000E+00 0. -1.
         21    1    1    2  504  503 -0.10258659497E+03 -0.78442823608E+02 -0.94118830577E+01  0.12948308610E+03  0.00000000000E+00 0. -1.
         21    1    1    2  505  506  0.24860083189E+02  0.34490873637E+02  0.14014433059E+03  0.14645162169E+03  0.00000000000E+00 0. -1.
         21    1    1    2  506  504  0.22232690954E+02  0.44935975947E+02  0.56012264137E+02  0.75172523006E+02  0.00000000000E+00 0. -1.
<scales pt_clust_3="55.50254" pt_clust_4="96.88116" pt_clust_5="42.33582" pt_clust_6="42.33582"></scales>
<clustering>
<clus scale="   42.336">  5  6 -1 -1</clus>
<clus scale="   55.503">  2  3  1 -1</clus>
<clus scale="   96.881">  2  4  1 -1</clus>
<clus scale="  107.236">  1  3  2 -1</clus>
</clustering>
</event>
<event>
 6    0  0.6132510E+002  0.7202383E+02  0.7546771E-02  0.1353343E+00
         21   -1    0    0  506  501  0.00000000000E+00  0.00000000000E+00  0.18439308464E+03  0.18439308464E+03  0.00000000000E+00 0.  1.
         21   -1    0    0  505  502 -0.00000000000E+00 -0.00000000000E+00 -0.11872370495E+04  0.11872370495E+04  0.00000000000E+00 0. -1.
         21    1    1    2  503  501  0.11022908489E+03 -0.41972054861E+02 -0.59963330107E+03  0.61112371931E+03  0.00000000000E+00 0. -1.
         21    1    1    2  504  502 -0.50253377510E+02  0.12372405972E+01  0.14792582215E+03  0.15623374019E+03  0.00000000000E+00 0.  1.
         21    1    1    2  505  503 -0.47802381092E+02  0.70610171400E+01 -0.56411929256E+03  0.56618504205E+03  0.00000000000E+00 0. -1.
         21    1    1    2  506  504 -0.12173326290E+02  0.33673797124E+02  0.12982806662E+02  0.38087632566E+02  0.00000000000E+00 0.  1.
<scales pt_clust_3="14000.00000" pt_clust_4="72.02383" pt_clust_5="48.43180" pt_clust_6="35.80663"></scales>
<clustering>
<clus scale="   35.807">  1  6  2 -1</clus>
<clus scale="   48.432">  2  5  1 -1</clus>
<clus scale="   72.024">  1  4  2 -1</clus>
<clus scale="   35.807">  1  3  2 -1</clus>
</clustering>
</event>
<event>
 6    0  0.6132510E+002  0.1437396E+03  0.7546771E-02  0.1208384E+00
         21   -1    0    0  505  501  0.00000000000E+00  0.00000000000E+00  0.66906336440E+03  0.66906336440E+03  0.00000000000E+00 0. -1.
         21   -1    0    0  503  502 -0.00000000000E+00 -0.00000000000E+00 -0.23711255758E+03  0.23711255758E+03  0.00000000000E+00 0. -1.
         21    1    1    2  503  501  0.94311924837E+02 -0.11221160474E+03  0.50021936498E+03  0.52125386954E+03  0.00000000000E+00 0. -1.
         21    1    1    2  504  506 -0.34571582789E+02  0.52765947413E+02  0.40823597326E+02  0.75139907117E+02  0.00000000000E+00 0. -1.
         21    1    1    2  505  504 -0.32546762788E+02  0.43700279089E+02  0.91634433215E+02  0.10661086019E+03  0.00000000000E+00 0. -1.
         21    1    1    2  506  502 -0.27193579261E+02  0.15745378243E+02 -0.20072658870E+03  0.20317128513E+03  0.00000000000E+00 0. -1.
<scales pt_clust_3="137.78048" pt_clust_4="36.34301" pt_clust_5="36.34301" pt_clust_6="31.42304"></scales>
<clustering>
<clus scale="   31.423">  2  6  1 -1</clus>
<clus scale="   36.343">  4  5 -1 -1</clus>
<clus scale="  137.780">  1  3  2 -1</clus>
<clus scale="  137.780">  1  3  2 -1</clus>
</clustering>
</event>
<event>
 6    0  0.6132510E+002  0.7613973E+02  0.7546771E-02  0.1340378E+00
         21   -1    0    0  505  501  0.00000000000E+00  0.00000000000E+00  0.25964099846E+03  0.25964099846E+03  0.00000000000E+00 0. -1.
         21   -1    0    0  503  502 -0.00000000000E+00 -0.00000000000E+00 -0.26485413231E+04  0.26485413231E+04  0.00000000000E+00 0.  1.
         21    1    1    2  503  506  0.79373490125E+01 -0.36277815056E+02 -0.18582311695E+04  0.18586022062E+04  0.00000000000E+00 0.  1.
         21    1    1    2  504  501  0.67865525288E+02 -0.56712825818E+02  0.83296396602E+02  0.12149223770E+03  0.00000000000E+00 0. -1.
         21    1    1    2  505  502 -0.11087415207E+01  0.80388261366E+02  0.14476193995E+03  0.16558840881E+03  0.00000000000E+00 0. -1.
         21    1    1    2  506  504 -0.74694132780E+02  0.12602379508E+02 -0.75872749166E+03  0.76249946888E+03  0.00000000000E+00 0. -1.
<scales pt_clust_3="37.13598" pt_clust_4="76.13973" pt_clust_5="14000.00000" pt_clust_6="70.67065"></scales>
<clustering>
<clus scale="   37.136">  2  3  1 -1</clus>
<clus scale="   70.671">  2  6  1 -1</clus>
<clus scale="   76.140">  2  4  1 -1</clus>
<clus scale="   76.140">  1  3  2 -1</clus>
</clustering>
</event>
<event>
 6    0  0.6132510E+002  0.1711292E+03  0.7546771E-02  0.1176675E+00
         21   -1    0    0  502  501  0.00000000000E+00  0.00000000000E+00  0.40031056953E+03  0.40031056953E+03  0.00000000000E+00 0.  1.
         21   -1    0    0  506  502 -0.00000000000E+00 -0.00000000000E+00 -0.71735856492E+03  0.71735856492E+03  0.00000000000E+00 0.  1.
         21    1    1    2  503  505 -0.30825096284E+02  0.13715454839E+03  0.64859053468E+02  0.15481683863E+03  0.00000000000E+00 0.  1.
         21    1    1    2  504  503  0.43126621892E+02  0.29701418528E+02 -0.10110247899E+01  0.52374630782E+02  0.00000000000E+00 0.  1.
         21    1    1    2  505  501 -0.23322804813E+02 -0.20011825593E+03  0.22588815937E+03  0.30268255669E+03  0.00000000000E+00 0.  1.
         21    1    1    2  506  504  0.11021279205E+02  0.33262289006E+02 -0.60678418343E+03  0.60779510835E+03  0.00000000000E+00 0.  1.
<scales pt_clust_3="14000.00000" pt_clust_4="59.36325" pt_clust_5="171.12918" pt_clust_6="35.04067"></scales>
<clustering>
<clus scale="   35.041">  2  6  1 -1</clus>
<clus scale="   59.363">  2  4  1 -1</clus>
<clus scale="  171.129">  1  5  2 -1</clus>
<clus scale="  171.129">  1  3  2 -1</clus>
</clustering>
</event>
<event>
 6    0  0.6132510E+002  0.8766877E+02  0.7546771E-02  0.1308597E+00
         21   -1    0    0  503  501  0.00000000000E+00  0.00000000000E+00  0.98073297512E+03  0.98073297512E+03  0.00000000000E+00 0.  1.
         21   -1    0    0  506  502 -0.00000000000E+00 -0.00000000000E+00 -0.13152850134E+03  0.13152850134E+03  0.00000000000E+00 0.  1.
         21    1    1    2  503  505 -0.11678494225E+02  0.51984576355E+02  0.40927363392E+03  0.41272713846E+03  0.00000000000E+00 0.  1.
         21    1    1    2  504  501 -0.33346695857E+02 -0.13885295470E+01  0.35505329265E+03  0.35661852274E+03  0.00000000000E+00 0.  1.
         21    1    1    2  505  502 -0.21552358190E+02 -0.87988090093E+02 -0.10475192368E+03  0.13848961570E+03  0.00000000000E+00 0.  1.
         21    1    1    2  506  504  0.66577548273E+02  0.37392043285E+02  0.18962947090E+03  0.20442619956E+03  0.00000000000E+00 0.  1.
<scales pt_clust_3="61.13897" pt_clust_4="33.37559" pt_clust_5="87.66877" pt_clust_6="14000.00000"></scales>
<clustering>
<clus scale="   33.376">  1  4  2 -1</clus>
<clus scale="   61.139">  1  3  2 -1</clus>
<clus scale="   87.669">  2  5  1 -1</clus>
<clus scale="   33.376">  1  3  2 -1</clus>
</clustering>
</event>
<event>
 6    0  0.6132510E+002  0.1054012E+03  0.7546771E-02  0.1269331E+00
         21   -1    0    0  506  501  0.00000000000E+00  0.00000000000E+00  0.10676841464E+03  0.10676841464E+03  0.00000000000E+00 0. -1.
         21   -1    0    0  504  502 -0.00000000000E+00 -0.00000000000E+00 -0.38427212939E+03  0.38427212939E+03  0.00000000000E+00 0. -1.
         21    1    1    2  503  501 -0.44509482802E+02 -0.35985408709E+02 -0.72030665286E+02  0.92002502362E+02  0.00000000000E+00 0. -1.
         21    1    1    2  504  503 -0.41744394847E+02 -0.45353797755E+02 -0.20854176735E+03  0.21746087051E+03  0.00000000000E+00 0. -1.
         21    1    1    2  505  502  0.60167392277E+02 -0.36085900984E+01 -0.49790872761E+02  0.78180995301E+02  0.00000000000E+00 0. -1.
         21    1    1    2  506  505  0.26086485372E+02  0.84947796563E+02  0.52859590650E+02  0.10339617587E+03  0.00000000000E+00 0. -1.
<scales pt_clust_3="52.69924" pt_clust_4="52.69924" pt_clust_5="60.27551" pt_clust_6="90.10289"></scales>
<clustering>
<clus scale="   52.699">  3  4 -1 -1</clus>
<clus scale="   60.276">  2  5  1 -1</clus>
<clus scale="   90.103">  1  6  2 -1</clus>
<clus scale="   90.103">  1  3  2 -1</clus>
</clustering>
</event>
<event>
 6    0  0.6132510E+002  0.2077723E+03  0.7546771E-02  0.1143342E+00
         21   -1    0    0  504  501  0.00000000000E+00  0.00000000000E+00  0.50693369998E+03  0.50693369998E+03  0.00000000000E+00 0. -1.
         21   -1    0    0  506  502 -0.00000000000E+00 -0.00000000000E+00 -0.28668362183E+03  0.28668362183E+03  0.00000000000E+00 0. -1.
         21    1    1    2  503  502  0.23592043720E+01 -0.43186215739E+02 -0.16156031992E+03  0.16724937084E+03  0.00000000000E+00 0. -1.
         21    1    1    2  504  503 -0.12557434876E+03  0.14557834502E+03  0.39673719568E+03  0.44086548294E+03  0.00000000000E+00 0. -1.
         21    1    1    2  505  501  0.31717561689E+02 -0.86371404217E+02 -0.72406956564E+01  0.92295454165E+02  0.00000000000E+00 0. -1.
         21    1    1    2  506  505  0.91497582698E+02 -0.16020725064E+02 -0.76861019547E+01  0.93207013869E+02  0.00000000000E+00 0. -1.
<scales pt_clust_3="43.25061" pt_clust_4="186.13732" pt_clust_5="87.75703" pt_clust_6="87.75703"></scales>
<clustering>
<clus scale="   43.251">  2  3  1 -1</clus>
<clus scale="   87.757">  5  6 -1 -1</clus>
<clus scale="  186.137">  1  4  2 -1</clus>
<clus scale="  186.137">  1  3  2 -1</clus>
</clustering>
</event>
<event>
 6    0  0.6132510E+002  0.1602587E+03  0.7546771E-02  0.1188405E+00
         21   -1    0    0  504  501  0.00000000000E+00  0.00000000000E+00  0.12220289443E+04  0.12220289443E+04  0.00000000000E+00 0.  1.
         21   -1    0    0  503  502 -0.00000000000E+00 -0.00000000000E+00 -0.10808115942E+03  0.10808115942E+03  0.00000000000E+00 0. -1.
         21    1    1    2  503  505 -0.34384055318E+02 -0.69968376633E+02  0.75464733755E+03  0.75866358886E+03  0.00000000000E+00 0.  1.
         21    1    1    2  504  506  0.47629794649E+02  0.11391585490E+03  0.30880923902E+02  0.12727549174E+03  0.00000000000E+00 0. -1.
         21    1    1    2  505  501 -0.31121860427E+02 -0.70181958399E+02  0.37776966755E+03  0.38549189252E+03  0.00000000000E+00 0.  1.
         21    1    1    2  506  502  0.17876121096E+02  0.26234480129E+02 -0.49350144079E+02  0.58679130649E+02  0.00000000000E+00 0. -1.
<scales pt_clust_3="52.04434" pt_clust_4="151.30271" pt_clust_5="52.04434" pt_clust_6="31.74592"></scales>
<clustering>
<clus scale="   31.746">  2  6  1 -1</clus>
<clus scale="   52.044">  3  5 -1 -1</clus>
<clus scale="  151.303">  2  4  1 -1</clus>
<clus scale="  160.259">  1  3  2 -1</clus>
</clustering>
</event>
<event>
 6    0  0.6132510E+002  0.8541851E+02  0.7546771E-02  0.1314342E+00
         21   -1    0    0  505  501  0.00000000000E+00  0.00000000000E+00  0.23033207362E+03  0.23033207362E+03  0.00000000000E+00 0.  1.
         21   -1    0    0  504  502 -0.00000000000E+00 -0.00000000000E+00 -0.44119917570E+03  0.44119917570E+03  0.00000000000E+00 0.  1.
         21    1    1    2  503  502  0.28631118224E+02 -0.21662642175E+02 -0.65151853143E+02  0.74389347119E+02  0.00000000000E+00 0.  1.
         21    1    1    2  504  506 -0.38617504225E+02 -0.44538033347E+02 -0.30211624826E+03  0.30781354017E+03  0.00000000000E+00 0.  1.
         21    1    1    2  505  503 -0.81695083012E+02 -0.85348360003E+01  0.14982348233E+03  0.17086253501E+03  0.00000000000E+00 0.  1.
         21    1    1    2  506  501  0.91681469012E+02  0.74735511523E+02  0.65775169961E+01  0.11846582702E+03  0.00000000000E+00 0.  1.
<scales pt_clust_3="35.90280" pt_clust_4="64.12976" pt_clust_5="14000.00000" pt_clust_6="85.41851"></scales>
<clustering>
<clus scale="   35.903">  2  3  1 -1</clus>
<clus scale="   64.130">  2  4  1 -1</clus>
<clus scale="   85.419">  2  6  1 -1</clus>
<clus scale="   85.419">  1  3  2 -1</clus>
</clustering>
</event>
<event>
 6    0  0.6132510E+002  0.1008906E+03  0.7546771E-02  0.1278434E+00
         21   -1    0    0  503  501  0.00000000000E+00  0.00000000000E+00  0.65789191223E+02  0.65789191223E+02  0.00000000000E+00 0. -1.
         21   -1    0    0  506  502 -0.00000000000E+00 -0.00000000000E+00 -0.11639468049E+04  0.11639468049E+04  0.00000000000E+00 0.  1.
         21    1    1    2  503  502 -0.35802817296E+02 -0.26540606452E+02 -0.61390315663E+02  0.75861824223E+02  0.00000000000E+00 0.  1.
         21    1    1    2  504  505 -0.27030880350E+02  0.55904616410E+02 -0.32271057399E+02  0.69981538809E+02  0.00000000000E+00 0. -1.
         21    1    1    2  505  501 -0.28792313498E+02  0.27854662811E+02  0.25994363171E+02  0.47755486318E+02  0.00000000000E+00 0.  1.
         21    1    1    2  506  504  0.91626011144E+02 -0.57218672769E+02 -0.10304906038E+04  0.10361371468E+04  0.00000000000E+00 0.  1.
<scales pt_clust_3="47.25122" pt_clust_4="100.89062" pt_clust_5="40.06095" pt_clust_6="14000.00000"></scales>
<clustering>
<clus scale="   40.061">  1  5  2 -1</clus>
<clus scale="   47.251">  1  3  2 -1</clus>
<clus scale="  100.891">  1  4  2 -1</clus>
<clus scale="   40.061">  1  3  2 -1</clus>
</clustering>
</event>
<event>
 6    0  0.6132510E+002  0.1106465E+03  0.7546771E-02  0.1259377E+00
         21   -1    0    0  506  501  0.00000000000E+00  0.00000000000E+00  0.77353127372E+03  0.77353127372E+03  0.00000000000E+00 0. -1.
         21   -1    0    0  504  502 -0.00000000000E+00 -0.00000000000E+00 -0.58838737258E+02  0.58838737258E+02  0.00000000000E+00 0.  1.
         21    1    1    2  503  502  0.33331719762E+02  0.51255997947E+02 -0.19050925076E+02  0.64039976686E+02  0.00000000000E+00 0.  1.
         21    1    1    2  504  501  0.73953535060E+02 -0.10625673443E+02  0.11700330021E+03  0.13882291793E+03  0.00000000000E+00 0.  1.
         21    1    1    2  505  503 -0.63648176009E+02 -0.26115176864E+02  0.23076504264E+03  0.24080198852E+03  0.00000000000E+00 0. -1.
         21    1    1    2  506  505 -0.43637078812E+02 -0.14515147640E+02  0.38597511869E+03  0.38870512783E+03  0.00000000000E+00 0. -1.
<scales pt_clust_3="61.14066" pt_clust_4="97.43109" pt_clust_5="42.87347" pt_clust_6="42.87347"></scales>
<clustering>
<clus scale="   42.873">  5  6 -1 -1</clus>
<clus scale="   61.141">  2  3  1 -1</clus>
<clus scale="   97.431">  2  4  1 -1</clus>
<clus scale="  110.647">  1  3  2 -1</clus>
</clustering>
</event>
<event>
 6    0  0.6132510E+002  0.8895878E+02  0.7546771E-02  0.1305393E+00
         21   -1    0    0  506  501  0.00000000000E+00  0.00000000000E+00  0.52310541757E+03  0.52310541757E+03  0.00000000000E+00 0.  1.
         21   -1    0    0  505  502 -0.00000000000E+00 -0.00000000000E+00 -0.87354592062E+02  0.87354592062E+02  0.00000000000E+00 0.  1.
         21    1    1    2  503  502  0.46139745076E+01  0.70115358960E+02  0.55906062521E+02  0.89793875902E+02  0.00000000000E+00 0.  1.
         21    1    1    2  504  503  0.22415095236E+02 -0.84040872975E+02 -0.13173031443E+02  0.87970640456E+02  0.00000000000E+00 0.  1.
         21    1    1    2  505  501 -0.10120947277E+03  0.27541949364E+02  0.24705692960E+03  0.26840089943E+03  0.00000000000E+00 0.  1.
         21    1    1    2  506  504  0.74180403022E+02 -0.13616435349E+02  0.14596086484E+03  0.16429459385E+03  0.00000000000E+00 0.  1.
<scales pt_clust_3="70.26701" pt_clust_4="42.38400" pt_clust_5="88.95878" pt_clust_6="14000.00000"></scales>
<clustering>
<clus scale="   70.267">  2  3  1 -1</clus>
<clus scale="   42.384">  2  4  1 -1</clus>
<clus scale="   88.959">  2  5  1 -1</clus>
<clus scale="   88.959">  1  3  2 -1</clus>
</clustering>
</event>
<event>
 6    0  0.6132510E+002  0.7154661E+02  0.7546771E-02  0.1354911E+00
         21   -1    0    0  504  501  0.00000000000E+00  0.00000000000E+00  0.19102717381E+03  0.19102717381E+03  0.00000000000E+00 0.  1.
         21   -1    0    0  506  502 -0.00000000000E+00 -0.00000000000E+00 -0.38613397378E+03  0.38613397378E+03  0.00000000000E+00 0.  1.
         21    1    1    2  503  502 -0.51766950704E+02  0.31868373464E+02 -0.32461299643E+03  0.33025597325E+03  0.00000000000E+00 0.  1.
         21    1    1    2  504  503 -0.74517967483E+00 -0.10376278969E+03  0.42532879814E+02  0.11214418256E+03  0.00000000000E+00 0.  1.
         21    1    1    2  505  501  0.24891189138E+02  0.26081055169E+02  0.69826467760E+02  0.78584529873E+02  0.00000000000E+00 0.  1.
         21    1    1    2  506  505  0.27620941241E+02  0.45813361052E+02  0.17146848888E+02  0.56176461910E+02  0.00000000000E+00 0.  1.
<scales pt_clust_3="60.61415" pt_clust_4="71.54661" pt_clust_5="36.05264" pt_clust_6="14000.00000"></scales>
<clustering>
<clus scale="   36.053">  1  5  2 -1</clus>
<clus scale="   60.614">  2  3  1 -1</clus>
<clus scale="   71.547">  1  4  2 -1</clus>
<clus scale="   36.053">  1  3  2 -1</clus>
</clustering>
</event>
<event>
 6    0  0.6132510E+002  0.1486727E+03  0.7546771E-02  0.1202114E+00
         21   -1    0    0  503  501  0.00000000000E+00  0.00000000000E+00  0.27525644712E+03  0.27525644712E+03  0.00000000000E+00 0.  1.
         21   -1    0    0  504  502 -0.00000000000E+00 -0.00000000000E+00 -0.31815710101E+03  0.31815710101E+03  0.00000000000E+00 0. -1.
         21    1    1    2  503  502  0.18714844413E+03  0.23699438719E+02  0.33246212595E+02  0.19155029154E+03  0.00000000000E+00 0. -1.
         21    1    1    2  504  506 -0.47616672678E+02  0.29822681345E+01 -0.18759409327E+03  0.19356597137E+03  0.00000000000E+00 0. -1.
         21    1    1    2  505  501 -0.18937716944E+02 -0.42941930841E+02  0.60020260342E+02  0.76191063774E+02  0.00000000000E+00 0.  1.
         21    1    1    2  506  505 -0.12059405451E+03  0.16260223988E+02  0.51426966446E+02  0.13210622145E+03  0.00000000000E+00 0. -1.
<scales pt_clust_3="14000.00000" pt_clust_4="47.94792" pt_clust_5="46.93236" pt_clust_6="148.67265"></scales>
<clustering>
<clus scale="   46.932">  1  5  2 -1</clus>
<clus scale="   47.948">  2  4  1 -1</clus>
<clus scale="  148.673">  1  6  2 -1</clus>
<clus scale="   46.932">  1  3  2 -1</clus>
</clustering>
</event>
<event>
 6    0  0.6132510E+002  0.7235648E+02  0.7546771E-02  0.1352258E+00
         21   -1    0    0  506  501  0.00000000000E+00  0.00000000000E+00  0.17146410712E+04  0.17146410712E+04  0.00000000000E+00 0. -1.
         21   -1    0    0  503  502 -0.00000000000E+00 -0.00000000000E+00 -0.23171439589E+03  0.23171439589E+03  0.00000000000E+00 0.  1.
         21    1    1    2  503  501 -0.35266621563E+02  0.90925019982E+02 -0.17852283278E+03  0.20342442252E+03  0.00000000000E+00 0.  1.
         21    1    1    2  504  502 -0.26523970647E+02 -0.52523958186E+02 -0.16495664155E+02  0.61109689398E+02  0.00000000000E+00 0.  1.
         21    1    1    2  505  504  0.32056530067E+02 -0.62888875104E+02  0.82785269724E+03  0.83085661823E+03  0.00000000000E+00 0.  1.
         21    1    1    2  506  505  0.29734062143E+02  0.24487813308E+02  0.85009247501E+03  0.85096473694E+03  0.00000000000E+00 0. -1.
<scales pt_clust_3="72.35648" pt_clust_4="57.93230" pt_clust_5="14000.00000" pt_clust_6="38.51970"></scales>
<clustering>
<clus scale="   38.520">  1  6  2 -1</clus>
<clus scale="   57.932">  2  4  1 -1</clus>
<clus scale="   72.356">  2  3  1 -1</clus>
<clus scale="   38.520">  1  3  2 -1</clus>
</clustering>
</event>
<event>
 6    0  0.6132510E+002  0.2753829E+03  0.7546771E-02  0.1098238E+00
         21   -1    0    0  506  501  0.00000000000E+00  0.00000000000E+00  0.19414829946E+04  0.19414829946E+04  0.00000000000E+00 0. -1.
         21   -1    0    0  501  502 -0.00000000000E+00 -0.00000000000E+00 -0.46831772036E+03  0.46831772036E+03  0.00000000000E+00 0.  1.
         21    1    1    2  503  505 -0.20292831555E+03  0.46678552658E+02 -0.39219597589E+03  0.44404557428E+03  0.00000000000E+00 0.  1.
         21    1    1    2  504  503  0.10437386787E+03 -0.41845818861E+02  0.83141934580E+03  0.83898933570E+03  0.00000000000E+00 0. -1.
         21    1    1    2  505  502 -0.65157269692E+02 -0.20657624899E+01 -0.13525618743E+02  0.66578371343E+02  0.00000000000E+00 0.  1.
         21    1    1    2  506  504  0.16371171737E+03 -0.27669713062E+01  0.10474675231E+04  0.10601874337E+04  0.00000000000E+00 0. -1.
<scales pt_clust_3="270.25796" pt_clust_4="43.82325" pt_clust_5="65.19001" pt_clust_6="43.82325"></scales>
<clustering>
<clus scale="   43.823">  4  6 -1 -1</clus>
<clus scale="   65.190">  2  5  1 -1</clus>
<clus scale="  270.258">  2  3  1 -1</clus>
<clus scale="  275.383">  1  3  2 -1</clus>
</clustering>
</event>
<event>
 6    0  0.6132510E+002  0.8319822E+02  0.7546771E-02  0.1320213E+00
         21   -1    0    0  505  501  0.00000000000E+00  0.00000000000E+00  0.14546854319E+02  0.14546854319E+02  0.00000000000E+00 0.  1.
         21   -1    0    0  506  502 -0.00000000000E+00 -0.00000000000E+00 -0.16310459244E+04  0.16310459244E+04  0.00000000000E+00 0.  1.
         21    1    1    2  503  502  0.57507499849E+02 -0.22037357144E+02 -0.42711988334E+03  0.43153696527E+03  0.00000000000E+00 0.  1.
         21    1    1    2  504  501  0.14850703151E+02  0.10014988031E+03 -0.72768980117E+03  0.73469925046E+03  0.00000000000E+00 0.  1.
         21    1    1    2  505  503 -0.72167062921E+02 -0.46344799398E+02 -0.22947084219E+03  0.24497508611E+03  0.00000000000E+00 0.  1.
         21    1    1    2  506  504 -0.19114007946E+00 -0.31767723772E+02 -0.23221854340E+03  0.23438147688E+03  0.00000000000E+00 0.  1.
<scales pt_clust_3="65.66041" pt_clust_4="83.19822" pt_clust_5="14000.00000" pt_clust_6="31.76830"></scales>
<clustering>
<clus scale="   31.768">  2  6  1 -1</clus>
<clus scale="   65.660">  2  3  1 -1</clus>
<clus scale="   83.198">  2  4  1 -1</clus>
<clus scale="   83.198">  1  3  2 -1</clus>
</clustering>
</event>
<event>
 6    0  0.6132510E+002  0.1174285E+03  0.7546771E-02  0.1247401E+00
         21   -1    0    0  503  501  0.00000000000E+00  0.00000000000E+00  0.99254838306E+02  0.99254838306E+02  0.00000000000E+00 0.  1.
         21   -1    0    0  505  502 -0.00000000000E+00 -0.00000000000E+00 -0.11156674772E+04  0.11156674772E+04  0.00000000000E+00 0. -1.
         21    1    1    2  503  504  0.29955787236E+02  0.27284037873E+02  0.39869081760E+02  0.56844626764E+02  0.00000000000E+00 0.  1.
         21    1    1    2  504  502 -0.27061285060E+02 -0.65941888654E+02 -0.13770630169E+03  0.15506021848E+03  0.00000000000E+00 0.  1.
         21    1    1    2  505  506 -0.18110575455E+02  0.11972903044E+03 -0.91229031446E+03  0.92029161222E+03  0.00000000000E+00 0. -1.
         21    1    1    2  506  501  0.15216073280E+02 -0.81071179656E+02 -0.62851045487E+01  0.82725858086E+02  0.00000000000E+00 0.  1.
<scales pt_clust_3="40.51874" pt_clust_4="65.10403" pt_clust_5="117.42850" pt_clust_6="14000.00000"></scales>
<clustering>
<clus scale="   40.519">  1  3  2 -1</clus>
<clus scale="   65.104">  1  4  2 -1</clus>
<clus scale="  117.428">  2  5  1 -1</clus>
<clus scale="   40.519">  1  3  2 -1</clus>
</clustering>
</event>
<event>
 6    0  0.6132510E+002  0.1631645E+03  0.7546771E-02  0.1185170E+00
         21   -1    0    0  503  501  0.00000000000E+00  0.00000000000E+00  0.16364026168E+03  0.16364026168E+03  0.00000000000E+00 0. -1.
         21   -1    0    0  505  502 -0.00000000000E+00 -0.00000000000E+00 -0.45300876880E+03  0.45300876880E+03  0.00000000000E+00 0. -1.
         21    1    1    2  503  506 -0.39708118751E+02  0.14519350423E+03  0.48699915382E+02  0.15820736431E+03  0.00000000000E+00 0. -1.
         21    1    1    2  504  502  0.45382791989E+01  0.38140415871E+02 -0.34432649125E+02  0.51583860137E+02  0.00000000000E+00 0. -1.
         21    1    1    2  505  501  0.48469867330E+02 -0.21868856088E+03 -0.21488212006E+03  0.31040029031E+03  0.00000000000E+00 0. -1.
         21    1    1    2  506  504 -0.13300027777E+02  0.35354640786E+02 -0.88753653311E+02  0.96457515726E+02  0.00000000000E+00 0. -1.
<scales pt_clust_3="163.16452" pt_clust_4="82.10593" pt_clust_5="14000.00000" pt_clust_6="35.24458"></scales>
<clustering>
<clus scale="   35.245">  4  6 -1 -1</clus>
<clus scale="   82.106">  2  4  1 -1</clus>
<clus scale="  163.165">  1  3  2 -1</clus>
<clus scale="  163.165">  1  3  2 -1</clus>
</clustering>
</event>
<event>
 6    0  0.6132510E+002  0.9076401E+02  0.7546771E-02  0.1301012E+00
         21   -1    0    0  505  501  0.00000000000E+00  0.00000000000E+00  0.80450373502E+03  0.80450373502E+03  0.00000000000E+00 0.  1.
         21   -1    0    0  506  502 -0.00000000000E+00 -0.00000000000E+00 -0.36648415709E+02  0.36648415709E+02  0.00000000000E+00 0.  1.
         21    1    1    2  503  501 -0.11207590327E+03  0.62247269190E+02  0.41136441414E+03  0.43087865094E+03  0.00000000000E+00 0.  1.
         21    1    1    2  504  502  0.25589478412E+02 -0.36949085002E+02  0.81567687642E+02  0.93130789512E+02  0.00000000000E+00 0.  1.
         21    1    1    2  505  504  0.43318415836E+02  0.75161644117E+01  0.25594442725E+03  0.25969314146E+03  0.00000000000E+00 0. -1.
         21    1    1    2  506  503  0.43168009026E+02 -0.32814348600E+02  0.18978790280E+02  0.57449568822E+02  0.00000000000E+00 0.  1.
<scales pt_clust_3="14000.00000" pt_clust_4="48.32068" pt_clust_5="43.96564" pt_clust_6="90.76401"></scales>
<clustering>
<clus scale="   43.966">  1  5  2 -1</clus>
<clus scale="   48.321">  2  4  1 -1</clus>
<clus scale="   90.764">  2  6  1 -1</clus>
<clus scale="   43.966">  1  3  2 -1</clus>
</clustering>
</event>
<event>
 6    0  0.6132510E+002  0.1380267E+03  0.7546771E-02  0.1216009E+00
         21   -1    0    0  506  501  0.00000000000E+00  0.00000000000E+00  0.93850021374E+02  0.93850021374E+02  0.00000000000E+00 0. -1.
         21   -1    0    0  503  502 -0.00000000000E+00 -0.00000000000E+00 -0.74857385491E+03  0.74857385491E+03  0.00000000000E+00 0.  1.
         21    1    1    2  503  505 -0.10518371473E+03 -0.12599690585E+03 -0.34227198368E+03  0.37959049638E+03  0.00000000000E+00 0.  1.
         21    1    1    2  504  502  0.11795040142E+03  0.47427139353E+02 -0.29810406552E+03  0.32407971955E+03  0.00000000000E+00 0. -1.
         21    1    1    2  505  501 -0.57764389105E+02  0.68201449665E+02 -0.21756156918E+02  0.91986372626E+02  0.00000000000E+00 0.  1.
         21    1    1    2  506  504  0.44997702418E+02  0.10368316833E+02  0.74083725881E+01  0.46767287726E+02  0.00000000000E+00 0. -1.
<scales pt_clust_3="138.02671" pt_clust_4="14000.00000" pt_clust_5="81.16426" pt_clust_6="46.17678"></scales>
<clustering>
<clus scale="   46.177">  1  6  2 -1</clus>
<clus scale="   81.164">  1  5  2 -1</clus>
<clus scale="  138.027">  1  3  2 -1</clus>
<clus scale="   46.177">  1  3  2 -1</clus>
</clustering>
</event>
<event>
 6    0  0.6132510E+002  0.9743438E+02  0.7546771E-02  0.1285785E+00
         21   -1    0    0  505  501  0.00000000000E+00  0.00000000000E+00  0.17944502204E+03  0.17944502204E+03  0.00000000000E+00 0. -1.
         21   -1    0    0  504  502 -0.00000000000E+00 -0.00000000000E+00 -0.11980633230E+04  0.11980633230E+04  0.00000000000E+00 0. -1.
         21    1    1    2  503  502  0.69097828645E+02 -0.24901688129E+01  0.98452859244E+02  0.12030659316E+03  0.00000000000E+00 0. -1.
         21    1    1    2  504  506 -0.23367226816E+02  0.93656775036E+02 -0.10463028047E+04  0.10507460102E+04  0.00000000000E+00 0. -1.
         21    1    1    2  505  503  0.89348316833E+01  0.37020635131E+02  0.17061400330E+02  0.41730684441E+02  0.00000000000E+00 0.  1.
         21    1    1    2  506  501 -0.54665433513E+02 -0.12818724135E+03 -0.87829755770E+02  0.16472505719E+03  0.00000000000E+00 0. -1.
<scales pt_clust_3="79.48013" pt_clust_4="97.43438" pt_clust_5="38.08357" pt_clust_6="14000.00000"></scales>
<clustering>
<clus scale="   38.084">  1  5  2 -1</clus>
<clus scale="   79.480">  1  3  2 -1</clus>
<clus scale="   97.434">  2  4  1 -1</clus>
<clus scale="   38.084">  1  3  2 -1</clus>
</clustering>
</event>
<event>
 6    0  0.6132510E+002  0.1051064E+03  0.7546771E-02  0.1269910E+00
         21   -1    0    0  505  501  0.00000000000E+00  0.00000000000E+00  0.67805863077E+02  0.67805863077E+02  0.00000000000E+00 0.  1.
         21   -1    0    0  503  502 -0.00000000000E+00 -0.00000000000E+00 -0.17113833671E+04  0.17113833671E+04  0.00000000000E+00 0. -1.
         21    1    1    2  503  506  0.17613018851E+02 -0.10143508233E+03 -0.12646094996E+04  0.12687933168E+04  0.00000000000E+00 0. -1.
         21    1    1    2  504  502  0.57298826861E+02  0.36050431890E+02 -0.18624094889E+03  0.19816276200E+03  0.00000000000E+00 0. -1.
         21    1    1    2  505  504 -0.11586346852E+03  0.11305201084E+03 -0.74195946356E+02  0.17807340888E+03  0.00000000000E+00 0.  1.
         21    1    1    2  506  501  0.40951622811E+02 -0.47667360403E+02 -0.11853110924E+03  0.13415974253E+03  0.00000000000E+00 0. -1.
<scales pt_clust_3="14000.00000" pt_clust_4="68.89549" pt_clust_5="105.10637" pt_clust_6="62.84276"></scales>
<clustering>
<clus scale="   62.843">  1  6  2 -1</clus>
<clus scale="   68.895">  2  4  1 -1</clus>
<clus scale="  105.106">  1  5  2 -1</clus>
<clus scale="   62.843">  1  3  2 -1</clus>
</clustering>
</event>
<event>
 6    0  0.6132510E+002  0.1011040E+03  0.7546771E-02  0.1277991E+00
         21   -1    0    0  504  501  0.00000000000E+00  0.00000000000E+00  0.59619751180E+03  0.59619751180E+03  0.00000000000E+00 0.  1.
         21   -1    0    0  503  502 -0.00000000000E+00 -0.00000000000E+00 -0.17324521882E+04  0.17324521882E+04  0.00000000000E+00 0.  1.
         21    1    1    2  503  506 -0.75512865446E+02 -0.15725061230E+03 -0.12112202857E+03  0.21236876824E+03  0.00000000000E+00 0.  1.
         21    1    1    2  504  505  0.36617926574E+02  0.10464833732E+03  0.34966454954E+03  0.36682072496E+03  0.00000000000E+00 0.  1.
         21    1    1    2  505  502  0.31261415479E+02  0.93548563805E+02 -0.15532909297E+04  0.15564193915E+04  0.00000000000E+00 0.  1.
         21    1    1    2  506  501  0.76335233921E+01 -0.40946288824E+02  0.18849373233E+03  0.19304081531E+03  0.00000000000E+00 0.  1.
<scales pt_clust_3="101.10402" pt_clust_4="81.04432" pt_clust_5="14000.00000" pt_clust_6="41.65176"></scales>
<clustering>
<clus scale="   41.652">  1  6  2 -1</clus>
<clus scale="   81.044">  1  4  2 -1</clus>
<clus scale="  101.104">  1  3  2 -1</clus>
<clus scale="   41.652">  1  3  2 -1</clus>
</clustering>
</event>
<event>
 6    0  0.6132510E+002  0.9046568E+02  0.7546771E-02  0.1301728E+00
         21   -1    0    0  504  501  0.00000000000E+00  0.00000000000E+00  0.30495132298E+03  0.30495132298E+03  0.00000000000E+00 0. -1.
         21   -1    0    0  506  502 -0.00000000000E+00 -0.00000000000E+00 -0.27887785850E+03  0.27887785850E+03  0.00000000000E+00 0. -1.
         21    1    1    2  503  502  0.20668819831E+02 -0.31187946024E+02 -0.17000395340E+03  0.17407249140E+03  0.00000000000E+00 0. -1.
         21    1    1    2  504  503 -0.32309893679E+02 -0.41716213523E+02  0.20215591201E+03  0.20892865878E+03  0.00000000000E+00 0. -1.
         21    1    1    2  505  501  0.81361510730E+02  0.97311888563E+02 -0.23719239785E+01  0.12686577595E+03  0.00000000000E+00 0. -1.
         21    1    1    2  506  505 -0.69720436882E+02 -0.24407729016E+02 -0.37065701511E+01  0.73962255354E+02  0.00000000000E+00 0. -1.
<scales pt_clust_3="37.41508" pt_clust_4="53.15750" pt_clust_5="14000.00000" pt_clust_6="90.46568"></scales>
<clustering>
<clus scale="   37.415">  2  3  1 -1</clus>
<clus scale="   53.158">  1  4  2 -1</clus>
<clus scale="   90.466">  2  6  1 -1</clus>
<clus scale="   53.158">  1  3  2 -1</clus>
</clustering>
</event>
<event>
 6    0  0.6132510E+002  0.1037086E+03  0.7546771E-02  0.1272685E+00
         21   -1    0    0  506  501  0.00000000000E+00  0.00000000000E+00  0.12803459432E+04  0.12803459432E+04  0.00000000000E+00 0. -1.
         21   -1    0    0  505  502 -0.00000000000E+00 -0.00000000000E+00 -0.11629477741E+03  0.11629477741E+03  0.00000000000E+00 0. -1.
         21    1    1    2  503  501  0.15044614620E+02  0.35496725373E+02  0.11179750703E+03  0.11825836343E+03  0.00000000000E+00 0. -1.
         21    1    1    2  504  502 -0.11666842216E+02  0.44857906402E+02 -0.96481581537E+02  0.10703757541E+03  0.00000000000E+00 0. -1.
         21    1    1    2  505  503  0.59168225355E+02  0.45816193100E+02  0.60740385395E+03  0.61199627796E+03  0.00000000000E+00 0. -1.
         21    1    1    2  506  504 -0.62545997760E+02 -0.12617082487E+03  0.54133138633E+03  0.55934850381E+03  0.00000000000E+00 0. -1.
<scales pt_clust_3="38.55331" pt_clust_4="46.48883" pt_clust_5="103.70862" pt_clust_6="14000.00000"></scales>
<clustering>
<clus scale="   38.553">  1  3  2 -1</clus>
<clus scale="   46.489">  2  4  1 -1</clus>
<clus scale="  103.709">  1  5  2 -1</clus>
<clus scale="   38.553">  1  3  2 -1</clus>
</clustering>
</event>
<event>
 6    0  0.6132510E+002  0.1092999E+03  0.7546771E-02  0.1261872E+00
         21   -1    0    0  503  501  0.00000000000E+00  0.00000000000E+00  0.54460243450E+02  0.54460243450E+02  0.00000000000E+00 0. -1.
         21   -1    0    0  506  502 -0.00000000000E+00 -0.00000000000E+00 -0.84366131631E+03  0.84366131631E+03  0.00000000000E+00 0. -1.
         21    1    1    2  503  502 -0.34539373634E+02  0.55505515168E+02 -0.76650514127E+02  0.10074289980E+03  0.00000000000E+00 0. -1.
         21    1    1    2  504  501  0.34120030061E+02  0.24415868618E+01  0.45070185425E+01  0.34502913122E+02  0.00000000000E+00 0. -1.
         21    1    1    2  505  504  0.47296238693E+02  0.54981946221E+02 -0.58824161411E+02  0.93382174801E+02  0.00000000000E+00 0. -1.
         21    1    1    2  506  505 -0.46876895121E+02 -0.11292904825E+03 -0.65823341587E+03  0.66949357204E+03  0.00000000000E+00 0. -1.
<scales pt_clust_3="60.77788" pt_clust_4="34.20728" pt_clust_5="14000.00000" pt_clust_6="109.29986"></scales>
<clustering>
<clus scale="   34.207">  1  4  2 -1</clus>
<clus scale="   60.778">  1  3  2 -1</clus>
<clus scale="  109.300">  2  6  1 -1</clus>
<clus scale="   34.207">  1  3  2 -1</clus>
</clustering>
</event>
<event>
 6    0  0.6132510E+002  0.9257245E+02  0.7546771E-02  0.1296739E+00
         21   -1    0    0  503  501  0.00000000000E+00  0.00000000000E+00  0.26848138281E+03  0.26848138281E+03  0.00000000000E+00 0. -1.
         21   -1    0    0  506  502 -0.00000000000E+00 -0.00000000000E+00 -0.14879447937E+03  0.14879447937E+03  0.00000000000E+00 0.  1.
         21    1    1    2  503  504 -0.50760779769E+02 -0.97198328551E+01  0.13461131868E+03  0.14419202138E+03  0.00000000000E+00 0. -1.
         21    1    1    2  504  502  0.14161563191E+03  0.21459879765E+02  0.27203610793E+02  0.14579283275E+03  0.00000000000E+00 0. -1.
         21    1    1    2  505  501 -0.42717307543E+02 -0.61178966008E+01  0.20766394302E+02  0.47889875285E+02  0.00000000000E+00 0.  1.
         21    1    1    2  506  505 -0.48137544601E+02 -0.56221503094E+01 -0.62894420333E+02  0.79401132759E+02  0.00000000000E+00 0.  1.
<scales pt_clust_3="92.57245" pt_clust_4="14000.00000" pt_clust_5="43.15318" pt_clust_6="49.98530"></scales>
<clustering>
<clus scale="   43.153">  1  5  2 -1</clus>
<clus scale="   49.985">  2  6  1 -1</clus>
<clus scale="   92.572">  1  3  2 -1</clus>
<clus scale="   43.153">  1  3  2 -1</clus>
</clustering>
</event>
<event>
 6    0  0.6132510E+002  0.9377957E+02  0.7546771E-02  0.1293949E+00
         21   -1    0    0  506  501  0.00000000000E+00  0.00000000000E+00  0.15407271647E+03  0.15407271647E+03  0.00000000000E+00 0. -1.
         21   -1    0    0  505  502 -0.00000000000E+00 -0.00000000000E+00 -0.76534547028E+03  0.76534547028E+03  0.00000000000E+00 0. -1.
         21    1    1    2  503  501 -0.48054248675E+01  0.33781617286E+02 -0.15646303782E+01  0.34157544450E+02  0.00000000000E+00 0. -1.
         21    1    1    2  504  502  0.11828041521E+03 -0.23518382660E+02 -0.48912299977E+03  0.50377046346E+03  0.00000000000E+00 0. -1.
         21    1    1    2  505  503 -0.37455102215E+02 -0.23974698057E+02 -0.23735339361E+03  0.24148354869E+03  0.00000000000E+00 0. -1.
         21    1    1    2  506  504 -0.76019888131E+02  0.13711463431E+02  0.11676826995E+03  0.14000663016E+03  0.00000000000E+00 0. -1.
<scales pt_clust_3="34.12169" pt_clust_4="93.77957" pt_clust_5="44.26115" pt_clust_6="14000.00000"></scales>
<clustering>
<clus scale="   34.122">  1  3  2 -1</clus>
<clus scale="   44.261">  2  5  1 -1</clus>
<clus scale="   93.780">  2  4  1 -1</clus>
<clus scale="   34.122">  1  3  2 -1</clus>
</clustering>
</event>
<event>
 6    0  0.6132510E+002  0.1329554E+03  0.7546771E-02  0.1223135E+00
         21   -1    0    0  503  501  0.00000000000E+00  0.00000000000E+00  0.11953706980E+03  0.11953706980E+03  0.00000000000E+00 0. -1.
         21   -1    0    0  505  502 -0.00000000000E+00 -0.00000000000E+00 -0.10155063869E+04  0.10155063869E+04  0.00000000000E+00 0. -1.
         21    1    1    2  503  506 -0.41635855233E+01  0.96552961019E+02  0.77747748338E+02  0.12403435854E+03  0.00000000000E+00 0. -1.
         21    1    1    2  504  501  0.18449807828E+02  0.38917093488E+02 -0.30185057404E+02  0.52593471695E+02  0.00000000000E+00 0. -1.
         21    1    1    2  505  504  0.32033734572E+02 -0.88488450282E+01 -0.16914641300E+03  0.17238030990E+03  0.00000000000E+00 0.  1.
         21    1    1    2  506  502 -0.46319956876E+02 -0.12662120948E+03 -0.77438559499E+03  0.78603531653E+03  0.00000000000E+00 0. -1.
<scales pt_clust_3="132.95535" pt_clust_4="43.37922" pt_clust_5="33.23345" pt_clust_6="14000.00000"></scales>
<clustering>
<clus scale="   33.233">  2  5  1 -1</clus>
<clus scale="   43.379">  1  4  2 -1</clus>
<clus scale="  132.955">  1  3  2 -1</clus>
<clus scale="   43.379">  1  3  2 -1</clus>
</clustering>
</event>
<event>
 6    0  0.6132510E+002  0.1927336E+03  0.7546771E-02  0.1156019E+00
         21   -1    0    0  506  501  0.00000000000E+00  0.00000000000E+00  0.98837760925E+03  0.98837760925E+03  0.00000000000E+00 0.  1.
         21   -1    0    0  503  502 -0.00000000000E+00 -0.00000000000E+00 -0.92364889338E+02  0.92364889338E+02  0.00000000000E+00 0.  1.
         21    1    1    2  503  504  0.20219796796E+03 -0.48532395509E+02  0.85425461266E+02  0.22480418389E+03  0.00000000000E+00 0.  1.
         21    1    1    2  504  505 -0.20995649432E+02  0.32567927799E+02  0.34298974508E+02  0.51748496292E+02  0.00000000000E+00 0.  1.
         21    1    1    2  505  501 -0.42764995437E+02  0.43346646066E+02  0.14400441477E+03  0.15634912226E+03  0.00000000000E+00 0.  1.
         21    1    1    2  506  502 -0.13843732309E+03 -0.27382178356E+02  0.63228386937E+03  0.64784069614E+03  0.00000000000E+00 0.  1.
<scales pt_clust_3="192.73357" pt_clust_4="32.73656" pt_clust_5="107.29641" pt_clust_6="14000.00000"></scales>
<clustering>
<clus scale="   32.737">  4  5 -1 -1</clus>
<clus scale="  107.296">  1  4  2 -1</clus>
<clus scale="  192.734">  2  3  1 -1</clus>
<clus scale="  107.296">  1  3  2 -1</clus>
</clustering>
</event>
<event>
 6    0  0.6132510E+002  0.1893530E+03  0.7546771E-02  0.1159046E+00
         21   -1    0    0  506  501  0.00000000000E+00  0.00000000000E+00  0.65917605956E+03  0.65917605956E+03  0.00000000000E+00 0.  1.
         21   -1    0    0  504  502 -0.00000000000E+00 -0.00000000000E+00 -0.50880062411E+03  0.50880062411E+03  0.00000000000E+00 0.  1.
         21    1    1    2  503  502 -0.35363801973E+02 -0.13121695718E+03  0.85276261542E+02  0.16043855249E+03  0.00000000000E+00 0.  1.
         21    1    1    2  504  501  0.27784082884E+02 -0.78779983885E+02 -0.44527527850E+03  0.45304339170E+03  0.00000000000E+00 0.  1.
         21    1    1    2  505  503  0.25427262949E+02  0.80403937664E+02  0.23379847349E+03  0.24854187796E+03  0.00000000000E+00 0.  1.
         21    1    1    2  506  505 -0.17847543860E+02  0.12959300340E+03  0.27657597892E+03  0.30595286152E+03  0.00000000000E+00 0.  1.
<scales pt_clust_3="181.73714" pt_clust_4="83.53587" pt_clust_5="42.68310" pt_clust_6="42.68310"></scales>
<clustering>
<clus scale="   42.683">  5  6 -1 -1</clus>
<clus scale="   83.536">  2  4  1 -1</clus>
<clus scale="  181.737">  2  3  1 -1</clus>
<clus scale="  189.353">  1  3  2 -1</clus>
</clustering>
</event>
<event>
 6    0  0.6132510E+002  0.8386246E+02  0.7546771E-02  0.1318434E+00
         21   -1    0    0  506  501  0.00000000000E+00  0.00000000000E+00  0.42432950540E+03  0.42432950540E+03  0.00000000000E+00 0.  1.
         21   -1    0    0  505  502 -0.00000000000E+00 -0.00000000000E+00 -0.82497973396E+02  0.82497973396E+02  0.00000000000E+00 0.  1.
         21    1    1    2  503  502 -0.91805375316E+02 -0.44520854992E+02  0.19381429794E+02  0.10385554047E+03  0.00000000000E+00 0.  1.
         21    1    1    2  504  501  0.79697527508E+02 -0.68904050245E+01  0.18400954313E+03  0.20064567160E+03  0.00000000000E+00 0.  1.
         21    1    1    2  505  504  0.59812392322E+02  0.37294004303E+02  0.19095910437E+02  0.73027521029E+02  0.00000000000E+00 0.  1.
         21    1    1    2  506  503 -0.47704544514E+02  0.14117255713E+02  0.11934464865E+03  0.12929874569E+03  0.00000000000E+00 0.  1.
<scales pt_clust_3="14000.00000" pt_clust_4="49.16279" pt_clust_5="83.86246" pt_clust_6="49.74958"></scales>
<clustering>
<clus scale="   49.750">  1  6  2 -1</clus>
<clus scale="   49.163">  1  4  2 -1</clus>
<clus scale="   83.862">  2  5  1 -1</clus>
<clus scale="   49.750">  1  3  2 -1</clus>
</clustering>
</event>
<event>
 6    0  0.6132510E+002  0.1520318E+03  0.7546771E-02  0.1197998E+00
         21   -1    0    0  502  501  0.00000000000E+00  0.00000000000E+00  0.12628705685E+03  0.12628705685E+03  0.00000000000E+00 0.  1.
         21   -1    0    0  503  502 -0.00000000000E+00 -0.00000000000E+00 -0.23438456635E+03  0.23438456635E+03  0.00000000000E+00 0.  1.
         21    1    1    2  503  504 -0.85268047716E+02  0.65988318093E+02 -0.76744766605E+02  0.13234370891E+03  0.00000000000E+00 0.  1.
         21    1    1    2  504  506 -0.12100085226E+02  0.31358261993E+02 -0.64492883662E+02  0.72726093672E+02  0.00000000000E+00 0. -1.
         21    1    1    2  505  501  0.31747654075E+02 -0.47389473974E+02  0.44505962515E+02  0.72349543759E+02  0.00000000000E+00 0.  1.
         21    1    1    2  506  505  0.65620478867E+02 -0.49957106112E+02 -0.11365821747E+02  0.83252276857E+02  0.00000000000E+00 0. -1.
<scales pt_clust_3="148.67935" pt_clust_4="31.32984" pt_clust_5="53.61855" pt_clust_6="53.61855"></scales>
<clustering>
<clus scale="   31.330">  3  4 -1 -1</clus>
<clus scale="   53.619">  5  6 -1 -1</clus>
<clus scale="  148.679">  2  3  1 -1</clus>
<clus scale="  152.032">  1  3  2 -1</clus>
</clustering>
</event>
<event>
 6    0  0.6132510E+002  0.1728937E+03  0.7546771E-02  0.1174863E+00
         21   -1    0    0  503  501  0.00000000000E+00  0.00000000000E+00  0.73382602461E+03  0.73382602461E+03  0.00000000000E+00 0. -1.
         21   -1    0    0  506  502 -0.00000000000E+00 -0.00000000000E+00 -0.17445420664E+03  0.17445420664E+03  0.00000000000E+00 0.  1.
         21    1    1    2  503  505  0.41028223482E+02  0.87425210586E+02  0.46256925104E+03  0.47254290237E+03  0.00000000000E+00 0. -1.
         21    1    1    2  504  502 -0.79260332742E+02 -0.15244080266E+03 -0.96874371579E+02  0.19724361214E+03  0.00000000000E+00 0.  1.
         21    1    1    2  505  504  0.57812628793E+02  0.39643496632E+02  0.19417493830E+03  0.20644082333E+03  0.00000000000E+00 0.  1.
         21    1    1    2  506  501 -0.19580519533E+02  0.25372095438E+02 -0.49799979583E+00  0.32052893409E+02  0.00000000000E+00 0. -1.
<scales pt_clust_3="52.30212" pt_clust_4="161.56184" pt_clust_5="52.30212" pt_clust_6="32.04902"></scales>
<clustering>
<clus scale="   32.049">  2  6  1 -1</clus>
<clus scale="   52.302">  3  5 -1 -1</clus>
<clus scale="  161.562">  2  4  1 -1</clus>
<clus scale="  172.894">  1  3  2 -1</clus>
</clustering>
</event>
<event>
 6    0  0.6132510E+002  0.2243242E+03  0.7546771E-02  0.1130700E+00
         21   -1    0    0  504  501  0.00000000000E+00  0.00000000000E+00  0.52416503589E+03  0.52416503589E+03  0.00000000000E+00 0.  1.
         21   -1    0    0  506  502 -0.00000000000E+00 -0.00000000000E+00 -0.50663989007E+03  0.50663989007E+03  0.00000000000E+00 0.  1.
         21    1    1    2  503  505 -0.94074380614E+02  0.68691696746E+02  0.11787105517E+03  0.16571699954E+03  0.00000000000E+00 0.  1.
         21    1    1    2  504  502  0.65301460381E+02 -0.32965883012E+02 -0.40423739739E+03  0.41080275513E+03  0.00000000000E+00 0.  1.
         21    1    1    2  505  501 -0.99422664571E+02  0.88160556982E+02  0.22056087796E+03  0.25749611827E+03  0.00000000000E+00 0.  1.
         21    1    1    2  506  503  0.12819558480E+03 -0.12388637072E+03  0.83330610081E+02  0.19678905302E+03  0.00000000000E+00 0.  1.
<scales pt_clust_3="47.08849" pt_clust_4="73.15074" pt_clust_5="47.08849" pt_clust_6="218.61360"></scales>
<clustering>
<clus scale="   47.088">  3  5 -1 -1</clus>
<clus scale="   73.151">  2  4  1 -1</clus>
<clus scale="  218.614">  2  6  1 -1</clus>
<clus scale="  224.324">  1  3  2 -1</clus>
</clustering>
</event>
<event>
 6    0  0.6132510E+002  0.1100309E+03  0.7546771E-02  0.1260513E+00
         21   -1    0    0  506  501  0.00000000000E+00  0.00000000000E+00  0.21595954860E+03  0.21595954860E+03  0.00000000000E+00 0. -1.
         21   -1    0    0  504  502 -0.00000000000E+00 -0.00000000000E+00 -0.18643302180E+03  0.18643302180E+03  0.00000000000E+00 0. -1.
         21    1    1    2  503  501  0.23053924582E+02  0.20359651224E+02  0.49330453770E+02  0.58133402668E+02  0.00000000000E+00 0. -1.
         21    1    1    2  504  503  0.11668570751E+03  0.54741063017E+01 -0.91311461946E+02  0.14826767436E+03  0.00000000000E+00 0. -1.
         21    1    1    2  505  502 -0.95568412675E+02 -0.36588657930E+02 -0.98373880393E+01  0.10280479363E+03  0.00000000000E+00 0. -1.
         21    1    1    2  506  505 -0.44171219417E+02  0.10754900404E+02  0.81344923013E+02  0.93186699735E+02  0.00000000000E+00 0. -1.
<scales pt_clust_3="30.75709" pt_clust_4="110.03089" pt_clust_5="14000.00000" pt_clust_6="38.47751"></scales>
<clustering>
<clus scale="   30.757">  1  3  2 -1</clus>
<clus scale="   38.478">  1  6  2 -1</clus>
<clus scale="  110.031">  2  4  1 -1</clus>
<clus scale="   30.757">  1  3  2 -1</clus>
</clustering>
</event>
<event>
 6    0  0.6132510E+002  0.9548629E+02  0.7546771E-02  0.1290085E+00
         21   -1    0    0  506  501  0.00000000000E+00  0.00000000000E+00  0.53129402646E+02  0.53129402646E+02  0.00000000000E+00 0.  1.
         21   -1    0    0  505  502 -0.00000000000E+00 -0.00000000000E+00 -0.13311471313E+04  0.13311471313E+04  0.00000000000E+00 0. -1.
         21    1    1    2  503  502  0.10037757353E+03  0.34926646775E+02 -0.10717294941E+04  0.10769863678E+04  0.00000000000E+00 0. -1.
         21    1    1    2  504  501 -0.56382978735E+02 -0.15066305988E+02  0.12357323392E+02  0.59655153244E+02  0.00000000000E+00 0.  1.
         21    1    1    2  505  504 -0.69492962487E+02  0.16144802920E+02 -0.14884492361E+03  0.16505980062E+03  0.00000000000E+00 0. -1.
         21    1    1    2  506  503  0.25498367687E+02 -0.36005143706E+02 -0.69800634339E+02  0.82575212275E+02  0.00000000000E+00 0.  1.
<scales pt_clust_3="95.48629" pt_clust_4="56.40830" pt_clust_5="14000.00000" pt_clust_6="44.11958"></scales>
<clustering>
<clus scale="   44.120">  1  6  2 -1</clus>
<clus scale="   56.408">  1  4  2 -1</clus>
<clus scale="   95.486">  2  3  1 -1</clus>
<clus scale="   44.120">  1  3  2 -1</clus>
</clustering>
</event>
<event>
 6    0  0.6132510E+002  0.1344360E+03  0.7546771E-02  0.1221018E+00
         21   -1    0    0  505  501  0.00000000000E+00  0.00000000000E+00  0.11154640917E+03  0.11154640917E+03  0.00000000000E+00 0.  1.
         21   -1    0    0  506  502 -0.00000000000E+00 -0.00000000000E+00 -0.67459301299E+03  0.67459301299E+03  0.00000000000E+00 0.  1.
         21    1    1    2  503  501  0.89293338910E+02 -0.54167094405E+02  0.10367463847E+02  0.10495169744E+03  0.00000000000E+00 0.  1.
         21    1    1    2  504  502 -0.39931245698E+02  0.62324567102E+01 -0.11427189200E+03  0.12120813999E+03  0.00000000000E+00 0.  1.
         21    1    1    2  505  504 -0.80330396756E+02 -0.94509769687E+02 -0.65617520653E+02  0.14032365526E+03  0.00000000000E+00 0.  1.
         21    1    1    2  506  503  0.30968303544E+02  0.14244440738E+03 -0.39352465502E+03  0.41965592945E+03  0.00000000000E+00 0.  1.
<scales pt_clust_3="101.27280" pt_clust_4="40.41470" pt_clust_5="14000.00000" pt_clust_6="134.43604"></scales>
<clustering>
<clus scale="   40.415">  2  4  1 -1</clus>
<clus scale="  101.273">  1  3  2 -1</clus>
<clus scale="  134.436">  2  6  1 -1</clus>
<clus scale="  101.273">  1  3  2 -1</clus>
</clustering>
</event>
<event>
 6    0  0.6132510E+002  0.1674302E+03  0.7546771E-02  0.1180555E+00
         21   -1    0    0  504  501  0.00000000000E+00  0.00000000000E+00  0.42508886487E+03  0.42508886487E+03  0.00000000000E+00 0.  1.
         21   -1    0    0  503  502 -0.00000000000E+00 -0.00000000000E+00 -0.69231283789E+03  0.69231283789E+03  0.00000000000E+00 0.  1.
         21    1    1    2  503  505 -0.14106541684E+03  0.42451902439E+02 -0.52556754461E+03  0.54582310302E+03  0.00000000000E+00 0.  1.
         21    1    1    2  504  506  0.10656728776E+01 -0.11830983401E+03  0.25486274587E+03  0.28098642621E+03  0.00000000000E+00 0.  1.
         21    1    1    2  505  501 -0.49355186060E+01 -0.78315842334E+02  0.84964976202E+01  0.78929848449E+02  0.00000000000E+00 0.  1.
         21    1    1    2  506  502  0.14493526257E+03  0.15417377390E+03 -0.50156719011E+01  0.21166232509E+03  0.00000000000E+00 0. -1.
<scales pt_clust_3="146.85489" pt_clust_4="167.43020" pt_clust_5="78.47121" pt_clust_6="14000.00000"></scales>
<clustering>
<clus scale="   78.471">  1  5  2 -1</clus>
<clus scale="  146.855">  2  3  1 -1</clus>
<clus scale="  167.430">  1  4  2 -1</clus>
<clus scale="   78.471">  1  3  2 -1</clus>
</clustering>
</event>
<event>
 6    0  0.6132510E+002  0.7300211E+02  0.7546771E-02  0.1350172E+00
         21   -1    0    0  505  501  0.00000000000E+00  0.00000000000E+00  0.12707737839E+04  0.12707737839E+04  0.00000000000E+00 0. -1.
         21   -1    0    0  506  502 -0.00000000000E+00 -0.00000000000E+00 -0.11021182227E+04  0.11021182227E+04  0.00000000000E+00 0. -1.
         21    1    1    2  503  504  0.10760847100E+02 -0.81127076033E+02 -0.43061264217E+03  0.43832025494E+03  0.00000000000E+00 0. -1.
         21    1    1    2  504  501 -0.96906607333E+01  0.52192679711E+02  0.11646597694E+04  0.11658689306E+04  0.00000000000E+00 0. -1.
         21    1    1    2  505  502 -0.54033190802E+02 -0.29578613808E+02  0.89732915357E+02  0.10884151874E+03  0.00000000000E+00 0.  1.
         21    1    1    2  506  503  0.52963004436E+02  0.58513010131E+02 -0.65512448139E+03  0.65986130233E+03  0.00000000000E+00 0. -1.
<scales pt_clust_3="14000.00000" pt_clust_4="53.08469" pt_clust_5="66.10507" pt_clust_6="73.00211"></scales>
<clustering>
<clus scale="   53.085">  1  4  2 -1</clus>
<clus scale="   66.105">  1  5  2 -1</clus>
<clus scale="   73.002">  2  6  1 -1</clus>
<clus scale="   53.085">  1  3  2 -1</clus>
</clustering>
</event>
<event>
 6    0  0.6132510E+002  0.8475904E+02  0.7546771E-02  0.1316064E+00
         21   -1    0    0  503  501  0.00000000000E+00  0.00000000000E+00  0.35495515647E+03  0.35495515647E+03  0.00000000000E+00 0.  1.
         21   -1    0    0  504  502 -0.00000000000E+00 -0.00000000000E+00 -0.17717599879E+03  0.17717599879E+03  0.00000000000E+00 0.  1.
         21    1    1    2  503  506  0.22407410211E+02  0.25768755204E+02  0.43271944388E+02  0.55123333972E+02  0.00000000000E+00 0.  1.
         21    1    1    2  504  501 -0.87410187643E+02 -0.26698389179E+02  0.24346572961E+03  0.26005558326E+03  0.00000000000E+00 0.  1.
         21    1    1    2  505  502  0.76421470903E+02 -0.38563905919E+02 -0.14091812842E+03  0.16487975913E+03  0.00000000000E+00 0.  1.
         21    1    1    2  506  505 -0.11418693471E+02  0.39493539894E+02  0.31959612092E+02  0.52072478902E+02  0.00000000000E+00 0. -1.
<scales pt_clust_3="34.14851" pt_clust_4="14000.00000" pt_clust_5="84.75904" pt_clust_6="43.83519"></scales>
<clustering>
<clus scale="   34.149">  1  3  2 -1</clus>
<clus scale="   43.835">  1  6  2 -1</clus>
<clus scale="   84.759">  2  5  1 -1</clus>
<clus scale="   34.149">  1  3  2 -1</clus>
</clustering>
</event>
<event>
 6    0  0.6132510E+002  0.9776392E+02  0.7546771E-02  0.1285070E+00
         21   -1    0    0  506  501  0.00000000000E+00  0.00000000000E+00  0.78429368689E+03  0.78429368689E+03  0.00000000000E+00 0.  1.
         21   -1    0    0  504  502 -0.00000000000E+00 -0.00000000000E+00 -0.32797545346E+03  0.32797545346E+03  0.00000000000E+00 0.  1.
         21    1    1    2  503  505  0.26482753696E+00  0.44015151537E+02  0.21471208274E+03  0.21917728480E+03  0.00000000000E+00 0.  1.
         21    1    1    2  504  501  0.69416823432E+02 -0.18895266889E+01 -0.96342584060E+01  0.70107664499E+02  0.00000000000E+00 0. -1.
         21    1    1    2  505  502 -0.84469733668E+02 -0.85069596108E+02 -0.27227671402E+03  0.29750055644E+03  0.00000000000E+00 0.  1.
         21    1    1    2  506  503  0.14788082699E+02  0.42943971261E+02  0.52351712310E+03  0.52548363461E+03  0.00000000000E+00 0.  1.
<scales pt_clust_3="41.17063" pt_clust_4="69.44254" pt_clust_5="88.36707" pt_clust_6="41.17063"></scales>
<clustering>
<clus scale="   41.171">  3  6 -1 -1</clus>
<clus scale="   69.443">  2  4  1 -1</clus>
<clus scale="   88.367">  2  5  1 -1</clus>
<clus scale="   97.764">  1  3  2 -1</clus>
</clustering>
</event>
<event>
 6    0  0.6132510E+002  0.7757266E+02  0.7546771E-02  0.1336084E+00
         21   -1    0    0  505  501  0.00000000000E+00  0.00000000000E+00  0.88661003420E+03  0.88661003420E+03  0.00000000000E+00 0. -1.
         21   -1    0    0  506  502 -0.00000000000E+00 -0.00000000000E+00 -0.24178319440E+03  0.24178319440E+03  0.00000000000E+00 0. -1.
         21    1    1    2  503  501  0.64547303370E+02 -0.96873232332E+01  0.55558198765E+03  0.55940284555E+03  0.00000000000E+00 0. -1.
         21    1    1    2  504  502 -0.98776188270E+02  0.38467763207E+02 -0.79772887110E+02  0.13266581207E+03  0.00000000000E+00 0. -1.
         21    1    1    2  505  504 -0.14492899122E+02 -0.50406191563E+02  0.29494904149E+03  0.29957597592E+03  0.00000000000E+00 0.  1.
         21    1    1    2  506  503  0.48721784022E+02  0.21625751589E+02 -0.12593130223E+03  0.13674859506E+03  0.00000000000E+00 0. -1.
<scales pt_clust_3="14000.00000" pt_clust_4="77.57266" pt_clust_5="52.44834" pt_clust_6="52.99763"></scales>
<clustering>
<clus scale="   52.448">  1  5  2 -1</clus>
<clus scale="   52.998">  2  6  1 -1</clus>
<clus scale="   77.573">  2  4  1 -1</clus>
<clus scale="   52.448">  1  3  2 -1</clus>
</clustering>
</event>
<event>
 6    0  0.6132510E+002  0.8820199E+02  0.7546771E-02  0.1307265E+00
         21   -1    0    0  506  501  0.00000000000E+00  0.00000000000E+00  0.43358877181E+03  0.43358877181E+03  0.00000000000E+00 0.  1.
         21   -1    0    0  503  502 -0.00000000000E+00 -0.00000000000E+00 -0.61301402760E+02  0.61301402760E+02  0.00000000000E+00 0.  1.
         21    1    1    2  503  504 -0.21584659100E+01  0.65372868196E+02  0.13258240315E+03  0.14783898165E+03  0.00000000000E+00 0.  1.
         21    1    1    2  504  501  0.38130208057E+02  0.18327572265E+02  0.10958625829E+03  0.11746897751E+03  0.00000000000E+00 0.  1.
         21    1    1    2  505  502  0.52156528295E+00  0.32671915987E+02 -0.18324355991E+02  0.37463424123E+02  0.00000000000E+00 0.  1.
         21    1    1    2  506  505 -0.36493307430E+02 -0.11637235645E+03  0.14844306360E+03  0.19211879128E+03  0.00000000000E+00 0.  1.
<scales pt_clust_3="88.20199" pt_clust_4="44.16624" pt_clust_5="32.67608" pt_clust_6="14000.00000"></scales>
<clustering>
<clus scale="   32.676">  2  5  1 -1</clus>
<clus scale="   44.166">  1  4  2 -1</clus>
<clus scale="   88.202">  1  3  2 -1</clus>
<clus scale="   44.166">  1  3  2 -1</clus>
</clustering>
</event>
<event>
 6    0  0.6132510E+002  0.1319503E+03  0.7546771E-02  0.1224590E+00
         21   -1    0    0  503  501  0.00000000000E+00  0.00000000000E+00  0.50976457380E+03  0.50976457380E+03  0.00000000000E+00 0.  1.
         21   -1    0    0  504  502 -0.00000000000E+00 -0.00000000000E+00 -0.15676217664E+03  0.15676217664E+03  0.00000000000E+00 0.  1.
         21    1    1    2  503  502  0.22288744064E+02  0.17912463931E+03  0.77478151229E+02  0.19643138353E+03  0.00000000000E+00 0.  1.
         21    1    1    2  504  505  0.51482146018E+02 -0.11066544199E+03 -0.36388519174E+02  0.12736316476E+03  0.00000000000E+00 0.  1.
         21    1    1    2  505  506 -0.85810030106E+02 -0.23074061542E+02  0.24790301089E+03  0.26334706452E+03  0.00000000000E+00 0.  1.
         21    1    1    2  506  501  0.12039140023E+02 -0.45385135776E+02  0.64009754215E+02  0.79385137630E+02  0.00000000000E+00 0.  1.
<scales pt_clust_3="14000.00000" pt_clust_4="131.95028" pt_clust_5="93.07528" pt_clust_6="46.95478"></scales>
<clustering>
<clus scale="   46.955">  1  6  2 -1</clus>
<clus scale="   93.075">  1  5  2 -1</clus>
<clus scale="  131.950">  2  4  1 -1</clus>
<clus scale="   46.955">  1  3  2 -1</clus>
</clustering>
</event>
<event>
 6    0  0.6132510E+002  0.1756176E+03  0.7546771E-02  0.1172113E+00
         21   -1    0    0  505  501  0.00000000000E+00  0.00000000000E+00  0.56325339323E+02  0.56325339323E+02  0.00000000000E+00 0.  1.
         21   -1    0    0  506  502 -0.00000000000E+00 -0.00000000000E+00 -0.73267776475E+03  0.73267776475E+03  0.00000000000E+00 0. -1.
         21    1    1    2  503  502 -0.98608751704E+02 -0.15332165717E+03 -0.44036471428E+03  0.47660497065E+03  0.00000000000E+00 0. -1.
         21    1    1    2  504  501  0.62436403918E+02  0.45012998263E+02 -0.82286246026E+02  0.11267431310E+03  0.00000000000E+00 0.  1.
         21    1    1    2  505  503 -0.71136080981E+01  0.38776621054E+02 -0.23479845850E+02  0.45886086363E+02  0.00000000000E+00 0.  1.
         21    1    1    2  506  504  0.43285955884E+02  0.69532037849E+02 -0.13022161927E+03  0.15383773396E+03  0.00000000000E+00 0.  1.
<scales pt_clust_3="171.08547" pt_clust_4="38.42705" pt_clust_5="39.42372" pt_clust_6="38.42705"></scales>
<clustering>
<clus scale="   38.427">  4  6 -1 -1</clus>
<clus scale="   39.424">  1  5  2 -1</clus>
<clus scale="  171.085">  2  3  1 -1</clus>
<clus scale="   39.424">  1  3  2 -1</clus>
</clustering>
</event>
<event>
 6    0  0.6132510E+002  0.1093385E+03  0.7546771E-02  0.1261800E+00
         21   -1    0    0  504  501  0.00000000000E+00  0.00000000000E+00  0.25430725483E+03  0.25430725483E+03  0.00000000000E+00 0. -1.
         21   -1    0    0  506  502 -0.00000000000E+00 -0.00000000000E+00 -0.17361620607E+03  0.17361620607E+03  0.00000000000E+00 0. -1.
         21    1    1    2  503  502  0.10602333226E+03  0.55269991220E+02 -0.75735100516E+02  0.14153276781E+03  0.00000000000E+00 0. -1.
         21    1    1    2  504  503  0.31681496628E+01  0.34554293473E+02  0.11366780000E+03  0.11884614056E+03  0.00000000000E+00 0. -1.
         21    1    1    2  505  501 -0.25281775585E+02 -0.43915113346E+02  0.50556072536E+02  0.71579479093E+02  0.00000000000E+00 0. -1.
         21    1    1    2  506  505 -0.83909706343E+02 -0.45909171347E+02 -0.77977232642E+01  0.95965073440E+02  0.00000000000E+00 0. -1.
<scales pt_clust_3="14000.00000" pt_clust_4="34.69923" pt_clust_5="37.28176" pt_clust_6="109.33851"></scales>
<clustering>
<clus scale="   34.699">  1  4  2 -1</clus>
<clus scale="   37.282">  1  5  2 -1</clus>
<clus scale="  109.339">  1  6  2 -1</clus>
<clus scale="   34.699">  1  3  2 -1</clus>
</clustering>
</event>
<event>
 6    0  0.6132510E+002  0.9614880E+02  0.7546771E-02  0.1288609E+00
         21   -1    0    0  506  501  0.00000000000E+00  0.00000000000E+00  0.74290109264E+03  0.74290109264E+03  0.00000000000E+00 0.  1.
         21   -1    0    0  503  502 -0.00000000000E+00 -0.00000000000E+00 -0.38813615117E+03  0.38813615117E+03  0.00000000000E+00 0.  1.
         21    1    1    2  503  505  0.51035105020E+02  0.20981390616E+01 -0.49060449340E+02  0.70823102314E+02  0.00000000000E+00 0.  1.
         21    1    1    2  504  502  0.62838876002E+01 -0.80984450012E+02 -0.30642579313E+03  0.31700904574E+03  0.00000000000E+00 0.  1.
         21    1    1    2  505  501 -0.62737544811E+02 -0.41416803439E+02  0.45258930208E+03  0.45879017807E+03  0.00000000000E+00 0.  1.
         21    1    1    2  506  504  0.54185521903E+01  0.12030311439E+03  0.25766188186E+03  0.28441491768E+03  0.00000000000E+00 0. -1.
<scales pt_clust_3="51.07822" pt_clust_4="96.14880" pt_clust_5="74.76261" pt_clust_6="14000.00000"></scales>
<clustering>
<clus scale="   51.078">  2  3  1 -1</clus>
<clus scale="   74.763">  1  5  2 -1</clus>
<clus scale="   96.149">  2  4  1 -1</clus>
<clus scale="   74.763">  1  3  2 -1</clus>
</clustering>
</event>
<event>
 6    0  0.6132510E+002  0.1028756E+03  0.7546771E-02  0.1274363E+00
         21   -1    0    0  505  501  0.00000000000E+00  0.00000000000E+00  0.35246741922E+03  0.35246741922E+03  0.00000000000E+00 0. -1.
         21   -1    0    0  504  502 -0.00000000000E+00 -0.00000000000E+00 -0.40626089682E+03  0.40626089682E+03  0.00000000000E+00 0. -1.
         21    1    1    2  503  501  0.69711050614E+02  0.68167072177E+02  0.20975260772E+03  0.23130615373E+03  0.00000000000E+00 0. -1.
         21    1    1    2  504  503 -0.83370624512E+02 -0.60481777829E+02 -0.15980299919E+02  0.10423088058E+03  0.00000000000E+00 0. -1.
         21    1    1    2  505  506 -0.17956888665E+02  0.25635124929E+02  0.83386357669E+02  0.89066795867E+02  0.00000000000E+00 0. -1.
         21    1    1    2  506  502  0.31616462562E+02 -0.33320419277E+02 -0.33095214308E+03  0.33412448586E+03  0.00000000000E+00 0. -1.
<scales pt_clust_3="102.87556" pt_clust_4="14000.00000" pt_clust_5="31.29871" pt_clust_6="45.74870"></scales>
<clustering>
<clus scale="   31.299">  1  5  2 -1</clus>
<clus scale="   45.749">  2  6  1 -1</clus>
<clus scale="  102.876">  1  3  2 -1</clus>
<clus scale="   31.299">  1  3  2 -1</clus>
</clustering>
</event>
<event>
 6    0  0.6132510E+002  0.9012383E+02  0.7546771E-02  0.1302552E+00
         21   -1    0    0  503  501  0.00000000000E+00  0.00000000000E+00  0.13274916009E+03  0.13274916009E+03  0.00000000000E+00 0.  1.
         21   -1    0    0  506  502 -0.00000000000E+00 -0.00000000000E+00 -0.16199109015E+04  0.16199109015E+04  0.00000000000E+00 0.  1.
         21    1    1    2  503  504  0.36576661797E+02 -0.12445121957E+02  0.38204685027E+02  0.54335358716E+02  0.00000000000E+00 0. -1.
         21    1    1    2  504  505  0.47941111088E+02  0.23593981684E+02  0.65694152677E+02  0.84680268068E+02  0.00000000000E+00 0.  1.
         21    1    1    2  505  502 -0.24386079080E+02 -0.81514863172E+02 -0.13866097754E+04  0.13892177738E+04  0.00000000000E+00 0.  1.
         21    1    1    2  506  501 -0.60131693805E+02  0.70366003445E+02 -0.20445080370E+03  0.22442666102E+03  0.00000000000E+00 0.  1.
<scales pt_clust_3="30.21792" pt_clust_4="30.21792" pt_clust_5="85.08439" pt_clust_6="82.82197"></scales>
<clustering>
<clus scale="   30.218">  3  4 -1 -1</clus>
<clus scale="   85.084">  2  5  1 -1</clus>
<clus scale="   82.822">  2  6  1 -1</clus>
<clus scale="   90.124">  1  3  2 -1</clus>
</clustering>
</event>
<event>
 6    0  0.6132510E+002  0.1262262E+03  0.7546771E-02  0.1233165E+00
         21   -1    0    0  504  501  0.00000000000E+00  0.00000000000E+00  0.22446732651E+03  0.22446732651E+03  0.00000000000E+00 0.  1.
         21   -1    0    0  503  502 -0.00000000000E+00 -0.00000000000E+00 -0.28424538317E+03  0.28424538317E+03  0.00000000000E+00 0.  1.
         21    1    1    2  503  505 -0.24765679584E+02  0.99519957454E+02 -0.19180916433E+03  0.21750475015E+03  0.00000000000E+00 0.  1.
         21    1    1    2  504  506 -0.39584839011E+02 -0.97512406928E+01  0.43304025148E+02  0.59475076869E+02  0.00000000000E+00 0. -1.
         21    1    1    2  505  501  0.10990624253E+03  0.21080584409E+01  0.31764179065E+02  0.11442372625E+03  0.00000000000E+00 0.  1.
         21    1    1    2  506  502 -0.45555723937E+02 -0.91876775202E+02  0.56962903457E+02  0.11730915640E+03  0.00000000000E+00 0.  1.
<scales pt_clust_3="102.55516" pt_clust_4="37.94616" pt_clust_5="110.95499" pt_clust_6="37.94616"></scales>
<clustering>
<clus scale="   37.946">  4  6 -1 -1</clus>
<clus scale="  102.555">  2  3  1 -1</clus>
<clus scale="  110.955">  2  5  1 -1</clus>
<clus scale="  126.226">  1  3  2 -1</clus>
</clustering>
</event>
<event>
 6    0  0.6132510E+002  0.1328964E+03  0.7546771E-02  0.1223220E+00
         21   -1    0    0  506  501  0.00000000000E+00  0.00000000000E+00  0.11593275421E+04  0.11593275421E+04  0.00000000000E+00 0. -1.
         21   -1    0    0  504  502 -0.00000000000E+00 -0.00000000000E+00 -0.28745117219E+03  0.28745117219E+03  0.00000000000E+00 0. -1.
         21    1    1    2  503  502  0.26722180101E+02  0.11542230774E+03 -0.21691362099E+03  0.24715967107E+03  0.00000000000E+00 0. -1.
         21    1    1    2  504  505 -0.11172037393E+03 -0.30911535631E+01  0.14822690206E+02  0.11274178164E+03  0.00000000000E+00 0.  1.
         21    1    1    2  505  501  0.21785858585E+02 -0.61571161696E+02  0.23205882082E+03  0.24107452771E+03  0.00000000000E+00 0. -1.
         21    1    1    2  506  503  0.63212335247E+02 -0.50759992482E+02  0.84190847988E+03  0.84580273389E+03  0.00000000000E+00 0. -1.
<scales pt_clust_3="132.89635" pt_clust_4="110.45912" pt_clust_5="65.31180" pt_clust_6="14000.00000"></scales>
<clustering>
<clus scale="   65.312">  1  5  2 -1</clus>
<clus scale="  110.459">  2  4  1 -1</clus>
<clus scale="  132.896">  2  3  1 -1</clus>
<clus scale="   65.312">  1  3  2 -1</clus>
</clustering>
</event>
<event>
 6    0  0.6132510E+002  0.1722297E+03  0.7546771E-02  0.1175542E+00
         21   -1    0    0  505  501  0.00000000000E+00  0.00000000000E+00  0.60283224772E+03  0.60283224772E+03  0.00000000000E+00 0. -1.
         21   -1    0    0  506  502 -0.00000000000E+00 -0.00000000000E+00 -0.91970279951E+02  0.91970279951E+02  0.00000000000E+00 0. -1.
         21    1    1    2  503  504 -0.48082989214E+02 -0.30359697459E+02  0.13967194667E+03  0.15080430288E+03  0.00000000000E+00 0. -1.
         21    1    1    2  504  501 -0.10648972652E+03  0.32898907994E+02  0.29628822957E+03  0.31655823316E+03  0.00000000000E+00 0. -1.
         21    1    1    2  505  502  0.17559463079E+03  0.27666971111E+02  0.58399198446E+02  0.18710799564E+03  0.00000000000E+00 0. -1.
         21    1    1    2  506  503 -0.21021915049E+02 -0.30206181646E+02  0.16502593086E+02  0.40331995990E+02  0.00000000000E+00 0.  1.
<scales pt_clust_3="48.39941" pt_clust_4="48.39941" pt_clust_5="158.73181" pt_clust_6="36.80128"></scales>
<clustering>
<clus scale="   36.801">  2  6  1 -1</clus>
<clus scale="   48.399">  3  4 -1 -1</clus>
<clus scale="  158.732">  2  5  1 -1</clus>
<clus scale="  172.230">  1  3  2 -1</clus>
</clustering>
</event>
<event>
 6    0  0.6132510E+002  0.8992365E+02  0.7546771E-02  0.1303037E+00
         21   -1    0    0  506  501  0.00000000000E+00  0.00000000000E+00  0.14436066936E+04  0.14436066936E+04  0.00000000000E+00 0.  1.
         21   -1    0    0  505  502 -0.00000000000E+00 -0.00000000000E+00 -0.11753593505E+04  0.11753593505E+04  0.00000000000E+00 0. -1.
         21    1    1    2  503  502  0.83782845201E+02  0.70310468847E+02 -0.10442470097E+04  0.10499594965E+04  0.00000000000E+00 0. -1.
         21    1    1    2  504  501 -0.39554639841E+02 -0.22946338075E+02  0.11091532364E+04  0.11100954940E+04  0.00000000000E+00 0.  1.
         21    1    1    2  505  504 -0.46965502593E+02  0.12581912986E+02 -0.12029971352E+03  0.12975393652E+03  0.00000000000E+00 0. -1.
         21    1    1    2  506  503  0.27372972331E+01 -0.59946043758E+02  0.32364082988E+03  0.32915711708E+03  0.00000000000E+00 0.  1.
<scales pt_clust_3="89.92365" pt_clust_4="45.72859" pt_clust_5="49.08051" pt_clust_6="14000.00000"></scales>
<clustering>
<clus scale="   45.729">  1  4  2 -1</clus>
<clus scale="   49.081">  2  5  1 -1</clus>
<clus scale="   89.924">  2  3  1 -1</clus>
<clus scale="   45.729">  1  3  2 -1</clus>
</clustering>
</event>
<event>
 6    0  0.6132510E+002  0.1802641E+03  0.7546771E-02  0.1167548E+00
         21   -1    0    0  503  501  0.00000000000E+00  0.00000000000E+00  0.56072860385E+03  0.56072860385E+03  0.00000000000E+00 0.  1.
         21   -1    0    0  501  502 -0.00000000000E+00 -0.00000000000E+00 -0.19403325273E+03  0.19403325273E+03  0.00000000000E+00 0.  1.
         21    1    1    2  503  506  0.78325095128E+02  0.95442260643E+01  0.13788063554E+03  0.15886151968E+03  0.00000000000E+00 0.  1.
         21    1    1    2  504  505 -0.15506917447E+03 -0.13931113538E+03  0.48006927926E+02  0.21391284777E+03  0.00000000000E+00 0.  1.
         21    1    1    2  505  502  0.30094807309E+02 -0.99202170915E+01 -0.78011864321E+02  0.84201894925E+02  0.00000000000E+00 0.  1.
         21    1    1    2  506  504  0.46649272033E+02  0.13968712640E+03  0.25881965198E+03  0.29778559421E+03  0.00000000000E+00 0.  1.
<scales pt_clust_3="81.57777" pt_clust_4="180.26415" pt_clust_5="31.68767" pt_clust_6="14000.00000"></scales>
<clustering>
<clus scale="   31.688">  2  5  1 -1</clus>
<clus scale="   81.578">  1  3  2 -1</clus>
<clus scale="  180.264">  2  4  1 -1</clus>
<clus scale="   81.578">  1  3  2 -1</clus>
</clustering>
</event>
<event>
 6    0  0.6132510E+002  0.9304144E+02  0.7546771E-02  0.1295649E+00
         21   -1    0    0  504  501  0.00000000000E+00  0.00000000000E+00  0.35320250777E+03  0.35320250777E+03  0.00000000000E+00 0. -1.
         21   -1    0    0  503  502 -0.00000000000E+00 -0.00000000000E+00 -0.11859715418E+03  0.11859715418E+03  0.00000000000E+00 0. -1.
         21    1    1    2  503  506  0.96773701558E+01 -0.74294423394E+02 -0.41564033654E+02  0.85678945687E+02  0.00000000000E+00 0. -1.
         21    1    1    2  504  502 -0.11135492428E+03  0.29859102738E+02  0.16537208386E+03  0.20159219057E+03  0.00000000000E+00 0. -1.
         21    1    1    2  505  501  0.24162571780E+02  0.17981278866E+02  0.96874770606E+02  0.10144889080E+03  0.00000000000E+00 0. -1.
         21    1    1    2  506  505  0.77514982344E+02  0.26454041790E+02  0.13922532773E+02  0.83079634890E+02  0.00000000000E+00 0. -1.
<scales pt_clust_3="73.68020" pt_clust_4="14000.00000" pt_clust_5="30.11903" pt_clust_6="93.04144"></scales>
<clustering>
<clus scale="   30.119">  1  5  2 -1</clus>
<clus scale="   73.680">  2  3  1 -1</clus>
<clus scale="   93.041">  2  6  1 -1</clus>
<clus scale="   30.119">  1  3  2 -1</clus>
</clustering>
</event>
<event>
 6    0  0.6132510E+002  0.9563249E+02  0.7546771E-02  0.1289758E+00
         21   -1    0    0  504  501  0.00000000000E+00  0.00000000000E+00  0.52269669483E+03  0.52269669483E+03  0.00000000000E+00 0. -1.
         21   -1    0    0  503  502 -0.00000000000E+00 -0.00000000000E+00 -0.79234509791E+02  0.79234509791E+02  0.00000000000E+00 0. -1.
         21    1    1    2  503  501 -0.85365024681E+02 -0.23589247274E+02  0.33549876092E+03  0.34699143880E+03  0.00000000000E+00 0. -1.
         21    1    1    2  504  506  0.38700839011E+01 -0.36897013218E+02  0.10543685814E+03  0.11177342345E+03  0.00000000000E+00 0. -1.
         21    1    1    2  505  502  0.28613706707E+02 -0.19594084866E+02 -0.25667913511E+02  0.43145268076E+02  0.00000000000E+00 0. -1.
         21    1    1    2  506  505  0.52881234073E+02  0.80080345358E+02  0.28194479491E+02  0.10002107430E+03  0.00000000000E+00 0. -1.
<scales pt_clust_3="95.63249" pt_clust_4="38.73268" pt_clust_5="34.67957" pt_clust_6="14000.00000"></scales>
<clustering>
<clus scale="   34.680">  2  5  1 -1</clus>
<clus scale="   38.733">  1  4  2 -1</clus>
<clus scale="   95.632">  1  3  2 -1</clus>
<clus scale="   38.733">  1  3  2 -1</clus>
</clustering>
</event>
<event>
 6    0  0.6132510E+002  0.2653649E+03  0.7546771E-02  0.1103962E+00
         21   -1    0    0  506  501  0.00000000000E+00  0.00000000000E+00  0.12971960121E+04  0.12971960121E+04  0.00000000000E+00 0. -1.
         21   -1    0    0  503  502 -0.00000000000E+00 -0.00000000000E+00 -0.13876320240E+03  0.13876320240E+03  0.00000000000E+00 0. -1.
         21    1    1    2  503  501 -0.26424718775E+03 -0.76331093509E+02  0.10184265530E+04  0.10549149994E+04  0.00000000000E+00 0. -1.
         21    1    1    2  504  502  0.62461803625E+02  0.15611247268E+02 -0.56756056076E+02  0.85827954972E+02  0.00000000000E+00 0. -1.
         21    1    1    2  505  504  0.14206213381E+03  0.58298657866E+02  0.10619317453E+03  0.18670129536E+03  0.00000000000E+00 0. -1.
         21    1    1    2  506  505  0.59723250311E+02  0.24211883751E+01  0.90569138272E+02  0.10851496481E+03  0.00000000000E+00 0.  1.
<scales pt_clust_3="257.65395" pt_clust_4="64.38313" pt_clust_5="39.62105" pt_clust_6="39.62105"></scales>
<clustering>
<clus scale="   39.621">  5  6 -1 -1</clus>
<clus scale="   64.383">  2  4  1 -1</clus>
<clus scale="  257.654">  1  3  2 -1</clus>
<clus scale="  257.654">  1  3  2 -1</clus>
</clustering>
</event>
<event>
 6    0  0.6132510E+002  0.9625071E+02  0.7546771E-02  0.1288384E+00
         21   -1    0    0  506  501  0.00000000000E+00  0.00000000000E+00  0.48018155126E+02  0.48018155126E+02  0.00000000000E+00 0.  1.
         21   -1    0    0  503  502 -0.00000000000E+00 -0.00000000000E+00 -0.66693485620E+03  0.66693485620E+03  0.00000000000E+00 0.  1.
         21    1    1    2  503  504  0.33604803500E+02 -0.20734554617E+02 -0.10312334802E+03  0.11042476842E+03  0.00000000000E+00 0.  1.
         21    1    1    2  504  501 -0.14052447543E+03 -0.37633784876E+02 -0.19511544993E+03  0.24337926937E+03  0.00000000000E+00 0.  1.
         21    1    1    2  505  502  0.54085900948E+02  0.49148530882E+02 -0.29062056274E+03  0.29966844054E+03  0.00000000000E+00 0.  1.
         21    1    1    2  506  505  0.52833770978E+02  0.92198086108E+01 -0.30057340387E+02  0.61480532998E+02  0.00000000000E+00 0.  1.
<scales pt_clust_3="39.48676" pt_clust_4="96.25071" pt_clust_5="14000.00000" pt_clust_6="56.08670"></scales>
<clustering>
<clus scale="   39.487">  2  3  1 -1</clus>
<clus scale="   56.087">  1  6  2 -1</clus>
<clus scale="   96.251">  1  4  2 -1</clus>
<clus scale="   56.087">  1  3  2 -1</clus>
</clustering>
</event>
<event>
 6    0  0.6132510E+002  0.1270560E+03  0.7546771E-02  0.1231891E+00
         21   -1    0    0  503  501  0.00000000000E+00  0.00000000000E+00  0.15234470689E+02  0.15234470689E+02  0.00000000000E+00 0. -1.
         21   -1    0    0  504  502 -0.00000000000E+00 -0.00000000000E+00 -0.16726968102E+04  0.16726968102E+04  0.00000000000E+00 0. -1.
         21    1    1    2  503  505 -0.54381059554E+02  0.66965988681E+02 -0.35373775554E+03  0.36410457697E+03  0.00000000000E+00 0. -1.
         21    1    1    2  504  501  0.11511573925E+03 -0.22452698978E+02 -0.76680298111E+03  0.77572067715E+03  0.00000000000E+00 0. -1.
         21    1    1    2  505  506 -0.46247068873E+02  0.12144533534E+02 -0.17176254336E+03  0.17829372500E+03  0.00000000000E+00 0. -1.
         21    1    1    2  506  502 -0.14487610825E+02 -0.56657823236E+02 -0.36515905945E+03  0.36981230171E+03  0.00000000000E+00 0. -1.
<scales pt_clust_3="30.34101" pt_clust_4="120.34271" pt_clust_5="30.34101" pt_clust_6="58.48076"></scales>
<clustering>
<clus scale="   30.341">  3  5 -1 -1</clus>
<clus scale="   58.481">  2  6  1 -1</clus>
<clus scale="  120.343">  2  4  1 -1</clus>
<clus scale="  127.056">  1  3  2 -1</clus>
</clustering>
</event>
<event>
 6    0  0.6132510E+002  0.1279567E+03  0.7546771E-02  0.1230520E+00
         21   -1    0    0  503  501  0.00000000000E+00  0.00000000000E+00  0.17249958685E+03  0.17249958685E+03  0.00000000000E+00 0.  1.
         21   -1    0    0  505  502 -0.00000000000E+00 -0.00000000000E+00 -0.28533455813E+03  0.28533455813E+03  0.00000000000E+00 0.  1.
         21    1    1    2  503  504 -0.67925727033E+02  0.40590141796E+02  0.60585503174E+02  0.99659757168E+02  0.00000000000E+00 0.  1.
         21    1    1    2  504  502 -0.24102278334E+02  0.42222596656E+02  0.66061097442E+02  0.82022777839E+02  0.00000000000E+00 0.  1.
         21    1    1    2  505  506  0.30296565441E+02  0.41265860582E+01 -0.61315638485E+02  0.68516553568E+02  0.00000000000E+00 0.  1.
         21    1    1    2  506  501  0.61731439925E+02 -0.86939324510E+02 -0.17816593341E+03  0.20763505641E+03  0.00000000000E+00 0.  1.
<scales pt_clust_3="32.05932" pt_clust_4="32.05932" pt_clust_5="30.57631" pt_clust_6="121.37066"></scales>
<clustering>
<clus scale="   30.576">  2  5  1 -1</clus>
<clus scale="   32.059">  3  4 -1 -1</clus>
<clus scale="  121.371">  2  6  1 -1</clus>
<clus scale="  127.957">  1  3  2 -1</clus>
</clustering>
</event>
<event>
 6    0  0.6132510E+002  0.9597605E+02  0.7546771E-02  0.1288993E+00
         21   -1    0    0  504  501  0.00000000000E+00  0.00000000000E+00  0.23877864260E+03  0.23877864260E+03  0.00000000000E+00 0. -1.
         21   -1    0    0  506  502 -0.00000000000E+00 -0.00000000000E+00 -0.19568955844E+03  0.19568955844E+03  0.00000000000E+00 0.  1.
         21    1    1    2  503  505 -0.87076596093E+02 -0.10467410170E+01  0.25908117113E+02  0.90855158281E+02  0.00000000000E+00 0. -1.
         21    1    1    2  504  503  0.54349942840E+02 -0.47304293194E+02  0.25161939004E+02  0.76319955554E+02  0.00000000000E+00 0. -1.
         21    1    1    2  505  502 -0.88123168238E+02 -0.14215367728E+02 -0.74085480878E+02  0.11600184454E+03  0.00000000000E+00 0.  1.
         21    1    1    2  506  501  0.12084982149E+03  0.62566401938E+02  0.66104508924E+02  0.15129124266E+03  0.00000000000E+00 0. -1.
<scales pt_clust_3="71.94363" pt_clust_4="72.05284" pt_clust_5="14000.00000" pt_clust_6="95.97605"></scales>
<clustering>
<clus scale="   72.053">  1  4  2 -1</clus>
<clus scale="   71.944">  1  3  2 -1</clus>
<clus scale="   95.976">  1  6  2 -1</clus>
<clus scale="   72.053">  1  3  2 -1</clus>
</clustering>
</event>
<event>
 6    0  0.6132510E+002  0.1350481E+03  0.7546771E-02  0.1220152E+00
         21   -1    0    0  505  501  0.00000000000E+00  0.00000000000E+00  0.13483236464E+03  0.13483236464E+03  0.00000000000E+00 0.  1.
         21   -1    0    0  503  502 -0.00000000000E+00 -0.00000000000E+00 -0.18490064629E+04  0.18490064629E+04  0.00000000000E+00 0. -1.
         21    1    1    2  503  506  0.12905969703E+01  0.13603254975E+03 -0.15858904381E+04  0.15917144850E+04  0.00000000000E+00 0. -1.
         21    1    1    2  504  501 -0.29068767959E+02 -0.26364280762E+02  0.94739675383E+01  0.40371086580E+02  0.00000000000E+00 0.  1.
         21    1    1    2  505  502 -0.41216239087E+02  0.16514308003E+02  0.79588020334E+02  0.91135907929E+02  0.00000000000E+00 0.  1.
         21    1    1    2  506  504  0.68994410076E+02 -0.12618257699E+03 -0.21734564805E+03  0.26061734801E+03  0.00000000000E+00 0.  1.
<scales pt_clust_3="14000.00000" pt_clust_4="39.24371" pt_clust_5="63.91552" pt_clust_6="135.04807"></scales>
<clustering>
<clus scale="   39.244">  1  4  2 -1</clus>
<clus scale="   63.916">  1  5  2 -1</clus>
<clus scale="  135.048">  1  6  2 -1</clus>
<clus scale="   39.244">  1  3  2 -1</clus>
</clustering>
</event>
<event>
 6    0  0.6132510E+002  0.1420254E+03  0.7546771E-02  0.1210629E+00
         21   -1    0    0  503  501  0.00000000000E+00  0.00000000000E+00  0.64915365776E+03  0.64915365776E+03  0.00000000000E+00 0. -1.
         21   -1    0    0  504  502 -0.00000000000E+00 -0.00000000000E+00 -0.54750293424E+03  0.54750293424E+03  0.00000000000E+00 0. -1.
         21    1    1    2  503  505  0.37657839303E+02 -0.37380369618E+02  0.44587212509E+03  0.44901821436E+03  0.00000000000E+00 0. -1.
         21    1    1    2  504  501  0.46978231247E+02 -0.28240705866E+02  0.13042385888E+02  0.56343548952E+02  0.00000000000E+00 0.  1.
         21    1    1    2  505  506  0.34429236492E+02 -0.22988415211E+01  0.15613978412E+03  0.15990712674E+03  0.00000000000E+00 0.  1.
         21    1    1    2  506  502 -0.11906530704E+03  0.67919917005E+02 -0.51340357158E+03  0.53138770194E+03  0.00000000000E+00 0. -1.
<scales pt_clust_3="32.26433" pt_clust_4="54.81324" pt_clust_5="32.26433" pt_clust_6="136.27346"></scales>
<clustering>
<clus scale="   32.264">  3  5 -1 -1</clus>
<clus scale="   54.813">  1  4  2 -1</clus>
<clus scale="  136.273">  2  6  1 -1</clus>
<clus scale="   54.813">  1  3  2 -1</clus>
</clustering>
</event>
<event>
 6    0  0.6132510E+002  0.1316516E+03  0.7546771E-02  0.1225025E+00
         21   -1    0    0  506  501  0.00000000000E+00  0.00000000000E+00  0.73732221253E+03  0.73732221253E+03  0.00000000000E+00 0.  1.
         21   -1    0    0  503  502 -0.00000000000E+00 -0.00000000000E+00 -0.32701656921E+03  0.32701656921E+03  0.00000000000E+00 0.  1.
         21    1    1    2  503  505 -0.24683313289E+02  0.21267833897E+02 -0.26776539615E+03  0.26974041983E+03  0.00000000000E+00 0.  1.
         21    1    1    2  504  501 -0.11834048546E+03  0.30645565182E+02  0.45332228870E+03  0.46951540827E+03  0.00000000000E+00 0.  1.
         21    1    1    2  505  504  0.18121363186E+03 -0.20663422367E+02  0.15333684678E+03  0.23828039360E+03  0.00000000000E+00 0.  1.
         21    1    1    2  506  502 -0.38189833106E+02 -0.31249976713E+02  0.71411903992E+02  0.86802560037E+02  0.00000000000E+00 0.  1.
<scales pt_clust_3="32.58200" pt_clust_4="14000.00000" pt_clust_5="131.65163" pt_clust_6="50.26915"></scales>
<clustering>
<clus scale="   32.582">  2  3  1 -1</clus>
<clus scale="   50.269">  2  6  1 -1</clus>
<clus scale="  131.652">  2  5  1 -1</clus>
<clus scale="  131.652">  1  3  2 -1</clus>
</clustering>
</event>
<event>
 6    0  0.6132510E+002  0.2390745E+03  0.7546771E-02  0.1120411E+00
         21   -1    0    0  506  501  0.00000000000E+00  0.00000000000E+00  0.69269899410E+03  0.69269899410E+03  0.00000000000E+00 0.  1.
         21   -1    0    0  505  502 -0.00000000000E+00 -0.00000000000E+00 -0.14462581463E+03  0.14462581463E+03  0.00000000000E+00 0.  1.
         21    1    1    2  503  504 -0.83282514403E+02 -0.16320604656E+03  0.57128258905E+02  0.19192662349E+03  0.00000000000E+00 0.  1.
         21    1    1    2  504  502  0.89190071809E+02 -0.23135296533E+02  0.62527818342E+02  0.11135456399E+03  0.00000000000E+00 0.  1.
         21    1    1    2  505  501  0.53937027609E+02  0.22297572662E+03  0.39392827787E+03  0.45585838340E+03  0.00000000000E+00 0.  1.
         21    1    1    2  506  503 -0.59844585015E+02 -0.36634383530E+02  0.34488824354E+02  0.78185237849E+02  0.00000000000E+00 0. -1.
<scales pt_clust_3="39.84220" pt_clust_4="92.14180" pt_clust_5="230.24214" pt_clust_6="39.84220"></scales>
<clustering>
<clus scale="   39.842">  3  6 -1 -1</clus>
<clus scale="   92.142">  2  4  1 -1</clus>
<clus scale="  230.242">  1  5  2 -1</clus>
<clus scale="  230.242">  1  3  2 -1</clus>
</clustering>
</event>
<event>
 6    0  0.6132510E+002  0.9097550E+02  0.7546771E-02  0.1300506E+00
         21   -1    0    0  504  501  0.00000000000E+00  0.00000000000E+00  0.25310584748E+03  0.25310584748E+03  0.00000000000E+00 0.  1.
         21   -1    0    0  505  502 -0.00000000000E+00 -0.00000000000E+00 -0.16651496485E+03  0.16651496485E+03  0.00000000000E+00 0.  1.
         21    1    1    2  503  506  0.75352255464E+02  0.30851312548E+02  0.36927555321E+02  0.89405873585E+02  0.00000000000E+00 0.  1.
         21    1    1    2  504  502 -0.80972247158E+02 -0.80555807240E+02 -0.43909590630E+02  0.12236745907E+03  0.00000000000E+00 0.  1.
         21    1    1    2  505  503  0.55531784342E+02 -0.17694151187E+02 -0.24331331651E+02  0.63157547121E+02  0.00000000000E+00 0.  1.
         21    1    1    2  506  501 -0.49911792649E+02  0.67398645879E+02  0.11790424959E+03  0.14468993256E+03  0.00000000000E+00 0.  1.
<scales pt_clust_3="14000.00000" pt_clust_4="90.97550" pt_clust_5="58.28261" pt_clust_6="78.79899"></scales>
<clustering>
<clus scale="   58.283">  2  5  1 -1</clus>
<clus scale="   78.799">  1  6  2 -1</clus>
<clus scale="   90.976">  2  4  1 -1</clus>
<clus scale="   78.799">  1  3  2 -1</clus>
</clustering>
</event>
<event>
 6    0  0.6132510E+002  0.1423979E+03  0.7546771E-02  0.1210138E+00
         21   -1    0    0  504  501  0.00000000000E+00  0.00000000000E+00  0.26623651076E+03  0.26623651076E+03  0.00000000000E+00 0. -1.
         21   -1    0    0  503  502 -0.00000000000E+00 -0.00000000000E+00 -0.60034295782E+03  0.60034295782E+03  0.00000000000E+00 0.  1.
         21    1    1    2  503  505  0.76795272643E+02  0.11911734287E+03 -0.52078126376E+03  0.53972176161E+03  0.00000000000E+00 0.  1.
         21    1    1    2  504  506  0.18716243089E+02  0.35961529413E+02  0.88297603003E+02  0.97159642080E+02  0.00000000000E+00 0. -1.
         21    1    1    2  505  501 -0.35301279325E+02 -0.11960867634E+02 -0.12044018598E+02  0.39170155227E+02  0.00000000000E+00 0.  1.
         21    1    1    2  506  502 -0.60210236407E+02 -0.14311800465E+03  0.11042123229E+03  0.19052790967E+03  0.00000000000E+00 0. -1.
<scales pt_clust_3="142.39790" pt_clust_4="32.09332" pt_clust_5="37.27255" pt_clust_6="14000.00000"></scales>
<clustering>
<clus scale="   37.273">  1  5  2 -1</clus>
<clus scale="   32.093">  1  4  2 -1</clus>
<clus scale="  142.398">  2  3  1 -1</clus>
<clus scale="   37.273">  1  3  2 -1</clus>
</clustering>
</event>
<event>
 6    0  0.6132510E+002  0.2724248E+03  0.7546771E-02  0.1099900E+00
         21   -1    0    0  505  501  0.00000000000E+00  0.00000000000E+00  0.49294982397E+03  0.49294982397E+03  0.00000000000E+00 0.  1.
         21   -1    0    0  503  502 -0.00000000000E+00 -0.00000000000E+00 -0.45778399618E+03  0.45778399618E+03  0.00000000000E+00 0. -1.
         21    1    1    2  503  504 -0.97933615442E+02  0.13363801182E+03  0.77890517084E+02  0.18307660661E+03  0.00000000000E+00 0.  1.
         21    1    1    2  504  501 -0.97524367259E+02  0.64180877726E+02  0.47376657593E+02  0.12599497990E+03  0.00000000000E+00 0.  1.
         21    1    1    2  505  506  0.20622439087E+03 -0.16114486030E+03  0.21221199194E+03  0.33694227237E+03  0.00000000000E+00 0.  1.
         21    1    1    2  506  502 -0.10766408166E+02 -0.36674029239E+02 -0.30231333882E+03  0.30471996127E+03  0.00000000000E+00 0. -1.
<scales pt_clust_3="42.48630" pt_clust_4="42.48630" pt_clust_5="267.80223" pt_clust_6="38.22172"></scales>
<clustering>
<clus scale="   38.222">  2  6  1 -1</clus>
<clus scale="   42.486">  3  4 -1 -1</clus>
<clus scale="  267.802">  1  5  2 -1</clus>
<clus scale="  267.802">  1  3  2 -1</clus>
</clustering>
</event>
<event>
 6    0  0.6132510E+002  0.2763410E+03  0.7546771E-02  0.1097704E+00
         21   -1    0    0  505  501  0.00000000000E+00  0.00000000000E+00  0.90299705665E+03  0.90299705665E+03  0.00000000000E+00 0.  1.
         21   -1    0    0  504  502 -0.00000000000E+00 -0.00000000000E+00 -0.63136627770E+03  0.63136627770E+03  0.00000000000E+00 0.  1.
         21    1    1    2  503  501  0.81644182877E+02  0.33317669714E+02  0.19766979156E+03  0.21644672833E+03  0.00000000000E+00 0. -1.
         21    1    1    2  504  503  0.23828358352E+02  0.30056210732E+03 -0.34725574215E+03  0.45988250834E+03  0.00000000000E+00 0.  1.
         21    1    1    2  505  506 -0.62960592663E+02 -0.30400587813E+03  0.59799311097E+03  0.67377991283E+03  0.00000000000E+00 0.  1.
         21    1    1    2  506  502 -0.42511948566E+02 -0.29873898902E+02 -0.17677638142E+03  0.18425418485E+03  0.00000000000E+00 0.  1.
<scales pt_clust_3="87.12637" pt_clust_4="14000.00000" pt_clust_5="276.34100" pt_clust_6="51.95879"></scales>
<clustering>
<clus scale="   51.959">  2  6  1 -1</clus>
<clus scale="   87.126">  1  3  2 -1</clus>
<clus scale="  276.341">  1  5  2 -1</clus>
<clus scale="   87.126">  1  3  2 -1</clus>
</clustering>
</event>
<event>
 6    0  0.6132510E+002  0.8490031E+02  0.7546771E-02  0.1315693E+00
         21   -1    0    0  503  501  0.00000000000E+00  0.00000000000E+00  0.51836255522E+03  0.51836255522E+03  0.00000000000E+00 0. -1.
         21   -1    0    0  505  502 -0.00000000000E+00 -0.00000000000E+00 -0.24361957770E+03  0.24361957770E+03  0.00000000000E+00 0.  1.
         21    1    1    2  503  504  0.37415416104E+02 -0.58700555212E+01  0.23006172814E+03  0.23315825027E+03  0.00000000000E+00 0.  1.
         21    1    1    2  504  506  0.52968458209E+01 -0.67834427645E+02  0.25240997813E+03  0.26141989827E+03  0.00000000000E+00 0. -1.
         21    1    1    2  505  501 -0.48690848899E+02  0.11574104442E+03 -0.14741689247E+03  0.19364536740E+03  0.00000000000E+00 0.  1.
         21    1    1    2  506  502  0.59785869743E+01 -0.42036561255E+02 -0.60311836275E+02  0.73758616983E+02  0.00000000000E+00 0. -1.
<scales pt_clust_3="37.87309" pt_clust_4="84.90031" pt_clust_5="14000.00000" pt_clust_6="42.72781"></scales>
<clustering>
<clus scale="   37.873">  1  3  2 -1</clus>
<clus scale="   42.728">  2  6  1 -1</clus>
<clus scale="   84.900">  1  4  2 -1</clus>
<clus scale="   37.873">  1  3  2 -1</clus>
</clustering>
</event>
<event>
 6    0  0.1089497E+003  0.9512210E+02  0.7546771E-02  0.1290901E+00
         21   -1    0    0  506  501  0.00000000000E+00  0.00000000000E+00  0.15333564022E+03  0.15333564022E+03  0.00000000000E+00 0.  1.
         21   -1    0    0  504  502 -0.00000000000E+00 -0.00000000000E+00 -0.22508592274E+04  0.22508592274E+04  0.00000000000E+00 0. -1.
         21    1    1    2  503  505  0.52864145314E+02  0.24365423491E+02 -0.10331315620E+03  0.11858288226E+03  0.00000000000E+00 0. -1.
         21    1    1    2  504  501 -0.84558306835E+02  0.99797672220E+01  0.12350906002E+03  0.15001396907E+03  0.00000000000E+00 0.  1.
         21    1    1    2  505  502  0.77801238492E+02 -0.55013372595E+02 -0.20440277738E+04  0.20462475519E+04  0.00000000000E+00 0. -1.
         21    1    1    2  506  503 -0.46107076971E+02  0.20668181882E+02 -0.73691717207E+02  0.89350464319E+02  0.00000000000E+00 0. -1.
<scales pt_clust_3="56.50116" pt_clust_4="95.12210" pt_clust_5="14000.00000" pt_clust_6="50.52758"></scales>
<clustering>
<clus scale="   50.528">  1  6  2 -1</clus>
<clus scale="   56.501">  1  3  2 -1</clus>
<clus scale="   95.122">  1  4  2 -1</clus>
<clus scale="   50.528">  1  3  2 -1</clus>
</clustering>
</event>
<event>
 6    0  0.6132510E+002  0.9607116E+02  0.7546771E-02  0.1288782E+00
         21   -1    0    0  504  501  0.00000000000E+00  0.00000000000E+00  0.52658538762E+03  0.52658538762E+03  0.00000000000E+00 0. -1.
         21   -1    0    0  506  502 -0.00000000000E+00 -0.00000000000E+00 -0.59601119033E+03  0.59601119033E+03  0.00000000000E+00 0. -1.
         21    1    1    2  503  505 -0.41365856951E+02  0.38883910529E+02  0.94572419167E+02  0.11030428408E+03  0.00000000000E+00 0.  1.
         21    1    1    2  504  502  0.93813086923E+02 -0.42886174113E+01 -0.57181233338E+03  0.57947271905E+03  0.00000000000E+00 0. -1.
         21    1    1    2  505  501 -0.57754051893E+02 -0.79082029445E+02  0.31284263879E+03  0.32781094329E+03  0.00000000000E+00 0. -1.
         21    1    1    2  506  503  0.53068219213E+01  0.44486736327E+02  0.94971472708E+02  0.10500863153E+03  0.00000000000E+00 0. -1.
<scales pt_clust_3="41.49476" pt_clust_4="93.91106" pt_clust_5="83.95131" pt_clust_6="41.49476"></scales>
<clustering>
<clus scale="   41.495">  3  6 -1 -1</clus>
<clus scale="   93.911">  2  4  1 -1</clus>
<clus scale="   83.951">  1  5  2 -1</clus>
<clus scale="   83.951">  1  3  2 -1</clus>
</clustering>
</event>
<event>
 6    0  0.6132510E+002  0.8660475E+02  0.7546771E-02  0.1311288E+00
         21   -1    0    0  505  501  0.00000000000E+00  0.00000000000E+00  0.65844751311E+02  0.65844751311E+02  0.00000000000E+00 0.  1.
         21   -1    0    0  503  502 -0.00000000000E+00 -0.00000000000E+00 -0.22391504593E+04  0.22391504593E+04  0.00000000000E+00 0.  1.
         21    1    1    2  503  504 -0.11909903347E+03 -0.47985607107E+02 -0.68780762257E+03  0.69969030573E+03  0.00000000000E+00 0.  1.
         21    1    1    2  504  501  0.99428776646E+02 -0.23846002706E+02  0.21413852205E+01  0.10227071429E+03  0.00000000000E+00 0.  1.
         21    1    1    2  505  506 -0.20636030184E+02  0.35590032699E+02 -0.51695505409E+02  0.66067552162E+02  0.00000000000E+00 0.  1.
         21    1    1    2  506  502  0.40306287010E+02  0.36241577113E+02 -0.14359439653E+04  0.14369666385E+04  0.00000000000E+00 0.  1.
<scales pt_clust_3="86.60475" pt_clust_4="14000.00000" pt_clust_5="41.13996" pt_clust_6="54.27857"></scales>
<clustering>
<clus scale="   41.140">  1  5  2 -1</clus>
<clus scale="   54.279">  2  6  1 -1</clus>
<clus scale="   86.605">  2  3  1 -1</clus>
<clus scale="   41.140">  1  3  2 -1</clus>
</clustering>
</event>
<event>
 6    0  0.6132510E+002  0.2156127E+03  0.7546771E-02  0.1137197E+00
         21   -1    0    0  506  501  0.00000000000E+00  0.00000000000E+00  0.89249222265E+03  0.89249222265E+03  0.00000000000E+00 0. -1.
         21   -1    0    0  503  502 -0.00000000000E+00 -0.00000000000E+00 -0.85027697246E+03  0.85027697246E+03  0.00000000000E+00 0.  1.
         21    1    1    2  503  504 -0.14609751142E+03 -0.21304099338E+03 -0.53393506100E+03  0.59314213901E+03  0.00000000000E+00 0.  1.
         21    1    1    2  504  501  0.16420993606E+03  0.16591596615E+03  0.81632560162E+03  0.84904681778E+03  0.00000000000E+00 0. -1.
         21    1    1    2  505  502 -0.21779835607E+02  0.81406783956E+02 -0.25073869425E+03  0.26452092263E+03  0.00000000000E+00 0.  1.
         21    1    1    2  506  505  0.36674109644E+01 -0.34281756730E+02  0.10563403828E+02  0.36059315691E+02  0.00000000000E+00 0.  1.
<scales pt_clust_3="215.61266" pt_clust_4="14000.00000" pt_clust_5="83.99989" pt_clust_6="34.47737"></scales>
<clustering>
<clus scale="   34.477">  1  6  2 -1</clus>
<clus scale="   84.000">  2  5  1 -1</clus>
<clus scale="  215.613">  2  3  1 -1</clus>
<clus scale="   34.477">  1  3  2 -1</clus>
</clustering>
</event>
<event>
 6    0  0.6132510E+002  0.8162719E+02  0.7546771E-02  0.1324496E+00
         21   -1    0    0  506  501  0.00000000000E+00  0.00000000000E+00  0.23804192489E+02  0.23804192489E+02  0.00000000000E+00 0.  1.
         21   -1    0    0  503  502 -0.00000000000E+00 -0.00000000000E+00 -0.26424703737E+04  0.26424703737E+04  0.00000000000E+00 0.  1.
         21    1    1    2  503  505  0.16407975941E+02  0.33099564207E+02 -0.21776247742E+03  0.22087394459E+03  0.00000000000E+00 0.  1.
         21    1    1    2  504  502  0.61050243585E+02 -0.28716655204E+02 -0.18322573549E+04  0.18334990573E+04  0.00000000000E+00 0.  1.
         21    1    1    2  505  501  0.69939043185E+02 -0.23531889617E+01 -0.26907370887E+03  0.27802458176E+03  0.00000000000E+00 0.  1.
         21    1    1    2  506  504 -0.14739726271E+03 -0.20297200411E+01 -0.29957263999E+03  0.33387698251E+03  0.00000000000E+00 0.  1.
<scales pt_clust_3="36.94324" pt_clust_4="14000.00000" pt_clust_5="71.80466" pt_clust_6="81.62719"></scales>
<clustering>
<clus scale="   36.943">  2  3  1 -1</clus>
<clus scale="   71.805">  1  5  2 -1</clus>
<clus scale="   81.627">  1  6  2 -1</clus>
<clus scale="   71.805">  1  3  2 -1</clus>
</clustering>
</event>
<event>
 6    0  0.6132510E+002  0.2188257E+03  0.7546771E-02  0.1134762E+00
         21   -1    0    0  504  501  0.00000000000E+00  0.00000000000E+00  0.18151997619E+03  0.18151997619E+03  0.00000000000E+00 0. -1.
         21   -1    0    0  505  502 -0.00000000000E+00 -0.00000000000E+00 -0.49138618133E+03  0.49138618133E+03  0.00000000000E+00 0. -1.
         21    1    1    2  503  506  0.92335168739E+02  0.14818138388E+02 -0.61168113573E+02  0.11174479285E+03  0.00000000000E+00 0. -1.
         21    1    1    2  504  503  0.93763685243E+02 -0.29992633079E+02 -0.81983839869E+01  0.98784615246E+02  0.00000000000E+00 0. -1.
         21    1    1    2  505  501 -0.22577056978E+03  0.45578306254E+01 -0.76635648932E+01  0.22594657383E+03  0.00000000000E+00 0. -1.
         21    1    1    2  506  502  0.39671715797E+02  0.10616664066E+02 -0.23283614268E+03  0.23643017559E+03  0.00000000000E+00 0. -1.
<scales pt_clust_3="67.68455" pt_clust_4="67.68455" pt_clust_5="207.93467" pt_clust_6="41.06773"></scales>
<clustering>
<clus scale="   41.068">  2  6  1 -1</clus>
<clus scale="   67.685">  3  4 -1 -1</clus>
<clus scale="  207.935">  1  5  2 -1</clus>
<clus scale="  207.935">  1  3  2 -1</clus>
</clustering>
</event>
<event>
 6    0  0.6132510E+002  0.9887670E+02  0.7546771E-02  0.1282676E+00
         21   -1    0    0  505  501  0.00000000000E+00  0.00000000000E+00  0.37805815551E+03  0.37805815551E+03  0.00000000000E+00 0. -1.
         21   -1    0    0  503  502 -0.00000000000E+00 -0.00000000000E+00 -0.20976426195E+03  0.20976426195E+03  0.00000000000E+00 0.  1.
         21    1    1    2  503  504  0.40387529001E+01  0.63471767029E+02 -0.31413343964E+02  0.70935004855E+02  0.00000000000E+00 0.  1.
         21    1    1    2  504  501 -0.30810595726E+02 -0.23304788044E+02  0.23237755034E+03  0.23556683098E+03  0.00000000000E+00 0. -1.
         21    1    1    2  505  506 -0.70490716732E+02 -0.24878264287E+02  0.94500127751E+02  0.12049125829E+03  0.00000000000E+00 0. -1.
         21    1    1    2  506  502  0.97262559558E+02 -0.15288714698E+02 -0.12717044058E+03  0.16082932334E+03  0.00000000000E+00 0.  1.
<scales pt_clust_3="60.27590" pt_clust_4="38.63167" pt_clust_5="14000.00000" pt_clust_6="98.87670"></scales>
<clustering>
<clus scale="   38.632">  1  4  2 -1</clus>
<clus scale="   60.276">  2  3  1 -1</clus>
<clus scale="   98.877">  2  6  1 -1</clus>
<clus scale="   38.632">  1  3  2 -1</clus>
</clustering>
</event>
<event>
 6    0  0.6132510E+002  0.7977013E+02  0.7546771E-02  0.1329705E+00
         21   -1    0    0  504  501  0.00000000000E+00  0.00000000000E+00  0.18305223735E+03  0.18305223735E+03  0.00000000000E+00 0. -1.
         21   -1    0    0  503  502 -0.00000000000E+00 -0.00000000000E+00 -0.58109320112E+03  0.58109320112E+03  0.00000000000E+00 0. -1.
         21    1    1    2  503  501  0.11960828158E+02  0.58313940722E+02  0.99804248989E+02  0.11620871400E+03  0.00000000000E+00 0. -1.
         21    1    1    2  504  505 -0.96359934285E+02 -0.52320386257E+02  0.27534040843E+02  0.11305212585E+03  0.00000000000E+00 0. -1.
         21    1    1    2  505  506  0.51443314737E+02  0.16789687935E+02 -0.20547352707E+03  0.21247983099E+03  0.00000000000E+00 0. -1.
         21    1    1    2  506  502  0.32955791390E+02 -0.22783242399E+02 -0.31990572654E+03  0.32240476763E+03  0.00000000000E+00 0. -1.
<scales pt_clust_3="59.04410" pt_clust_4="14000.00000" pt_clust_5="79.77013" pt_clust_6="40.06445"></scales>
<clustering>
<clus scale="   40.064">  2  6  1 -1</clus>
<clus scale="   59.044">  1  3  2 -1</clus>
<clus scale="   79.770">  2  5  1 -1</clus>
<clus scale="   59.044">  1  3  2 -1</clus>
</clustering>
</event>
<event>
 6    0  0.6132510E+002  0.1458285E+03  0.7546771E-02  0.1205695E+00
         21   -1    0    0  505  501  0.00000000000E+00  0.00000000000E+00  0.62613454285E+03  0.62613454285E+03  0.00000000000E+00 0.  1.
         21   -1    0    0  504  502 -0.00000000000E+00 -0.00000000000E+00 -0.35123885292E+03  0.35123885292E+03  0.00000000000E+00 0. -1.
         21    1    1    2  503  506 -0.40867331032E+02  0.98465169536E+01 -0.12538076283E+03  0.13224004057E+03  0.00000000000E+00 0. -1.
         21    1    1    2  504  501  0.15055397320E+03  0.14389473217E+02  0.53808314455E+03  0.55893382992E+03  0.00000000000E+00 0.  1.
         21    1    1    2  505  503 -0.11225221664E+03 -0.54662171410E+02  0.19137945876E+02  0.12631220882E+03  0.00000000000E+00 0. -1.
         21    1    1    2  506  502  0.25655744723E+01  0.30426181240E+02 -0.15694463766E+03  0.15988731647E+03  0.00000000000E+00 0. -1.
<scales pt_clust_3="49.43016" pt_clust_4="145.82847" pt_clust_5="14000.00000" pt_clust_6="30.53416"></scales>
<clustering>
<clus scale="   30.534">  2  6  1 -1</clus>
<clus scale="   49.430">  2  3  1 -1</clus>
<clus scale="  145.828">  1  4  2 -1</clus>
<clus scale="  145.828">  1  3  2 -1</clus>
</clustering>
</event>
<event>
 6    0  0.6132510E+002  0.1278047E+03  0.7546771E-02  0.1230750E+00
         21   -1    0    0  504  501  0.00000000000E+00  0.00000000000E+00  0.63384206717E+03  0.63384206717E+03  0.00000000000E+00 0.  1.
         21   -1    0    0  501  502 -0.00000000000E+00 -0.00000000000E+00 -0.63128536148E+02  0.63128536148E+02  0.00000000000E+00 0.  1.
         21    1    1    2  503  502 -0.51936185548E+02  0.38374966340E+01  0.91628229326E+01  0.52877699210E+02  0.00000000000E+00 0.  1.
         21    1    1    2  504  506  0.91467702352E+02  0.88556774908E+02  0.50653180198E+03  0.52228642465E+03  0.00000000000E+00 0.  1.
         21    1    1    2  505  503 -0.64812290731E+01 -0.35114729878E+02 -0.11434137960E+00  0.35708033531E+02  0.00000000000E+00 0.  1.
         21    1    1    2  506  505 -0.33050287732E+02 -0.57279541664E+02  0.55133247487E+02  0.86098445926E+02  0.00000000000E+00 0.  1.
<scales pt_clust_3="52.07777" pt_clust_4="120.92869" pt_clust_5="30.38897" pt_clust_6="30.38897"></scales>
<clustering>
<clus scale="   30.389">  5  6 -1 -1</clus>
<clus scale="   52.078">  2  3  1 -1</clus>
<clus scale="  120.929">  1  4  2 -1</clus>
<clus scale="  120.929">  1  3  2 -1</clus>
</clustering>
</event>
<event>
 6    0  0.6132510E+002  0.1953842E+03  0.7546771E-02  0.1153693E+00
         21   -1    0    0  505  501  0.00000000000E+00  0.00000000000E+00  0.14794271852E+03  0.14794271852E+03  0.00000000000E+00 0. -1.
         21   -1    0    0  506  502 -0.00000000000E+00 -0.00000000000E+00 -0.53672688032E+03  0.53672688032E+03  0.00000000000E+00 0. -1.
         21    1    1    2  503  501 -0.61957845198E+00  0.18207871821E+03  0.35570511260E+02  0.18552170971E+03  0.00000000000E+00 0. -1.
         21    1    1    2  504  502  0.15200241932E+02 -0.96911495437E+02 -0.12002101264E+03  0.15500944739E+03  0.00000000000E+00 0. -1.
         21    1    1    2  505  504 -0.53677314025E+02 -0.86878824971E+02 -0.12920690718E+03  0.16469246835E+03  0.00000000000E+00 0. -1.
         21    1    1    2  506  503  0.39096650545E+02  0.17116021985E+01 -0.17512675324E+03  0.17944597339E+03  0.00000000000E+00 0. -1.
<scales pt_clust_3="182.59130" pt_clust_4="67.14917" pt_clust_5="67.14917" pt_clust_6="39.13410"></scales>
<clustering>
<clus scale="   39.134">  2  6  1 -1</clus>
<clus scale="   67.149">  4  5 -1 -1</clus>
<clus scale="  182.591">  1  3  2 -1</clus>
<clus scale="  182.591">  1  3  2 -1</clus>
</clustering>
</event>
<event>
 6    0  0.6132510E+002  0.1407206E+03  0.7546771E-02  0.1212363E+00
         21   -1    0    0  505  501  0.00000000000E+00  0.00000000000E+00  0.13422889080E+03  0.13422889080E+03  0.00000000000E+00 0.  1.
         21   -1    0    0  501  502 -0.00000000000E+00 -0.00000000000E+00 -0.25477016476E+03  0.25477016476E+03  0.00000000000E+00 0. -1.
         21    1    1    2  503  502  0.85839635373E+02 -0.25575474121E+02 -0.10507408493E+03  0.13806922612E+03  0.00000000000E+00 0. -1.
         21    1    1    2  504  503  0.40539280378E+02  0.17599612537E+02 -0.83615149971E+02  0.94576280957E+02  0.00000000000E+00 0.  1.
         21    1    1    2  505  506 -0.79447320887E+02  0.14362766800E+02  0.72866109117E+02  0.10875493425E+03  0.00000000000E+00 0.  1.
         21    1    1    2  506  504 -0.46931594864E+02 -0.63869052167E+01 -0.47181481851E+01  0.47598614234E+02  0.00000000000E+00 0. -1.
<scales pt_clust_3="136.08933" pt_clust_4="35.01675" pt_clust_5="47.01041" pt_clust_6="47.01041"></scales>
<clustering>
<clus scale="   35.017">  3  4 -1 -1</clus>
<clus scale="   47.010">  5  6 -1 -1</clus>
<clus scale="  136.089">  2  3  1 -1</clus>
<clus scale="  140.721">  1  3  2 -1</clus>
</clustering>
</event>
<event>
 6    0  0.6132510E+002  0.2238117E+03  0.7546771E-02  0.1131073E+00
         21   -1    0    0  506  501  0.00000000000E+00  0.00000000000E+00  0.12630745407E+04  0.12630745407E+04  0.00000000000E+00 0.  1.
         21   -1    0    0  505  502 -0.00000000000E+00 -0.00000000000E+00 -0.28757502457E+03  0.28757502457E+03  0.00000000000E+00 0.  1.
         21    1    1    2  503  502  0.64442587447E+02 -0.10322770965E+03  0.66976335929E+03  0.68072884805E+03  0.00000000000E+00 0.  1.
         21    1    1    2  504  501 -0.96866000662E+02  0.20376698379E+03  0.10178074439E+03  0.24751429392E+03  0.00000000000E+00 0.  1.
         21    1    1    2  505  504 -0.30926504344E+02 -0.23840233848E+02 -0.20133463850E+03  0.20508642588E+03  0.00000000000E+00 0.  1.
         21    1    1    2  506  503  0.63349917560E+02 -0.76699040293E+02  0.40529005095E+03  0.41731999741E+03  0.00000000000E+00 0.  1.
<scales pt_clust_3="32.18110" pt_clust_4="220.96340" pt_clust_5="39.04876" pt_clust_6="32.18110"></scales>
<clustering>
<clus scale="   32.181">  3  6 -1 -1</clus>
<clus scale="   39.049">  2  5  1 -1</clus>
<clus scale="  220.963">  2  4  1 -1</clus>
<clus scale="  223.812">  1  3  2 -1</clus>
</clustering>
</event>
<event>
 6    0  0.6132510E+002  0.1471355E+03  0.7546771E-02  0.1204038E+00
         21   -1    0    0  503  501  0.00000000000E+00  0.00000000000E+00  0.12587814503E+03  0.12587814503E+03  0.00000000000E+00 0. -1.
         21   -1    0    0  505  502 -0.00000000000E+00 -0.00000000000E+00 -0.81644607456E+03  0.81644607456E+03  0.00000000000E+00 0.  1.
         21    1    1    2  503  504 -0.37048881311E+02 -0.10069437880E+03 -0.39123766841E+03  0.40568323938E+03  0.00000000000E+00 0.  1.
         21    1    1    2  504  502  0.10931101207E+02 -0.41061921784E+02 -0.36815925632E+03  0.37060330328E+03  0.00000000000E+00 0.  1.
         21    1    1    2  505  506 -0.88693747909E+01  0.61596817953E+02  0.17584172618E+02  0.64668670295E+02  0.00000000000E+00 0. -1.
         21    1    1    2  506  501  0.34987154895E+02  0.80159482634E+02  0.51244822584E+02  0.10136900663E+03  0.00000000000E+00 0. -1.
<scales pt_clust_3="139.98124" pt_clust_4="42.49200" pt_clust_5="38.23023" pt_clust_6="38.23023"></scales>
<clustering>
<clus scale="   38.230">  5  6 -1 -1</clus>
<clus scale="   42.492">  2  4  1 -1</clus>
<clus scale="  139.981">  2  3  1 -1</clus>
<clus scale="  147.135">  1  3  2 -1</clus>
</clustering>
</event>
<event>
 6    0  0.6132510E+002  0.1010297E+03  0.7546771E-02  0.1278145E+00
         21   -1    0    0  505  501  0.00000000000E+00  0.00000000000E+00  0.13161958371E+03  0.13161958371E+03  0.00000000000E+00 0. -1.
         21   -1    0    0  504  502 -0.00000000000E+00 -0.00000000000E+00 -0.49547345257E+03  0.49547345257E+03  0.00000000000E+00 0. -1.
         21    1    1    2  503  502  0.58320667222E+02 -0.81222756066E+02 -0.24693324472E+03  0.26641032952E+03  0.00000000000E+00 0. -1.
         21    1    1    2  504  501 -0.52072846846E+02 -0.20971085767E+00  0.22372328740E+02  0.56675801278E+02  0.00000000000E+00 0. -1.
         21    1    1    2  505  506 -0.29338191523E+02 -0.44392229219E+02  0.51660223949E+02  0.74163186524E+02  0.00000000000E+00 0. -1.
         21    1    1    2  506  503  0.23090371146E+02  0.12582469614E+03 -0.19095317683E+03  0.22984371895E+03  0.00000000000E+00 0. -1.
<scales pt_clust_3="14000.00000" pt_clust_4="52.07327" pt_clust_5="78.71912" pt_clust_6="101.02966"></scales>
<clustering>
<clus scale="   52.073">  1  4  2 -1</clus>
<clus scale="   78.719">  1  5  2 -1</clus>
<clus scale="  101.030">  1  6  2 -1</clus>
<clus scale="   52.073">  1  3  2 -1</clus>
</clustering>
</event>
<event>
 6    0  0.6132510E+002  0.1302610E+03  0.7546771E-02  0.1227069E+00
         21   -1    0    0  504  501  0.00000000000E+00  0.00000000000E+00  0.11159765739E+04  0.11159765739E+04  0.00000000000E+00 0.  1.
         21   -1    0    0  505  502 -0.00000000000E+00 -0.00000000000E+00 -0.22529282370E+03  0.22529282370E+03  0.00000000000E+00 0. -1.
         21    1    1    2  503  501 -0.28077746344E+02  0.10665102356E+02  0.36825629374E+02  0.47520850443E+02  0.00000000000E+00 0. -1.
         21    1    1    2  504  502 -0.65715564176E+02  0.42377664011E+02  0.93658628491E+03  0.93984481212E+03  0.00000000000E+00 0.  1.
         21    1    1    2  505  506  0.52689252329E+02 -0.12073306668E+03 -0.18340679231E+03  0.22581116484E+03  0.00000000000E+00 0. -1.
         21    1    1    2  506  503  0.41104058190E+02  0.67690300311E+02  0.10067862823E+03  0.12809257019E+03  0.00000000000E+00 0. -1.
<scales pt_clust_3="30.03505" pt_clust_4="130.26101" pt_clust_5="14000.00000" pt_clust_6="78.67452"></scales>
<clustering>
<clus scale="   30.035">  1  3  2 -1</clus>
<clus scale="   78.675">  1  6  2 -1</clus>
<clus scale="  130.261">  1  4  2 -1</clus>
<clus scale="   30.035">  1  3  2 -1</clus>
</clustering>
</event>
<event>
 6    0  0.6132510E+002  0.7376517E+02  0.7546771E-02  0.1347738E+00
         21   -1    0    0  505  501  0.00000000000E+00  0.00000000000E+00  0.66857033257E+03  0.66857033257E+03  0.00000000000E+00 0. -1.
         21   -1    0    0  506  502 -0.00000000000E+00 -0.00000000000E+00 -0.55717541850E+03  0.55717541850E+03  0.00000000000E+00 0.  1.
         21    1    1    2  503  502 -0.49420626987E+02 -0.98851668896E+02  0.95402376342E+01  0.11092820628E+03  0.00000000000E+00 0. -1.
         21    1    1    2  504  501 -0.14622687312E+02  0.27177997259E+02  0.11426891414E+03  0.11836321751E+03  0.00000000000E+00 0. -1.
         21    1    1    2  505  503  0.44343580886E+02  0.21494897433E+01  0.48842019855E+03  0.49043375070E+03  0.00000000000E+00 0. -1.
         21    1    1    2  506  504  0.19699733413E+02  0.69524181894E+02 -0.50083443627E+03  0.50602057658E+03  0.00000000000E+00 0.  1.
<scales pt_clust_3="14000.00000" pt_clust_4="30.86206" pt_clust_5="40.90586" pt_clust_6="73.76517"></scales>
<clustering>
<clus scale="   30.862">  1  4  2 -1</clus>
<clus scale="   40.906">  1  5  2 -1</clus>
<clus scale="   73.765">  2  6  1 -1</clus>
<clus scale="   30.862">  1  3  2 -1</clus>
</clustering>
</event>
<event>
 6    0  0.6132510E+002  0.1564628E+03  0.7546771E-02  0.1192749E+00
         21   -1    0    0  503  501  0.00000000000E+00  0.00000000000E+00  0.66982592782E+02  0.66982592782E+02  0.00000000000E+00 0. -1.
         21   -1    0    0  506  502 -0.00000000000E+00 -0.00000000000E+00 -0.16584084812E+04  0.16584084812E+04  0.00000000000E+00 0.  1.
         21    1    1    2  503  504 -0.42258151681E+02 -0.91850410789E+01  0.37861539390E+02  0.57477060886E+02  0.00000000000E+00 0. -1.
         21    1    1    2  504  505 -0.17060836267E+02 -0.91766997739E+02 -0.17478985999E+03  0.19815082428E+03  0.00000000000E+00 0. -1.
         21    1    1    2  505  502  0.13036539318E+02 -0.44429459468E+02 -0.16847547772E+03  0.17472239358E+03  0.00000000000E+00 0. -1.
         21    1    1    2  506  501  0.46282448630E+02  0.14538149829E+03 -0.12860220901E+04  0.12950407953E+04  0.00000000000E+00 0.  1.
<scales pt_clust_3="43.24484" pt_clust_4="36.17267" pt_clust_5="36.17267" pt_clust_6="147.79355"></scales>
<clustering>
<clus scale="   36.173">  4  5 -1 -1</clus>
<clus scale="   43.245">  1  3  2 -1</clus>
<clus scale="  147.794">  2  6  1 -1</clus>
<clus scale="   43.245">  1  3  2 -1</clus>
</clustering>
</event>
<event>
 6    0  0.6132510E+002  0.1312185E+03  0.7546771E-02  0.1225659E+00
         21   -1    0    0  504  501  0.00000000000E+00  0.00000000000E+00  0.51168757579E+02  0.51168757579E+02  0.00000000000E+00 0.  1.
         21   -1    0    0  506  502 -0.00000000000E+00 -0.00000000000E+00 -0.14605648914E+04  0.14605648914E+04  0.00000000000E+00 0.  1.
         21    1    1    2  503  505 -0.15933524068E+02  0.88056258694E+02 -0.35456110334E+02  0.96254442206E+02  0.00000000000E+00 0.  1.
         21    1    1    2  504  503  0.24836175894E+02  0.34759669069E+02 -0.13169710578E+02  0.44704714556E+02  0.00000000000E+00 0.  1.
         21    1    1    2  505  502  0.37638851001E+02 -0.14605109617E+02 -0.55154402053E+03  0.55301970933E+03  0.00000000000E+00 0.  1.
         21    1    1    2  506  501 -0.46541502826E+02 -0.10821081815E+03 -0.80922629242E+03  0.81775478292E+03  0.00000000000E+00 0.  1.
<scales pt_clust_3="33.43764" pt_clust_4="33.43764" pt_clust_5="40.37316" pt_clust_6="121.96844"></scales>
<clustering>
<clus scale="   33.438">  3  4 -1 -1</clus>
<clus scale="   40.373">  2  5  1 -1</clus>
<clus scale="  121.968">  2  6  1 -1</clus>
<clus scale="  131.219">  1  3  2 -1</clus>
</clustering>
</event>
<event>
 6    0  0.6132510E+002  0.1792368E+03  0.7546771E-02  0.1168544E+00
         21   -1    0    0  504  501  0.00000000000E+00  0.00000000000E+00  0.74884891640E+03  0.74884891640E+03  0.00000000000E+00 0. -1.
         21   -1    0    0  503  502 -0.00000000000E+00 -0.00000000000E+00 -0.25032362080E+04  0.25032362080E+04  0.00000000000E+00 0.  1.
         21    1    1    2  503  505  0.95763282100E+02 -0.49461416027E+02 -0.11619550393E+04  0.11669432510E+04  0.00000000000E+00 0.  1.
         21    1    1    2  504  506  0.18338348867E+03 -0.64126173499E+02  0.68385166815E+03  0.71091122799E+03  0.00000000000E+00 0. -1.
         21    1    1    2  505  501 -0.65773262975E+02 -0.63560412847E+02 -0.28211425304E+02  0.95717985360E+02  0.00000000000E+00 0. -1.
         21    1    1    2  506  502 -0.21337350780E+03  0.17714800237E+03 -0.12480724952E+04  0.12785126601E+04  0.00000000000E+00 0.  1.
<scales pt_clust_3="107.68070" pt_clust_4="14000.00000" pt_clust_5="91.46610" pt_clust_6="179.23682"></scales>
<clustering>
<clus scale="   91.466">  1  5  2 -1</clus>
<clus scale="  107.681">  2  3  1 -1</clus>
<clus scale="  179.237">  2  6  1 -1</clus>
<clus scale="   91.466">  1  3  2 -1</clus>
</clustering>
</event>
<event>
 6    0  0.6132510E+002  0.9367081E+02  0.7546771E-02  0.1294198E+00
         21   -1    0    0  503  501  0.00000000000E+00  0.00000000000E+00  0.18733537873E+03  0.18733537873E+03  0.00000000000E+00 0.  1.
         21   -1    0    0  501  502 -0.00000000000E+00 -0.00000000000E+00 -0.24706090237E+03  0.24706090237E+03  0.00000000000E+00 0.  1.
         21    1    1    2  503  505  0.57662729246E+02  0.28549501118E+02  0.73622868228E+02  0.97777252387E+02  0.00000000000E+00 0.  1.
         21    1    1    2  504  506  0.14512578055E+02  0.85975751251E+02  0.76771674416E+01  0.87529330084E+02  0.00000000000E+00 0.  1.
         21    1    1    2  505  504  0.65613730876E+01 -0.10038065733E+03 -0.17774506109E+02  0.10215312550E+03  0.00000000000E+00 0.  1.
         21    1    1    2  506  502 -0.78736680389E+02 -0.14144595040E+02 -0.12325105319E+03  0.14693657312E+03  0.00000000000E+00 0.  1.
<scales pt_clust_3="64.34333" pt_clust_4="93.67081" pt_clust_5="14000.00000" pt_clust_6="72.82566"></scales>
<clustering>
<clus scale="   64.343">  1  3  2 -1</clus>
<clus scale="   72.826">  2  6  1 -1</clus>
<clus scale="   93.671">  2  4  1 -1</clus>
<clus scale="   64.343">  1  3  2 -1</clus>
</clustering>
</event>
<event>
 6    0  0.6132510E+002  0.8463003E+02  0.7546771E-02  0.1316403E+00
         21   -1    0    0  506  501  0.00000000000E+00  0.00000000000E+00  0.12670495315E+03  0.12670495315E+03  0.00000000000E+00 0. -1.
         21   -1    0    0  503  502 -0.00000000000E+00 -0.00000000000E+00 -0.98852039172E+03  0.98852039172E+03  0.00000000000E+00 0. -1.
         21    1    1    2  503  505 -0.72984929656E+02 -0.22045288255E+02 -0.83521142675E+03  0.83868404186E+03  0.00000000000E+00 0. -1.
         21    1    1    2  504  502 -0.12482655015E+01  0.60668241943E+02 -0.95301609985E+02  0.11298048775E+03  0.00000000000E+00 0. -1.
         21    1    1    2  505  501  0.74781861060E+02 -0.77832039712E+02  0.40594290621E+02  0.11531716949E+03  0.00000000000E+00 0. -1.
         21    1    1    2  506  504 -0.54866590279E+00  0.39209086023E+02  0.28103307550E+02  0.48243645761E+02  0.00000000000E+00 0. -1.
<scales pt_clust_3="14000.00000" pt_clust_4="64.59622" pt_clust_5="84.63003" pt_clust_6="39.21292"></scales>
<clustering>
<clus scale="   39.213">  1  6  2 -1</clus>
<clus scale="   64.596">  2  4  1 -1</clus>
<clus scale="   84.630">  1  5  2 -1</clus>
<clus scale="   39.213">  1  3  2 -1</clus>
</clustering>
</event>
<event>
 6    0  0.6132510E+002  0.3590756E+03  0.7546771E-02  0.1058950E+00
         21   -1    0    0  504  501  0.00000000000E+00  0.00000000000E+00  0.13192576783E+04  0.13192576783E+04  0.00000000000E+00 0.  1.
         21   -1    0    0  506  502 -0.00000000000E+00 -0.00000000000E+00 -0.94777017450E+03  0.94777017450E+03  0.00000000000E+00 0. -1.
         21    1    1    2  503  505 -0.37820131643E+00 -0.40101352378E+02  0.57247836151E+02  0.69896897232E+02  0.00000000000E+00 0. -1.
         21    1    1    2  504  503 -0.97770914441E+01 -0.30290564065E+03  0.11765705579E+04  0.12149755950E+04  0.00000000000E+00 0.  1.
         21    1    1    2  505  502 -0.87282318506E+02 -0.13631746221E+02 -0.91157666681E+02  0.12693993786E+03  0.00000000000E+00 0. -1.
         21    1    1    2  506  501  0.97437611267E+02  0.35663873924E+03 -0.77117322361E+03  0.85521542271E+03  0.00000000000E+00 0. -1.
<scales pt_clust_3="37.86065" pt_clust_4="37.86065" pt_clust_5="88.34041" pt_clust_6="343.66078"></scales>
<clustering>
<clus scale="   37.861">  3  4 -1 -1</clus>
<clus scale="   88.340">  2  5  1 -1</clus>
<clus scale="  343.661">  2  6  1 -1</clus>
<clus scale="  359.076">  1  3  2 -1</clus>
</clustering>
</event>
<event>
 6    0  0.6132510E+002  0.1761197E+03  0.7546771E-02  0.1171612E+00
         21   -1    0    0  504  501  0.00000000000E+00  0.00000000000E+00  0.21580052113E+03  0.21580052113E+03  0.00000000000E+00 0.  1.
         21   -1    0    0  503  502 -0.00000000000E+00 -0.00000000000E+00 -0.16273678703E+04  0.16273678703E+04  0.00000000000E+00 0.  1.
         21    1    1    2  503  501 -0.86122928303E+02 -0.72590502672E+02  0.84237687927E+02  0.14065037478E+03  0.00000000000E+00 0.  1.
         21    1    1    2  504  505  0.67009206760E+01  0.10831233652E+03  0.37710759472E+02  0.11488501190E+03  0.00000000000E+00 0.  1.
         21    1    1    2  505  506 -0.18808727233E+02  0.78676712028E+02 -0.47136387870E+02  0.93624955525E+02  0.00000000000E+00 0.  1.
         21    1    1    2  506  502  0.98230734859E+02 -0.11439854588E+03 -0.14863794087E+04  0.14940080493E+04  0.00000000000E+00 0.  1.
<scales pt_clust_3="112.63454" pt_clust_4="78.54445" pt_clust_5="78.54445" pt_clust_6="150.80482"></scales>
<clustering>
<clus scale="   78.544">  4  5 -1 -1</clus>
<clus scale="  112.635">  1  3  2 -1</clus>
<clus scale="  150.805">  2  6  1 -1</clus>
<clus scale="  112.635">  1  3  2 -1</clus>
</clustering>
</event>
<event>
 6    0  0.6132510E+002  0.1325533E+03  0.7546771E-02  0.1223716E+00
         21   -1    0    0  505  501  0.00000000000E+00  0.00000000000E+00  0.28935456342E+03  0.28935456342E+03  0.00000000000E+00 0.  1.
         21   -1    0    0  503  502 -0.00000000000E+00 -0.00000000000E+00 -0.81704242152E+03  0.81704242152E+03  0.00000000000E+00 0. -1.
         21    1    1    2  503  506  0.41786349628E+02  0.18364004868E+02 -0.10858513443E+03  0.11778822993E+03  0.00000000000E+00 0. -1.
         21    1    1    2  504  501  0.13204880866E+02 -0.73166773730E+02  0.73492897608E+02  0.10454162643E+03  0.00000000000E+00 0. -1.
         21    1    1    2  505  502 -0.12958348483E+03  0.85326504192E+02 -0.67078690024E+03  0.68849659214E+03  0.00000000000E+00 0. -1.
         21    1    1    2  506  504  0.74592254338E+02 -0.30523735330E+02  0.17819127896E+03  0.19557053644E+03  0.00000000000E+00 0.  1.
<scales pt_clust_3="45.64357" pt_clust_4="74.12037" pt_clust_5="14000.00000" pt_clust_6="132.55330"></scales>
<clustering>
<clus scale="   45.644">  2  3  1 -1</clus>
<clus scale="   74.120">  1  4  2 -1</clus>
<clus scale="  132.553">  1  6  2 -1</clus>
<clus scale="   74.120">  1  3  2 -1</clus>
</clustering>
</event>
<event>
 6    0  0.6132510E+002  0.1106702E+03  0.7546771E-02  0.1259334E+00
         21   -1    0    0  504  501  0.00000000000E+00  0.00000000000E+00  0.20357648406E+03  0.20357648406E+03  0.00000000000E+00 0.  1.
         21   -1    0    0  505  502 -0.00000000000E+00 -0.00000000000E+00 -0.16220010074E+03  0.16220010074E+03  0.00000000000E+00 0.  1.
         21    1    1    2  503  501 -0.10332381285E+03 -0.35329074592E+02  0.36782296619E+02  0.11522539285E+03  0.00000000000E+00 0.  1.
         21    1    1    2  504  502  0.10856564000E+03  0.28361257849E+02  0.47898556716E+02  0.12200463463E+03  0.00000000000E+00 0.  1.
         21    1    1    2  505  506  0.20058467528E+02 -0.31657774988E+02 -0.66908108886E+02  0.76689320452E+02  0.00000000000E+00 0.  1.
         21    1    1    2  506  503 -0.25300294680E+02  0.38625591732E+02  0.23603638875E+02  0.51857236868E+02  0.00000000000E+00 0. -1.
<scales pt_clust_3="110.67021" pt_clust_4="14000.00000" pt_clust_5="37.47742" pt_clust_6="40.31830"></scales>
<clustering>
<clus scale="   37.477">  2  5  1 -1</clus>
<clus scale="   40.318">  2  6  1 -1</clus>
<clus scale="  110.670">  2  3  1 -1</clus>
<clus scale="  110.670">  1  3  2 -1</clus>
</clustering>
</event>
<event>
 6    0  0.6132510E+002  0.1472462E+03  0.7546771E-02  0.1203898E+00
         21   -1    0    0  503  501  0.00000000000E+00  0.00000000000E+00  0.57698546142E+02  0.57698546142E+02  0.00000000000E+00 0.  1.
         21   -1    0    0  506  502 -0.00000000000E+00 -0.00000000000E+00 -0.81621830561E+03  0.81621830561E+03  0.00000000000E+00 0. -1.
         21    1    1    2  503  502 -0.16477523872E+00 -0.43109350984E+02 -0.53467598657E+02  0.68682074803E+02  0.00000000000E+00 0.  1.
         21    1    1    2  504  505  0.47759771880E+02 -0.31378495779E+02 -0.40473437935E+02  0.70026459183E+02  0.00000000000E+00 0.  1.
         21    1    1    2  505  501  0.77635579132E+02  0.35478073969E+02 -0.35240105958E+02  0.92346315290E+02  0.00000000000E+00 0.  1.
         21    1    1    2  506  504 -0.12523057577E+03  0.39009772794E+02 -0.62933861692E+03  0.64286200248E+03  0.00000000000E+00 0. -1.
<scales pt_clust_3="43.10967" pt_clust_4="63.70568" pt_clust_5="63.70568" pt_clust_6="129.57578"></scales>
<clustering>
<clus scale="   43.110">  1  3  2 -1</clus>
<clus scale="   63.706">  4  5 -1 -1</clus>
<clus scale="  129.576">  2  6  1 -1</clus>
<clus scale="   43.110">  1  3  2 -1</clus>
</clustering>
</event>
<event>
 6    0  0.6132510E+002  0.1347553E+03  0.7546771E-02  0.1220566E+00
         21   -1    0    0  502  501  0.00000000000E+00  0.00000000000E+00  0.33149258335E+03  0.33149258335E+03  0.00000000000E+00 0. -1.
         21   -1    0    0  506  502 -0.00000000000E+00 -0.00000000000E+00 -0.90973789180E+03  0.90973789180E+03  0.00000000000E+00 0.  1.
         21    1    1    2  503  505 -0.21182877711E+02 -0.54904759673E+02  0.86014136850E+02  0.10421937767E+03  0.00000000000E+00 0. -1.
         21    1    1    2  504  503 -0.27198408824E+02  0.11238449520E+03 -0.46435411722E+03  0.47853398456E+03  0.00000000000E+00 0.  1.
         21    1    1    2  505  501  0.17230753478E+02 -0.65142480174E+02  0.22371569071E+03  0.23364321488E+03  0.00000000000E+00 0. -1.
         21    1    1    2  506  504  0.31150533057E+02  0.76627446515E+01 -0.42362101880E+03  0.42483389805E+03  0.00000000000E+00 0.  1.
<scales pt_clust_3="57.37474" pt_clust_4="119.86403" pt_clust_5="57.37474" pt_clust_6="32.07917"></scales>
<clustering>
<clus scale="   32.079">  2  6  1 -1</clus>
<clus scale="   57.375">  3  5 -1 -1</clus>
<clus scale="  119.864">  2  4  1 -1</clus>
<clus scale="  134.755">  1  3  2 -1</clus>
</clustering>
</event>
<event>
 6    0  0.6132510E+002  0.2389874E+03  0.7546771E-02  0.1120469E+00
         21   -1    0    0  505  501  0.00000000000E+00  0.00000000000E+00  0.69420386810E+03  0.69420386810E+03  0.00000000000E+00 0. -1.
         21   -1    0    0  504  502 -0.00000000000E+00 -0.00000000000E+00 -0.44471133110E+03  0.44471133110E+03  0.00000000000E+00 0. -1.
         21    1    1    2  503  506 -0.36722634466E+02 -0.47255255983E+02  0.19932337242E+03  0.20811395410E+03  0.00000000000E+00 0. -1.
         21    1    1    2  504  501  0.21818397159E+03  0.23429642449E+03 -0.31410059256E+03  0.44850668025E+03  0.00000000000E+00 0. -1.
         21    1    1    2  505  503 -0.13049717838E+03 -0.10793888623E+03  0.34769768891E+03  0.38674797944E+03  0.00000000000E+00 0. -1.
         21    1    1    2  506  502 -0.50964158741E+02 -0.79102282279E+02  0.16572068225E+02  0.95546585409E+02  0.00000000000E+00 0. -1.
<scales pt_clust_3="30.20069" pt_clust_4="233.52518" pt_clust_5="30.20069" pt_clust_6="94.09844"></scales>
<clustering>
<clus scale="   30.201">  3  5 -1 -1</clus>
<clus scale="   94.098">  2  6  1 -1</clus>
<clus scale="  233.525">  2  4  1 -1</clus>
<clus scale="  238.987">  1  3  2 -1</clus>
</clustering>
</event>
<event>
 6    0  0.6132510E+002  0.9642711E+02  0.7546771E-02  0.1287994E+00
         21   -1    0    0  506  501  0.00000000000E+00  0.00000000000E+00  0.95525538747E+03  0.95525538747E+03  0.00000000000E+00 0.  1.
         21   -1    0    0  504  502 -0.00000000000E+00 -0.00000000000E+00 -0.17774969051E+03  0.17774969051E+03  0.00000000000E+00 0.  1.
         21    1    1    2  503  501 -0.82203683186E+02 -0.17772087998E+02  0.53887857914E+03  0.54540206793E+03  0.00000000000E+00 0.  1.
         21    1    1    2  504  503 -0.13366203051E+02  0.35469924520E+02 -0.18103209625E+02  0.42005917776E+02  0.00000000000E+00 0.  1.
         21    1    1    2  505  502 -0.56213448642E+02 -0.71758117386E+02 -0.11128704260E+03  0.14385404085E+03  0.00000000000E+00 0.  1.
         21    1    1    2  506  505  0.15178333488E+03  0.54060280864E+02  0.36801737004E+03  0.40174305142E+03  0.00000000000E+00 0.  1.
<scales pt_clust_3="14000.00000" pt_clust_4="37.90476" pt_clust_5="79.26006" pt_clust_6="96.42711"></scales>
<clustering>
<clus scale="   37.905">  2  4  1 -1</clus>
<clus scale="   79.260">  2  5  1 -1</clus>
<clus scale="   96.427">  2  6  1 -1</clus>
<clus scale="   96.427">  1  3  2 -1</clus>
</clustering>
</event>
<event>
 6    0  0.6132510E+002  0.1533879E+03  0.7546771E-02  0.1196371E+00
         21   -1    0    0  502  501  0.00000000000E+00  0.00000000000E+00  0.19511950821E+03  0.19511950821E+03  0.00000000000E+00 0. -1.
         21   -1    0    0  504  502 -0.00000000000E+00 -0.00000000000E+00 -0.23284521866E+03  0.23284521866E+03  0.00000000000E+00 0. -1.
         21    1    1    2  503  501  0.42185841696E+02  0.17444988168E+02  0.85528168150E+02  0.96948648257E+02  0.00000000000E+00 0. -1.
         21    1    1    2  504  506 -0.56680533288E+02 -0.68138573474E+02 -0.11664925133E+03  0.14650118049E+03  0.00000000000E+00 0. -1.
         21    1    1    2  505  503  0.71563248017E+02  0.61995603911E+02  0.46733402584E+02  0.10558770898E+03  0.00000000000E+00 0. -1.
         21    1    1    2  506  505 -0.57068556425E+02 -0.11302018604E+02 -0.53338029848E+02  0.78927189137E+02  0.00000000000E+00 0. -1.
<scales pt_clust_3="45.41700" pt_clust_4="148.06172" pt_clust_5="45.41700" pt_clust_6="41.88410"></scales>
<clustering>
<clus scale="   41.884">  4  6 -1 -1</clus>
<clus scale="   45.417">  3  5 -1 -1</clus>
<clus scale="  148.062">  2  4  1 -1</clus>
<clus scale="  153.388">  1  3  2 -1</clus>
</clustering>
</event>
<event>
 6    0  0.6132510E+002  0.1539024E+03  0.7546771E-02  0.1195758E+00
         21   -1    0    0  505  501  0.00000000000E+00  0.00000000000E+00  0.85342414274E+02  0.85342414274E+02  0.00000000000E+00 0.  1.
         21   -1    0    0  503  502 -0.00000000000E+00 -0.00000000000E+00 -0.32912006860E+03  0.32912006860E+03  0.00000000000E+00 0.  1.
         21    1    1    2  503  506 -0.27991064343E+02  0.17935755480E+02 -0.33430579429E+02  0.47146523188E+02  0.00000000000E+00 0.  1.
         21    1    1    2  504  502  0.17543798064E+01  0.43567369966E+02 -0.63692040853E+02  0.77187237561E+02  0.00000000000E+00 0.  1.
         21    1    1    2  505  504  0.31758565375E+02  0.91366521544E+02 -0.46828310766E+02  0.10746784832E+03  0.00000000000E+00 0.  1.
         21    1    1    2  506  501 -0.55218808379E+01 -0.15286964699E+03 -0.99826723279E+02  0.18266087381E+03  0.00000000000E+00 0.  1.
<scales pt_clust_3="33.24441" pt_clust_4="35.22433" pt_clust_5="35.22433" pt_clust_6="145.37356"></scales>
<clustering>
<clus scale="   33.244">  2  3  1 -1</clus>
<clus scale="   35.224">  4  5 -1 -1</clus>
<clus scale="  145.374">  2  6  1 -1</clus>
<clus scale="  153.902">  1  3  2 -1</clus>
</clustering>
</event>
<event>
 6    0  0.6132510E+002  0.1100298E+03  0.7546771E-02  0.1260515E+00
         21   -1    0    0  506  501  0.00000000000E+00  0.00000000000E+00  0.34833545814E+03  0.34833545814E+03  0.00000000000E+00 0.  1.
         21   -1    0    0  503  502 -0.00000000000E+00 -0.00000000000E+00 -0.10903284809E+03  0.10903284809E+03  0.00000000000E+00 0.  1.
         21    1    1    2  503  505 -0.12379145591E+03 -0.23975140879E+02  0.34914733307E+02  0.13083642665E+03  0.00000000000E+00 0.  1.
         21    1    1    2  504  501 -0.23992780940E+02  0.25411598430E+02  0.11272944370E+03  0.11802258406E+03  0.00000000000E+00 0. -1.
         21    1    1    2  505  504  0.10482552401E+03 -0.54668418391E+02  0.66372334522E+02  0.13558138974E+03  0.00000000000E+00 0.  1.
         21    1    1    2  506  502  0.42958712842E+02  0.53231960840E+02  0.25286098522E+02  0.72927905786E+02  0.00000000000E+00 0.  1.
<scales pt_clust_3="110.02985" pt_clust_4="34.94857" pt_clust_5="14000.00000" pt_clust_6="69.77910"></scales>
<clustering>
<clus scale="   34.949">  1  4  2 -1</clus>
<clus scale="   69.779">  2  6  1 -1</clus>
<clus scale="  110.030">  2  3  1 -1</clus>
<clus scale="   34.949">  1  3  2 -1</clus>
</clustering>
</event>
<event>
 6    0  0.6132510E+002  0.1820998E+03  0.7546771E-02  0.1165786E+00
         21   -1    0    0  506  501  0.00000000000E+00  0.00000000000E+00  0.98335287293E+02  0.98335287293E+02  0.00000000000E+00 0. -1.
         21   -1    0    0  505  502 -0.00000000000E+00 -0.00000000000E+00 -0.10764880638E+04  0.10764880638E+04  0.00000000000E+00 0. -1.
         21    1    1    2  503  502 -0.90558575908E+02 -0.35358119214E+02 -0.20403600479E+03  0.22601270654E+03  0.00000000000E+00 0. -1.
         21    1    1    2  504  503 -0.10869949288E+03  0.10728581084E+02 -0.51651506920E+02  0.12082450237E+03  0.00000000000E+00 0. -1.
         21    1    1    2  505  501  0.25391807827E+03  0.35751028666E+02 -0.72808876637E+03  0.77192342770E+03  0.00000000000E+00 0. -1.
         21    1    1    2  506  504 -0.54660009481E+02 -0.11121490536E+02  0.56235015544E+01  0.56062714508E+02  0.00000000000E+00 0.  1.
<scales pt_clust_3="97.21652" pt_clust_4="35.61649" pt_clust_5="175.14658" pt_clust_6="35.61649"></scales>
<clustering>
<clus scale="   35.616">  4  6 -1 -1</clus>
<clus scale="   97.217">  2  3  1 -1</clus>
<clus scale="  175.147">  2  5  1 -1</clus>
<clus scale="  182.100">  1  3  2 -1</clus>
</clustering>
</event>
<event>
 6    0  0.6132510E+002  0.1048411E+03  0.7546771E-02  0.1270433E+00
         21   -1    0    0  503  501  0.00000000000E+00  0.00000000000E+00  0.55726440239E+02  0.55726440239E+02  0.00000000000E+00 0. -1.
         21   -1    0    0  505  502 -0.00000000000E+00 -0.00000000000E+00 -0.90209458433E+03  0.90209458433E+03  0.00000000000E+00 0. -1.
         21    1    1    2  503  504 -0.10178641341E+03 -0.31022277789E+02 -0.38247431404E+02  0.11307396554E+03  0.00000000000E+00 0. -1.
         21    1    1    2  504  502 -0.37267035533E+02  0.42615805615E+01 -0.87777773262E+02  0.95456432393E+02  0.00000000000E+00 0. -1.
         21    1    1    2  505  506  0.66245581507E+02 -0.59139291241E+02 -0.39982077471E+03  0.40956389578E+03  0.00000000000E+00 0. -1.
         21    1    1    2  506  501  0.72807867441E+02  0.85899988468E+02 -0.32052216471E+03  0.33972673085E+03  0.00000000000E+00 0. -1.
<scales pt_clust_3="14000.00000" pt_clust_4="37.50991" pt_clust_5="74.29400" pt_clust_6="104.84111"></scales>
<clustering>
<clus scale="   37.510">  2  4  1 -1</clus>
<clus scale="   74.294">  2  5  1 -1</clus>
<clus scale="  104.841">  2  6  1 -1</clus>
<clus scale="  104.841">  1  3  2 -1</clus>
</clustering>
</event>
<event>
 6    0  0.6132510E+002  0.1235508E+03  0.7546771E-02  0.1237352E+00
         21   -1    0    0  503  501  0.00000000000E+00  0.00000000000E+00  0.11410657071E+03  0.11410657071E+03  0.00000000000E+00 0.  1.
         21   -1    0    0  505  502 -0.00000000000E+00 -0.00000000000E+00 -0.10211067211E+04  0.10211067211E+04  0.00000000000E+00 0.  1.
         21    1    1    2  503  506  0.36614905160E+02  0.65766652133E+02  0.34566043688E+02  0.82829434314E+02  0.00000000000E+00 0.  1.
         21    1    1    2  504  502  0.40955497880E+02  0.96656619318E+02 -0.30092106439E+03  0.31870572925E+03  0.00000000000E+00 0. -1.
         21    1    1    2  505  501  0.62367680334E+02  0.16355961366E+02 -0.12386118634E+02  0.65655623958E+02  0.00000000000E+00 0.  1.
         21    1    1    2  506  504 -0.13993808337E+03 -0.17877923282E+03 -0.62825901104E+03  0.66802250428E+03  0.00000000000E+00 0.  1.
<scales pt_clust_3="123.55084" pt_clust_4="109.10355" pt_clust_5="64.47670" pt_clust_6="14000.00000"></scales>
<clustering>
<clus scale="   64.477">  1  5  2 -1</clus>
<clus scale="  109.104">  2  4  1 -1</clus>
<clus scale="  123.551">  1  3  2 -1</clus>
<clus scale="   64.477">  1  3  2 -1</clus>
</clustering>
</event>
<event>
 6    0  0.6132510E+002  0.2596746E+03  0.7546771E-02  0.1107339E+00
         21   -1    0    0  505  501  0.00000000000E+00  0.00000000000E+00  0.75752098845E+03  0.75752098845E+03  0.00000000000E+00 0. -1.
         21   -1    0    0  503  502 -0.00000000000E+00 -0.00000000000E+00 -0.21197791929E+03  0.21197791929E+03  0.00000000000E+00 0. -1.
         21    1    1    2  503  506  0.71966181208E+02 -0.20788954129E+02 -0.73807396574E+02  0.10516103670E+03  0.00000000000E+00 0. -1.
         21    1    1    2  504  501  0.59258309105E+02 -0.13402109888E+03 -0.79752321404E+00  0.14653954479E+03  0.00000000000E+00 0. -1.
         21    1    1    2  505  502 -0.18153561875E+03  0.19465963319E+03  0.58922720659E+03  0.64655723231E+03  0.00000000000E+00 0. -1.
         21    1    1    2  506  504  0.50311128436E+02 -0.39849580177E+02  0.30920782359E+02  0.71241093945E+02  0.00000000000E+00 0. -1.
<scales pt_clust_3="74.90869" pt_clust_4="43.31917" pt_clust_5="251.28944" pt_clust_6="43.31917"></scales>
<clustering>
<clus scale="   43.319">  4  6 -1 -1</clus>
<clus scale="   74.909">  2  3  1 -1</clus>
<clus scale="  251.289">  1  5  2 -1</clus>
<clus scale="  251.289">  1  3  2 -1</clus>
</clustering>
</event>
<event>
 6    0  0.6132510E+002  0.1088611E+03  0.7546771E-02  0.1262694E+00
         21   -1    0    0  505  501  0.00000000000E+00  0.00000000000E+00  0.41215377465E+03  0.41215377465E+03  0.00000000000E+00 0.  1.
         21   -1    0    0  501  502 -0.00000000000E+00 -0.00000000000E+00 -0.16270761655E+03  0.16270761655E+03  0.00000000000E+00 0.  1.
         21    1    1    2  503  504 -0.17394552054E+00 -0.46559648044E+02  0.97622737275E+02  0.10815743116E+03  0.00000000000E+00 0.  1.
         21    1    1    2  504  506  0.90625956148E+01  0.12959318653E+03 -0.75693591962E+02  0.15035306615E+03  0.00000000000E+00 0.  1.
         21    1    1    2  505  503  0.39318521302E+01 -0.51490375930E+02  0.26250127960E+03  0.26753250283E+03  0.00000000000E+00 0.  1.
         21    1    1    2  506  502 -0.12820502224E+02 -0.31543162560E+02 -0.34984266819E+02  0.48818391068E+02  0.00000000000E+00 0.  1.
<scales pt_clust_3="40.91802" pt_clust_4="100.12513" pt_clust_5="40.91802" pt_clust_6="34.04903"></scales>
<clustering>
<clus scale="   34.049">  2  6  1 -1</clus>
<clus scale="   40.918">  3  5 -1 -1</clus>
<clus scale="  100.125">  2  4  1 -1</clus>
<clus scale="  108.861">  1  3  2 -1</clus>
</clustering>
</event>
<event>
 6    0  0.6132510E+002  0.1263615E+03  0.7546771E-02  0.1232957E+00
         21   -1    0    0  504  501  0.00000000000E+00  0.00000000000E+00  0.17109638353E+04  0.17109638353E+04  0.00000000000E+00 0. -1.
         21   -1    0    0  505  502 -0.00000000000E+00 -0.00000000000E+00 -0.62307174608E+02  0.62307174608E+02  0.00000000000E+00 0. -1.
         21    1    1    2  503  502 -0.11637319726E+03  0.55212331488E+02  0.61045703377E+02  0.14254017150E+03  0.00000000000E+00 0. -1.
         21    1    1    2  504  503  0.44801193403E+02 -0.84907873330E+02  0.73450447210E+03  0.74075185684E+03  0.00000000000E+00 0. -1.
         21    1    1    2  505  506  0.27425788888E+02  0.46937784365E+02  0.23842129134E+02  0.59361406813E+02  0.00000000000E+00 0.  1.
         21    1    1    2  506  501  0.44146214972E+02 -0.17242242523E+02  0.82926435605E+03  0.83061757473E+03  0.00000000000E+00 0. -1.
<scales pt_clust_3="126.36148" pt_clust_4="14000.00000" pt_clust_5="54.75627" pt_clust_6="47.39392"></scales>
<clustering>
<clus scale="   47.394">  1  6  2 -1</clus>
<clus scale="   54.756">  2  5  1 -1</clus>
<clus scale="  126.361">  2  3  1 -1</clus>
<clus scale="   47.394">  1  3  2 -1</clus>
</clustering>
</event>
<event>
 6    0  0.6132510E+002  0.8682787E+02  0.7546771E-02  0.1310721E+00
         21   -1    0    0  504  501  0.00000000000E+00  0.00000000000E+00  0.69970579115E+02  0.69970579115E+02  0.00000000000E+00 0. -1.
         21   -1    0    0  503  502 -0.00000000000E+00 -0.00000000000E+00 -0.23400675698E+04  0.23400675698E+04  0.00000000000E+00 0.  1.
         21    1    1    2  503  506 -0.62062389668E+01 -0.10129985491E+03 -0.29965359643E+02  0.10582107912E+03  0.00000000000E+00 0. -1.
         21    1    1    2  504  505 -0.83774117901E+02  0.71374469356E+02 -0.18192648973E+03  0.21262564608E+03  0.00000000000E+00 0. -1.
         21    1    1    2  505  502  0.42009863393E+02 -0.99937971974E+01 -0.20155195990E+04  0.20159821325E+04  0.00000000000E+00 0.  1.
         21    1    1    2  506  501  0.47970493474E+02  0.39919182756E+02 -0.42685542322E+02  0.75609291224E+02  0.00000000000E+00 0. -1.
<scales pt_clust_3="86.82787" pt_clust_4="14000.00000" pt_clust_5="43.18223" pt_clust_6="67.42606"></scales>
<clustering>
<clus scale="   43.182">  2  5  1 -1</clus>
<clus scale="   67.426">  1  6  2 -1</clus>
<clus scale="   86.828">  1  3  2 -1</clus>
<clus scale="   67.426">  1  3  2 -1</clus>
</clustering>
</event>
<event>
 6    0  0.6132510E+002  0.8008447E+02  0.7546771E-02  0.1328812E+00
         21   -1    0    0  504  501  0.00000000000E+00  0.00000000000E+00  0.49576231886E+03  0.49576231886E+03  0.00000000000E+00 0.  1.
         21   -1    0    0  506  502 -0.00000000000E+00 -0.00000000000E+00 -0.21925383873E+03  0.21925383873E+03  0.00000000000E+00 0. -1.
         21    1    1    2  503  505 -0.72809760331E+02 -0.23069713016E+01  0.90325853884E+02  0.11604026541E+03  0.00000000000E+00 0. -1.
         21    1    1    2  504  503  0.33925074583E-01  0.33492730456E+02  0.34826946743E+03  0.34987624396E+03  0.00000000000E+00 0.  1.
         21    1    1    2  505  502 -0.47488973773E+02  0.11137100168E+02 -0.85366367429E+01  0.49518802459E+02  0.00000000000E+00 0. -1.
         21    1    1    2  506  501  0.12026480903E+03 -0.42322859322E+02 -0.15355020444E+03  0.19958084576E+03  0.00000000000E+00 0. -1.
<scales pt_clust_3="14000.00000" pt_clust_4="33.49275" pt_clust_5="50.04887" pt_clust_6="80.08447"></scales>
<clustering>
<clus scale="   33.493">  1  4  2 -1</clus>
<clus scale="   50.049">  2  5  1 -1</clus>
<clus scale="   80.084">  2  6  1 -1</clus>
<clus scale="   33.493">  1  3  2 -1</clus>
</clustering>
</event>
<event>
 6    0  0.6132510E+002  0.1234271E+03  0.7546771E-02  0.1237548E+00
         21   -1    0    0  503  501  0.00000000000E+00  0.00000000000E+00  0.34970596313E+03  0.34970596313E+03  0.00000000000E+00 0.  1.
         21   -1    0    0  505  502 -0.00000000000E+00 -0.00000000000E+00 -0.67046706662E+02  0.67046706662E+02  0.00000000000E+00 0.  1.
         21    1    1    2  503  504  0.37135948189E+02  0.52498162602E+02  0.14280951511E+03  0.15661958157E+03  0.00000000000E+00 0.  1.
         21    1    1    2  504  502  0.52477829347E+02  0.20110949078E+02  0.59662470361E+02  0.81963304078E+02  0.00000000000E+00 0.  1.
         21    1    1    2  505  506 -0.36494222316E+02  0.26727418003E+02  0.13250346633E+02  0.47135494284E+02  0.00000000000E+00 0.  1.
         21    1    1    2  506  501 -0.53119555220E+02 -0.99336529683E+02  0.66936924364E+02  0.13103428986E+03  0.00000000000E+00 0.  1.
<scales pt_clust_3="45.67573" pt_clust_4="45.67573" pt_clust_5="45.23476" pt_clust_6="112.29455"></scales>
<clustering>
<clus scale="   45.235">  2  5  1 -1</clus>
<clus scale="   45.676">  3  4 -1 -1</clus>
<clus scale="  112.295">  2  6  1 -1</clus>
<clus scale="  123.427">  1  3  2 -1</clus>
</clustering>
</event>
<event>
 6    0  0.6132510E+002  0.1310676E+03  0.7546771E-02  0.1225880E+00
         21   -1    0    0  505  501  0.00000000000E+00  0.00000000000E+00  0.61310468532E+03  0.61310468532E+03  0.00000000000E+00 0. -1.
         21   -1    0    0  504  502 -0.00000000000E+00 -0.00000000000E+00 -0.62271137539E+02  0.62271137539E+02  0.00000000000E+00 0. -1.
         21    1    1    2  503  501  0.12878617970E+03 -0.32391276638E+02  0.26264406792E+03  0.29430763038E+03  0.00000000000E+00 0. -1.
         21    1    1    2  504  503  0.31049369456E+02 -0.11116891329E+01  0.76467936638E+01  0.31996447455E+02  0.00000000000E+00 0.  1.
         21    1    1    2  505  506 -0.11006407373E+03  0.75693996609E+02  0.23214439342E+03  0.26783334528E+03  0.00000000000E+00 0. -1.
         21    1    1    2  506  502 -0.49771475430E+02 -0.42191030838E+02  0.48398292772E+02  0.81238399744E+02  0.00000000000E+00 0. -1.
<scales pt_clust_3="14000.00000" pt_clust_4="31.06926" pt_clust_5="131.06762" pt_clust_6="58.12643"></scales>
<clustering>
<clus scale="   31.069">  2  4  1 -1</clus>
<clus scale="   58.126">  2  6  1 -1</clus>
<clus scale="  131.068">  2  5  1 -1</clus>
<clus scale="  131.068">  1  3  2 -1</clus>
</clustering>
</event>
<event>
 6    0  0.6132510E+002  0.8975994E+02  0.7546771E-02  0.1303434E+00
         21   -1    0    0  506  501  0.00000000000E+00  0.00000000000E+00  0.12655060762E+04  0.12655060762E+04  0.00000000000E+00 0.  1.
         21   -1    0    0  505  502 -0.00000000000E+00 -0.00000000000E+00 -0.24307824921E+02  0.24307824921E+02  0.00000000000E+00 0.  1.
         21    1    1    2  503  501 -0.30685224464E+02 -0.33120161989E+02  0.17970927173E+03  0.18529422678E+03  0.00000000000E+00 0.  1.
         21    1    1    2  504  502 -0.51361066618E+02  0.57932881634E+02  0.16740589588E+03  0.18444216414E+03  0.00000000000E+00 0.  1.
         21    1    1    2  505  503  0.53378905627E+02 -0.10019951198E+03  0.30399438095E+03  0.32450243977E+03  0.00000000000E+00 0.  1.
         21    1    1    2  506  504  0.28667385455E+02  0.75386792330E+02  0.59008870274E+03  0.59557507046E+03  0.00000000000E+00 0.  1.
<scales pt_clust_3="45.15006" pt_clust_4="89.75994" pt_clust_5="14000.00000" pt_clust_6="58.47449"></scales>
<clustering>
<clus scale="   45.150">  1  3  2 -1</clus>
<clus scale="   58.474">  1  6  2 -1</clus>
<clus scale="   89.760">  2  4  1 -1</clus>
<clus scale="   45.150">  1  3  2 -1</clus>
</clustering>
</event>
<event>
 6    0  0.6132510E+002  0.7850317E+02  0.7546771E-02  0.1333354E+00
         21   -1    0    0  504  501  0.00000000000E+00  0.00000000000E+00  0.35680200702E+03  0.35680200702E+03  0.00000000000E+00 0. -1.
         21   -1    0    0  503  502 -0.00000000000E+00 -0.00000000000E+00 -0.89946776454E+02  0.89946776454E+02  0.00000000000E+00 0. -1.
         21    1    1    2  503  505  0.33845459055E+02  0.14035755163E+01 -0.82001304250E+01  0.34852937636E+02  0.00000000000E+00 0. -1.
         21    1    1    2  504  506 -0.12848530310E+02 -0.91639757125E+02  0.39378205179E+02  0.10056626104E+03  0.00000000000E+00 0. -1.
         21    1    1    2  505  501  0.55852548502E+02  0.37046310127E+02  0.20060430079E+03  0.21150418852E+03  0.00000000000E+00 0. -1.
         21    1    1    2  506  502 -0.76849477247E+02  0.53189871482E+02  0.35072855027E+02  0.99825396273E+02  0.00000000000E+00 0. -1.
<scales pt_clust_3="33.87455" pt_clust_4="78.50317" pt_clust_5="69.34442" pt_clust_6="14000.00000"></scales>
<clustering>
<clus scale="   33.875">  2  3  1 -1</clus>
<clus scale="   69.344">  1  5  2 -1</clus>
<clus scale="   78.503">  1  4  2 -1</clus>
<clus scale="   69.344">  1  3  2 -1</clus>
</clustering>
</event>
<event>
 6    0  0.6132510E+002  0.8558486E+02  0.7546771E-02  0.1313910E+00
         21   -1    0    0  505  501  0.00000000000E+00  0.00000000000E+00  0.55628439609E+02  0.55628439609E+02  0.00000000000E+00 0. -1.
         21   -1    0    0  503  502 -0.00000000000E+00 -0.00000000000E+00 -0.78803362388E+03  0.78803362388E+03  0.00000000000E+00 0. -1.
         21    1    1    2  503  504  0.20126182543E+02 -0.77120966016E+02 -0.13489950965E+03  0.15668626081E+03  0.00000000000E+00 0. -1.
         21    1    1    2  504  501 -0.34179534338E+02 -0.15550022061E+02 -0.75114228954E+01  0.38294454266E+02  0.00000000000E+00 0. -1.
         21    1    1    2  505  506 -0.29912952069E+02  0.84746061668E+02 -0.42580001565E+02  0.99447152815E+02  0.00000000000E+00 0. -1.
         21    1    1    2  506  502  0.43966303864E+02  0.79249264094E+01 -0.54741425016E+03  0.54923419560E+03  0.00000000000E+00 0. -1.
<scales pt_clust_3="85.58486" pt_clust_4="37.55055" pt_clust_5="14000.00000" pt_clust_6="43.85222"></scales>
<clustering>
<clus scale="   37.551">  1  4  2 -1</clus>
<clus scale="   43.852">  2  6  1 -1</clus>
<clus scale="   85.585">  2  3  1 -1</clus>
<clus scale="   37.551">  1  3  2 -1</clus>
</clustering>
</event>
<event>
 6    0  0.6132510E+002  0.1143487E+03  0.7546771E-02  0.1252722E+00
         21   -1    0    0  505  501  0.00000000000E+00  0.00000000000E+00  0.12084119291E+04  0.12084119291E+04  0.00000000000E+00 0.  1.
         21   -1    0    0  503  502 -0.00000000000E+00 -0.00000000000E+00 -0.15009350480E+03  0.15009350480E+03  0.00000000000E+00 0.  1.
         21    1    1    2  503  504 -0.13322926558E+02 -0.40306442131E+02 -0.68423073189E+02  0.80522211805E+02  0.00000000000E+00 0.  1.
         21    1    1    2  504  506  0.23832246382E+02 -0.63223509313E+02 -0.50137752470E+02  0.84136688313E+02  0.00000000000E+00 0.  1.
         21    1    1    2  505  502  0.43766010842E+02  0.14804061954E-02  0.83852357545E+02  0.94586899585E+02  0.00000000000E+00 0.  1.
         21    1    1    2  506  501 -0.54275330666E+02  0.10352847104E+03  0.10930268924E+04  0.10992596342E+04  0.00000000000E+00 0.  1.
<scales pt_clust_3="37.40585" pt_clust_4="37.40585" pt_clust_5="43.76601" pt_clust_6="104.15684"></scales>
<clustering>
<clus scale="   37.406">  3  4 -1 -1</clus>
<clus scale="   43.766">  1  5  2 -1</clus>
<clus scale="  104.157">  1  6  2 -1</clus>
<clus scale="   43.766">  1  3  2 -1</clus>
</clustering>
</event>
<event>
 6    0  0.6132510E+002  0.1602821E+03  0.7546771E-02  0.1188379E+00
         21   -1    0    0  504  501  0.00000000000E+00  0.00000000000E+00  0.12942233351E+04  0.12942233351E+04  0.00000000000E+00 0.  1.
         21   -1    0    0  501  502 -0.00000000000E+00 -0.00000000000E+00 -0.26888237468E+03  0.26888237468E+03  0.00000000000E+00 0.  1.
         21    1    1    2  503  505 -0.84988080676E+02  0.97214051862E+02 -0.94344975750E+02  0.15992035576E+03  0.00000000000E+00 0.  1.
         21    1    1    2  504  506  0.19212389158E+02 -0.10829436685E+03  0.68184693926E+03  0.69066057827E+03  0.00000000000E+00 0.  1.
         21    1    1    2  505  502  0.67140347930E+02  0.54799799556E+02 -0.12273388538E+03  0.15024796495E+03  0.00000000000E+00 0.  1.
         21    1    1    2  506  503 -0.13646564122E+01 -0.43719484563E+02  0.56057288231E+03  0.56227681083E+03  0.00000000000E+00 0.  1.
<scales pt_clust_3="151.23496" pt_clust_4="33.47897" pt_clust_5="86.66513" pt_clust_6="33.47897"></scales>
<clustering>
<clus scale="   33.479">  4  6 -1 -1</clus>
<clus scale="   86.665">  2  5  1 -1</clus>
<clus scale="  151.235">  2  3  1 -1</clus>
<clus scale="  160.282">  1  3  2 -1</clus>
</clustering>
</event>
<event>
 6    0  0.6132510E+002  0.1097931E+03  0.7546771E-02  0.1260954E+00
         21   -1    0    0  503  501  0.00000000000E+00  0.00000000000E+00  0.79400961826E+02  0.79400961826E+02  0.00000000000E+00 0.  1.
         21   -1    0    0  504  502 -0.00000000000E+00 -0.00000000000E+00 -0.30292025598E+04  0.30292025598E+04  0.00000000000E+00 0.  1.
         21    1    1    2  503  502 -0.29306666133E+02 -0.48377887883E+02  0.35310860997E+02  0.66679514247E+02  0.00000000000E+00 0.  1.
         21    1    1    2  504  506  0.24620491826E+02 -0.24769757039E+02 -0.24535953586E+04  0.24538439016E+04  0.00000000000E+00 0.  1.
         21    1    1    2  505  501  0.31431321226E+02 -0.70902196156E+02 -0.72198987950E+02  0.10596104584E+03  0.00000000000E+00 0.  1.
         21    1    1    2  506  505 -0.26745146919E+02  0.14404984108E+03 -0.45931811236E+03  0.48211905992E+03  0.00000000000E+00 0.  1.
<scales pt_clust_3="56.79960" pt_clust_4="34.92434" pt_clust_5="14000.00000" pt_clust_6="109.79309"></scales>
<clustering>
<clus scale="   34.924">  2  4  1 -1</clus>
<clus scale="   56.800">  1  3  2 -1</clus>
<clus scale="  109.793">  2  6  1 -1</clus>
<clus scale="   56.800">  1  3  2 -1</clus>
</clustering>
</event>
<event>
 6    0  0.6132510E+002  0.1158387E+03  0.7546771E-02  0.1250124E+00
         21   -1    0    0  504  501  0.00000000000E+00  0.00000000000E+00  0.16628035709E+03  0.16628035709E+03  0.00000000000E+00 0. -1.
         21   -1    0    0  501  502 -0.00000000000E+00 -0.00000000000E+00 -0.54085411460E+03  0.54085411460E+03  0.00000000000E+00 0.  1.
         21    1    1    2  503  502 -0.95902780879E+02  0.53992336336E+02 -0.30105090363E+03  0.32053730257E+03  0.00000000000E+00 0.  1.
         21    1    1    2  504  505  0.14776752490E+02  0.55143061008E+02  0.63603064180E+02  0.85466129926E+02  0.00000000000E+00 0. -1.
         21    1    1    2  505  506  0.42726809522E+02  0.37792164423E+02  0.38601611321E+02  0.68876065076E+02  0.00000000000E+00 0. -1.
         21    1    1    2  506  503  0.38399218866E+02 -0.14692756177E+03 -0.17572752938E+03  0.23225497411E+03  0.00000000000E+00 0. -1.
<scales pt_clust_3="110.05688" pt_clust_4="37.82778" pt_clust_5="37.82778" pt_clust_6="109.48294"></scales>
<clustering>
<clus scale="   37.828">  4  5 -1 -1</clus>
<clus scale="  110.057">  2  3  1 -1</clus>
<clus scale="  109.483">  2  6  1 -1</clus>
<clus scale="  115.839">  1  3  2 -1</clus>
</clustering>
</event>
<event>
 6    0  0.6132510E+002  0.1097702E+03  0.7546771E-02  0.1260996E+00
         21   -1    0    0  505  501  0.00000000000E+00  0.00000000000E+00  0.98030278162E+03  0.98030278162E+03  0.00000000000E+00 0. -1.
         21   -1    0    0  506  502 -0.00000000000E+00 -0.00000000000E+00 -0.14270274823E+03  0.14270274823E+03  0.00000000000E+00 0.  1.
         21    1    1    2  503  502 -0.12356319162E+03 -0.65161060147E+02 -0.68932830283E+02  0.15577407093E+03  0.00000000000E+00 0.  1.
         21    1    1    2  504  501  0.10262933976E+03  0.49506773476E+02  0.42753969900E+03  0.44246344055E+03  0.00000000000E+00 0. -1.
         21    1    1    2  505  503 -0.23539192160E+02  0.23554720649E+02  0.47843777768E+03  0.47959527264E+03  0.00000000000E+00 0. -1.
         21    1    1    2  506  504  0.44473044024E+02 -0.79004339779E+01  0.55538699426E+00  0.45172745727E+02  0.00000000000E+00 0.  1.
<scales pt_clust_3="14000.00000" pt_clust_4="109.77019" pt_clust_5="33.30043" pt_clust_6="43.93294"></scales>
<clustering>
<clus scale="   33.300">  1  5  2 -1</clus>
<clus scale="   43.933">  2  6  1 -1</clus>
<clus scale="  109.770">  1  4  2 -1</clus>
<clus scale="   33.300">  1  3  2 -1</clus>
</clustering>
</event>
<event>
 6    0  0.6132510E+002  0.9855532E+02  0.7546771E-02  0.1283364E+00
         21   -1    0    0  505  501  0.00000000000E+00  0.00000000000E+00  0.34255269142E+03  0.34255269142E+03  0.00000000000E+00 0. -1.
         21   -1    0    0  504  502 -0.00000000000E+00 -0.00000000000E+00 -0.41141182100E+03  0.41141182100E+03  0.00000000000E+00 0.  1.
         21    1    1    2  503  506 -0.95062546509E+02  0.60202882168E+02 -0.17737610095E+02  0.11391179738E+03  0.00000000000E+00 0. -1.
         21    1    1    2  504  501  0.74075866019E+02  0.53483936793E+02  0.17856206679E+03  0.20057960294E+03  0.00000000000E+00 0. -1.
         21    1    1    2  505  503 -0.28796002883E+02 -0.29214376882E+02  0.93308031084E+02  0.10192682799E+03  0.00000000000E+00 0. -1.
         21    1    1    2  506  502  0.49782683373E+02 -0.84472442079E+02 -0.32299161736E+03  0.33754628411E+03  0.00000000000E+00 0.  1.
<scales pt_clust_3="98.55532" pt_clust_4="60.29287" pt_clust_5="41.02060" pt_clust_6="14000.00000"></scales>
<clustering>
<clus scale="   41.021">  1  5  2 -1</clus>
<clus scale="   60.293">  1  4  2 -1</clus>
<clus scale="   98.555">  1  3  2 -1</clus>
<clus scale="   41.021">  1  3  2 -1</clus>
</clustering>
</event>
<event>
 6    0  0.6132510E+002  0.1076210E+03  0.7546771E-02  0.1265040E+00
         21   -1    0    0  506  501  0.00000000000E+00  0.00000000000E+00  0.65406348142E+02  0.65406348142E+02  0.00000000000E+00 0. -1.
         21   -1    0    0  505  502 -0.00000000000E+00 -0.00000000000E+00 -0.23963076029E+04  0.23963076029E+04  0.00000000000E+00 0. -1.
         21    1    1    2  503  502  0.71950965448E+02 -0.54773854076E+02 -0.45993386711E+03  0.46873903042E+03  0.00000000000E+00 0. -1.
         21    1    1    2  504  503  0.45163589090E+02 -0.50443610637E+02 -0.72209825171E+02  0.98987708757E+02  0.00000000000E+00 0. -1.
         21    1    1    2  505  501 -0.82379931684E+02  0.80001253982E+02 -0.18345249243E+04  0.18381154348E+04  0.00000000000E+00 0. -1.
         21    1    1    2  506  504 -0.34734622854E+02  0.25216210731E+02  0.35767361782E+02  0.55871777109E+02  0.00000000000E+00 0. -1.
<scales pt_clust_3="14000.00000" pt_clust_4="39.51573" pt_clust_5="107.62097" pt_clust_6="42.92262"></scales>
<clustering>
<clus scale="   42.923">  1  6  2 -1</clus>
<clus scale="   39.516">  1  4  2 -1</clus>
<clus scale="  107.621">  2  5  1 -1</clus>
<clus scale="   42.923">  1  3  2 -1</clus>
</clustering>
</event>
<event>
 6    0  0.6132510E+002  0.1203926E+03  0.7546771E-02  0.1242451E+00
         21   -1    0    0  502  501  0.00000000000E+00  0.00000000000E+00  0.22640349553E+03  0.22640349553E+03  0.00000000000E+00 0. -1.
         21   -1    0    0  505  502 -0.00000000000E+00 -0.00000000000E+00 -0.39574564800E+03  0.39574564800E+03  0.00000000000E+00 0. -1.
         21    1    1    2  503  504 -0.42468870791E+02  0.71452238522E+02  0.17679941057E+01  0.83139359989E+02  0.00000000000E+00 0. -1.
         21    1    1    2  504  501  0.81228637691E+02 -0.58134527245E+02  0.13139118007E+03  0.16504955935E+03  0.00000000000E+00 0. -1.
         21    1    1    2  505  506  0.20940311081E+02 -0.27521938194E+02 -0.31019180539E+03  0.31211361688E+03  0.00000000000E+00 0. -1.
         21    1    1    2  506  503 -0.59700077981E+02  0.14204226916E+02  0.76904787416E+01  0.61846607316E+02  0.00000000000E+00 0. -1.
<scales pt_clust_3="50.23402" pt_clust_4="106.48213" pt_clust_5="34.58256" pt_clust_6="50.23402"></scales>
<clustering>
<clus scale="   34.583">  2  5  1 -1</clus>
<clus scale="   50.234">  3  6 -1 -1</clus>
<clus scale="  106.482">  1  4  2 -1</clus>
<clus scale="  106.482">  1  3  2 -1</clus>
</clustering>
</event>
<event>
 6    0  0.6132510E+002  0.9666789E+02  0.7546771E-02  0.1287463E+00
         21   -1    0    0  503  501  0.00000000000E+00  0.00000000000E+00  0.31954535462E+03  0.31954535462E+03  0.00000000000E+00 0. -1.
         21   -1    0    0  506  502 -0.00000000000E+00 -0.00000000000E+00 -0.30886012856E+03  0.30886012856E+03  0.00000000000E+00 0.  1.
         21    1    1    2  503  504  0.70448570907E+02  0.30187394419E+02  0.22998057946E+03  0.24241564895E+03  0.00000000000E+00 0. -1.
         21    1    1    2  504  505 -0.96122434315E+02  0.35031686221E+02 -0.13899918752E+02  0.10324702979E+03  0.00000000000E+00 0. -1.
         21    1    1    2  505  502 -0.57387259383E+01 -0.69851851919E+02 -0.23134937463E+03  0.24173280152E+03  0.00000000000E+00 0.  1.
         21    1    1    2  506  501  0.31412589346E+02  0.46327712792E+01  0.25953939972E+02  0.41010002917E+02  0.00000000000E+00 0. -1.
<scales pt_clust_3="14000.00000" pt_clust_4="96.66789" pt_clust_5="69.95896" pt_clust_6="31.75238"></scales>
<clustering>
<clus scale="   31.752">  1  6  2 -1</clus>
<clus scale="   69.959">  2  5  1 -1</clus>
<clus scale="   96.668">  2  4  1 -1</clus>
<clus scale="   31.752">  1  3  2 -1</clus>
</clustering>
</event>
<event>
 6    0  0.6132510E+002  0.9353299E+02  0.7546771E-02  0.1294515E+00
         21   -1    0    0  505  501  0.00000000000E+00  0.00000000000E+00  0.12379339190E+04  0.12379339190E+04  0.00000000000E+00 0. -1.
         21   -1    0    0  503  502 -0.00000000000E+00 -0.00000000000E+00 -0.33742535911E+03  0.33742535911E+03  0.00000000000E+00 0. -1.
         21    1    1    2  503  506 -0.46890393882E+02  0.50431005925E+02 -0.12947901641E+03  0.14665200676E+03  0.00000000000E+00 0.  1.
         21    1    1    2  504  502 -0.96286913720E+01 -0.10454524047E+03 -0.15531979964E+03  0.18747442269E+03  0.00000000000E+00 0. -1.
         21    1    1    2  505  504  0.71456208831E+02 -0.60972228617E+02  0.10813675558E+04  0.10854397234E+04  0.00000000000E+00 0. -1.
         21    1    1    2  506  501 -0.14937123578E+02  0.11508646316E+03  0.10393982013E+03  0.15579312524E+03  0.00000000000E+00 0. -1.
<scales pt_clust_3="68.86215" pt_clust_4="78.98205" pt_clust_5="14000.00000" pt_clust_6="93.53299"></scales>
<clustering>
<clus scale="   68.862">  2  3  1 -1</clus>
<clus scale="   78.982">  2  4  1 -1</clus>
<clus scale="   93.533">  2  6  1 -1</clus>
<clus scale="   93.533">  1  3  2 -1</clus>
</clustering>
</event>
<event>
 6    0  0.6132510E+002  0.1332821E+03  0.7546771E-02  0.1222665E+00
         21   -1    0    0  503  501  0.00000000000E+00  0.00000000000E+00  0.10153263670E+04  0.10153263670E+04  0.00000000000E+00 0.  1.
         21   -1    0    0  505  502 -0.00000000000E+00 -0.00000000000E+00 -0.17192293922E+03  0.17192293922E+03  0.00000000000E+00 0.  1.
         21    1    1    2  503  504 -0.34976113337E+01 -0.32802061101E+02  0.43661549311E+02  0.54722384686E+02  0.00000000000E+00 0. -1.
         21    1    1    2  504  506  0.73165099473E+02  0.96301068713E+01  0.77243823440E+02  0.10682920480E+03  0.00000000000E+00 0.  1.
         21    1    1    2  505  501 -0.52700519558E+02  0.15484738173E+03  0.83549578542E+03  0.85135671951E+03  0.00000000000E+00 0.  1.
         21    1    1    2  506  502 -0.16966968582E+02 -0.13167542750E+03 -0.11299773041E+03  0.17434099721E+03  0.00000000000E+00 0.  1.
<scales pt_clust_3="32.98801" pt_clust_4="73.12185" pt_clust_5="14000.00000" pt_clust_6="133.28206"></scales>
<clustering>
<clus scale="   32.988">  1  3  2 -1</clus>
<clus scale="   73.122">  1  4  2 -1</clus>
<clus scale="  133.282">  2  6  1 -1</clus>
<clus scale="   32.988">  1  3  2 -1</clus>
</clustering>
</event>
<event>
 6    0  0.6132510E+002  0.1141895E+03  0.7546771E-02  0.1253003E+00
         21   -1    0    0  504  501  0.00000000000E+00  0.00000000000E+00  0.48473844484E+03  0.48473844484E+03  0.00000000000E+00 0.  1.
         21   -1    0    0  503  502 -0.00000000000E+00 -0.00000000000E+00 -0.13606067890E+03  0.13606067890E+03  0.00000000000E+00 0. -1.
         21    1    1    2  503  505  0.79006833855E+02 -0.40746638178E+02 -0.55471979715E+02  0.10478315157E+03  0.00000000000E+00 0. -1.
         21    1    1    2  504  506 -0.11844802816E+03  0.66571628945E+02  0.32961708009E+03  0.35652368314E+03  0.00000000000E+00 0.  1.
         21    1    1    2  505  501  0.85093607270E+02 -0.11733115984E+02  0.71248503310E+02  0.11160169010E+03  0.00000000000E+00 0. -1.
         21    1    1    2  506  502 -0.45652412966E+02 -0.14091874783E+02  0.32841622572E+01  0.47890598934E+02  0.00000000000E+00 0. -1.
<scales pt_clust_3="69.01219" pt_clust_4="114.18950" pt_clust_5="14000.00000" pt_clust_6="47.77786"></scales>
<clustering>
<clus scale="   47.778">  2  6  1 -1</clus>
<clus scale="   69.012">  2  3  1 -1</clus>
<clus scale="  114.190">  1  4  2 -1</clus>
<clus scale="  114.190">  1  3  2 -1</clus>
</clustering>
</event>
<event>
 6    0  0.6132510E+002  0.1509386E+03  0.7546771E-02  0.1199324E+00
         21   -1    0    0  503  501  0.00000000000E+00  0.00000000000E+00  0.16470120769E+04  0.16470120769E+04  0.00000000000E+00 0. -1.
         21   -1    0    0  501  502 -0.00000000000E+00 -0.00000000000E+00 -0.21916004856E+03  0.21916004856E+03  0.00000000000E+00 0. -1.
         21    1    1    2  503  505 -0.38572222736E+02  0.84408550519E+02  0.68487023043E+03  0.69112940344E+03  0.00000000000E+00 0. -1.
         21    1    1    2  504  506  0.83353165707E+02 -0.10124683379E+03  0.19432020512E+03  0.23443338863E+03  0.00000000000E+00 0. -1.
         21    1    1    2  505  504 -0.12177876515E+02  0.54751990890E+02  0.74036756270E+03  0.74248919795E+03  0.00000000000E+00 0. -1.
         21    1    1    2  506  502 -0.32603066455E+02 -0.37913707623E+02 -0.19170596991E+03  0.19812013544E+03  0.00000000000E+00 0. -1.
<scales pt_clust_3="34.92620" pt_clust_4="144.09777" pt_clust_5="34.92620" pt_clust_6="50.00409"></scales>
<clustering>
<clus scale="   34.926">  3  5 -1 -1</clus>
<clus scale="   50.004">  2  6  1 -1</clus>
<clus scale="  144.098">  2  4  1 -1</clus>
<clus scale="  150.939">  1  3  2 -1</clus>
</clustering>
</event>
<event>
 6    0  0.6132510E+002  0.1011714E+03  0.7546771E-02  0.1277852E+00
         21   -1    0    0  503  501  0.00000000000E+00  0.00000000000E+00  0.24725928498E+02  0.24725928498E+02  0.00000000000E+00 0.  1.
         21   -1    0    0  504  502 -0.00000000000E+00 -0.00000000000E+00 -0.27139923805E+04  0.27139923805E+04  0.00000000000E+00 0. -1.
         21    1    1    2  503  505 -0.38951325182E+02 -0.14017551693E+02 -0.81633313842E+02  0.91529751544E+02  0.00000000000E+00 0.  1.
         21    1    1    2  504  506  0.22838476896E+02  0.34689326711E+02 -0.79350869556E+03  0.79459486240E+03  0.00000000000E+00 0. -1.
         21    1    1    2  505  502  0.19378990951E+02 -0.12378072403E+03 -0.16735240316E+04  0.16782073463E+04  0.00000000000E+00 0. -1.
         21    1    1    2  506  501 -0.32661426652E+01  0.10310894901E+03 -0.14060041105E+03  0.17438634878E+03  0.00000000000E+00 0.  1.
<scales pt_clust_3="41.39683" pt_clust_4="40.62853" pt_clust_5="101.17141" pt_clust_6="14000.00000"></scales>
<clustering>
<clus scale="   41.397">  1  3  2 -1</clus>
<clus scale="   40.629">  2  4  1 -1</clus>
<clus scale="  101.171">  2  5  1 -1</clus>
<clus scale="   41.397">  1  3  2 -1</clus>
</clustering>
</event>
<event>
 6    0  0.6132510E+002  0.1774033E+03  0.7546771E-02  0.1170340E+00
         21   -1    0    0  506  501  0.00000000000E+00  0.00000000000E+00  0.16399033300E+03  0.16399033300E+03  0.00000000000E+00 0. -1.
         21   -1    0    0  505  502 -0.00000000000E+00 -0.00000000000E+00 -0.14216195745E+04  0.14216195745E+04  0.00000000000E+00 0.  1.
         21    1    1    2  503  504 -0.40631790325E+02 -0.68848259257E+02  0.28227980250E+02  0.84781153901E+02  0.00000000000E+00 0. -1.
         21    1    1    2  504  501 -0.14720676361E+02 -0.91953385210E+02  0.43315440734E+02  0.10270516428E+03  0.00000000000E+00 0. -1.
         21    1    1    2  505  503  0.65506542697E+01  0.20403330053E+03 -0.27784216689E+03  0.34477350318E+03  0.00000000000E+00 0.  1.
         21    1    1    2  506  502  0.48801812416E+02 -0.43231656059E+02 -0.10513304956E+04  0.10533500862E+04  0.00000000000E+00 0.  1.
<scales pt_clust_3="30.89117" pt_clust_4="30.89117" pt_clust_5="174.24215" pt_clust_6="65.19657"></scales>
<clustering>
<clus scale="   30.891">  3  4 -1 -1</clus>
<clus scale="   65.197">  2  6  1 -1</clus>
<clus scale="  174.242">  2  5  1 -1</clus>
<clus scale="  177.403">  1  3  2 -1</clus>
</clustering>
</event>
<event>
 6    0  0.6132510E+002  0.1800237E+03  0.7546771E-02  0.1167780E+00
         21   -1    0    0  503  501  0.00000000000E+00  0.00000000000E+00  0.52655460112E+03  0.52655460112E+03  0.00000000000E+00 0.  1.
         21   -1    0    0  506  502 -0.00000000000E+00 -0.00000000000E+00 -0.41680326430E+03  0.41680326430E+03  0.00000000000E+00 0. -1.
         21    1    1    2  503  505 -0.54977106079E+02 -0.10096240883E+03  0.42215710772E+02  0.12246655228E+03  0.00000000000E+00 0. -1.
         21    1    1    2  504  501 -0.71132286204E+02  0.23258893427E+03  0.37214334826E+03  0.44457629957E+03  0.00000000000E+00 0.  1.
         21    1    1    2  505  502  0.13770384740E+03 -0.90114036083E+02 -0.17728274229E+03  0.24189266174E+03  0.00000000000E+00 0. -1.
         21    1    1    2  506  504 -0.11594455117E+02 -0.41512489351E+02 -0.12732497992E+03  0.13442235184E+03  0.00000000000E+00 0. -1.
<scales pt_clust_3="120.86236" pt_clust_4="14000.00000" pt_clust_5="180.02375" pt_clust_6="43.10125"></scales>
<clustering>
<clus scale="   43.101">  2  6  1 -1</clus>
<clus scale="  120.862">  1  3  2 -1</clus>
<clus scale="  180.024">  2  5  1 -1</clus>
<clus scale="  120.862">  1  3  2 -1</clus>
</clustering>
</event>
<event>
 6    0  0.6132510E+002  0.1957398E+03  0.7546771E-02  0.1153384E+00
         21   -1    0    0  504  501  0.00000000000E+00  0.00000000000E+00  0.13275845664E+03  0.13275845664E+03  0.00000000000E+00 0.  1.
         21   -1    0    0  506  502 -0.00000000000E+00 -0.00000000000E+00 -0.80259066455E+03  0.80259066455E+03  0.00000000000E+00 0.  1.
         21    1    1    2  503  502  0.65161829627E+02 -0.62084594308E+02 -0.18694457503E+02  0.91924118881E+02  0.00000000000E+00 0. -1.
         21    1    1    2  504  503  0.62311459435E+02 -0.74397895810E+02  0.49789340196E+02  0.10907219295E+03  0.00000000000E+00 0.  1.
         21    1    1    2  505  501 -0.13849174911E+03  0.98125266888E+02 -0.46360155849E+03  0.49369518694E+03  0.00000000000E+00 0.  1.
         21    1    1    2  506  505  0.11018460049E+02  0.38357223230E+02 -0.23732553211E+03  0.24065762242E+03  0.00000000000E+00 0.  1.
<scales pt_clust_3="64.75538" pt_clust_4="64.75538" pt_clust_5="183.73446" pt_clust_6="39.90843"></scales>
<clustering>
<clus scale="   39.908">  2  6  1 -1</clus>
<clus scale="   64.755">  3  4 -1 -1</clus>
<clus scale="  183.734">  2  5  1 -1</clus>
<clus scale="  195.740">  1  3  2 -1</clus>
</clustering>
</event>
<event>
 6    0  0.6132510E+002  0.6802754E+02  0.7546771E-02  0.1366932E+00
         21   -1    0    0  504  501  0.00000000000E+00  0.00000000000E+00  0.13009704681E+03  0.13009704681E+03  0.00000000000E+00 0.  1.
         21   -1    0    0  503  502 -0.00000000000E+00 -0.00000000000E+00 -0.26008549268E+03  0.26008549268E+03  0.00000000000E+00 0. -1.
         21    1    1    2  503  501  0.90609579334E+02 -0.43262655526E+02 -0.16795033413E+03  0.19567592587E+03  0.00000000000E+00 0. -1.
         21    1    1    2  504  505 -0.75688335746E+01  0.47742645200E+02  0.71364258039E+02  0.86194574875E+02  0.00000000000E+00 0.  1.
         21    1    1    2  505  506 -0.57926279816E+02 -0.30211411252E+02 -0.11867943952E+02  0.66400537323E+02  0.00000000000E+00 0.  1.
         21    1    1    2  506  502 -0.25114465944E+02  0.25731421578E+02 -0.21534425823E+02  0.41911501424E+02  0.00000000000E+00 0.  1.
<scales pt_clust_3="14000.00000" pt_clust_4="49.29640" pt_clust_5="68.02754" pt_clust_6="35.95612"></scales>
<clustering>
<clus scale="   35.956">  2  6  1 -1</clus>
<clus scale="   49.296">  1  4  2 -1</clus>
<clus scale="   68.028">  1  5  2 -1</clus>
<clus scale="   49.296">  1  3  2 -1</clus>
</clustering>
</event>
<event>
 6    0  0.6132510E+002  0.8825095E+02  0.7546771E-02  0.1307143E+00
         21   -1    0    0  506  501  0.00000000000E+00  0.00000000000E+00  0.23758388519E+03  0.23758388519E+03  0.00000000000E+00 0.  1.
         21   -1    0    0  504  502 -0.00000000000E+00 -0.00000000000E+00 -0.39669422550E+03  0.39669422550E+03  0.00000000000E+00 0. -1.
         21    1    1    2  503  502  0.11219015405E+02  0.50996563169E+02 -0.15460048914E+03  0.16318035116E+03  0.00000000000E+00 0.  1.
         21    1    1    2  504  505  0.81873214898E+02 -0.46201515803E+02 -0.19850301808E+03  0.21963891177E+03  0.00000000000E+00 0. -1.
         21    1    1    2  505  501 -0.48462597316E+02 -0.39944686763E+02  0.18315718230E+03  0.19362529475E+03  0.00000000000E+00 0.  1.
         21    1    1    2  506  503 -0.44629632988E+02  0.35149639397E+02  0.10835984598E+02  0.57833553000E+02  0.00000000000E+00 0.  1.
<scales pt_clust_3="52.21605" pt_clust_4="14000.00000" pt_clust_5="88.25095" pt_clust_6="59.23873"></scales>
<clustering>
<clus scale="   52.216">  2  3  1 -1</clus>
<clus scale="   59.239">  1  6  2 -1</clus>
<clus scale="   88.251">  1  5  2 -1</clus>
<clus scale="   59.239">  1  3  2 -1</clus>
</clustering>
</event>
<event>
 6    0  0.6132510E+002  0.1295521E+03  0.7546771E-02  0.1228122E+00
         21   -1    0    0  504  501  0.00000000000E+00  0.00000000000E+00  0.74989365371E+03  0.74989365371E+03  0.00000000000E+00 0.  1.
         21   -1    0    0  506  502 -0.00000000000E+00 -0.00000000000E+00 -0.26891105275E+03  0.26891105275E+03  0.00000000000E+00 0.  1.
         21    1    1    2  503  501  0.42482798207E+02  0.11692701757E+03  0.43351352139E+03  0.45101074134E+03  0.00000000000E+00 0.  1.
         21    1    1    2  504  505  0.43530594900E+02  0.94392620610E+02 -0.12029546031E+03  0.15898389003E+03  0.00000000000E+00 0.  1.
         21    1    1    2  505  502  0.98341786393E+01 -0.98559305671E+02 -0.75173239092E+02  0.12434493829E+03  0.00000000000E+00 0.  1.
         21    1    1    2  506  503 -0.95847571745E+02 -0.11276033251E+03  0.24293777898E+03  0.28446513680E+03  0.00000000000E+00 0.  1.
<scales pt_clust_3="14000.00000" pt_clust_4="53.26703" pt_clust_5="99.04871" pt_clust_6="129.55213"></scales>
<clustering>
<clus scale="   99.049">  2  5  1 -1</clus>
<clus scale="   53.267">  2  4  1 -1</clus>
<clus scale="  129.552">  2  6  1 -1</clus>
<clus scale="  129.552">  1  3  2 -1</clus>
</clustering>
</event>
<event>
 6    0  0.6132510E+002  0.1404226E+03  0.7546771E-02  0.1212761E+00
         21   -1    0    0  502  501  0.00000000000E+00  0.00000000000E+00  0.26026356047E+03  0.26026356047E+03  0.00000000000E+00 0. -1.
         21   -1    0    0  505  502 -0.00000000000E+00 -0.00000000000E+00 -0.25427061642E+03  0.25427061642E+03  0.00000000000E+00 0. -1.
         21    1    1    2  503  504  0.10507784506E+03 -0.98877831590E+00  0.15981789394E+03  0.19126967985E+03  0.00000000000E+00 0. -1.
         21    1    1    2  504  501  0.17709428546E+02  0.29899056379E+02  0.48449160546E+02  0.59622970317E+02  0.00000000000E+00 0. -1.
         21    1    1    2  505  506 -0.11352979396E+01  0.30317659513E+02 -0.18869011379E+02  0.35727985812E+02  0.00000000000E+00 0.  1.
         21    1    1    2  506  503 -0.12165197567E+03 -0.59227937576E+02 -0.18340509905E+03  0.22791354092E+03  0.00000000000E+00 0. -1.
<scales pt_clust_3="35.11423" pt_clust_4="35.11423" pt_clust_5="30.33891" pt_clust_6="126.72435"></scales>
<clustering>
<clus scale="   30.339">  2  5  1 -1</clus>
<clus scale="   35.114">  3  4 -1 -1</clus>
<clus scale="  126.724">  2  6  1 -1</clus>
<clus scale="  140.423">  1  3  2 -1</clus>
</clustering>
</event>
<event>
 6    0  0.6132510E+002  0.1370423E+03  0.7546771E-02  0.1217365E+00
         21   -1    0    0  505  501  0.00000000000E+00  0.00000000000E+00  0.94775616243E+03  0.94775616243E+03  0.00000000000E+00 0. -1.
         21   -1    0    0  506  502 -0.00000000000E+00 -0.00000000000E+00 -0.92831537437E+03  0.92831537437E+03  0.00000000000E+00 0. -1.
         21    1    1    2  503  501 -0.83743372945E+02  0.66762320386E+01  0.25206012111E+03  0.26569122914E+03  0.00000000000E+00 0. -1.
         21    1    1    2  504  502  0.21879619207E+02 -0.26858952114E+02 -0.60333822071E+03  0.60433196971E+03  0.00000000000E+00 0. -1.
         21    1    1    2  505  504 -0.54749137430E+02 -0.34271240157E+02  0.67373979365E+03  0.67682885244E+03  0.00000000000E+00 0. -1.
         21    1    1    2  506  503  0.11661289117E+03  0.54453960232E+02 -0.30302090598E+03  0.32921948550E+03  0.00000000000E+00 0. -1.
<scales pt_clust_3="14000.00000" pt_clust_4="34.64276" pt_clust_5="64.57068" pt_clust_6="137.04226"></scales>
<clustering>
<clus scale="   34.643">  2  4  1 -1</clus>
<clus scale="   64.571">  1  5  2 -1</clus>
<clus scale="  137.042">  2  6  1 -1</clus>
<clus scale="   64.571">  1  3  2 -1</clus>
</clustering>
</event>
<event>
 6    0  0.6132510E+002  0.1995975E+03  0.7546771E-02  0.1150079E+00
         21   -1    0    0  506  501  0.00000000000E+00  0.00000000000E+00  0.18655929176E+03  0.18655929176E+03  0.00000000000E+00 0. -1.
         21   -1    0    0  505  502 -0.00000000000E+00 -0.00000000000E+00 -0.33532378149E+03  0.33532378149E+03  0.00000000000E+00 0. -1.
         21    1    1    2  503  502 -0.11262271083E+03  0.42811699426E+02  0.14909741141E+02  0.12140435323E+03  0.00000000000E+00 0. -1.
         21    1    1    2  504  501  0.20003962632E+02 -0.32176023618E+02 -0.43816354990E+02  0.57925192977E+02  0.00000000000E+00 0. -1.
         21    1    1    2  505  504  0.15479502039E+03 -0.28885797316E+02 -0.19019255503E+03  0.24691920867E+03  0.00000000000E+00 0. -1.
         21    1    1    2  506  503 -0.62176272194E+02  0.18250121507E+02  0.70334679141E+02  0.95634318364E+02  0.00000000000E+00 0. -1.
<scales pt_clust_3="54.66346" pt_clust_4="30.58042" pt_clust_5="195.37129" pt_clust_6="54.66346"></scales>
<clustering>
<clus scale="   30.580">  4  5 -1 -1</clus>
<clus scale="   54.663">  3  6 -1 -1</clus>
<clus scale="  195.371">  2  4  1 -1</clus>
<clus scale="  199.598">  1  3  2 -1</clus>
</clustering>
</event>
<event>
 6    0  0.6132510E+002  0.1137169E+03  0.7546771E-02  0.1253838E+00
         21   -1    0    0  506  501  0.00000000000E+00  0.00000000000E+00  0.57787702717E+03  0.57787702717E+03  0.00000000000E+00 0.  1.
         21   -1    0    0  505  502 -0.00000000000E+00 -0.00000000000E+00 -0.10869474791E+04  0.10869474791E+04  0.00000000000E+00 0. -1.
         21    1    1    2  503  501 -0.55279133028E+02 -0.21202438599E+02  0.12104295501E+03  0.13474688459E+03  0.00000000000E+00 0. -1.
         21    1    1    2  504  502  0.69325894498E+02  0.98882566631E+02 -0.56940901359E+02  0.13351444820E+03  0.00000000000E+00 0. -1.
         21    1    1    2  505  503  0.39711920975E+02 -0.46809600278E+02 -0.98156996253E+03  0.98348755289E+03  0.00000000000E+00 0. -1.
         21    1    1    2  506  504 -0.53758682446E+02 -0.30870527755E+02  0.40839745698E+03  0.41307562055E+03  0.00000000000E+00 0.  1.
<scales pt_clust_3="59.20579" pt_clust_4="113.71692" pt_clust_5="61.34383" pt_clust_6="14000.00000"></scales>
<clustering>
<clus scale="   59.206">  1  3  2 -1</clus>
<clus scale="   61.344">  2  5  1 -1</clus>
<clus scale="  113.717">  2  4  1 -1</clus>
<clus scale="   59.206">  1  3  2 -1</clus>
</clustering>
</event>
<event>
 6    0  0.6132510E+002  0.1155124E+03  0.7546771E-02  0.1250689E+00
         21   -1    0    0  503  501  0.00000000000E+00  0.00000000000E+00  0.25414405857E+03  0.25414405857E+03  0.00000000000E+00 0. -1.
         21   -1    0    0  504  502 -0.00000000000E+00 -0.00000000000E+00 -0.25327717748E+03  0.25327717748E+03  0.00000000000E+00 0. -1.
         21    1    1    2  503  505 -0.32207803014E+02 -0.25295907931E+02  0.12459366026E+03  0.13115184219E+03  0.00000000000E+00 0. -1.
         21    1    1    2  504  506  0.11559632252E+03  0.13690099151E+02 -0.15254811076E+03  0.19188760953E+03  0.00000000000E+00 0. -1.
         21    1    1    2  505  502 -0.11524040984E+03  0.26223672897E+02 -0.24379757485E+02  0.12067479296E+03  0.00000000000E+00 0. -1.
         21    1    1    2  506  501  0.31851890339E+02 -0.14617864117E+02  0.53201089080E+02  0.63706991365E+02  0.00000000000E+00 0.  1.
<scales pt_clust_3="36.66341" pt_clust_4="14000.00000" pt_clust_5="115.51243" pt_clust_6="35.04604"></scales>
<clustering>
<clus scale="   35.046">  1  6  2 -1</clus>
<clus scale="   36.663">  1  3  2 -1</clus>
<clus scale="  115.512">  1  5  2 -1</clus>
<clus scale="   35.046">  1  3  2 -1</clus>
</clustering>
</event>
<event>
 6    0  0.6132510E+002  0.1183859E+03  0.7546771E-02  0.1245784E+00
         21   -1    0    0  503  501  0.00000000000E+00  0.00000000000E+00  0.21843171084E+03  0.21843171084E+03  0.00000000000E+00 0. -1.
         21   -1    0    0  505  502 -0.00000000000E+00 -0.00000000000E+00 -0.55261191099E+03  0.55261191099E+03  0.00000000000E+00 0.  1.
         21    1    1    2  503  506  0.57372451183E+02 -0.37570943583E+02  0.85646380128E+02  0.10971999082E+03  0.00000000000E+00 0. -1.
         21    1    1    2  504  501 -0.15069942339E+02  0.92517809504E+02 -0.99834670268E+02  0.13694381923E+03  0.00000000000E+00 0.  1.
         21    1    1    2  505  504 -0.62423655565E+02 -0.54633173185E+01 -0.41267474989E+03  0.41740509078E+03  0.00000000000E+00 0.  1.
         21    1    1    2  506  502  0.20121146721E+02 -0.49483548603E+02  0.92682839877E+02  0.10697472101E+03  0.00000000000E+00 0. -1.
<scales pt_clust_3="34.98722" pt_clust_4="111.55124" pt_clust_5="62.66227" pt_clust_6="34.98722"></scales>
<clustering>
<clus scale="   34.987">  3  6 -1 -1</clus>
<clus scale="   62.662">  2  5  1 -1</clus>
<clus scale="  111.551">  2  4  1 -1</clus>
<clus scale="  118.386">  1  3  2 -1</clus>
</clustering>
</event>
<event>
 6    0  0.6132510E+002  0.8850433E+02  0.7546771E-02  0.1306515E+00
         21   -1    0    0  503  501  0.00000000000E+00  0.00000000000E+00  0.22359431590E+03  0.22359431590E+03  0.00000000000E+00 0. -1.
         21   -1    0    0  506  502 -0.00000000000E+00 -0.00000000000E+00 -0.19465313760E+03  0.19465313760E+03  0.00000000000E+00 0.  1.
         21    1    1    2  503  504  0.52627735332E+02  0.91933938460E+02  0.12667355446E+03  0.16512939462E+03  0.00000000000E+00 0. -1.
         21    1    1    2  504  502  0.42108586983E+02 -0.43307256154E+02 -0.39370944647E+02  0.72102169286E+02  0.00000000000E+00 0. -1.
         21    1    1    2  505  501 -0.51839772136E+02 -0.47945776837E+02  0.34598653330E+02  0.78633493524E+02  0.00000000000E+00 0. -1.
         21    1    1    2  506  505 -0.42896550180E+02 -0.68090546864E+00 -0.92960084848E+02  0.10238239607E+03  0.00000000000E+00 0.  1.
<scales pt_clust_3="14000.00000" pt_clust_4="47.05592" pt_clust_5="88.50433" pt_clust_6="42.90195"></scales>
<clustering>
<clus scale="   42.902">  2  6  1 -1</clus>
<clus scale="   47.056">  2  4  1 -1</clus>
<clus scale="   88.504">  2  5  1 -1</clus>
<clus scale="   88.504">  1  3  2 -1</clus>
</clustering>
</event>
<event>
 6    0  0.6132510E+002  0.2102441E+03  0.7546771E-02  0.1141373E+00
         21   -1    0    0  502  501  0.00000000000E+00  0.00000000000E+00  0.26959308856E+03  0.26959308856E+03  0.00000000000E+00 0. -1.
         21   -1    0    0  506  502 -0.00000000000E+00 -0.00000000000E+00 -0.10414438206E+04  0.10414438206E+04  0.00000000000E+00 0. -1.
         21    1    1    2  503  501  0.80563103260E+02 -0.15268720504E+02  0.14546881558E+03  0.16698719633E+03  0.00000000000E+00 0. -1.
         21    1    1    2  504  503  0.14581296133E+03 -0.63431154696E+01  0.42957350818E+02  0.15214134479E+03  0.00000000000E+00 0. -1.
         21    1    1    2  505  504 -0.19710803521E+03  0.88907518638E+01 -0.63199080705E+03  0.66207477161E+03  0.00000000000E+00 0. -1.
         21    1    1    2  506  505 -0.29268029378E+02  0.12721084110E+02 -0.32828609136E+03  0.32983359638E+03  0.00000000000E+00 0. -1.
<scales pt_clust_3="81.52723" pt_clust_4="14000.00000" pt_clust_5="210.24409" pt_clust_6="31.91306"></scales>
<clustering>
<clus scale="   31.913">  2  6  1 -1</clus>
<clus scale="   81.527">  1  3  2 -1</clus>
<clus scale="  210.244">  2  5  1 -1</clus>
<clus scale="   81.527">  1  3  2 -1</clus>
</clustering>
</event>
<event>
 6    0  0.6132510E+002  0.9028294E+02  0.7546771E-02  0.1302168E+00
         21   -1    0    0  504  501  0.00000000000E+00  0.00000000000E+00  0.40967509771E+03  0.40967509771E+03  0.00000000000E+00 0.  1.
         21   -1    0    0  505  502 -0.00000000000E+00 -0.00000000000E+00 -0.34015876144E+03  0.34015876144E+03  0.00000000000E+00 0.  1.
         21    1    1    2  503  501  0.60583476172E+02  0.45010152671E+02 -0.57170440223E+02  0.94682261611E+02  0.00000000000E+00 0.  1.
         21    1    1    2  504  506 -0.38455198059E+02 -0.14470520665E+02  0.21609385958E+03  0.21996534812E+03  0.00000000000E+00 0. -1.
         21    1    1    2  505  503 -0.99440945818E+02 -0.18885974914E+02 -0.24277969717E+03  0.26303452836E+03  0.00000000000E+00 0.  1.
         21    1    1    2  506  502  0.77312667705E+02 -0.11653657092E+02  0.15337261408E+03  0.17215172105E+03  0.00000000000E+00 0.  1.
<scales pt_clust_3="14000.00000" pt_clust_4="41.08769" pt_clust_5="90.28294" pt_clust_6="50.66739"></scales>
<clustering>
<clus scale="   41.088">  1  4  2 -1</clus>
<clus scale="   50.667">  1  6  2 -1</clus>
<clus scale="   90.283">  2  5  1 -1</clus>
<clus scale="   41.088">  1  3  2 -1</clus>
</clustering>
</event>
<event>
 6    0  0.6132510E+002  0.1345420E+03  0.7546771E-02  0.1220868E+00
         21   -1    0    0  503  501  0.00000000000E+00  0.00000000000E+00  0.60731058331E+03  0.60731058331E+03  0.00000000000E+00 0.  1.
         21   -1    0    0  506  502 -0.00000000000E+00 -0.00000000000E+00 -0.95745831014E+02  0.95745831014E+02  0.00000000000E+00 0.  1.
         21    1    1    2  503  502 -0.32657418596E+02  0.10934940784E+02  0.44544395341E+02  0.56305266855E+02  0.00000000000E+00 0.  1.
         21    1    1    2  504  505 -0.38987743694E+02  0.59466847051E+02  0.24416242245E+03  0.25430619064E+03  0.00000000000E+00 0.  1.
         21    1    1    2  505  501 -0.21704297611E+01  0.35538246295E+02  0.25654399804E+03  0.25900289698E+03  0.00000000000E+00 0.  1.
         21    1    1    2  506  504  0.73815592051E+02 -0.10594003413E+03 -0.33686063538E+02  0.13344205985E+03  0.00000000000E+00 0.  1.
<scales pt_clust_3="34.43951" pt_clust_4="32.11121" pt_clust_5="32.11121" pt_clust_6="126.65785"></scales>
<clustering>
<clus scale="   32.111">  4  5 -1 -1</clus>
<clus scale="   34.440">  1  3  2 -1</clus>
<clus scale="  126.658">  2  6  1 -1</clus>
<clus scale="   34.440">  1  3  2 -1</clus>
</clustering>
</event>
<event>
 6    0  0.6132510E+002  0.1107437E+03  0.7546771E-02  0.1259199E+00
         21   -1    0    0  503  501  0.00000000000E+00  0.00000000000E+00  0.25575124671E+03  0.25575124671E+03  0.00000000000E+00 0.  1.
         21   -1    0    0  505  502 -0.00000000000E+00 -0.00000000000E+00 -0.26388071918E+03  0.26388071918E+03  0.00000000000E+00 0. -1.
         21    1    1    2  503  506 -0.12682860972E+03 -0.28703029363E+02  0.16912171830E+03  0.21333428168E+03  0.00000000000E+00 0.  1.
         21    1    1    2  504  502  0.19932768002E+02  0.31890341177E+02 -0.15006975432E+03  0.15471018150E+03  0.00000000000E+00 0. -1.
         21    1    1    2  505  501  0.24614549123E+02 -0.20500308570E+02 -0.54466623165E+02  0.63188224528E+02  0.00000000000E+00 0. -1.
         21    1    1    2  506  504  0.82281292597E+02  0.17312996757E+02  0.27285186708E+02  0.88399278175E+02  0.00000000000E+00 0.  1.
<scales pt_clust_3="14000.00000" pt_clust_4="41.69640" pt_clust_5="32.03340" pt_clust_6="110.74371"></scales>
<clustering>
<clus scale="   32.033">  2  5  1 -1</clus>
<clus scale="   41.696">  2  4  1 -1</clus>
<clus scale="  110.744">  2  6  1 -1</clus>
<clus scale="  110.744">  1  3  2 -1</clus>
</clustering>
</event>
<event>
 6    0  0.6132510E+002  0.1169748E+03  0.7546771E-02  0.1248173E+00
         21   -1    0    0  505  501  0.00000000000E+00  0.00000000000E+00  0.25743980445E+03  0.25743980445E+03  0.00000000000E+00 0. -1.
         21   -1    0    0  503  502 -0.00000000000E+00 -0.00000000000E+00 -0.10646411743E+04  0.10646411743E+04  0.00000000000E+00 0.  1.
         21    1    1    2  503  504  0.58242846310E+02 -0.43376739200E+02 -0.66469579814E+02  0.98447832331E+02  0.00000000000E+00 0. -1.
         21    1    1    2  504  501  0.57304015452E+01 -0.89041529207E+02  0.11575786409E+03  0.14615442013E+03  0.00000000000E+00 0. -1.
         21    1    1    2  505  506 -0.95982179504E+02  0.15260905322E+00  0.83785382740E+02  0.12740719145E+03  0.00000000000E+00 0. -1.
         21    1    1    2  506  502  0.32008931648E+02  0.13226565935E+03 -0.94027503691E+03  0.95007153488E+03  0.00000000000E+00 0.  1.
<scales pt_clust_3="72.62073" pt_clust_4="89.95752" pt_clust_5="116.97480" pt_clust_6="14000.00000"></scales>
<clustering>
<clus scale="   72.621">  2  3  1 -1</clus>
<clus scale="   89.958">  1  4  2 -1</clus>
<clus scale="  116.975">  1  5  2 -1</clus>
<clus scale="   89.958">  1  3  2 -1</clus>
</clustering>
</event>
<event>
 6    0  0.6132510E+002  0.1243983E+03  0.7546771E-02  0.1236013E+00
         21   -1    0    0  505  501  0.00000000000E+00  0.00000000000E+00  0.80043906055E+02  0.80043906055E+02  0.00000000000E+00 0.  1.
         21   -1    0    0  503  502 -0.00000000000E+00 -0.00000000000E+00 -0.54311365416E+03  0.54311365416E+03  0.00000000000E+00 0.  1.
         21    1    1    2  503  504 -0.36014976640E+02 -0.57216368302E+02 -0.22620028005E+03  0.23608760670E+03  0.00000000000E+00 0.  1.
         21    1    1    2  504  506 -0.85162808263E+02 -0.46290014846E+02 -0.48710946805E+02  0.10848145337E+03  0.00000000000E+00 0.  1.
         21    1    1    2  505  502  0.14843258734E+03  0.83718607258E+02 -0.16818388807E+03  0.23943027877E+03  0.00000000000E+00 0.  1.
         21    1    1    2  506  501 -0.27254802438E+02  0.19787775890E+02 -0.19974633183E+02  0.39158221376E+02  0.00000000000E+00 0.  1.
<scales pt_clust_3="67.49253" pt_clust_4="14000.00000" pt_clust_5="124.39831" pt_clust_6="33.68056"></scales>
<clustering>
<clus scale="   33.681">  1  6  2 -1</clus>
<clus scale="   67.493">  2  3  1 -1</clus>
<clus scale="  124.398">  2  5  1 -1</clus>
<clus scale="   33.681">  1  3  2 -1</clus>
</clustering>
</event>
<event>
 6    0  0.6132510E+002  0.1586587E+03  0.7546771E-02  0.1190219E+00
         21   -1    0    0  504  501  0.00000000000E+00  0.00000000000E+00  0.69275072871E+02  0.69275072871E+02  0.00000000000E+00 0.  1.
         21   -1    0    0  506  502 -0.00000000000E+00 -0.00000000000E+00 -0.15247725730E+04  0.15247725730E+04  0.00000000000E+00 0.  1.
         21    1    1    2  503  505  0.19717731613E+02  0.13092851458E+03 -0.26812171029E+03  0.29903229993E+03  0.00000000000E+00 0.  1.
         21    1    1    2  504  503 -0.83161514762E+01 -0.18940175587E+03 -0.19354039571E+03  0.27092446969E+03  0.00000000000E+00 0.  1.
         21    1    1    2  505  502  0.73816965172E+01  0.29936882152E+02 -0.98912366682E+03  0.98960413026E+03  0.00000000000E+00 0.  1.
         21    1    1    2  506  501 -0.18783276654E+02  0.28536359144E+02 -0.47117272959E+01  0.34486745993E+02  0.00000000000E+00 0.  1.
<scales pt_clust_3="14000.00000" pt_clust_4="158.65867" pt_clust_5="30.83353" pt_clust_6="34.93999"></scales>
<clustering>
<clus scale="   30.834">  2  5  1 -1</clus>
<clus scale="   34.940">  1  6  2 -1</clus>
<clus scale="  158.659">  1  4  2 -1</clus>
<clus scale="   34.940">  1  3  2 -1</clus>
</clustering>
</event>
<event>
 6    0  0.6132510E+002  0.8707868E+02  0.7546771E-02  0.1310084E+00
         21   -1    0    0  502  501  0.00000000000E+00  0.00000000000E+00  0.23015926214E+03  0.23015926214E+03  0.00000000000E+00 0. -1.
         21   -1    0    0  503  502 -0.00000000000E+00 -0.00000000000E+00 -0.16419484155E+04  0.16419484155E+04  0.00000000000E+00 0. -1.
         21    1    1    2  503  506 -0.45988803502E+02  0.94857807272E+01 -0.11726531182E+04  0.11735928961E+04  0.00000000000E+00 0. -1.
         21    1    1    2  504  501  0.45715998589E+01 -0.42887255362E+02 -0.15401431912E+02  0.45797601495E+02  0.00000000000E+00 0.  1.
         21    1    1    2  505  504  0.81785749022E+02  0.70206934055E+02  0.19908096956E+03  0.22638717890E+03  0.00000000000E+00 0. -1.
         21    1    1    2  506  505 -0.40368545378E+02 -0.36805459420E+02 -0.42281557276E+03  0.42633000114E+03  0.00000000000E+00 0.  1.
<scales pt_clust_3="46.92826" pt_clust_4="43.13022" pt_clust_5="87.07868" pt_clust_6="14000.00000"></scales>
<clustering>
<clus scale="   43.130">  1  4  2 -1</clus>
<clus scale="   46.928">  2  3  1 -1</clus>
<clus scale="   87.079">  1  5  2 -1</clus>
<clus scale="   43.130">  1  3  2 -1</clus>
</clustering>
</event>
<event>
 6    0  0.6132510E+002  0.8504547E+02  0.7546771E-02  0.1315314E+00
         21   -1    0    0  504  501  0.00000000000E+00  0.00000000000E+00  0.74281612685E+03  0.74281612685E+03  0.00000000000E+00 0. -1.
         21   -1    0    0  506  502 -0.00000000000E+00 -0.00000000000E+00 -0.11049919412E+03  0.11049919412E+03  0.00000000000E+00 0. -1.
         21    1    1    2  503  502  0.92237994190E+01 -0.35654680741E+02 -0.82501550968E+02  0.90348440200E+02  0.00000000000E+00 0. -1.
         21    1    1    2  504  505  0.13152893933E+02 -0.69706200390E+02  0.13968579336E+03  0.15666548394E+03  0.00000000000E+00 0. -1.
         21    1    1    2  505  503  0.53982611361E+02  0.39799128456E+02  0.98541426226E+02  0.11919943640E+03  0.00000000000E+00 0. -1.
         21    1    1    2  506  501 -0.76359304712E+02  0.65561752675E+02  0.47659126411E+03  0.48710196043E+03  0.00000000000E+00 0. -1.
<scales pt_clust_3="36.82845" pt_clust_4="85.04547" pt_clust_5="62.90769" pt_clust_6="14000.00000"></scales>
<clustering>
<clus scale="   36.828">  2  3  1 -1</clus>
<clus scale="   62.908">  2  5  1 -1</clus>
<clus scale="   85.045">  2  4  1 -1</clus>
<clus scale="   85.045">  1  3  2 -1</clus>
</clustering>
</event>
<event>
 6    0  0.6132510E+002  0.2383411E+03  0.7546771E-02  0.1120903E+00
         21   -1    0    0  504  501  0.00000000000E+00  0.00000000000E+00  0.56588550631E+03  0.56588550631E+03  0.00000000000E+00 0. -1.
         21   -1    0    0  503  502 -0.00000000000E+00 -0.00000000000E+00 -0.20218760844E+03  0.20218760844E+03  0.00000000000E+00 0. -1.
         21    1    1    2  503  506 -0.78794402483E+02 -0.10388053833E+03  0.90456600708E+01  0.13069639655E+03  0.00000000000E+00 0. -1.
         21    1    1    2  504  502  0.13463958196E+03  0.27878057214E+03  0.11900865583E+03  0.33167677730E+03  0.00000000000E+00 0. -1.
         21    1    1    2  505  501 -0.23501858699E+02 -0.12238976350E+03  0.19639022679E+03  0.23259559917E+03  0.00000000000E+00 0. -1.
         21    1    1    2  506  505 -0.32343320779E+02 -0.52510270314E+02  0.39253355178E+02  0.73104341733E+02  0.00000000000E+00 0. -1.
<scales pt_clust_3="33.63860" pt_clust_4="233.26850" pt_clust_5="124.62581" pt_clust_6="33.63860"></scales>
<clustering>
<clus scale="   33.639">  3  6 -1 -1</clus>
<clus scale="  124.626">  1  5  2 -1</clus>
<clus scale="  233.268">  1  4  2 -1</clus>
<clus scale="  124.626">  1  3  2 -1</clus>
</clustering>
</event>
<event>
 6    0  0.6132510E+002  0.2744253E+03  0.7546771E-02  0.1098773E+00
         21   -1    0    0  505  501  0.00000000000E+00  0.00000000000E+00  0.12313649049E+04  0.12313649049E+04  0.00000000000E+00 0. -1.
         21   -1    0    0  503  502 -0.00000000000E+00 -0.00000000000E+00 -0.11928873936E+03  0.11928873936E+03  0.00000000000E+00 0. -1.
         21    1    1    2  503  506 -0.20780019384E+02 -0.51760713842E+02 -0.21804993467E+02  0.59886880392E+02  0.00000000000E+00 0. -1.
         21    1    1    2  504  502 -0.10147748289E+03  0.75785632617E+02  0.28281520457E+03  0.30987994704E+03  0.00000000000E+00 0. -1.
         21    1    1    2  505  504 -0.12807114569E+03  0.12935768390E+02  0.63570200821E+03  0.64860357361E+03  0.00000000000E+00 0. -1.
         21    1    1    2  506  501  0.25032864797E+03 -0.36960687165E+02  0.21536394627E+03  0.33228324325E+03  0.00000000000E+00 0. -1.
<scales pt_clust_3="55.77617" pt_clust_4="117.63171" pt_clust_5="117.63171" pt_clust_6="246.69112"></scales>
<clustering>
<clus scale="   55.776">  2  3  1 -1</clus>
<clus scale="  117.632">  4  5 -1 -1</clus>
<clus scale="  246.691">  2  6  1 -1</clus>
<clus scale="  274.425">  1  3  2 -1</clus>
</clustering>
</event>
<event>
 6    0  0.6132510E+002  0.8908135E+02  0.7546771E-02  0.1305092E+00
         21   -1    0    0  503  501  0.00000000000E+00  0.00000000000E+00  0.70011697926E+02  0.70011697926E+02  0.00000000000E+00 0. -1.
         21   -1    0    0  505  502 -0.00000000000E+00 -0.00000000000E+00 -0.11117894350E+04  0.11117894350E+04  0.00000000000E+00 0. -1.
         21    1    1    2  503  506 -0.47196670241E+02  0.23792248091E+02 -0.56113776172E+03  0.56362149034E+03  0.00000000000E+00 0. -1.
         21    1    1    2  504  501  0.50344760354E+02  0.76003949552E+02  0.21405735994E+02  0.93645078761E+02  0.00000000000E+00 0. -1.
         21    1    1    2  505  504  0.38253197662E+02 -0.99267751426E+02 -0.41049954101E+03  0.42406045179E+03  0.00000000000E+00 0. -1.
         21    1    1    2  506  502 -0.41401287775E+02 -0.52844621778E+00 -0.91546170377E+02  0.10047411207E+03  0.00000000000E+00 0. -1.
<scales pt_clust_3="73.95134" pt_clust_4="14000.00000" pt_clust_5="89.08135" pt_clust_6="41.40466"></scales>
<clustering>
<clus scale="   41.405">  2  6  1 -1</clus>
<clus scale="   73.951">  2  3  1 -1</clus>
<clus scale="   89.081">  2  5  1 -1</clus>
<clus scale="   89.081">  1  3  2 -1</clus>
</clustering>
</event>
<event>
 6    0  0.6132510E+002  0.1135910E+03  0.7546771E-02  0.1254061E+00
         21   -1    0    0  504  501  0.00000000000E+00  0.00000000000E+00  0.29847543077E+03  0.29847543077E+03  0.00000000000E+00 0. -1.
         21   -1    0    0  506  502 -0.00000000000E+00 -0.00000000000E+00 -0.40347194189E+03  0.40347194189E+03  0.00000000000E+00 0. -1.
         21    1    1    2  503  505 -0.64881415101E+02  0.26312720995E+02  0.81580291624E+02  0.10750488962E+03  0.00000000000E+00 0. -1.
         21    1    1    2  504  503 -0.74086388684E+01  0.36941867067E+02  0.17660299386E+03  0.18057742637E+03  0.00000000000E+00 0. -1.
         21    1    1    2  505  502  0.55550088740E+02 -0.10635364925E+03 -0.34306620280E+03  0.36344371032E+03  0.00000000000E+00 0. -1.
         21    1    1    2  506  501  0.16739965229E+02  0.43099061192E+02 -0.20113593808E+02  0.50421346346E+02  0.00000000000E+00 0. -1.
<scales pt_clust_3="113.59104" pt_clust_4="37.67744" pt_clust_5="14000.00000" pt_clust_6="50.31493"></scales>
<clustering>
<clus scale="   37.677">  1  4  2 -1</clus>
<clus scale="   50.315">  1  6  2 -1</clus>
<clus scale="  113.591">  1  3  2 -1</clus>
<clus scale="   37.677">  1  3  2 -1</clus>
</clustering>
</event>
<event>
 6    0  0.6132510E+002  0.2886346E+03  0.7546771E-02  0.1091064E+00
         21   -1    0    0  506  501  0.00000000000E+00  0.00000000000E+00  0.30660084551E+03  0.30660084551E+03  0.00000000000E+00 0. -1.
         21   -1    0    0  505  502 -0.00000000000E+00 -0.00000000000E+00 -0.14335929845E+04  0.14335929845E+04  0.00000000000E+00 0. -1.
         21    1    1    2  503  504  0.25036782896E+02  0.47449274256E+02 -0.18139101302E+03  0.18915859412E+03  0.00000000000E+00 0. -1.
         21    1    1    2  504  501 -0.13033496271E+03  0.21170217278E+03 -0.60646570031E+03  0.65544310059E+03  0.00000000000E+00 0. -1.
         21    1    1    2  505  503 -0.40489973772E+02 -0.43330782710E+01 -0.53893897400E+03  0.54047519022E+03  0.00000000000E+00 0. -1.
         21    1    1    2  506  502  0.14578815359E+03 -0.25481836876E+03  0.19980354831E+03  0.35511694511E+03  0.00000000000E+00 0. -1.
<scales pt_clust_3="49.43732" pt_clust_4="288.63455" pt_clust_5="40.72117" pt_clust_6="14000.00000"></scales>
<clustering>
<clus scale="   40.721">  2  5  1 -1</clus>
<clus scale="   49.437">  2  3  1 -1</clus>
<clus scale="  288.635">  2  4  1 -1</clus>
<clus scale="  288.635">  1  3  2 -1</clus>
</clustering>
</event>
<event>
 6    0  0.6132510E+002  0.7074670E+02  0.7546771E-02  0.1357572E+00
         21   -1    0    0  506  501  0.00000000000E+00  0.00000000000E+00  0.11978065359E+03  0.11978065359E+03  0.00000000000E+00 0. -1.
         21   -1    0    0  505  502 -0.00000000000E+00 -0.00000000000E+00 -0.46631217589E+03  0.46631217589E+03  0.00000000000E+00 0. -1.
         21    1    1    2  503  502  0.10210583195E+03 -0.18464890318E+02 -0.36730831017E+03  0.38168304628E+03  0.00000000000E+00 0. -1.
         21    1    1    2  504  501 -0.71057235776E+01  0.30351101038E+02  0.75379946474E+01  0.32070266682E+02  0.00000000000E+00 0. -1.
         21    1    1    2  505  504 -0.35218956804E+02  0.34973273388E+02 -0.52236672516E+02  0.72056746564E+02  0.00000000000E+00 0. -1.
         21    1    1    2  506  503 -0.59781151572E+02 -0.46859484108E+02  0.65475465742E+02  0.10028276995E+03  0.00000000000E+00 0. -1.
<scales pt_clust_3="70.74670" pt_clust_4="31.17179" pt_clust_5="52.27906" pt_clust_6="14000.00000"></scales>
<clustering>
<clus scale="   31.172">  1  4  2 -1</clus>
<clus scale="   52.279">  2  5  1 -1</clus>
<clus scale="   70.747">  2  3  1 -1</clus>
<clus scale="   31.172">  1  3  2 -1</clus>
</clustering>
</event>
<event>
 6    0  0.6132510E+002  0.8960616E+02  0.7546771E-02  0.1303808E+00
         21   -1    0    0  506  501  0.00000000000E+00  0.00000000000E+00  0.82179013048E+02  0.82179013048E+02  0.00000000000E+00 0.  1.
         21   -1    0    0  505  502 -0.00000000000E+00 -0.00000000000E+00 -0.10884140388E+04  0.10884140388E+04  0.00000000000E+00 0.  1.
         21    1    1    2  503  504 -0.11718671551E+02 -0.75349535541E+02 -0.80508566466E+03  0.80868894342E+03  0.00000000000E+00 0.  1.
         21    1    1    2  504  502 -0.32361729917E+02 -0.10254220694E+02 -0.12899441430E+03  0.13338661675E+03  0.00000000000E+00 0.  1.
         21    1    1    2  505  501  0.83058162817E+02  0.14258337563E+02  0.37311741376E+02  0.92163575479E+02  0.00000000000E+00 0.  1.
         21    1    1    2  506  503 -0.38977761349E+02  0.71345418672E+02 -0.10946668814E+03  0.13635391618E+03  0.00000000000E+00 0. -1.
<scales pt_clust_3="89.60616" pt_clust_4="33.94747" pt_clust_5="14000.00000" pt_clust_6="82.24652"></scales>
<clustering>
<clus scale="   33.947">  2  4  1 -1</clus>
<clus scale="   82.247">  1  6  2 -1</clus>
<clus scale="   89.606">  2  3  1 -1</clus>
<clus scale="   82.247">  1  3  2 -1</clus>
</clustering>
</event>
<event>
 6    0  0.6132510E+002  0.1184866E+03  0.7546771E-02  0.1245615E+00
         21   -1    0    0  503  501  0.00000000000E+00  0.00000000000E+00  0.56166935642E+03  0.56166935642E+03  0.00000000000E+00 0. -1.
         21   -1    0    0  506  502 -0.00000000000E+00 -0.00000000000E+00 -0.92091321306E+02  0.92091321306E+02  0.00000000000E+00 0.  1.
         21    1    1    2  503  505 -0.71083784851E+02  0.86520749857E+02  0.37008506089E+03  0.38665449295E+03  0.00000000000E+00 0. -1.
         21    1    1    2  504  502  0.50717000877E+02 -0.15746463864E+02  0.42386940734E+02  0.67947171001E+02  0.00000000000E+00 0.  1.
         21    1    1    2  505  504  0.43252043009E+02 -0.36828009273E+02  0.11499214723E+03  0.12825847113E+03  0.00000000000E+00 0.  1.
         21    1    1    2  506  501 -0.22885259035E+02 -0.33946276720E+02 -0.57886113738E+02  0.70900542649E+02  0.00000000000E+00 0.  1.
<scales pt_clust_3="109.10940" pt_clust_4="43.04688" pt_clust_5="43.04688" pt_clust_6="40.94001"></scales>
<clustering>
<clus scale="   40.940">  2  6  1 -1</clus>
<clus scale="   43.047">  4  5 -1 -1</clus>
<clus scale="  109.109">  1  3  2 -1</clus>
<clus scale="  109.109">  1  3  2 -1</clus>
</clustering>
</event>
<event>
 6    0  0.6132510E+002  0.1800904E+03  0.7546771E-02  0.1167716E+00
         21   -1    0    0  503  501  0.00000000000E+00  0.00000000000E+00  0.22281288058E+03  0.22281288058E+03  0.00000000000E+00 0.  1.
         21   -1    0    0  505  502 -0.00000000000E+00 -0.00000000000E+00 -0.43449318671E+03  0.43449318671E+03  0.00000000000E+00 0.  1.
         21    1    1    2  503  502  0.30471682715E+02 -0.21631913248E+02  0.39230336791E+02  0.54180092682E+02  0.00000000000E+00 0.  1.
         21    1    1    2  504  506 -0.89666878883E+02  0.12994934115E+03 -0.63254172031E+02  0.17008254088E+03  0.00000000000E+00 0. -1.
         21    1    1    2  505  504  0.11025806851E+03 -0.15862927375E+03 -0.26477151364E+03  0.32775607179E+03  0.00000000000E+00 0.  1.
         21    1    1    2  506  501 -0.51062872347E+02  0.50311845853E+02  0.77115042750E+02  0.10528736194E+03  0.00000000000E+00 0.  1.
<scales pt_clust_3="37.36928" pt_clust_4="14000.00000" pt_clust_5="180.09041" pt_clust_6="52.67245"></scales>
<clustering>
<clus scale="   37.369">  1  3  2 -1</clus>
<clus scale="   52.672">  1  6  2 -1</clus>
<clus scale="  180.090">  2  5  1 -1</clus>
<clus scale="   37.369">  1  3  2 -1</clus>
</clustering>
</event>
<event>
 6    0  0.6132510E+002  0.3624625E+03  0.7546771E-02  0.1057613E+00
         21   -1    0    0  505  501  0.00000000000E+00  0.00000000000E+00  0.15053245686E+04  0.15053245686E+04  0.00000000000E+00 0.  1.
         21   -1    0    0  506  502 -0.00000000000E+00 -0.00000000000E+00 -0.86857014593E+03  0.86857014593E+03  0.00000000000E+00 0.  1.
         21    1    1    2  503  504 -0.11269669039E+03  0.34071161429E+03 -0.13371539667E+02  0.35911522693E+03  0.00000000000E+00 0.  1.
         21    1    1    2  504  501  0.31671246924E+02  0.15271666097E+02  0.20125985030E+03  0.20430814719E+03  0.00000000000E+00 0. -1.
         21    1    1    2  505  502 -0.11247241766E+03 -0.45607213264E+02  0.10768888238E+04  0.10837064185E+04  0.00000000000E+00 0.  1.
         21    1    1    2  506  503  0.19349786113E+03 -0.31037606712E+03 -0.62802271175E+03  0.72676492195E+03  0.00000000000E+00 0.  1.
<scales pt_clust_3="362.46249" pt_clust_4="35.16094" pt_clust_5="92.28449" pt_clust_6="14000.00000"></scales>
<clustering>
<clus scale="   35.161">  1  4  2 -1</clus>
<clus scale="   92.284">  1  5  2 -1</clus>
<clus scale="  362.462">  1  3  2 -1</clus>
<clus scale="   35.161">  1  3  2 -1</clus>
</clustering>
</event>
<event>
 6    0  0.6132510E+002  0.7781862E+02  0.7546771E-02  0.1335358E+00
         21   -1    0    0  503  501  0.00000000000E+00  0.00000000000E+00  0.22092135138E+03  0.22092135138E+03  0.00000000000E+00 0. -1.
         21   -1    0    0  504  502 -0.00000000000E+00 -0.00000000000E+00 -0.45571987805E+03  0.45571987805E+03  0.00000000000E+00 0. -1.
         21    1    1    2  503  506  0.31820183222E+02  0.73137332107E+02  0.12106906070E+03  0.14498038097E+03  0.00000000000E+00 0. -1.
         21    1    1    2  504  505 -0.41191125608E+02  0.53647876885E+00 -0.28761264420E+03  0.29054780974E+03  0.00000000000E+00 0. -1.
         21    1    1    2  505  501  0.61932948405E+02 -0.16811546465E+02 -0.12808177757E+03  0.14325941483E+03  0.00000000000E+00 0. -1.
         21    1    1    2  506  502 -0.52562006020E+02 -0.56862264411E+02  0.59826834406E+02  0.97853623876E+02  0.00000000000E+00 0. -1.
<scales pt_clust_3="14000.00000" pt_clust_4="41.19462" pt_clust_5="32.77988" pt_clust_6="77.81862"></scales>
<clustering>
<clus scale="   41.195">  2  4  1 -1</clus>
<clus scale="   32.780">  2  5  1 -1</clus>
<clus scale="   77.819">  2  6  1 -1</clus>
<clus scale="   77.819">  1  3  2 -1</clus>
</clustering>
</event>
<event>
 6    0  0.6132510E+002  0.1351685E+03  0.7546771E-02  0.1219982E+00
         21   -1    0    0  506  501  0.00000000000E+00  0.00000000000E+00  0.83112642299E+03  0.83112642299E+03  0.00000000000E+00 0.  1.
         21   -1    0    0  503  502 -0.00000000000E+00 -0.00000000000E+00 -0.22176702075E+03  0.22176702075E+03  0.00000000000E+00 0.  1.
         21    1    1    2  503  505 -0.33022718759E+02 -0.16237686048E+03 -0.84208216702E+02  0.18587030030E+03  0.00000000000E+00 0.  1.
         21    1    1    2  504  501 -0.54482179482E+01  0.30811209266E+02  0.54833734342E+03  0.54922932905E+03  0.00000000000E+00 0.  1.
         21    1    1    2  505  504 -0.16452604814E+02  0.31011996044E+02  0.19115855480E+03  0.19435540944E+03  0.00000000000E+00 0.  1.
         21    1    1    2  506  502  0.54923541522E+02  0.10055365517E+03 -0.45928279282E+02  0.12343840496E+03  0.00000000000E+00 0.  1.
<scales pt_clust_3="14000.00000" pt_clust_4="31.28919" pt_clust_5="55.81936" pt_clust_6="135.16851"></scales>
<clustering>
<clus scale="   31.289">  1  4  2 -1</clus>
<clus scale="   55.819">  1  5  2 -1</clus>
<clus scale="  135.169">  2  6  1 -1</clus>
<clus scale="   31.289">  1  3  2 -1</clus>
</clustering>
</event>
<event>
 6    0  0.6132510E+002  0.1154340E+03  0.7546771E-02  0.1250825E+00
         21   -1    0    0  504  501  0.00000000000E+00  0.00000000000E+00  0.44198015743E+03  0.44198015743E+03  0.00000000000E+00 0. -1.
         21   -1    0    0  506  502 -0.00000000000E+00 -0.00000000000E+00 -0.12351616644E+03  0.12351616644E+03  0.00000000000E+00 0.  1.
         21    1    1    2  503  505 -0.52742531200E+02 -0.13592837482E+02  0.96310149383E+02  0.11064440656E+03  0.00000000000E+00 0. -1.
         21    1    1    2  504  502  0.77134495808E+02 -0.86482574765E+02  0.56290510279E+01  0.11602005170E+03  0.00000000000E+00 0.  1.
         21    1    1    2  505  501 -0.44034865164E+02 -0.33740664962E+02  0.19392857154E+03  0.20170719541E+03  0.00000000000E+00 0. -1.
         21    1    1    2  506  503  0.19642900556E+02  0.13381607721E+03  0.22596219030E+02  0.13712467020E+03  0.00000000000E+00 0.  1.
<scales pt_clust_3="41.07815" pt_clust_4="14000.00000" pt_clust_5="115.43400" pt_clust_6="112.62004"></scales>
<clustering>
<clus scale="   41.078">  3  5 -1 -1</clus>
<clus scale="  115.434">  1  3  2 -1</clus>
<clus scale="  112.620">  1  6  2 -1</clus>
<clus scale="  115.434">  1  3  2 -1</clus>
</clustering>
</event>
<event>
 6    0  0.6132510E+002  0.1052897E+03  0.7546771E-02  0.1269550E+00
         21   -1    0    0  504  501  0.00000000000E+00  0.00000000000E+00  0.11877889849E+04  0.11877889849E+04  0.00000000000E+00 0.  1.
         21   -1    0    0  506  502 -0.00000000000E+00 -0.00000000000E+00 -0.26660044428E+03  0.26660044428E+03  0.00000000000E+00 0. -1.
         21    1    1    2  503  501 -0.35058399124E+02 -0.19257015590E+02  0.10630241357E+04  0.10637764037E+04  0.00000000000E+00 0.  1.
         21    1    1    2  504  505 -0.29474888809E+02 -0.16538640734E+02  0.68826964049E+02  0.76677550090E+02  0.00000000000E+00 0. -1.
         21    1    1    2  505  502  0.43194044364E+02  0.11578067786E+03 -0.19318492136E+03  0.22932794133E+03  0.00000000000E+00 0. -1.
         21    1    1    2  506  503  0.21339243569E+02 -0.79985021538E+02 -0.17477637809E+02  0.84607534002E+02  0.00000000000E+00 0. -1.
<scales pt_clust_3="72.23103" pt_clust_4="33.79787" pt_clust_5="105.28972" pt_clust_6="14000.00000"></scales>
<clustering>
<clus scale="   33.798">  1  4  2 -1</clus>
<clus scale="   72.231">  1  3  2 -1</clus>
<clus scale="  105.290">  2  5  1 -1</clus>
<clus scale="   33.798">  1  3  2 -1</clus>
</clustering>
</event>
<event>
 6    0  0.6132510E+002  0.2460055E+03  0.7546771E-02  0.1115856E+00
         21   -1    0    0  504  501  0.00000000000E+00  0.00000000000E+00  0.11214756749E+04  0.11214756749E+04  0.00000000000E+00 0.  1.
         21   -1    0    0  503  502 -0.00000000000E+00 -0.00000000000E+00 -0.24289933660E+03  0.24289933660E+03  0.00000000000E+00 0.  1.
         21    1    1    2  503  506 -0.14489097497E+03  0.14350954505E+03 -0.14441905548E+03  0.24989047148E+03  0.00000000000E+00 0.  1.
         21    1    1    2  504  502  0.10183704466E+03 -0.10990285605E+03  0.26711599329E+03  0.30626846933E+03  0.00000000000E+00 0.  1.
         21    1    1    2  505  501  0.73569248147E+02 -0.74597909813E+02  0.74941832085E+03  0.75670674772E+03  0.00000000000E+00 0.  1.
         21    1    1    2  506  505 -0.30515317832E+02  0.40991220814E+02  0.64610796913E+01  0.51509323010E+02  0.00000000000E+00 0.  1.
<scales pt_clust_3="41.88655" pt_clust_4="231.33775" pt_clust_5="104.77253" pt_clust_6="41.88655"></scales>
<clustering>
<clus scale="   41.887">  3  6 -1 -1</clus>
<clus scale="  104.773">  1  5  2 -1</clus>
<clus scale="  231.338">  1  4  2 -1</clus>
<clus scale="  104.773">  1  3  2 -1</clus>
</clustering>
</event>
<event>
 6    0  0.6132510E+002  0.7350526E+02  0.7546771E-02  0.1348563E+00
         21   -1    0    0  505  501  0.00000000000E+00  0.00000000000E+00  0.14969196292E+03  0.14969196292E+03  0.00000000000E+00 0. -1.
         21   -1    0    0  503  502 -0.00000000000E+00 -0.00000000000E+00 -0.56249337839E+03  0.56249337839E+03  0.00000000000E+00 0. -1.
         21    1    1    2  503  506  0.41836755043E+02 -0.17129945055E+01 -0.18880386386E+03  0.19339117723E+03  0.00000000000E+00 0. -1.
         21    1    1    2  504  502 -0.10221650206E+03  0.43355013859E+02 -0.34046656888E+03  0.35811360634E+03  0.00000000000E+00 0. -1.
         21    1    1    2  505  504  0.63789083214E+02 -0.42307914087E+00  0.44858030904E+02  0.77983774400E+02  0.00000000000E+00 0. -1.
         21    1    1    2  506  501 -0.34093361941E+01 -0.41218940212E+02  0.71610986368E+02  0.82696783336E+02  0.00000000000E+00 0. -1.
<scales pt_clust_3="41.83783" pt_clust_4="14000.00000" pt_clust_5="73.50526" pt_clust_6="41.35970"></scales>
<clustering>
<clus scale="   41.360">  1  6  2 -1</clus>
<clus scale="   41.838">  2  3  1 -1</clus>
<clus scale="   73.505">  1  5  2 -1</clus>
<clus scale="   41.360">  1  3  2 -1</clus>
</clustering>
</event>
<event>
 6    0  0.6132510E+002  0.8489250E+02  0.7546771E-02  0.1315714E+00
         21   -1    0    0  506  501  0.00000000000E+00  0.00000000000E+00  0.12031944887E+03  0.12031944887E+03  0.00000000000E+00 0. -1.
         21   -1    0    0  505  502 -0.00000000000E+00 -0.00000000000E+00 -0.35928539446E+03  0.35928539446E+03  0.00000000000E+00 0.  1.
         21    1    1    2  503  502 -0.65081171495E+02 -0.14454642504E+02 -0.87179316834E+02  0.10974847997E+03  0.00000000000E+00 0.  1.
         21    1    1    2  504  501  0.17739142197E+02 -0.58729827228E+02  0.56743267653E+02  0.83568344461E+02  0.00000000000E+00 0. -1.
         21    1    1    2  505  504  0.70306120151E+02  0.10516555794E+03 -0.21188321391E+03  0.24677366441E+03  0.00000000000E+00 0.  1.
         21    1    1    2  506  503 -0.22964090853E+02 -0.31981088211E+02  0.33533174977E+01  0.39514354482E+02  0.00000000000E+00 0. -1.
<scales pt_clust_3="70.08063" pt_clust_4="14000.00000" pt_clust_5="84.89250" pt_clust_6="39.37181"></scales>
<clustering>
<clus scale="   39.372">  1  6  2 -1</clus>
<clus scale="   70.081">  2  3  1 -1</clus>
<clus scale="   84.893">  2  5  1 -1</clus>
<clus scale="   39.372">  1  3  2 -1</clus>
</clustering>
</event>
<event>
 6    0  0.6132510E+002  0.1346193E+03  0.7546771E-02  0.1220758E+00
         21   -1    0    0  504  501  0.00000000000E+00  0.00000000000E+00  0.31889640419E+03  0.31889640419E+03  0.00000000000E+00 0. -1.
         21   -1    0    0  503  502 -0.00000000000E+00 -0.00000000000E+00 -0.80379130218E+02  0.80379130218E+02  0.00000000000E+00 0. -1.
         21    1    1    2  503  505 -0.22861232823E+02 -0.28207331228E+02 -0.14689659304E+01  0.36337960346E+02  0.00000000000E+00 0. -1.
         21    1    1    2  504  502  0.11713384679E+02  0.14357045498E+03  0.10013269411E+03  0.17543156886E+03  0.00000000000E+00 0. -1.
         21    1    1    2  505  506 -0.15329985450E+02 -0.60376905999E+02  0.85471293318E+02  0.10576257000E+03  0.00000000000E+00 0. -1.
         21    1    1    2  506  501  0.26477833594E+02 -0.54986217749E+02  0.54382252475E+02  0.81743435201E+02  0.00000000000E+00 0. -1.
<scales pt_clust_3="36.30826" pt_clust_4="126.31620" pt_clust_5="45.54341" pt_clust_6="45.54341"></scales>
<clustering>
<clus scale="   36.308">  2  3  1 -1</clus>
<clus scale="   45.543">  5  6 -1 -1</clus>
<clus scale="  126.316">  2  4  1 -1</clus>
<clus scale="  134.619">  1  3  2 -1</clus>
</clustering>
</event>
<event>
 6    0  0.6132510E+002  0.8126237E+02  0.7546771E-02  0.1325507E+00
         21   -1    0    0  505  501  0.00000000000E+00  0.00000000000E+00  0.27130671758E+03  0.27130671758E+03  0.00000000000E+00 0.  1.
         21   -1    0    0  503  502 -0.00000000000E+00 -0.00000000000E+00 -0.63342121684E+03  0.63342121684E+03  0.00000000000E+00 0. -1.
         21    1    1    2  503  506 -0.18182709851E+02 -0.58312451855E+02 -0.58902250178E+03  0.59218110455E+03  0.00000000000E+00 0. -1.
         21    1    1    2  504  502  0.98256726261E+02  0.47123405439E+02  0.12059924085E+03  0.16253976895E+03  0.00000000000E+00 0.  1.
         21    1    1    2  505  504 -0.59872016252E+02 -0.14826519450E+02  0.98398156391E+02  0.11613217121E+03  0.00000000000E+00 0.  1.
         21    1    1    2  506  501 -0.20202000158E+02  0.26015565866E+02  0.79106052741E+01  0.33874889719E+02  0.00000000000E+00 0. -1.
<scales pt_clust_3="60.96306" pt_clust_4="81.26237" pt_clust_5="14000.00000" pt_clust_6="32.93828"></scales>
<clustering>
<clus scale="   32.938">  1  6  2 -1</clus>
<clus scale="   60.963">  2  3  1 -1</clus>
<clus scale="   81.262">  2  4  1 -1</clus>
<clus scale="   32.938">  1  3  2 -1</clus>
</clustering>
</event>
<event>
 6    0  0.6132510E+002  0.1497554E+03  0.7546771E-02  0.1200774E+00
         21   -1    0    0  505  501  0.00000000000E+00  0.00000000000E+00  0.17027523187E+04  0.17027523187E+04  0.00000000000E+00 0. -1.
         21   -1    0    0  504  502 -0.00000000000E+00 -0.00000000000E+00 -0.52203593760E+02  0.52203593760E+02  0.00000000000E+00 0. -1.
         21    1    1    2  503  506 -0.58875684193E+02 -0.62670309935E+02  0.28973578805E+03  0.30222630728E+03  0.00000000000E+00 0.  1.
         21    1    1    2  504  503 -0.28840511732E+02  0.20048930106E+02 -0.29280174642E+02  0.45728146064E+02  0.00000000000E+00 0. -1.
         21    1    1    2  505  502  0.14024788007E+03  0.51885294255E+02  0.12090817872E+04  0.12182940202E+04  0.00000000000E+00 0. -1.
         21    1    1    2  506  501 -0.52531684141E+02 -0.92639144251E+01  0.18101132437E+03  0.18870743891E+03  0.00000000000E+00 0.  1.
<scales pt_clust_3="33.66528" pt_clust_4="35.12456" pt_clust_5="143.52597" pt_clust_6="33.66528"></scales>
<clustering>
<clus scale="   33.665">  3  6 -1 -1</clus>
<clus scale="   35.125">  2  4  1 -1</clus>
<clus scale="  143.526">  1  5  2 -1</clus>
<clus scale="  143.526">  1  3  2 -1</clus>
</clustering>
</event>
<event>
 6    0  0.6132510E+002  0.2362154E+03  0.7546771E-02  0.1122340E+00
         21   -1    0    0  504  501  0.00000000000E+00  0.00000000000E+00  0.19238571671E+03  0.19238571671E+03  0.00000000000E+00 0.  1.
         21   -1    0    0  503  502 -0.00000000000E+00 -0.00000000000E+00 -0.47668552597E+03  0.47668552597E+03  0.00000000000E+00 0.  1.
         21    1    1    2  503  506 -0.70462892005E+02  0.62875705975E+02 -0.13127831600E+03  0.16171694346E+03  0.00000000000E+00 0.  1.
         21    1    1    2  504  505  0.10250722868E+03  0.11198536964E+03 -0.46015110936E+01  0.15188689492E+03  0.00000000000E+00 0.  1.
         21    1    1    2  505  502  0.75633823028E+02  0.37263526461E+02 -0.28051420281E+02  0.88859033136E+02  0.00000000000E+00 0.  1.
         21    1    1    2  506  501 -0.10767815970E+03 -0.21212460207E+03 -0.12036856189E+03  0.26660837116E+03  0.00000000000E+00 0.  1.
<scales pt_clust_3="94.43714" pt_clust_4="40.01370" pt_clust_5="40.01370" pt_clust_6="230.03211"></scales>
<clustering>
<clus scale="   40.014">  4  5 -1 -1</clus>
<clus scale="   94.437">  2  3  1 -1</clus>
<clus scale="  230.032">  2  6  1 -1</clus>
<clus scale="  236.215">  1  3  2 -1</clus>
</clustering>
</event>
<event>
 6    0  0.6132510E+002  0.1605307E+03  0.7546771E-02  0.1188099E+00
         21   -1    0    0  504  501  0.00000000000E+00  0.00000000000E+00  0.33174605077E+03  0.33174605077E+03  0.00000000000E+00 0. -1.
         21   -1    0    0  505  502 -0.00000000000E+00 -0.00000000000E+00 -0.13995791059E+03  0.13995791059E+03  0.00000000000E+00 0. -1.
         21    1    1    2  503  502  0.26700234432E+02  0.57479864948E+02 -0.44181101760E+02  0.77258055541E+02  0.00000000000E+00 0. -1.
         21    1    1    2  504  506  0.47518252674E+02 -0.45140681097E+02  0.40370451620E+02  0.76976871794E+02  0.00000000000E+00 0. -1.
         21    1    1    2  505  501 -0.13504256511E+03 -0.69191054814E+02  0.17515398689E+03  0.23173867951E+03  0.00000000000E+00 0. -1.
         21    1    1    2  506  503  0.60824078007E+02  0.56851870964E+02  0.20444803427E+02  0.85730354512E+02  0.00000000000E+00 0. -1.
<scales pt_clust_3="63.33564" pt_clust_4="65.54133" pt_clust_5="143.18012" pt_clust_6="63.33564"></scales>
<clustering>
<clus scale="   63.336">  3  6 -1 -1</clus>
<clus scale="   65.541">  1  4  2 -1</clus>
<clus scale="  143.180">  1  5  2 -1</clus>
<clus scale="   65.541">  1  3  2 -1</clus>
</clustering>
</event>
<event>
 6    0  0.6132510E+002  0.2189901E+03  0.7546771E-02  0.1134638E+00
         21   -1    0    0  506  501  0.00000000000E+00  0.00000000000E+00  0.89213261203E+03  0.89213261203E+03  0.00000000000E+00 0. -1.
         21   -1    0    0  505  502 -0.00000000000E+00 -0.00000000000E+00 -0.20193786596E+03  0.20193786596E+03  0.00000000000E+00 0. -1.
         21    1    1    2  503  502 -0.29161823945E+02 -0.11175910289E+03 -0.24571603019E+02  0.11808587015E+03  0.00000000000E+00 0. -1.
         21    1    1    2  504  503 -0.17208036488E+03 -0.11698736421E+02 -0.41329333042E+02  0.17736015951E+03  0.00000000000E+00 0. -1.
         21    1    1    2  505  501  0.19963693241E+03  0.86745802686E+02  0.60004106184E+03  0.63830166455E+03  0.00000000000E+00 0. -1.
         21    1    1    2  506  504  0.16052564152E+01  0.36712036627E+02  0.15605462029E+03  0.16032278377E+03  0.00000000000E+00 0.  1.
<scales pt_clust_3="113.21334" pt_clust_4="218.99008" pt_clust_5="14000.00000" pt_clust_6="36.74712"></scales>
<clustering>
<clus scale="   36.747">  1  6  2 -1</clus>
<clus scale="  113.213">  2  3  1 -1</clus>
<clus scale="  218.990">  2  4  1 -1</clus>
<clus scale="   36.747">  1  3  2 -1</clus>
</clustering>
</event>
<event>
 6    0  0.6132510E+002  0.1788351E+03  0.7546771E-02  0.1168935E+00
         21   -1    0    0  504  501  0.00000000000E+00  0.00000000000E+00  0.12237121767E+03  0.12237121767E+03  0.00000000000E+00 0. -1.
         21   -1    0    0  501  502 -0.00000000000E+00 -0.00000000000E+00 -0.59036573775E+03  0.59036573775E+03  0.00000000000E+00 0. -1.
         21    1    1    2  503  505 -0.26959804647E+02  0.39468815047E+02 -0.45750029407E+02  0.66164065916E+02  0.00000000000E+00 0. -1.
         21    1    1    2  504  503 -0.20530293434E+02  0.74293969663E+02  0.33333176003E+01  0.77150488547E+02  0.00000000000E+00 0. -1.
         21    1    1    2  505  506 -0.12343315714E+03 -0.15849628718E+03 -0.24424967706E+03  0.31625104280E+03  0.00000000000E+00 0. -1.
         21    1    1    2  506  502  0.17092325522E+03  0.44733502466E+02 -0.18132813122E+03  0.25317135815E+03  0.00000000000E+00 0. -1.
<scales pt_clust_3="46.87035" pt_clust_4="136.89370" pt_clust_5="14000.00000" pt_clust_6="178.83509"></scales>
<clustering>
<clus scale="   46.870">  3  4 -1 -1</clus>
<clus scale="  136.894">  1  3  2 -1</clus>
<clus scale="  178.835">  2  6  1 -1</clus>
<clus scale="  136.894">  1  3  2 -1</clus>
</clustering>
</event>
<event>
 6    0  0.6132510E+002  0.9153925E+02  0.7546771E-02  0.1299166E+00
         21   -1    0    0  503  501  0.00000000000E+00  0.00000000000E+00  0.14069242762E+04  0.14069242762E+04  0.00000000000E+00 0. -1.
         21   -1    0    0  506  502 -0.00000000000E+00 -0.00000000000E+00 -0.21759705525E+03  0.21759705525E+03  0.00000000000E+00 0.  1.
         21    1    1    2  503  504 -0.37619040428E+01 -0.54338985731E+02  0.29315066322E+03  0.29816805435E+03  0.00000000000E+00 0.  1.
         21    1    1    2  504  505  0.54182507196E+02  0.42942032953E+02 -0.54387399736E+02  0.87964490166E+02  0.00000000000E+00 0. -1.
         21    1    1    2  505  502  0.38962308348E+02 -0.29829305284E+02 -0.13744222661E+03  0.14593907832E+03  0.00000000000E+00 0.  1.
         21    1    1    2  506  501 -0.89382911501E+02  0.41226258062E+02  0.10880061841E+04  0.10924497086E+04  0.00000000000E+00 0. -1.
<scales pt_clust_3="55.38014" pt_clust_4="91.53925" pt_clust_5="49.06984" pt_clust_6="14000.00000"></scales>
<clustering>
<clus scale="   49.070">  2  5  1 -1</clus>
<clus scale="   55.380">  1  3  2 -1</clus>
<clus scale="   91.539">  2  4  1 -1</clus>
<clus scale="   55.380">  1  3  2 -1</clus>
</clustering>
</event>
<event>
 6    0  0.6132510E+002  0.8981559E+02  0.7546771E-02  0.1303299E+00
         21   -1    0    0  506  501  0.00000000000E+00  0.00000000000E+00  0.22256218428E+04  0.22256218428E+04  0.00000000000E+00 0. -1.
         21   -1    0    0  503  502 -0.00000000000E+00 -0.00000000000E+00 -0.15607189312E+03  0.15607189312E+03  0.00000000000E+00 0.  1.
         21    1    1    2  503  505 -0.12505215433E+03 -0.88371246375E+02  0.38312316968E+03  0.41259045267E+03  0.00000000000E+00 0.  1.
         21    1    1    2  504  502 -0.41159930218E+02  0.15609992624E+02 -0.12134340202E+03  0.12908149727E+03  0.00000000000E+00 0.  1.
         21    1    1    2  505  501  0.66338624677E+02  0.53338498517E+02  0.16506005789E+04  0.16527940221E+04  0.00000000000E+00 0. -1.
         21    1    1    2  506  504  0.99873459875E+02  0.19422755234E+02  0.15716960312E+03  0.18722776384E+03  0.00000000000E+00 0. -1.
<scales pt_clust_3="89.81559" pt_clust_4="44.02058" pt_clust_5="14000.00000" pt_clust_6="84.27837"></scales>
<clustering>
<clus scale="   44.021">  2  4  1 -1</clus>
<clus scale="   84.278">  2  6  1 -1</clus>
<clus scale="   89.816">  2  3  1 -1</clus>
<clus scale="   89.816">  1  3  2 -1</clus>
</clustering>
</event>
<event>
 6    0  0.6132510E+002  0.9181231E+02  0.7546771E-02  0.1298521E+00
         21   -1    0    0  503  501  0.00000000000E+00  0.00000000000E+00  0.18144919687E+03  0.18144919687E+03  0.00000000000E+00 0. -1.
         21   -1    0    0  504  502 -0.00000000000E+00 -0.00000000000E+00 -0.18638913601E+03  0.18638913601E+03  0.00000000000E+00 0. -1.
         21    1    1    2  503  502  0.10024544765E+03 -0.84104615136E+00 -0.11266899332E+03  0.15081166795E+03  0.00000000000E+00 0. -1.
         21    1    1    2  504  506 -0.67679917753E+02  0.54050618831E+02 -0.15406932540E+01  0.86628023172E+02  0.00000000000E+00 0. -1.
         21    1    1    2  505  501  0.88508703382E-01 -0.31797421878E+02  0.42992123308E+02  0.53473418990E+02  0.00000000000E+00 0. -1.
         21    1    1    2  506  505 -0.32654038597E+02 -0.21412150802E+02  0.66277624129E+02  0.76925222774E+02  0.00000000000E+00 0. -1.
<scales pt_clust_3="14000.00000" pt_clust_4="91.81231" pt_clust_5="30.89503" pt_clust_6="71.16128"></scales>
<clustering>
<clus scale="   30.895">  5  6 -1 -1</clus>
<clus scale="   71.161">  1  5  2 -1</clus>
<clus scale="   91.812">  1  4  2 -1</clus>
<clus scale="   71.161">  1  3  2 -1</clus>
</clustering>
</event>
<event>
 6    0  0.6132510E+002  0.6630889E+02  0.7546771E-02  0.1373115E+00
         21   -1    0    0  503  501  0.00000000000E+00  0.00000000000E+00  0.20126516537E+03  0.20126516537E+03  0.00000000000E+00 0.  1.
         21   -1    0    0  504  502 -0.00000000000E+00 -0.00000000000E+00 -0.20027204858E+03  0.20027204858E+03  0.00000000000E+00 0.  1.
         21    1    1    2  503  502 -0.73985835288E+02  0.22189065140E+02  0.70023230418E+02  0.10425694813E+03  0.00000000000E+00 0.  1.
         21    1    1    2  504  505 -0.44632401631E+02 -0.88010532385E+01 -0.12469365361E+03  0.13273287861E+03  0.00000000000E+00 0.  1.
         21    1    1    2  505  506  0.57577106490E+02 -0.30086004532E+02 -0.18021324815E+02  0.67417052802E+02  0.00000000000E+00 0.  1.
         21    1    1    2  506  501  0.61041130430E+02  0.16697992630E+02  0.73684864801E+02  0.97130334411E+02  0.00000000000E+00 0.  1.
<scales pt_clust_3="66.30889" pt_clust_4="45.49187" pt_clust_5="46.96526" pt_clust_6="14000.00000"></scales>
<clustering>
<clus scale="   45.492">  2  4  1 -1</clus>
<clus scale="   46.965">  2  5  1 -1</clus>
<clus scale="   66.309">  2  3  1 -1</clus>
<clus scale="   66.309">  1  3  2 -1</clus>
</clustering>
</event>
<event>
 6    0  0.6132510E+002  0.9936670E+02  0.7546771E-02  0.1281633E+00
         21   -1    0    0  503  501  0.00000000000E+00  0.00000000000E+00  0.23236505373E+03  0.23236505373E+03  0.00000000000E+00 0.  1.
         21   -1    0    0  506  502 -0.00000000000E+00 -0.00000000000E+00 -0.21015635873E+03  0.21015635873E+03  0.00000000000E+00 0.  1.
         21    1    1    2  503  504 -0.83621643245E+02 -0.38709928911E+02  0.75889378803E+02  0.11937435081E+03  0.00000000000E+00 0.  1.
         21    1    1    2  504  502 -0.36330491417E+01  0.33107183769E+02 -0.13549624085E+03  0.13952962391E+03  0.00000000000E+00 0.  1.
         21    1    1    2  505  501  0.11980165454E+03 -0.17042411585E+02  0.77581891640E+02  0.14374223503E+03  0.00000000000E+00 0.  1.
         21    1    1    2  506  505 -0.32546962148E+02  0.22645156727E+02  0.42336654123E+01  0.39875202709E+02  0.00000000000E+00 0.  1.
<scales pt_clust_3="99.36670" pt_clust_4="33.30593" pt_clust_5="14000.00000" pt_clust_6="45.43919"></scales>
<clustering>
<clus scale="   33.306">  2  4  1 -1</clus>
<clus scale="   45.439">  2  6  1 -1</clus>
<clus scale="   99.367">  1  3  2 -1</clus>
<clus scale="   99.367">  1  3  2 -1</clus>
</clustering>
</event>
<event>
 6    0  0.6132510E+002  0.1440046E+03  0.7546771E-02  0.1208040E+00
         21   -1    0    0  504  501  0.00000000000E+00  0.00000000000E+00  0.15363823199E+04  0.15363823199E+04  0.00000000000E+00 0.  1.
         21   -1    0    0  506  502 -0.00000000000E+00 -0.00000000000E+00 -0.67282181616E+02  0.67282181616E+02  0.00000000000E+00 0. -1.
         21    1    1    2  503  502 -0.15631216369E+03 -0.97680280030E+02  0.13127299406E+03  0.22629080537E+03  0.00000000000E+00 0. -1.
         21    1    1    2  504  505  0.64961486173E+02 -0.12059256042E+02  0.64834865839E+03  0.65170653148E+03  0.00000000000E+00 0.  1.
         21    1    1    2  505  503  0.65983179115E+02  0.34561908333E+02  0.60576706218E+03  0.61032945124E+03  0.00000000000E+00 0.  1.
         21    1    1    2  506  501  0.25367498403E+02  0.75177627738E+02  0.83711423661E+02  0.11533771343E+03  0.00000000000E+00 0.  1.
<scales pt_clust_3="135.87358" pt_clust_4="44.92877" pt_clust_5="44.92877" pt_clust_6="79.34221"></scales>
<clustering>
<clus scale="   44.929">  4  5 -1 -1</clus>
<clus scale="   79.342">  2  6  1 -1</clus>
<clus scale="  135.874">  2  3  1 -1</clus>
<clus scale="  144.005">  1  3  2 -1</clus>
</clustering>
</event>
<event>
 6    0  0.6132510E+002  0.9151015E+02  0.7546771E-02  0.1299235E+00
         21   -1    0    0  502  501  0.00000000000E+00  0.00000000000E+00  0.23606613263E+03  0.23606613263E+03  0.00000000000E+00 0.  1.
         21   -1    0    0  506  502 -0.00000000000E+00 -0.00000000000E+00 -0.42167971414E+03  0.42167971414E+03  0.00000000000E+00 0.  1.
         21    1    1    2  503  501  0.51758874922E+02  0.89709471761E+02  0.15576391461E+03  0.18705391616E+03  0.00000000000E+00 0.  1.
         21    1    1    2  504  505  0.25138702603E+02 -0.47690413876E+02  0.22982783956E+02  0.58604934115E+02  0.00000000000E+00 0.  1.
         21    1    1    2  505  503 -0.42185362653E+02 -0.44537339397E+02 -0.17927905006E+02  0.63910790956E+02  0.00000000000E+00 0.  1.
         21    1    1    2  506  504 -0.34712214871E+02  0.25182815124E+01 -0.34643237507E+03  0.34817620554E+03  0.00000000000E+00 0.  1.
<scales pt_clust_3="14000.00000" pt_clust_4="50.00332" pt_clust_5="91.51015" pt_clust_6="34.80344"></scales>
<clustering>
<clus scale="   34.803">  2  6  1 -1</clus>
<clus scale="   50.003">  2  4  1 -1</clus>
<clus scale="   91.510">  2  5  1 -1</clus>
<clus scale="   91.510">  1  3  2 -1</clus>
</clustering>
</event>
<event>
 6    0  0.6132510E+002  0.1978793E+03  0.7546771E-02  0.1151541E+00
         21   -1    0    0  504  501  0.00000000000E+00  0.00000000000E+00  0.12595116088E+04  0.12595116088E+04  0.00000000000E+00 0.  1.
         21   -1    0    0  505  502 -0.00000000000E+00 -0.00000000000E+00 -0.12696180522E+03  0.12696180522E+03  0.00000000000E+00 0.  1.
         21    1    1    2  503  506 -0.11608223385E+03  0.50974139242E+02  0.56602756984E+03  0.58005228877E+03  0.00000000000E+00 0.  1.
         21    1    1    2  504  502  0.16636928735E+03 -0.11008739837E+02  0.83343848753E+02  0.18640313638E+03  0.00000000000E+00 0.  1.
         21    1    1    2  505  503  0.90551791052E+01 -0.81931370613E+02 -0.40134681811E+02  0.91681723606E+02  0.00000000000E+00 0.  1.
         21    1    1    2  506  501 -0.59342232609E+02  0.41965971208E+02  0.52331306679E+03  0.52833626526E+03  0.00000000000E+00 0.  1.
<scales pt_clust_3="37.48158" pt_clust_4="191.58724" pt_clust_5="82.43025" pt_clust_6="37.48158"></scales>
<clustering>
<clus scale="   37.482">  3  6 -1 -1</clus>
<clus scale="   82.430">  2  5  1 -1</clus>
<clus scale="  191.587">  2  4  1 -1</clus>
<clus scale="  197.879">  1  3  2 -1</clus>
</clustering>
</event>
<event>
 6    0  0.6132510E+002  0.1098622E+03  0.7546771E-02  0.1260825E+00
         21   -1    0    0  503  501  0.00000000000E+00  0.00000000000E+00  0.71945206363E+02  0.71945206363E+02  0.00000000000E+00 0.  1.
         21   -1    0    0  505  502 -0.00000000000E+00 -0.00000000000E+00 -0.89941544330E+03  0.89941544330E+03  0.00000000000E+00 0.  1.
         21    1    1    2  503  502 -0.10133131950E+03  0.52657303142E+02 -0.20949841861E+03  0.23860095407E+03  0.00000000000E+00 0.  1.
         21    1    1    2  504  501  0.13798798515E+02 -0.34483723782E+02  0.10013913189E+02  0.38468331179E+02  0.00000000000E+00 0.  1.
         21    1    1    2  505  506  0.59234648870E+02 -0.95792486384E+02 -0.59461891225E+03  0.60519137046E+03  0.00000000000E+00 0.  1.
         21    1    1    2  506  504  0.28297872114E+02  0.77618907024E+02 -0.33366819267E+02  0.89099993949E+02  0.00000000000E+00 0.  1.
<scales pt_clust_3="109.86215" pt_clust_4="37.14208" pt_clust_5="14000.00000" pt_clust_6="68.00974"></scales>
<clustering>
<clus scale="   37.142">  1  4  2 -1</clus>
<clus scale="   68.010">  1  6  2 -1</clus>
<clus scale="  109.862">  1  3  2 -1</clus>
<clus scale="   37.142">  1  3  2 -1</clus>
</clustering>
</event>
<event>
 6    0  0.6132510E+002  0.1477049E+03  0.7546771E-02  0.1203322E+00
         21   -1    0    0  503  501  0.00000000000E+00  0.00000000000E+00  0.10018043382E+04  0.10018043382E+04  0.00000000000E+00 0. -1.
         21   -1    0    0  504  502 -0.00000000000E+00 -0.00000000000E+00 -0.29455480055E+03  0.29455480055E+03  0.00000000000E+00 0.  1.
         21    1    1    2  503  506  0.28737485325E+02  0.66975565121E+02  0.11210601890E+03  0.13371360761E+03  0.00000000000E+00 0. -1.
         21    1    1    2  504  505  0.18872421447E+02  0.40301980275E+02  0.36784083392E+03  0.37052300469E+03  0.00000000000E+00 0. -1.
         21    1    1    2  505  501 -0.13967893920E+02  0.32885951366E+02  0.49062745775E+03  0.49192671217E+03  0.00000000000E+00 0.  1.
         21    1    1    2  506  502 -0.33642012852E+02 -0.14016349676E+03 -0.26332477294E+03  0.30019581426E+03  0.00000000000E+00 0.  1.
<scales pt_clust_3="72.88051" pt_clust_4="34.36815" pt_clust_5="34.36815" pt_clust_6="142.63782"></scales>
<clustering>
<clus scale="   34.368">  4  5 -1 -1</clus>
<clus scale="   72.881">  1  3  2 -1</clus>
<clus scale="  142.638">  2  6  1 -1</clus>
<clus scale="   72.881">  1  3  2 -1</clus>
</clustering>
</event>
<event>
 6    0  0.6132510E+002  0.7088971E+02  0.7546771E-02  0.1357093E+00
         21   -1    0    0  503  501  0.00000000000E+00  0.00000000000E+00  0.92923145001E+01  0.92923145001E+01  0.00000000000E+00 0.  1.
         21   -1    0    0  505  502 -0.00000000000E+00 -0.00000000000E+00 -0.25641633524E+04  0.25641633524E+04  0.00000000000E+00 0.  1.
         21    1    1    2  503  506 -0.28621259158E+02  0.11263818017E+03 -0.68712208653E+03  0.69688112179E+03  0.00000000000E+00 0.  1.
         21    1    1    2  504  501  0.74866074980E+01 -0.53454863357E+02 -0.25762649429E+03  0.26322021630E+03  0.00000000000E+00 0.  1.
         21    1    1    2  505  504 -0.21797974348E+02 -0.36243009184E+02 -0.11252686760E+04  0.11260631868E+04  0.00000000000E+00 0. -1.
         21    1    1    2  506  502  0.42932626008E+02 -0.22940307631E+02 -0.48485378106E+03  0.48729114202E+03  0.00000000000E+00 0.  1.
<scales pt_clust_3="14000.00000" pt_clust_4="70.88971" pt_clust_5="42.29311" pt_clust_6="50.03132"></scales>
<clustering>
<clus scale="   42.293">  2  5  1 -1</clus>
<clus scale="   50.031">  2  6  1 -1</clus>
<clus scale="   70.890">  1  4  2 -1</clus>
<clus scale="   70.890">  1  3  2 -1</clus>
</clustering>
</event>
<event>
 6    0  0.6132510E+002  0.7885159E+02  0.7546771E-02  0.1332342E+00
         21   -1    0    0  504  501  0.00000000000E+00  0.00000000000E+00  0.10472343578E+04  0.10472343578E+04  0.00000000000E+00 0.  1.
         21   -1    0    0  505  502 -0.00000000000E+00 -0.00000000000E+00 -0.10713801540E+03  0.10713801540E+03  0.00000000000E+00 0.  1.
         21    1    1    2  503  502  0.30640920056E+02 -0.31504564260E+02 -0.82110142898E+02  0.93131515170E+02  0.00000000000E+00 0.  1.
         21    1    1    2  504  503  0.55982605571E+02 -0.83110113254E+01  0.18096546540E+03  0.18960913666E+03  0.00000000000E+00 0.  1.
         21    1    1    2  505  506 -0.11391074537E+01 -0.42998307732E+02  0.31812159107E+02  0.53499210280E+02  0.00000000000E+00 0. -1.
         21    1    1    2  506  501 -0.85484418174E+02  0.82813883317E+02  0.80942886080E+03  0.81813251110E+03  0.00000000000E+00 0.  1.
<scales pt_clust_3="14000.00000" pt_clust_4="56.86128" pt_clust_5="43.01339" pt_clust_6="78.85159"></scales>
<clustering>
<clus scale="   43.013">  2  5  1 -1</clus>
<clus scale="   56.861">  1  4  2 -1</clus>
<clus scale="   78.852">  1  6  2 -1</clus>
<clus scale="   56.861">  1  3  2 -1</clus>
</clustering>
</event>
<event>
 6    0  0.6132510E+002  0.8217279E+02  0.7546771E-02  0.1322996E+00
         21   -1    0    0  506  501  0.00000000000E+00  0.00000000000E+00  0.32419976651E+03  0.32419976651E+03  0.00000000000E+00 0.  1.
         21   -1    0    0  505  502 -0.00000000000E+00 -0.00000000000E+00 -0.61862576103E+03  0.61862576103E+03  0.00000000000E+00 0. -1.
         21    1    1    2  503  501  0.26744365517E+02 -0.11494544430E+03  0.22814109891E+03  0.25685808779E+03  0.00000000000E+00 0.  1.
         21    1    1    2  504  502  0.36709361444E+02  0.95969475545E+02 -0.59375271102E+02  0.11867240738E+03  0.00000000000E+00 0. -1.
         21    1    1    2  505  503 -0.78211871727E+02 -0.28986044488E+02 -0.49882415083E+03  0.50574976135E+03  0.00000000000E+00 0. -1.
         21    1    1    2  506  504  0.14758144767E+02  0.47962013239E+02  0.35632328509E+02  0.61545271027E+02  0.00000000000E+00 0. -1.
<scales pt_clust_3="82.88751" pt_clust_4="14000.00000" pt_clust_5="82.17279" pt_clust_6="50.18125"></scales>
<clustering>
<clus scale="   50.181">  1  6  2 -1</clus>
<clus scale="   82.888">  1  3  2 -1</clus>
<clus scale="   82.173">  2  5  1 -1</clus>
<clus scale="   50.181">  1  3  2 -1</clus>
</clustering>
</event>
<event>
 6    0  0.6132510E+002  0.1947573E+03  0.7546771E-02  0.1154239E+00
         21   -1    0    0  505  501  0.00000000000E+00  0.00000000000E+00  0.13225696798E+04  0.13225696798E+04  0.00000000000E+00 0. -1.
         21   -1    0    0  506  502 -0.00000000000E+00 -0.00000000000E+00 -0.11861324414E+03  0.11861324414E+03  0.00000000000E+00 0. -1.
         21    1    1    2  503  501 -0.30598967270E+02 -0.14508051541E+02  0.58668454151E+03  0.58766106865E+03  0.00000000000E+00 0. -1.
         21    1    1    2  504  502  0.19276797040E+03  0.73509623998E+02  0.18923382121E+02  0.20717444250E+03  0.00000000000E+00 0. -1.
         21    1    1    2  505  504 -0.19458620243E+02  0.26239947338E+02  0.32346384224E+03  0.32510925852E+03  0.00000000000E+00 0. -1.
         21    1    1    2  506  503 -0.14271038289E+03 -0.85241519794E+02  0.27488466979E+03  0.32123815428E+03  0.00000000000E+00 0. -1.
<scales pt_clust_3="42.05438" pt_clust_4="194.75732" pt_clust_5="32.66761" pt_clust_6="14000.00000"></scales>
<clustering>
<clus scale="   32.668">  1  5  2 -1</clus>
<clus scale="   42.054">  1  3  2 -1</clus>
<clus scale="  194.757">  2  4  1 -1</clus>
<clus scale="   32.668">  1  3  2 -1</clus>
</clustering>
</event>
<event>
 6    0  0.6132510E+002  0.1710950E+03  0.7546771E-02  0.1176711E+00
         21   -1    0    0  506  501  0.00000000000E+00  0.00000000000E+00  0.16692047072E+03  0.16692047072E+03  0.00000000000E+00 0. -1.
         21   -1    0    0  505  502 -0.00000000000E+00 -0.00000000000E+00 -0.45586630723E+03  0.45586630723E+03  0.00000000000E+00 0. -1.
         21    1    1    2  503  504 -0.41976362349E+02  0.12425979055E+02  0.67223982419E+01  0.44290073263E+02  0.00000000000E+00 0. -1.
         21    1    1    2  504  502 -0.69839355218E+01  0.15370523214E+03 -0.21362939719E+03  0.26327094995E+03  0.00000000000E+00 0. -1.
         21    1    1    2  505  501  0.81773515350E+02 -0.21693405623E+03 -0.99488820465E+02  0.25228023696E+03  0.00000000000E+00 0. -1.
         21    1    1    2  506  503 -0.32813217479E+02  0.50802845028E+02  0.17449982906E+02  0.62945517773E+02  0.00000000000E+00 0. -1.
<scales pt_clust_3="30.95524" pt_clust_4="14000.00000" pt_clust_5="171.09502" pt_clust_6="104.47568"></scales>
<clustering>
<clus scale="   30.955">  3  6 -1 -1</clus>
<clus scale="  104.476">  1  3  2 -1</clus>
<clus scale="  171.095">  1  5  2 -1</clus>
<clus scale="  104.476">  1  3  2 -1</clus>
</clustering>
</event>
<event>
 6    0  0.6132510E+002  0.7773706E+02  0.7546771E-02  0.1335599E+00
         21   -1    0    0  503  501  0.00000000000E+00  0.00000000000E+00  0.29752902495E+03  0.29752902495E+03  0.00000000000E+00 0.  1.
         21   -1    0    0  504  502 -0.00000000000E+00 -0.00000000000E+00 -0.32849702446E+03  0.32849702446E+03  0.00000000000E+00 0.  1.
         21    1    1    2  503  506 -0.22876841207E+01  0.53159090445E+02  0.18114315440E+02  0.56207213234E+02  0.00000000000E+00 0. -1.
         21    1    1    2  504  501 -0.56082487718E+01 -0.87995873410E+02  0.23415838426E+03  0.25020966230E+03  0.00000000000E+00 0.  1.
         21    1    1    2  505  502  0.39502205416E+02 -0.33257719496E+02 -0.20408075105E+03  0.21051235851E+03  0.00000000000E+00 0.  1.
         21    1    1    2  506  505 -0.31606272524E+02  0.68094502461E+02 -0.79159948158E+02  0.10909681536E+03  0.00000000000E+00 0.  1.
<scales pt_clust_3="14000.00000" pt_clust_4="77.73706" pt_clust_5="51.63817" pt_clust_6="42.27561"></scales>
<clustering>
<clus scale="   51.638">  2  5  1 -1</clus>
<clus scale="   42.276">  2  6  1 -1</clus>
<clus scale="   77.737">  1  4  2 -1</clus>
<clus scale="   77.737">  1  3  2 -1</clus>
</clustering>
</event>
<event>
 6    0  0.6132510E+002  0.1238868E+03  0.7546771E-02  0.1236819E+00
         21   -1    0    0  503  501  0.00000000000E+00  0.00000000000E+00  0.12801781138E+04  0.12801781138E+04  0.00000000000E+00 0.  1.
         21   -1    0    0  504  502 -0.00000000000E+00 -0.00000000000E+00 -0.40495054164E+02  0.40495054164E+02  0.00000000000E+00 0.  1.
         21    1    1    2  503  505 -0.78684084834E+02 -0.65503808663E+02  0.89807714511E+03  0.90389407163E+03  0.00000000000E+00 0.  1.
         21    1    1    2  504  506 -0.16236845495E+02  0.32000838757E+02  0.61168695901E+02  0.70917545015E+02  0.00000000000E+00 0. -1.
         21    1    1    2  505  502  0.96482734503E+02  0.71718874528E+02  0.86286584175E+02  0.14797935542E+03  0.00000000000E+00 0.  1.
         21    1    1    2  506  501 -0.15618041739E+01 -0.38215904622E+02  0.19415063445E+03  0.19788219591E+03  0.00000000000E+00 0.  1.
<scales pt_clust_3="123.88677" pt_clust_4="35.88438" pt_clust_5="14000.00000" pt_clust_6="36.61927"></scales>
<clustering>
<clus scale="   35.884">  2  4  1 -1</clus>
<clus scale="   36.619">  1  6  2 -1</clus>
<clus scale="  123.887">  1  3  2 -1</clus>
<clus scale="   36.619">  1  3  2 -1</clus>
</clustering>
</event>
<event>
 6    0  0.6921350E+002  0.1652969E+03  0.7546771E-02  0.1182843E+00
         21   -1    0    0  504  501  0.00000000000E+00  0.00000000000E+00  0.28641543720E+03  0.28641543720E+03  0.00000000000E+00 0.  1.
         21   -1    0    0  506  502 -0.00000000000E+00 -0.00000000000E+00 -0.17412087782E+04  0.17412087782E+04  0.00000000000E+00 0. -1.
         21    1    1    2  503  501 -0.41113934906E+02  0.37358198687E+02  0.36552692277E+02  0.66498796720E+02  0.00000000000E+00 0.  1.
         21    1    1    2  504  502  0.12582593518E+02  0.31047333181E+02  0.93028618871E+01  0.34767827033E+02  0.00000000000E+00 0.  1.
         21    1    1    2  505  503  0.39227556789E+02  0.97819639664E+02  0.19547385109E+03  0.22207545919E+03  0.00000000000E+00 0.  1.
         21    1    1    2  506  505 -0.10696215401E+02 -0.16622517153E+03 -0.16961227462E+04  0.17042821324E+04  0.00000000000E+00 0. -1.
<scales pt_clust_3="58.12981" pt_clust_4="33.50013" pt_clust_5="165.29688" pt_clust_6="14000.00000"></scales>
<clustering>
<clus scale="   33.500">  1  4  2 -1</clus>
<clus scale="   58.130">  1  3  2 -1</clus>
<clus scale="  165.297">  1  5  2 -1</clus>
<clus scale="   33.500">  1  3  2 -1</clus>
</clustering>
</event>
<event>
 6    0  0.6132510E+002  0.1085758E+03  0.7546771E-02  0.1263230E+00
         21   -1    0    0  505  501  0.00000000000E+00  0.00000000000E+00  0.41929238202E+02  0.41929238202E+02  0.00000000000E+00 0.  1.
         21   -1    0    0  506  502 -0.00000000000E+00 -0.00000000000E+00 -0.91167392449E+03  0.91167392449E+03  0.00000000000E+00 0.  1.
         21    1    1    2  503  502 -0.12677365308E+03 -0.10132374086E+02 -0.42837011900E+03  0.44685029145E+03  0.00000000000E+00 0.  1.
         21    1    1    2  504  503  0.40253473091E+02 -0.16784493695E+02 -0.75910236820E+01  0.44268329142E+02  0.00000000000E+00 0.  1.
         21    1    1    2  505  504  0.56691220581E+02  0.19736611954E+01 -0.46763442530E+02  0.73516048498E+02  0.00000000000E+00 0. -1.
         21    1    1    2  506  501  0.29828959412E+02  0.24943206585E+02 -0.38702010108E+03  0.38896849360E+03  0.00000000000E+00 0. -1.
<scales pt_clust_3="102.40894" pt_clust_4="31.62823" pt_clust_5="31.62823" pt_clust_6="38.88355"></scales>
<clustering>
<clus scale="   31.628">  4  5 -1 -1</clus>
<clus scale="   38.884">  2  6  1 -1</clus>
<clus scale="  102.409">  2  3  1 -1</clus>
<clus scale="  108.576">  1  3  2 -1</clus>
</clustering>
</event>
<event>
 6    0  0.6132510E+002  0.2363721E+03  0.7546771E-02  0.1122234E+00
         21   -1    0    0  506  501  0.00000000000E+00  0.00000000000E+00  0.39261967126E+02  0.39261967126E+02  0.00000000000E+00 0.  1.
         21   -1    0    0  504  502 -0.00000000000E+00 -0.00000000000E+00 -0.26375196739E+04  0.26375196739E+04  0.00000000000E+00 0. -1.
         21    1    1    2  503  502  0.12448130241E+03 -0.94676604424E+02 -0.85427422760E+03  0.86847205483E+03  0.00000000000E+00 0.  1.
         21    1    1    2  504  501 -0.29048637677E+02 -0.69228573328E+02 -0.99988699548E+03  0.10027015620E+04  0.00000000000E+00 0. -1.
         21    1    1    2  505  503  0.60686114369E+02 -0.18348871782E+02 -0.22432056055E+03  0.23310769927E+03  0.00000000000E+00 0.  1.
         21    1    1    2  506  505 -0.15611877910E+03  0.18225404953E+03 -0.51977592315E+03  0.57250032493E+03  0.00000000000E+00 0.  1.
<scales pt_clust_3="35.15982" pt_clust_4="75.07609" pt_clust_5="35.15982" pt_clust_6="229.83091"></scales>
<clustering>
<clus scale="   35.160">  3  5 -1 -1</clus>
<clus scale="   75.076">  2  4  1 -1</clus>
<clus scale="  229.831">  1  6  2 -1</clus>
<clus scale="  229.831">  1  3  2 -1</clus>
</clustering>
</event>
<event>
 6    0  0.6132510E+002  0.1229953E+03  0.7546771E-02  0.1238236E+00
         21   -1    0    0  503  501  0.00000000000E+00  0.00000000000E+00  0.17355188953E+04  0.17355188953E+04  0.00000000000E+00 0.  1.
         21   -1    0    0  504  502 -0.00000000000E+00 -0.00000000000E+00 -0.25910686607E+02  0.25910686607E+02  0.00000000000E+00 0. -1.
         21    1    1    2  503  502 -0.19257209150E+02 -0.44474934227E+02  0.23635037704E+03  0.24126823372E+03  0.00000000000E+00 0.  1.
         21    1    1    2  504  506 -0.11625378673E+03  0.62195382072E+02  0.23625638335E+03  0.27055551584E+03  0.00000000000E+00 0. -1.
         21    1    1    2  505  501  0.17201346568E+02 -0.44917802607E+02  0.53758293433E+03  0.53973040178E+03  0.00000000000E+00 0.  1.
         21    1    1    2  506  505  0.11830964931E+03  0.27197354762E+02  0.69941851401E+03  0.70987543060E+03  0.00000000000E+00 0.  1.
<scales pt_clust_3="55.73135" pt_clust_4="14000.00000" pt_clust_5="48.09881" pt_clust_6="122.99530"></scales>
<clustering>
<clus scale="   48.099">  1  5  2 -1</clus>
<clus scale="   55.731">  1  3  2 -1</clus>
<clus scale="  122.995">  1  6  2 -1</clus>
<clus scale="   48.099">  1  3  2 -1</clus>
</clustering>
</event>
<event>
 6    0  0.6132510E+002  0.2156278E+03  0.7546771E-02  0.1137185E+00
         21   -1    0    0  503  501  0.00000000000E+00  0.00000000000E+00  0.71892469743E+03  0.71892469743E+03  0.00000000000E+00 0. -1.
         21   -1    0    0  505  502 -0.00000000000E+00 -0.00000000000E+00 -0.17958214454E+03  0.17958214454E+03  0.00000000000E+00 0. -1.
         21    1    1    2  503  504 -0.17755869720E+03  0.17142167839E+03  0.20787420265E+03  0.32268276512E+03  0.00000000000E+00 0. -1.
         21    1    1    2  504  502 -0.81520523095E+01 -0.30467562647E+02 -0.18288788590E+02  0.36458306578E+02  0.00000000000E+00 0. -1.
         21    1    1    2  505  506  0.44762244612E+02  0.49866492206E+01 -0.64163695200E+02  0.78393271362E+02  0.00000000000E+00 0. -1.
         21    1    1    2  506  501  0.14094850490E+03 -0.14594076496E+03  0.41392083403E+03  0.46097249891E+03  0.00000000000E+00 0. -1.
<scales pt_clust_3="215.62782" pt_clust_4="31.53931" pt_clust_5="41.98341" pt_clust_6="14000.00000"></scales>
<clustering>
<clus scale="   31.539">  2  4  1 -1</clus>
<clus scale="   41.983">  2  5  1 -1</clus>
<clus scale="  215.628">  2  3  1 -1</clus>
<clus scale="  215.628">  1  3  2 -1</clus>
</clustering>
</event>
<event>
 6    0  0.6132510E+002  0.1708286E+03  0.7546771E-02  0.1176987E+00
         21   -1    0    0  505  501  0.00000000000E+00  0.00000000000E+00  0.15098593636E+04  0.15098593636E+04  0.00000000000E+00 0. -1.
         21   -1    0    0  501  502 -0.00000000000E+00 -0.00000000000E+00 -0.65634892152E+02  0.65634892152E+02  0.00000000000E+00 0.  1.
         21    1    1    2  503  502  0.30456253961E+02  0.29192226013E+02  0.61198388026E+01  0.42628885652E+02  0.00000000000E+00 0.  1.
         21    1    1    2  504  506 -0.98560559944E+02 -0.37647098832E+02  0.24515745490E+03  0.26689635764E+03  0.00000000000E+00 0. -1.
         21    1    1    2  505  504 -0.86268247654E+02 -0.46924651840E+00  0.10556872749E+04  0.10592063317E+04  0.00000000000E+00 0. -1.
         21    1    1    2  506  503  0.15437255364E+03  0.89241193369E+01  0.13725990284E+03  0.20676268075E+03  0.00000000000E+00 0.  1.
<scales pt_clust_3="40.53975" pt_clust_4="152.17929" pt_clust_5="86.26952" pt_clust_6="40.53975"></scales>
<clustering>
<clus scale="   40.540">  3  6 -1 -1</clus>
<clus scale="   86.270">  1  5  2 -1</clus>
<clus scale="  152.179">  1  4  2 -1</clus>
<clus scale="   86.270">  1  3  2 -1</clus>
</clustering>
</event>
<event>
 6    0  0.6132510E+002  0.1274111E+03  0.7546771E-02  0.1231348E+00
         21   -1    0    0  503  501  0.00000000000E+00  0.00000000000E+00  0.23757301609E+03  0.23757301609E+03  0.00000000000E+00 0. -1.
         21   -1    0    0  506  502 -0.00000000000E+00 -0.00000000000E+00 -0.15277361692E+03  0.15277361692E+03  0.00000000000E+00 0. -1.
         21    1    1    2  503  504 -0.28726211421E+02 -0.27522881228E+02  0.64088357823E+02  0.75432233311E+02  0.00000000000E+00 0.  1.
         21    1    1    2  504  502 -0.30824668104E+01 -0.94076124826E+02  0.74171915142E+02  0.11983860755E+03  0.00000000000E+00 0. -1.
         21    1    1    2  505  501  0.43986062194E+02  0.90021533784E+02  0.30350437619E+02  0.10468905996E+03  0.00000000000E+00 0. -1.
         21    1    1    2  506  505 -0.12177383962E+02  0.31577472270E+02 -0.83811311410E+02  0.90386732186E+02  0.00000000000E+00 0. -1.
<scales pt_clust_3="38.65514" pt_clust_4="38.65514" pt_clust_5="114.09168" pt_clust_6="33.84413"></scales>
<clustering>
<clus scale="   33.844">  2  6  1 -1</clus>
<clus scale="   38.655">  3  4 -1 -1</clus>
<clus scale="  114.092">  2  5  1 -1</clus>
<clus scale="  127.411">  1  3  2 -1</clus>
</clustering>
</event>
<event>
 6    0  0.6132510E+002  0.2228414E+03  0.7546771E-02  0.1131782E+00
         21   -1    0    0  505  501  0.00000000000E+00  0.00000000000E+00  0.80967328828E+03  0.80967328828E+03  0.00000000000E+00 0.  1.
         21   -1    0    0  506  502 -0.00000000000E+00 -0.00000000000E+00 -0.56350286876E+02  0.56350286876E+02  0.00000000000E+00 0.  1.
         21    1    1    2  503  504  0.44025136519E+02 -0.97136083055E+02  0.12869632829E+03  0.16714178470E+03  0.00000000000E+00 0.  1.
         21    1    1    2  504  502  0.35328109550E+02 -0.79193077235E+01  0.37655619606E+02  0.52237308957E+02  0.00000000000E+00 0.  1.
         21    1    1    2  505  503 -0.25386020674E+02 -0.74418684402E+02  0.11996885690E+03  0.14344029162E+03  0.00000000000E+00 0.  1.
         21    1    1    2  506  501 -0.53967225395E+02  0.17947407518E+03  0.46700219660E+03  0.50320418988E+03  0.00000000000E+00 0.  1.
<scales pt_clust_3="76.19582" pt_clust_4="32.54847" pt_clust_5="76.19582" pt_clust_6="187.41239"></scales>
<clustering>
<clus scale="   32.548">  3  4 -1 -1</clus>
<clus scale="   76.196">  3  5 -1 -1</clus>
<clus scale="  187.412">  1  6  2 -1</clus>
<clus scale="  187.412">  1  3  2 -1</clus>
</clustering>
</event>
<event>
 6    0  0.6132510E+002  0.1729721E+03  0.7546771E-02  0.1174783E+00
         21   -1    0    0  505  501  0.00000000000E+00  0.00000000000E+00  0.13319322439E+03  0.13319322439E+03  0.00000000000E+00 0.  1.
         21   -1    0    0  503  502 -0.00000000000E+00 -0.00000000000E+00 -0.19809197277E+04  0.19809197277E+04  0.00000000000E+00 0.  1.
         21    1    1    2  503  501 -0.49115074941E+02  0.90861437319E+02 -0.69179865088E+02  0.12431389750E+03  0.00000000000E+00 0.  1.
         21    1    1    2  504  502 -0.15512516196E+03  0.54045466939E+02 -0.17212300235E+04  0.17290510467E+04  0.00000000000E+00 0.  1.
         21    1    1    2  505  506  0.10870390744E+03 -0.85298109768E+02 -0.97875587841E+01  0.13852112954E+03  0.00000000000E+00 0.  1.
         21    1    1    2  506  504  0.95536329468E+02 -0.59608794490E+02 -0.47529055942E+02  0.12222687833E+03  0.00000000000E+00 0.  1.
<scales pt_clust_3="103.28645" pt_clust_4="167.11403" pt_clust_5="40.29395" pt_clust_6="40.29395"></scales>
<clustering>
<clus scale="   40.294">  5  6 -1 -1</clus>
<clus scale="  103.286">  1  3  2 -1</clus>
<clus scale="  167.114">  2  4  1 -1</clus>
<clus scale="  103.286">  1  3  2 -1</clus>
</clustering>
</event>
<event>
 6    0  0.6132510E+002  0.8577489E+02  0.7546771E-02  0.1313418E+00
         21   -1    0    0  506  501  0.00000000000E+00  0.00000000000E+00  0.30620979294E+03  0.30620979294E+03  0.00000000000E+00 0. -1.
         21   -1    0    0  505  502 -0.00000000000E+00 -0.00000000000E+00 -0.26444877831E+03  0.26444877831E+03  0.00000000000E+00 0.  1.
         21    1    1    2  503  501  0.12112559424E+02 -0.73955292288E+02  0.19958702152E+03  0.21319258550E+03  0.00000000000E+00 0. -1.
         21    1    1    2  504  502  0.71391548630E+02  0.37999696431E+02 -0.15458642721E+03  0.17446401813E+03  0.00000000000E+00 0.  1.
         21    1    1    2  505  503 -0.12340814746E+03  0.66352742140E+01 -0.29347423782E+02  0.12702310422E+03  0.00000000000E+00 0.  1.
         21    1    1    2  506  504  0.39904039408E+02  0.29320321643E+02  0.26107844109E+02  0.55978863389E+02  0.00000000000E+00 0.  1.
<scales pt_clust_3="66.92140" pt_clust_4="85.77489" pt_clust_5="14000.00000" pt_clust_6="49.51781"></scales>
<clustering>
<clus scale="   49.518">  1  6  2 -1</clus>
<clus scale="   66.921">  1  3  2 -1</clus>
<clus scale="   85.775">  2  4  1 -1</clus>
<clus scale="   49.518">  1  3  2 -1</clus>
</clustering>
</event>
<event>
 6    0  0.6132510E+002  0.2402994E+03  0.7546771E-02  0.1119594E+00
         21   -1    0    0  504  501  0.00000000000E+00  0.00000000000E+00  0.25137863600E+04  0.25137863600E+04  0.00000000000E+00 0.  1.
         21   -1    0    0  503  502 -0.00000000000E+00 -0.00000000000E+00 -0.10972144630E+04  0.10972144630E+04  0.00000000000E+00 0. -1.
         21    1    1    2  503  506 -0.21452013321E+03  0.91380353238E+02 -0.10676890041E+04  0.10928536343E+04  0.00000000000E+00 0. -1.
         21    1    1    2  504  502  0.17125994598E+02 -0.12905090879E+03  0.34673674248E+03  0.37036982239E+03  0.00000000000E+00 0. -1.
         21    1    1    2  505  501  0.50987949156E+02  0.27722574886E+02  0.41916554804E+03  0.42316435197E+03  0.00000000000E+00 0.  1.
         21    1    1    2  506  505  0.14640618946E+03  0.99479806645E+01  0.17183586106E+04  0.17246130144E+04  0.00000000000E+00 0.  1.
<scales pt_clust_3="232.78584" pt_clust_4="130.18232" pt_clust_5="37.49443" pt_clust_6="37.49443"></scales>
<clustering>
<clus scale="   37.494">  5  6 -1 -1</clus>
<clus scale="  130.182">  1  4  2 -1</clus>
<clus scale="  232.786">  2  3  1 -1</clus>
<clus scale="  130.182">  1  3  2 -1</clus>
</clustering>
</event>
<event>
 6    0  0.6132510E+002  0.1065265E+03  0.7546771E-02  0.1267141E+00
         21   -1    0    0  504  501  0.00000000000E+00  0.00000000000E+00  0.17519529226E+03  0.17519529226E+03  0.00000000000E+00 0.  1.
         21   -1    0    0  506  502 -0.00000000000E+00 -0.00000000000E+00 -0.59165552486E+03  0.59165552486E+03  0.00000000000E+00 0.  1.
         21    1    1    2  503  501 -0.97722694754E+02 -0.75431435553E+00 -0.26451629553E+02  0.10124219854E+03  0.00000000000E+00 0. -1.
         21    1    1    2  504  505  0.29570762228E+02 -0.42890261411E+02  0.84309954324E+02  0.99106876153E+02  0.00000000000E+00 0.  1.
         21    1    1    2  505  502  0.12280240889E+02 -0.42433072999E+02  0.28990351782E+02  0.52837586025E+02  0.00000000000E+00 0.  1.
         21    1    1    2  506  503  0.55871691636E+02  0.86077648765E+02 -0.50330890915E+03  0.51366415641E+03  0.00000000000E+00 0.  1.
<scales pt_clust_3="97.72561" pt_clust_4="32.14472" pt_clust_5="32.14472" pt_clust_6="100.64449"></scales>
<clustering>
<clus scale="   32.145">  4  5 -1 -1</clus>
<clus scale="   97.726">  1  3  2 -1</clus>
<clus scale="  100.644">  2  6  1 -1</clus>
<clus scale="   97.726">  1  3  2 -1</clus>
</clustering>
</event>
<event>
 6    0  0.6132510E+002  0.1110605E+03  0.7546771E-02  0.1258619E+00
         21   -1    0    0  504  501  0.00000000000E+00  0.00000000000E+00  0.73648518160E+03  0.73648518160E+03  0.00000000000E+00 0. -1.
         21   -1    0    0  505  502 -0.00000000000E+00 -0.00000000000E+00 -0.99148691916E+02  0.99148691916E+02  0.00000000000E+00 0. -1.
         21    1    1    2  503  501 -0.93836712181E+02  0.15547291172E+02  0.43936532249E+03  0.44954302733E+03  0.00000000000E+00 0. -1.
         21    1    1    2  504  506  0.11696845451E+02 -0.92088345171E+02  0.19411918339E+03  0.21517280700E+03  0.00000000000E+00 0. -1.
         21    1    1    2  505  503 -0.28720186495E+02 -0.91295020788E+01 -0.49355219408E+01  0.30537784748E+02  0.00000000000E+00 0.  1.
         21    1    1    2  506  502  0.11086005322E+03  0.85670556078E+02  0.87875057439E+01  0.14038025444E+03  0.00000000000E+00 0. -1.
<scales pt_clust_3="14000.00000" pt_clust_4="93.60985" pt_clust_5="30.13631" pt_clust_6="111.06047"></scales>
<clustering>
<clus scale="   30.136">  2  5  1 -1</clus>
<clus scale="   93.610">  1  4  2 -1</clus>
<clus scale="  111.060">  2  6  1 -1</clus>
<clus scale="   93.610">  1  3  2 -1</clus>
</clustering>
</event>
<event>
 6    0  0.6132510E+002  0.1597845E+03  0.7546771E-02  0.1188940E+00
         21   -1    0    0  505  501  0.00000000000E+00  0.00000000000E+00  0.23484856474E+03  0.23484856474E+03  0.00000000000E+00 0.  1.
         21   -1    0    0  504  502 -0.00000000000E+00 -0.00000000000E+00 -0.80161042504E+03  0.80161042504E+03  0.00000000000E+00 0. -1.
         21    1    1    2  503  506  0.27842175718E+02  0.36211615066E+02 -0.17716264886E+03  0.18295647561E+03  0.00000000000E+00 0. -1.
         21    1    1    2  504  501 -0.19420672783E+02 -0.10958911196E+03  0.19492761616E+03  0.22446316298E+03  0.00000000000E+00 0.  1.
         21    1    1    2  505  503  0.19898998241E+02 -0.37476740853E+02 -0.10487582044E+02  0.43708873391E+02  0.00000000000E+00 0.  1.
         21    1    1    2  506  502 -0.28320501176E+02  0.11085423775E+03 -0.57403924555E+03  0.58533047780E+03  0.00000000000E+00 0. -1.
<scales pt_clust_3="41.58670" pt_clust_4="145.59920" pt_clust_5="42.43202" pt_clust_6="41.58670"></scales>
<clustering>
<clus scale="   41.587">  3  6 -1 -1</clus>
<clus scale="   42.432">  1  5  2 -1</clus>
<clus scale="  145.599">  1  4  2 -1</clus>
<clus scale="   42.432">  1  3  2 -1</clus>
</clustering>
</event>
<event>
 6    0  0.6132510E+002  0.7525315E+02  0.7546771E-02  0.1343089E+00
         21   -1    0    0  503  501  0.00000000000E+00  0.00000000000E+00  0.13897958395E+03  0.13897958395E+03  0.00000000000E+00 0.  1.
         21   -1    0    0  505  502 -0.00000000000E+00 -0.00000000000E+00 -0.27478717463E+03  0.27478717463E+03  0.00000000000E+00 0.  1.
         21    1    1    2  503  502  0.30078472459E+02  0.61586284382E+02 -0.68372226316E+02  0.96810878836E+02  0.00000000000E+00 0.  1.
         21    1    1    2  504  501  0.39768722241E+02 -0.45123915143E+02  0.19489681828E+02  0.63226313227E+02  0.00000000000E+00 0.  1.
         21    1    1    2  505  506  0.40293915429E+02 -0.19278286175E+02 -0.12844378092E+03  0.13598917897E+03  0.00000000000E+00 0.  1.
         21    1    1    2  506  504 -0.11014111013E+03  0.28159169353E+01  0.41518734727E+02  0.11774038756E+03  0.00000000000E+00 0.  1.
<scales pt_clust_3="75.25315" pt_clust_4="66.50645" pt_clust_5="44.66824" pt_clust_6="14000.00000"></scales>
<clustering>
<clus scale="   44.668">  2  5  1 -1</clus>
<clus scale="   66.506">  1  4  2 -1</clus>
<clus scale="   75.253">  2  3  1 -1</clus>
<clus scale="   66.506">  1  3  2 -1</clus>
</clustering>
</event>
<event>
 6    0  0.6132510E+002  0.1040141E+03  0.7546771E-02  0.1272074E+00
         21   -1    0    0  506  501  0.00000000000E+00  0.00000000000E+00  0.25673404668E+03  0.25673404668E+03  0.00000000000E+00 0.  1.
         21   -1    0    0  505  502 -0.00000000000E+00 -0.00000000000E+00 -0.21307960745E+03  0.21307960745E+03  0.00000000000E+00 0.  1.
         21    1    1    2  503  501 -0.35534193650E+02  0.14673009025E+02  0.37059711095E+02  0.53398485921E+02  0.00000000000E+00 0. -1.
         21    1    1    2  504  502 -0.58022685957E+02 -0.12925123157E+03 -0.48444861825E+02  0.14973115102E+03  0.00000000000E+00 0.  1.
         21    1    1    2  505  503  0.66856417277E+02  0.62174276482E+02 -0.78729788366E+02  0.12055621412E+03  0.00000000000E+00 0.  1.
         21    1    1    2  506  504  0.26700462329E+02  0.52403946067E+02  0.13376937832E+03  0.14612780307E+03  0.00000000000E+00 0.  1.
<scales pt_clust_3="38.44445" pt_clust_4="104.01407" pt_clust_5="14000.00000" pt_clust_6="62.19455"></scales>
<clustering>
<clus scale="   38.444">  1  3  2 -1</clus>
<clus scale="   62.195">  1  6  2 -1</clus>
<clus scale="  104.014">  1  4  2 -1</clus>
<clus scale="   38.444">  1  3  2 -1</clus>
</clustering>
</event>
<event>
 6    0  0.6132510E+002  0.1968856E+03  0.7546771E-02  0.1152394E+00
         21   -1    0    0  502  501  0.00000000000E+00  0.00000000000E+00  0.31518913981E+03  0.31518913981E+03  0.00000000000E+00 0.  1.
         21   -1    0    0  504  502 -0.00000000000E+00 -0.00000000000E+00 -0.26669152732E+03  0.26669152732E+03  0.00000000000E+00 0.  1.
         21    1    1    2  503  505  0.56142188958E+02  0.12436274153E+03  0.48952482463E+02  0.14496338297E+03  0.00000000000E+00 0.  1.
         21    1    1    2  504  506  0.19104123009E+02 -0.41578666230E+02 -0.14742479160E+02  0.48073835848E+02  0.00000000000E+00 0.  1.
         21    1    1    2  505  501 -0.15100217352E+02  0.83191852867E+02  0.14591095439E+03  0.16863839289E+03  0.00000000000E+00 0.  1.
         21    1    1    2  506  503 -0.60146094615E+02 -0.16597592817E+03 -0.13162334521E+03  0.22020505542E+03  0.00000000000E+00 0.  1.
<scales pt_clust_3="181.59480" pt_clust_4="38.73013" pt_clust_5="84.55117" pt_clust_6="38.73013"></scales>
<clustering>
<clus scale="   38.730">  4  6 -1 -1</clus>
<clus scale="   84.551">  1  5  2 -1</clus>
<clus scale="  181.595">  1  3  2 -1</clus>
<clus scale="   84.551">  1  3  2 -1</clus>
</clustering>
</event>
<event>
 6    0  0.6132510E+002  0.1820575E+03  0.7546771E-02  0.1165827E+00
         21   -1    0    0  503  501  0.00000000000E+00  0.00000000000E+00  0.13192584423E+04  0.13192584423E+04  0.00000000000E+00 0. -1.
         21   -1    0    0  505  502 -0.00000000000E+00 -0.00000000000E+00 -0.34742832794E+03  0.34742832794E+03  0.00000000000E+00 0. -1.
         21    1    1    2  503  504  0.10180743608E+03  0.18097860637E+02  0.90343373221E+03  0.90933205986E+03  0.00000000000E+00 0. -1.
         21    1    1    2  504  502  0.65099593924E+02 -0.92303173999E+00  0.26874931845E+03  0.27652306465E+03  0.00000000000E+00 0. -1.
         21    1    1    2  505  506  0.41435673135E+02 -0.62960234026E+02 -0.25059160871E+03  0.26168121910E+03  0.00000000000E+00 0. -1.
         21    1    1    2  506  501 -0.20834270313E+03  0.45785405129E+02  0.50238672380E+02  0.21915042659E+03  0.00000000000E+00 0. -1.
<scales pt_clust_3="50.72366" pt_clust_4="50.72366" pt_clust_5="75.37179" pt_clust_6="170.46578"></scales>
<clustering>
<clus scale="   50.724">  3  4 -1 -1</clus>
<clus scale="   75.372">  2  5  1 -1</clus>
<clus scale="  170.466">  2  6  1 -1</clus>
<clus scale="  182.057">  1  3  2 -1</clus>
</clustering>
</event>
<event>
 6    0  0.6132510E+002  0.8830484E+02  0.7546771E-02  0.1307009E+00
         21   -1    0    0  506  501  0.00000000000E+00  0.00000000000E+00  0.19000583904E+03  0.19000583904E+03  0.00000000000E+00 0.  1.
         21   -1    0    0  505  502 -0.00000000000E+00 -0.00000000000E+00 -0.22491925708E+03  0.22491925708E+03  0.00000000000E+00 0.  1.
         21    1    1    2  503  502 -0.49543649761E+01 -0.12480684758E+03 -0.77971497561E+02  0.14724418279E+03  0.00000000000E+00 0.  1.
         21    1    1    2  504  501 -0.40298427849E+02  0.50111181268E+02  0.56085953476E+02  0.85327181792E+02  0.00000000000E+00 0.  1.
         21    1    1    2  505  504  0.19265191402E+02  0.32354851194E+02 -0.86110596770E+02  0.93984141597E+02  0.00000000000E+00 0.  1.
         21    1    1    2  506  503  0.25987601423E+02  0.42340815113E+02  0.73082722810E+02  0.88369589937E+02  0.00000000000E+00 0.  1.
<scales pt_clust_3="14000.00000" pt_clust_4="88.30484" pt_clust_5="37.65613" pt_clust_6="51.81383"></scales>
<clustering>
<clus scale="   37.656">  2  5  1 -1</clus>
<clus scale="   51.814">  1  6  2 -1</clus>
<clus scale="   88.305">  1  4  2 -1</clus>
<clus scale="   51.814">  1  3  2 -1</clus>
</clustering>
</event>
<event>
 6    0  0.6132510E+002  0.9688021E+02  0.7546771E-02  0.1286997E+00
         21   -1    0    0  503  501  0.00000000000E+00  0.00000000000E+00  0.21786802959E+04  0.21786802959E+04  0.00000000000E+00 0.  1.
         21   -1    0    0  505  502 -0.00000000000E+00 -0.00000000000E+00 -0.24180246421E+02  0.24180246421E+02  0.00000000000E+00 0. -1.
         21    1    1    2  503  504 -0.58471257057E+02  0.10266606711E+03  0.35077121253E+03  0.37013464142E+03  0.00000000000E+00 0.  1.
         21    1    1    2  504  502 -0.86341219944E+02 -0.56484950252E+02  0.30493705225E+03  0.32191918505E+03  0.00000000000E+00 0. -1.
         21    1    1    2  505  506  0.58651657098E+02 -0.37077395083E+01  0.19969117846E+03  0.20815938838E+03  0.00000000000E+00 0. -1.
         21    1    1    2  506  501  0.86160819903E+02 -0.42473377352E+02  0.12991006062E+04  0.13026473274E+04  0.00000000000E+00 0.  1.
<scales pt_clust_3="14000.00000" pt_clust_4="84.48683" pt_clust_5="58.76873" pt_clust_6="96.88021"></scales>
<clustering>
<clus scale="   58.769">  2  5  1 -1</clus>
<clus scale="   84.487">  2  4  1 -1</clus>
<clus scale="   96.880">  1  6  2 -1</clus>
<clus scale="   96.880">  1  3  2 -1</clus>
</clustering>
</event>
<event>
 6    0  0.6132510E+002  0.1367988E+03  0.7546771E-02  0.1217702E+00
         21   -1    0    0  504  501  0.00000000000E+00  0.00000000000E+00  0.34784337323E+03  0.34784337323E+03  0.00000000000E+00 0. -1.
         21   -1    0    0  503  502 -0.00000000000E+00 -0.00000000000E+00 -0.28032280179E+03  0.28032280179E+03  0.00000000000E+00 0. -1.
         21    1    1    2  503  501  0.48038161946E+02 -0.34913445646E+02 -0.11299645257E+03  0.12765113389E+03  0.00000000000E+00 0. -1.
         21    1    1    2  504  505  0.11353554144E+03 -0.52838646779E+02  0.12512232344E+03  0.17702496317E+03  0.00000000000E+00 0. -1.
         21    1    1    2  505  506 -0.14567798202E+03  0.42120654561E+02  0.15247671692E+03  0.21504737429E+03  0.00000000000E+00 0. -1.
         21    1    1    2  506  502 -0.15895721364E+02  0.45631437864E+02 -0.97082016348E+02  0.10844270366E+03  0.00000000000E+00 0. -1.
<scales pt_clust_3="37.47956" pt_clust_4="136.79883" pt_clust_5="14000.00000" pt_clust_6="48.32082"></scales>
<clustering>
<clus scale="   48.321">  2  6  1 -1</clus>
<clus scale="   37.480">  2  3  1 -1</clus>
<clus scale="  136.799">  1  4  2 -1</clus>
<clus scale="  136.799">  1  3  2 -1</clus>
</clustering>
</event>
<event>
 6    0  0.6132510E+002  0.8361181E+02  0.7546771E-02  0.1319103E+00
         21   -1    0    0  506  501  0.00000000000E+00  0.00000000000E+00  0.28771474068E+04  0.28771474068E+04  0.00000000000E+00 0. -1.
         21   -1    0    0  503  502 -0.00000000000E+00 -0.00000000000E+00 -0.26684641674E+03  0.26684641674E+03  0.00000000000E+00 0.  1.
         21    1    1    2  503  504  0.22738463888E+02 -0.23975232342E+02 -0.31291591179E+02  0.45508385868E+02  0.00000000000E+00 0.  1.
         21    1    1    2  504  501  0.56337103414E+02 -0.43412500448E+00  0.15578683341E+04  0.15588867195E+04  0.00000000000E+00 0. -1.
         21    1    1    2  505  502 -0.88488651855E+02  0.76031447047E+02 -0.21244305304E+03  0.24236970362E+03  0.00000000000E+00 0.  1.
         21    1    1    2  506  505  0.94130845531E+01 -0.51622089701E+02  0.12961673001E+04  0.12972290146E+04  0.00000000000E+00 0. -1.
<scales pt_clust_3="33.04315" pt_clust_4="83.61181" pt_clust_5="14000.00000" pt_clust_6="52.53760"></scales>
<clustering>
<clus scale="   33.043">  2  3  1 -1</clus>
<clus scale="   52.538">  1  6  2 -1</clus>
<clus scale="   83.612">  1  4  2 -1</clus>
<clus scale="   52.538">  1  3  2 -1</clus>
</clustering>
</event>
<event>
 6    0  0.6132510E+002  0.5898972E+02  0.7546771E-02  0.1402121E+00
         21   -1    0    0  504  501  0.00000000000E+00  0.00000000000E+00  0.13845625585E+03  0.13845625585E+03  0.00000000000E+00 0. -1.
         21   -1    0    0  506  502 -0.00000000000E+00 -0.00000000000E+00 -0.13620662955E+03  0.13620662955E+03  0.00000000000E+00 0. -1.
         21    1    1    2  503  501  0.74568060714E+01 -0.80777980920E+02  0.19279627541E+02  0.83380994215E+02  0.00000000000E+00 0. -1.
         21    1    1    2  504  505  0.34854303855E+02  0.34038178615E+02  0.35065744155E+02  0.60025215650E+02  0.00000000000E+00 0. -1.
         21    1    1    2  505  502  0.26862796087E+02  0.43265062486E+02 -0.26577150085E+02  0.57444062811E+02  0.00000000000E+00 0. -1.
         21    1    1    2  506  503 -0.69173906014E+02  0.34747398185E+01 -0.25518595308E+02  0.73812612719E+02  0.00000000000E+00 0. -1.
<scales pt_clust_3="14000.00000" pt_clust_4="48.71776" pt_clust_5="58.98972" pt_clust_6="57.94326"></scales>
<clustering>
<clus scale="   48.718">  1  4  2 -1</clus>
<clus scale="   58.990">  2  5  1 -1</clus>
<clus scale="   57.943">  2  6  1 -1</clus>
<clus scale="   48.718">  1  3  2 -1</clus>
</clustering>
</event>
<event>
 6    0  0.6132510E+002  0.1819381E+03  0.7546771E-02  0.1165940E+00
         21   -1    0    0  506  501  0.00000000000E+00  0.00000000000E+00  0.11378387035E+04  0.11378387035E+04  0.00000000000E+00 0. -1.
         21   -1    0    0  501  502 -0.00000000000E+00 -0.00000000000E+00 -0.73730736880E+02  0.73730736880E+02  0.00000000000E+00 0.  1.
         21    1    1    2  503  502 -0.48722476542E+02 -0.20160451726E+01  0.24892369622E+02  0.54750107068E+02  0.00000000000E+00 0.  1.
         21    1    1    2  504  503 -0.16686478018E+02  0.14783420647E+03  0.24417603613E+03  0.28592888587E+03  0.00000000000E+00 0.  1.
         21    1    1    2  505  504  0.10075129848E+02 -0.23240725477E+03  0.40020062177E+03  0.46289866923E+03  0.00000000000E+00 0. -1.
         21    1    1    2  506  505  0.55333824712E+02  0.86589093471E+02  0.39483893905E+03  0.40799177818E+03  0.00000000000E+00 0.  1.
<scales pt_clust_3="48.76417" pt_clust_4="181.93808" pt_clust_5="14000.00000" pt_clust_6="99.73543"></scales>
<clustering>
<clus scale="   48.764">  2  3  1 -1</clus>
<clus scale="   99.735">  1  6  2 -1</clus>
<clus scale="  181.938">  2  4  1 -1</clus>
<clus scale="   99.735">  1  3  2 -1</clus>
</clustering>
</event>
<event>
 6    0  0.6132510E+002  0.1081645E+03  0.7546771E-02  0.1264007E+00
         21   -1    0    0  505  501  0.00000000000E+00  0.00000000000E+00  0.14821114088E+03  0.14821114088E+03  0.00000000000E+00 0. -1.
         21   -1    0    0  506  502 -0.00000000000E+00 -0.00000000000E+00 -0.36254570485E+04  0.36254570485E+04  0.00000000000E+00 0.  1.
         21    1    1    2  503  501 -0.10345444282E+03  0.29743936066E+02  0.76227137063E+02  0.13190185706E+03  0.00000000000E+00 0. -1.
         21    1    1    2  504  502 -0.24308356957E+02  0.34885894159E+02 -0.26847766359E+04  0.26851133136E+04  0.00000000000E+00 0.  1.
         21    1    1    2  505  504  0.90852291401E+02 -0.72008694283E+02 -0.33587079279E+02  0.12069582760E+03  0.00000000000E+00 0.  1.
         21    1    1    2  506  503  0.36910508372E+02  0.73788640569E+01 -0.83510932950E+03  0.83595719117E+03  0.00000000000E+00 0.  1.
<scales pt_clust_3="14000.00000" pt_clust_4="43.45866" pt_clust_5="108.16454" pt_clust_6="37.64085"></scales>
<clustering>
<clus scale="   37.641">  2  6  1 -1</clus>
<clus scale="   43.459">  2  4  1 -1</clus>
<clus scale="  108.165">  2  5  1 -1</clus>
<clus scale="  108.165">  1  3  2 -1</clus>
</clustering>
</event>
<event>
 6    0  0.6132510E+002  0.1266763E+03  0.7546771E-02  0.1232472E+00
         21   -1    0    0  506  501  0.00000000000E+00  0.00000000000E+00  0.31980894454E+04  0.31980894454E+04  0.00000000000E+00 0.  1.
         21   -1    0    0  505  502 -0.00000000000E+00 -0.00000000000E+00 -0.50743341368E+02  0.50743341368E+02  0.00000000000E+00 0. -1.
         21    1    1    2  503  501 -0.98749742336E+02  0.11470517138E+03  0.68025712871E+03  0.69689206417E+03  0.00000000000E+00 0. -1.
         21    1    1    2  504  502  0.49924535911E+02 -0.44833089485E+02  0.11769957912E+04  0.11789069335E+04  0.00000000000E+00 0.  1.
         21    1    1    2  505  503  0.42270586157E+02 -0.17798327530E+02 -0.28105097068E+02  0.53791071733E+02  0.00000000000E+00 0. -1.
         21    1    1    2  506  504  0.65546202679E+01 -0.52073754364E+02  0.13181982812E+04  0.13192427174E+04  0.00000000000E+00 0.  1.
<scales pt_clust_3="117.76886" pt_clust_4="41.26876" pt_clust_5="45.86483" pt_clust_6="41.26876"></scales>
<clustering>
<clus scale="   41.269">  4  6 -1 -1</clus>
<clus scale="   45.865">  2  5  1 -1</clus>
<clus scale="  117.769">  2  3  1 -1</clus>
<clus scale="  126.676">  1  3  2 -1</clus>
</clustering>
</event>
<event>
 6    0  0.6132510E+002  0.6058746E+02  0.7546771E-02  0.1395383E+00
         21   -1    0    0  506  501  0.00000000000E+00  0.00000000000E+00  0.53030622297E+03  0.53030622297E+03  0.00000000000E+00 0.  1.
         21   -1    0    0  505  502 -0.00000000000E+00 -0.00000000000E+00 -0.16974501315E+03  0.16974501315E+03  0.00000000000E+00 0.  1.
         21    1    1    2  503  502 -0.48245974238E+02  0.35242720420E+02 -0.13861466815E+03  0.15094286865E+03  0.00000000000E+00 0.  1.
         21    1    1    2  504  503 -0.62274047628E+02  0.24174830896E+02  0.10100786346E+03  0.12109941345E+03  0.00000000000E+00 0.  1.
         21    1    1    2  505  501  0.61406558921E+02 -0.44921928525E+02  0.10094339225E+03  0.12640535424E+03  0.00000000000E+00 0.  1.
         21    1    1    2  506  504  0.49113462945E+02 -0.14495622792E+02  0.29722462225E+03  0.30160359977E+03  0.00000000000E+00 0.  1.
<scales pt_clust_3="60.58746" pt_clust_4="42.30703" pt_clust_5="14000.00000" pt_clust_6="51.20796"></scales>
<clustering>
<clus scale="   51.208">  1  6  2 -1</clus>
<clus scale="   42.307">  1  4  2 -1</clus>
<clus scale="   60.587">  2  3  1 -1</clus>
<clus scale="   51.208">  1  3  2 -1</clus>
</clustering>
</event>
<event>
 6    0  0.6132510E+002  0.1107498E+03  0.7546771E-02  0.1259188E+00
         21   -1    0    0  503  501  0.00000000000E+00  0.00000000000E+00  0.45206992014E+03  0.45206992014E+03  0.00000000000E+00 0.  1.
         21   -1    0    0  504  502 -0.00000000000E+00 -0.00000000000E+00 -0.21391241360E+03  0.21391241360E+03  0.00000000000E+00 0.  1.
         21    1    1    2  503  502  0.11103022899E+03 -0.10002929436E+03 -0.13300130685E+03  0.20005728955E+03  0.00000000000E+00 0.  1.
         21    1    1    2  504  505 -0.52843039166E+02  0.20551454200E+02 -0.19822390673E+02  0.60063934520E+02  0.00000000000E+00 0.  1.
         21    1    1    2  505  506 -0.47504090014E+02  0.29771741540E+02  0.16615736728E+03  0.17536038853E+03  0.00000000000E+00 0.  1.
         21    1    1    2  506  501 -0.10683099812E+02  0.49706098617E+02  0.22482383678E+03  0.23050072113E+03  0.00000000000E+00 0.  1.
<scales pt_clust_3="100.55374" pt_clust_4="56.69876" pt_clust_5="44.20194" pt_clust_6="44.20194"></scales>
<clustering>
<clus scale="   44.202">  5  6 -1 -1</clus>
<clus scale="   56.699">  2  4  1 -1</clus>
<clus scale="  100.554">  2  3  1 -1</clus>
<clus scale="  110.750">  1  3  2 -1</clus>
</clustering>
</event>
<event>
 6    0  0.6132510E+002  0.9841613E+02  0.7546771E-02  0.1283662E+00
         21   -1    0    0  506  501  0.00000000000E+00  0.00000000000E+00  0.27570892467E+02  0.27570892467E+02  0.00000000000E+00 0. -1.
         21   -1    0    0  504  502 -0.00000000000E+00 -0.00000000000E+00 -0.91599764973E+03  0.91599764973E+03  0.00000000000E+00 0.  1.
         21    1    1    2  503  505 -0.99294780442E+02 -0.49401746952E+02 -0.47496232256E+03  0.48773885828E+03  0.00000000000E+00 0.  1.
         21    1    1    2  504  503  0.93798384223E+02 -0.10726483952E+02 -0.34642136309E+03  0.35905564353E+03  0.00000000000E+00 0.  1.
         21    1    1    2  505  501  0.19791335531E+02  0.25394215701E+02 -0.29478911926E+02  0.43652828105E+02  0.00000000000E+00 0. -1.
         21    1    1    2  506  502 -0.14294939312E+02  0.34734015203E+02 -0.37564159684E+02  0.53121212287E+02  0.00000000000E+00 0. -1.
<scales pt_clust_3="14000.00000" pt_clust_4="98.41613" pt_clust_5="32.19570" pt_clust_6="44.89201"></scales>
<clustering>
<clus scale="   32.196">  1  5  2 -1</clus>
<clus scale="   44.892">  1  6  2 -1</clus>
<clus scale="   98.416">  2  4  1 -1</clus>
<clus scale="   32.196">  1  3  2 -1</clus>
</clustering>
</event>
<event>
 6    0  0.6132510E+002  0.9411398E+02  0.7546771E-02  0.1293184E+00
         21   -1    0    0  504  501  0.00000000000E+00  0.00000000000E+00  0.24872864710E+03  0.24872864710E+03  0.00000000000E+00 0. -1.
         21   -1    0    0  503  502 -0.00000000000E+00 -0.00000000000E+00 -0.13451154248E+04  0.13451154248E+04  0.00000000000E+00 0.  1.
         21    1    1    2  503  505  0.65620272550E+01 -0.35400655011E+02 -0.71002490517E+03  0.71093715091E+03  0.00000000000E+00 0.  1.
         21    1    1    2  504  506  0.31833376094E+02 -0.36097216903E+02  0.17513352407E+03  0.18162633112E+03  0.00000000000E+00 0. -1.
         21    1    1    2  505  501  0.53804795596E+02 -0.87224164192E+01  0.52237927531E+02  0.75497269156E+02  0.00000000000E+00 0.  1.
         21    1    1    2  506  502 -0.92200198945E+02  0.80220288334E+02 -0.61373332415E+03  0.62578332074E+03  0.00000000000E+00 0.  1.
<scales pt_clust_3="36.00370" pt_clust_4="48.28683" pt_clust_5="14000.00000" pt_clust_6="94.11398"></scales>
<clustering>
<clus scale="   36.004">  2  3  1 -1</clus>
<clus scale="   48.287">  1  4  2 -1</clus>
<clus scale="   94.114">  2  6  1 -1</clus>
<clus scale="   48.287">  1  3  2 -1</clus>
</clustering>
</event>
<event>
 6    0  0.6132510E+002  0.9851884E+02  0.7546771E-02  0.1283442E+00
         21   -1    0    0  504  501  0.00000000000E+00  0.00000000000E+00  0.15424442770E+03  0.15424442770E+03  0.00000000000E+00 0. -1.
         21   -1    0    0  505  502 -0.00000000000E+00 -0.00000000000E+00 -0.19790901077E+03  0.19790901077E+03  0.00000000000E+00 0. -1.
         21    1    1    2  503  506 -0.25908244471E+02 -0.11893287891E+03 -0.18536514396E+02  0.12312542055E+03  0.00000000000E+00 0. -1.
         21    1    1    2  504  503  0.10000964956E+02  0.61252615105E+02  0.31416798876E+02  0.69562327512E+02  0.00000000000E+00 0. -1.
         21    1    1    2  505  501 -0.42258484370E+02 -0.13500171981E+02  0.10623866054E+02  0.45616890235E+02  0.00000000000E+00 0. -1.
         21    1    1    2  506  502  0.58165763884E+02  0.71180435791E+02 -0.67168733608E+02  0.11384880018E+03  0.00000000000E+00 0. -1.
<scales pt_clust_3="14000.00000" pt_clust_4="56.27484" pt_clust_5="44.36253" pt_clust_6="98.51884"></scales>
<clustering>
<clus scale="   44.363">  1  5  2 -1</clus>
<clus scale="   56.275">  1  4  2 -1</clus>
<clus scale="   98.519">  2  6  1 -1</clus>
<clus scale="   44.363">  1  3  2 -1</clus>
</clustering>
</event>
<event>
 6    0  0.6132510E+002  0.1509337E+03  0.7546771E-02  0.1199330E+00
         21   -1    0    0  504  501  0.00000000000E+00  0.00000000000E+00  0.14016827208E+04  0.14016827208E+04  0.00000000000E+00 0.  1.
         21   -1    0    0  503  502 -0.00000000000E+00 -0.00000000000E+00 -0.41817808344E+03  0.41817808344E+03  0.00000000000E+00 0. -1.
         21    1    1    2  503  506 -0.16719662267E+01  0.41491653392E+02  0.22294639037E+03  0.22678061150E+03  0.00000000000E+00 0.  1.
         21    1    1    2  504  505  0.30478403435E+02 -0.89674371872E+02 -0.12149583937E+03  0.15405085210E+03  0.00000000000E+00 0. -1.
         21    1    1    2  505  502 -0.36613783496E+01 -0.51394017830E+02 -0.27380791038E+03  0.27861357208E+03  0.00000000000E+00 0. -1.
         21    1    1    2  506  501 -0.25145058858E+02  0.99576736311E+02  0.11558619967E+04  0.11604157686E+04  0.00000000000E+00 0.  1.
<scales pt_clust_3="32.30919" pt_clust_4="142.12388" pt_clust_5="51.52427" pt_clust_6="32.30919"></scales>
<clustering>
<clus scale="   32.309">  3  6 -1 -1</clus>
<clus scale="   51.524">  2  5  1 -1</clus>
<clus scale="  142.124">  2  4  1 -1</clus>
<clus scale="  150.934">  1  3  2 -1</clus>
</clustering>
</event>
<event>
 6    0  0.6132510E+002  0.1217407E+03  0.7546771E-02  0.1240253E+00
         21   -1    0    0  506  501  0.00000000000E+00  0.00000000000E+00  0.11568806038E+04  0.11568806038E+04  0.00000000000E+00 0.  1.
         21   -1    0    0  505  502 -0.00000000000E+00 -0.00000000000E+00 -0.28501488006E+03  0.28501488006E+03  0.00000000000E+00 0.  1.
         21    1    1    2  503  502 -0.30936891870E+02  0.54821491483E+02 -0.89410017019E+01  0.63580096873E+02  0.00000000000E+00 0.  1.
         21    1    1    2  504  501  0.13402353067E+03  0.16305423879E+02  0.10001239814E+04  0.10091957945E+04  0.00000000000E+00 0.  1.
         21    1    1    2  505  504 -0.84750368603E+02 -0.88431332678E+01 -0.22750824519E+03  0.24294202521E+03  0.00000000000E+00 0.  1.
         21    1    1    2  506  503 -0.18336270195E+02 -0.62283782094E+02  0.10819098926E+03  0.12617756724E+03  0.00000000000E+00 0.  1.
<scales pt_clust_3="62.94829" pt_clust_4="14000.00000" pt_clust_5="121.74067" pt_clust_6="63.36241"></scales>
<clustering>
<clus scale="   62.948">  2  3  1 -1</clus>
<clus scale="   63.362">  1  6  2 -1</clus>
<clus scale="  121.741">  2  5  1 -1</clus>
<clus scale="   63.362">  1  3  2 -1</clus>
</clustering>
</event>
<event>
 6    0  0.6132510E+002  0.8737512E+02  0.7546771E-02  0.1309336E+00
         21   -1    0    0  505  501  0.00000000000E+00  0.00000000000E+00  0.20330125951E+03  0.20330125951E+03  0.00000000000E+00 0.  1.
         21   -1    0    0  503  502 -0.00000000000E+00 -0.00000000000E+00 -0.45715384431E+03  0.45715384431E+03  0.00000000000E+00 0.  1.
         21    1    1    2  503  504  0.36831819980E+02  0.10601941518E+03 -0.11591156734E+03  0.16134494352E+03  0.00000000000E+00 0.  1.
         21    1    1    2  504  506 -0.61485556677E+02 -0.21862923079E+02  0.10230194368E+02  0.66053901946E+02  0.00000000000E+00 0.  1.
         21    1    1    2  505  502  0.50326968874E+02 -0.35153715941E+02 -0.28181045810E+03  0.28841935066E+03  0.00000000000E+00 0.  1.
         21    1    1    2  506  501 -0.25673232177E+02 -0.49002776158E+02  0.13363924627E+03  0.14463690769E+03  0.00000000000E+00 0.  1.
<scales pt_clust_3="87.37512" pt_clust_4="14000.00000" pt_clust_5="61.81468" pt_clust_6="55.32076"></scales>
<clustering>
<clus scale="   55.321">  1  6  2 -1</clus>
<clus scale="   61.815">  2  5  1 -1</clus>
<clus scale="   87.375">  2  3  1 -1</clus>
<clus scale="   55.321">  1  3  2 -1</clus>
</clustering>
</event>
<event>
 6    0  0.6132510E+002  0.1415318E+03  0.7546771E-02  0.1211283E+00
         21   -1    0    0  503  501  0.00000000000E+00  0.00000000000E+00  0.72599120290E+03  0.72599120290E+03  0.00000000000E+00 0.  1.
         21   -1    0    0  504  502 -0.00000000000E+00 -0.00000000000E+00 -0.49341869928E+02  0.49341869928E+02  0.00000000000E+00 0.  1.
         21    1    1    2  503  502 -0.45576073949E+02  0.38950739220E+02  0.67088249989E+02  0.89973173162E+02  0.00000000000E+00 0.  1.
         21    1    1    2  504  505  0.28974215305E+01 -0.15692446295E+03  0.20062705849E+03  0.25472514348E+03  0.00000000000E+00 0.  1.
         21    1    1    2  505  506 -0.42378879678E+01  0.55297102940E+02  0.14163255222E+03  0.15210361316E+03  0.00000000000E+00 0. -1.
         21    1    1    2  506  501  0.46916540386E+02  0.62676620789E+02  0.26730147227E+03  0.27853114302E+03  0.00000000000E+00 0.  1.
<scales pt_clust_3="59.95280" pt_clust_4="132.48114" pt_clust_5="41.91364" pt_clust_6="41.91364"></scales>
<clustering>
<clus scale="   41.914">  5  6 -1 -1</clus>
<clus scale="   59.953">  2  3  1 -1</clus>
<clus scale="  132.481">  2  4  1 -1</clus>
<clus scale="  141.532">  1  3  2 -1</clus>
</clustering>
</event>
<event>
 6    0  0.6132510E+002  0.1013924E+03  0.7546771E-02  0.1277395E+00
         21   -1    0    0  504  501  0.00000000000E+00  0.00000000000E+00  0.31781571064E+03  0.31781571064E+03  0.00000000000E+00 0. -1.
         21   -1    0    0  503  502 -0.00000000000E+00 -0.00000000000E+00 -0.19089716333E+03  0.19089716333E+03  0.00000000000E+00 0.  1.
         21    1    1    2  503  501 -0.20935994527E+02 -0.35448973055E+02  0.35728600588E+02  0.54511269087E+02  0.00000000000E+00 0.  1.
         21    1    1    2  504  506 -0.26402786312E+02 -0.61630524042E+02  0.20557313778E+03  0.21623076468E+03  0.00000000000E+00 0. -1.
         21    1    1    2  505  502 -0.40079596262E+02  0.10624127688E+02 -0.10705406732E+03  0.11480339479E+03  0.00000000000E+00 0.  1.
         21    1    1    2  506  505  0.87418377101E+02  0.86455369409E+02 -0.73291237502E+01  0.12316744541E+03  0.00000000000E+00 0.  1.
<scales pt_clust_3="41.16972" pt_clust_4="14000.00000" pt_clust_5="41.62609" pt_clust_6="101.39236"></scales>
<clustering>
<clus scale="   41.170">  1  3  2 -1</clus>
<clus scale="   41.626">  2  5  1 -1</clus>
<clus scale="  101.392">  2  6  1 -1</clus>
<clus scale="   41.170">  1  3  2 -1</clus>
</clustering>
</event>
<event>
 6    0  0.6132510E+002  0.1276491E+03  0.7546771E-02  0.1230986E+00
         21   -1    0    0  505  501  0.00000000000E+00  0.00000000000E+00  0.12051137293E+03  0.12051137293E+03  0.00000000000E+00 0.  1.
         21   -1    0    0  506  502 -0.00000000000E+00 -0.00000000000E+00 -0.28484019395E+03  0.28484019395E+03  0.00000000000E+00 0. -1.
         21    1    1    2  503  504  0.40250391881E+02  0.47325725673E+02  0.36661417814E+01  0.62235511989E+02  0.00000000000E+00 0.  1.
         21    1    1    2  504  501  0.45291258863E+02  0.35237586987E+02  0.44634123812E+02  0.72699316878E+02  0.00000000000E+00 0.  1.
         21    1    1    2  505  502 -0.11114005480E+03 -0.66892300789E+02 -0.13515918750E+03  0.18733578850E+03  0.00000000000E+00 0. -1.
         21    1    1    2  506  503  0.25598404058E+02 -0.15671011871E+02 -0.77469899115E+02  0.83080949514E+02  0.00000000000E+00 0. -1.
<scales pt_clust_3="40.09805" pt_clust_4="40.09805" pt_clust_5="120.63946" pt_clust_6="30.01431"></scales>
<clustering>
<clus scale="   30.014">  2  6  1 -1</clus>
<clus scale="   40.098">  3  4 -1 -1</clus>
<clus scale="  120.639">  2  5  1 -1</clus>
<clus scale="  127.649">  1  3  2 -1</clus>
</clustering>
</event>
<event>
 6    0  0.6132510E+002  0.1287457E+03  0.7546771E-02  0.1229329E+00
         21   -1    0    0  504  501  0.00000000000E+00  0.00000000000E+00  0.17852817782E+03  0.17852817782E+03  0.00000000000E+00 0. -1.
         21   -1    0    0  506  502 -0.00000000000E+00 -0.00000000000E+00 -0.60885881678E+03  0.60885881678E+03  0.00000000000E+00 0.  1.
         21    1    1    2  503  501 -0.30895806422E+02  0.50965947001E+02  0.10250096738E+03  0.11856865911E+03  0.00000000000E+00 0. -1.
         21    1    1    2  504  505  0.17826142750E+02  0.29266993511E+02  0.25954965390E+02  0.42988236797E+02  0.00000000000E+00 0. -1.
         21    1    1    2  505  502 -0.11516128667E+03  0.19179818993E+02 -0.27827956019E+03  0.30177723741E+03  0.00000000000E+00 0.  1.
         21    1    1    2  506  503  0.12823095034E+03 -0.99412759505E+02 -0.28050701154E+03  0.32405286128E+03  0.00000000000E+00 0.  1.
<scales pt_clust_3="75.41434" pt_clust_4="34.26847" pt_clust_5="14000.00000" pt_clust_6="128.74568"></scales>
<clustering>
<clus scale="   34.268">  1  4  2 -1</clus>
<clus scale="   75.414">  1  3  2 -1</clus>
<clus scale="  128.746">  1  6  2 -1</clus>
<clus scale="   34.268">  1  3  2 -1</clus>
</clustering>
</event>
<event>
 6    0  0.6132510E+002  0.1440815E+03  0.7546771E-02  0.1207940E+00
         21   -1    0    0  504  501  0.00000000000E+00  0.00000000000E+00  0.10324577819E+04  0.10324577819E+04  0.00000000000E+00 0. -1.
         21   -1    0    0  506  502 -0.00000000000E+00 -0.00000000000E+00 -0.34069195362E+03  0.34069195362E+03  0.00000000000E+00 0. -1.
         21    1    1    2  503  502 -0.93727000573E+02  0.56546694715E+02 -0.35941045794E+02  0.11521301182E+03  0.00000000000E+00 0. -1.
         21    1    1    2  504  505 -0.43802615345E+02  0.12490955407E+02  0.44544798480E+03  0.44777070052E+03  0.00000000000E+00 0. -1.
         21    1    1    2  505  503  0.17243999409E+02  0.50294832249E+02  0.51751817341E+03  0.52024223731E+03  0.00000000000E+00 0. -1.
         21    1    1    2  506  501  0.12028561651E+03 -0.11933248237E+03 -0.23525928410E+03  0.28992378592E+03  0.00000000000E+00 0. -1.
<scales pt_clust_3="144.08152" pt_clust_4="45.54880" pt_clust_5="65.03282" pt_clust_6="14000.00000"></scales>
<clustering>
<clus scale="   45.549">  1  4  2 -1</clus>
<clus scale="   65.033">  1  5  2 -1</clus>
<clus scale="  144.082">  1  3  2 -1</clus>
<clus scale="   45.549">  1  3  2 -1</clus>
</clustering>
</event>
<event>
 6    0  0.6132510E+002  0.5425620E+02  0.7546771E-02  0.1423649E+00
         21   -1    0    0  503  501  0.00000000000E+00  0.00000000000E+00  0.12403424050E+03  0.12403424050E+03  0.00000000000E+00 0. -1.
         21   -1    0    0  504  502 -0.00000000000E+00 -0.00000000000E+00 -0.12000530801E+04  0.12000530801E+04  0.00000000000E+00 0.  1.
         21    1    1    2  503  502 -0.40542147584E+02  0.11150746367E+02 -0.23780744786E+03  0.24149614311E+03  0.00000000000E+00 0.  1.
         21    1    1    2  504  505  0.68257686772E+02 -0.54387587454E+02 -0.88864080844E+03  0.89291634989E+03  0.00000000000E+00 0.  1.
         21    1    1    2  505  506 -0.67688412080E+02  0.46104742913E+02  0.97841605493E+02  0.12759446780E+03  0.00000000000E+00 0. -1.
         21    1    1    2  506  501  0.39972872892E+02 -0.28679018258E+01 -0.47412188818E+02  0.62080359830E+02  0.00000000000E+00 0.  1.
<scales pt_clust_3="41.42670" pt_clust_4="54.25620" pt_clust_5="14000.00000" pt_clust_6="40.07562"></scales>
<clustering>
<clus scale="   40.076">  1  6  2 -1</clus>
<clus scale="   41.427">  2  3  1 -1</clus>
<clus scale="   54.256">  2  4  1 -1</clus>
<clus scale="   40.076">  1  3  2 -1</clus>
</clustering>
</event>
<event>
 6    0  0.6132510E+002  0.1265123E+03  0.7546771E-02  0.1232725E+00
         21   -1    0    0  505  501  0.00000000000E+00  0.00000000000E+00  0.28556735308E+03  0.28556735308E+03  0.00000000000E+00 0.  1.
         21   -1    0    0  503  502 -0.00000000000E+00 -0.00000000000E+00 -0.40553736203E+03  0.40553736203E+03  0.00000000000E+00 0.  1.
         21    1    1    2  503  501 -0.23324227655E+02  0.10190370425E+03  0.74473890341E+02  0.12835398271E+03  0.00000000000E+00 0.  1.
         21    1    1    2  504  502  0.35364077562E+02 -0.27600143986E+02 -0.21024175749E+03  0.21497437643E+03  0.00000000000E+00 0.  1.
         21    1    1    2  505  506 -0.83075143838E+02 -0.47835889959E+02  0.15904845687E+03  0.18570450593E+03  0.00000000000E+00 0.  1.
         21    1    1    2  506  504  0.71035293932E+02 -0.26467670303E+02 -0.14325059866E+03  0.16207185003E+03  0.00000000000E+00 0.  1.
<scales pt_clust_3="114.20377" pt_clust_4="41.87273" pt_clust_5="95.86319" pt_clust_6="41.87273"></scales>
<clustering>
<clus scale="   41.873">  4  6 -1 -1</clus>
<clus scale="   95.863">  1  5  2 -1</clus>
<clus scale="  114.204">  1  3  2 -1</clus>
<clus scale="   95.863">  1  3  2 -1</clus>
</clustering>
</event>
<event>
 6    0  0.9957811E+002  0.9602075E+02  0.7546771E-02  0.1288894E+00
         21   -1    0    0  506  501  0.00000000000E+00  0.00000000000E+00  0.85823364129E+03  0.85823364129E+03  0.00000000000E+00 0. -1.
         21   -1    0    0  505  502 -0.00000000000E+00 -0.00000000000E+00 -0.89277172448E+03  0.89277172448E+03  0.00000000000E+00 0. -1.
         21    1    1    2  503  501  0.20564738999E+02 -0.38788611991E+02  0.13089071688E+03  0.13805739631E+03  0.00000000000E+00 0. -1.
         21    1    1    2  504  503 -0.21369864119E+02 -0.42701858611E+02  0.38474220681E+02  0.61321982016E+02  0.00000000000E+00 0.  1.
         21    1    1    2  505  504  0.74473570139E+02  0.60934413607E+02 -0.87294203186E+03  0.87822952945E+03  0.00000000000E+00 0. -1.
         21    1    1    2  506  502 -0.73668445019E+02  0.20556056995E+02  0.66903901110E+03  0.67339645800E+03  0.00000000000E+00 0. -1.
<scales pt_clust_3="43.90290" pt_clust_4="49.56886" pt_clust_5="96.02075" pt_clust_6="14000.00000"></scales>
<clustering>
<clus scale="   43.903">  1  3  2 -1</clus>
<clus scale="   49.569">  1  4  2 -1</clus>
<clus scale="   96.021">  2  5  1 -1</clus>
<clus scale="   43.903">  1  3  2 -1</clus>
</clustering>
</event>
<event>
 6    0  0.6132510E+002  0.1964671E+03  0.7546771E-02  0.1152754E+00
         21   -1    0    0  505  501  0.00000000000E+00  0.00000000000E+00  0.16094156306E+03  0.16094156306E+03  0.00000000000E+00 0. -1.
         21   -1    0    0  506  502 -0.00000000000E+00 -0.00000000000E+00 -0.83738713419E+03  0.83738713419E+03  0.00000000000E+00 0.  1.
         21    1    1    2  503  504 -0.26876980015E+02  0.10812537182E+03  0.78994591857E+02  0.13657823263E+03  0.00000000000E+00 0. -1.
         21    1    1    2  504  501  0.24306967219E+02  0.67649816808E+02 -0.43338644535E+01  0.72014642613E+02  0.00000000000E+00 0.  1.
         21    1    1    2  505  502  0.36819436461E+02  0.20818702460E+02 -0.95883886578E+02  0.10479889779E+03  0.00000000000E+00 0.  1.
         21    1    1    2  506  503 -0.34249423665E+02 -0.19659389109E+03 -0.65522241195E+03  0.68493692422E+03  0.00000000000E+00 0.  1.
<scales pt_clust_3="68.00425" pt_clust_4="68.00425" pt_clust_5="42.29763" pt_clust_6="177.66841"></scales>
<clustering>
<clus scale="   42.298">  2  5  1 -1</clus>
<clus scale="   68.004">  3  4 -1 -1</clus>
<clus scale="  177.668">  2  6  1 -1</clus>
<clus scale="  196.467">  1  3  2 -1</clus>
</clustering>
</event>
<event>
 6    0  0.6132510E+002  0.8255254E+02  0.7546771E-02  0.1321960E+00
         21   -1    0    0  505  501  0.00000000000E+00  0.00000000000E+00  0.22253635168E+03  0.22253635168E+03  0.00000000000E+00 0.  1.
         21   -1    0    0  504  502 -0.00000000000E+00 -0.00000000000E+00 -0.10820799390E+04  0.10820799390E+04  0.00000000000E+00 0. -1.
         21    1    1    2  503  506  0.75875135762E+02 -0.25097968789E+01  0.21931911035E+02  0.79021161905E+02  0.00000000000E+00 0.  1.
         21    1    1    2  504  501 -0.40861541542E+02 -0.55800210370E+02 -0.88165625677E+03  0.88436479134E+03  0.00000000000E+00 0. -1.
         21    1    1    2  505  503  0.73138334279E+01 -0.32491997687E+02  0.15405660662E+03  0.15761554529E+03  0.00000000000E+00 0.  1.
         21    1    1    2  506  502 -0.42327427647E+02  0.90802004937E+02 -0.15387584818E+03  0.18361479212E+03  0.00000000000E+00 0.  1.
<scales pt_clust_3="14000.00000" pt_clust_4="69.60801" pt_clust_5="33.30499" pt_clust_6="82.55254"></scales>
<clustering>
<clus scale="   33.305">  1  5  2 -1</clus>
<clus scale="   69.608">  2  4  1 -1</clus>
<clus scale="   82.553">  2  6  1 -1</clus>
<clus scale="   33.305">  1  3  2 -1</clus>
</clustering>
</event>
<event>
 6    0  0.6132510E+002  0.8892419E+02  0.7546771E-02  0.1305478E+00
         21   -1    0    0  505  501  0.00000000000E+00  0.00000000000E+00  0.25858019723E+04  0.25858019723E+04  0.00000000000E+00 0. -1.
         21   -1    0    0  506  502 -0.00000000000E+00 -0.00000000000E+00 -0.31595660645E+03  0.31595660645E+03  0.00000000000E+00 0.  1.
         21    1    1    2  503  504  0.13087078143E+03 -0.17249295455E+02  0.19466321524E+04  0.19511026206E+04  0.00000000000E+00 0. -1.
         21    1    1    2  504  501 -0.75444694548E+02  0.12859617332E+02  0.46787375557E+03  0.47409189283E+03  0.00000000000E+00 0.  1.
         21    1    1    2  505  502  0.29962881226E+02  0.28831986768E+02  0.15683724571E+03  0.16225590699E+03  0.00000000000E+00 0.  1.
         21    1    1    2  506  503 -0.85388968109E+02 -0.24442308645E+02 -0.30149778779E+03  0.31430815829E+03  0.00000000000E+00 0.  1.
<scales pt_clust_3="14000.00000" pt_clust_4="72.03294" pt_clust_5="41.58194" pt_clust_6="88.92419"></scales>
<clustering>
<clus scale="   41.582">  1  5  2 -1</clus>
<clus scale="   72.033">  1  4  2 -1</clus>
<clus scale="   88.924">  2  6  1 -1</clus>
<clus scale="   41.582">  1  3  2 -1</clus>
</clustering>
</event>
<event>
 6    0  0.6132510E+002  0.9939675E+02  0.7546771E-02  0.1281570E+00
         21   -1    0    0  506  501  0.00000000000E+00  0.00000000000E+00  0.28669850458E+02  0.28669850458E+02  0.00000000000E+00 0.  1.
         21   -1    0    0  505  502 -0.00000000000E+00 -0.00000000000E+00 -0.85263025100E+03  0.85263025100E+03  0.00000000000E+00 0.  1.
         21    1    1    2  503  501  0.16966842881E+02  0.86258691394E+02 -0.17082163866E+03  0.19211576674E+03  0.00000000000E+00 0.  1.
         21    1    1    2  504  502 -0.91840168773E+02 -0.77503021661E+02 -0.40854193506E+03  0.42584955991E+03  0.00000000000E+00 0.  1.
         21    1    1    2  505  503  0.31618200857E+02 -0.16836827724E+02 -0.18933342644E+03  0.19269233446E+03  0.00000000000E+00 0.  1.
         21    1    1    2  506  504  0.43255125036E+02  0.80811579907E+01 -0.55263400384E+02  0.70642440348E+02  0.00000000000E+00 0.  1.
<scales pt_clust_3="99.39675" pt_clust_4="14000.00000" pt_clust_5="35.82163" pt_clust_6="46.71509"></scales>
<clustering>
<clus scale="   35.822">  2  5  1 -1</clus>
<clus scale="   46.715">  1  6  2 -1</clus>
<clus scale="   99.397">  1  3  2 -1</clus>
<clus scale="   46.715">  1  3  2 -1</clus>
</clustering>
</event>
<event>
 6    0  0.6132510E+002  0.1245219E+03  0.7546771E-02  0.1235818E+00
         21   -1    0    0  505  501  0.00000000000E+00  0.00000000000E+00  0.50444769767E+03  0.50444769767E+03  0.00000000000E+00 0.  1.
         21   -1    0    0  503  502 -0.00000000000E+00 -0.00000000000E+00 -0.88468150756E+02  0.88468150756E+02  0.00000000000E+00 0.  1.
         21    1    1    2  503  501 -0.74619605442E+01 -0.60503779356E+02  0.72657718865E+02  0.94844779941E+02  0.00000000000E+00 0. -1.
         21    1    1    2  504  506 -0.63464798174E+02  0.58821594597E+02  0.29033873547E+03  0.30295930735E+03  0.00000000000E+00 0.  1.
         21    1    1    2  505  504 -0.41404408929E+02  0.35341119150E+01  0.70077838107E+02  0.81472194149E+02  0.00000000000E+00 0.  1.
         21    1    1    2  506  502  0.11233116765E+03 -0.18519271563E+01 -0.17094745528E+02  0.11363956698E+03  0.00000000000E+00 0.  1.
<scales pt_clust_3="60.96219" pt_clust_4="37.96700" pt_clust_5="37.96700" pt_clust_6="111.82131"></scales>
<clustering>
<clus scale="   37.967">  4  5 -1 -1</clus>
<clus scale="   60.962">  1  3  2 -1</clus>
<clus scale="  111.821">  2  6  1 -1</clus>
<clus scale="   60.962">  1  3  2 -1</clus>
</clustering>
</event>
<event>
 6    0  0.6132510E+002  0.8515233E+02  0.7546771E-02  0.1315035E+00
         21   -1    0    0  503  501  0.00000000000E+00  0.00000000000E+00  0.60366301146E+02  0.60366301146E+02  0.00000000000E+00 0. -1.
         21   -1    0    0  505  502 -0.00000000000E+00 -0.00000000000E+00 -0.39025806298E+03  0.39025806298E+03  0.00000000000E+00 0. -1.
         21    1    1    2  503  502  0.39232536856E+02  0.19672760020E+02 -0.52591622427E+02  0.68498818855E+02  0.00000000000E+00 0. -1.
         21    1    1    2  504  506  0.53293290496E+01  0.60464319993E+02 -0.99736849919E+02  0.11675519248E+03  0.00000000000E+00 0.  1.
         21    1    1    2  505  504 -0.66785196230E+02  0.21075840313E+02 -0.13743234268E+03  0.15424688748E+03  0.00000000000E+00 0. -1.
         21    1    1    2  506  501  0.22223330324E+02 -0.10121292033E+03 -0.40130946809E+02  0.11112346531E+03  0.00000000000E+00 0. -1.
<scales pt_clust_3="43.88860" pt_clust_4="85.15233" pt_clust_5="57.70788" pt_clust_6="14000.00000"></scales>
<clustering>
<clus scale="   43.889">  2  3  1 -1</clus>
<clus scale="   57.708">  2  5  1 -1</clus>
<clus scale="   85.152">  2  4  1 -1</clus>
<clus scale="   85.152">  1  3  2 -1</clus>
</clustering>
</event>
<event>
 6    0  0.6132510E+002  0.1172790E+03  0.7546771E-02  0.1247655E+00
         21   -1    0    0  506  501  0.00000000000E+00  0.00000000000E+00  0.16779176769E+04  0.16779176769E+04  0.00000000000E+00 0.  1.
         21   -1    0    0  504  502 -0.00000000000E+00 -0.00000000000E+00 -0.15358372346E+03  0.15358372346E+03  0.00000000000E+00 0.  1.
         21    1    1    2  503  501 -0.36858953821E+02 -0.12134293862E+02  0.11631132515E+03  0.12261381620E+03  0.00000000000E+00 0.  1.
         21    1    1    2  504  503 -0.61896384864E+02  0.70407084724E+01  0.58831142709E+00  0.62298315750E+02  0.00000000000E+00 0.  1.
         21    1    1    2  505  502  0.11023582505E+03 -0.11254602825E+03 -0.64271093408E+02  0.17014499419E+03  0.00000000000E+00 0.  1.
         21    1    1    2  506  505 -0.11480486367E+02  0.11763961364E+03  0.14717054103E+04  0.14764442742E+04  0.00000000000E+00 0.  1.
<scales pt_clust_3="38.80494" pt_clust_4="63.00762" pt_clust_5="14000.00000" pt_clust_6="117.27895"></scales>
<clustering>
<clus scale="   38.805">  1  3  2 -1</clus>
<clus scale="   63.008">  2  4  1 -1</clus>
<clus scale="  117.279">  1  6  2 -1</clus>
<clus scale="   38.805">  1  3  2 -1</clus>
</clustering>
</event>
<event>
 6    0  0.6132510E+002  0.1754371E+03  0.7546771E-02  0.1172294E+00
         21   -1    0    0  504  501  0.00000000000E+00  0.00000000000E+00  0.22736895292E+04  0.22736895292E+04  0.00000000000E+00 0.  1.
         21   -1    0    0  506  502 -0.00000000000E+00 -0.00000000000E+00 -0.49736855456E+02  0.49736855456E+02  0.00000000000E+00 0. -1.
         21    1    1    2  503  502 -0.75993496580E+02  0.23469113669E+01  0.66076170663E+03  0.66512145693E+03  0.00000000000E+00 0.  1.
         21    1    1    2  504  503 -0.86667532743E+02 -0.44253252257E+02  0.13621966760E+04  0.13656681133E+04  0.00000000000E+00 0.  1.
         21    1    1    2  505  501  0.14981096123E+03  0.56058370281E+01  0.20494859170E+03  0.25392651447E+03  0.00000000000E+00 0. -1.
         21    1    1    2  506  505  0.12850068092E+02  0.36300503862E+02 -0.39543005762E+01  0.38710299969E+02  0.00000000000E+00 0. -1.
<scales pt_clust_3="52.69065" pt_clust_4="52.69065" pt_clust_5="165.06742" pt_clust_6="38.50780"></scales>
<clustering>
<clus scale="   38.508">  2  6  1 -1</clus>
<clus scale="   52.691">  3  4 -1 -1</clus>
<clus scale="  165.067">  2  5  1 -1</clus>
<clus scale="  175.437">  1  3  2 -1</clus>
</clustering>
</event>
<event>
 6    0  0.6132510E+002  0.9035870E+02  0.7546771E-02  0.1301985E+00
         21   -1    0    0  504  501  0.00000000000E+00  0.00000000000E+00  0.83809597324E+03  0.83809597324E+03  0.00000000000E+00 0. -1.
         21   -1    0    0  503  502 -0.00000000000E+00 -0.00000000000E+00 -0.74519735088E+02  0.74519735088E+02  0.00000000000E+00 0.  1.
         21    1    1    2  503  506  0.70887156985E+02  0.21360892007E+02 -0.30657344485E+02  0.80132075373E+02  0.00000000000E+00 0.  1.
         21    1    1    2  504  505  0.50767306574E+02 -0.41625453701E+02  0.13750160284E+03  0.15237023527E+03  0.00000000000E+00 0.  1.
         21    1    1    2  505  502 -0.26069874178E+02 -0.26202172804E+02  0.40693026874E+02  0.54973763156E+02  0.00000000000E+00 0. -1.
         21    1    1    2  506  501 -0.95584589381E+02  0.46466734498E+02  0.61603895292E+03  0.62513963452E+03  0.00000000000E+00 0. -1.
<scales pt_clust_3="49.45462" pt_clust_4="14000.00000" pt_clust_5="36.96204" pt_clust_6="90.35870"></scales>
<clustering>
<clus scale="   36.962">  2  5  1 -1</clus>
<clus scale="   49.455">  2  3  1 -1</clus>
<clus scale="   90.359">  1  6  2 -1</clus>
<clus scale="   90.359">  1  3  2 -1</clus>
</clustering>
</event>
<event>
 6    0  0.6132510E+002  0.1883035E+03  0.7546771E-02  0.1160000E+00
         21   -1    0    0  503  501  0.00000000000E+00  0.00000000000E+00  0.23586952598E+03  0.23586952598E+03  0.00000000000E+00 0. -1.
         21   -1    0    0  504  502 -0.00000000000E+00 -0.00000000000E+00 -0.79918691146E+03  0.79918691146E+03  0.00000000000E+00 0.  1.
         21    1    1    2  503  502 -0.20795248470E+02 -0.24183227562E+03 -0.39030663083E+03  0.45962436615E+03  0.00000000000E+00 0.  1.
         21    1    1    2  504  506  0.21875772300E+02  0.69129076618E+02 -0.32810337431E+03  0.33601964657E+03  0.00000000000E+00 0.  1.
         21    1    1    2  505  501 -0.21152482719E+01  0.37278874319E+02  0.70381297283E+02  0.79672553322E+02  0.00000000000E+00 0. -1.
         21    1    1    2  506  505  0.10347244422E+01  0.13542432468E+03  0.84711322380E+02  0.15973987139E+03  0.00000000000E+00 0. -1.
<scales pt_clust_3="178.94460" pt_clust_4="72.50778" pt_clust_5="30.78344" pt_clust_6="30.78344"></scales>
<clustering>
<clus scale="   30.783">  5  6 -1 -1</clus>
<clus scale="   72.508">  2  4  1 -1</clus>
<clus scale="  178.945">  2  3  1 -1</clus>
<clus scale="  188.303">  1  3  2 -1</clus>
</clustering>
</event>
<event>
 6    0  0.6132510E+002  0.1946380E+03  0.7546771E-02  0.1154343E+00
         21   -1    0    0  505  501  0.00000000000E+00  0.00000000000E+00  0.41400488328E+03  0.41400488328E+03  0.00000000000E+00 0.  1.
         21   -1    0    0  506  502 -0.00000000000E+00 -0.00000000000E+00 -0.54454181296E+03  0.54454181296E+03  0.00000000000E+00 0. -1.
         21    1    1    2  503  502 -0.36205936231E+02  0.58400128738E+02 -0.32863874380E+02  0.76167441169E+02  0.00000000000E+00 0. -1.
         21    1    1    2  504  503  0.62472108359E+02  0.62646424086E+02  0.12769772212E+03  0.15535136629E+03  0.00000000000E+00 0. -1.
         21    1    1    2  505  504  0.16271450457E+02  0.10068817214E+03  0.21175441900E+03  0.23503787370E+03  0.00000000000E+00 0.  1.
         21    1    1    2  506  501 -0.42537622584E+02 -0.22173472496E+03 -0.43712519642E+03  0.49199001508E+03  0.00000000000E+00 0. -1.
<scales pt_clust_3="68.71277" pt_clust_4="61.05360" pt_clust_5="61.05360" pt_clust_6="183.26667"></scales>
<clustering>
<clus scale="   61.054">  4  5 -1 -1</clus>
<clus scale="   68.713">  2  3  1 -1</clus>
<clus scale="  183.267">  2  6  1 -1</clus>
<clus scale="  194.638">  1  3  2 -1</clus>
</clustering>
</event>
<event>
 6    0  0.6132510E+002  0.2221822E+03  0.7546771E-02  0.1132266E+00
         21   -1    0    0  504  501  0.00000000000E+00  0.00000000000E+00  0.97647130781E+03  0.97647130781E+03  0.00000000000E+00 0.  1.
         21   -1    0    0  506  502 -0.00000000000E+00 -0.00000000000E+00 -0.35966289443E+03  0.35966289443E+03  0.00000000000E+00 0. -1.
         21    1    1    2  503  505 -0.63853938033E+02 -0.52231922404E+00  0.17991107886E+03  0.19090729299E+03  0.00000000000E+00 0.  1.
         21    1    1    2  504  503 -0.14376198599E+03 -0.63157349331E+02  0.71208948906E+03  0.72919668116E+03  0.00000000000E+00 0.  1.
         21    1    1    2  505  502  0.14061999128E+03 -0.19743230300E+00 -0.28999140232E+03  0.32228719234E+03  0.00000000000E+00 0. -1.
         21    1    1    2  506  501  0.66995932738E+02  0.63877100858E+02  0.14799247779E+02  0.93743035753E+02  0.00000000000E+00 0.  1.
<scales pt_clust_3="39.13879" pt_clust_4="39.13879" pt_clust_5="213.53714" pt_clust_6="92.56748"></scales>
<clustering>
<clus scale="   39.139">  3  4 -1 -1</clus>
<clus scale="   92.567">  2  6  1 -1</clus>
<clus scale="  213.537">  2  5  1 -1</clus>
<clus scale="  222.182">  1  3  2 -1</clus>
</clustering>
</event>
<event>
 6    0  0.6132510E+002  0.1756790E+03  0.7546771E-02  0.1172052E+00
         21   -1    0    0  506  501  0.00000000000E+00  0.00000000000E+00  0.91324051327E+03  0.91324051327E+03  0.00000000000E+00 0. -1.
         21   -1    0    0  504  502 -0.00000000000E+00 -0.00000000000E+00 -0.59635539009E+03  0.59635539009E+03  0.00000000000E+00 0.  1.
         21    1    1    2  503  501  0.10077640068E+03  0.44894310282E+02  0.72722649408E+03  0.73554724914E+03  0.00000000000E+00 0. -1.
         21    1    1    2  504  503 -0.18175846445E+03 -0.10092259367E+03 -0.53346168228E+03  0.57254071976E+03  0.00000000000E+00 0.  1.
         21    1    1    2  505  502  0.16685710213E+02  0.35756617795E+02 -0.19308872505E+02  0.43929274964E+02  0.00000000000E+00 0.  1.
         21    1    1    2  506  505  0.64296353557E+02  0.20271665592E+02  0.14242918388E+03  0.15757865950E+03  0.00000000000E+00 0. -1.
<scales pt_clust_3="175.67902" pt_clust_4="14000.00000" pt_clust_5="39.45819" pt_clust_6="67.77511"></scales>
<clustering>
<clus scale="   39.458">  2  5  1 -1</clus>
<clus scale="   67.775">  1  6  2 -1</clus>
<clus scale="  175.679">  1  3  2 -1</clus>
<clus scale="   67.775">  1  3  2 -1</clus>
</clustering>
</event>
<event>
 6    0  0.6132510E+002  0.7815634E+02  0.7546771E-02  0.1334366E+00
         21   -1    0    0  506  501  0.00000000000E+00  0.00000000000E+00  0.79106939757E+03  0.79106939757E+03  0.00000000000E+00 0.  1.
         21   -1    0    0  503  502 -0.00000000000E+00 -0.00000000000E+00 -0.38145231331E+02  0.38145231331E+02  0.00000000000E+00 0.  1.
         21    1    1    2  503  501  0.62337241959E+02  0.36628548518E+02  0.26776222513E+03  0.27735210746E+03  0.00000000000E+00 0.  1.
         21    1    1    2  504  502  0.18165946017E+02 -0.71810912117E+02  0.54253593278E+02  0.91816453195E+02  0.00000000000E+00 0.  1.
         21    1    1    2  505  504 -0.85844702606E+02  0.52230273161E+01  0.11991649450E+03  0.14756882677E+03  0.00000000000E+00 0.  1.
         21    1    1    2  506  505  0.53415146296E+01  0.29959336283E+02  0.31099185333E+03  0.31247724149E+03  0.00000000000E+00 0.  1.
<scales pt_clust_3="78.15634" pt_clust_4="69.87324" pt_clust_5="14000.00000" pt_clust_6="30.43179"></scales>
<clustering>
<clus scale="   30.432">  1  6  2 -1</clus>
<clus scale="   69.873">  2  4  1 -1</clus>
<clus scale="   78.156">  1  3  2 -1</clus>
<clus scale="   30.432">  1  3  2 -1</clus>
</clustering>
</event>
<event>
 6    0  0.6132510E+002  0.8319972E+02  0.7546771E-02  0.1320209E+00
         21   -1    0    0  503  501  0.00000000000E+00  0.00000000000E+00  0.88349831099E+02  0.88349831099E+02  0.00000000000E+00 0.  1.
         21   -1    0    0  506  502 -0.00000000000E+00 -0.00000000000E+00 -0.48974955284E+03  0.48974955284E+03  0.00000000000E+00 0.  1.
         21    1    1    2  503  504 -0.31895382020E+02 -0.36045285373E+02  0.34274747010E+02  0.59087530617E+02  0.00000000000E+00 0.  1.
         21    1    1    2  504  505  0.39383007483E+02 -0.56650170304E+02 -0.70319597068E+02  0.98514510635E+02  0.00000000000E+00 0.  1.
         21    1    1    2  505  502  0.47226641996E+02  0.95063172105E+01 -0.29419590995E+03  0.29811400372E+03  0.00000000000E+00 0.  1.
         21    1    1    2  506  501 -0.54714267459E+02  0.83189138466E+02 -0.71158961733E+02  0.12238333897E+03  0.00000000000E+00 0.  1.
<scales pt_clust_3="48.13084" pt_clust_4="83.19972" pt_clust_5="46.38953" pt_clust_6="14000.00000"></scales>
<clustering>
<clus scale="   48.131">  1  3  2 -1</clus>
<clus scale="   46.390">  2  5  1 -1</clus>
<clus scale="   83.200">  2  4  1 -1</clus>
<clus scale="   48.131">  1  3  2 -1</clus>
</clustering>
</event>
<event>
 6    0  0.6132510E+002  0.2411519E+03  0.7546771E-02  0.1119028E+00
         21   -1    0    0  502  501  0.00000000000E+00  0.00000000000E+00  0.46304536246E+03  0.46304536246E+03  0.00000000000E+00 0.  1.
         21   -1    0    0  505  502 -0.00000000000E+00 -0.00000000000E+00 -0.15970158785E+03  0.15970158785E+03  0.00000000000E+00 0.  1.
         21    1    1    2  503  501  0.13378225718E+03  0.11110782836E+03  0.11524111986E+03  0.20862204477E+03  0.00000000000E+00 0.  1.
         21    1    1    2  504  503  0.14675438431E+02  0.58453132467E+02  0.98382709588E+02  0.11537458444E+03  0.00000000000E+00 0.  1.
         21    1    1    2  505  506  0.18245528131E+02 -0.24852827499E+02 -0.33835282288E+02  0.45775415443E+02  0.00000000000E+00 0. -1.
         21    1    1    2  506  504 -0.16670322374E+03 -0.14470813333E+03  0.12355522746E+03  0.25297490565E+03  0.00000000000E+00 0.  1.
<scales pt_clust_3="53.85282" pt_clust_4="53.85282" pt_clust_5="30.83119" pt_clust_6="222.72447"></scales>
<clustering>
<clus scale="   30.831">  2  5  1 -1</clus>
<clus scale="   53.853">  3  4 -1 -1</clus>
<clus scale="  222.724">  2  6  1 -1</clus>
<clus scale="  241.152">  1  3  2 -1</clus>
</clustering>
</event>
<event>
 6    0  0.6132510E+002  0.1591796E+03  0.7546771E-02  0.1189626E+00
         21   -1    0    0  506  501  0.00000000000E+00  0.00000000000E+00  0.65618627142E+03  0.65618627142E+03  0.00000000000E+00 0. -1.
         21   -1    0    0  504  502 -0.00000000000E+00 -0.00000000000E+00 -0.77110688030E+02  0.77110688030E+02  0.00000000000E+00 0. -1.
         21    1    1    2  503  502 -0.20506381856E+01  0.30245386021E+02 -0.35413254857E+02  0.46616382443E+02  0.00000000000E+00 0. -1.
         21    1    1    2  504  505 -0.63062356315E+02  0.65166156522E+02  0.13051822394E+03  0.15892921544E+03  0.00000000000E+00 0. -1.
         21    1    1    2  505  501 -0.55356332145E+02  0.17299795937E+01  0.14076924233E+03  0.15127225762E+03  0.00000000000E+00 0. -1.
         21    1    1    2  506  503  0.12046932665E+03 -0.97141522137E+02  0.34320137197E+03  0.37647910395E+03  0.00000000000E+00 0. -1.
<scales pt_clust_3="30.31482" pt_clust_4="48.06499" pt_clust_5="48.06499" pt_clust_6="145.63021"></scales>
<clustering>
<clus scale="   30.315">  2  3  1 -1</clus>
<clus scale="   48.065">  4  5 -1 -1</clus>
<clus scale="  145.630">  1  6  2 -1</clus>
<clus scale="  145.630">  1  3  2 -1</clus>
</clustering>
</event>
<event>
 6    0  0.6132510E+002  0.2007802E+03  0.7546771E-02  0.1149082E+00
         21   -1    0    0  504  501  0.00000000000E+00  0.00000000000E+00  0.12351275562E+04  0.12351275562E+04  0.00000000000E+00 0. -1.
         21   -1    0    0  503  502 -0.00000000000E+00 -0.00000000000E+00 -0.15325536937E+03  0.15325536937E+03  0.00000000000E+00 0.  1.
         21    1    1    2  503  501  0.10928581178E+03  0.20111908003E+02 -0.64169742179E+02  0.12831848391E+03  0.00000000000E+00 0.  1.
         21    1    1    2  504  505  0.32852929726E+02 -0.19894771037E+03  0.85034135802E+03  0.87392215420E+03  0.00000000000E+00 0. -1.
         21    1    1    2  505  506 -0.10867419585E+03  0.17907691641E+03  0.27859204861E+03  0.34855724405E+03  0.00000000000E+00 0.  1.
         21    1    1    2  506  502 -0.33464545658E+02 -0.24111404128E+00  0.17108522425E+02  0.37585043457E+02  0.00000000000E+00 0.  1.
<scales pt_clust_3="89.02960" pt_clust_4="14000.00000" pt_clust_5="200.78016" pt_clust_6="33.46541"></scales>
<clustering>
<clus scale="   33.465">  2  6  1 -1</clus>
<clus scale="   89.030">  2  3  1 -1</clus>
<clus scale="  200.780">  2  5  1 -1</clus>
<clus scale="  200.780">  1  3  2 -1</clus>
</clustering>
</event>
<event>
 6    0  0.6132510E+002  0.2326554E+03  0.7546771E-02  0.1124785E+00
         21   -1    0    0  506  501  0.00000000000E+00  0.00000000000E+00  0.23640084798E+03  0.23640084798E+03  0.00000000000E+00 0.  1.
         21   -1    0    0  505  502 -0.00000000000E+00 -0.00000000000E+00 -0.71089663035E+03  0.71089663035E+03  0.00000000000E+00 0.  1.
         21    1    1    2  503  504  0.43495886674E+02 -0.14249328526E+02  0.20041352008E+02  0.49965901486E+02  0.00000000000E+00 0.  1.
         21    1    1    2  504  502 -0.21323983217E+03 -0.82845126549E+02 -0.57721496756E+03  0.62089585262E+03  0.00000000000E+00 0.  1.
         21    1    1    2  505  501 -0.46026718400E+01  0.32717275597E+02 -0.41402573805E+02  0.52969593431E+02  0.00000000000E+00 0.  1.
         21    1    1    2  506  503  0.17434661733E+03  0.64377179478E+02  0.12408040700E+03  0.22346613080E+03  0.00000000000E+00 0.  1.
<scales pt_clust_3="31.48738" pt_clust_4="223.83632" pt_clust_5="33.03944" pt_clust_6="31.48738"></scales>
<clustering>
<clus scale="   31.487">  3  6 -1 -1</clus>
<clus scale="   33.039">  2  5  1 -1</clus>
<clus scale="  223.836">  2  4  1 -1</clus>
<clus scale="  232.655">  1  3  2 -1</clus>
</clustering>
</event>
<event>
 6    0  0.6132510E+002  0.1533387E+03  0.7546771E-02  0.1196429E+00
         21   -1    0    0  505  501  0.00000000000E+00  0.00000000000E+00  0.91396848911E+03  0.91396848911E+03  0.00000000000E+00 0.  1.
         21   -1    0    0  504  502 -0.00000000000E+00 -0.00000000000E+00 -0.15446276108E+04  0.15446276108E+04  0.00000000000E+00 0. -1.
         21    1    1    2  503  502  0.57105112958E+02  0.18035341076E+02 -0.15340713249E+03  0.16468155863E+03  0.00000000000E+00 0. -1.
         21    1    1    2  504  506  0.90318953860E+02 -0.62885913353E+02 -0.13681705733E+04  0.13725898401E+04  0.00000000000E+00 0. -1.
         21    1    1    2  505  503  0.33818487750E+01  0.66243172705E+02  0.13748429545E+03  0.15264837479E+03  0.00000000000E+00 0. -1.
         21    1    1    2  506  501 -0.15080591559E+03 -0.21392600428E+02  0.75343428861E+03  0.76867632641E+03  0.00000000000E+00 0.  1.
<scales pt_clust_3="59.88545" pt_clust_4="14000.00000" pt_clust_5="66.44465" pt_clust_6="153.33875"></scales>
<clustering>
<clus scale="   59.885">  2  3  1 -1</clus>
<clus scale="   66.445">  1  5  2 -1</clus>
<clus scale="  153.339">  1  6  2 -1</clus>
<clus scale="   66.445">  1  3  2 -1</clus>
</clustering>
</event>
<event>
 6    0  0.6132510E+002  0.1301103E+03  0.7546771E-02  0.1227292E+00
         21   -1    0    0  505  501  0.00000000000E+00  0.00000000000E+00  0.73932339767E+03  0.73932339767E+03  0.00000000000E+00 0.  1.
         21   -1    0    0  503  502 -0.00000000000E+00 -0.00000000000E+00 -0.10361090747E+03  0.10361090747E+03  0.00000000000E+00 0.  1.
         21    1    1    2  503  501  0.17061758737E+02  0.76189497933E+02  0.49421325323E+03  0.50034256553E+03  0.00000000000E+00 0.  1.
         21    1    1    2  504  506 -0.19870454923E+02 -0.15861791888E+03  0.63624391751E+02  0.17205389386E+03  0.00000000000E+00 0.  1.
         21    1    1    2  505  504 -0.31767761346E+02  0.60129254881E+02  0.10218755132E+03  0.12274776413E+03  0.00000000000E+00 0.  1.
         21    1    1    2  506  502  0.34576457532E+02  0.22299166063E+02 -0.24312706109E+02  0.47790081616E+02  0.00000000000E+00 0.  1.
<scales pt_clust_3="14000.00000" pt_clust_4="130.11034" pt_clust_5="68.83085" pt_clust_6="41.14346"></scales>
<clustering>
<clus scale="   41.143">  2  6  1 -1</clus>
<clus scale="   68.831">  1  5  2 -1</clus>
<clus scale="  130.110">  2  4  1 -1</clus>
<clus scale="   68.831">  1  3  2 -1</clus>
</clustering>
</event>
<event>
 6    0  0.6132510E+002  0.9338512E+02  0.7546771E-02  0.1294855E+00
         21   -1    0    0  506  501  0.00000000000E+00  0.00000000000E+00  0.99993354685E+02  0.99993354685E+02  0.00000000000E+00 0. -1.
         21   -1    0    0  505  502 -0.00000000000E+00 -0.00000000000E+00 -0.50928815769E+03  0.50928815769E+03  0.00000000000E+00 0. -1.
         21    1    1    2  503  502  0.14274983431E+02 -0.29344535663E+02 -0.25157608780E+03  0.25368367090E+03  0.00000000000E+00 0. -1.
         21    1    1    2  504  501  0.39976205218E+02  0.67287188217E+02 -0.36407913101E+02  0.86320326796E+02  0.00000000000E+00 0. -1.
         21    1    1    2  505  504 -0.50541689042E+02  0.73195831763E+02 -0.13024280633E+03  0.15771899289E+03  0.00000000000E+00 0. -1.
         21    1    1    2  506  503 -0.37094996066E+01 -0.11113848432E+03  0.89320042307E+01  0.11155852179E+03  0.00000000000E+00 0. -1.
<scales pt_clust_3="32.63245" pt_clust_4="14000.00000" pt_clust_5="70.90744" pt_clust_6="93.38512"></scales>
<clustering>
<clus scale="   32.632">  2  3  1 -1</clus>
<clus scale="   70.907">  2  5  1 -1</clus>
<clus scale="   93.385">  1  6  2 -1</clus>
<clus scale="   93.385">  1  3  2 -1</clus>
</clustering>
</event>
<event>
 6    0  0.6132510E+002  0.9601509E+02  0.7546771E-02  0.1288906E+00
         21   -1    0    0  504  501  0.00000000000E+00  0.00000000000E+00  0.38204044830E+03  0.38204044830E+03  0.00000000000E+00 0. -1.
         21   -1    0    0  505  502 -0.00000000000E+00 -0.00000000000E+00 -0.48568701783E+03  0.48568701783E+03  0.00000000000E+00 0.  1.
         21    1    1    2  503  502 -0.24854039251E+02  0.24548171651E+02 -0.38504537015E+03  0.38662678783E+03  0.00000000000E+00 0.  1.
         21    1    1    2  504  503 -0.41049588234E+02 -0.65249653966E+02  0.22118791010E+02  0.80198671763E+02  0.00000000000E+00 0.  1.
         21    1    1    2  505  506 -0.37048365358E+02  0.12094925374E+02 -0.55875892675E+02  0.68124767726E+02  0.00000000000E+00 0.  1.
         21    1    1    2  506  501  0.10295199284E+03  0.28606556941E+02  0.31515590227E+03  0.33277723881E+03  0.00000000000E+00 0. -1.
<scales pt_clust_3="34.93331" pt_clust_4="96.01509" pt_clust_5="59.17427" pt_clust_6="14000.00000"></scales>
<clustering>
<clus scale="   34.933">  2  3  1 -1</clus>
<clus scale="   59.174">  2  5  1 -1</clus>
<clus scale="   96.015">  2  4  1 -1</clus>
<clus scale="   96.015">  1  3  2 -1</clus>
</clustering>
</event>
<event>
 6    0  0.6132510E+002  0.8486487E+02  0.7546771E-02  0.1315786E+00
         21   -1    0    0  504  501  0.00000000000E+00  0.00000000000E+00  0.19688113574E+03  0.19688113574E+03  0.00000000000E+00 0. -1.
         21   -1    0    0  506  502 -0.00000000000E+00 -0.00000000000E+00 -0.60719256287E+03  0.60719256287E+03  0.00000000000E+00 0. -1.
         21    1    1    2  503  502 -0.30375553654E+02  0.22780160551E+01 -0.46816194579E+03  0.46915186359E+03  0.00000000000E+00 0. -1.
         21    1    1    2  504  505 -0.60045071252E+02 -0.15998235338E+02  0.87094674406E+02  0.10698988936E+03  0.00000000000E+00 0. -1.
         21    1    1    2  505  503  0.10548163484E+03 -0.46447775423E+02 -0.86042759256E+02  0.14383020389E+03  0.00000000000E+00 0. -1.
         21    1    1    2  506  501 -0.15061009937E+02  0.60167994705E+02  0.56798603520E+02  0.84101741772E+02  0.00000000000E+00 0. -1.
<scales pt_clust_3="30.46085" pt_clust_4="14000.00000" pt_clust_5="84.86487" pt_clust_6="63.03339"></scales>
<clustering>
<clus scale="   30.461">  2  3  1 -1</clus>
<clus scale="   63.033">  1  6  2 -1</clus>
<clus scale="   84.865">  2  5  1 -1</clus>
<clus scale="   63.033">  1  3  2 -1</clus>
</clustering>
</event>
<event>
 6    0  0.6132510E+002  0.7619384E+02  0.7546771E-02  0.1340213E+00
         21   -1    0    0  506  501  0.00000000000E+00  0.00000000000E+00  0.40027127846E+02  0.40027127846E+02  0.00000000000E+00 0. -1.
         21   -1    0    0  503  502 -0.00000000000E+00 -0.00000000000E+00 -0.13063618633E+04  0.13063618633E+04  0.00000000000E+00 0. -1.
         21    1    1    2  503  504 -0.16718275426E+02  0.74822297383E+02 -0.96250700096E+03  0.96555559334E+03  0.00000000000E+00 0. -1.
         21    1    1    2  504  505  0.77995475692E+02  0.16420909149E+02 -0.15136992798E+03  0.17107248634E+03  0.00000000000E+00 0. -1.
         21    1    1    2  505  501 -0.51902807243E+02 -0.60052321306E+02 -0.33030183805E+02  0.85971947379E+02  0.00000000000E+00 0. -1.
         21    1    1    2  506  502 -0.93743930234E+01 -0.31190885226E+02 -0.11942762273E+03  0.12378896411E+03  0.00000000000E+00 0. -1.
<scales pt_clust_3="55.11155" pt_clust_4="14000.00000" pt_clust_5="76.19384" pt_clust_6="32.56917"></scales>
<clustering>
<clus scale="   32.569">  2  6  1 -1</clus>
<clus scale="   55.112">  2  3  1 -1</clus>
<clus scale="   76.194">  1  5  2 -1</clus>
<clus scale="   76.194">  1  3  2 -1</clus>
</clustering>
</event>
<event>
 6    0  0.6132510E+002  0.5475650E+02  0.7546771E-02  0.1421254E+00
         21   -1    0    0  504  501  0.00000000000E+00  0.00000000000E+00  0.13689624528E+04  0.13689624528E+04  0.00000000000E+00 0. -1.
         21   -1    0    0  503  502 -0.00000000000E+00 -0.00000000000E+00 -0.30057009684E+03  0.30057009684E+03  0.00000000000E+00 0. -1.
         21    1    1    2  503  501 -0.14100553667E+02  0.83477889166E+02 -0.26506156499E+03  0.27825351179E+03  0.00000000000E+00 0. -1.
         21    1    1    2  504  505  0.22049730127E+02  0.46418134845E+02  0.98302522771E+03  0.98436752900E+03  0.00000000000E+00 0. -1.
         21    1    1    2  505  506 -0.58549404115E+01 -0.84857819517E+02  0.35166694294E+03  0.36180764035E+03  0.00000000000E+00 0.  1.
         21    1    1    2  506  502 -0.20942360484E+01 -0.45038204493E+02 -0.12382497164E+01  0.45103868470E+02  0.00000000000E+00 0. -1.
<scales pt_clust_3="42.55600" pt_clust_4="14000.00000" pt_clust_5="54.75650" pt_clust_6="45.08687"></scales>
<clustering>
<clus scale="   45.087">  2  6  1 -1</clus>
<clus scale="   42.556">  2  3  1 -1</clus>
<clus scale="   54.756">  2  5  1 -1</clus>
<clus scale="   54.756">  1  3  2 -1</clus>
</clustering>
</event>
<event>
 6    0  0.6132510E+002  0.1051045E+03  0.7546771E-02  0.1269914E+00
         21   -1    0    0  504  501  0.00000000000E+00  0.00000000000E+00  0.45171193404E+02  0.45171193404E+02  0.00000000000E+00 0.  1.
         21   -1    0    0  503  502 -0.00000000000E+00 -0.00000000000E+00 -0.12233971023E+04  0.12233971023E+04  0.00000000000E+00 0.  1.
         21    1    1    2  503  505  0.27807450350E+02 -0.15222630316E+02 -0.16525587942E+03  0.16826909536E+03  0.00000000000E+00 0.  1.
         21    1    1    2  504  506  0.66532103764E+02 -0.42550302420E+02 -0.32538480440E+02  0.85415465676E+02  0.00000000000E+00 0.  1.
         21    1    1    2  505  501  0.39657153375E+02  0.27578629492E+02 -0.35311190651E+02  0.59834361396E+02  0.00000000000E+00 0.  1.
         21    1    1    2  506  502 -0.13399670749E+03  0.30194303243E+02 -0.94512035836E+03  0.95504937326E+03  0.00000000000E+00 0.  1.
<scales pt_clust_3="31.70146" pt_clust_4="14000.00000" pt_clust_5="48.95717" pt_clust_6="105.10453"></scales>
<clustering>
<clus scale="   31.701">  2  3  1 -1</clus>
<clus scale="   48.957">  1  5  2 -1</clus>
<clus scale="  105.105">  2  6  1 -1</clus>
<clus scale="   48.957">  1  3  2 -1</clus>
</clustering>
</event>
<event>
 6    0  0.6132510E+002  0.1004251E+03  0.7546771E-02  0.1279405E+00
         21   -1    0    0  504  501  0.00000000000E+00  0.00000000000E+00  0.69215633062E+02  0.69215633062E+02  0.00000000000E+00 0.  1.
         21   -1    0    0  505  502 -0.00000000000E+00 -0.00000000000E+00 -0.10691690477E+04  0.10691690477E+04  0.00000000000E+00 0.  1.
         21    1    1    2  503  502 -0.42507224400E+02  0.78744679961E+02 -0.11415503259E+03  0.14504813068E+03  0.00000000000E+00 0.  1.
         21    1    1    2  504  503 -0.20548665522E+01  0.44844126845E+02  0.23041743152E+02  0.50459291677E+02  0.00000000000E+00 0.  1.
         21    1    1    2  505  506  0.14057374328E+02 -0.10251118689E+03 -0.89842533130E+03  0.90436399151E+03  0.00000000000E+00 0.  1.
         21    1    1    2  506  501  0.30504716624E+02 -0.21077619915E+02 -0.10414793941E+02  0.38513266940E+02  0.00000000000E+00 0.  1.
<scales pt_clust_3="100.42505" pt_clust_4="35.81170" pt_clust_5="14000.00000" pt_clust_6="37.07835"></scales>
<clustering>
<clus scale="   37.078">  1  6  2 -1</clus>
<clus scale="   35.812">  1  4  2 -1</clus>
<clus scale="  100.425">  1  3  2 -1</clus>
<clus scale="   37.078">  1  3  2 -1</clus>
</clustering>
</event>
<event>
 6    0  0.6132510E+002  0.1078826E+03  0.7546771E-02  0.1264542E+00
         21   -1    0    0  504  501  0.00000000000E+00  0.00000000000E+00  0.21332907234E+03  0.21332907234E+03  0.00000000000E+00 0.  1.
         21   -1    0    0  503  502 -0.00000000000E+00 -0.00000000000E+00 -0.22725337957E+03  0.22725337957E+03  0.00000000000E+00 0. -1.
         21    1    1    2  503  501 -0.10557877934E+03 -0.48620004601E+02  0.13754736878E+03  0.18008348662E+03  0.00000000000E+00 0.  1.
         21    1    1    2  504  506  0.15360183081E+02  0.39268316541E+02  0.19797964943E+02  0.46582135246E+02  0.00000000000E+00 0.  1.
         21    1    1    2  505  502  0.58297337971E+02 -0.16623900564E+02 -0.16021966616E+03  0.17130462665E+03  0.00000000000E+00 0. -1.
         21    1    1    2  506  505  0.31921258291E+02  0.25975588624E+02 -0.11049974788E+02  0.42612203394E+02  0.00000000000E+00 0. -1.
<scales pt_clust_3="101.25146" pt_clust_4="36.79061" pt_clust_5="60.62123" pt_clust_6="36.79061"></scales>
<clustering>
<clus scale="   36.791">  4  6 -1 -1</clus>
<clus scale="   60.621">  2  5  1 -1</clus>
<clus scale="  101.251">  1  3  2 -1</clus>
<clus scale="  101.251">  1  3  2 -1</clus>
</clustering>
</event>
<event>
 6    0  0.6132510E+002  0.1246918E+03  0.7546771E-02  0.1235552E+00
         21   -1    0    0  506  501  0.00000000000E+00  0.00000000000E+00  0.15777482531E+03  0.15777482531E+03  0.00000000000E+00 0.  1.
         21   -1    0    0  504  502 -0.00000000000E+00 -0.00000000000E+00 -0.48202519958E+03  0.48202519958E+03  0.00000000000E+00 0.  1.
         21    1    1    2  503  501 -0.35700409899E+02  0.34697799082E+02  0.40017951108E+02  0.63874039632E+02  0.00000000000E+00 0.  1.
         21    1    1    2  504  503 -0.29576613708E+02  0.11671946339E+03 -0.27523282503E+03  0.30041856998E+03  0.00000000000E+00 0.  1.
         21    1    1    2  505  502  0.47657696287E+02 -0.12501756633E+03 -0.15351732268E+03  0.20363746284E+03  0.00000000000E+00 0.  1.
         21    1    1    2  506  505  0.17619327320E+02 -0.26399696137E+02  0.64481822341E+02  0.71869952440E+02  0.00000000000E+00 0.  1.
<scales pt_clust_3="32.02446" pt_clust_4="124.69179" pt_clust_5="14000.00000" pt_clust_6="31.73932"></scales>
<clustering>
<clus scale="   31.739">  1  6  2 -1</clus>
<clus scale="   32.024">  1  3  2 -1</clus>
<clus scale="  124.692">  2  4  1 -1</clus>
<clus scale="   31.739">  1  3  2 -1</clus>
</clustering>
</event>
<event>
 6    0  0.6132510E+002  0.8473208E+02  0.7546771E-02  0.1316135E+00
         21   -1    0    0  503  501  0.00000000000E+00  0.00000000000E+00  0.16629513060E+04  0.16629513060E+04  0.00000000000E+00 0. -1.
         21   -1    0    0  505  502 -0.00000000000E+00 -0.00000000000E+00 -0.45821855267E+03  0.45821855267E+03  0.00000000000E+00 0. -1.
         21    1    1    2  503  504  0.74324852198E+01  0.85360447907E+02  0.15622397645E+04  0.15645877187E+04  0.00000000000E+00 0. -1.
         21    1    1    2  504  502  0.64189320704E+02  0.25773600864E+01 -0.34436659924E+03  0.35030738837E+03  0.00000000000E+00 0. -1.
         21    1    1    2  505  506  0.71521582677E+01 -0.31587577509E+02 -0.81517931020E+02  0.87716027604E+02  0.00000000000E+00 0. -1.
         21    1    1    2  506  501 -0.78773964192E+02 -0.56350230484E+02  0.68377519143E+02  0.11855872399E+03  0.00000000000E+00 0. -1.
<scales pt_clust_3="84.73208" pt_clust_4="75.73506" pt_clust_5="32.38716" pt_clust_6="14000.00000"></scales>
<clustering>
<clus scale="   32.387">  2  5  1 -1</clus>
<clus scale="   75.735">  2  4  1 -1</clus>
<clus scale="   84.732">  1  3  2 -1</clus>
<clus scale="   84.732">  1  3  2 -1</clus>
</clustering>
</event>
<event>
 6    0  0.1045986E+003  0.9165428E+02  0.7546771E-02  0.1298894E+00
         21   -1    0    0  504  501  0.00000000000E+00  0.00000000000E+00  0.45100802967E+03  0.45100802967E+03  0.00000000000E+00 0.  1.
         21   -1    0    0  505  502 -0.00000000000E+00 -0.00000000000E+00 -0.56271009168E+03  0.56271009168E+03  0.00000000000E+00 0. -1.
         21    1    1    2  503  501  0.73025031783E+02  0.15683650453E+03  0.35842527879E+03  0.39799374982E+03  0.00000000000E+00 0.  1.
         21    1    1    2  504  506 -0.30281840742E+02  0.36363341626E+00  0.20272470790E+01  0.30351801243E+02  0.00000000000E+00 0.  1.
         21    1    1    2  505  503 -0.54285795038E+02 -0.72780705281E+02 -0.48998125912E+03  0.49832279989E+03  0.00000000000E+00 0. -1.
         21    1    1    2  506  502  0.11542603997E+02 -0.84419432665E+02  0.17826671229E+02  0.87049770394E+02  0.00000000000E+00 0.  1.
<scales pt_clust_3="91.65428" pt_clust_4="30.28402" pt_clust_5="14000.00000" pt_clust_6="84.74374"></scales>
<clustering>
<clus scale="   30.284">  1  4  2 -1</clus>
<clus scale="   84.744">  1  6  2 -1</clus>
<clus scale="   91.654">  1  3  2 -1</clus>
<clus scale="   30.284">  1  3  2 -1</clus>
</clustering>
</event>
<event>
 6    0  0.6132510E+002  0.7180427E+02  0.7546771E-02  0.1354063E+00
         21   -1    0    0  503  501  0.00000000000E+00  0.00000000000E+00  0.86433003057E+03  0.86433003057E+03  0.00000000000E+00 0.  1.
         21   -1    0    0  506  502 -0.00000000000E+00 -0.00000000000E+00 -0.30695348512E+02  0.30695348512E+02  0.00000000000E+00 0.  1.
         21    1    1    2  503  504 -0.17271612247E+02 -0.11890256751E+03  0.48790483113E+03  0.50248109754E+03  0.00000000000E+00 0.  1.
         21    1    1    2  504  502  0.23753034240E+02  0.61783017350E+02  0.42441618579E+02  0.78629758083E+02  0.00000000000E+00 0.  1.
         21    1    1    2  505  501 -0.29941233408E+02  0.21927270515E+02  0.11135408719E+03  0.11737553146E+03  0.00000000000E+00 0. -1.
         21    1    1    2  506  505  0.23459811416E+02  0.35192279649E+02  0.19193414516E+03  0.19653899200E+03  0.00000000000E+00 0.  1.
<scales pt_clust_3="71.80427" pt_clust_4="14000.00000" pt_clust_5="37.11176" pt_clust_6="43.78490"></scales>
<clustering>
<clus scale="   37.112">  1  5  2 -1</clus>
<clus scale="   43.785">  1  6  2 -1</clus>
<clus scale="   71.804">  1  3  2 -1</clus>
<clus scale="   37.112">  1  3  2 -1</clus>
</clustering>
</event>
<event>
 6    0  0.6132510E+002  0.1251841E+03  0.7546771E-02  0.1234782E+00
         21   -1    0    0  506  501  0.00000000000E+00  0.00000000000E+00  0.99705863693E+02  0.99705863693E+02  0.00000000000E+00 0.  1.
         21   -1    0    0  503  502 -0.00000000000E+00 -0.00000000000E+00 -0.26173171427E+03  0.26173171427E+03  0.00000000000E+00 0.  1.
         21    1    1    2  503  501 -0.11552097877E+03 -0.68356394705E+02 -0.87540325084E+02  0.16025293054E+03  0.00000000000E+00 0.  1.
         21    1    1    2  504  502  0.69182228700E+02  0.10005114576E+03 -0.56736665172E+02  0.13422168868E+03  0.00000000000E+00 0.  1.
         21    1    1    2  505  504  0.33561552349E+02 -0.40330525800E+01 -0.12522064016E+02  0.36047820966E+02  0.00000000000E+00 0.  1.
         21    1    1    2  506  505  0.12777197717E+02 -0.27661698477E+02 -0.52267963056E+01  0.30915137777E+02  0.00000000000E+00 0. -1.
<scales pt_clust_3="125.18413" pt_clust_4="14000.00000" pt_clust_5="64.56792" pt_clust_6="30.28014"></scales>
<clustering>
<clus scale="   30.280">  5  6 -1 -1</clus>
<clus scale="   64.568">  1  5  2 -1</clus>
<clus scale="  125.184">  2  3  1 -1</clus>
<clus scale="   64.568">  1  3  2 -1</clus>
</clustering>
</event>
<event>
 6    0  0.6132510E+002  0.6772957E+02  0.7546771E-02  0.1367988E+00
         21   -1    0    0  503  501  0.00000000000E+00  0.00000000000E+00  0.30198854750E+02  0.30198854750E+02  0.00000000000E+00 0. -1.
         21   -1    0    0  506  502 -0.00000000000E+00 -0.00000000000E+00 -0.14634665622E+04  0.14634665622E+04  0.00000000000E+00 0. -1.
         21    1    1    2  503  502  0.40828937923E+02  0.65382831655E+02 -0.88019345792E+02  0.11700137641E+03  0.00000000000E+00 0. -1.
         21    1    1    2  504  505 -0.31300709063E+00 -0.81247171310E+02 -0.33969475009E+03  0.34927599983E+03  0.00000000000E+00 0. -1.
         21    1    1    2  505  501 -0.42098901504E+02 -0.43024087157E+02 -0.80786320056E+02  0.10074631056E+03  0.00000000000E+00 0. -1.
         21    1    1    2  506  504  0.15829706718E+01  0.58888426813E+02 -0.92476729154E+03  0.92664173018E+03  0.00000000000E+00 0. -1.
<scales pt_clust_3="14000.00000" pt_clust_4="43.52944" pt_clust_5="67.72957" pt_clust_6="58.90970"></scales>
<clustering>
<clus scale="   58.910">  2  6  1 -1</clus>
<clus scale="   43.529">  2  4  1 -1</clus>
<clus scale="   67.730">  1  5  2 -1</clus>
<clus scale="   67.730">  1  3  2 -1</clus>
</clustering>
</event>
<event>
 6    0  0.6132510E+002  0.1137559E+03  0.7546771E-02  0.1253769E+00
         21   -1    0    0  506  501  0.00000000000E+00  0.00000000000E+00  0.15675498585E+03  0.15675498585E+03  0.00000000000E+00 0. -1.
         21   -1    0    0  503  502 -0.00000000000E+00 -0.00000000000E+00 -0.38253957145E+03  0.38253957145E+03  0.00000000000E+00 0. -1.
         21    1    1    2  503  501 -0.58006615722E+02 -0.54382881660E+01 -0.62342104644E+02  0.85328075433E+02  0.00000000000E+00 0. -1.
         21    1    1    2  504  505 -0.15672165746E+02 -0.43872060612E+02  0.34798271269E+02  0.58148896506E+02  0.00000000000E+00 0. -1.
         21    1    1    2  505  502  0.40648770204E+02  0.10684163713E+03 -0.27294116438E+03  0.29591271882E+03  0.00000000000E+00 0. -1.
         21    1    1    2  506  504  0.33030011264E+02 -0.57531288354E+02  0.74700412153E+02  0.99904866546E+02  0.00000000000E+00 0. -1.
<scales pt_clust_3="58.26099" pt_clust_4="41.11466" pt_clust_5="102.63185" pt_clust_6="41.11466"></scales>
<clustering>
<clus scale="   41.115">  4  6 -1 -1</clus>
<clus scale="   58.261">  2  3  1 -1</clus>
<clus scale="  102.632">  2  5  1 -1</clus>
<clus scale="  113.756">  1  3  2 -1</clus>
</clustering>
</event>
<event>
 6    0  0.6132510E+002  0.2021461E+03  0.7546771E-02  0.1147941E+00
         21   -1    0    0  503  501  0.00000000000E+00  0.00000000000E+00  0.24891856813E+03  0.24891856813E+03  0.00000000000E+00 0. -1.
         21   -1    0    0  501  502 -0.00000000000E+00 -0.00000000000E+00 -0.48812189308E+03  0.48812189308E+03  0.00000000000E+00 0.  1.
         21    1    1    2  503  505  0.90880206704E+01  0.11418835141E+03  0.10851345021E+03  0.15778701022E+03  0.00000000000E+00 0. -1.
         21    1    1    2  504  506 -0.48330045390E+02 -0.44297549159E+02 -0.76424552837E+02  0.10069150126E+03  0.00000000000E+00 0. -1.
         21    1    1    2  505  504  0.73922021681E+02  0.46651931290E+02  0.72711777580E+02  0.11370079411E+03  0.00000000000E+00 0. -1.
         21    1    1    2  506  502 -0.34679996961E+02 -0.11654273354E+03 -0.34400399991E+03  0.36486115562E+03  0.00000000000E+00 0.  1.
<scales pt_clust_3="78.63326" pt_clust_4="62.38748" pt_clust_5="78.63326" pt_clust_6="199.94776"></scales>
<clustering>
<clus scale="   62.387">  4  6 -1 -1</clus>
<clus scale="   78.633">  3  5 -1 -1</clus>
<clus scale="  199.948">  2  4  1 -1</clus>
<clus scale="  202.146">  1  3  2 -1</clus>
</clustering>
</event>
<event>
 6    0  0.6132510E+002  0.8957521E+02  0.7546771E-02  0.1303884E+00
         21   -1    0    0  505  501  0.00000000000E+00  0.00000000000E+00  0.56708764478E+03  0.56708764478E+03  0.00000000000E+00 0.  1.
         21   -1    0    0  503  502 -0.00000000000E+00 -0.00000000000E+00 -0.23563440546E+03  0.23563440546E+03  0.00000000000E+00 0. -1.
         21    1    1    2  503  504 -0.55788464242E+01 -0.78228615327E+02 -0.10243528323E+03  0.12901095703E+03  0.00000000000E+00 0. -1.
         21    1    1    2  504  506 -0.88262627330E+02  0.70692324313E+02 -0.85717487118E+02  0.14189849787E+03  0.00000000000E+00 0. -1.
         21    1    1    2  505  502  0.50072702079E+02  0.70118100131E+01  0.41974891279E+03  0.42278314863E+03  0.00000000000E+00 0.  1.
         21    1    1    2  506  501  0.43768771676E+02  0.52448100088E+00  0.99857096875E+02  0.10902944671E+03  0.00000000000E+00 0.  1.
<scales pt_clust_3="78.33286" pt_clust_4="14000.00000" pt_clust_5="89.57521" pt_clust_6="43.77191"></scales>
<clustering>
<clus scale="   43.772">  1  6  2 -1</clus>
<clus scale="   78.333">  2  3  1 -1</clus>
<clus scale="   89.575">  1  5  2 -1</clus>
<clus scale="   43.772">  1  3  2 -1</clus>
</clustering>
</event>
<event>
 6    0  0.6132510E+002  0.8529136E+02  0.7546771E-02  0.1314672E+00
         21   -1    0    0  506  501  0.00000000000E+00  0.00000000000E+00  0.11288764611E+03  0.11288764611E+03  0.00000000000E+00 0. -1.
         21   -1    0    0  504  502 -0.00000000000E+00 -0.00000000000E+00 -0.32149371667E+03  0.32149371667E+03  0.00000000000E+00 0. -1.
         21    1    1    2  503  505  0.11831429341E+03 -0.44428987491E+01 -0.20200096502E+03  0.23414184001E+03  0.00000000000E+00 0. -1.
         21    1    1    2  504  501 -0.36355074678E+02  0.47637588442E+01  0.61637502508E+02  0.71718662624E+02  0.00000000000E+00 0. -1.
         21    1    1    2  505  502 -0.27840463956E+02 -0.29693133526E+02 -0.49644563013E+02  0.64197790061E+02  0.00000000000E+00 0. -1.
         21    1    1    2  506  503 -0.54118754780E+02  0.29372273431E+02 -0.18598045035E+02  0.64323070080E+02  0.00000000000E+00 0. -1.
<scales pt_clust_3="85.29136" pt_clust_4="36.66585" pt_clust_5="44.32071" pt_clust_6="14000.00000"></scales>
<clustering>
<clus scale="   36.666">  1  4  2 -1</clus>
<clus scale="   44.321">  2  5  1 -1</clus>
<clus scale="   85.291">  2  3  1 -1</clus>
<clus scale="   36.666">  1  3  2 -1</clus>
</clustering>
</event>
<event>
 6    0  0.6132510E+002  0.1355563E+03  0.7546771E-02  0.1219436E+00
         21   -1    0    0  506  501  0.00000000000E+00  0.00000000000E+00  0.86725491387E+03  0.86725491387E+03  0.00000000000E+00 0. -1.
         21   -1    0    0  504  502 -0.00000000000E+00 -0.00000000000E+00 -0.51475647557E+03  0.51475647557E+03  0.00000000000E+00 0.  1.
         21    1    1    2  503  501  0.30950101848E+02  0.26518811400E+02  0.21563202916E+03  0.21945005847E+03  0.00000000000E+00 0. -1.
         21    1    1    2  504  505  0.74617064789E+01 -0.37863593143E+02 -0.48038790264E+03  0.48193554108E+03  0.00000000000E+00 0.  1.
         21    1    1    2  505  503  0.11794070453E+03  0.37572486811E+02  0.21238408025E+03  0.24582249509E+03  0.00000000000E+00 0. -1.
         21    1    1    2  506  502 -0.15635251286E+03 -0.26227705069E+02  0.40487023153E+03  0.43480329480E+03  0.00000000000E+00 0. -1.
<scales pt_clust_3="39.72526" pt_clust_4="38.59182" pt_clust_5="14000.00000" pt_clust_6="135.55632"></scales>
<clustering>
<clus scale="   38.592">  2  4  1 -1</clus>
<clus scale="   39.725">  1  3  2 -1</clus>
<clus scale="  135.556">  1  6  2 -1</clus>
<clus scale="   39.725">  1  3  2 -1</clus>
</clustering>
</event>
<event>
 6    0  0.6132510E+002  0.9036997E+02  0.7546771E-02  0.1301958E+00
         21   -1    0    0  504  501  0.00000000000E+00  0.00000000000E+00  0.24352249018E+04  0.24352249018E+04  0.00000000000E+00 0. -1.
         21   -1    0    0  503  502 -0.00000000000E+00 -0.00000000000E+00 -0.17272730395E+03  0.17272730395E+03  0.00000000000E+00 0.  1.
         21    1    1    2  503  505  0.36484550133E+02  0.74907218802E+01  0.25269791405E+02  0.45008839914E+02  0.00000000000E+00 0.  1.
         21    1    1    2  504  506  0.28593928534E+02  0.44771322776E+02  0.68172370932E+03  0.68379039182E+03  0.00000000000E+00 0.  1.
         21    1    1    2  505  501  0.46729614566E+02  0.98204515671E+01  0.16916719107E+04  0.16923456950E+04  0.00000000000E+00 0. -1.
         21    1    1    2  506  502 -0.11180809323E+03 -0.62082496224E+02 -0.13616781353E+03  0.18680727901E+03  0.00000000000E+00 0.  1.
<scales pt_clust_3="37.24558" pt_clust_4="14000.00000" pt_clust_5="47.82742" pt_clust_6="90.36997"></scales>
<clustering>
<clus scale="   37.246">  2  3  1 -1</clus>
<clus scale="   47.827">  1  5  2 -1</clus>
<clus scale="   90.370">  2  6  1 -1</clus>
<clus scale="   47.827">  1  3  2 -1</clus>
</clustering>
</event>
<event>
 6    0  0.6132510E+002  0.1214880E+03  0.7546771E-02  0.1240662E+00
         21   -1    0    0  506  501  0.00000000000E+00  0.00000000000E+00  0.19291224524E+04  0.19291224524E+04  0.00000000000E+00 0. -1.
         21   -1    0    0  505  502 -0.00000000000E+00 -0.00000000000E+00 -0.71072679279E+02  0.71072679279E+02  0.00000000000E+00 0. -1.
         21    1    1    2  503  501 -0.47430937030E+02 -0.64374347524E+02  0.79340380812E+03  0.79742294495E+03  0.00000000000E+00 0. -1.
         21    1    1    2  504  503  0.32357678603E+01 -0.44272325980E+02  0.88151984176E+03  0.88263681118E+03  0.00000000000E+00 0. -1.
         21    1    1    2  505  504  0.68262441092E+02  0.49254266870E+02  0.22724415335E+03  0.24233375518E+03  0.00000000000E+00 0.  1.
         21    1    1    2  506  502 -0.24067271922E+02  0.59392406634E+02 -0.44118030132E+02  0.77801620332E+02  0.00000000000E+00 0. -1.
<scales pt_clust_3="43.91729" pt_clust_4="43.91729" pt_clust_5="106.23139" pt_clust_6="64.08347"></scales>
<clustering>
<clus scale="   43.917">  3  4 -1 -1</clus>
<clus scale="   64.083">  2  6  1 -1</clus>
<clus scale="  106.231">  2  5  1 -1</clus>
<clus scale="  121.488">  1  3  2 -1</clus>
</clustering>
</event>
<event>
 6    0  0.6132510E+002  0.1121431E+03  0.7546771E-02  0.1256652E+00
         21   -1    0    0  505  501  0.00000000000E+00  0.00000000000E+00  0.40686052574E+03  0.40686052574E+03  0.00000000000E+00 0. -1.
         21   -1    0    0  503  502 -0.00000000000E+00 -0.00000000000E+00 -0.66938493977E+03  0.66938493977E+03  0.00000000000E+00 0. -1.
         21    1    1    2  503  501 -0.37094830408E+02 -0.28061334699E+01 -0.23377260195E+03  0.23671402631E+03  0.00000000000E+00 0. -1.
         21    1    1    2  504  506 -0.32407577469E+02  0.96926687590E+01  0.75295001759E+02  0.82544146945E+02  0.00000000000E+00 0. -1.
         21    1    1    2  505  504 -0.36842421338E+02  0.63619682735E+02  0.31265819050E+03  0.32118526138E+03  0.00000000000E+00 0. -1.
         21    1    1    2  506  502  0.10634482922E+03 -0.70506218025E+02 -0.41670500433E+03  0.43580203088E+03  0.00000000000E+00 0. -1.
<scales pt_clust_3="37.20082" pt_clust_4="32.66829" pt_clust_5="32.66829" pt_clust_6="101.27483"></scales>
<clustering>
<clus scale="   32.668">  4  5 -1 -1</clus>
<clus scale="   37.201">  2  3  1 -1</clus>
<clus scale="  101.275">  2  6  1 -1</clus>
<clus scale="  112.143">  1  3  2 -1</clus>
</clustering>
</event>
<event>
 6    0  0.6132510E+002  0.1157306E+03  0.7546771E-02  0.1250311E+00
         21   -1    0    0  506  501  0.00000000000E+00  0.00000000000E+00  0.23364482245E+04  0.23364482245E+04  0.00000000000E+00 0. -1.
         21   -1    0    0  504  502 -0.00000000000E+00 -0.00000000000E+00 -0.16624607591E+02  0.16624607591E+02  0.00000000000E+00 0. -1.
         21    1    1    2  503  501 -0.25523084951E+02 -0.21349000874E+02  0.78647472218E+03  0.78717831292E+03  0.00000000000E+00 0. -1.
         21    1    1    2  504  503  0.25538616884E+02 -0.82464419200E+02  0.10307525031E+04  0.10343613121E+04  0.00000000000E+00 0. -1.
         21    1    1    2  505  502  0.25016606252E+02  0.12453741361E+03  0.29183937697E+03  0.31828543782E+03  0.00000000000E+00 0. -1.
         21    1    1    2  506  505 -0.25032138185E+02 -0.20723993535E+02  0.21075701468E+03  0.21324776924E+03  0.00000000000E+00 0.  1.
<scales pt_clust_3="45.31067" pt_clust_4="14000.00000" pt_clust_5="115.73063" pt_clust_6="32.49757"></scales>
<clustering>
<clus scale="   32.498">  1  6  2 -1</clus>
<clus scale="   45.311">  1  3  2 -1</clus>
<clus scale="  115.731">  2  5  1 -1</clus>
<clus scale="   32.498">  1  3  2 -1</clus>
</clustering>
</event>
<event>
 6    0  0.6132510E+002  0.1004670E+03  0.7546771E-02  0.1279317E+00
         21   -1    0    0  505  501  0.00000000000E+00  0.00000000000E+00  0.30074735564E+03  0.30074735564E+03  0.00000000000E+00 0. -1.
         21   -1    0    0  503  502 -0.00000000000E+00 -0.00000000000E+00 -0.20251425821E+03  0.20251425821E+03  0.00000000000E+00 0. -1.
         21    1    1    2  503  506 -0.30181963522E+02  0.39304389563E+02 -0.13909248280E+03  0.14765671245E+03  0.00000000000E+00 0. -1.
         21    1    1    2  504  502  0.23839856667E+02  0.75564730274E+02  0.18534155734E+02  0.81374947963E+02  0.00000000000E+00 0. -1.
         21    1    1    2  505  504 -0.30072683210E+02 -0.11594906026E+03  0.20027462960E+03  0.23336340354E+03  0.00000000000E+00 0. -1.
         21    1    1    2  506  501  0.36414790065E+02  0.10799404263E+01  0.18516794891E+02  0.40866549889E+02  0.00000000000E+00 0. -1.
<scales pt_clust_3="49.22126" pt_clust_4="14000.00000" pt_clust_5="100.46701" pt_clust_6="36.43080"></scales>
<clustering>
<clus scale="   36.431">  1  6  2 -1</clus>
<clus scale="   49.221">  2  3  1 -1</clus>
<clus scale="  100.467">  1  5  2 -1</clus>
<clus scale="   36.431">  1  3  2 -1</clus>
</clustering>
</event>
<event>
 6    0  0.6132510E+002  0.2257017E+03  0.7546771E-02  0.1129702E+00
         21   -1    0    0  506  501  0.00000000000E+00  0.00000000000E+00  0.79929909326E+03  0.79929909326E+03  0.00000000000E+00 0. -1.
         21   -1    0    0  504  502 -0.00000000000E+00 -0.00000000000E+00 -0.15361517458E+03  0.15361517458E+03  0.00000000000E+00 0.  1.
         21    1    1    2  503  501 -0.43891024388E+02 -0.27697860741E+02  0.10770309968E+02  0.53005594876E+02  0.00000000000E+00 0.  1.
         21    1    1    2  504  505 -0.41617995835E+02 -0.92187419884E+00 -0.27109353716E+02  0.49677202903E+02  0.00000000000E+00 0.  1.
         21    1    1    2  505  503 -0.74519259306E+02 -0.99271721726E+02 -0.30686803296E+02  0.12786584626E+03  0.00000000000E+00 0.  1.
         21    1    1    2  506  502  0.16002827953E+03  0.12789145667E+03  0.69270976572E+03  0.72236562381E+03  0.00000000000E+00 0. -1.
<scales pt_clust_3="30.15992" pt_clust_4="38.03278" pt_clust_5="38.03278" pt_clust_6="204.85428"></scales>
<clustering>
<clus scale="   30.160">  3  5 -1 -1</clus>
<clus scale="   38.033">  3  4 -1 -1</clus>
<clus scale="  204.854">  1  6  2 -1</clus>
<clus scale="  204.854">  1  3  2 -1</clus>
</clustering>
</event>
<event>
 6    0  0.6132510E+002  0.9605576E+02  0.7546771E-02  0.1288816E+00
         21   -1    0    0  502  501  0.00000000000E+00  0.00000000000E+00  0.95807101317E+02  0.95807101317E+02  0.00000000000E+00 0. -1.
         21   -1    0    0  505  502 -0.00000000000E+00 -0.00000000000E+00 -0.60151585130E+03  0.60151585130E+03  0.00000000000E+00 0. -1.
         21    1    1    2  503  506 -0.59372363953E+02  0.69968817160E+02 -0.17085927766E+03  0.19394227425E+03  0.00000000000E+00 0. -1.
         21    1    1    2  504  501  0.99684505658E+02  0.22675185650E+02  0.15813617832E+01  0.10224316807E+03  0.00000000000E+00 0. -1.
         21    1    1    2  505  503  0.30980180014E+02 -0.31472726860E+02 -0.29530796576E+03  0.29859185978E+03  0.00000000000E+00 0. -1.
         21    1    1    2  506  504 -0.71292321720E+02 -0.61171275950E+02 -0.41122868340E+02  0.10254565051E+03  0.00000000000E+00 0. -1.
<scales pt_clust_3="65.41744" pt_clust_4="14000.00000" pt_clust_5="44.16225" pt_clust_6="96.05576"></scales>
<clustering>
<clus scale="   44.162">  2  5  1 -1</clus>
<clus scale="   65.417">  2  3  1 -1</clus>
<clus scale="   96.056">  2  6  1 -1</clus>
<clus scale="   96.056">  1  3  2 -1</clus>
</clustering>
</event>
<event>
 6    0  0.6132510E+002  0.1161610E+03  0.7546771E-02  0.1249568E+00
         21   -1    0    0  504  501  0.00000000000E+00  0.00000000000E+00  0.13514309994E+03  0.13514309994E+03  0.00000000000E+00 0. -1.
         21   -1    0    0  506  502 -0.00000000000E+00 -0.00000000000E+00 -0.52164065988E+03  0.52164065988E+03  0.00000000000E+00 0. -1.
         21    1    1    2  503  505 -0.42749892582E+02 -0.73776203370E+01 -0.38915541362E+02  0.58278657819E+02  0.00000000000E+00 0. -1.
         21    1    1    2  504  503 -0.10164348225E+03 -0.26708225080E+02 -0.10955510985E+02  0.10566338057E+03  0.00000000000E+00 0. -1.
         21    1    1    2  505  502  0.77078785503E+02 -0.36428716276E+02 -0.37759292264E+03  0.38709766955E+03  0.00000000000E+00 0. -1.
         21    1    1    2  506  501  0.67314589333E+02  0.70514561693E+02  0.40966415050E+02  0.10574405189E+03  0.00000000000E+00 0. -1.
<scales pt_clust_3="31.33458" pt_clust_4="31.33458" pt_clust_5="85.25368" pt_clust_6="105.42678"></scales>
<clustering>
<clus scale="   31.335">  3  4 -1 -1</clus>
<clus scale="   85.254">  2  5  1 -1</clus>
<clus scale="  105.427">  1  6  2 -1</clus>
<clus scale="  105.427">  1  3  2 -1</clus>
</clustering>
</event>
<event>
 6    0  0.6132510E+002  0.1306636E+03  0.7546771E-02  0.1226474E+00
         21   -1    0    0  503  501  0.00000000000E+00  0.00000000000E+00  0.12135482327E+04  0.12135482327E+04  0.00000000000E+00 0. -1.
         21   -1    0    0  505  502 -0.00000000000E+00 -0.00000000000E+00 -0.92542304465E+02  0.92542304465E+02  0.00000000000E+00 0. -1.
         21    1    1    2  503  502  0.97278445025E+02 -0.11530990550E+03  0.28250095889E+03  0.32025967893E+03  0.00000000000E+00 0. -1.
         21    1    1    2  504  501  0.48817883064E+02  0.10998029396E+02  0.11227222896E+03  0.12291946857E+03  0.00000000000E+00 0. -1.
         21    1    1    2  505  506  0.53852830366E+01  0.72022468658E+02 -0.39055511261E+02  0.82107065621E+02  0.00000000000E+00 0. -1.
         21    1    1    2  506  504 -0.15148161113E+03  0.32289407451E+02  0.76528825162E+03  0.78080432403E+03  0.00000000000E+00 0. -1.
<scales pt_clust_3="130.66365" pt_clust_4="50.04141" pt_clust_5="72.51652" pt_clust_6="14000.00000"></scales>
<clustering>
<clus scale="   50.041">  1  4  2 -1</clus>
<clus scale="   72.517">  2  5  1 -1</clus>
<clus scale="  130.664">  2  3  1 -1</clus>
<clus scale="   50.041">  1  3  2 -1</clus>
</clustering>
</event>
<event>
 6    0  0.6132510E+002  0.1041270E+03  0.7546771E-02  0.1271849E+00
         21   -1    0    0  503  501  0.00000000000E+00  0.00000000000E+00  0.17237040340E+03  0.17237040340E+03  0.00000000000E+00 0. -1.
         21   -1    0    0  506  502 -0.00000000000E+00 -0.00000000000E+00 -0.94209949278E+03  0.94209949278E+03  0.00000000000E+00 0. -1.
         21    1    1    2  503  504  0.68055771485E+02 -0.69723410311E+01  0.41245319142E+02  0.79883527232E+02  0.00000000000E+00 0. -1.
         21    1    1    2  504  505  0.25720909734E+02 -0.99177190658E+02 -0.24615192114E+03  0.26662417112E+03  0.00000000000E+00 0. -1.
         21    1    1    2  505  502 -0.48608925367E+02 -0.47384852650E+01 -0.62982869578E+03  0.63171945268E+03  0.00000000000E+00 0. -1.
         21    1    1    2  506  501 -0.45167755852E+02  0.11088801695E+03  0.65006208408E+02  0.13624274514E+03  0.00000000000E+00 0. -1.
<scales pt_clust_3="65.44403" pt_clust_4="14000.00000" pt_clust_5="48.83934" pt_clust_6="104.12699"></scales>
<clustering>
<clus scale="   48.839">  2  5  1 -1</clus>
<clus scale="   65.444">  1  3  2 -1</clus>
<clus scale="  104.127">  1  6  2 -1</clus>
<clus scale="   65.444">  1  3  2 -1</clus>
</clustering>
</event>
<event>
 6    0  0.6132510E+002  0.1868270E+03  0.7546771E-02  0.1161355E+00
         21   -1    0    0  502  501  0.00000000000E+00  0.00000000000E+00  0.13411318600E+04  0.13411318600E+04  0.00000000000E+00 0.  1.
         21   -1    0    0  506  502 -0.00000000000E+00 -0.00000000000E+00 -0.99370061940E+02  0.99370061940E+02  0.00000000000E+00 0. -1.
         21    1    1    2  503  505  0.18102347177E+02 -0.77926310563E+02  0.45111599143E+02  0.91843678218E+02  0.00000000000E+00 0. -1.
         21    1    1    2  504  501 -0.17853307832E+02  0.17975593211E+03  0.11418274833E+04  0.11560280867E+04  0.00000000000E+00 0.  1.
         21    1    1    2  505  504 -0.30769972284E+02 -0.58625193308E+02  0.10209725394E+03  0.12168629236E+03  0.00000000000E+00 0. -1.
         21    1    1    2  506  503  0.30520932939E+02 -0.43204428241E+02 -0.47274538266E+02  0.70943864677E+02  0.00000000000E+00 0. -1.
<scales pt_clust_3="58.52001" pt_clust_4="172.58765" pt_clust_5="58.52001" pt_clust_6="52.89754"></scales>
<clustering>
<clus scale="   52.898">  2  6  1 -1</clus>
<clus scale="   58.520">  3  5 -1 -1</clus>
<clus scale="  172.588">  1  4  2 -1</clus>
<clus scale="  172.588">  1  3  2 -1</clus>
</clustering>
</event>
<event>
 6    0  0.6132510E+002  0.1425592E+03  0.7546771E-02  0.1209926E+00
         21   -1    0    0  506  501  0.00000000000E+00  0.00000000000E+00  0.60331702273E+03  0.60331702273E+03  0.00000000000E+00 0.  1.
         21   -1    0    0  503  502 -0.00000000000E+00 -0.00000000000E+00 -0.10040449679E+03  0.10040449679E+03  0.00000000000E+00 0.  1.
         21    1    1    2  503  501 -0.79235792268E+02 -0.42307036480E+02 -0.45278446175E+02  0.10058992892E+03  0.00000000000E+00 0.  1.
         21    1    1    2  504  505  0.36066733481E+01  0.37213210508E+02  0.11158000022E+03  0.11767721776E+03  0.00000000000E+00 0.  1.
         21    1    1    2  505  502 -0.18580444691E+02 -0.51913220007E+02  0.27177800533E+02  0.61472336691E+02  0.00000000000E+00 0.  1.
         21    1    1    2  506  504  0.94209563611E+02  0.57007045979E+02  0.40943317136E+03  0.42398203615E+03  0.00000000000E+00 0.  1.
<scales pt_clust_3="129.72502" pt_clust_4="34.44583" pt_clust_5="55.13815" pt_clust_6="34.44583"></scales>
<clustering>
<clus scale="   34.446">  4  6 -1 -1</clus>
<clus scale="   55.138">  2  5  1 -1</clus>
<clus scale="  129.725">  2  3  1 -1</clus>
<clus scale="  142.559">  1  3  2 -1</clus>
</clustering>
</event>
<event>
 6    0  0.6132510E+002  0.1039103E+03  0.7546771E-02  0.1272282E+00
         21   -1    0    0  504  501  0.00000000000E+00  0.00000000000E+00  0.78916624745E+03  0.78916624745E+03  0.00000000000E+00 0.  1.
         21   -1    0    0  505  502 -0.00000000000E+00 -0.00000000000E+00 -0.11806607817E+03  0.11806607817E+03  0.00000000000E+00 0.  1.
         21    1    1    2  503  502  0.40981280239E+02  0.33844404870E+02 -0.41298020583E+02  0.67308510421E+02  0.00000000000E+00 0.  1.
         21    1    1    2  504  503  0.53601916620E+02  0.38323722550E+02  0.52761170491E+03  0.53171043278E+03  0.00000000000E+00 0.  1.
         21    1    1    2  505  506 -0.14445624977E+03 -0.46278409610E+02  0.46042340702E+02  0.15852191152E+03  0.00000000000E+00 0.  1.
         21    1    1    2  506  501  0.49873052914E+02 -0.25889717810E+02  0.13874414425E+03  0.14969147090E+03  0.00000000000E+00 0. -1.
<scales pt_clust_3="53.14987" pt_clust_4="103.91025" pt_clust_5="14000.00000" pt_clust_6="58.12819"></scales>
<clustering>
<clus scale="   53.150">  2  3  1 -1</clus>
<clus scale="   58.128">  1  6  2 -1</clus>
<clus scale="  103.910">  1  4  2 -1</clus>
<clus scale="   58.128">  1  3  2 -1</clus>
</clustering>
</event>
<event>
 6    0  0.6132510E+002  0.6640346E+02  0.7546771E-02  0.1372769E+00
         21   -1    0    0  503  501  0.00000000000E+00  0.00000000000E+00  0.54986682073E+03  0.54986682073E+03  0.00000000000E+00 0. -1.
         21   -1    0    0  506  502 -0.00000000000E+00 -0.00000000000E+00 -0.14726430562E+04  0.14726430562E+04  0.00000000000E+00 0. -1.
         21    1    1    2  503  504  0.30404308680E+02  0.51888821242E+02  0.38152711495E+02  0.71221493600E+02  0.00000000000E+00 0. -1.
         21    1    1    2  504  502 -0.50348062432E+02  0.77418209713E+01 -0.39355256079E+03  0.39683558470E+03  0.00000000000E+00 0.  1.
         21    1    1    2  505  501 -0.95255118957E+02 -0.57915931831E+02  0.48405587063E+03  0.49672716730E+03  0.00000000000E+00 0. -1.
         21    1    1    2  506  505  0.11519887271E+03 -0.17147103817E+01 -0.10514322568E+04  0.10577256313E+04  0.00000000000E+00 0. -1.
<scales pt_clust_3="59.85674" pt_clust_4="50.93980" pt_clust_5="14000.00000" pt_clust_6="66.40346"></scales>
<clustering>
<clus scale="   50.940">  2  4  1 -1</clus>
<clus scale="   59.857">  1  3  2 -1</clus>
<clus scale="   66.403">  2  6  1 -1</clus>
<clus scale="   59.857">  1  3  2 -1</clus>
</clustering>
</event>
<event>
 6    0  0.6132510E+002  0.1313237E+03  0.7546771E-02  0.1225505E+00
         21   -1    0    0  504  501  0.00000000000E+00  0.00000000000E+00  0.13684859431E+03  0.13684859431E+03  0.00000000000E+00 0. -1.
         21   -1    0    0  503  502 -0.00000000000E+00 -0.00000000000E+00 -0.38128833707E+03  0.38128833707E+03  0.00000000000E+00 0. -1.
         21    1    1    2  503  501  0.25400610098E+02  0.46279842536E+02 -0.43714523905E+02  0.68541771343E+02  0.00000000000E+00 0. -1.
         21    1    1    2  504  506 -0.60328426662E+02 -0.33584957986E+01  0.43767030876E+02  0.74607985827E+02  0.00000000000E+00 0. -1.
         21    1    1    2  505  502  0.10026135309E+03 -0.71258716277E+02 -0.27209819142E+03  0.29860939259E+03  0.00000000000E+00 0. -1.
         21    1    1    2  506  505 -0.65333536527E+02  0.28337369539E+02  0.27605941698E+02  0.76377781616E+02  0.00000000000E+00 0. -1.
<scales pt_clust_3="52.79219" pt_clust_4="33.05410" pt_clust_5="126.32567" pt_clust_6="33.05410"></scales>
<clustering>
<clus scale="   33.054">  4  6 -1 -1</clus>
<clus scale="   52.792">  2  3  1 -1</clus>
<clus scale="  126.326">  2  5  1 -1</clus>
<clus scale="  131.324">  1  3  2 -1</clus>
</clustering>
</event>
<event>
 6    0  0.6132510E+002  0.1267318E+03  0.7546771E-02  0.1232387E+00
         21   -1    0    0  506  501  0.00000000000E+00  0.00000000000E+00  0.20503697638E+03  0.20503697638E+03  0.00000000000E+00 0.  1.
         21   -1    0    0  503  502 -0.00000000000E+00 -0.00000000000E+00 -0.18944874936E+03  0.18944874936E+03  0.00000000000E+00 0.  1.
         21    1    1    2  503  505 -0.31199728856E+02 -0.11578933721E+03 -0.33722409618E+02  0.12457044032E+03  0.00000000000E+00 0.  1.
         21    1    1    2  504  501 -0.52055649782E+02 -0.66777220415E+01  0.22857606758E+02  0.57243801695E+02  0.00000000000E+00 0.  1.
         21    1    1    2  505  504  0.67452948541E+02 -0.14316366895E+02  0.29364393375E+02  0.74947489793E+02  0.00000000000E+00 0.  1.
         21    1    1    2  506  502  0.15802430096E+02  0.13678342614E+03 -0.29113634937E+01  0.13772399392E+03  0.00000000000E+00 0.  1.
<scales pt_clust_3="14000.00000" pt_clust_4="52.48221" pt_clust_5="53.57750" pt_clust_6="126.73178"></scales>
<clustering>
<clus scale="   52.482">  1  4  2 -1</clus>
<clus scale="   53.577">  1  5  2 -1</clus>
<clus scale="  126.732">  1  6  2 -1</clus>
<clus scale="   52.482">  1  3  2 -1</clus>
</clustering>
</event>
<event>
 6    0  0.6132510E+002  0.1002714E+03  0.7546771E-02  0.1279726E+00
         21   -1    0    0  503  501  0.00000000000E+00  0.00000000000E+00  0.14833957891E+03  0.14833957891E+03  0.00000000000E+00 0. -1.
         21   -1    0    0  505  502 -0.00000000000E+00 -0.00000000000E+00 -0.22854411666E+03  0.22854411666E+03  0.00000000000E+00 0. -1.
         21    1    1    2  503  504 -0.28138548041E+02 -0.20649730105E+02  0.45823588161E+02  0.57602000584E+02  0.00000000000E+00 0. -1.
         21    1    1    2  504  506  0.63969103533E+02 -0.82288857652E+02  0.11577376970E+02  0.10486914684E+03  0.00000000000E+00 0. -1.
         21    1    1    2  505  501 -0.55858540758E+02  0.76893318796E+02 -0.26667065101E+02  0.98711151407E+02  0.00000000000E+00 0. -1.
         21    1    1    2  506  502  0.20027985266E+02  0.26045268961E+02 -0.11093843778E+03  0.11570139674E+03  0.00000000000E+00 0.  1.
<scales pt_clust_3="33.29300" pt_clust_4="14000.00000" pt_clust_5="100.27138" pt_clust_6="32.85538"></scales>
<clustering>
<clus scale="   32.855">  2  6  1 -1</clus>
<clus scale="   33.293">  1  3  2 -1</clus>
<clus scale="  100.271">  2  5  1 -1</clus>
<clus scale="   33.293">  1  3  2 -1</clus>
</clustering>
</event>
<event>
 6    0  0.6132510E+002  0.9962269E+02  0.7546771E-02  0.1281091E+00
         21   -1    0    0  504  501  0.00000000000E+00  0.00000000000E+00  0.42296437647E+03  0.42296437647E+03  0.00000000000E+00 0. -1.
         21   -1    0    0  506  502 -0.00000000000E+00 -0.00000000000E+00 -0.12961162944E+03  0.12961162944E+03  0.00000000000E+00 0. -1.
         21    1    1    2  503  501 -0.22831707252E+02  0.50329551376E+02  0.21138149501E+03  0.21848681203E+03  0.00000000000E+00 0. -1.
         21    1    1    2  504  505  0.24098196637E+02 -0.26117263798E+02  0.12048014332E+03  0.12561170123E+03  0.00000000000E+00 0. -1.
         21    1    1    2  505  502 -0.89011483163E+02  0.31668492042E+02  0.74064648521E+01  0.94767047251E+02  0.00000000000E+00 0. -1.
         21    1    1    2  506  503  0.87744993778E+02 -0.55880779621E+02 -0.45915356159E+02  0.11371044541E+03  0.00000000000E+00 0. -1.
<scales pt_clust_3="32.09837" pt_clust_4="35.53638" pt_clust_5="14000.00000" pt_clust_6="99.62269"></scales>
<clustering>
<clus scale="   35.536">  1  4  2 -1</clus>
<clus scale="   32.098">  1  3  2 -1</clus>
<clus scale="   99.623">  2  6  1 -1</clus>
<clus scale="   35.536">  1  3  2 -1</clus>
</clustering>
</event>
<event>
 6    0  0.6132510E+002  0.9514421E+02  0.7546771E-02  0.1290852E+00
         21   -1    0    0  506  501  0.00000000000E+00  0.00000000000E+00  0.19159126616E+04  0.19159126616E+04  0.00000000000E+00 0. -1.
         21   -1    0    0  505  502 -0.00000000000E+00 -0.00000000000E+00 -0.24876619582E+03  0.24876619582E+03  0.00000000000E+00 0.  1.
         21    1    1    2  503  501 -0.81155325801E+02 -0.27585540859E+02  0.16813868669E+04  0.16835702970E+04  0.00000000000E+00 0. -1.
         21    1    1    2  504  502  0.86184726655E+01 -0.32566930842E+02 -0.39627467120E+01  0.33920295061E+02  0.00000000000E+00 0. -1.
         21    1    1    2  505  503  0.86068681729E+02  0.19283118945E+02 -0.21793927708E+03  0.23511100601E+03  0.00000000000E+00 0.  1.
         21    1    1    2  506  504 -0.13531828593E+02  0.40869352756E+02  0.20766162273E+03  0.21207725935E+03  0.00000000000E+00 0.  1.
<scales pt_clust_3="95.14421" pt_clust_4="33.68803" pt_clust_5="14000.00000" pt_clust_6="42.72828"></scales>
<clustering>
<clus scale="   33.688">  2  4  1 -1</clus>
<clus scale="   42.728">  1  6  2 -1</clus>
<clus scale="   95.144">  1  3  2 -1</clus>
<clus scale="   42.728">  1  3  2 -1</clus>
</clustering>
</event>
<event>
 6    0  0.6132510E+002  0.9756349E+02  0.7546771E-02  0.1285505E+00
         21   -1    0    0  504  501  0.00000000000E+00  0.00000000000E+00  0.24748789776E+04  0.24748789776E+04  0.00000000000E+00 0.  1.
         21   -1    0    0  503  502 -0.00000000000E+00 -0.00000000000E+00 -0.12303442365E+03  0.12303442365E+03  0.00000000000E+00 0.  1.
         21    1    1    2  503  501 -0.20883691592E+00 -0.12694800689E+03  0.22759000211E+04  0.22794378136E+04  0.00000000000E+00 0.  1.
         21    1    1    2  504  506  0.61070697723E+01  0.32204269440E+02  0.12080426983E+03  0.12517221289E+03  0.00000000000E+00 0.  1.
         21    1    1    2  505  502 -0.24728607144E+01 -0.46526759678E+02 -0.14140354083E+02  0.48690902845E+02  0.00000000000E+00 0. -1.
         21    1    1    2  506  505 -0.34253721420E+01  0.14127049713E+03 -0.30719382932E+02  0.14461247188E+03  0.00000000000E+00 0.  1.
<scales pt_clust_3="14000.00000" pt_clust_4="32.77821" pt_clust_5="46.35384" pt_clust_6="97.56349"></scales>
<clustering>
<clus scale="   32.778">  1  4  2 -1</clus>
<clus scale="   46.354">  2  5  1 -1</clus>
<clus scale="   97.563">  2  6  1 -1</clus>
<clus scale="   32.778">  1  3  2 -1</clus>
</clustering>
</event>
<event>
 6    0  0.6132510E+002  0.1053010E+03  0.7546771E-02  0.1269528E+00
         21   -1    0    0  504  501  0.00000000000E+00  0.00000000000E+00  0.10390546669E+03  0.10390546669E+03  0.00000000000E+00 0.  1.
         21   -1    0    0  506  502 -0.00000000000E+00 -0.00000000000E+00 -0.63255748294E+03  0.63255748294E+03  0.00000000000E+00 0. -1.
         21    1    1    2  503  502 -0.19994727994E+00 -0.89527764039E+02 -0.16217088247E+03  0.18524215404E+03  0.00000000000E+00 0.  1.
         21    1    1    2  504  503 -0.56480875494E+02  0.34353735245E+02 -0.58310646748E+02  0.88149872070E+02  0.00000000000E+00 0.  1.
         21    1    1    2  505  501 -0.16214693798E+02  0.80378106958E+02  0.50433695320E+02  0.96265850626E+02  0.00000000000E+00 0.  1.
         21    1    1    2  506  505  0.72895516572E+02 -0.25204078164E+02 -0.35860418236E+03  0.36680507289E+03  0.00000000000E+00 0. -1.
<scales pt_clust_3="105.30103" pt_clust_4="66.10801" pt_clust_5="14000.00000" pt_clust_6="74.15555"></scales>
<clustering>
<clus scale="   66.108">  1  4  2 -1</clus>
<clus scale="   74.156">  2  6  1 -1</clus>
<clus scale="  105.301">  2  3  1 -1</clus>
<clus scale="   66.108">  1  3  2 -1</clus>
</clustering>
</event>
<event>
 6    0  0.6132510E+002  0.2494934E+03  0.7546771E-02  0.1113625E+00
         21   -1    0    0  504  501  0.00000000000E+00  0.00000000000E+00  0.52592992399E+03  0.52592992399E+03  0.00000000000E+00 0.  1.
         21   -1    0    0  503  502 -0.00000000000E+00 -0.00000000000E+00 -0.74783301575E+03  0.74783301575E+03  0.00000000000E+00 0. -1.
         21    1    1    2  503  501 -0.19253835621E+03  0.11473448334E+03 -0.61667258281E+03  0.65614030106E+03  0.00000000000E+00 0. -1.
         21    1    1    2  504  506  0.10450364100E+03 -0.82439865540E+02  0.23073176937E+03  0.26637284360E+03  0.00000000000E+00 0.  1.
         21    1    1    2  505  502 -0.27799359771E+02 -0.20698399118E+02 -0.76520740683E+02  0.84003880175E+02  0.00000000000E+00 0.  1.
         21    1    1    2  506  505  0.11583407498E+03 -0.11596218680E+02  0.24055846238E+03  0.26724591491E+03  0.00000000000E+00 0. -1.
<scales pt_clust_3="238.75500" pt_clust_4="67.62762" pt_clust_5="34.65874" pt_clust_6="67.62762"></scales>
<clustering>
<clus scale="   34.659">  2  5  1 -1</clus>
<clus scale="   67.628">  4  6 -1 -1</clus>
<clus scale="  238.755">  2  3  1 -1</clus>
<clus scale="  249.493">  1  3  2 -1</clus>
</clustering>
</event>
<event>
 6    0  0.6132510E+002  0.9014578E+02  0.7546771E-02  0.1302499E+00
         21   -1    0    0  503  501  0.00000000000E+00  0.00000000000E+00  0.12682242333E+04  0.12682242333E+04  0.00000000000E+00 0. -1.
         21   -1    0    0  504  502 -0.00000000000E+00 -0.00000000000E+00 -0.30812802348E+03  0.30812802348E+03  0.00000000000E+00 0.  1.
         21    1    1    2  503  505  0.32032400655E+02 -0.38468447361E+02  0.75172545241E+03  0.75339037154E+03  0.00000000000E+00 0. -1.
         21    1    1    2  504  506 -0.72697063985E+02 -0.31582750342E+01 -0.27707047389E+03  0.28646620274E+03  0.00000000000E+00 0.  1.
         21    1    1    2  505  502 -0.69730351929E+01 -0.39150863831E+02  0.42061835932E+03  0.42249404441E+03  0.00000000000E+00 0. -1.
         21    1    1    2  506  501  0.47637698523E+02  0.80777586226E+02  0.64822871998E+02  0.11400163811E+03  0.00000000000E+00 0.  1.
<scales pt_clust_3="36.32955" pt_clust_4="72.76564" pt_clust_5="36.32955" pt_clust_6="80.40425"></scales>
<clustering>
<clus scale="   36.330">  3  5 -1 -1</clus>
<clus scale="   72.766">  2  4  1 -1</clus>
<clus scale="   80.404">  2  6  1 -1</clus>
<clus scale="   90.146">  1  3  2 -1</clus>
</clustering>
</event>
<event>
 6    0  0.6132510E+002  0.8983091E+02  0.7546771E-02  0.1303262E+00
         21   -1    0    0  503  501  0.00000000000E+00  0.00000000000E+00  0.15614467645E+03  0.15614467645E+03  0.00000000000E+00 0. -1.
         21   -1    0    0  505  502 -0.00000000000E+00 -0.00000000000E+00 -0.27089823811E+03  0.27089823811E+03  0.00000000000E+00 0. -1.
         21    1    1    2  503  506 -0.32017419320E+02  0.14664461720E+01  0.21523205502E+02  0.38607175231E+02  0.00000000000E+00 0. -1.
         21    1    1    2  504  502 -0.67340635355E+02 -0.20102419986E+02 -0.82462356049E+02  0.10834624416E+03  0.00000000000E+00 0. -1.
         21    1    1    2  505  501  0.11729653746E+03  0.68096719070E+02 -0.12975622094E+03  0.18770273765E+03  0.00000000000E+00 0. -1.
         21    1    1    2  506  504 -0.17938482786E+02 -0.49460745255E+02  0.75941809820E+02  0.92386757518E+02  0.00000000000E+00 0. -1.
<scales pt_clust_3="32.05098" pt_clust_4="89.83091" pt_clust_5="14000.00000" pt_clust_6="62.41711"></scales>
<clustering>
<clus scale="   32.051">  1  3  2 -1</clus>
<clus scale="   62.417">  1  6  2 -1</clus>
<clus scale="   89.831">  2  4  1 -1</clus>
<clus scale="   32.051">  1  3  2 -1</clus>
</clustering>
</event>
<event>
 6    0  0.6132510E+002  0.8706791E+02  0.7546771E-02  0.1310112E+00
         21   -1    0    0  504  501  0.00000000000E+00  0.00000000000E+00  0.23435651305E+03  0.23435651305E+03  0.00000000000E+00 0.  1.
         21   -1    0    0  503  502 -0.00000000000E+00 -0.00000000000E+00 -0.11653167666E+03  0.11653167666E+03  0.00000000000E+00 0.  1.
         21    1    1    2  503  506 -0.12208636423E+02  0.31221741785E+02 -0.53816337126E+01  0.33953055014E+02  0.00000000000E+00 0.  1.
         21    1    1    2  504  505 -0.44521926146E+02  0.82528859758E+02  0.13335569366E+03  0.16302440195E+03  0.00000000000E+00 0.  1.
         21    1    1    2  505  502 -0.31945368282E+01 -0.79961068258E+02  0.13517850603E+02  0.81158547223E+02  0.00000000000E+00 0.  1.
         21    1    1    2  506  501  0.59925099397E+02 -0.33789533285E+02 -0.23667074159E+02  0.72752185511E+02  0.00000000000E+00 0.  1.
<scales pt_clust_3="33.52384" pt_clust_4="87.06791" pt_clust_5="14000.00000" pt_clust_6="56.85748"></scales>
<clustering>
<clus scale="   33.524">  2  3  1 -1</clus>
<clus scale="   56.857">  2  6  1 -1</clus>
<clus scale="   87.068">  1  4  2 -1</clus>
<clus scale="   87.068">  1  3  2 -1</clus>
</clustering>
</event>
<event>
 6    0  0.6132510E+002  0.5641159E+02  0.7546771E-02  0.1413539E+00
         21   -1    0    0  503  501  0.00000000000E+00  0.00000000000E+00  0.86755400831E+03  0.86755400831E+03  0.00000000000E+00 0. -1.
         21   -1    0    0  504  502 -0.00000000000E+00 -0.00000000000E+00 -0.62384677909E+02  0.62384677909E+02  0.00000000000E+00 0.  1.
         21    1    1    2  503  502  0.11390459869E+02  0.71284745489E+02  0.55951159575E+03  0.56414934484E+03  0.00000000000E+00 0. -1.
         21    1    1    2  504  506  0.31328909295E+02  0.21230619473E+02  0.20197192426E+02  0.42897160078E+02  0.00000000000E+00 0. -1.
         21    1    1    2  505  501  0.34077272484E+02 -0.44703924459E+02  0.22552903275E+03  0.23242858253E+03  0.00000000000E+00 0. -1.
         21    1    1    2  506  505 -0.76796641649E+02 -0.47811440502E+02 -0.68490520591E-01  0.90463598770E+02  0.00000000000E+00 0.  1.
<scales pt_clust_3="14000.00000" pt_clust_4="37.84494" pt_clust_5="56.41159" pt_clust_6="56.37317"></scales>
<clustering>
<clus scale="   37.845">  2  4  1 -1</clus>
<clus scale="   56.412">  1  5  2 -1</clus>
<clus scale="   56.373">  2  6  1 -1</clus>
<clus scale="   56.412">  1  3  2 -1</clus>
</clustering>
</event>
<event>
 6    0  0.6132510E+002  0.2360356E+03  0.7546771E-02  0.1122462E+00
         21   -1    0    0  506  501  0.00000000000E+00  0.00000000000E+00  0.59968544740E+03  0.59968544740E+03  0.00000000000E+00 0.  1.
         21   -1    0    0  505  502 -0.00000000000E+00 -0.00000000000E+00 -0.65246661873E+03  0.65246661873E+03  0.00000000000E+00 0.  1.
         21    1    1    2  503  501  0.29515970865E+01  0.38538747640E+02  0.10344569375E+03  0.11043078624E+03  0.00000000000E+00 0.  1.
         21    1    1    2  504  503 -0.46219233716E+02  0.16120302188E+03 -0.26324253886E+03  0.31212059544E+03  0.00000000000E+00 0.  1.
         21    1    1    2  505  504 -0.79033317947E+02  0.46892011226E+02 -0.31366520755E+03  0.32685010095E+03  0.00000000000E+00 0. -1.
         21    1    1    2  506  502  0.12230095458E+03 -0.24663378075E+03  0.42068088133E+03  0.50275058351E+03  0.00000000000E+00 0.  1.
<scales pt_clust_3="38.65161" pt_clust_4="14000.00000" pt_clust_5="92.12767" pt_clust_6="236.03559"></scales>
<clustering>
<clus scale="   38.652">  1  3  2 -1</clus>
<clus scale="   92.128">  2  5  1 -1</clus>
<clus scale="  236.036">  1  6  2 -1</clus>
<clus scale="   38.652">  1  3  2 -1</clus>
</clustering>
</event>
<event>
 6    0  0.6132510E+002  0.2268725E+03  0.7546771E-02  0.1128861E+00
         21   -1    0    0  504  501  0.00000000000E+00  0.00000000000E+00  0.92551649479E+03  0.92551649479E+03  0.00000000000E+00 0. -1.
         21   -1    0    0  506  502 -0.00000000000E+00 -0.00000000000E+00 -0.53574261413E+03  0.53574261413E+03  0.00000000000E+00 0. -1.
         21    1    1    2  503  505 -0.46004379455E+02 -0.18962165502E+02  0.26524977877E+03  0.26987666033E+03  0.00000000000E+00 0. -1.
         21    1    1    2  504  502 -0.15213898639E+03 -0.13198969751E+03 -0.12164384172E+03  0.23529720708E+03  0.00000000000E+00 0. -1.
         21    1    1    2  505  501 -0.24243562113E+02  0.38019894998E+02  0.55628676249E+03  0.55811130148E+03  0.00000000000E+00 0. -1.
         21    1    1    2  506  503  0.22238692796E+03  0.11293196801E+03 -0.31011881889E+03  0.39797394004E+03  0.00000000000E+00 0. -1.
<scales pt_clust_3="64.20242" pt_clust_4="226.87253" pt_clust_5="45.09171" pt_clust_6="14000.00000"></scales>
<clustering>
<clus scale="   45.092">  1  5  2 -1</clus>
<clus scale="   64.202">  1  3  2 -1</clus>
<clus scale="  226.873">  1  4  2 -1</clus>
<clus scale="   45.092">  1  3  2 -1</clus>
</clustering>
</event>
<event>
 6    0  0.6132510E+002  0.1284910E+03  0.7546771E-02  0.1229712E+00
         21   -1    0    0  505  501  0.00000000000E+00  0.00000000000E+00  0.41171466170E+03  0.41171466170E+03  0.00000000000E+00 0.  1.
         21   -1    0    0  503  502 -0.00000000000E+00 -0.00000000000E+00 -0.56787157709E+03  0.56787157709E+03  0.00000000000E+00 0. -1.
         21    1    1    2  503  501 -0.13759922679E+02  0.38493872661E+02 -0.49151597999E+03  0.49321300904E+03  0.00000000000E+00 0. -1.
         21    1    1    2  504  506  0.48557282585E+02 -0.24493797665E+02  0.10550207518E+03  0.11869475003E+03  0.00000000000E+00 0.  1.
         21    1    1    2  505  504  0.72705084309E+02  0.24313480156E+01  0.24708514309E+03  0.25757136618E+03  0.00000000000E+00 0.  1.
         21    1    1    2  506  502 -0.10750244421E+03 -0.16431423012E+02 -0.17228153672E+02  0.11010711355E+03  0.00000000000E+00 0.  1.
<scales pt_clust_3="40.87926" pt_clust_4="39.31160" pt_clust_5="39.31160" pt_clust_6="120.17825"></scales>
<clustering>
<clus scale="   39.312">  4  5 -1 -1</clus>
<clus scale="   40.879">  2  3  1 -1</clus>
<clus scale="  120.178">  2  6  1 -1</clus>
<clus scale="  128.491">  1  3  2 -1</clus>
</clustering>
</event>
<event>
 6    0  0.6132510E+002  0.1259388E+03  0.7546771E-02  0.1233609E+00
         21   -1    0    0  504  501  0.00000000000E+00  0.00000000000E+00  0.13483817838E+02  0.13483817838E+02  0.00000000000E+00 0. -1.
         21   -1    0    0  506  502 -0.00000000000E+00 -0.00000000000E+00 -0.37703678616E+04  0.37703678616E+04  0.00000000000E+00 0. -1.
         21    1    1    2  503  501  0.10460192798E+03 -0.15355869489E+02 -0.77440915986E+03  0.78159254919E+03  0.00000000000E+00 0. -1.
         21    1    1    2  504  505 -0.74446260188E+02 -0.33661230975E+02 -0.22996675836E+03  0.24404924519E+03  0.00000000000E+00 0. -1.
         21    1    1    2  505  502 -0.40705499025E+02 -0.31992775049E+02 -0.30680342743E+03  0.31114115509E+03  0.00000000000E+00 0. -1.
         21    1    1    2  506  503  0.10549831235E+02  0.81009875512E+02 -0.24457046982E+04  0.24470687300E+04  0.00000000000E+00 0. -1.
<scales pt_clust_3="115.39847" pt_clust_4="40.14893" pt_clust_5="40.14893" pt_clust_6="81.69393"></scales>
<clustering>
<clus scale="   40.149">  4  5 -1 -1</clus>
<clus scale="   81.694">  2  6  1 -1</clus>
<clus scale="  115.398">  2  3  1 -1</clus>
<clus scale="  125.939">  1  3  2 -1</clus>
</clustering>
</event>
<event>
 6    0  0.6132510E+002  0.1100131E+03  0.7546771E-02  0.1260546E+00
         21   -1    0    0  503  501  0.00000000000E+00  0.00000000000E+00  0.21631464856E+03  0.21631464856E+03  0.00000000000E+00 0. -1.
         21   -1    0    0  506  502 -0.00000000000E+00 -0.00000000000E+00 -0.96137919666E+03  0.96137919666E+03  0.00000000000E+00 0. -1.
         21    1    1    2  503  502  0.18614055846E+02  0.42477377151E+02 -0.36254337429E+02  0.58865844316E+02  0.00000000000E+00 0.  1.
         21    1    1    2  504  505  0.54935425049E+02 -0.13677900894E+02  0.61198787549E+02  0.83368324294E+02  0.00000000000E+00 0. -1.
         21    1    1    2  505  501  0.32441437947E+02  0.10705834760E+02  0.12691440432E+03  0.13143183716E+03  0.00000000000E+00 0. -1.
         21    1    1    2  506  504 -0.10599091884E+03 -0.39505311017E+02 -0.89692340254E+03  0.90402783945E+03  0.00000000000E+00 0. -1.
<scales pt_clust_3="49.44843" pt_clust_4="110.01314" pt_clust_5="34.16229" pt_clust_6="14000.00000"></scales>
<clustering>
<clus scale="   34.162">  1  5  2 -1</clus>
<clus scale="   49.448">  1  3  2 -1</clus>
<clus scale="  110.013">  1  4  2 -1</clus>
<clus scale="   34.162">  1  3  2 -1</clus>
</clustering>
</event>
<event>
 6    0  0.6132510E+002  0.1345957E+03  0.7546771E-02  0.1220792E+00
         21   -1    0    0  505  501  0.00000000000E+00  0.00000000000E+00  0.79893413987E+02  0.79893413987E+02  0.00000000000E+00 0.  1.
         21   -1    0    0  504  502 -0.00000000000E+00 -0.00000000000E+00 -0.56753473727E+03  0.56753473727E+03  0.00000000000E+00 0.  1.
         21    1    1    2  503  506 -0.38251126831E+02  0.37831942642E+02 -0.30579456588E+02  0.61883016678E+02  0.00000000000E+00 0.  1.
         21    1    1    2  504  503 -0.36368968956E+02  0.18580973381E+02 -0.17327102831E+03  0.17801911057E+03  0.00000000000E+00 0.  1.
         21    1    1    2  505  502  0.13177315578E+03 -0.84983618155E+02 -0.30269068317E+03  0.34089298851E+03  0.00000000000E+00 0.  1.
         21    1    1    2  506  501 -0.57153059994E+02  0.28570702131E+02  0.18899844787E+02  0.66633035500E+02  0.00000000000E+00 0.  1.
<scales pt_clust_3="50.24054" pt_clust_4="40.84060" pt_clust_5="123.47999" pt_clust_6="50.24054"></scales>
<clustering>
<clus scale="   40.841">  2  4  1 -1</clus>
<clus scale="   50.241">  3  6 -1 -1</clus>
<clus scale="  123.480">  2  5  1 -1</clus>
<clus scale="  134.596">  1  3  2 -1</clus>
</clustering>
</event>
<event>
 6    0  0.6132510E+002  0.7981509E+02  0.7546771E-02  0.1329577E+00
         21   -1    0    0  505  501  0.00000000000E+00  0.00000000000E+00  0.25479633749E+02  0.25479633749E+02  0.00000000000E+00 0.  1.
         21   -1    0    0  503  502 -0.00000000000E+00 -0.00000000000E+00 -0.11336101760E+04  0.11336101760E+04  0.00000000000E+00 0.  1.
         21    1    1    2  503  506  0.27843685039E+02  0.59503650704E+02 -0.51015187626E+03  0.51436455175E+03  0.00000000000E+00 0.  1.
         21    1    1    2  504  501 -0.16714455130E+02 -0.33816781820E+02 -0.25198181080E+02  0.45364039422E+02  0.00000000000E+00 0.  1.
         21    1    1    2  505  502 -0.88757534981E+02 -0.48508472062E+01 -0.38452009862E+03  0.39466078723E+03  0.00000000000E+00 0.  1.
         21    1    1    2  506  504  0.77628305072E+02 -0.20836021677E+02 -0.18826038629E+03  0.20470043135E+03  0.00000000000E+00 0.  1.
<scales pt_clust_3="60.53668" pt_clust_4="37.72198" pt_clust_5="14000.00000" pt_clust_6="79.81509"></scales>
<clustering>
<clus scale="   37.722">  1  4  2 -1</clus>
<clus scale="   60.537">  2  3  1 -1</clus>
<clus scale="   79.815">  1  6  2 -1</clus>
<clus scale="   37.722">  1  3  2 -1</clus>
</clustering>
</event>
<event>
 6    0  0.6132510E+002  0.7879220E+02  0.7546771E-02  0.1332514E+00
         21   -1    0    0  503  501  0.00000000000E+00  0.00000000000E+00  0.13979000094E+04  0.13979000094E+04  0.00000000000E+00 0. -1.
         21   -1    0    0  506  502 -0.00000000000E+00 -0.00000000000E+00 -0.94061859704E+02  0.94061859704E+02  0.00000000000E+00 0.  1.
         21    1    1    2  503  504  0.20407542098E+02 -0.30991333662E+02  0.21784392973E+03  0.22098169213E+03  0.00000000000E+00 0. -1.
         21    1    1    2  504  502  0.72950124810E+02  0.31050862820E+01  0.60530844207E+02  0.94843794584E+02  0.00000000000E+00 0. -1.
         21    1    1    2  505  501 -0.59889042585E+01 -0.49579765394E+02  0.10546067025E+04  0.10557884812E+04  0.00000000000E+00 0. -1.
         21    1    1    2  506  505 -0.87368762650E+02  0.77466012774E+02 -0.29143326745E+02  0.12034790117E+03  0.00000000000E+00 0.  1.
<scales pt_clust_3="37.10701" pt_clust_4="74.30301" pt_clust_5="78.79220" pt_clust_6="14000.00000"></scales>
<clustering>
<clus scale="   37.107">  1  3  2 -1</clus>
<clus scale="   74.303">  2  4  1 -1</clus>
<clus scale="   78.792">  1  5  2 -1</clus>
<clus scale="   37.107">  1  3  2 -1</clus>
</clustering>
</event>
<event>
 6    0  0.6132510E+002  0.8476716E+02  0.7546771E-02  0.1316043E+00
         21   -1    0    0  503  501  0.00000000000E+00  0.00000000000E+00  0.70937840504E+03  0.70937840504E+03  0.00000000000E+00 0.  1.
         21   -1    0    0  504  502 -0.00000000000E+00 -0.00000000000E+00 -0.15716554836E+03  0.15716554836E+03  0.00000000000E+00 0.  1.
         21    1    1    2  503  505 -0.33544671013E+02  0.59589462905E+02  0.41397493659E+03  0.41958479139E+03  0.00000000000E+00 0.  1.
         21    1    1    2  504  501  0.22532087069E+02  0.23134119699E+02  0.19715807760E+03  0.19978535983E+03  0.00000000000E+00 0. -1.
         21    1    1    2  505  506  0.42784084695E+02 -0.12406910101E+03  0.38420440641E+02  0.13674702917E+03  0.00000000000E+00 0.  1.
         21    1    1    2  506  502 -0.31771500751E+02  0.41345518401E+02 -0.97340598145E+02  0.11042677302E+03  0.00000000000E+00 0.  1.
<scales pt_clust_3="84.76716" pt_clust_4="32.29369" pt_clust_5="14000.00000" pt_clust_6="52.20358"></scales>
<clustering>
<clus scale="   32.294">  1  4  2 -1</clus>
<clus scale="   52.204">  2  6  1 -1</clus>
<clus scale="   84.767">  1  3  2 -1</clus>
<clus scale="   32.294">  1  3  2 -1</clus>
</clustering>
</event>
<event>
 6    0  0.6132510E+002  0.9495609E+02  0.7546771E-02  0.1291275E+00
         21   -1    0    0  504  501  0.00000000000E+00  0.00000000000E+00  0.76914632829E+02  0.76914632829E+02  0.00000000000E+00 0.  1.
         21   -1    0    0  503  502 -0.00000000000E+00 -0.00000000000E+00 -0.40783641959E+03  0.40783641959E+03  0.00000000000E+00 0. -1.
         21    1    1    2  503  501  0.23116030492E+02 -0.28384314140E+02 -0.35810421881E+02  0.51209437316E+02  0.00000000000E+00 0.  1.
         21    1    1    2  504  506  0.30644399118E+02  0.19100204202E+02  0.30000577835E+02  0.46946050614E+02  0.00000000000E+00 0.  1.
         21    1    1    2  505  502 -0.51405643167E+02 -0.85724269726E+02 -0.23608305121E+03  0.25637160069E+03  0.00000000000E+00 0. -1.
         21    1    1    2  506  505 -0.23547864440E+01  0.95008379664E+02 -0.89028891499E+02  0.13022396380E+03  0.00000000000E+00 0.  1.
<scales pt_clust_3="38.19579" pt_clust_4="36.10951" pt_clust_5="14000.00000" pt_clust_6="94.95609"></scales>
<clustering>
<clus scale="   36.110">  1  4  2 -1</clus>
<clus scale="   38.196">  1  3  2 -1</clus>
<clus scale="   94.956">  1  6  2 -1</clus>
<clus scale="   36.110">  1  3  2 -1</clus>
</clustering>
</event>
<event>
 6    0  0.6132510E+002  0.3042272E+03  0.7546771E-02  0.1083146E+00
         21   -1    0    0  505  501  0.00000000000E+00  0.00000000000E+00  0.19643226401E+04  0.19643226401E+04  0.00000000000E+00 0.  1.
         21   -1    0    0  504  502 -0.00000000000E+00 -0.00000000000E+00 -0.13541979312E+03  0.13541979312E+03  0.00000000000E+00 0.  1.
         21    1    1    2  503  501  0.13953585621E+03 -0.81479519703E+02  0.92248809393E+03  0.93653267468E+03  0.00000000000E+00 0.  1.
         21    1    1    2  504  503  0.15286896508E+03 -0.48499799754E+01  0.79468035864E+03  0.80926467561E+03  0.00000000000E+00 0.  1.
         21    1    1    2  505  506 -0.23991908554E+03  0.24413469280E+02  0.12511378684E+03  0.27168114536E+03  0.00000000000E+00 0.  1.
         21    1    1    2  506  502 -0.52485735748E+02  0.61916030399E+02 -0.13379392453E+02  0.82263937541E+02  0.00000000000E+00 0.  1.
<scales pt_clust_3="76.52959" pt_clust_4="76.52959" pt_clust_5="293.88200" pt_clust_6="81.16863"></scales>
<clustering>
<clus scale="   76.530">  3  4 -1 -1</clus>
<clus scale="   81.169">  2  6  1 -1</clus>
<clus scale="  293.882">  2  5  1 -1</clus>
<clus scale="  304.227">  1  3  2 -1</clus>
</clustering>
</event>
<event>
 6    0  0.6132510E+002  0.8564623E+02  0.7546771E-02  0.1313751E+00
         21   -1    0    0  506  501  0.00000000000E+00  0.00000000000E+00  0.34334631293E+03  0.34334631293E+03  0.00000000000E+00 0.  1.
         21   -1    0    0  503  502 -0.00000000000E+00 -0.00000000000E+00 -0.44756206151E+03  0.44756206151E+03  0.00000000000E+00 0. -1.
         21    1    1    2  503  505 -0.49418639988E+01 -0.56995212827E+02  0.11628563712E+03  0.12959639542E+03  0.00000000000E+00 0.  1.
         21    1    1    2  504  502  0.82918393496E+02  0.18519898332E+02 -0.40455453229E+03  0.41337974818E+03  0.00000000000E+00 0. -1.
         21    1    1    2  505  501  0.23803283408E+02  0.48300815447E+02  0.10738307827E+03  0.12012780933E+03  0.00000000000E+00 0.  1.
         21    1    1    2  506  504 -0.10177981291E+03 -0.98255009520E+01  0.76670068308E+02  0.12780442151E+03  0.00000000000E+00 0.  1.
<scales pt_clust_3="32.09448" pt_clust_4="14000.00000" pt_clust_5="53.84761" pt_clust_6="85.64623"></scales>
<clustering>
<clus scale="   53.848">  1  5  2 -1</clus>
<clus scale="   32.094">  1  3  2 -1</clus>
<clus scale="   85.646">  1  6  2 -1</clus>
<clus scale="   53.848">  1  3  2 -1</clus>
</clustering>
</event>
<event>
 6    0  0.6132510E+002  0.1978233E+03  0.7546771E-02  0.1151589E+00
         21   -1    0    0  504  501  0.00000000000E+00  0.00000000000E+00  0.14696983651E+03  0.14696983651E+03  0.00000000000E+00 0.  1.
         21   -1    0    0  503  502 -0.00000000000E+00 -0.00000000000E+00 -0.90250269126E+03  0.90250269126E+03  0.00000000000E+00 0.  1.
         21    1    1    2  503  501 -0.50209613174E+02  0.85569934806E+02 -0.22470495238E+03  0.24563292659E+03  0.00000000000E+00 0.  1.
         21    1    1    2  504  505 -0.12139845156E+03 -0.74688573928E+02  0.42250230164E+02  0.14866421582E+03  0.00000000000E+00 0.  1.
         21    1    1    2  505  506 -0.30587252351E+02 -0.43156085684E+02 -0.71896622744E+01  0.53382759216E+02  0.00000000000E+00 0.  1.
         21    1    1    2  506  502  0.20219531709E+03  0.32274724806E+02 -0.56588847026E+03  0.60179262615E+03  0.00000000000E+00 0.  1.
<scales pt_clust_3="99.21300" pt_clust_4="31.10289" pt_clust_5="31.10289" pt_clust_6="191.12125"></scales>
<clustering>
<clus scale="   31.103">  4  5 -1 -1</clus>
<clus scale="   99.213">  2  3  1 -1</clus>
<clus scale="  191.121">  2  6  1 -1</clus>
<clus scale="  197.823">  1  3  2 -1</clus>
</clustering>
</event>
<event>
 6    0  0.6132510E+002  0.9751204E+02  0.7546771E-02  0.1285617E+00
         21   -1    0    0  506  501  0.00000000000E+00  0.00000000000E+00  0.25289018473E+02  0.25289018473E+02  0.00000000000E+00 0.  1.
         21   -1    0    0  504  502 -0.00000000000E+00 -0.00000000000E+00 -0.28604206642E+04  0.28604206642E+04  0.00000000000E+00 0.  1.
         21    1    1    2  503  505  0.74984756524E+02 -0.27597928704E+02 -0.94928625260E+03  0.95264303323E+03  0.00000000000E+00 0.  1.
         21    1    1    2  504  501 -0.10486392071E+03  0.71056727863E+02 -0.23701350042E+03  0.26873946458E+03  0.00000000000E+00 0.  1.
         21    1    1    2  505  502 -0.51501320951E+01 -0.42462683300E+02 -0.16151669487E+04  0.16157332315E+04  0.00000000000E+00 0.  1.
         21    1    1    2  506  503  0.35029296282E+02 -0.99611585958E+00 -0.33664944011E+02  0.48593953328E+02  0.00000000000E+00 0.  1.
<scales pt_clust_3="97.51204" pt_clust_4="14000.00000" pt_clust_5="42.72617" pt_clust_6="35.04346"></scales>
<clustering>
<clus scale="   35.043">  1  6  2 -1</clus>
<clus scale="   42.726">  2  5  1 -1</clus>
<clus scale="   97.512">  2  3  1 -1</clus>
<clus scale="   35.043">  1  3  2 -1</clus>
</clustering>
</event>
<event>
 6    0  0.6132510E+002  0.1690062E+03  0.7546771E-02  0.1178888E+00
         21   -1    0    0  503  501  0.00000000000E+00  0.00000000000E+00  0.13193990170E+04  0.13193990170E+04  0.00000000000E+00 0.  1.
         21   -1    0    0  505  502 -0.00000000000E+00 -0.00000000000E+00 -0.29296984146E+03  0.29296984146E+03  0.00000000000E+00 0. -1.
         21    1    1    2  503  506 -0.52265932379E+02 -0.58988655395E+02  0.28700128798E+03  0.29762581954E+03  0.00000000000E+00 0. -1.
         21    1    1    2  504  501 -0.47098890506E+02 -0.81193464581E+02  0.97946425168E+03  0.98395167793E+03  0.00000000000E+00 0.  1.
         21    1    1    2  505  504  0.77838832169E+02  0.16913696678E+03 -0.22408631669E+03  0.29134322482E+03  0.00000000000E+00 0. -1.
         21    1    1    2  506  502  0.21525990716E+02 -0.28954846804E+02 -0.15950047481E+02  0.39448136134E+02  0.00000000000E+00 0. -1.
<scales pt_clust_3="78.96365" pt_clust_4="169.00620" pt_clust_5="14000.00000" pt_clust_6="36.07979"></scales>
<clustering>
<clus scale="   36.080">  2  6  1 -1</clus>
<clus scale="   78.964">  1  3  2 -1</clus>
<clus scale="  169.006">  1  4  2 -1</clus>
<clus scale="   78.964">  1  3  2 -1</clus>
</clustering>
</event>
<event>
 6    0  0.6132510E+002  0.2966771E+03  0.7546771E-02  0.1086914E+00
         21   -1    0    0  505  501  0.00000000000E+00  0.00000000000E+00  0.54042218780E+03  0.54042218780E+03  0.00000000000E+00 0.  1.
         21   -1    0    0  506  502 -0.00000000000E+00 -0.00000000000E+00 -0.15942495877E+03  0.15942495877E+03  0.00000000000E+00 0.  1.
         21    1    1    2  503  504  0.32954451593E+01 -0.89897077826E+02  0.26265015724E+02  0.93713369438E+02  0.00000000000E+00 0.  1.
         21    1    1    2  504  502  0.16561130390E+02 -0.89318885357E+02  0.82783657926E+02  0.12290349198E+03  0.00000000000E+00 0.  1.
         21    1    1    2  505  503  0.57668332305E+02 -0.83778956763E+02  0.69970194468E+01  0.10194855776E+03  0.00000000000E+00 0.  1.
         21    1    1    2  506  501 -0.77524907854E+02  0.26299491995E+03  0.26495153593E+03  0.38128172740E+03  0.00000000000E+00 0.  1.
<scales pt_clust_3="49.94099" pt_clust_4="70.13797" pt_clust_5="70.13797" pt_clust_6="274.18322"></scales>
<clustering>
<clus scale="   49.941">  3  4 -1 -1</clus>
<clus scale="   70.138">  3  5 -1 -1</clus>
<clus scale="  274.183">  1  6  2 -1</clus>
<clus scale="  274.183">  1  3  2 -1</clus>
</clustering>
</event>
<event>
 6    0  0.6132510E+002  0.9979197E+02  0.7546771E-02  0.1280734E+00
         21   -1    0    0  505  501  0.00000000000E+00  0.00000000000E+00  0.51588014556E+03  0.51588014556E+03  0.00000000000E+00 0.  1.
         21   -1    0    0  504  502 -0.00000000000E+00 -0.00000000000E+00 -0.37551472801E+03  0.37551472801E+03  0.00000000000E+00 0.  1.
         21    1    1    2  503  506 -0.57009404323E+02 -0.23645463898E+02  0.10800372834E+03  0.12439447528E+03  0.00000000000E+00 0.  1.
         21    1    1    2  504  501  0.17830942630E+02 -0.44057172959E+02 -0.11109693948E+03  0.12083669544E+03  0.00000000000E+00 0. -1.
         21    1    1    2  505  503 -0.34997020590E+02 -0.27559717959E+02  0.37893237195E+03  0.38154170416E+03  0.00000000000E+00 0.  1.
         21    1    1    2  506  502  0.74175482282E+02  0.95262354817E+02 -0.23547374327E+03  0.26462199868E+03  0.00000000000E+00 0.  1.
<scales pt_clust_3="99.79197" pt_clust_4="47.99908" pt_clust_5="44.54581" pt_clust_6="14000.00000"></scales>
<clustering>
<clus scale="   44.546">  1  5  2 -1</clus>
<clus scale="   47.999">  2  4  1 -1</clus>
<clus scale="   99.792">  1  3  2 -1</clus>
<clus scale="   44.546">  1  3  2 -1</clus>
</clustering>
</event>
<event>
 6    0  0.6132510E+002  0.9441644E+02  0.7546771E-02  0.1292496E+00
         21   -1    0    0  504  501  0.00000000000E+00  0.00000000000E+00  0.50570300279E+02  0.50570300279E+02  0.00000000000E+00 0. -1.
         21   -1    0    0  506  502 -0.00000000000E+00 -0.00000000000E+00 -0.76283804141E+03  0.76283804141E+03  0.00000000000E+00 0. -1.
         21    1    1    2  503  501  0.21860709310E+02 -0.28361670706E+02 -0.55530831973E+02  0.66075322749E+02  0.00000000000E+00 0.  1.
         21    1    1    2  504  505 -0.53295371087E+02 -0.23300177141E+02 -0.53746090831E+00  0.58168579992E+02  0.00000000000E+00 0. -1.
         21    1    1    2  505  502  0.48410495054E+02  0.12534135458E+03 -0.39401697131E+03  0.41629725543E+03  0.00000000000E+00 0. -1.
         21    1    1    2  506  503 -0.16975833277E+02 -0.73679506728E+02 -0.26218247694E+03  0.27286718352E+03  0.00000000000E+00 0. -1.
<scales pt_clust_3="35.80887" pt_clust_4="57.10215" pt_clust_5="14000.00000" pt_clust_6="94.41644"></scales>
<clustering>
<clus scale="   35.809">  1  3  2 -1</clus>
<clus scale="   57.102">  1  4  2 -1</clus>
<clus scale="   94.416">  2  6  1 -1</clus>
<clus scale="   35.809">  1  3  2 -1</clus>
</clustering>
</event>
<event>
 6    0  0.6132510E+002  0.7381867E+02  0.7546771E-02  0.1347569E+00
         21   -1    0    0  505  501  0.00000000000E+00  0.00000000000E+00  0.13849186236E+04  0.13849186236E+04  0.00000000000E+00 0.  1.
         21   -1    0    0  506  502 -0.00000000000E+00 -0.00000000000E+00 -0.46547014094E+03  0.46547014094E+03  0.00000000000E+00 0. -1.
         21    1    1    2  503  502  0.29463454529E+02  0.66179297796E+02 -0.42366075955E+03  0.42980953199E+03  0.00000000000E+00 0. -1.
         21    1    1    2  504  501  0.32660437961E+01 -0.33318186252E+02  0.77673869700E+03  0.77745982018E+03  0.00000000000E+00 0.  1.
         21    1    1    2  505  503 -0.70769080634E+02 -0.10918854159E+03  0.87704118382E+02  0.15691530445E+03  0.00000000000E+00 0.  1.
         21    1    1    2  506  504  0.38039582309E+02  0.76327430045E+02  0.47866642686E+03  0.48620410797E+03  0.00000000000E+00 0.  1.
<scales pt_clust_3="14000.00000" pt_clust_4="33.47788" pt_clust_5="73.81867" pt_clust_6="64.33656"></scales>
<clustering>
<clus scale="   33.478">  1  4  2 -1</clus>
<clus scale="   64.337">  1  6  2 -1</clus>
<clus scale="   73.819">  1  5  2 -1</clus>
<clus scale="   33.478">  1  3  2 -1</clus>
</clustering>
</event>
<event>
 6    0  0.6132510E+002  0.6006333E+02  0.7546771E-02  0.1397566E+00
         21   -1    0    0  503  501  0.00000000000E+00  0.00000000000E+00  0.21330455236E+04  0.21330455236E+04  0.00000000000E+00 0. -1.
         21   -1    0    0  504  502 -0.00000000000E+00 -0.00000000000E+00 -0.35374385666E+03  0.35374385666E+03  0.00000000000E+00 0. -1.
         21    1    1    2  503  502 -0.26178238878E+02 -0.84948287644E+02  0.14195825112E+04  0.14223628292E+04  0.00000000000E+00 0. -1.
         21    1    1    2  504  506  0.55309754809E+02 -0.18419216217E+02 -0.29936937920E+03  0.30499256008E+03  0.00000000000E+00 0. -1.
         21    1    1    2  505  501  0.44950310811E+02  0.35887367000E+02  0.65668266394E+03  0.65919690129E+03  0.00000000000E+00 0. -1.
         21    1    1    2  506  505 -0.74081826742E+02  0.67480136860E+02  0.24058709434E+01  0.10023708964E+03  0.00000000000E+00 0.  1.
<scales pt_clust_3="53.20821" pt_clust_4="60.06333" pt_clust_5="57.51898" pt_clust_6="14000.00000"></scales>
<clustering>
<clus scale="   57.519">  1  5  2 -1</clus>
<clus scale="   53.208">  1  3  2 -1</clus>
<clus scale="   60.063">  2  4  1 -1</clus>
<clus scale="   57.519">  1  3  2 -1</clus>
</clustering>
</event>
<event>
 6    0  0.6132510E+002  0.7628105E+02  0.7546771E-02  0.1339949E+00
         21   -1    0    0  503  501  0.00000000000E+00  0.00000000000E+00  0.95348729031E+03  0.95348729031E+03  0.00000000000E+00 0. -1.
         21   -1    0    0  504  502 -0.00000000000E+00 -0.00000000000E+00 -0.83977796215E+02  0.83977796215E+02  0.00000000000E+00 0. -1.
         21    1    1    2  503  505  0.37105037081E+02 -0.16667631576E+02  0.68660495223E+02  0.79805120909E+02  0.00000000000E+00 0. -1.
         21    1    1    2  504  506 -0.26816406068E+02 -0.55897429596E+02 -0.18795875837E+01  0.62025600516E+02  0.00000000000E+00 0. -1.
         21    1    1    2  505  502  0.56215147119E+02  0.90695136036E+02  0.18395453507E+02  0.10827808262E+03  0.00000000000E+00 0. -1.
         21    1    1    2  506  501 -0.66503778132E+02 -0.18130074864E+02  0.78433313295E+03  0.78735628248E+03  0.00000000000E+00 0. -1.
<scales pt_clust_3="40.67670" pt_clust_4="76.28105" pt_clust_5="14000.00000" pt_clust_6="46.92955"></scales>
<clustering>
<clus scale="   40.677">  1  3  2 -1</clus>
<clus scale="   46.930">  1  6  2 -1</clus>
<clus scale="   76.281">  2  4  1 -1</clus>
<clus scale="   40.677">  1  3  2 -1</clus>
</clustering>
</event>
<event>
 6    0  0.6132510E+002  0.1046083E+03  0.7546771E-02  0.1270893E+00
         21   -1    0    0  503  501  0.00000000000E+00  0.00000000000E+00  0.98127336537E+03  0.98127336537E+03  0.00000000000E+00 0. -1.
         21   -1    0    0  504  502 -0.00000000000E+00 -0.00000000000E+00 -0.32257289229E+03  0.32257289229E+03  0.00000000000E+00 0. -1.
         21    1    1    2  503  505  0.85813178584E+02 -0.15594814457E+03  0.78177031351E+03  0.80177836620E+03  0.00000000000E+00 0. -1.
         21    1    1    2  504  501 -0.34705314421E+02  0.79258552067E+02  0.17022810491E+03  0.19095545194E+03  0.00000000000E+00 0.  1.
         21    1    1    2  505  506 -0.12096253213E+02  0.47170207311E+02 -0.19909696365E+03  0.20496572576E+03  0.00000000000E+00 0. -1.
         21    1    1    2  506  502 -0.39011610949E+02  0.29519385194E+02 -0.94200981690E+02  0.10614671376E+03  0.00000000000E+00 0.  1.
<scales pt_clust_3="93.10711" pt_clust_4="86.52385" pt_clust_5="47.57631" pt_clust_6="47.57631"></scales>
<clustering>
<clus scale="   47.576">  5  6 -1 -1</clus>
<clus scale="   86.524">  1  4  2 -1</clus>
<clus scale="   93.107">  1  3  2 -1</clus>
<clus scale="   86.524">  1  3  2 -1</clus>
</clustering>
</event>
<event>
 6    0  0.1225724E+003  0.7978836E+02  0.7546771E-02  0.1329653E+00
         21   -1    0    0  504  501  0.00000000000E+00  0.00000000000E+00  0.50821438382E+03  0.50821438382E+03  0.00000000000E+00 0. -1.
         21   -1    0    0  503  502 -0.00000000000E+00 -0.00000000000E+00 -0.11778155197E+04  0.11778155197E+04  0.00000000000E+00 0. -1.
         21    1    1    2  503  501 -0.93581344735E+02 -0.16122711856E+02  0.31899338919E+03  0.33282757137E+03  0.00000000000E+00 0. -1.
         21    1    1    2  504  506  0.11081712646E+02  0.34523187272E+02  0.10449797032E+03  0.11060958646E+03  0.00000000000E+00 0. -1.
         21    1    1    2  505  502  0.16550221782E+02 -0.48223004489E+02 -0.11496234637E+04  0.11507534385E+04  0.00000000000E+00 0. -1.
         21    1    1    2  506  505  0.65949410307E+02  0.29822529074E+02  0.56530968314E+02  0.91839307155E+02  0.00000000000E+00 0. -1.
<scales pt_clust_3="79.78836" pt_clust_4="36.25817" pt_clust_5="50.94303" pt_clust_6="14000.00000"></scales>
<clustering>
<clus scale="   36.258">  1  4  2 -1</clus>
<clus scale="   50.943">  2  5  1 -1</clus>
<clus scale="   79.788">  1  3  2 -1</clus>
<clus scale="   36.258">  1  3  2 -1</clus>
</clustering>
</event>
<event>
 6    0  0.6132510E+002  0.1447579E+03  0.7546771E-02  0.1207067E+00
         21   -1    0    0  505  501  0.00000000000E+00  0.00000000000E+00  0.96309744737E+02  0.96309744737E+02  0.00000000000E+00 0. -1.
         21   -1    0    0  506  502 -0.00000000000E+00 -0.00000000000E+00 -0.56945165362E+03  0.56945165362E+03  0.00000000000E+00 0. -1.
         21    1    1    2  503  502  0.13293696247E+03 -0.47255633585E+01 -0.38157223877E+03  0.40409397464E+03  0.00000000000E+00 0. -1.
         21    1    1    2  504  503 -0.55736087515E+02 -0.31269011412E+01  0.33127139440E+02  0.64912990455E+02  0.00000000000E+00 0. -1.
         21    1    1    2  505  504 -0.75379918047E+02 -0.27529914476E+02 -0.15210639329E+02  0.81678588288E+02  0.00000000000E+00 0. -1.
         21    1    1    2  506  501 -0.18209569106E+01  0.35382378976E+02 -0.10948617022E+03  0.11507584497E+03  0.00000000000E+00 0. -1.
<scales pt_clust_3="133.85815" pt_clust_4="46.26122" pt_clust_5="46.26122" pt_clust_6="35.42921"></scales>
<clustering>
<clus scale="   35.429">  2  6  1 -1</clus>
<clus scale="   46.261">  4  5 -1 -1</clus>
<clus scale="  133.858">  2  3  1 -1</clus>
<clus scale="  144.758">  1  3  2 -1</clus>
</clustering>
</event>
<event>
 6    0  0.6132510E+002  0.9274548E+02  0.7546771E-02  0.1296336E+00
         21   -1    0    0  502  501  0.00000000000E+00  0.00000000000E+00  0.86319651285E+02  0.86319651285E+02  0.00000000000E+00 0.  1.
         21   -1    0    0  505  502 -0.00000000000E+00 -0.00000000000E+00 -0.88392543397E+03  0.88392543397E+03  0.00000000000E+00 0. -1.
         21    1    1    2  503  506  0.19333231033E+02  0.30743842074E+02 -0.11997452673E+03  0.12535088636E+03  0.00000000000E+00 0. -1.
         21    1    1    2  504  503  0.50656412598E+02  0.73792196660E+02 -0.10452190685E+03  0.13760882761E+03  0.00000000000E+00 0. -1.
         21    1    1    2  505  504 -0.28228933726E+02 -0.46666073980E+02 -0.61967623839E+03  0.62207172865E+03  0.00000000000E+00 0. -1.
         21    1    1    2  506  501 -0.41760709905E+02 -0.57869964754E+02  0.46566889287E+02  0.85213642629E+02  0.00000000000E+00 0.  1.
<scales pt_clust_3="34.43760" pt_clust_4="34.43760" pt_clust_5="54.53985" pt_clust_6="75.35844"></scales>
<clustering>
<clus scale="   34.438">  3  4 -1 -1</clus>
<clus scale="   54.540">  2  5  1 -1</clus>
<clus scale="   75.358">  1  6  2 -1</clus>
<clus scale="   75.358">  1  3  2 -1</clus>
</clustering>
</event>
<event>
 6    0  0.6132510E+002  0.1294488E+03  0.7546771E-02  0.1228276E+00
         21   -1    0    0  506  501  0.00000000000E+00  0.00000000000E+00  0.36856610652E+03  0.36856610652E+03  0.00000000000E+00 0. -1.
         21   -1    0    0  503  502 -0.00000000000E+00 -0.00000000000E+00 -0.12591660674E+03  0.12591660674E+03  0.00000000000E+00 0. -1.
         21    1    1    2  503  501  0.46040381622E+02  0.50007278138E+02  0.11609614422E+02  0.68958159443E+02  0.00000000000E+00 0. -1.
         21    1    1    2  504  505 -0.94248047718E+01  0.43606389778E+02  0.65558183509E+02  0.79298295060E+02  0.00000000000E+00 0. -1.
         21    1    1    2  505  502  0.34147060816E+02 -0.13393314094E+03 -0.23721773924E+02  0.14023847746E+03  0.00000000000E+00 0. -1.
         21    1    1    2  506  504 -0.70762637666E+02  0.40319473020E+02  0.18920347578E+03  0.20598778129E+03  0.00000000000E+00 0. -1.
<scales pt_clust_3="67.97385" pt_clust_4="40.61295" pt_clust_5="117.24303" pt_clust_6="40.61295"></scales>
<clustering>
<clus scale="   40.613">  4  6 -1 -1</clus>
<clus scale="   67.974">  2  3  1 -1</clus>
<clus scale="  117.243">  2  5  1 -1</clus>
<clus scale="  129.449">  1  3  2 -1</clus>
</clustering>
</event>
<event>
 6    0  0.6132510E+002  0.1572207E+03  0.7546771E-02  0.1191871E+00
         21   -1    0    0  506  501  0.00000000000E+00  0.00000000000E+00  0.35201678520E+03  0.35201678520E+03  0.00000000000E+00 0.  1.
         21   -1    0    0  505  502 -0.00000000000E+00 -0.00000000000E+00 -0.15449213040E+04  0.15449213040E+04  0.00000000000E+00 0. -1.
         21    1    1    2  503  502 -0.12971795141E+03  0.15407600022E+01  0.24841836597E+03  0.28025132544E+03  0.00000000000E+00 0.  1.
         21    1    1    2  504  501  0.18475494008E+03 -0.90142629910E+02 -0.22596659599E+03  0.30548483450E+03  0.00000000000E+00 0. -1.
         21    1    1    2  505  504 -0.31585200649E+02  0.57811826059E+02 -0.12544565776E+04  0.12561851524E+04  0.00000000000E+00 0. -1.
         21    1    1    2  506  503 -0.23451788020E+02  0.30790043849E+02  0.39100288731E+02  0.55016776899E+02  0.00000000000E+00 0.  1.
<scales pt_clust_3="157.22068" pt_clust_4="14000.00000" pt_clust_5="65.98585" pt_clust_6="38.70417"></scales>
<clustering>
<clus scale="   38.704">  1  6  2 -1</clus>
<clus scale="   65.986">  2  5  1 -1</clus>
<clus scale="  157.221">  1  3  2 -1</clus>
<clus scale="   38.704">  1  3  2 -1</clus>
</clustering>
</event>
<event>
 6    0  0.6132510E+002  0.9711323E+02  0.7546771E-02  0.1286486E+00
         21   -1    0    0  505  501  0.00000000000E+00  0.00000000000E+00  0.46682606889E+03  0.46682606889E+03  0.00000000000E+00 0.  1.
         21   -1    0    0  503  502 -0.00000000000E+00 -0.00000000000E+00 -0.48715319028E+03  0.48715319028E+03  0.00000000000E+00 0. -1.
         21    1    1    2  503  501 -0.58004564605E+02  0.51177329814E+02 -0.45579504447E+03  0.46231241728E+03  0.00000000000E+00 0. -1.
         21    1    1    2  504  506 -0.26577935780E+02 -0.66652150604E+02  0.84715714886E+02  0.11102093586E+03  0.00000000000E+00 0.  1.
         21    1    1    2  505  504  0.65056730899E+02  0.56538927832E+02  0.30165691287E+03  0.31372905775E+03  0.00000000000E+00 0.  1.
         21    1    1    2  506  502  0.19525769486E+02 -0.41064107042E+02  0.49095295322E+02  0.66916848282E+02  0.00000000000E+00 0.  1.
<scales pt_clust_3="77.35405" pt_clust_4="36.51327" pt_clust_5="85.59811" pt_clust_6="36.51327"></scales>
<clustering>
<clus scale="   36.513">  4  6 -1 -1</clus>
<clus scale="   77.354">  2  3  1 -1</clus>
<clus scale="   85.598">  1  5  2 -1</clus>
<clus scale="   85.598">  1  3  2 -1</clus>
</clustering>
</event>
<event>
 6    0  0.6132510E+002  0.2074205E+03  0.7546771E-02  0.1143625E+00
         21   -1    0    0  503  501  0.00000000000E+00  0.00000000000E+00  0.11734060461E+04  0.11734060461E+04  0.00000000000E+00 0.  1.
         21   -1    0    0  505  502 -0.00000000000E+00 -0.00000000000E+00 -0.52097128021E+02  0.52097128021E+02  0.00000000000E+00 0. -1.
         21    1    1    2  503  506  0.56070189992E+02  0.42935871599E+02  0.28604090025E+03  0.29462985574E+03  0.00000000000E+00 0.  1.
         21    1    1    2  504  502 -0.47125749244E+02 -0.21118750562E+03  0.43469989118E+03  0.48557697038E+03  0.00000000000E+00 0. -1.
         21    1    1    2  505  501 -0.20725943045E+01  0.47605142839E+02  0.31935187489E+02  0.57362021162E+02  0.00000000000E+00 0. -1.
         21    1    1    2  506  504 -0.68718464438E+01  0.12064649118E+03  0.36863293916E+03  0.38793432684E+03  0.00000000000E+00 0.  1.
<scales pt_clust_3="67.19537" pt_clust_4="186.83388" pt_clust_5="47.65024" pt_clust_6="67.19537"></scales>
<clustering>
<clus scale="   47.650">  2  5  1 -1</clus>
<clus scale="   67.195">  3  6 -1 -1</clus>
<clus scale="  186.834">  2  4  1 -1</clus>
<clus scale="  207.420">  1  3  2 -1</clus>
</clustering>
</event>
<event>
 6    0  0.6132510E+002  0.1614295E+03  0.7546771E-02  0.1187092E+00
         21   -1    0    0  505  501  0.00000000000E+00  0.00000000000E+00  0.28554284145E+04  0.28554284145E+04  0.00000000000E+00 0. -1.
         21   -1    0    0  506  502 -0.00000000000E+00 -0.00000000000E+00 -0.97491708613E+02  0.97491708613E+02  0.00000000000E+00 0. -1.
         21    1    1    2  503  504  0.16555379828E+03 -0.16664543873E+02  0.63003291882E+03  0.65163428850E+03  0.00000000000E+00 0. -1.
         21    1    1    2  504  501  0.11972050372E+02  0.38365965534E+02  0.13220264702E+04  0.13226372387E+04  0.00000000000E+00 0. -1.
         21    1    1    2  505  502 -0.23234086859E+02  0.28847868300E+02  0.81517994253E+03  0.81602105426E+03  0.00000000000E+00 0. -1.
         21    1    1    2  506  503 -0.15429176179E+03 -0.50549289960E+02 -0.93026256207E+01  0.16262754169E+03  0.00000000000E+00 0. -1.
<scales pt_clust_3="161.42947" pt_clust_4="57.15036" pt_clust_5="37.04082" pt_clust_6="14000.00000"></scales>
<clustering>
<clus scale="   37.041">  1  5  2 -1</clus>
<clus scale="   57.150">  1  4  2 -1</clus>
<clus scale="  161.429">  1  3  2 -1</clus>
<clus scale="   37.041">  1  3  2 -1</clus>
</clustering>
</event>
<event>
 6    0  0.6132510E+002  0.1010734E+03  0.7546771E-02  0.1278055E+00
         21   -1    0    0  504  501  0.00000000000E+00  0.00000000000E+00  0.10783220402E+04  0.10783220402E+04  0.00000000000E+00 0.  1.
         21   -1    0    0  505  502 -0.00000000000E+00 -0.00000000000E+00 -0.37454290866E+03  0.37454290866E+03  0.00000000000E+00 0. -1.
         21    1    1    2  503  502  0.18546409950E+02 -0.72203964501E+02 -0.81186884561E+02  0.11022110522E+03  0.00000000000E+00 0.  1.
         21    1    1    2  504  506 -0.47410658111E+02 -0.61621846595E+01  0.64527847164E+03  0.64704717678E+03  0.00000000000E+00 0.  1.
         21    1    1    2  505  501  0.67491934828E+02  0.10995174342E+03 -0.26135416849E+03  0.29146277384E+03  0.00000000000E+00 0. -1.
         21    1    1    2  506  503 -0.38627686667E+02 -0.31585594262E+02  0.40104171294E+03  0.40413389299E+03  0.00000000000E+00 0. -1.
<scales pt_clust_3="74.54785" pt_clust_4="36.20730" pt_clust_5="94.06173" pt_clust_6="36.20730"></scales>
<clustering>
<clus scale="   36.207">  4  6 -1 -1</clus>
<clus scale="   74.548">  2  3  1 -1</clus>
<clus scale="   94.062">  2  5  1 -1</clus>
<clus scale="  101.073">  1  3  2 -1</clus>
</clustering>
</event>
<event>
 6    0  0.6132510E+002  0.1212203E+03  0.7546771E-02  0.1241097E+00
         21   -1    0    0  505  501  0.00000000000E+00  0.00000000000E+00  0.20166454164E+04  0.20166454164E+04  0.00000000000E+00 0. -1.
         21   -1    0    0  504  502 -0.00000000000E+00 -0.00000000000E+00 -0.37183462330E+02  0.37183462330E+02  0.00000000000E+00 0.  1.
         21    1    1    2  503  501 -0.46600420092E+02 -0.63580633953E+02  0.11671695318E+04  0.11698285396E+04  0.00000000000E+00 0. -1.
         21    1    1    2  504  506  0.73461256714E+02  0.13032210172E+03  0.30939306255E+03  0.34366331429E+03  0.00000000000E+00 0.  1.
         21    1    1    2  505  502 -0.35171575547E+02 -0.29520423573E+02  0.11336643638E+02  0.47297088952E+02  0.00000000000E+00 0.  1.
         21    1    1    2  506  503  0.83107389250E+01 -0.37221044191E+02  0.49156271612E+03  0.49303993590E+03  0.00000000000E+00 0. -1.
<scales pt_clust_3="31.96394" pt_clust_4="112.17196" pt_clust_5="45.91835" pt_clust_6="31.96394"></scales>
<clustering>
<clus scale="   31.964">  3  6 -1 -1</clus>
<clus scale="   45.918">  2  5  1 -1</clus>
<clus scale="  112.172">  2  4  1 -1</clus>
<clus scale="  121.220">  1  3  2 -1</clus>
</clustering>
</event>
<event>
 6    0  0.6132510E+002  0.8262456E+02  0.7546771E-02  0.1321764E+00
         21   -1    0    0  504  501  0.00000000000E+00  0.00000000000E+00  0.14231976256E+03  0.14231976256E+03  0.00000000000E+00 0. -1.
         21   -1    0    0  503  502 -0.00000000000E+00 -0.00000000000E+00 -0.10424800259E+04  0.10424800259E+04  0.00000000000E+00 0. -1.
         21    1    1    2  503  506  0.30442999051E+02  0.17132352554E+02 -0.62643942382E+03  0.62741265959E+03  0.00000000000E+00 0. -1.
         21    1    1    2  504  502  0.79612000047E+02  0.29026747978E+01  0.84471344623E+02  0.11611160207E+03  0.00000000000E+00 0. -1.
         21    1    1    2  505  501 -0.90679838188E+02 -0.51872426314E+02 -0.26876150209E+02  0.10786987121E+03  0.00000000000E+00 0.  1.
         21    1    1    2  506  505 -0.19375160910E+02  0.31837398962E+02 -0.33131603393E+03  0.33340565558E+03  0.00000000000E+00 0. -1.
<scales pt_clust_3="34.93270" pt_clust_4="14000.00000" pt_clust_5="82.62456" pt_clust_6="45.81063"></scales>
<clustering>
<clus scale="   34.933">  2  3  1 -1</clus>
<clus scale="   45.811">  2  6  1 -1</clus>
<clus scale="   82.625">  2  5  1 -1</clus>
<clus scale="   82.625">  1  3  2 -1</clus>
</clustering>
</event>
<event>
 6    0  0.6132510E+002  0.1549097E+03  0.7546771E-02  0.1194566E+00
         21   -1    0    0  505  501  0.00000000000E+00  0.00000000000E+00  0.41331853563E+03  0.41331853563E+03  0.00000000000E+00 0. -1.
         21   -1    0    0  504  502 -0.00000000000E+00 -0.00000000000E+00 -0.29163488661E+03  0.29163488661E+03  0.00000000000E+00 0. -1.
         21    1    1    2  503  502  0.98829809532E+02  0.10363431571E+03 -0.17411270048E+03  0.22543876134E+03  0.00000000000E+00 0. -1.
         21    1    1    2  504  506 -0.27331395225E+02  0.39913901651E+02 -0.54260913751E+02  0.72693682470E+02  0.00000000000E+00 0.  1.
         21    1    1    2  505  503 -0.33710131276E+02 -0.13405212876E+03  0.33933757776E+03  0.36641006789E+03  0.00000000000E+00 0. -1.
         21    1    1    2  506  501 -0.37788283031E+02 -0.94960886012E+01  0.10719685492E+02  0.40410910534E+02  0.00000000000E+00 0. -1.
<scales pt_clust_3="14000.00000" pt_clust_4="48.70381" pt_clust_5="154.90973" pt_clust_6="38.96319"></scales>
<clustering>
<clus scale="   38.963">  1  6  2 -1</clus>
<clus scale="   48.704">  2  4  1 -1</clus>
<clus scale="  154.910">  1  5  2 -1</clus>
<clus scale="   38.963">  1  3  2 -1</clus>
</clustering>
</event>
<event>
 6    0  0.6132510E+002  0.1764999E+03  0.7546771E-02  0.1171234E+00
         21   -1    0    0  503  501  0.00000000000E+00  0.00000000000E+00  0.17713545612E+03  0.17713545612E+03  0.00000000000E+00 0. -1.
         21   -1    0    0  506  502 -0.00000000000E+00 -0.00000000000E+00 -0.12503675608E+04  0.12503675608E+04  0.00000000000E+00 0.  1.
         21    1    1    2  503  504 -0.28848595361E+02  0.12934647267E+02 -0.78968654623E+01  0.32586915140E+02  0.00000000000E+00 0. -1.
         21    1    1    2  504  505 -0.65406432228E+02  0.13938927111E+03  0.10481382857E+03  0.18626139948E+03  0.00000000000E+00 0. -1.
         21    1    1    2  505  502  0.67956563631E+02 -0.17106395739E+03 -0.42923325710E+03  0.46703550299E+03  0.00000000000E+00 0.  1.
         21    1    1    2  506  501  0.26298463958E+02  0.18740039015E+02 -0.74091581069E+03  0.74161919932E+03  0.00000000000E+00 0.  1.
<scales pt_clust_3="31.61561" pt_clust_4="176.49986" pt_clust_5="14000.00000" pt_clust_6="32.25832"></scales>
<clustering>
<clus scale="   31.616">  1  3  2 -1</clus>
<clus scale="   32.258">  2  6  1 -1</clus>
<clus scale="  176.500">  1  4  2 -1</clus>
<clus scale="   31.616">  1  3  2 -1</clus>
</clustering>
</event>
<event>
 6    0  0.6132510E+002  0.1547802E+03  0.7546771E-02  0.1194719E+00
         21   -1    0    0  502  501  0.00000000000E+00  0.00000000000E+00  0.24302969006E+03  0.24302969006E+03  0.00000000000E+00 0.  1.
         21   -1    0    0  505  502 -0.00000000000E+00 -0.00000000000E+00 -0.41331715912E+03  0.41331715912E+03  0.00000000000E+00 0. -1.
         21    1    1    2  503  506 -0.16856810064E+02 -0.11080868278E+03 -0.74937084566E+02  0.13482686256E+03  0.00000000000E+00 0. -1.
         21    1    1    2  504  501 -0.61130449726E+01  0.56749165712E+02  0.42781635618E+02  0.71330957333E+02  0.00000000000E+00 0.  1.
         21    1    1    2  505  503  0.88297935988E+02 -0.38770920157E+02 -0.26378230063E+03  0.28085728026E+03  0.00000000000E+00 0. -1.
         21    1    1    2  506  504 -0.65328080951E+02  0.92830437225E+02  0.12565028051E+03  0.16933174903E+03  0.00000000000E+00 0.  1.
<scales pt_clust_3="147.93775" pt_clust_4="32.27263" pt_clust_5="96.43500" pt_clust_6="32.27263"></scales>
<clustering>
<clus scale="   32.273">  4  6 -1 -1</clus>
<clus scale="   96.435">  2  5  1 -1</clus>
<clus scale="  147.938">  2  3  1 -1</clus>
<clus scale="  154.780">  1  3  2 -1</clus>
</clustering>
</event>
<event>
 6    0  0.6132510E+002  0.1871242E+03  0.7546771E-02  0.1161081E+00
         21   -1    0    0  504  501  0.00000000000E+00  0.00000000000E+00  0.21002716861E+03  0.21002716861E+03  0.00000000000E+00 0. -1.
         21   -1    0    0  506  502 -0.00000000000E+00 -0.00000000000E+00 -0.24234725280E+03  0.24234725280E+03  0.00000000000E+00 0. -1.
         21    1    1    2  503  502 -0.85140565066E+02  0.68441965375E+01 -0.60245809743E+02  0.10452423852E+03  0.00000000000E+00 0. -1.
         21    1    1    2  504  503 -0.78825428376E+02  0.17052951599E+02 -0.55245003547E+01  0.80837933057E+02  0.00000000000E+00 0. -1.
         21    1    1    2  505  501  0.17987772595E+03 -0.53411583257E+02  0.84617650615E+02  0.20583716942E+03  0.00000000000E+00 0. -1.
         21    1    1    2  506  505 -0.15911732509E+02  0.29514435121E+02 -0.51167424712E+02  0.61175080413E+02  0.00000000000E+00 0.  1.
<scales pt_clust_3="48.45537" pt_clust_4="48.45537" pt_clust_5="180.10548" pt_clust_6="33.53036"></scales>
<clustering>
<clus scale="   33.530">  2  6  1 -1</clus>
<clus scale="   48.455">  3  4 -1 -1</clus>
<clus scale="  180.105">  1  5  2 -1</clus>
<clus scale="  180.105">  1  3  2 -1</clus>
</clustering>
</event>
<event>
 6    0  0.6132510E+002  0.7052967E+02  0.7546771E-02  0.1358301E+00
         21   -1    0    0  506  501  0.00000000000E+00  0.00000000000E+00  0.56807544653E+03  0.56807544653E+03  0.00000000000E+00 0.  1.
         21   -1    0    0  503  502 -0.00000000000E+00 -0.00000000000E+00 -0.28471835528E+03  0.28471835528E+03  0.00000000000E+00 0.  1.
         21    1    1    2  503  505 -0.10574331982E+02  0.33034250773E+02 -0.17077012658E+03  0.17425703531E+03  0.00000000000E+00 0.  1.
         21    1    1    2  504  501 -0.91825407370E+02  0.15931768872E+02  0.48444424350E+03  0.49332742855E+03  0.00000000000E+00 0.  1.
         21    1    1    2  505  504  0.71591626738E+02 -0.62662052882E+02 -0.80584184394E+02  0.12468241522E+03  0.00000000000E+00 0.  1.
         21    1    1    2  506  502  0.30808112614E+02  0.13696033236E+02  0.50267158721E+02  0.60526922730E+02  0.00000000000E+00 0.  1.
<scales pt_clust_3="34.69802" pt_clust_4="70.52967" pt_clust_5="14000.00000" pt_clust_6="33.71530"></scales>
<clustering>
<clus scale="   33.715">  1  6  2 -1</clus>
<clus scale="   34.698">  2  3  1 -1</clus>
<clus scale="   70.530">  1  4  2 -1</clus>
<clus scale="   33.715">  1  3  2 -1</clus>
</clustering>
</event>
<event>
 6    0  0.6132510E+002  0.1186494E+03  0.7546771E-02  0.1245342E+00
         21   -1    0    0  506  501  0.00000000000E+00  0.00000000000E+00  0.15609334832E+04  0.15609334832E+04  0.00000000000E+00 0.  1.
         21   -1    0    0  504  502 -0.00000000000E+00 -0.00000000000E+00 -0.35111460136E+03  0.35111460136E+03  0.00000000000E+00 0.  1.
         21    1    1    2  503  502  0.10393935127E+03  0.23236784546E+00 -0.30225904058E+03  0.31963099091E+03  0.00000000000E+00 0.  1.
         21    1    1    2  504  505 -0.15612373331E+01 -0.61105689762E+02 -0.94381376859E+01  0.61849989703E+02  0.00000000000E+00 0. -1.
         21    1    1    2  505  501 -0.21877286997E+02 -0.34670269536E+02  0.33921396124E+03  0.34168224241E+03  0.00000000000E+00 0.  1.
         21    1    1    2  506  503 -0.80500826939E+02  0.95543591453E+02  0.11823020988E+04  0.11888848615E+04  0.00000000000E+00 0.  1.
<scales pt_clust_3="118.64936" pt_clust_4="61.88346" pt_clust_5="40.99565" pt_clust_6="14000.00000"></scales>
<clustering>
<clus scale="   40.996">  1  5  2 -1</clus>
<clus scale="   61.883">  2  4  1 -1</clus>
<clus scale="  118.649">  2  3  1 -1</clus>
<clus scale="   40.996">  1  3  2 -1</clus>
</clustering>
</event>
<event>
 6    0  0.6132510E+002  0.1862139E+03  0.7546771E-02  0.1161921E+00
         21   -1    0    0  503  501  0.00000000000E+00  0.00000000000E+00  0.31497520356E+03  0.31497520356E+03  0.00000000000E+00 0.  1.
         21   -1    0    0  506  502 -0.00000000000E+00 -0.00000000000E+00 -0.85958121873E+03  0.85958121873E+03  0.00000000000E+00 0. -1.
         21    1    1    2  503  502 -0.10883244102E+03 -0.73935647336E+02 -0.31848606209E+03  0.34459302360E+03  0.00000000000E+00 0. -1.
         21    1    1    2  504  505  0.59459634880E+02  0.76019719108E+01  0.46548721351E+02  0.75894806254E+02  0.00000000000E+00 0. -1.
         21    1    1    2  505  501  0.10768594645E+03  0.56312266676E+02  0.22349147563E+03  0.25439295218E+03  0.00000000000E+00 0.  1.
         21    1    1    2  506  504 -0.58313140312E+02  0.10021408750E+02 -0.49616015005E+03  0.49967564026E+03  0.00000000000E+00 0. -1.
<scales pt_clust_3="174.72835" pt_clust_4="45.22106" pt_clust_5="45.22106" pt_clust_6="59.16799"></scales>
<clustering>
<clus scale="   45.221">  4  5 -1 -1</clus>
<clus scale="   59.168">  2  6  1 -1</clus>
<clus scale="  174.728">  2  3  1 -1</clus>
<clus scale="  186.214">  1  3  2 -1</clus>
</clustering>
</event>
<event>
 6    0  0.6132510E+002  0.2003015E+03  0.7546771E-02  0.1149485E+00
         21   -1    0    0  504  501  0.00000000000E+00  0.00000000000E+00  0.32235142334E+03  0.32235142334E+03  0.00000000000E+00 0.  1.
         21   -1    0    0  503  502 -0.00000000000E+00 -0.00000000000E+00 -0.65647757170E+03  0.65647757170E+03  0.00000000000E+00 0.  1.
         21    1    1    2  503  505  0.37807720649E+02 -0.89110702561E+02 -0.46784654724E+03  0.47775572504E+03  0.00000000000E+00 0.  1.
         21    1    1    2  504  506  0.13836012106E+03  0.94707849207E+02  0.19393507013E+03  0.25636675141E+03  0.00000000000E+00 0.  1.
         21    1    1    2  505  501 -0.17617670056E+03 -0.42330195687E+02 -0.85259503620E+02  0.20024799186E+03  0.00000000000E+00 0.  1.
         21    1    1    2  506  502  0.88588512794E-02  0.36733049041E+02  0.25044832373E+02  0.44458526729E+02  0.00000000000E+00 0.  1.
<scales pt_clust_3="96.79949" pt_clust_4="36.61941" pt_clust_5="184.39017" pt_clust_6="36.61941"></scales>
<clustering>
<clus scale="   36.619">  4  6 -1 -1</clus>
<clus scale="   96.799">  2  3  1 -1</clus>
<clus scale="  184.390">  2  5  1 -1</clus>
<clus scale="  200.302">  1  3  2 -1</clus>
</clustering>
</event>
<event>
 6    0  0.6132510E+002  0.7297648E+02  0.7546771E-02  0.1350254E+00
         21   -1    0    0  506  501  0.00000000000E+00  0.00000000000E+00  0.24753764713E+03  0.24753764713E+03  0.00000000000E+00 0.  1.
         21   -1    0    0  505  502 -0.00000000000E+00 -0.00000000000E+00 -0.28056056754E+03  0.28056056754E+03  0.00000000000E+00 0.  1.
         21    1    1    2  503  501  0.81973762914E+02 -0.98500858967E+02  0.12324253839E+03  0.17779437644E+03  0.00000000000E+00 0.  1.
         21    1    1    2  504  502 -0.25868408986E+02  0.39680771920E+02 -0.22001052113E+02  0.52228196769E+02  0.00000000000E+00 0.  1.
         21    1    1    2  505  503 -0.39477056492E+02  0.60351162285E+01 -0.20466608373E+03  0.20852593711E+03  0.00000000000E+00 0.  1.
         21    1    1    2  506  504 -0.16628297436E+02  0.52784970818E+02  0.70401677048E+02  0.89549704361E+02  0.00000000000E+00 0.  1.
<scales pt_clust_3="72.97648" pt_clust_4="14000.00000" pt_clust_5="39.93571" pt_clust_6="57.80903"></scales>
<clustering>
<clus scale="   39.936">  2  5  1 -1</clus>
<clus scale="   57.809">  1  6  2 -1</clus>
<clus scale="   72.976">  1  3  2 -1</clus>
<clus scale="   57.809">  1  3  2 -1</clus>
</clustering>
</event>
<event>
 6    0  0.6132510E+002  0.1576393E+03  0.7546771E-02  0.1191388E+00
         21   -1    0    0  504  501  0.00000000000E+00  0.00000000000E+00  0.56243160962E+03  0.56243160962E+03  0.00000000000E+00 0.  1.
         21   -1    0    0  506  502 -0.00000000000E+00 -0.00000000000E+00 -0.13471707135E+03  0.13471707135E+03  0.00000000000E+00 0. -1.
         21    1    1    2  503  502 -0.11251505927E+03  0.14577750765E+02 -0.52761906491E+02  0.12512381131E+03  0.00000000000E+00 0. -1.
         21    1    1    2  504  505  0.72748758460E+02 -0.64183491717E+02  0.35804136441E+03  0.37095218169E+03  0.00000000000E+00 0.  1.
         21    1    1    2  505  503  0.57672395142E+02 -0.17113931861E+02  0.11726895349E+03  0.13179908679E+03  0.00000000000E+00 0.  1.
         21    1    1    2  506  501 -0.17906094334E+02  0.66719672812E+02  0.51661268532E+01  0.69273601185E+02  0.00000000000E+00 0. -1.
<scales pt_clust_3="147.07192" pt_clust_4="44.68429" pt_clust_5="44.68429" pt_clust_6="69.08070"></scales>
<clustering>
<clus scale="   44.684">  4  5 -1 -1</clus>
<clus scale="   69.081">  2  6  1 -1</clus>
<clus scale="  147.072">  2  3  1 -1</clus>
<clus scale="  157.639">  1  3  2 -1</clus>
</clustering>
</event>
<event>
 6    0  0.6132510E+002  0.1378848E+03  0.7546771E-02  0.1216204E+00
         21   -1    0    0  504  501  0.00000000000E+00  0.00000000000E+00  0.65671901459E+03  0.65671901459E+03  0.00000000000E+00 0.  1.
         21   -1    0    0  506  502 -0.00000000000E+00 -0.00000000000E+00 -0.20065752493E+03  0.20065752493E+03  0.00000000000E+00 0. -1.
         21    1    1    2  503  505 -0.59200649434E+02 -0.36493847107E+02  0.24260923628E+03  0.25238018800E+03  0.00000000000E+00 0.  1.
         21    1    1    2  504  502 -0.36095781856E+02  0.17182167778E+03 -0.25996531118E+02  0.17748637709E+03  0.00000000000E+00 0. -1.
         21    1    1    2  505  501 -0.21240711230E+02 -0.65528991169E+02  0.27791723456E+03  0.28632709575E+03  0.00000000000E+00 0.  1.
         21    1    1    2  506  503  0.11653714252E+03 -0.69798839500E+02 -0.38468450049E+02  0.14118287868E+03  0.00000000000E+00 0. -1.
<scales pt_clust_3="48.53559" pt_clust_4="128.97276" pt_clust_5="48.53559" pt_clust_6="135.84102"></scales>
<clustering>
<clus scale="   48.536">  3  5 -1 -1</clus>
<clus scale="  135.841">  2  6  1 -1</clus>
<clus scale="  128.973">  2  4  1 -1</clus>
<clus scale="  137.885">  1  3  2 -1</clus>
</clustering>
</event>
<event>
 6    0  0.6132510E+002  0.7700817E+02  0.7546771E-02  0.1337763E+00
         21   -1    0    0  505  501  0.00000000000E+00  0.00000000000E+00  0.62476942682E+03  0.62476942682E+03  0.00000000000E+00 0. -1.
         21   -1    0    0  504  502 -0.00000000000E+00 -0.00000000000E+00 -0.47979950430E+03  0.47979950430E+03  0.00000000000E+00 0.  1.
         21    1    1    2  503  502 -0.16676030769E+02  0.67553098387E+02 -0.25830536930E+03  0.26751294345E+03  0.00000000000E+00 0.  1.
         21    1    1    2  504  501  0.71189595957E+02 -0.12182497728E+03 -0.18880456836E+03  0.23570415502E+03  0.00000000000E+00 0.  1.
         21    1    1    2  505  506  0.41974733477E+01  0.31403231145E+02  0.34170470893E+03  0.34317035101E+03  0.00000000000E+00 0. -1.
         21    1    1    2  506  503 -0.58711038536E+02  0.22868647743E+02  0.25037515125E+03  0.25818148164E+03  0.00000000000E+00 0. -1.
<scales pt_clust_3="70.06197" pt_clust_4="14000.00000" pt_clust_5="31.68251" pt_clust_6="77.00817"></scales>
<clustering>
<clus scale="   31.683">  1  5  2 -1</clus>
<clus scale="   70.062">  2  3  1 -1</clus>
<clus scale="   77.008">  1  6  2 -1</clus>
<clus scale="   31.683">  1  3  2 -1</clus>
</clustering>
</event>
<event>
 6    0  0.6132510E+002  0.1309956E+03  0.7546771E-02  0.1225986E+00
         21   -1    0    0  503  501  0.00000000000E+00  0.00000000000E+00  0.26578811395E+02  0.26578811395E+02  0.00000000000E+00 0.  1.
         21   -1    0    0  505  502 -0.00000000000E+00 -0.00000000000E+00 -0.19872146170E+04  0.19872146170E+04  0.00000000000E+00 0.  1.
         21    1    1    2  503  504  0.13290453178E+02  0.52704296034E+02 -0.12553498081E+03  0.13679696771E+03  0.00000000000E+00 0.  1.
         21    1    1    2  504  506 -0.60660859487E+02 -0.15485027804E+03 -0.65546438020E+03  0.67623361510E+03  0.00000000000E+00 0.  1.
         21    1    1    2  505  501  0.77278191443E+02 -0.19244512761E+02 -0.24053075304E+03  0.25337188736E+03  0.00000000000E+00 0.  1.
         21    1    1    2  506  502 -0.29907785134E+02  0.12139049476E+03 -0.93910569151E+03  0.94739095819E+03  0.00000000000E+00 0.  1.
<scales pt_clust_3="54.35420" pt_clust_4="14000.00000" pt_clust_5="81.41044" pt_clust_6="130.99557"></scales>
<clustering>
<clus scale="   54.354">  1  3  2 -1</clus>
<clus scale="   81.410">  1  5  2 -1</clus>
<clus scale="  130.996">  2  6  1 -1</clus>
<clus scale="   54.354">  1  3  2 -1</clus>
</clustering>
</event>
<event>
 6    0  0.6132510E+002  0.1229364E+03  0.7546771E-02  0.1238330E+00
         21   -1    0    0  506  501  0.00000000000E+00  0.00000000000E+00  0.19354023777E+03  0.19354023777E+03  0.00000000000E+00 0. -1.
         21   -1    0    0  504  502 -0.00000000000E+00 -0.00000000000E+00 -0.23739170062E+04  0.23739170062E+04  0.00000000000E+00 0.  1.
         21    1    1    2  503  502 -0.41327605846E+02  0.35830146413E+02 -0.30062792134E+03  0.30556327902E+03  0.00000000000E+00 0.  1.
         21    1    1    2  504  505 -0.62734256313E+02  0.32179032029E+02 -0.19897175909E+04  0.19909663906E+04  0.00000000000E+00 0.  1.
         21    1    1    2  505  501 -0.58803379212E+02 -0.58832494976E+02  0.50451429450E+02  0.97285387420E+02  0.00000000000E+00 0. -1.
         21    1    1    2  506  503  0.16286524137E+03 -0.91766834662E+01  0.59517314360E+02  0.17364218691E+03  0.00000000000E+00 0. -1.
<scales pt_clust_3="54.69708" pt_clust_4="122.93639" pt_clust_5="83.22722" pt_clust_6="14000.00000"></scales>
<clustering>
<clus scale="   54.697">  2  3  1 -1</clus>
<clus scale="   83.227">  1  5  2 -1</clus>
<clus scale="  122.936">  2  4  1 -1</clus>
<clus scale="   83.227">  1  3  2 -1</clus>
</clustering>
</event>
<event>
 6    0  0.6132510E+002  0.1787810E+03  0.7546771E-02  0.1168988E+00
         21   -1    0    0  506  501  0.00000000000E+00  0.00000000000E+00  0.36758028518E+03  0.36758028518E+03  0.00000000000E+00 0.  1.
         21   -1    0    0  504  502 -0.00000000000E+00 -0.00000000000E+00 -0.49311423259E+03  0.49311423259E+03  0.00000000000E+00 0.  1.
         21    1    1    2  503  502 -0.51358291836E+02 -0.50565134989E+02 -0.97379407788E+02  0.12114972587E+03  0.00000000000E+00 0.  1.
         21    1    1    2  504  505  0.44716000589E+02 -0.34995554979E+02  0.45250725112E+02  0.72607421797E+02  0.00000000000E+00 0. -1.
         21    1    1    2  505  501  0.85644607420E+02 -0.63440474715E+02  0.26675766727E+03  0.28726180683E+03  0.00000000000E+00 0.  1.
         21    1    1    2  506  503 -0.79002316173E+02  0.14900116468E+03 -0.34016293201E+03  0.37967556328E+03  0.00000000000E+00 0.  1.
<scales pt_clust_3="72.07293" pt_clust_4="53.99832" pt_clust_5="53.99832" pt_clust_6="162.75614"></scales>
<clustering>
<clus scale="   53.998">  4  5 -1 -1</clus>
<clus scale="   72.073">  2  3  1 -1</clus>
<clus scale="  162.756">  2  6  1 -1</clus>
<clus scale="  178.781">  1  3  2 -1</clus>
</clustering>
</event>
<event>
 6    0  0.7952981E+002  0.1576693E+03  0.7546771E-02  0.1191353E+00
         21   -1    0    0  503  501  0.00000000000E+00  0.00000000000E+00  0.22675510523E+03  0.22675510523E+03  0.00000000000E+00 0. -1.
         21   -1    0    0  506  502 -0.00000000000E+00 -0.00000000000E+00 -0.40190534994E+03  0.40190534994E+03  0.00000000000E+00 0. -1.
         21    1    1    2  503  505  0.15130812455E+03  0.33444013504E+02  0.16266327790E+03  0.22465972619E+03  0.00000000000E+00 0. -1.
         21    1    1    2  504  501 -0.79697058003E+02 -0.25556282936E+02 -0.42134574731E+02  0.93702011930E+02  0.00000000000E+00 0. -1.
         21    1    1    2  505  502 -0.29315418146E+02 -0.11221208416E+02 -0.22984120841E+03  0.23197476230E+03  0.00000000000E+00 0. -1.
         21    1    1    2  506  504 -0.42295648405E+02  0.33334778482E+01 -0.65837739467E+02  0.78323954744E+02  0.00000000000E+00 0. -1.
<scales pt_clust_3="149.33447" pt_clust_4="38.14479" pt_clust_5="31.38964" pt_clust_6="38.14479"></scales>
<clustering>
<clus scale="   31.390">  2  5  1 -1</clus>
<clus scale="   38.145">  4  6 -1 -1</clus>
<clus scale="  149.334">  1  3  2 -1</clus>
<clus scale="  149.334">  1  3  2 -1</clus>
</clustering>
</event>
<event>
 6    0  0.6132510E+002  0.1324227E+03  0.7546771E-02  0.1223905E+00
         21   -1    0    0  505  501  0.00000000000E+00  0.00000000000E+00  0.45957892574E+03  0.45957892574E+03  0.00000000000E+00 0. -1.
         21   -1    0    0  506  502 -0.00000000000E+00 -0.00000000000E+00 -0.52558984988E+02  0.52558984988E+02  0.00000000000E+00 0. -1.
         21    1    1    2  503  502 -0.34609977014E+02 -0.68394502606E+02  0.53845303573E+02  0.93674837670E+02  0.00000000000E+00 0. -1.
         21    1    1    2  504  501  0.44881087512E+02  0.10692514379E+03  0.23248999234E+03  0.25980549442E+03  0.00000000000E+00 0. -1.
         21    1    1    2  505  503 -0.38193835732E+02 -0.50318114314E+02  0.10937498632E+03  0.12630743980E+03  0.00000000000E+00 0.  1.
         21    1    1    2  506  504  0.27922725234E+02  0.11787473134E+02  0.11309658516E+02  0.32350138842E+02  0.00000000000E+00 0.  1.
<scales pt_clust_3="45.38814" pt_clust_4="123.19703" pt_clust_5="45.38814" pt_clust_6="30.30880"></scales>
<clustering>
<clus scale="   30.309">  2  6  1 -1</clus>
<clus scale="   45.388">  3  5 -1 -1</clus>
<clus scale="  123.197">  1  4  2 -1</clus>
<clus scale="  123.197">  1  3  2 -1</clus>
</clustering>
</event>
<event>
 6    0  0.6132510E+002  0.1393476E+03  0.7546771E-02  0.1214210E+00
         21   -1    0    0  503  501  0.00000000000E+00  0.00000000000E+00  0.11469104887E+03  0.11469104887E+03  0.00000000000E+00 0. -1.
         21   -1    0    0  504  502 -0.00000000000E+00 -0.00000000000E+00 -0.45575394692E+03  0.45575394692E+03  0.00000000000E+00 0.  1.
         21    1    1    2  503  506 -0.10919583530E+03  0.47907150764E+02 -0.35361810110E+03  0.37318170771E+03  0.00000000000E+00 0.  1.
         21    1    1    2  504  505  0.42824290421E+02 -0.43270379054E+01 -0.95967729029E+01  0.44099219463E+02  0.00000000000E+00 0. -1.
         21    1    1    2  505  501  0.88392888080E+02 -0.12121706837E+02  0.53116810095E+02  0.10383464718E+03  0.00000000000E+00 0. -1.
         21    1    1    2  506  502 -0.22021343197E+02 -0.31458406021E+02 -0.30964834142E+02  0.49329421434E+02  0.00000000000E+00 0.  1.
<scales pt_clust_3="130.06084" pt_clust_4="34.74191" pt_clust_5="34.74191" pt_clust_6="38.40014"></scales>
<clustering>
<clus scale="   34.742">  4  5 -1 -1</clus>
<clus scale="   38.400">  2  6  1 -1</clus>
<clus scale="  130.061">  2  3  1 -1</clus>
<clus scale="  139.348">  1  3  2 -1</clus>
</clustering>
</event>
<event>
 6    0  0.6132510E+002  0.1768016E+03  0.7546771E-02  0.1170935E+00
         21   -1    0    0  504  501  0.00000000000E+00  0.00000000000E+00  0.28064172683E+03  0.28064172683E+03  0.00000000000E+00 0. -1.
         21   -1    0    0  503  502 -0.00000000000E+00 -0.00000000000E+00 -0.11144614201E+04  0.11144614201E+04  0.00000000000E+00 0.  1.
         21    1    1    2  503  505 -0.21037256376E+02  0.81690888748E+02  0.54484767727E+02  0.10042189689E+03  0.00000000000E+00 0. -1.
         21    1    1    2  504  502  0.85301647007E+02 -0.15127035399E+03 -0.10707823644E+04  0.10847736920E+04  0.00000000000E+00 0.  1.
         21    1    1    2  505  506 -0.36981859784E+02  0.32885391891E+02  0.52624708859E+02  0.72238957187E+02  0.00000000000E+00 0. -1.
         21    1    1    2  506  501 -0.27282530847E+02  0.36694073351E+02  0.12985319457E+03  0.13766860081E+03  0.00000000000E+00 0.  1.
<scales pt_clust_3="32.90314" pt_clust_4="171.50337" pt_clust_5="32.90314" pt_clust_6="45.72517"></scales>
<clustering>
<clus scale="   32.903">  3  5 -1 -1</clus>
<clus scale="   45.725">  1  6  2 -1</clus>
<clus scale="  171.503">  2  4  1 -1</clus>
<clus scale="   45.725">  1  3  2 -1</clus>
</clustering>
</event>
<event>
 6    0  0.6132510E+002  0.9973850E+02  0.7546771E-02  0.1280847E+00
         21   -1    0    0  505  501  0.00000000000E+00  0.00000000000E+00  0.70841540830E+03  0.70841540830E+03  0.00000000000E+00 0. -1.
         21   -1    0    0  503  502 -0.00000000000E+00 -0.00000000000E+00 -0.30593758255E+03  0.30593758255E+03  0.00000000000E+00 0. -1.
         21    1    1    2  503  501  0.66392188010E+02  0.32778513537E+01  0.14993005980E+03  0.16400515165E+03  0.00000000000E+00 0. -1.
         21    1    1    2  504  506 -0.76485813577E+02 -0.12686004137E+03  0.26040784399E+03  0.29959271517E+03  0.00000000000E+00 0. -1.
         21    1    1    2  505  504  0.18873624098E+02  0.62004501210E+02  0.26401572003E+03  0.27185487356E+03  0.00000000000E+00 0. -1.
         21    1    1    2  506  502 -0.87799985301E+01  0.61577688803E+02 -0.27187579807E+03  0.27890025046E+03  0.00000000000E+00 0. -1.
<scales pt_clust_3="66.69637" pt_clust_4="99.73850" pt_clust_5="14000.00000" pt_clust_6="62.20048"></scales>
<clustering>
<clus scale="   62.200">  2  6  1 -1</clus>
<clus scale="   66.696">  1  3  2 -1</clus>
<clus scale="   99.739">  2  4  1 -1</clus>
<clus scale="   66.696">  1  3  2 -1</clus>
</clustering>
</event>
<event>
 6    0  0.6132510E+002  0.1896679E+03  0.7546771E-02  0.1158761E+00
         21   -1    0    0  502  501  0.00000000000E+00  0.00000000000E+00  0.79099778250E+03  0.79099778250E+03  0.00000000000E+00 0. -1.
         21   -1    0    0  503  502 -0.00000000000E+00 -0.00000000000E+00 -0.84004428730E+02  0.84004428730E+02  0.00000000000E+00 0. -1.
         21    1    1    2  503  505 -0.61883736992E+02  0.49783424760E+02  0.23187172606E+02  0.82738330043E+02  0.00000000000E+00 0. -1.
         21    1    1    2  504  506 -0.74386277708E+02 -0.10534511170E+03  0.25903198207E+03  0.28935873687E+03  0.00000000000E+00 0. -1.
         21    1    1    2  505  504  0.15658114929E+03  0.10852198675E+03  0.22294084262E+03  0.29325295775E+03  0.00000000000E+00 0. -1.
         21    1    1    2  506  501 -0.20311134593E+02 -0.52960299808E+02  0.20183335648E+03  0.20965218656E+03  0.00000000000E+00 0. -1.
<scales pt_clust_3="79.42283" pt_clust_4="33.73104" pt_clust_5="182.72126" pt_clust_6="33.73104"></scales>
<clustering>
<clus scale="   33.731">  4  6 -1 -1</clus>
<clus scale="   79.423">  2  3  1 -1</clus>
<clus scale="  182.721">  2  5  1 -1</clus>
<clus scale="  189.668">  1  3  2 -1</clus>
</clustering>
</event>
<event>
 6    0  0.6132510E+002  0.1290531E+03  0.7546771E-02  0.1228868E+00
         21   -1    0    0  504  501  0.00000000000E+00  0.00000000000E+00  0.17912825667E+02  0.17912825667E+02  0.00000000000E+00 0.  1.
         21   -1    0    0  503  502 -0.00000000000E+00 -0.00000000000E+00 -0.37567730991E+04  0.37567730991E+04  0.00000000000E+00 0. -1.
         21    1    1    2  503  501 -0.10123161685E+03 -0.60981965434E+02 -0.28855784884E+04  0.28879975508E+04  0.00000000000E+00 0. -1.
         21    1    1    2  504  506  0.31251445631E+02 -0.42877236103E+02 -0.53179375303E+02  0.75120943733E+02  0.00000000000E+00 0.  1.
         21    1    1    2  505  502  0.60702698365E+02  0.60846071489E+02 -0.63131501454E+03  0.63713868944E+03  0.00000000000E+00 0.  1.
         21    1    1    2  506  505  0.92774728589E+01  0.43013130048E+02 -0.16878739518E+03  0.17442874084E+03  0.00000000000E+00 0.  1.
<scales pt_clust_3="117.73202" pt_clust_4="53.05761" pt_clust_5="37.82011" pt_clust_6="37.82011"></scales>
<clustering>
<clus scale="   37.820">  5  6 -1 -1</clus>
<clus scale="   53.058">  1  4  2 -1</clus>
<clus scale="  117.732">  2  3  1 -1</clus>
<clus scale="   53.058">  1  3  2 -1</clus>
</clustering>
</event>
<event>
 6    0  0.6132510E+002  0.3360620E+03  0.7546771E-02  0.1068486E+00
         21   -1    0    0  504  501  0.00000000000E+00  0.00000000000E+00  0.10801168232E+04  0.10801168232E+04  0.00000000000E+00 0. -1.
         21   -1    0    0  503  502 -0.00000000000E+00 -0.00000000000E+00 -0.21242996812E+03  0.21242996812E+03  0.00000000000E+00 0. -1.
         21    1    1    2  503  501 -0.30302716403E+03  0.14037383682E+03  0.15883371061E+03  0.36980863136E+03  0.00000000000E+00 0. -1.
         21    1    1    2  504  506 -0.32328850736E+02 -0.89112796176E+02  0.31707063604E+03  0.33093811094E+03  0.00000000000E+00 0. -1.
         21    1    1    2  505  502 -0.23816068360E+02 -0.69545012514E+02  0.23813180085E+02  0.77270831647E+02  0.00000000000E+00 0.  1.
         21    1    1    2  506  505  0.35917208312E+03  0.18283971871E+02  0.36796932829E+03  0.51452921733E+03  0.00000000000E+00 0. -1.
<scales pt_clust_3="336.06201" pt_clust_4="97.54010" pt_clust_5="73.50996" pt_clust_6="14000.00000"></scales>
<clustering>
<clus scale="   73.510">  2  5  1 -1</clus>
<clus scale="   97.540">  1  4  2 -1</clus>
<clus scale="  336.062">  2  3  1 -1</clus>
<clus scale="   97.540">  1  3  2 -1</clus>
</clustering>
</event>
<event>
 6    0  0.6132510E+002  0.1090198E+03  0.7546771E-02  0.1262396E+00
         21   -1    0    0  503  501  0.00000000000E+00  0.00000000000E+00  0.41596738744E+02  0.41596738744E+02  0.00000000000E+00 0.  1.
         21   -1    0    0  504  502 -0.00000000000E+00 -0.00000000000E+00 -0.79360365953E+03  0.79360365953E+03  0.00000000000E+00 0.  1.
         21    1    1    2  503  506 -0.20352288664E+02  0.33110512311E+02 -0.48603051288E+02  0.62231650097E+02  0.00000000000E+00 0. -1.
         21    1    1    2  504  501  0.51080184088E+02 -0.84597864240E+01 -0.24115030152E+02  0.57116441346E+02  0.00000000000E+00 0. -1.
         21    1    1    2  505  502 -0.81429346379E+02 -0.94229305185E+02 -0.52087059761E+03  0.53555212618E+03  0.00000000000E+00 0.  1.
         21    1    1    2  506  505  0.50701450954E+02  0.69578579297E+02 -0.15841824174E+03  0.18030018065E+03  0.00000000000E+00 0.  1.
<scales pt_clust_3="38.86543" pt_clust_4="42.05436" pt_clust_5="14000.00000" pt_clust_6="109.01978"></scales>
<clustering>
<clus scale="   38.865">  1  3  2 -1</clus>
<clus scale="   42.054">  1  4  2 -1</clus>
<clus scale="  109.020">  1  6  2 -1</clus>
<clus scale="   38.865">  1  3  2 -1</clus>
</clustering>
</event>
<event>
 6    0  0.6132510E+002  0.9644383E+02  0.7546771E-02  0.1287957E+00
         21   -1    0    0  505  501  0.00000000000E+00  0.00000000000E+00  0.13981012124E+02  0.13981012124E+02  0.00000000000E+00 0.  1.
         21   -1    0    0  506  502 -0.00000000000E+00 -0.00000000000E+00 -0.15794209327E+04  0.15794209327E+04  0.00000000000E+00 0.  1.
         21    1    1    2  503  502 -0.72976296784E+02  0.75162542627E+02 -0.89666390828E+03  0.90276304317E+03  0.00000000000E+00 0.  1.
         21    1    1    2  504  503  0.21826943639E+02 -0.45384623483E+02 -0.16430290663E+03  0.17184767862E+03  0.00000000000E+00 0. -1.
         21    1    1    2  505  504 -0.36994820155E+01 -0.42375657777E+02 -0.80017503325E+02  0.90621097861E+02  0.00000000000E+00 0.  1.
         21    1    1    2  506  501  0.54848835160E+02  0.12597738634E+02 -0.42445560235E+03  0.42817012519E+03  0.00000000000E+00 0. -1.
<scales pt_clust_3="90.19140" pt_clust_4="31.39489" pt_clust_5="31.39489" pt_clust_6="56.27697"></scales>
<clustering>
<clus scale="   31.395">  4  5 -1 -1</clus>
<clus scale="   56.277">  2  6  1 -1</clus>
<clus scale="   90.191">  2  3  1 -1</clus>
<clus scale="   96.444">  1  3  2 -1</clus>
</clustering>
</event>
<event>
 6    0  0.6132510E+002  0.1600915E+03  0.7546771E-02  0.1188593E+00
         21   -1    0    0  503  501  0.00000000000E+00  0.00000000000E+00  0.46708639790E+03  0.46708639790E+03  0.00000000000E+00 0.  1.
         21   -1    0    0  506  502 -0.00000000000E+00 -0.00000000000E+00 -0.59638237867E+02  0.59638237867E+02  0.00000000000E+00 0. -1.
         21    1    1    2  503  505  0.93724217406E+01  0.57787050489E+02  0.36862827656E+02  0.69181309299E+02  0.00000000000E+00 0. -1.
         21    1    1    2  504  501  0.67361319205E+00 -0.83566343890E+02  0.14690920961E+03  0.16901509830E+03  0.00000000000E+00 0.  1.
         21    1    1    2  505  502 -0.50253580354E+02  0.87508092077E+02  0.86887919373E+02  0.13316380533E+03  0.00000000000E+00 0. -1.
         21    1    1    2  506  504  0.40207545421E+02 -0.61728798676E+02  0.13678820340E+03  0.15536442284E+03  0.00000000000E+00 0. -1.
<scales pt_clust_3="40.64293" pt_clust_4="157.28271" pt_clust_5="40.64293" pt_clust_6="41.52339"></scales>
<clustering>
<clus scale="   40.643">  3  5 -1 -1</clus>
<clus scale="   41.523">  4  6 -1 -1</clus>
<clus scale="  157.283">  1  4  2 -1</clus>
<clus scale="  157.283">  1  3  2 -1</clus>
</clustering>
</event>
<event>
 6    0  0.6132510E+002  0.1374014E+03  0.7546771E-02  0.1216869E+00
         21   -1    0    0  503  501  0.00000000000E+00  0.00000000000E+00  0.21739885137E+03  0.21739885137E+03  0.00000000000E+00 0. -1.
         21   -1    0    0  505  502 -0.00000000000E+00 -0.00000000000E+00 -0.59870735205E+03  0.59870735205E+03  0.00000000000E+00 0.  1.
         21    1    1    2  503  504  0.40635519518E+02  0.26360652646E+02 -0.60962848305E+01  0.48818993672E+02  0.00000000000E+00 0.  1.
         21    1    1    2  504  502  0.29388720653E+02  0.83458666541E+02 -0.50319033452E+02  0.10178924820E+03  0.00000000000E+00 0.  1.
         21    1    1    2  505  506 -0.46595460632E+02  0.17145559104E+02 -0.46922650126E+03  0.47184596706E+03  0.00000000000E+00 0.  1.
         21    1    1    2  506  501 -0.23428779539E+02 -0.12696487829E+03  0.14433331886E+03  0.19365199447E+03  0.00000000000E+00 0. -1.
<scales pt_clust_3="37.26287" pt_clust_4="37.26287" pt_clust_5="49.64985" pt_clust_6="127.83841"></scales>
<clustering>
<clus scale="   37.263">  3  4 -1 -1</clus>
<clus scale="   49.650">  2  5  1 -1</clus>
<clus scale="  127.838">  1  6  2 -1</clus>
<clus scale="  127.838">  1  3  2 -1</clus>
</clustering>
</event>
<event>
 6    0  0.6132510E+002  0.8964439E+02  0.7546771E-02  0.1303715E+00
         21   -1    0    0  503  501  0.00000000000E+00  0.00000000000E+00  0.16601441753E+03  0.16601441753E+03  0.00000000000E+00 0.  1.
         21   -1    0    0  505  502 -0.00000000000E+00 -0.00000000000E+00 -0.19404478763E+03  0.19404478763E+03  0.00000000000E+00 0. -1.
         21    1    1    2  503  502  0.10035199050E+03  0.32234965518E+02 -0.97901367511E+02  0.14385511030E+03  0.00000000000E+00 0. -1.
         21    1    1    2  504  506 -0.86133732906E+02 -0.15066249335E+02  0.65326915413E+02  0.10914951988E+03  0.00000000000E+00 0.  1.
         21    1    1    2  505  504 -0.28448174000E+02  0.18810354938E+02 -0.36975304225E+02  0.50302099155E+02  0.00000000000E+00 0. -1.
         21    1    1    2  506  501  0.14229916402E+02 -0.35979071121E+02  0.41519386224E+02  0.56752475823E+02  0.00000000000E+00 0.  1.
<scales pt_clust_3="89.64439" pt_clust_4="14000.00000" pt_clust_5="34.10466" pt_clust_6="37.28838"></scales>
<clustering>
<clus scale="   34.105">  2  5  1 -1</clus>
<clus scale="   37.288">  1  6  2 -1</clus>
<clus scale="   89.644">  2  3  1 -1</clus>
<clus scale="   37.288">  1  3  2 -1</clus>
</clustering>
</event>
<event>
 6    0  0.6132510E+002  0.9269681E+02  0.7546771E-02  0.1296449E+00
         21   -1    0    0  504  501  0.00000000000E+00  0.00000000000E+00  0.79857259816E+03  0.79857259816E+03  0.00000000000E+00 0. -1.
         21   -1    0    0  506  502 -0.00000000000E+00 -0.00000000000E+00 -0.16344960855E+03  0.16344960855E+03  0.00000000000E+00 0.  1.
         21    1    1    2  503  505  0.57916624563E+02  0.18574517383E+02  0.58824415592E+03  0.59138019503E+03  0.00000000000E+00 0. -1.
         21    1    1    2  504  503  0.29031175605E+02  0.20876444178E+02  0.95596102133E+02  0.10206492944E+03  0.00000000000E+00 0.  1.
         21    1    1    2  505  502  0.66953913152E+02 -0.14878679630E+02  0.49298941248E+02  0.84466485674E+02  0.00000000000E+00 0. -1.
         21    1    1    2  506  501 -0.15390171332E+03 -0.24572281931E+02 -0.98016209700E+02  0.18411059656E+03  0.00000000000E+00 0.  1.
<scales pt_clust_3="92.69681" pt_clust_4="35.75801" pt_clust_5="70.90896" pt_clust_6="14000.00000"></scales>
<clustering>
<clus scale="   35.758">  1  4  2 -1</clus>
<clus scale="   70.909">  2  5  1 -1</clus>
<clus scale="   92.697">  1  3  2 -1</clus>
<clus scale="   35.758">  1  3  2 -1</clus>
</clustering>
</event>
<event>
 6    0  0.6132510E+002  0.1373448E+03  0.7546771E-02  0.1216947E+00
         21   -1    0    0  504  501  0.00000000000E+00  0.00000000000E+00  0.64850483641E+02  0.64850483641E+02  0.00000000000E+00 0. -1.
         21   -1    0    0  503  502 -0.00000000000E+00 -0.00000000000E+00 -0.18267557192E+04  0.18267557192E+04  0.00000000000E+00 0.  1.
         21    1    1    2  503  506 -0.11390582777E+03 -0.72101966867E+02 -0.15340406309E+04  0.15399525605E+04  0.00000000000E+00 0.  1.
         21    1    1    2  504  505 -0.19975378936E+02  0.41471811810E+02  0.41347242813E+00  0.46033660488E+02  0.00000000000E+00 0.  1.
         21    1    1    2  505  502  0.15974289255E+03  0.53131906084E+02 -0.19788582007E+03  0.25980683007E+03  0.00000000000E+00 0. -1.
         21    1    1    2  506  501 -0.25861685849E+02 -0.22501751027E+02 -0.30392257056E+02  0.45813151858E+02  0.00000000000E+00 0.  1.
<scales pt_clust_3="14000.00000" pt_clust_4="44.43439" pt_clust_5="137.34479" pt_clust_6="34.28054"></scales>
<clustering>
<clus scale="   34.281">  1  6  2 -1</clus>
<clus scale="   44.434">  1  4  2 -1</clus>
<clus scale="  137.345">  1  5  2 -1</clus>
<clus scale="   34.281">  1  3  2 -1</clus>
</clustering>
</event>
<event>
 6    0  0.6132510E+002  0.8350244E+02  0.7546771E-02  0.1319396E+00
         21   -1    0    0  506  501  0.00000000000E+00  0.00000000000E+00  0.47881557859E+03  0.47881557859E+03  0.00000000000E+00 0.  1.
         21   -1    0    0  505  502 -0.00000000000E+00 -0.00000000000E+00 -0.15523552791E+03  0.15523552791E+03  0.00000000000E+00 0.  1.
         21    1    1    2  503  502  0.54862799085E+02  0.56539323815E+02  0.59072475697E+02  0.98469179167E+02  0.00000000000E+00 0.  1.
         21    1    1    2  504  501 -0.14094296256E+02 -0.27614356929E+02  0.45858405107E+02  0.55355173331E+02  0.00000000000E+00 0.  1.
         21    1    1    2  505  504 -0.46658796411E+02  0.46020374850E+02 -0.11816670983E+03  0.13512323818E+03  0.00000000000E+00 0.  1.
         21    1    1    2  506  503  0.58902935822E+01 -0.74945341736E+02  0.33681587971E+03  0.34510351582E+03  0.00000000000E+00 0.  1.
<scales pt_clust_3="14000.00000" pt_clust_4="31.00326" pt_clust_5="65.35299" pt_clust_6="83.50244"></scales>
<clustering>
<clus scale="   31.003">  1  4  2 -1</clus>
<clus scale="   65.353">  2  5  1 -1</clus>
<clus scale="   83.502">  1  6  2 -1</clus>
<clus scale="   31.003">  1  3  2 -1</clus>
</clustering>
</event>
<event>
 6    0  0.6132510E+002  0.9196153E+02  0.7546771E-02  0.1298170E+00
         21   -1    0    0  504  501  0.00000000000E+00  0.00000000000E+00  0.33925553826E+03  0.33925553826E+03  0.00000000000E+00 0.  1.
         21   -1    0    0  506  502 -0.00000000000E+00 -0.00000000000E+00 -0.10376454829E+03  0.10376454829E+03  0.00000000000E+00 0.  1.
         21    1    1    2  503  501  0.48105118806E+02 -0.11909964774E+02  0.10886375022E+03  0.11961298353E+03  0.00000000000E+00 0.  1.
         21    1    1    2  504  502 -0.92626388370E+02  0.55442709696E+02 -0.34392367532E+02  0.11329773531E+03  0.00000000000E+00 0.  1.
         21    1    1    2  505  503  0.36356450259E+02  0.36231217528E+02  0.86856958145E+02  0.10088916581E+03  0.00000000000E+00 0.  1.
         21    1    1    2  506  505  0.81648193048E+01 -0.79763962450E+02  0.74162649138E+02  0.10922020192E+03  0.00000000000E+00 0.  1.
<scales pt_clust_3="49.55754" pt_clust_4="91.96153" pt_clust_5="64.50685" pt_clust_6="14000.00000"></scales>
<clustering>
<clus scale="   49.558">  1  3  2 -1</clus>
<clus scale="   64.507">  1  5  2 -1</clus>
<clus scale="   91.962">  2  4  1 -1</clus>
<clus scale="   49.558">  1  3  2 -1</clus>
</clustering>
</event>
<event>
 6    0  0.6132510E+002  0.2797350E+03  0.7546771E-02  0.1095834E+00
         21   -1    0    0  506  501  0.00000000000E+00  0.00000000000E+00  0.35994082670E+03  0.35994082670E+03  0.00000000000E+00 0.  1.
         21   -1    0    0  504  502 -0.00000000000E+00 -0.00000000000E+00 -0.12821952473E+04  0.12821952473E+04  0.00000000000E+00 0.  1.
         21    1    1    2  503  505  0.14449147880E+03  0.28360854572E+02  0.82259164620E+02  0.16866741144E+03  0.00000000000E+00 0.  1.
         21    1    1    2  504  501 -0.27511475438E+03 -0.75756692761E+02  0.31953365180E+02  0.28713798446E+03  0.00000000000E+00 0.  1.
         21    1    1    2  505  502  0.94899349682E+01  0.29089439042E+02 -0.10609568871E+04  0.10613980264E+04  0.00000000000E+00 0.  1.
         21    1    1    2  506  503  0.12113334061E+03  0.18306399147E+02  0.24489936640E+02  0.12493265167E+03  0.00000000000E+00 0.  1.
<scales pt_clust_3="41.64008" pt_clust_4="276.00800" pt_clust_5="30.59827" pt_clust_6="41.64008"></scales>
<clustering>
<clus scale="   30.598">  2  5  1 -1</clus>
<clus scale="   41.640">  3  6 -1 -1</clus>
<clus scale="  276.008">  2  4  1 -1</clus>
<clus scale="  279.735">  1  3  2 -1</clus>
</clustering>
</event>
<event>
 6    0  0.6132510E+002  0.1659108E+03  0.7546771E-02  0.1182181E+00
         21   -1    0    0  503  501  0.00000000000E+00  0.00000000000E+00  0.14145905207E+03  0.14145905207E+03  0.00000000000E+00 0. -1.
         21   -1    0    0  506  502 -0.00000000000E+00 -0.00000000000E+00 -0.30327143861E+04  0.30327143861E+04  0.00000000000E+00 0. -1.
         21    1    1    2  503  505 -0.73272012132E+02  0.11381979823E+02 -0.48721889695E+02  0.88725192375E+02  0.00000000000E+00 0. -1.
         21    1    1    2  504  502  0.37931096036E+02  0.88248798442E+02 -0.26946072637E+04  0.26963187727E+04  0.00000000000E+00 0. -1.
         21    1    1    2  505  504 -0.39906951074E+02  0.11224072502E+03 -0.10796229663E+03  0.16076816411E+03  0.00000000000E+00 0. -1.
         21    1    1    2  506  501  0.75247867171E+02 -0.21187150328E+03 -0.39963884022E+02  0.22836130899E+03  0.00000000000E+00 0. -1.
<scales pt_clust_3="74.15077" pt_clust_4="95.92644" pt_clust_5="165.91081" pt_clust_6="14000.00000"></scales>
<clustering>
<clus scale="   74.151">  1  3  2 -1</clus>
<clus scale="   95.926">  2  4  1 -1</clus>
<clus scale="  165.911">  2  5  1 -1</clus>
<clus scale="   74.151">  1  3  2 -1</clus>
</clustering>
</event>
<event>
 6    0  0.6132510E+002  0.8838197E+02  0.7546771E-02  0.1306818E+00
         21   -1    0    0  505  501  0.00000000000E+00  0.00000000000E+00  0.76535409235E+02  0.76535409235E+02  0.00000000000E+00 0. -1.
         21   -1    0    0  504  502 -0.00000000000E+00 -0.00000000000E+00 -0.81688964540E+03  0.81688964540E+03  0.00000000000E+00 0. -1.
         21    1    1    2  503  501 -0.45387552569E+02  0.47690784760E+02 -0.33918634015E+02  0.74060209375E+02  0.00000000000E+00 0. -1.
         21    1    1    2  504  503  0.83493395242E+02 -0.96970593032E+02 -0.83291803300E+02  0.15268257091E+03  0.00000000000E+00 0. -1.
         21    1    1    2  505  506  0.26454376923E+02  0.28116745553E+02  0.12278867013E+01  0.38625032617E+02  0.00000000000E+00 0. -1.
         21    1    1    2  506  502 -0.64560219596E+02  0.21163062719E+02 -0.62437168556E+03  0.62805724174E+03  0.00000000000E+00 0. -1.
<scales pt_clust_3="88.38197" pt_clust_4="14000.00000" pt_clust_5="38.60551" pt_clust_6="67.41679"></scales>
<clustering>
<clus scale="   38.606">  1  5  2 -1</clus>
<clus scale="   67.417">  2  6  1 -1</clus>
<clus scale="   88.382">  1  3  2 -1</clus>
<clus scale="   38.606">  1  3  2 -1</clus>
</clustering>
</event>
<event>
 6    0  0.6132510E+002  0.1469545E+03  0.7546771E-02  0.1204266E+00
         21   -1    0    0  505  501  0.00000000000E+00  0.00000000000E+00  0.82651762569E+03  0.82651762569E+03  0.00000000000E+00 0. -1.
         21   -1    0    0  506  502 -0.00000000000E+00 -0.00000000000E+00 -0.79877839868E+02  0.79877839868E+02  0.00000000000E+00 0. -1.
         21    1    1    2  503  504 -0.13410355848E+02  0.14443901200E+03  0.84753311011E+02  0.16800473077E+03  0.00000000000E+00 0. -1.
         21    1    1    2  504  501 -0.33728969961E+02 -0.10274682508E+03  0.48842095799E+03  0.50024952342E+03  0.00000000000E+00 0. -1.
         21    1    1    2  505  502  0.61588848784E+02 -0.68573775958E+02  0.18404939955E+03  0.20583908889E+03  0.00000000000E+00 0. -1.
         21    1    1    2  506  503 -0.14449522975E+02  0.26881589031E+02 -0.10583882725E+02  0.32302122477E+02  0.00000000000E+00 0. -1.
<scales pt_clust_3="14000.00000" pt_clust_4="146.95446" pt_clust_5="86.65281" pt_clust_6="30.51899"></scales>
<clustering>
<clus scale="   30.519">  2  6  1 -1</clus>
<clus scale="   86.653">  1  5  2 -1</clus>
<clus scale="  146.954">  1  4  2 -1</clus>
<clus scale="   86.653">  1  3  2 -1</clus>
</clustering>
</event>
<event>
 6    0  0.6132510E+002  0.1327901E+03  0.7546771E-02  0.1223374E+00
         21   -1    0    0  504  501  0.00000000000E+00  0.00000000000E+00  0.64387059352E+02  0.64387059352E+02  0.00000000000E+00 0. -1.
         21   -1    0    0  505  502 -0.00000000000E+00 -0.00000000000E+00 -0.69161273397E+03  0.69161273397E+03  0.00000000000E+00 0. -1.
         21    1    1    2  503  502 -0.18660206875E+02  0.55918568545E+02 -0.36664377804E+03  0.37135259472E+03  0.00000000000E+00 0. -1.
         21    1    1    2  504  503 -0.34579742812E+02  0.19763849075E+02 -0.16644737316E+03  0.17114641794E+03  0.00000000000E+00 0. -1.
         21    1    1    2  505  506 -0.15687514741E+02  0.36807992217E+02 -0.68165417760E+02  0.79040815964E+02  0.00000000000E+00 0. -1.
         21    1    1    2  506  501  0.68927464428E+02 -0.11249040984E+03 -0.25969105661E+02  0.13445996470E+03  0.00000000000E+00 0. -1.
<scales pt_clust_3="32.43094" pt_clust_4="32.43094" pt_clust_5="40.01158" pt_clust_6="126.79321"></scales>
<clustering>
<clus scale="   32.431">  3  4 -1 -1</clus>
<clus scale="   40.012">  2  5  1 -1</clus>
<clus scale="  126.793">  1  6  2 -1</clus>
<clus scale="  126.793">  1  3  2 -1</clus>
</clustering>
</event>
<event>
 6    0  0.6132510E+002  0.1092253E+03  0.7546771E-02  0.1262011E+00
         21   -1    0    0  506  501  0.00000000000E+00  0.00000000000E+00  0.24832316570E+03  0.24832316570E+03  0.00000000000E+00 0.  1.
         21   -1    0    0  503  502 -0.00000000000E+00 -0.00000000000E+00 -0.10478992868E+04  0.10478992868E+04  0.00000000000E+00 0. -1.
         21    1    1    2  503  505 -0.50637452229E+01  0.10754400784E+03  0.13288010451E+02  0.10848007356E+03  0.00000000000E+00 0. -1.
         21    1    1    2  504  501  0.17007819530E+02 -0.30509585834E+02  0.87234521168E+01  0.36002768918E+02  0.00000000000E+00 0.  1.
         21    1    1    2  505  504 -0.44901551842E+02 -0.90902160163E+02  0.14914815481E+03  0.18034556874E+03  0.00000000000E+00 0.  1.
         21    1    1    2  506  502  0.32957477535E+02  0.13867738157E+02 -0.97073573850E+03  0.97139404131E+03  0.00000000000E+00 0. -1.
<scales pt_clust_3="109.22535" pt_clust_4="34.92994" pt_clust_5="14000.00000" pt_clust_6="35.76189"></scales>
<clustering>
<clus scale="   34.930">  1  4  2 -1</clus>
<clus scale="   35.762">  2  6  1 -1</clus>
<clus scale="  109.225">  2  3  1 -1</clus>
<clus scale="   34.930">  1  3  2 -1</clus>
</clustering>
</event>
<event>
 6    0  0.6132510E+002  0.9719487E+02  0.7546771E-02  0.1286308E+00
         21   -1    0    0  503  501  0.00000000000E+00  0.00000000000E+00  0.34949856491E+03  0.34949856491E+03  0.00000000000E+00 0.  1.
         21   -1    0    0  504  502 -0.00000000000E+00 -0.00000000000E+00 -0.13334582884E+03  0.13334582884E+03  0.00000000000E+00 0.  1.
         21    1    1    2  503  506  0.21439799911E+02 -0.33831498861E+02  0.90881603504E+02  0.99316167822E+02  0.00000000000E+00 0.  1.
         21    1    1    2  504  505  0.69576382720E+02 -0.27462685127E+02 -0.13407175381E+01  0.74812229149E+02  0.00000000000E+00 0.  1.
         21    1    1    2  505  501  0.27280728850E+02  0.25889175325E+02  0.17282516893E+03  0.17687008391E+03  0.00000000000E+00 0.  1.
         21    1    1    2  506  502 -0.11829691148E+03  0.35405008663E+02 -0.46213318828E+02  0.13184591287E+03  0.00000000000E+00 0.  1.
<scales pt_clust_3="41.31268" pt_clust_4="14000.00000" pt_clust_5="37.60967" pt_clust_6="97.19487"></scales>
<clustering>
<clus scale="   37.610">  1  5  2 -1</clus>
<clus scale="   41.313">  1  3  2 -1</clus>
<clus scale="   97.195">  1  6  2 -1</clus>
<clus scale="   37.610">  1  3  2 -1</clus>
</clustering>
</event>
<event>
 6    0  0.6132510E+002  0.8757048E+02  0.7546771E-02  0.1308844E+00
         21   -1    0    0  505  501  0.00000000000E+00  0.00000000000E+00  0.91814568527E+03  0.91814568527E+03  0.00000000000E+00 0. -1.
         21   -1    0    0  503  502 -0.00000000000E+00 -0.00000000000E+00 -0.31768045272E+03  0.31768045272E+03  0.00000000000E+00 0. -1.
         21    1    1    2  503  504  0.41532949436E+02 -0.30591329101E+01 -0.29564856726E+02  0.51072741617E+02  0.00000000000E+00 0.  1.
         21    1    1    2  504  501 -0.24844456442E+02  0.31246396448E+02  0.16573926390E+03  0.17047899550E+03  0.00000000000E+00 0. -1.
         21    1    1    2  505  506  0.90436766345E+02  0.25963742366E+02  0.72298869819E+03  0.72908544241E+03  0.00000000000E+00 0. -1.
         21    1    1    2  506  502 -0.10712525934E+03 -0.54151005904E+02 -0.25869787282E+03  0.28518895846E+03  0.00000000000E+00 0. -1.
<scales pt_clust_3="41.25944" pt_clust_4="39.91972" pt_clust_5="14000.00000" pt_clust_6="87.57048"></scales>
<clustering>
<clus scale="   39.920">  1  4  2 -1</clus>
<clus scale="   41.259">  2  3  1 -1</clus>
<clus scale="   87.570">  2  6  1 -1</clus>
<clus scale="   39.920">  1  3  2 -1</clus>
</clustering>
</event>
<event>
 6    0  0.6132510E+002  0.9200754E+02  0.7546771E-02  0.1298062E+00
         21   -1    0    0  506  501  0.00000000000E+00  0.00000000000E+00  0.22020742636E+04  0.22020742636E+04  0.00000000000E+00 0. -1.
         21   -1    0    0  503  502 -0.00000000000E+00 -0.00000000000E+00 -0.23026819667E+02  0.23026819667E+02  0.00000000000E+00 0.  1.
         21    1    1    2  503  505  0.62275920288E+02 -0.37343548458E+02  0.17606588976E+03  0.19045216827E+03  0.00000000000E+00 0.  1.
         21    1    1    2  504  502 -0.14614533873E+03  0.23991022978E+02  0.39087739619E+03  0.41799422014E+03  0.00000000000E+00 0. -1.
         21    1    1    2  505  501  0.14785772953E+01  0.34360954879E+02  0.60017917513E+03  0.60116379105E+03  0.00000000000E+00 0. -1.
         21    1    1    2  506  504  0.82390841146E+02 -0.21008429399E+02  0.10119249828E+04  0.10154909038E+04  0.00000000000E+00 0. -1.
<scales pt_clust_3="70.82171" pt_clust_4="92.00754" pt_clust_5="34.39275" pt_clust_6="14000.00000"></scales>
<clustering>
<clus scale="   34.393">  1  5  2 -1</clus>
<clus scale="   70.822">  2  3  1 -1</clus>
<clus scale="   92.008">  2  4  1 -1</clus>
<clus scale="   34.393">  1  3  2 -1</clus>
</clustering>
</event>
<event>
 6    0  0.6132510E+002  0.1664680E+03  0.7546771E-02  0.1181582E+00
         21   -1    0    0  503  501  0.00000000000E+00  0.00000000000E+00  0.11520777918E+04  0.11520777918E+04  0.00000000000E+00 0.  1.
         21   -1    0    0  504  502 -0.00000000000E+00 -0.00000000000E+00 -0.43944866353E+02  0.43944866353E+02  0.00000000000E+00 0.  1.
         21    1    1    2  503  505  0.43004274317E+02  0.13234883032E+03  0.64578929777E+03  0.66061289543E+03  0.00000000000E+00 0.  1.
         21    1    1    2  504  501  0.18124470550E+02  0.28850952153E+02 -0.23497636644E+01  0.34152529367E+02  0.00000000000E+00 0.  1.
         21    1    1    2  505  506 -0.35994976620E+01 -0.11004175223E+03  0.24970574775E+03  0.27290127167E+03  0.00000000000E+00 0.  1.
         21    1    1    2  506  502 -0.57529247205E+02 -0.51158030241E+02  0.21498764359E+03  0.22835596169E+03  0.00000000000E+00 0.  1.
<scales pt_clust_3="148.71053" pt_clust_4="34.07160" pt_clust_5="62.83550" pt_clust_6="62.83550"></scales>
<clustering>
<clus scale="   34.072">  2  4  1 -1</clus>
<clus scale="   62.836">  5  6 -1 -1</clus>
<clus scale="  148.711">  1  3  2 -1</clus>
<clus scale="  148.711">  1  3  2 -1</clus>
</clustering>
</event>
<event>
 6    0  0.6132510E+002  0.9798559E+02  0.7546771E-02  0.1284590E+00
         21   -1    0    0  504  501  0.00000000000E+00  0.00000000000E+00  0.76736979226E+03  0.76736979226E+03  0.00000000000E+00 0. -1.
         21   -1    0    0  503  502 -0.00000000000E+00 -0.00000000000E+00 -0.16346131346E+03  0.16346131346E+03  0.00000000000E+00 0. -1.
         21    1    1    2  503  505  0.66893995755E+02 -0.69489310280E+01  0.41058472126E+02  0.78796525582E+02  0.00000000000E+00 0. -1.
         21    1    1    2  504  506  0.61843339352E+02 -0.90434270987E+02  0.59497795495E+03  0.60498076239E+03  0.00000000000E+00 0. -1.
         21    1    1    2  505  501  0.10051235327E+02  0.31114006292E+02  0.59599141410E+02  0.67979161335E+02  0.00000000000E+00 0. -1.
         21    1    1    2  506  502 -0.13878857043E+03  0.66269195723E+02 -0.91727089687E+02  0.17907465641E+03  0.00000000000E+00 0. -1.
<scales pt_clust_3="67.88635" pt_clust_4="97.98559" pt_clust_5="32.69723" pt_clust_6="14000.00000"></scales>
<clustering>
<clus scale="   32.697">  1  5  2 -1</clus>
<clus scale="   67.886">  2  3  1 -1</clus>
<clus scale="   97.986">  1  4  2 -1</clus>
<clus scale="   32.697">  1  3  2 -1</clus>
</clustering>
</event>
<event>
 6    0  0.6132510E+002  0.1249715E+03  0.7546771E-02  0.1235114E+00
         21   -1    0    0  505  501  0.00000000000E+00  0.00000000000E+00  0.27324507787E+03  0.27324507787E+03  0.00000000000E+00 0. -1.
         21   -1    0    0  504  502 -0.00000000000E+00 -0.00000000000E+00 -0.29722310049E+04  0.29722310049E+04  0.00000000000E+00 0.  1.
         21    1    1    2  503  506 -0.72900808044E+02 -0.97329796373E+02 -0.20280376844E+04  0.20316802077E+04  0.00000000000E+00 0.  1.
         21    1    1    2  504  501  0.17043234658E+02  0.70195934601E+02  0.23842206384E+03  0.24912451025E+03  0.00000000000E+00 0. -1.
         21    1    1    2  505  503  0.28912964057E+02  0.46720623665E+02 -0.25300156064E+00  0.54943973064E+02  0.00000000000E+00 0. -1.
         21    1    1    2  506  502  0.26944609328E+02 -0.19586761893E+02 -0.90911730484E+03  0.90972739168E+03  0.00000000000E+00 0.  1.
<scales pt_clust_3="124.97151" pt_clust_4="14000.00000" pt_clust_5="54.91206" pt_clust_6="33.31146"></scales>
<clustering>
<clus scale="   33.311">  2  6  1 -1</clus>
<clus scale="   54.912">  1  5  2 -1</clus>
<clus scale="  124.972">  2  3  1 -1</clus>
<clus scale="   54.912">  1  3  2 -1</clus>
</clustering>
</event>
<event>
 6    0  0.6132510E+002  0.2215474E+03  0.7546771E-02  0.1132735E+00
         21   -1    0    0  503  501  0.00000000000E+00  0.00000000000E+00  0.75089312067E+02  0.75089312067E+02  0.00000000000E+00 0. -1.
         21   -1    0    0  505  502 -0.00000000000E+00 -0.00000000000E+00 -0.11191454370E+04  0.11191454370E+04  0.00000000000E+00 0. -1.
         21    1    1    2  503  504 -0.16871846275E+03  0.65584971052E+02 -0.56574561429E+03  0.59399950184E+03  0.00000000000E+00 0. -1.
         21    1    1    2  504  502 -0.37374631571E+02  0.27415362676E+01 -0.31529967635E+03  0.31751892071E+03  0.00000000000E+00 0.  1.
         21    1    1    2  505  506  0.66558328041E+02 -0.20335500291E+02 -0.10282626419E+02  0.70351091035E+02  0.00000000000E+00 0. -1.
         21    1    1    2  506  501  0.13953476628E+03 -0.47991007029E+02 -0.15272820785E+03  0.21236523545E+03  0.00000000000E+00 0. -1.
<scales pt_clust_3="207.05105" pt_clust_4="37.47505" pt_clust_5="54.96891" pt_clust_6="54.96891"></scales>
<clustering>
<clus scale="   37.475">  2  4  1 -1</clus>
<clus scale="   54.969">  5  6 -1 -1</clus>
<clus scale="  207.051">  2  3  1 -1</clus>
<clus scale="  221.547">  1  3  2 -1</clus>
</clustering>
</event>
<event>
 6    0  0.6132510E+002  0.2158045E+03  0.7546771E-02  0.1137050E+00
         21   -1    0    0  506  501  0.00000000000E+00  0.00000000000E+00  0.11123141990E+04  0.11123141990E+04  0.00000000000E+00 0.  1.
         21   -1    0    0  503  502 -0.00000000000E+00 -0.00000000000E+00 -0.19630610483E+03  0.19630610483E+03  0.00000000000E+00 0.  1.
         21    1    1    2  503  501 -0.61060641381E+02 -0.16973731517E+03  0.12893874462E+03  0.22173037219E+03  0.00000000000E+00 0.  1.
         21    1    1    2  504  502 -0.34683477981E+01 -0.40467093854E+02 -0.13339006972E+03  0.13943645800E+03  0.00000000000E+00 0.  1.
         21    1    1    2  505  504  0.36195793900E+02  0.12767162661E+03  0.45818836748E+03  0.47701861581E+03  0.00000000000E+00 0.  1.
         21    1    1    2  506  505  0.28333195279E+02  0.82532782415E+02  0.46227105176E+03  0.47043485779E+03  0.00000000000E+00 0.  1.
<scales pt_clust_3="210.94767" pt_clust_4="40.61545" pt_clust_5="36.91750" pt_clust_6="36.91750"></scales>
<clustering>
<clus scale="   36.917">  5  6 -1 -1</clus>
<clus scale="   40.615">  2  4  1 -1</clus>
<clus scale="  210.948">  2  3  1 -1</clus>
<clus scale="  215.804">  1  3  2 -1</clus>
</clustering>
</event>
<event>
 6    0  0.6132510E+002  0.9205403E+02  0.7546771E-02  0.1297952E+00
         21   -1    0    0  503  501  0.00000000000E+00  0.00000000000E+00  0.13164465318E+04  0.13164465318E+04  0.00000000000E+00 0. -1.
         21   -1    0    0  504  502 -0.00000000000E+00 -0.00000000000E+00 -0.88732439691E+02  0.88732439691E+02  0.00000000000E+00 0. -1.
         21    1    1    2  503  505 -0.36927514641E+02 -0.37291063800E+02  0.89028124090E+03  0.89182675037E+03  0.00000000000E+00 0.  1.
         21    1    1    2  504  506 -0.73301080049E+01 -0.39503091654E+02  0.30467789768E+02  0.50423317492E+02  0.00000000000E+00 0. -1.
         21    1    1    2  505  502  0.35546017697E+02  0.13396102196E+03 -0.11671692029E+02  0.13908739402E+03  0.00000000000E+00 0. -1.
         21    1    1    2  506  501  0.87116049480E+01 -0.57166866509E+02  0.31863675350E+03  0.32384150965E+03  0.00000000000E+00 0. -1.
<scales pt_clust_3="52.80759" pt_clust_4="40.17742" pt_clust_5="14000.00000" pt_clust_6="92.05403"></scales>
<clustering>
<clus scale="   40.177">  2  4  1 -1</clus>
<clus scale="   52.808">  1  3  2 -1</clus>
<clus scale="   92.054">  1  6  2 -1</clus>
<clus scale="   52.808">  1  3  2 -1</clus>
</clustering>
</event>
<event>
 6    0  0.6132510E+002  0.1276278E+03  0.7546771E-02  0.1231019E+00
         21   -1    0    0  503  501  0.00000000000E+00  0.00000000000E+00  0.10840970020E+03  0.10840970020E+03  0.00000000000E+00 0. -1.
         21   -1    0    0  504  502 -0.00000000000E+00 -0.00000000000E+00 -0.81855437438E+03  0.81855437438E+03  0.00000000000E+00 0. -1.
         21    1    1    2  503  506  0.15993431072E+03 -0.48761825590E+02 -0.24067773473E+02  0.16892589233E+03  0.00000000000E+00 0. -1.
         21    1    1    2  504  505 -0.95186665499E+02  0.21261456570E+02 -0.24224197752E+03  0.26113928562E+03  0.00000000000E+00 0. -1.
         21    1    1    2  505  501 -0.35944502192E+02  0.84448293278E+01  0.12710027189E+02  0.39049547646E+02  0.00000000000E+00 0. -1.
         21    1    1    2  506  502 -0.28803143029E+02  0.19055539692E+02 -0.45654495038E+03  0.45784934898E+03  0.00000000000E+00 0. -1.
<scales pt_clust_3="127.62780" pt_clust_4="14000.00000" pt_clust_5="38.10644" pt_clust_6="34.53599"></scales>
<clustering>
<clus scale="   34.536">  2  6  1 -1</clus>
<clus scale="   38.106">  1  5  2 -1</clus>
<clus scale="  127.628">  1  3  2 -1</clus>
<clus scale="   38.106">  1  3  2 -1</clus>
</clustering>
</event>
<event>
 6    0  0.6132510E+002  0.8569249E+02  0.7546771E-02  0.1313631E+00
         21   -1    0    0  502  501  0.00000000000E+00  0.00000000000E+00  0.30809832833E+03  0.30809832833E+03  0.00000000000E+00 0. -1.
         21   -1    0    0  503  502 -0.00000000000E+00 -0.00000000000E+00 -0.34456374221E+03  0.34456374221E+03  0.00000000000E+00 0. -1.
         21    1    1    2  503  506  0.41461849356E+01 -0.31846517171E+02 -0.71114252225E+02  0.78029663430E+02  0.00000000000E+00 0. -1.
         21    1    1    2  504  501  0.43578656597E+02  0.74218589424E+02  0.17731942486E+03  0.19710321347E+03  0.00000000000E+00 0. -1.
         21    1    1    2  505  504 -0.10576978716E+03 -0.24309050659E+02  0.87536866332E+02  0.13943055901E+03  0.00000000000E+00 0. -1.
         21    1    1    2  506  505  0.58044945628E+02 -0.18063021594E+02 -0.23020745285E+03  0.23809863462E+03  0.00000000000E+00 0. -1.
<scales pt_clust_3="32.11528" pt_clust_4="14000.00000" pt_clust_5="85.69249" pt_clust_6="76.72320"></scales>
<clustering>
<clus scale="   32.115">  2  3  1 -1</clus>
<clus scale="   76.723">  2  6  1 -1</clus>
<clus scale="   85.692">  2  5  1 -1</clus>
<clus scale="   85.692">  1  3  2 -1</clus>
</clustering>
</event>
<event>
 6    0  0.6132510E+002  0.1808120E+03  0.7546771E-02  0.1167020E+00
         21   -1    0    0  505  501  0.00000000000E+00  0.00000000000E+00  0.81258982181E+03  0.81258982181E+03  0.00000000000E+00 0. -1.
         21   -1    0    0  506  502 -0.00000000000E+00 -0.00000000000E+00 -0.67645815466E+03  0.67645815466E+03  0.00000000000E+00 0. -1.
         21    1    1    2  503  502  0.82899342860E+02  0.24688161807E+02 -0.10798977240E+03  0.13836038928E+03  0.00000000000E+00 0.  1.
         21    1    1    2  504  501  0.14699405696E+03  0.42395221189E+02  0.72289911284E+03  0.73890982867E+03  0.00000000000E+00 0. -1.
         21    1    1    2  505  503  0.20474669473E+02  0.22762088530E+02  0.26673823366E+02  0.40605635290E+02  0.00000000000E+00 0.  1.
         21    1    1    2  506  504 -0.25036806929E+03 -0.89845471527E+02 -0.50545149666E+03  0.57117212323E+03  0.00000000000E+00 0. -1.
<scales pt_clust_3="87.00719" pt_clust_4="14000.00000" pt_clust_5="30.61576" pt_clust_6="180.81199"></scales>
<clustering>
<clus scale="   30.616">  1  5  2 -1</clus>
<clus scale="   87.007">  2  3  1 -1</clus>
<clus scale="  180.812">  2  6  1 -1</clus>
<clus scale="   30.616">  1  3  2 -1</clus>
</clustering>
</event>
<event>
 6    0  0.6132510E+002  0.7206611E+02  0.7546771E-02  0.1353205E+00
         21   -1    0    0  506  501  0.00000000000E+00  0.00000000000E+00  0.17380944344E+04  0.17380944344E+04  0.00000000000E+00 0. -1.
         21   -1    0    0  505  502 -0.00000000000E+00 -0.00000000000E+00 -0.10906478168E+04  0.10906478168E+04  0.00000000000E+00 0.  1.
         21    1    1    2  503  501  0.16948113147E+02 -0.42670312552E+02  0.13879919462E+04  0.13887511068E+04  0.00000000000E+00 0. -1.
         21    1    1    2  504  503  0.51179331716E+02 -0.17800810952E+01  0.16087212268E+03  0.16882633840E+03  0.00000000000E+00 0. -1.
         21    1    1    2  505  504 -0.59182875657E+02  0.11572208174E+03  0.16066402836E+03  0.20665706613E+03  0.00000000000E+00 0. -1.
         21    1    1    2  506  502 -0.89445692053E+01 -0.71271688094E+02 -0.10620814796E+04  0.10645077398E+04  0.00000000000E+00 0.  1.
<scales pt_clust_3="45.91290" pt_clust_4="63.08886" pt_clust_5="72.06611" pt_clust_6="14000.00000"></scales>
<clustering>
<clus scale="   45.913">  1  3  2 -1</clus>
<clus scale="   63.089">  1  4  2 -1</clus>
<clus scale="   72.066">  1  5  2 -1</clus>
<clus scale="   45.913">  1  3  2 -1</clus>
</clustering>
</event>
<event>
 6    0  0.6132510E+002  0.1110873E+03  0.7546771E-02  0.1258570E+00
         21   -1    0    0  503  501  0.00000000000E+00  0.00000000000E+00  0.20471810579E+02  0.20471810579E+02  0.00000000000E+00 0.  1.
         21   -1    0    0  506  502 -0.00000000000E+00 -0.00000000000E+00 -0.18594863470E+04  0.18594863470E+04  0.00000000000E+00 0.  1.
         21    1    1    2  503  505 -0.20977417812E+01  0.35082425681E+02 -0.63931635457E+02  0.72954993828E+02  0.00000000000E+00 0.  1.
         21    1    1    2  504  502  0.33964283163E+02  0.41213404010E+02 -0.80987065792E+03  0.81162959517E+03  0.00000000000E+00 0.  1.
         21    1    1    2  505  504 -0.72716145705E+01  0.77902013267E+02 -0.45916932168E+03  0.46578757607E+03  0.00000000000E+00 0.  1.
         21    1    1    2  506  501 -0.24594926812E+02 -0.15419784296E+03 -0.50604292138E+03  0.52958599252E+03  0.00000000000E+00 0.  1.
<scales pt_clust_3="35.14509" pt_clust_4="54.83942" pt_clust_5="111.08729" pt_clust_6="14000.00000"></scales>
<clustering>
<clus scale="   35.145">  1  3  2 -1</clus>
<clus scale="   54.839">  2  4  1 -1</clus>
<clus scale="  111.087">  2  5  1 -1</clus>
<clus scale="   35.145">  1  3  2 -1</clus>
</clustering>
</event>
<event>
 6    0  0.6132510E+002  0.2165961E+03  0.7546771E-02  0.1136447E+00
         21   -1    0    0  506  501  0.00000000000E+00  0.00000000000E+00  0.74000042620E+02  0.74000042620E+02  0.00000000000E+00 0.  1.
         21   -1    0    0  504  502 -0.00000000000E+00 -0.00000000000E+00 -0.96160320322E+03  0.96160320322E+03  0.00000000000E+00 0.  1.
         21    1    1    2  503  502 -0.39792842076E+02 -0.20653165604E+02 -0.32857580619E+03  0.33162039132E+03  0.00000000000E+00 0.  1.
         21    1    1    2  504  501  0.11272263933E+03  0.19154742091E+03 -0.22663559765E+03  0.31742794773E+03  0.00000000000E+00 0.  1.
         21    1    1    2  505  503 -0.54337894895E+02 -0.97144729154E+02 -0.25406029375E+03  0.27737400398E+03  0.00000000000E+00 0.  1.
         21    1    1    2  506  505 -0.18591902359E+02 -0.73749526152E+02 -0.78331463012E+02  0.10918090281E+03  0.00000000000E+00 0.  1.
<scales pt_clust_3="44.83329" pt_clust_4="206.14811" pt_clust_5="52.85190" pt_clust_6="52.85190"></scales>
<clustering>
<clus scale="   44.833">  2  3  1 -1</clus>
<clus scale="   52.852">  5  6 -1 -1</clus>
<clus scale="  206.148">  1  4  2 -1</clus>
<clus scale="  206.148">  1  3  2 -1</clus>
</clustering>
</event>
<event>
 6    0  0.6132510E+002  0.3855546E+03  0.7546771E-02  0.1048900E+00
         21   -1    0    0  506  501  0.00000000000E+00  0.00000000000E+00  0.98922137357E+03  0.98922137357E+03  0.00000000000E+00 0. -1.
         21   -1    0    0  504  502 -0.00000000000E+00 -0.00000000000E+00 -0.25279756297E+03  0.25279756297E+03  0.00000000000E+00 0. -1.
         21    1    1    2  503  501 -0.43777107388E+02 -0.17051976848E+03  0.13910569983E+03  0.22437429064E+03  0.00000000000E+00 0. -1.
         21    1    1    2  504  505 -0.50772972396E+02  0.39781517892E+02 -0.90947740644E+02  0.11149867900E+03  0.00000000000E+00 0. -1.
         21    1    1    2  505  503  0.79612622007E+01 -0.22404049261E+03  0.25782527720E+03  0.34165976876E+03  0.00000000000E+00 0. -1.
         21    1    1    2  506  502  0.86588817583E+02  0.35477874320E+03  0.43044057422E+03  0.56448619814E+03  0.00000000000E+00 0. -1.
<scales pt_clust_3="68.39872" pt_clust_4="64.50166" pt_clust_5="68.39872" pt_clust_6="377.85256"></scales>
<clustering>
<clus scale="   64.502">  2  4  1 -1</clus>
<clus scale="   68.399">  3  5 -1 -1</clus>
<clus scale="  377.853">  1  6  2 -1</clus>
<clus scale="  377.853">  1  3  2 -1</clus>
</clustering>
</event>
<event>
 6    0  0.6132510E+002  0.1264680E+03  0.7546771E-02  0.1232793E+00
         21   -1    0    0  504  501  0.00000000000E+00  0.00000000000E+00  0.55371674629E+03  0.55371674629E+03  0.00000000000E+00 0. -1.
         21   -1    0    0  501  502 -0.00000000000E+00 -0.00000000000E+00 -0.87306549276E+03  0.87306549276E+03  0.00000000000E+00 0. -1.
         21    1    1    2  503  502  0.18383760436E+02  0.86043427780E+02 -0.50104907001E+03  0.50871564225E+03  0.00000000000E+00 0. -1.
         21    1    1    2  504  506  0.54063024797E+02 -0.18280217151E+02  0.34349624044E+03  0.34820488823E+03  0.00000000000E+00 0. -1.
         21    1    1    2  505  503 -0.11031799630E+03 -0.17160823018E+02 -0.35207884607E+03  0.36935628870E+03  0.00000000000E+00 0. -1.
         21    1    1    2  506  505  0.37871211066E+02 -0.50602387610E+02  0.19028292917E+03  0.20050541986E+03  0.00000000000E+00 0. -1.
<scales pt_clust_3="87.98542" pt_clust_4="51.75124" pt_clust_5="114.14063" pt_clust_6="51.75124"></scales>
<clustering>
<clus scale="   51.751">  4  6 -1 -1</clus>
<clus scale="   87.985">  2  3  1 -1</clus>
<clus scale="  114.141">  2  5  1 -1</clus>
<clus scale="  126.468">  1  3  2 -1</clus>
</clustering>
</event>
<event>
 6    0  0.6132510E+002  0.1013484E+03  0.7546771E-02  0.1277486E+00
         21   -1    0    0  503  501  0.00000000000E+00  0.00000000000E+00  0.24781796232E+03  0.24781796232E+03  0.00000000000E+00 0. -1.
         21   -1    0    0  504  502 -0.00000000000E+00 -0.00000000000E+00 -0.72770128582E+03  0.72770128582E+03  0.00000000000E+00 0. -1.
         21    1    1    2  503  506  0.35874129084E+02 -0.57584461860E+02  0.19061616625E+03  0.20233004280E+03  0.00000000000E+00 0. -1.
         21    1    1    2  504  505 -0.77049310745E+02  0.10164366894E+03 -0.61328035596E+03  0.62640308646E+03  0.00000000000E+00 0. -1.
         21    1    1    2  505  501  0.74767517768E+01 -0.34965028677E+02  0.33862534096E+02  0.49245570998E+02  0.00000000000E+00 0. -1.
         21    1    1    2  506  502  0.33698429885E+02 -0.90941784059E+01 -0.91081667880E+02  0.97540547883E+02  0.00000000000E+00 0.  1.
<scales pt_clust_3="101.34844" pt_clust_4="14000.00000" pt_clust_5="35.95103" pt_clust_6="34.90399"></scales>
<clustering>
<clus scale="   34.904">  2  6  1 -1</clus>
<clus scale="   35.951">  1  5  2 -1</clus>
<clus scale="  101.348">  1  3  2 -1</clus>
<clus scale="   35.951">  1  3  2 -1</clus>
</clustering>
</event>
<event>
 6    0  0.6132510E+002  0.1717189E+03  0.7546771E-02  0.1176067E+00
         21   -1    0    0  503  501  0.00000000000E+00  0.00000000000E+00  0.36954329638E+02  0.36954329638E+02  0.00000000000E+00 0.  1.
         21   -1    0    0  504  502 -0.00000000000E+00 -0.00000000000E+00 -0.19608766372E+04  0.19608766372E+04  0.00000000000E+00 0.  1.
         21    1    1    2  503  505 -0.21344957735E+02  0.17363036324E+03 -0.33434821656E+03  0.37734843338E+03  0.00000000000E+00 0.  1.
         21    1    1    2  504  506 -0.12129736513E+02 -0.91058573382E+02 -0.30091625701E+03  0.31462579047E+03  0.00000000000E+00 0.  1.
         21    1    1    2  505  502  0.13665788740E+02 -0.29860373726E+02 -0.12023829092E+04  0.12028312666E+04  0.00000000000E+00 0.  1.
         21    1    1    2  506  501  0.19808905508E+02 -0.52711416134E+02 -0.86274924858E+02  0.10302547640E+03  0.00000000000E+00 0.  1.
<scales pt_clust_3="160.31408" pt_clust_4="47.03487" pt_clust_5="32.83894" pt_clust_6="47.03487"></scales>
<clustering>
<clus scale="   32.839">  2  5  1 -1</clus>
<clus scale="   47.035">  4  6 -1 -1</clus>
<clus scale="  160.314">  1  3  2 -1</clus>
<clus scale="  160.314">  1  3  2 -1</clus>
</clustering>
</event>
<event>
 6    0  0.6132510E+002  0.1567831E+03  0.7546771E-02  0.1192377E+00
         21   -1    0    0  506  501  0.00000000000E+00  0.00000000000E+00  0.79470544759E+03  0.79470544759E+03  0.00000000000E+00 0. -1.
         21   -1    0    0  503  502 -0.00000000000E+00 -0.00000000000E+00 -0.16390564100E+04  0.16390564100E+04  0.00000000000E+00 0. -1.
         21    1    1    2  503  501 -0.15054705982E+03  0.23911320334E+02  0.22602911156E+03  0.27262671867E+03  0.00000000000E+00 0.  1.
         21    1    1    2  504  505  0.10500506610E+03  0.11222100892E+02 -0.13601570535E+04  0.13642504205E+04  0.00000000000E+00 0. -1.
         21    1    1    2  505  502  0.52671037104E+02 -0.17813008414E+01 -0.25027163663E+03  0.25576024571E+03  0.00000000000E+00 0.  1.
         21    1    1    2  506  504 -0.71290433814E+01 -0.33352120384E+02  0.54004861617E+03  0.54112447277E+03  0.00000000000E+00 0. -1.
<scales pt_clust_3="156.78312" pt_clust_4="14000.00000" pt_clust_5="52.63763" pt_clust_6="34.10553"></scales>
<clustering>
<clus scale="   34.106">  1  6  2 -1</clus>
<clus scale="   52.638">  2  5  1 -1</clus>
<clus scale="  156.783">  1  3  2 -1</clus>
<clus scale="   34.106">  1  3  2 -1</clus>
</clustering>
</event>
<event>
 6    0  0.6132510E+002  0.9538511E+02  0.7546771E-02  0.1290311E+00
         21   -1    0    0  503  501  0.00000000000E+00  0.00000000000E+00  0.29460564020E+02  0.29460564020E+02  0.00000000000E+00 0. -1.
         21   -1    0    0  504  502 -0.00000000000E+00 -0.00000000000E+00 -0.26261029575E+04  0.26261029575E+04  0.00000000000E+00 0.  1.
         21    1    1    2  503  502 -0.61680673064E+02  0.37056196015E+01 -0.17906705415E+04  0.17917363716E+04  0.00000000000E+00 0.  1.
         21    1    1    2  504  505  0.30169612046E+02 -0.42161187921E+02 -0.42084203832E+03  0.42402333955E+03  0.00000000000E+00 0.  1.
         21    1    1    2  505  506 -0.51301266622E+02 -0.34712934199E+02 -0.28175494251E+03  0.28848337107E+03  0.00000000000E+00 0.  1.
         21    1    1    2  506  501  0.82812327640E+02  0.73168502518E+02 -0.10337487113E+03  0.15132043930E+03  0.00000000000E+00 0. -1.
<scales pt_clust_3="48.11323" pt_clust_4="51.84372" pt_clust_5="95.38511" pt_clust_6="14000.00000"></scales>
<clustering>
<clus scale="   51.844">  2  4  1 -1</clus>
<clus scale="   48.113">  2  3  1 -1</clus>
<clus scale="   95.385">  2  5  1 -1</clus>
<clus scale="   95.385">  1  3  2 -1</clus>
</clustering>
</event>
<event>
 6    0  0.6132510E+002  0.1495864E+03  0.7546771E-02  0.1200982E+00
         21   -1    0    0  506  501  0.00000000000E+00  0.00000000000E+00  0.48168752117E+03  0.48168752117E+03  0.00000000000E+00 0.  1.
         21   -1    0    0  503  502 -0.00000000000E+00 -0.00000000000E+00 -0.45881714982E+03  0.45881714982E+03  0.00000000000E+00 0. -1.
         21    1    1    2  503  501 -0.19830235134E+03  0.65023520157E+02 -0.32314385645E+03  0.38467367038E+03  0.00000000000E+00 0. -1.
         21    1    1    2  504  505  0.91968341003E+02 -0.56299639998E+02  0.30511202116E+03  0.32360650591E+03  0.00000000000E+00 0.  1.
         21    1    1    2  505  502  0.98373838452E+02  0.30451356853E+02 -0.63120765100E+02  0.12078463566E+03  0.00000000000E+00 0.  1.
         21    1    1    2  506  504  0.79601718846E+01 -0.39175237011E+02  0.10402297174E+03  0.11143985903E+03  0.00000000000E+00 0. -1.
<scales pt_clust_3="140.01197" pt_clust_4="32.06109" pt_clust_5="102.97911" pt_clust_6="32.06109"></scales>
<clustering>
<clus scale="   32.061">  4  6 -1 -1</clus>
<clus scale="  102.979">  2  5  1 -1</clus>
<clus scale="  140.012">  2  3  1 -1</clus>
<clus scale="  149.586">  1  3  2 -1</clus>
</clustering>
</event>
<event>
 6    0  0.6132510E+002  0.1151081E+03  0.7546771E-02  0.1251392E+00
         21   -1    0    0  505  501  0.00000000000E+00  0.00000000000E+00  0.17046329141E+04  0.17046329141E+04  0.00000000000E+00 0. -1.
         21   -1    0    0  503  502 -0.00000000000E+00 -0.00000000000E+00 -0.11989427767E+03  0.11989427767E+03  0.00000000000E+00 0.  1.
         21    1    1    2  503  501 -0.12259763843E+03 -0.86373941482E+02 -0.60161384497E+02  0.16158598609E+03  0.00000000000E+00 0.  1.
         21    1    1    2  504  506  0.76262977263E+02  0.50121699178E+01  0.54458001795E+03  0.54991686599E+03  0.00000000000E+00 0.  1.
         21    1    1    2  505  504  0.33826997932E+02  0.46556961539E+02  0.10443774209E+04  0.10459617650E+04  0.00000000000E+00 0. -1.
         21    1    1    2  506  502  0.12507663230E+02  0.34804810026E+02  0.55942582021E+02  0.67062574686E+02  0.00000000000E+00 0.  1.
<scales pt_clust_3="115.10811" pt_clust_4="14000.00000" pt_clust_5="57.79446" pt_clust_6="36.98400"></scales>
<clustering>
<clus scale="   36.984">  2  6  1 -1</clus>
<clus scale="   57.794">  1  5  2 -1</clus>
<clus scale="  115.108">  2  3  1 -1</clus>
<clus scale="   57.794">  1  3  2 -1</clus>
</clustering>
</event>
<event>
 6    0  0.6132510E+002  0.9486114E+02  0.7546771E-02  0.1291489E+00
         21   -1    0    0  505  501  0.00000000000E+00  0.00000000000E+00  0.37011455220E+03  0.37011455220E+03  0.00000000000E+00 0. -1.
         21   -1    0    0  504  502 -0.00000000000E+00 -0.00000000000E+00 -0.79001731478E+02  0.79001731478E+02  0.00000000000E+00 0. -1.
         21    1    1    2  503  501  0.28021696284E+02 -0.39458479221E+02  0.16656687302E+03  0.17345521102E+03  0.00000000000E+00 0. -1.
         21    1    1    2  504  503 -0.10977550838E+00 -0.35068377599E+02  0.11804575078E+02  0.37002042523E+02  0.00000000000E+00 0. -1.
         21    1    1    2  505  506 -0.11153587727E+03  0.44374377955E+02  0.78340951120E+02  0.14334099888E+03  0.00000000000E+00 0. -1.
         21    1    1    2  506  502  0.83623956495E+02  0.30152478865E+02  0.34400421510E+02  0.95318031252E+02  0.00000000000E+00 0. -1.
<scales pt_clust_3="49.88707" pt_clust_4="35.06855" pt_clust_5="14000.00000" pt_clust_6="94.86114"></scales>
<clustering>
<clus scale="   35.069">  2  4  1 -1</clus>
<clus scale="   49.887">  1  3  2 -1</clus>
<clus scale="   94.861">  2  6  1 -1</clus>
<clus scale="   49.887">  1  3  2 -1</clus>
</clustering>
</event>
<event>
 6    0  0.6132510E+002  0.1919181E+03  0.7546771E-02  0.1156743E+00
         21   -1    0    0  506  501  0.00000000000E+00  0.00000000000E+00  0.61306634595E+03  0.61306634595E+03  0.00000000000E+00 0.  1.
         21   -1    0    0  503  502 -0.00000000000E+00 -0.00000000000E+00 -0.39219941294E+03  0.39219941294E+03  0.00000000000E+00 0. -1.
         21    1    1    2  503  505 -0.16489899682E+03 -0.40231482436E+02 -0.17018339500E+03  0.24035939604E+03  0.00000000000E+00 0. -1.
         21    1    1    2  504  502  0.23994864419E+03  0.51894913868E+02 -0.93292683092E+02  0.26262512951E+03  0.00000000000E+00 0. -1.
         21    1    1    2  505  501  0.11744304529E+02 -0.30175238906E+02  0.54675420692E+02  0.63544278733E+02  0.00000000000E+00 0. -1.
         21    1    1    2  506  504 -0.86793951897E+02  0.18511807474E+02  0.42966759040E+03  0.43873695462E+03  0.00000000000E+00 0.  1.
<scales pt_clust_3="191.91809" pt_clust_4="14000.00000" pt_clust_5="32.38014" pt_clust_6="77.75861"></scales>
<clustering>
<clus scale="   32.380">  1  5  2 -1</clus>
<clus scale="   77.759">  1  6  2 -1</clus>
<clus scale="  191.918">  2  3  1 -1</clus>
<clus scale="   32.380">  1  3  2 -1</clus>
</clustering>
</event>
<event>
 6    0  0.6132510E+002  0.2291554E+03  0.7546771E-02  0.1127236E+00
         21   -1    0    0  505  501  0.00000000000E+00  0.00000000000E+00  0.29263013791E+03  0.29263013791E+03  0.00000000000E+00 0. -1.
         21   -1    0    0  503  502 -0.00000000000E+00 -0.00000000000E+00 -0.66851142767E+03  0.66851142767E+03  0.00000000000E+00 0. -1.
         21    1    1    2  503  501 -0.71625307347E+02 -0.21812179077E+03 -0.44340140143E+03  0.49931162920E+03  0.00000000000E+00 0. -1.
         21    1    1    2  504  506  0.42481062954E+02  0.11967655367E+03  0.11636222790E+03  0.17224194115E+03  0.00000000000E+00 0. -1.
         21    1    1    2  505  504  0.66778394933E+02  0.77226285457E+02  0.94963814355E+02  0.13943234643E+03  0.00000000000E+00 0. -1.
         21    1    1    2  506  502 -0.37634150540E+02  0.21218951641E+02 -0.14380593059E+03  0.15015564880E+03  0.00000000000E+00 0. -1.
<scales pt_clust_3="225.25179" pt_clust_4="37.76287" pt_clust_5="37.76287" pt_clust_6="43.20386"></scales>
<clustering>
<clus scale="   37.763">  4  5 -1 -1</clus>
<clus scale="   43.204">  2  6  1 -1</clus>
<clus scale="  225.252">  2  3  1 -1</clus>
<clus scale="  229.155">  1  3  2 -1</clus>
</clustering>
</event>
<event>
 6    0  0.6132510E+002  0.3065119E+03  0.7546771E-02  0.1082030E+00
         21   -1    0    0  506  501  0.00000000000E+00  0.00000000000E+00  0.11039010234E+03  0.11039010234E+03  0.00000000000E+00 0.  1.
         21   -1    0    0  505  502 -0.00000000000E+00 -0.00000000000E+00 -0.15692950157E+04  0.15692950157E+04  0.00000000000E+00 0.  1.
         21    1    1    2  503  504  0.25383388684E+02  0.31370857651E+02 -0.65017241469E+02  0.76522472640E+02  0.00000000000E+00 0. -1.
         21    1    1    2  504  501  0.22575396764E+03  0.92495389910E+02 -0.13683831880E+03  0.27972303544E+03  0.00000000000E+00 0.  1.
         21    1    1    2  505  503  0.66606243070E+02  0.57415373344E+01 -0.28031432808E+03  0.28817612564E+03  0.00000000000E+00 0.  1.
         21    1    1    2  506  502 -0.31774359940E+03 -0.12960778490E+03 -0.97673502498E+03  0.10352634843E+04  0.00000000000E+00 0.  1.
<scales pt_clust_3="35.80920" pt_clust_4="35.80920" pt_clust_5="66.85325" pt_clust_6="293.59354"></scales>
<clustering>
<clus scale="   35.809">  3  4 -1 -1</clus>
<clus scale="   66.853">  2  5  1 -1</clus>
<clus scale="  293.594">  2  6  1 -1</clus>
<clus scale="  306.512">  1  3  2 -1</clus>
</clustering>
</event>
<event>
 6    0  0.6132510E+002  0.1066087E+03  0.7546771E-02  0.1266982E+00
         21   -1    0    0  503  501  0.00000000000E+00  0.00000000000E+00  0.60140799532E+03  0.60140799532E+03  0.00000000000E+00 0.  1.
         21   -1    0    0  504  502 -0.00000000000E+00 -0.00000000000E+00 -0.37747728960E+03  0.37747728960E+03  0.00000000000E+00 0. -1.
         21    1    1    2  503  506  0.26308883565E+02  0.40577033569E+02  0.32502441931E+03  0.32860238307E+03  0.00000000000E+00 0.  1.
         21    1    1    2  504  501 -0.91188134252E+02 -0.10598754951E+03  0.12346556858E+03  0.18652716452E+03  0.00000000000E+00 0. -1.
         21    1    1    2  505  502  0.34074910704E+02  0.36316210299E+02 -0.33852486178E+03  0.34216815853E+03  0.00000000000E+00 0. -1.
         21    1    1    2  506  505  0.30804339983E+02  0.29094305647E+02  0.11396557961E+03  0.12158757880E+03  0.00000000000E+00 0.  1.
<scales pt_clust_3="40.18215" pt_clust_4="97.58404" pt_clust_5="49.79926" pt_clust_6="40.18215"></scales>
<clustering>
<clus scale="   40.182">  3  6 -1 -1</clus>
<clus scale="   49.799">  2  5  1 -1</clus>
<clus scale="   97.584">  2  4  1 -1</clus>
<clus scale="  106.609">  1  3  2 -1</clus>
</clustering>
</event>
<event>
 6    0  0.6132510E+002  0.1555287E+03  0.7546771E-02  0.1193839E+00
         21   -1    0    0  506  501  0.00000000000E+00  0.00000000000E+00  0.14817215116E+03  0.14817215116E+03  0.00000000000E+00 0.  1.
         21   -1    0    0  503  502 -0.00000000000E+00 -0.00000000000E+00 -0.56245768728E+03  0.56245768728E+03  0.00000000000E+00 0.  1.
         21    1    1    2  503  504 -0.52809946796E+02 -0.16035432404E+03 -0.34022603349E+03  0.37981068124E+03  0.00000000000E+00 0.  1.
         21    1    1    2  504  501 -0.59651521195E+02  0.14759506431E+03  0.37496196413E+02  0.16354990595E+03  0.00000000000E+00 0.  1.
         21    1    1    2  505  502  0.84037247107E+02  0.27550552729E+02 -0.99274586274E+02  0.13295388425E+03  0.00000000000E+00 0.  1.
         21    1    1    2  506  505  0.28424220885E+02 -0.14791293005E+02 -0.12281112767E+02  0.34315367002E+02  0.00000000000E+00 0.  1.
<scales pt_clust_3="14000.00000" pt_clust_4="155.52867" pt_clust_5="124.63679" pt_clust_6="31.41540"></scales>
<clustering>
<clus scale="   31.415">  5  6 -1 -1</clus>
<clus scale="  124.637">  2  5  1 -1</clus>
<clus scale="  155.529">  1  4  2 -1</clus>
<clus scale="  155.529">  1  3  2 -1</clus>
</clustering>
</event>
<event>
 6    0  0.6132510E+002  0.1228356E+03  0.7546771E-02  0.1238491E+00
         21   -1    0    0  505  501  0.00000000000E+00  0.00000000000E+00  0.92286410259E+03  0.92286410259E+03  0.00000000000E+00 0.  1.
         21   -1    0    0  506  502 -0.00000000000E+00 -0.00000000000E+00 -0.62703574456E+02  0.62703574456E+02  0.00000000000E+00 0.  1.
         21    1    1    2  503  501 -0.78478219148E+01  0.74116602589E+02  0.13653835588E+03  0.15555571900E+03  0.00000000000E+00 0.  1.
         21    1    1    2  504  502  0.10954155189E+03 -0.12440490473E+01  0.41440992341E+02  0.11712495504E+03  0.00000000000E+00 0.  1.
         21    1    1    2  505  504 -0.80547514491E+02 -0.98502695850E+02  0.66176831156E+03  0.67389018494E+03  0.00000000000E+00 0.  1.
         21    1    1    2  506  503 -0.21146215481E+02  0.25630142309E+02  0.20412868353E+02  0.38996818054E+02  0.00000000000E+00 0.  1.
<scales pt_clust_3="32.89347" pt_clust_4="109.54862" pt_clust_5="112.52403" pt_clust_6="32.89347"></scales>
<clustering>
<clus scale="   32.893">  3  6 -1 -1</clus>
<clus scale="  109.549">  2  4  1 -1</clus>
<clus scale="  112.524">  1  5  2 -1</clus>
<clus scale="  112.524">  1  3  2 -1</clus>
</clustering>
</event>
<event>
 6    0  0.6132510E+002  0.7062218E+02  0.7546771E-02  0.1357990E+00
         21   -1    0    0  505  501  0.00000000000E+00  0.00000000000E+00  0.37132629638E+03  0.37132629638E+03  0.00000000000E+00 0. -1.
         21   -1    0    0  506  502 -0.00000000000E+00 -0.00000000000E+00 -0.66785516474E+02  0.66785516474E+02  0.00000000000E+00 0. -1.
         21    1    1    2  503  502  0.32877632054E+02 -0.40141930965E+02  0.19440557941E+02  0.55409824076E+02  0.00000000000E+00 0. -1.
         21    1    1    2  504  501 -0.61516414121E+02  0.74224855014E+02  0.11822874507E+03  0.15255043255E+03  0.00000000000E+00 0. -1.
         21    1    1    2  505  503 -0.21926603291E+01 -0.67105225911E+02  0.17204157901E+03  0.18467870481E+03  0.00000000000E+00 0. -1.
         21    1    1    2  506  504  0.30831442397E+02  0.33022301862E+02 -0.51701021144E+01  0.45472851421E+02  0.00000000000E+00 0. -1.
<scales pt_clust_3="52.96903" pt_clust_4="14000.00000" pt_clust_5="70.62218" pt_clust_6="45.17798"></scales>
<clustering>
<clus scale="   45.178">  2  6  1 -1</clus>
<clus scale="   52.969">  2  3  1 -1</clus>
<clus scale="   70.622">  1  5  2 -1</clus>
<clus scale="   70.622">  1  3  2 -1</clus>
</clustering>
</event>
<event>
 6    0  0.6132510E+002  0.1360423E+03  0.7546771E-02  0.1218756E+00
         21   -1    0    0  503  501  0.00000000000E+00  0.00000000000E+00  0.26220653789E+03  0.26220653789E+03  0.00000000000E+00 0.  1.
         21   -1    0    0  506  502 -0.00000000000E+00 -0.00000000000E+00 -0.97438965869E+03  0.97438965869E+03  0.00000000000E+00 0.  1.
         21    1    1    2  503  502 -0.29243299834E+02  0.31613735040E+02 -0.90186142838E+02  0.99940678347E+02  0.00000000000E+00 0.  1.
         21    1    1    2  504  505 -0.54846320039E+02 -0.80608688878E+02 -0.35513263197E+02  0.10376449974E+03  0.00000000000E+00 0.  1.
         21    1    1    2  505  501  0.11283760832E+03  0.10056745691E+03  0.19637496579E+03  0.24780893130E+03  0.00000000000E+00 0.  1.
         21    1    1    2  506  504 -0.28747988444E+02 -0.51572503073E+02 -0.78285868055E+03  0.78508208719E+03  0.00000000000E+00 0.  1.
<scales pt_clust_3="43.06505" pt_clust_4="136.04230" pt_clust_5="14000.00000" pt_clust_6="59.60029"></scales>
<clustering>
<clus scale="   43.065">  2  3  1 -1</clus>
<clus scale="   59.600">  2  6  1 -1</clus>
<clus scale="  136.042">  2  4  1 -1</clus>
<clus scale="  136.042">  1  3  2 -1</clus>
</clustering>
</event>
<event>
 6    0  0.6132510E+002  0.9211443E+02  0.7546771E-02  0.1297811E+00
         21   -1    0    0  506  501  0.00000000000E+00  0.00000000000E+00  0.76878760471E+02  0.76878760471E+02  0.00000000000E+00 0. -1.
         21   -1    0    0  505  502 -0.00000000000E+00 -0.00000000000E+00 -0.10055324250E+04  0.10055324250E+04  0.00000000000E+00 0.  1.
         21    1    1    2  503  504 -0.52441870690E+02  0.13238912261E+02 -0.59912801875E+02  0.80715317182E+02  0.00000000000E+00 0. -1.
         21    1    1    2  504  502 -0.52456481017E+02  0.61144124066E+02 -0.19125819480E+03  0.20753308986E+03  0.00000000000E+00 0. -1.
         21    1    1    2  505  501  0.84914716581E+02 -0.49261572896E+02 -0.72784748951E+03  0.73443800259E+03  0.00000000000E+00 0.  1.
         21    1    1    2  506  503  0.19983635126E+02 -0.25121463430E+02  0.50364821617E+02  0.59724775883E+02  0.00000000000E+00 0. -1.
<scales pt_clust_3="42.94090" pt_clust_4="92.11443" pt_clust_5="14000.00000" pt_clust_6="32.10037"></scales>
<clustering>
<clus scale="   32.100">  1  6  2 -1</clus>
<clus scale="   42.941">  1  3  2 -1</clus>
<clus scale="   92.114">  1  4  2 -1</clus>
<clus scale="   32.100">  1  3  2 -1</clus>
</clustering>
</event>
<event>
 6    0  0.6132510E+002  0.2221955E+03  0.7546771E-02  0.1132257E+00
         21   -1    0    0  503  501  0.00000000000E+00  0.00000000000E+00  0.11802818306E+03  0.11802818306E+03  0.00000000000E+00 0.  1.
         21   -1    0    0  506  502 -0.00000000000E+00 -0.00000000000E+00 -0.82277284663E+03  0.82277284663E+03  0.00000000000E+00 0.  1.
         21    1    1    2  503  502 -0.22577968211E+03 -0.42905869662E+02 -0.10212342668E+03  0.25148871303E+03  0.00000000000E+00 0.  1.
         21    1    1    2  504  505  0.14583227180E+03  0.16844920918E+01 -0.17391062987E+03  0.22696871192E+03  0.00000000000E+00 0.  1.
         21    1    1    2  505  501  0.49622943254E+02  0.18147414793E+02 -0.27947659011E+02  0.59773211433E+02  0.00000000000E+00 0.  1.
         21    1    1    2  506  504  0.30324467059E+02  0.23073962778E+02 -0.40076294802E+03  0.40257039330E+03  0.00000000000E+00 0.  1.
<scales pt_clust_3="215.62172" pt_clust_4="32.29108" pt_clust_5="32.29108" pt_clust_6="38.10487"></scales>
<clustering>
<clus scale="   32.291">  4  5 -1 -1</clus>
<clus scale="   38.105">  2  6  1 -1</clus>
<clus scale="  215.622">  1  3  2 -1</clus>
<clus scale="  215.622">  1  3  2 -1</clus>
</clustering>
</event>
<event>
 6    0  0.6132510E+002  0.2418421E+03  0.7546771E-02  0.1118572E+00
         21   -1    0    0  503  501  0.00000000000E+00  0.00000000000E+00  0.26542946062E+03  0.26542946062E+03  0.00000000000E+00 0. -1.
         21   -1    0    0  506  502 -0.00000000000E+00 -0.00000000000E+00 -0.17359420323E+04  0.17359420323E+04  0.00000000000E+00 0. -1.
         21    1    1    2  503  504 -0.67452813536E+02 -0.50139866602E+02 -0.15837508345E+02  0.85526106817E+02  0.00000000000E+00 0. -1.
         21    1    1    2  504  502 -0.12635311102E+03  0.16138779632E+02  0.21541088513E+02  0.12918818587E+03  0.00000000000E+00 0. -1.
         21    1    1    2  505  501  0.25466580839E+03  0.27849249381E+02  0.48483086973E+02  0.26073140274E+03  0.00000000000E+00 0. -1.
         21    1    1    2  506  505 -0.60859883830E+02  0.61518375881E+01 -0.15246992388E+04  0.15259257975E+04  0.00000000000E+00 0. -1.
<scales pt_clust_3="70.04927" pt_clust_4="70.04927" pt_clust_5="226.12988" pt_clust_6="61.17001"></scales>
<clustering>
<clus scale="   61.170">  2  6  1 -1</clus>
<clus scale="   70.049">  3  4 -1 -1</clus>
<clus scale="  226.130">  2  5  1 -1</clus>
<clus scale="  241.842">  1  3  2 -1</clus>
</clustering>
</event>
<event>
 6    0  0.6132510E+002  0.7609338E+02  0.7546771E-02  0.1340518E+00
         21   -1    0    0  504  501  0.00000000000E+00  0.00000000000E+00  0.71366716149E+03  0.71366716149E+03  0.00000000000E+00 0. -1.
         21   -1    0    0  506  502 -0.00000000000E+00 -0.00000000000E+00 -0.53306960891E+02  0.53306960891E+02  0.00000000000E+00 0. -1.
         21    1    1    2  503  505  0.61928389408E+02 -0.10738490769E+03  0.41135047280E+03  0.42962292220E+03  0.00000000000E+00 0. -1.
         21    1    1    2  504  503 -0.44228230699E+02  0.15635493455E+02  0.19341598082E+03  0.19902348274E+03  0.00000000000E+00 0. -1.
         21    1    1    2  505  502 -0.34675574704E+02  0.63199728463E+02 -0.16940085224E+01  0.72107356239E+02  0.00000000000E+00 0. -1.
         21    1    1    2  506  501  0.16975415995E+02  0.28549685773E+02  0.57287755512E+02  0.66220361201E+02  0.00000000000E+00 0. -1.
<scales pt_clust_3="76.09338" pt_clust_4="46.01422" pt_clust_5="14000.00000" pt_clust_6="33.21520"></scales>
<clustering>
<clus scale="   33.215">  1  6  2 -1</clus>
<clus scale="   46.014">  1  4  2 -1</clus>
<clus scale="   76.093">  1  3  2 -1</clus>
<clus scale="   33.215">  1  3  2 -1</clus>
</clustering>
</event>
<event>
 6    0  0.6132510E+002  0.9452681E+02  0.7546771E-02  0.1292245E+00
         21   -1    0    0  504  501  0.00000000000E+00  0.00000000000E+00  0.13551674303E+03  0.13551674303E+03  0.00000000000E+00 0. -1.
         21   -1    0    0  503  502 -0.00000000000E+00 -0.00000000000E+00 -0.33526526131E+03  0.33526526131E+03  0.00000000000E+00 0.  1.
         21    1    1    2  503  506  0.20888235966E+02 -0.33478064508E+02 -0.18897645577E+03  0.19305232462E+03  0.00000000000E+00 0.  1.
         21    1    1    2  504  502  0.49668377546E+02 -0.57779944728E+02 -0.82965592701E+02  0.11264439317E+03  0.00000000000E+00 0.  1.
         21    1    1    2  505  501  0.13818415020E+02  0.54838725286E+02  0.26547333547E+02  0.62473956999E+02  0.00000000000E+00 0. -1.
         21    1    1    2  506  505 -0.84375028532E+02  0.36419283951E+02  0.45646196645E+02  0.10261132955E+03  0.00000000000E+00 0. -1.
<scales pt_clust_3="39.46010" pt_clust_4="94.52681" pt_clust_5="53.26375" pt_clust_6="14000.00000"></scales>
<clustering>
<clus scale="   39.460">  2  3  1 -1</clus>
<clus scale="   53.264">  1  5  2 -1</clus>
<clus scale="   94.527">  2  4  1 -1</clus>
<clus scale="   53.264">  1  3  2 -1</clus>
</clustering>
</event>
<event>
 6    0  0.6132510E+002  0.2360103E+03  0.7546771E-02  0.1122480E+00
         21   -1    0    0  503  501  0.00000000000E+00  0.00000000000E+00  0.21990155010E+03  0.21990155010E+03  0.00000000000E+00 0. -1.
         21   -1    0    0  506  502 -0.00000000000E+00 -0.00000000000E+00 -0.53639397933E+03  0.53639397933E+03  0.00000000000E+00 0. -1.
         21    1    1    2  503  504 -0.50837131800E+02  0.11087831205E+02  0.58420333698E+02  0.78232278248E+02  0.00000000000E+00 0. -1.
         21    1    1    2  504  502 -0.17533804670E+03 -0.81924370210E+01  0.58111927367E+02  0.18489873647E+03  0.00000000000E+00 0. -1.
         21    1    1    2  505  501  0.18697721189E+03 -0.37484623168E+01 -0.29169695412E+03  0.34649912233E+03  0.00000000000E+00 0. -1.
         21    1    1    2  506  505  0.39197966606E+02  0.85306813229E+00 -0.14132773617E+03  0.14666539238E+03  0.00000000000E+00 0. -1.
<scales pt_clust_3="36.50105" pt_clust_4="235.91982" pt_clust_5="30.84197" pt_clust_6="30.84197"></scales>
<clustering>
<clus scale="   30.842">  5  6 -1 -1</clus>
<clus scale="   36.501">  3  4 -1 -1</clus>
<clus scale="  235.920">  1  3  2 -1</clus>
<clus scale="  235.920">  1  3  2 -1</clus>
</clustering>
</event>
<event>
 6    0  0.6132510E+002  0.1233033E+03  0.7546771E-02  0.1237745E+00
         21   -1    0    0  504  501  0.00000000000E+00  0.00000000000E+00  0.16920115777E+04  0.16920115777E+04  0.00000000000E+00 0. -1.
         21   -1    0    0  505  502 -0.00000000000E+00 -0.00000000000E+00 -0.64847860678E+03  0.64847860678E+03  0.00000000000E+00 0.  1.
         21    1    1    2  503  506 -0.61991415762E+02 -0.34445078004E+02 -0.77640443019E+02  0.10515435045E+03  0.00000000000E+00 0. -1.
         21    1    1    2  504  503  0.31495494451E+02 -0.38349846121E+02  0.38223030887E+03  0.38543830360E+03  0.00000000000E+00 0. -1.
         21    1    1    2  505  501  0.90569582430E+02  0.71828254347E+02  0.12902041165E+04  0.12953720738E+04  0.00000000000E+00 0. -1.
         21    1    1    2  506  502 -0.60073661119E+02  0.96666977794E+00 -0.55126101148E+03  0.55452545657E+03  0.00000000000E+00 0.  1.
<scales pt_clust_3="123.30327" pt_clust_4="49.62537" pt_clust_5="14000.00000" pt_clust_6="60.04139"></scales>
<clustering>
<clus scale="   49.625">  1  4  2 -1</clus>
<clus scale="   60.041">  2  6  1 -1</clus>
<clus scale="  123.303">  2  3  1 -1</clus>
<clus scale="   49.625">  1  3  2 -1</clus>
</clustering>
</event>
<event>
 6    0  0.6132510E+002  0.1136228E+03  0.7546771E-02  0.1254004E+00
         21   -1    0    0  506  501  0.00000000000E+00  0.00000000000E+00  0.75587567509E+03  0.75587567509E+03  0.00000000000E+00 0.  1.
         21   -1    0    0  503  502 -0.00000000000E+00 -0.00000000000E+00 -0.13655887176E+03  0.13655887176E+03  0.00000000000E+00 0.  1.
         21    1    1    2  503  504 -0.89599238745E+02 -0.76277310602E+02 -0.81641286588E+02  0.14321854409E+03  0.00000000000E+00 0.  1.
         21    1    1    2  504  505  0.10663465692E+03 -0.19065179814E+02  0.31095459262E+03  0.32928284165E+03  0.00000000000E+00 0.  1.
         21    1    1    2  505  501 -0.44341167344E+02  0.78050445459E+02  0.13031059004E+03  0.15823672467E+03  0.00000000000E+00 0.  1.
         21    1    1    2  506  502  0.27305749166E+02  0.17292044957E+02  0.25969290726E+03  0.26169643643E+03  0.00000000000E+00 0.  1.
<scales pt_clust_3="14000.00000" pt_clust_4="113.62279" pt_clust_5="90.70620" pt_clust_6="32.32056"></scales>
<clustering>
<clus scale="   32.321">  1  6  2 -1</clus>
<clus scale="   90.706">  1  5  2 -1</clus>
<clus scale="  113.623">  1  4  2 -1</clus>
<clus scale="   32.321">  1  3  2 -1</clus>
</clustering>
</event>
<event>
 6    0  0.6132510E+002  0.8007740E+02  0.7546771E-02  0.1328832E+00
         21   -1    0    0  506  501  0.00000000000E+00  0.00000000000E+00  0.52867489742E+03  0.52867489742E+03  0.00000000000E+00 0. -1.
         21   -1    0    0  503  502 -0.00000000000E+00 -0.00000000000E+00 -0.33036869786E+03  0.33036869786E+03  0.00000000000E+00 0.  1.
         21    1    1    2  503  504 -0.17352216087E+02  0.64509665339E+02 -0.16528399306E+03  0.17827337066E+03  0.00000000000E+00 0.  1.
         21    1    1    2  504  505  0.97685771406E+02 -0.72829782507E+02 -0.12397598244E+03  0.17382960443E+03  0.00000000000E+00 0.  1.
         21    1    1    2  505  501 -0.58326702253E+02 -0.49383066138E+02  0.29336705909E+03  0.30315824708E+03  0.00000000000E+00 0. -1.
         21    1    1    2  506  502 -0.22006853066E+02  0.57703183305E+02  0.19419911596E+03  0.20378237310E+03  0.00000000000E+00 0. -1.
<scales pt_clust_3="68.01311" pt_clust_4="14000.00000" pt_clust_5="80.07740" pt_clust_6="61.75726"></scales>
<clustering>
<clus scale="   61.757">  1  6  2 -1</clus>
<clus scale="   68.013">  2  3  1 -1</clus>
<clus scale="   80.077">  1  5  2 -1</clus>
<clus scale="   61.757">  1  3  2 -1</clus>
</clustering>
</event>
<event>
 6    0  0.6132510E+002  0.9594120E+02  0.7546771E-02  0.1289070E+00
         21   -1    0    0  504  501  0.00000000000E+00  0.00000000000E+00  0.14756177880E+03  0.14756177880E+03  0.00000000000E+00 0.  1.
         21   -1    0    0  505  502 -0.00000000000E+00 -0.00000000000E+00 -0.65409543572E+03  0.65409543572E+03  0.00000000000E+00 0.  1.
         21    1    1    2  503  506  0.54449267226E+02  0.25972387661E+01 -0.53764763184E+02  0.76564470291E+02  0.00000000000E+00 0.  1.
         21    1    1    2  504  502 -0.96844719684E+02 -0.34843172717E+02 -0.51168075158E+03  0.52192924612E+03  0.00000000000E+00 0.  1.
         21    1    1    2  505  503 -0.39589383875E+02 -0.17232114616E+02 -0.44652208864E+02  0.62113483610E+02  0.00000000000E+00 0.  1.
         21    1    1    2  506  501  0.81984836333E+02  0.49478048567E+02  0.10356406670E+03  0.14105001450E+03  0.00000000000E+00 0.  1.
<scales pt_clust_3="50.15994" pt_clust_4="14000.00000" pt_clust_5="43.17714" pt_clust_6="95.94120"></scales>
<clustering>
<clus scale="   43.177">  2  5  1 -1</clus>
<clus scale="   50.160">  2  3  1 -1</clus>
<clus scale="   95.941">  1  6  2 -1</clus>
<clus scale="   95.941">  1  3  2 -1</clus>
</clustering>
</event>
<event>
 6    0  0.6132510E+002  0.7507402E+02  0.7546771E-02  0.1343642E+00
         21   -1    0    0  503  501  0.00000000000E+00  0.00000000000E+00  0.42960535032E+03  0.42960535032E+03  0.00000000000E+00 0. -1.
         21   -1    0    0  506  502 -0.00000000000E+00 -0.00000000000E+00 -0.12174075122E+03  0.12174075122E+03  0.00000000000E+00 0. -1.
         21    1    1    2  503  504  0.68185357124E+02 -0.35533944501E+02  0.32317919146E+03  0.33219978015E+03  0.00000000000E+00 0. -1.
         21    1    1    2  504  502  0.31247399296E+02  0.50671658254E+02  0.32824489122E+02  0.67981350378E+02  0.00000000000E+00 0. -1.
         21    1    1    2  505  501 -0.82047972207E+02 -0.52916517122E+02 -0.16742488367E+02  0.99057248318E+02  0.00000000000E+00 0. -1.
         21    1    1    2  506  505 -0.17384784214E+02  0.37778803368E+02 -0.31396593105E+02  0.52107722697E+02  0.00000000000E+00 0. -1.
<scales pt_clust_3="75.07402" pt_clust_4="65.03973" pt_clust_5="14000.00000" pt_clust_6="41.58688"></scales>
<clustering>
<clus scale="   41.587">  2  6  1 -1</clus>
<clus scale="   65.040">  2  4  1 -1</clus>
<clus scale="   75.074">  1  3  2 -1</clus>
<clus scale="   75.074">  1  3  2 -1</clus>
</clustering>
</event>
<event>
 6    0  0.6132510E+002  0.2358839E+03  0.7546771E-02  0.1122566E+00
         21   -1    0    0  504  501  0.00000000000E+00  0.00000000000E+00  0.39646824700E+03  0.39646824700E+03  0.00000000000E+00 0.  1.
         21   -1    0    0  501  502 -0.00000000000E+00 -0.00000000000E+00 -0.13634032797E+03  0.13634032797E+03  0.00000000000E+00 0. -1.
         21    1    1    2  503  505 -0.17873156847E+03 -0.89586741417E+01  0.12420542434E+03  0.21783530211E+03  0.00000000000E+00 0. -1.
         21    1    1    2  504  503 -0.31813433140E+02  0.47183313976E+02  0.41696780163E+02  0.70547722300E+02  0.00000000000E+00 0.  1.
         21    1    1    2  505  506  0.84271698034E+02  0.19598912188E+02  0.40211810983E+02  0.95408732257E+02  0.00000000000E+00 0.  1.
         21    1    1    2  506  502  0.12627330357E+03 -0.57823552021E+02  0.54013903540E+02  0.14901681831E+03  0.00000000000E+00 0.  1.
<scales pt_clust_3="55.96884" pt_clust_4="55.96884" pt_clust_5="56.22835" pt_clust_6="225.53351"></scales>
<clustering>
<clus scale="   55.969">  3  4 -1 -1</clus>
<clus scale="   56.228">  5  6 -1 -1</clus>
<clus scale="  225.534">  2  5  1 -1</clus>
<clus scale="  235.884">  1  3  2 -1</clus>
</clustering>
</event>
<event>
 6    0  0.6132510E+002  0.1027877E+03  0.7546771E-02  0.1274541E+00
         21   -1    0    0  503  501  0.00000000000E+00  0.00000000000E+00  0.71929346550E+02  0.71929346550E+02  0.00000000000E+00 0. -1.
         21   -1    0    0  505  502 -0.00000000000E+00 -0.00000000000E+00 -0.70667116263E+03  0.70667116263E+03  0.00000000000E+00 0. -1.
         21    1    1    2  503  504  0.32632332361E+02  0.32124910607E+02  0.11297032334E+02  0.47164625902E+02  0.00000000000E+00 0. -1.
         21    1    1    2  504  506  0.60093359364E+02  0.58500449535E+02 -0.24611014149E+03  0.26000714640E+03  0.00000000000E+00 0. -1.
         21    1    1    2  505  501 -0.12916565217E+03 -0.61197412913E+02 -0.11717323657E+03  0.18482006497E+03  0.00000000000E+00 0. -1.
         21    1    1    2  506  502  0.36439960448E+02 -0.29427947230E+02 -0.28275547036E+03  0.28660867191E+03  0.00000000000E+00 0. -1.
<scales pt_clust_3="45.79169" pt_clust_4="102.78766" pt_clust_5="14000.00000" pt_clust_6="47.11837"></scales>
<clustering>
<clus scale="   45.792">  1  3  2 -1</clus>
<clus scale="   47.118">  2  6  1 -1</clus>
<clus scale="  102.788">  2  4  1 -1</clus>
<clus scale="   45.792">  1  3  2 -1</clus>
</clustering>
</event>
<event>
 6    0  0.6132510E+002  0.1725428E+03  0.7546771E-02  0.1175222E+00
         21   -1    0    0  505  501  0.00000000000E+00  0.00000000000E+00  0.31579512601E+03  0.31579512601E+03  0.00000000000E+00 0.  1.
         21   -1    0    0  503  502 -0.00000000000E+00 -0.00000000000E+00 -0.29778199724E+03  0.29778199724E+03  0.00000000000E+00 0.  1.
         21    1    1    2  503  504  0.96752119265E+02  0.15182747909E+03 -0.14766451520E+03  0.23284622616E+03  0.00000000000E+00 0.  1.
         21    1    1    2  504  506 -0.60661197222E+02  0.44307216769E+01  0.58122277280E+02  0.84128540099E+02  0.00000000000E+00 0.  1.
         21    1    1    2  505  502 -0.68547052222E+02 -0.14572203136E+03 -0.22084810608E+02  0.16254644768E+03  0.00000000000E+00 0. -1.
         21    1    1    2  506  501  0.32456130178E+02 -0.10536169402E+02  0.12964017730E+03  0.13405590932E+03  0.00000000000E+00 0. -1.
<scales pt_clust_3="172.54278" pt_clust_4="48.11296" pt_clust_5="14000.00000" pt_clust_6="34.12347"></scales>
<clustering>
<clus scale="   34.123">  1  6  2 -1</clus>
<clus scale="   48.113">  1  4  2 -1</clus>
<clus scale="  172.543">  2  3  1 -1</clus>
<clus scale="   34.123">  1  3  2 -1</clus>
</clustering>
</event>
<event>
 6    0  0.6132510E+002  0.1022178E+03  0.7546771E-02  0.1275700E+00
         21   -1    0    0  503  501  0.00000000000E+00  0.00000000000E+00  0.14553835655E+03  0.14553835655E+03  0.00000000000E+00 0.  1.
         21   -1    0    0  505  502 -0.00000000000E+00 -0.00000000000E+00 -0.62009840766E+03  0.62009840766E+03  0.00000000000E+00 0.  1.
         21    1    1    2  503  502  0.49343207379E+02  0.73999669985E+01 -0.37080962278E+03  0.37415142385E+03  0.00000000000E+00 0.  1.
         21    1    1    2  504  506  0.35925581929E+02  0.84670313720E+02  0.31903319502E+02  0.97352612998E+02  0.00000000000E+00 0.  1.
         21    1    1    2  505  504 -0.13791970547E+03 -0.49499947234E+02 -0.16470662818E+03  0.22045490083E+03  0.00000000000E+00 0.  1.
         21    1    1    2  506  501  0.52650916162E+02 -0.42570333485E+02  0.29052880348E+02  0.73677826530E+02  0.00000000000E+00 0.  1.
<scales pt_clust_3="49.89501" pt_clust_4="102.21782" pt_clust_5="14000.00000" pt_clust_6="70.82367"></scales>
<clustering>
<clus scale="   49.895">  2  3  1 -1</clus>
<clus scale="   70.824">  1  6  2 -1</clus>
<clus scale="  102.218">  1  4  2 -1</clus>
<clus scale="   70.824">  1  3  2 -1</clus>
</clustering>
</event>
<event>
 6    0  0.6132510E+002  0.2114549E+03  0.7546771E-02  0.1140419E+00
         21   -1    0    0  506  501  0.00000000000E+00  0.00000000000E+00  0.11554679038E+04  0.11554679038E+04  0.00000000000E+00 0.  1.
         21   -1    0    0  503  502 -0.00000000000E+00 -0.00000000000E+00 -0.85749333727E+02  0.85749333727E+02  0.00000000000E+00 0.  1.
         21    1    1    2  503  504 -0.74830399555E+02 -0.36681357008E+01 -0.28844647604E+01  0.74975756442E+02  0.00000000000E+00 0.  1.
         21    1    1    2  504  501  0.23777297401E+03  0.93532452772E+02  0.47884810212E+03  0.54275207212E+03  0.00000000000E+00 0.  1.
         21    1    1    2  505  502 -0.10631008327E+03 -0.44834706222E+02  0.41236452466E+03  0.42820145479E+03  0.00000000000E+00 0.  1.
         21    1    1    2  506  505 -0.56632491179E+02 -0.45029610850E+02  0.18139040807E+03  0.19528795418E+03  0.00000000000E+00 0. -1.
<scales pt_clust_3="74.92025" pt_clust_4="207.71356" pt_clust_5="31.35981" pt_clust_6="31.35981"></scales>
<clustering>
<clus scale="   31.360">  5  6 -1 -1</clus>
<clus scale="   74.920">  2  3  1 -1</clus>
<clus scale="  207.714">  2  4  1 -1</clus>
<clus scale="  211.455">  1  3  2 -1</clus>
</clustering>
</event>
<event>
 6    0  0.6132510E+002  0.1710394E+03  0.7546771E-02  0.1176768E+00
         21   -1    0    0  506  501  0.00000000000E+00  0.00000000000E+00  0.33453214039E+03  0.33453214039E+03  0.00000000000E+00 0.  1.
         21   -1    0    0  504  502 -0.00000000000E+00 -0.00000000000E+00 -0.74988107834E+03  0.74988107834E+03  0.00000000000E+00 0.  1.
         21    1    1    2  503  502 -0.14122322862E+03 -0.34843457098E+02 -0.14080839680E+03  0.20244770044E+03  0.00000000000E+00 0.  1.
         21    1    1    2  504  505  0.11399966775E+03  0.16690733535E+03 -0.53866080112E+03  0.57533419984E+03  0.00000000000E+00 0.  1.
         21    1    1    2  505  501  0.26990738571E+02 -0.75772838789E+02  0.22259024017E+03  0.23667792057E+03  0.00000000000E+00 0.  1.
         21    1    1    2  506  503  0.23282229274E+00 -0.56291039458E+02  0.41530019795E+02  0.69953397871E+02  0.00000000000E+00 0.  1.
<scales pt_clust_3="171.03942" pt_clust_4="14000.00000" pt_clust_5="125.12688" pt_clust_6="56.29152"></scales>
<clustering>
<clus scale="   56.292">  1  6  2 -1</clus>
<clus scale="  125.127">  1  5  2 -1</clus>
<clus scale="  171.039">  1  3  2 -1</clus>
<clus scale="   56.292">  1  3  2 -1</clus>
</clustering>
</event>
<event>
 6    0  0.6132510E+002  0.2681855E+03  0.7546771E-02  0.1102323E+00
         21   -1    0    0  506  501  0.00000000000E+00  0.00000000000E+00  0.15590789664E+03  0.15590789664E+03  0.00000000000E+00 0. -1.
         21   -1    0    0  503  502 -0.00000000000E+00 -0.00000000000E+00 -0.77085057188E+03  0.77085057188E+03  0.00000000000E+00 0. -1.
         21    1    1    2  503  501 -0.56627541909E+02 -0.23891622220E+03 -0.16201893072E+03  0.29417303351E+03  0.00000000000E+00 0. -1.
         21    1    1    2  504  502  0.72506062001E+01 -0.50799422208E+02 -0.15423252970E+03  0.16254484245E+03  0.00000000000E+00 0. -1.
         21    1    1    2  505  504  0.55815337861E+02 -0.14903268492E+02 -0.56704333443E+02  0.80949618798E+02  0.00000000000E+00 0. -1.
         21    1    1    2  506  505 -0.64384021519E+01  0.30461891290E+03 -0.24198688137E+03  0.38909097377E+03  0.00000000000E+00 0. -1.
<scales pt_clust_3="14000.00000" pt_clust_4="51.31425" pt_clust_5="60.26464" pt_clust_6="268.18551"></scales>
<clustering>
<clus scale="   51.314">  2  4  1 -1</clus>
<clus scale="   60.265">  2  5  1 -1</clus>
<clus scale="  268.186">  2  6  1 -1</clus>
<clus scale="  268.186">  1  3  2 -1</clus>
</clustering>
</event>
<event>
 6    0  0.6132510E+002  0.1665366E+03  0.7546771E-02  0.1181508E+00
         21   -1    0    0  504  501  0.00000000000E+00  0.00000000000E+00  0.14562262907E+04  0.14562262907E+04  0.00000000000E+00 0.  1.
         21   -1    0    0  503  502 -0.00000000000E+00 -0.00000000000E+00 -0.74869021691E+03  0.74869021691E+03  0.00000000000E+00 0. -1.
         21    1    1    2  503  501  0.27750440078E+02 -0.88922321175E+02 -0.27015560377E+03  0.28576444211E+03  0.00000000000E+00 0. -1.
         21    1    1    2  504  506 -0.20848897124E+02  0.58469231921E+02  0.54004179141E+03  0.54359770424E+03  0.00000000000E+00 0.  1.
         21    1    1    2  505  502  0.95640869376E+02  0.73585615908E+01 -0.46095142052E+03  0.47082643978E+03  0.00000000000E+00 0. -1.
         21    1    1    2  506  505 -0.10254241233E+03  0.23094527663E+02  0.89860130662E+03  0.90472792142E+03  0.00000000000E+00 0.  1.
<scales pt_clust_3="93.15184" pt_clust_4="59.89789" pt_clust_5="147.17120" pt_clust_6="59.89789"></scales>
<clustering>
<clus scale="   59.898">  4  6 -1 -1</clus>
<clus scale="   93.152">  2  3  1 -1</clus>
<clus scale="  147.171">  2  5  1 -1</clus>
<clus scale="  166.537">  1  3  2 -1</clus>
</clustering>
</event>
<event>
 6    0  0.6132510E+002  0.7840573E+02  0.7546771E-02  0.1333638E+00
         21   -1    0    0  504  501  0.00000000000E+00  0.00000000000E+00  0.14935110125E+03  0.14935110125E+03  0.00000000000E+00 0.  1.
         21   -1    0    0  503  502 -0.00000000000E+00 -0.00000000000E+00 -0.19901849788E+03  0.19901849788E+03  0.00000000000E+00 0.  1.
         21    1    1    2  503  506  0.86122597830E+02 -0.46915653324E+02 -0.10034485022E+03  0.14031133008E+03  0.00000000000E+00 0.  1.
         21    1    1    2  504  505 -0.78281104965E+02  0.58742630101E+02  0.63237949954E+02  0.11652324360E+03  0.00000000000E+00 0.  1.
         21    1    1    2  505  502 -0.36255931156E+02  0.17312321231E+01 -0.36885141630E+02  0.51749428806E+02  0.00000000000E+00 0.  1.
         21    1    1    2  506  501  0.28414438291E+02 -0.13558208900E+02  0.24324645265E+02  0.39785596631E+02  0.00000000000E+00 0.  1.
<scales pt_clust_3="14000.00000" pt_clust_4="78.40573" pt_clust_5="34.46656" pt_clust_6="31.48341"></scales>
<clustering>
<clus scale="   31.483">  1  6  2 -1</clus>
<clus scale="   34.467">  2  5  1 -1</clus>
<clus scale="   78.406">  1  4  2 -1</clus>
<clus scale="   31.483">  1  3  2 -1</clus>
</clustering>
</event>
<event>
 6    0  0.6132510E+002  0.1136753E+03  0.7546771E-02  0.1253911E+00
         21   -1    0    0  505  501  0.00000000000E+00  0.00000000000E+00  0.35268694906E+03  0.35268694906E+03  0.00000000000E+00 0.  1.
         21   -1    0    0  504  502 -0.00000000000E+00 -0.00000000000E+00 -0.38082388314E+03  0.38082388314E+03  0.00000000000E+00 0.  1.
         21    1    1    2  503  501  0.49973364562E+02 -0.77679124241E+02  0.29760223354E+03  0.31160627869E+03  0.00000000000E+00 0.  1.
         21    1    1    2  504  503 -0.11113741771E+03  0.22972344384E+02 -0.18116428224E+03  0.21377500177E+03  0.00000000000E+00 0.  1.
         21    1    1    2  505  506  0.41536039617E+02  0.39913922681E+01  0.11142554560E+02  0.43189470030E+02  0.00000000000E+00 0. -1.
         21    1    1    2  506  502  0.19628013531E+02  0.50715387589E+02 -0.15571743995E+03  0.16494008172E+03  0.00000000000E+00 0.  1.
<scales pt_clust_3="113.67530" pt_clust_4="14000.00000" pt_clust_5="41.72737" pt_clust_6="54.64881"></scales>
<clustering>
<clus scale="   41.727">  1  5  2 -1</clus>
<clus scale="   54.649">  2  6  1 -1</clus>
<clus scale="  113.675">  1  3  2 -1</clus>
<clus scale="   41.727">  1  3  2 -1</clus>
</clustering>
</event>
<event>
 6    0  0.6132510E+002  0.7329632E+02  0.7546771E-02  0.1349229E+00
         21   -1    0    0  503  501  0.00000000000E+00  0.00000000000E+00  0.24379825511E+03  0.24379825511E+03  0.00000000000E+00 0.  1.
         21   -1    0    0  506  502 -0.00000000000E+00 -0.00000000000E+00 -0.10478035075E+03  0.10478035075E+03  0.00000000000E+00 0.  1.
         21    1    1    2  503  505  0.56198504860E+02  0.40401448309E+02  0.13651547400E+03  0.15305888937E+03  0.00000000000E+00 0.  1.
         21    1    1    2  504  502  0.26627942384E+02 -0.31694432674E+02 -0.18977306782E+02  0.45538143911E+02  0.00000000000E+00 0. -1.
         21    1    1    2  505  504 -0.96427937467E+02  0.30771171607E+02 -0.35825641559E+01  0.10128201663E+03  0.00000000000E+00 0.  1.
         21    1    1    2  506  501  0.13601490223E+02 -0.39478187242E+02  0.25062301299E+02  0.48699555959E+02  0.00000000000E+00 0. -1.
<scales pt_clust_3="14000.00000" pt_clust_4="41.39546" pt_clust_5="73.29632" pt_clust_6="48.11337"></scales>
<clustering>
<clus scale="   41.395">  2  4  1 -1</clus>
<clus scale="   48.113">  1  6  2 -1</clus>
<clus scale="   73.296">  2  5  1 -1</clus>
<clus scale="   48.113">  1  3  2 -1</clus>
</clustering>
</event>
<event>
 6    0  0.6132510E+002  0.1358632E+03  0.7546771E-02  0.1219006E+00
         21   -1    0    0  504  501  0.00000000000E+00  0.00000000000E+00  0.14598437190E+04  0.14598437190E+04  0.00000000000E+00 0.  1.
         21   -1    0    0  505  502 -0.00000000000E+00 -0.00000000000E+00 -0.17204860391E+03  0.17204860391E+03  0.00000000000E+00 0.  1.
         21    1    1    2  503  506 -0.47291409623E+02  0.11413995189E+03  0.12374419894E+04  0.12435944207E+04  0.00000000000E+00 0.  1.
         21    1    1    2  504  502 -0.35290959355E+02 -0.12494757433E+03 -0.11800391382E+03  0.17544877263E+03  0.00000000000E+00 0.  1.
         21    1    1    2  505  503  0.37182558011E+02 -0.12420356932E+02  0.24471228596E+01  0.39278445703E+02  0.00000000000E+00 0. -1.
         21    1    1    2  506  501  0.45399810968E+02  0.23227979369E+02  0.16590991659E+03  0.17357068383E+03  0.00000000000E+00 0.  1.
<scales pt_clust_3="135.86323" pt_clust_4="14000.00000" pt_clust_5="39.20214" pt_clust_6="51.68584"></scales>
<clustering>
<clus scale="   39.202">  2  5  1 -1</clus>
<clus scale="   51.686">  1  6  2 -1</clus>
<clus scale="  135.863">  1  3  2 -1</clus>
<clus scale="   51.686">  1  3  2 -1</clus>
</clustering>
</event>
<event>
 6    0  0.6132510E+002  0.9920852E+02  0.7546771E-02  0.1281969E+00
         21   -1    0    0  505  501  0.00000000000E+00  0.00000000000E+00  0.24318430139E+03  0.24318430139E+03  0.00000000000E+00 0.  1.
         21   -1    0    0  501  502 -0.00000000000E+00 -0.00000000000E+00 -0.14358622338E+04  0.14358622338E+04  0.00000000000E+00 0. -1.
         21    1    1    2  503  504 -0.15482859026E+02 -0.42702416118E+02  0.77675845794E+02  0.89981955334E+02  0.00000000000E+00 0.  1.
         21    1    1    2  504  506  0.92241758806E+02  0.85364529075E+02  0.72844356444E+02  0.14526508582E+03  0.00000000000E+00 0.  1.
         21    1    1    2  505  503  0.16794538634E+02 -0.42902425586E+02  0.37825468857E+02  0.59610743523E+02  0.00000000000E+00 0.  1.
         21    1    1    2  506  502 -0.93553438413E+02  0.24031262891E+00 -0.13810236036E+04  0.13841887506E+04  0.00000000000E+00 0. -1.
<scales pt_clust_3="41.02959" pt_clust_4="90.19323" pt_clust_5="41.02959" pt_clust_6="93.55375"></scales>
<clustering>
<clus scale="   41.030">  3  5 -1 -1</clus>
<clus scale="   93.554">  2  6  1 -1</clus>
<clus scale="   90.193">  2  4  1 -1</clus>
<clus scale="   99.209">  1  3  2 -1</clus>
</clustering>
</event>
<event>
 6    0  0.6132510E+002  0.8494695E+02  0.7546771E-02  0.1315571E+00
         21   -1    0    0  503  501  0.00000000000E+00  0.00000000000E+00  0.12142906644E+04  0.12142906644E+04  0.00000000000E+00 0.  1.
         21   -1    0    0  504  502 -0.00000000000E+00 -0.00000000000E+00 -0.19198999659E+02  0.19198999659E+02  0.00000000000E+00 0.  1.
         21    1    1    2  503  505  0.29464864642E+02 -0.33438298338E+02  0.31139723161E+03  0.31457039577E+03  0.00000000000E+00 0. -1.
         21    1    1    2  504  506 -0.84937090941E+01 -0.49241167583E+02  0.11858192489E+03  0.12867986863E+03  0.00000000000E+00 0.  1.
         21    1    1    2  505  502  0.74452163002E+02  0.11215213976E+02  0.23010015640E+03  0.24210532331E+03  0.00000000000E+00 0.  1.
         21    1    1    2  506  501 -0.95423318549E+02  0.71464251945E+02  0.53501235181E+03  0.54813407631E+03  0.00000000000E+00 0.  1.
<scales pt_clust_3="44.56790" pt_clust_4="54.01165" pt_clust_5="84.94695" pt_clust_6="14000.00000"></scales>
<clustering>
<clus scale="   44.568">  1  3  2 -1</clus>
<clus scale="   54.012">  2  4  1 -1</clus>
<clus scale="   84.947">  2  5  1 -1</clus>
<clus scale="   44.568">  1  3  2 -1</clus>
</clustering>
</event>
<event>
 6    0  0.6132510E+002  0.9754620E+02  0.7546771E-02  0.1285542E+00
         21   -1    0    0  505  501  0.00000000000E+00  0.00000000000E+00  0.37259411943E+03  0.37259411943E+03  0.00000000000E+00 0. -1.
         21   -1    0    0  503  502 -0.00000000000E+00 -0.00000000000E+00 -0.20426082865E+03  0.20426082865E+03  0.00000000000E+00 0. -1.
         21    1    1    2  503  506 -0.98269920097E+02  0.53226292468E+02 -0.40385714826E+02  0.11883190383E+03  0.00000000000E+00 0. -1.
         21    1    1    2  504  502  0.69756298904E+02 -0.59220557362E+02 -0.93442375674E+02  0.13078414744E+03  0.00000000000E+00 0. -1.
         21    1    1    2  505  504  0.22126573233E+02 -0.51835643414E+02  0.21629542725E+03  0.22351785392E+03  0.00000000000E+00 0. -1.
         21    1    1    2  506  501  0.63870479602E+01  0.57829908308E+02  0.85865954023E+02  0.10372104288E+03  0.00000000000E+00 0. -1.
<scales pt_clust_3="14000.00000" pt_clust_4="97.54620" pt_clust_5="56.36062" pt_clust_6="32.60100"></scales>
<clustering>
<clus scale="   56.361">  1  5  2 -1</clus>
<clus scale="   32.601">  1  6  2 -1</clus>
<clus scale="   97.546">  2  4  1 -1</clus>
<clus scale="   56.361">  1  3  2 -1</clus>
</clustering>
</event>
<event>
 6    0  0.6132510E+002  0.1693795E+03  0.7546771E-02  0.1178496E+00
         21   -1    0    0  506  501  0.00000000000E+00  0.00000000000E+00  0.28186759171E+02  0.28186759171E+02  0.00000000000E+00 0.  1.
         21   -1    0    0  503  502 -0.00000000000E+00 -0.00000000000E+00 -0.25947982308E+04  0.25947982308E+04  0.00000000000E+00 0.  1.
         21    1    1    2  503  504  0.18633833652E+03  0.50336359915E+02 -0.12028559203E+04  0.12182438548E+04  0.00000000000E+00 0.  1.
         21    1    1    2  504  505 -0.74184514328E+01 -0.33051753203E+02 -0.77597157727E+02  0.84668593344E+02  0.00000000000E+00 0.  1.
         21    1    1    2  505  501 -0.20883130414E+02 -0.41259884573E+02 -0.33122024973E+02  0.56881910562E+02  0.00000000000E+00 0.  1.
         21    1    1    2  506  502 -0.15803675468E+03  0.23975277861E+02 -0.12530363687E+04  0.12631906313E+04  0.00000000000E+00 0.  1.
<scales pt_clust_3="169.37952" pt_clust_4="32.64226" pt_clust_5="88.19188" pt_clust_6="14000.00000"></scales>
<clustering>
<clus scale="   32.642">  4  5 -1 -1</clus>
<clus scale="   88.192">  1  4  2 -1</clus>
<clus scale="  169.380">  1  3  2 -1</clus>
<clus scale="   88.192">  1  3  2 -1</clus>
</clustering>
</event>
<event>
 6    0  0.6697414E+002  0.1339559E+03  0.7546771E-02  0.1221701E+00
         21   -1    0    0  505  501  0.00000000000E+00  0.00000000000E+00  0.19673546136E+03  0.19673546136E+03  0.00000000000E+00 0.  1.
         21   -1    0    0  503  502 -0.00000000000E+00 -0.00000000000E+00 -0.89300117633E+03  0.89300117633E+03  0.00000000000E+00 0.  1.
         21    1    1    2  503  501 -0.30415678942E+02 -0.83146370909E+01 -0.17562152155E+01  0.31580547927E+02  0.00000000000E+00 0. -1.
         21    1    1    2  504  506 -0.27256314404E+02  0.53005995315E+02  0.98012716948E+02  0.11471283667E+03  0.00000000000E+00 0.  1.
         21    1    1    2  505  504 -0.53183767239E+02 -0.36435416812E+01  0.61437237551E+02  0.81340780987E+02  0.00000000000E+00 0.  1.
         21    1    1    2  506  502  0.11085576059E+03 -0.41047816543E+02 -0.85395945425E+03  0.86210247210E+03  0.00000000000E+00 0.  1.
<scales pt_clust_3="31.53168" pt_clust_4="63.85930" pt_clust_5="63.85930" pt_clust_6="117.63801"></scales>
<clustering>
<clus scale="   31.532">  1  3  2 -1</clus>
<clus scale="   63.859">  4  5 -1 -1</clus>
<clus scale="  117.638">  2  6  1 -1</clus>
<clus scale="   31.532">  1  3  2 -1</clus>
</clustering>
</event>
<event>
 6    0  0.6132510E+002  0.7076259E+02  0.7546771E-02  0.1357519E+00
         21   -1    0    0  503  501  0.00000000000E+00  0.00000000000E+00  0.19165472618E+04  0.19165472618E+04  0.00000000000E+00 0.  1.
         21   -1    0    0  505  502 -0.00000000000E+00 -0.00000000000E+00 -0.28467344494E+02  0.28467344494E+02  0.00000000000E+00 0.  1.
         21    1    1    2  503  502  0.20227183027E+02  0.31017700875E+02  0.10562366015E+03  0.11192673624E+03  0.00000000000E+00 0.  1.
         21    1    1    2  504  506 -0.10972646753E+03  0.53713274663E+02  0.30143626964E+03  0.32525196110E+03  0.00000000000E+00 0.  1.
         21    1    1    2  505  504  0.34192169856E+02 -0.46182362470E+02  0.52834680802E+02  0.78060352153E+02  0.00000000000E+00 0.  1.
         21    1    1    2  506  501  0.55307114643E+02 -0.38548613068E+02  0.14281853067E+04  0.14297755568E+04  0.00000000000E+00 0.  1.
<scales pt_clust_3="37.03021" pt_clust_4="14000.00000" pt_clust_5="53.88939" pt_clust_6="70.76259"></scales>
<clustering>
<clus scale="   37.030">  2  3  1 -1</clus>
<clus scale="   53.889">  2  5  1 -1</clus>
<clus scale="   70.763">  1  6  2 -1</clus>
<clus scale="   70.763">  1  3  2 -1</clus>
</clustering>
</event>
<event>
 6    0  0.6132510E+002  0.1087301E+03  0.7546771E-02  0.1262940E+00
         21   -1    0    0  504  501  0.00000000000E+00  0.00000000000E+00  0.69134145111E+03  0.69134145111E+03  0.00000000000E+00 0. -1.
         21   -1    0    0  505  502 -0.00000000000E+00 -0.00000000000E+00 -0.21197921839E+03  0.21197921839E+03  0.00000000000E+00 0.  1.
         21    1    1    2  503  501  0.15253131089E+02 -0.11199021045E+03  0.58839991621E+03  0.59915684644E+03  0.00000000000E+00 0. -1.
         21    1    1    2  504  502 -0.31829358600E+02  0.84766731840E+02  0.56150037995E+02  0.10654263777E+03  0.00000000000E+00 0.  1.
         21    1    1    2  505  506 -0.12772694570E+02 -0.34520083369E+02 -0.82457733451E+02  0.90299810012E+02  0.00000000000E+00 0.  1.
         21    1    1    2  506  503  0.29348922082E+02  0.61743561981E+02 -0.82729988033E+02  0.10732137529E+03  0.00000000000E+00 0.  1.
<scales pt_clust_3="14000.00000" pt_clust_4="108.73008" pt_clust_5="36.80731" pt_clust_6="40.70352"></scales>
<clustering>
<clus scale="   36.807">  2  5  1 -1</clus>
<clus scale="   40.704">  2  6  1 -1</clus>
<clus scale="  108.730">  2  4  1 -1</clus>
<clus scale="  108.730">  1  3  2 -1</clus>
</clustering>
</event>
<event>
 6    0  0.6132510E+002  0.7716586E+02  0.7546771E-02  0.1337292E+00
         21   -1    0    0  506  501  0.00000000000E+00  0.00000000000E+00  0.19805357360E+03  0.19805357360E+03  0.00000000000E+00 0.  1.
         21   -1    0    0  504  502 -0.00000000000E+00 -0.00000000000E+00 -0.11291262763E+04  0.11291262763E+04  0.00000000000E+00 0.  1.
         21    1    1    2  503  502 -0.81306416865E+02  0.21515929267E+02 -0.82480161824E+03  0.82907863203E+03  0.00000000000E+00 0.  1.
         21    1    1    2  504  501  0.52096145525E+02 -0.16172102142E+02 -0.24152684757E+03  0.24761010351E+03  0.00000000000E+00 0.  1.
         21    1    1    2  505  503 -0.40237811729E+02  0.37618409196E+02 -0.32470005586E+02  0.63941594178E+02  0.00000000000E+00 0. -1.
         21    1    1    2  506  505  0.69448083070E+02 -0.42962236321E+02  0.16772576869E+03  0.18654952017E+03  0.00000000000E+00 0.  1.
<scales pt_clust_3="33.22535" pt_clust_4="54.54856" pt_clust_5="77.16586" pt_clust_6="14000.00000"></scales>
<clustering>
<clus scale="   54.549">  2  4  1 -1</clus>
<clus scale="   33.225">  2  3  1 -1</clus>
<clus scale="   77.166">  2  5  1 -1</clus>
<clus scale="   77.166">  1  3  2 -1</clus>
</clustering>
</event>
<event>
 6    0  0.6132510E+002  0.9845109E+02  0.7546771E-02  0.1283587E+00
         21   -1    0    0  504  501  0.00000000000E+00  0.00000000000E+00  0.70301509545E+03  0.70301509545E+03  0.00000000000E+00 0. -1.
         21   -1    0    0  505  502 -0.00000000000E+00 -0.00000000000E+00 -0.14955320949E+03  0.14955320949E+03  0.00000000000E+00 0. -1.
         21    1    1    2  503  501  0.80413074432E+02  0.36272683597E+02  0.29462048082E+03  0.30754381450E+03  0.00000000000E+00 0. -1.
         21    1    1    2  504  506 -0.35453345068E+01  0.46344734814E+02  0.30730387771E+03  0.31079909443E+03  0.00000000000E+00 0.  1.
         21    1    1    2  505  503 -0.99192066978E+02 -0.76850635707E+01 -0.99618084806E+02  0.14079023110E+03  0.00000000000E+00 0. -1.
         21    1    1    2  506  502  0.22324327053E+02 -0.74932354841E+02  0.51155612225E+02  0.93435164914E+02  0.00000000000E+00 0. -1.
<scales pt_clust_3="98.45109" pt_clust_4="46.48014" pt_clust_5="14000.00000" pt_clust_6="69.87413"></scales>
<clustering>
<clus scale="   46.480">  1  4  2 -1</clus>
<clus scale="   69.874">  1  6  2 -1</clus>
<clus scale="   98.451">  1  3  2 -1</clus>
<clus scale="   46.480">  1  3  2 -1</clus>
</clustering>
</event>
<event>
 6    0  0.6132510E+002  0.9578998E+02  0.7546771E-02  0.1289407E+00
         21   -1    0    0  503  501  0.00000000000E+00  0.00000000000E+00  0.14529265067E+03  0.14529265067E+03  0.00000000000E+00 0. -1.
         21   -1    0    0  505  502 -0.00000000000E+00 -0.00000000000E+00 -0.71507434877E+03  0.71507434877E+03  0.00000000000E+00 0. -1.
         21    1    1    2  503  506 -0.39977445043E+02 -0.27859341861E+02  0.24010531371E+02  0.54321677604E+02  0.00000000000E+00 0. -1.
         21    1    1    2  504  501 -0.24678008413E+02  0.10299467381E+03  0.69092970130E+02  0.12645451931E+03  0.00000000000E+00 0. -1.
         21    1    1    2  505  504  0.57513740237E+02 -0.25667477502E+02 -0.57538723223E+03  0.57882390822E+03  0.00000000000E+00 0. -1.
         21    1    1    2  506  502  0.71417132190E+01 -0.49467854452E+02 -0.87497967375E+02  0.10076689430E+03  0.00000000000E+00 0. -1.
<scales pt_clust_3="48.72719" pt_clust_4="14000.00000" pt_clust_5="95.78998" pt_clust_6="51.41948"></scales>
<clustering>
<clus scale="   48.727">  1  3  2 -1</clus>
<clus scale="   51.419">  2  6  1 -1</clus>
<clus scale="   95.790">  2  5  1 -1</clus>
<clus scale="   48.727">  1  3  2 -1</clus>
</clustering>
</event>
<event>
 6    0  0.6132510E+002  0.7102216E+02  0.7546771E-02  0.1356651E+00
         21   -1    0    0  503  501  0.00000000000E+00  0.00000000000E+00  0.14830697391E+04  0.14830697391E+04  0.00000000000E+00 0.  1.
         21   -1    0    0  504  502 -0.00000000000E+00 -0.00000000000E+00 -0.90770275785E+02  0.90770275785E+02  0.00000000000E+00 0.  1.
         21    1    1    2  503  505 -0.38804294891E+02 -0.13989723461E+02  0.38021186696E+03  0.38244287082E+03  0.00000000000E+00 0.  1.
         21    1    1    2  504  506 -0.52604691052E+02 -0.23801469764E+02  0.53064023896E+02  0.78419092801E+02  0.00000000000E+00 0.  1.
         21    1    1    2  505  502  0.12468775296E+03  0.49806562828E+02 -0.17863474539E+02  0.13545048233E+03  0.00000000000E+00 0.  1.
         21    1    1    2  506  501 -0.33278767020E+02 -0.12015369602E+02  0.97688704697E+03  0.97752756891E+03  0.00000000000E+00 0.  1.
<scales pt_clust_3="71.02216" pt_clust_4="62.32381" pt_clust_5="14000.00000" pt_clust_6="35.38143"></scales>
<clustering>
<clus scale="   35.381">  1  6  2 -1</clus>
<clus scale="   62.324">  2  4  1 -1</clus>
<clus scale="   71.022">  1  3  2 -1</clus>
<clus scale="   35.381">  1  3  2 -1</clus>
</clustering>
</event>
<event>
 6    0  0.6132510E+002  0.1336629E+03  0.7546771E-02  0.1222120E+00
         21   -1    0    0  506  501  0.00000000000E+00  0.00000000000E+00  0.17390805204E+03  0.17390805204E+03  0.00000000000E+00 0. -1.
         21   -1    0    0  503  502 -0.00000000000E+00 -0.00000000000E+00 -0.11251264944E+04  0.11251264944E+04  0.00000000000E+00 0. -1.
         21    1    1    2  503  505  0.90712688618E+02  0.98795270638E+02 -0.10127929523E+04  0.10216353858E+04  0.00000000000E+00 0. -1.
         21    1    1    2  504  502 -0.84723201383E+02  0.17780634793E+02 -0.29402734459E+01  0.86618803006E+02  0.00000000000E+00 0. -1.
         21    1    1    2  505  501 -0.55751827382E+02 -0.11710316448E+03  0.44086556195E+02  0.13698555334E+03  0.00000000000E+00 0. -1.
         21    1    1    2  506  504  0.49762340148E+02  0.52725905038E+00  0.20428227183E+02  0.53794804256E+02  0.00000000000E+00 0. -1.
<scales pt_clust_3="14000.00000" pt_clust_4="71.78183" pt_clust_5="133.66294" pt_clust_6="49.76513"></scales>
<clustering>
<clus scale="   49.765">  1  6  2 -1</clus>
<clus scale="   71.782">  1  4  2 -1</clus>
<clus scale="  133.663">  1  5  2 -1</clus>
<clus scale="   49.765">  1  3  2 -1</clus>
</clustering>
</event>
<event>
 6    0  0.6132510E+002  0.1157515E+03  0.7546771E-02  0.1250275E+00
         21   -1    0    0  505  501  0.00000000000E+00  0.00000000000E+00  0.41130389194E+03  0.41130389194E+03  0.00000000000E+00 0.  1.
         21   -1    0    0  503  502 -0.00000000000E+00 -0.00000000000E+00 -0.73931441085E+02  0.73931441085E+02  0.00000000000E+00 0.  1.
         21    1    1    2  503  506 -0.14160318393E+02  0.54011024424E+02  0.42178249582E+02  0.69976496869E+02  0.00000000000E+00 0.  1.
         21    1    1    2  504  501  0.13219798461E+02  0.55656818738E+02  0.15651086232E+03  0.16663761450E+03  0.00000000000E+00 0.  1.
         21    1    1    2  505  502 -0.26627064635E+02 -0.14701585749E+03  0.68229739730E+02  0.16424968891E+03  0.00000000000E+00 0.  1.
         21    1    1    2  506  504  0.27567584567E+02  0.37348014328E+02  0.70453599219E+02  0.84371532735E+02  0.00000000000E+00 0.  1.
<scales pt_clust_3="55.83642" pt_clust_4="30.93375" pt_clust_5="110.54044" pt_clust_6="30.93375"></scales>
<clustering>
<clus scale="   30.934">  4  6 -1 -1</clus>
<clus scale="   55.836">  2  3  1 -1</clus>
<clus scale="  110.540">  2  5  1 -1</clus>
<clus scale="  115.751">  1  3  2 -1</clus>
</clustering>
</event>
<event>
 6    0  0.6132510E+002  0.1028780E+03  0.7546771E-02  0.1274358E+00
         21   -1    0    0  504  501  0.00000000000E+00  0.00000000000E+00  0.71247349572E+03  0.71247349572E+03  0.00000000000E+00 0.  1.
         21   -1    0    0  505  502 -0.00000000000E+00 -0.00000000000E+00 -0.10277090791E+03  0.10277090791E+03  0.00000000000E+00 0. -1.
         21    1    1    2  503  501 -0.20482607003E+02 -0.55163446090E+02  0.41859416636E+03  0.42270985213E+03  0.00000000000E+00 0.  1.
         21    1    1    2  504  506 -0.36506871195E+02  0.30158135558E+02  0.16958291337E+03  0.17606995567E+03  0.00000000000E+00 0.  1.
         21    1    1    2  505  503  0.29485430477E+02 -0.89546937760E+02  0.28386018984E+02  0.98457151829E+02  0.00000000000E+00 0. -1.
         21    1    1    2  506  502  0.27504047720E+02  0.11455224829E+03 -0.68605109098E+01  0.11800744400E+03  0.00000000000E+00 0. -1.
<scales pt_clust_3="58.28496" pt_clust_4="47.35256" pt_clust_5="102.87802" pt_clust_6="14000.00000"></scales>
<clustering>
<clus scale="   47.353">  1  4  2 -1</clus>
<clus scale="   58.285">  1  3  2 -1</clus>
<clus scale="  102.878">  1  5  2 -1</clus>
<clus scale="   47.353">  1  3  2 -1</clus>
</clustering>
</event>
<event>
 6    0  0.6132510E+002  0.9533743E+02  0.7546771E-02  0.1290418E+00
         21   -1    0    0  506  501  0.00000000000E+00  0.00000000000E+00  0.16100602242E+04  0.16100602242E+04  0.00000000000E+00 0.  1.
         21   -1    0    0  504  502 -0.00000000000E+00 -0.00000000000E+00 -0.94717515665E+02  0.94717515665E+02  0.00000000000E+00 0.  1.
         21    1    1    2  503  502 -0.39135200315E+02 -0.34644138595E+02  0.94172178987E+01  0.53108043041E+02  0.00000000000E+00 0.  1.
         21    1    1    2  504  501 -0.23245160186E+02  0.88896209263E+02 -0.25158455129E+02  0.95267105330E+02  0.00000000000E+00 0.  1.
         21    1    1    2  505  503 -0.34923057098E+02 -0.57121089432E+02  0.90704953551E+02  0.11273787018E+03  0.00000000000E+00 0.  1.
         21    1    1    2  506  505  0.97303417599E+02  0.28690187636E+01  0.14403789922E+04  0.14436647213E+04  0.00000000000E+00 0.  1.
<scales pt_clust_3="52.26644" pt_clust_4="95.33743" pt_clust_5="74.54143" pt_clust_6="14000.00000"></scales>
<clustering>
<clus scale="   52.266">  2  3  1 -1</clus>
<clus scale="   74.541">  2  5  1 -1</clus>
<clus scale="   95.337">  2  4  1 -1</clus>
<clus scale="   95.337">  1  3  2 -1</clus>
</clustering>
</event>
<event>
 6    0  0.6132510E+002  0.1006795E+03  0.7546771E-02  0.1278874E+00
         21   -1    0    0  504  501  0.00000000000E+00  0.00000000000E+00  0.40750035027E+03  0.40750035027E+03  0.00000000000E+00 0.  1.
         21   -1    0    0  506  502 -0.00000000000E+00 -0.00000000000E+00 -0.33371728446E+03  0.33371728446E+03  0.00000000000E+00 0.  1.
         21    1    1    2  503  502  0.88017368112E+02  0.10016306222E+03  0.10693211183E+02  0.13376860950E+03  0.00000000000E+00 0.  1.
         21    1    1    2  504  505 -0.11575787148E+02 -0.59440861934E+02  0.13737455162E+03  0.15012988493E+03  0.00000000000E+00 0.  1.
         21    1    1    2  505  503 -0.70422315348E+02 -0.87708234042E+01  0.18388828279E+03  0.19710690092E+03  0.00000000000E+00 0.  1.
         21    1    1    2  506  501 -0.60192656171E+01 -0.31951376877E+02 -0.25817297977E+03  0.26021223939E+03  0.00000000000E+00 0.  1.
<scales pt_clust_3="14000.00000" pt_clust_4="63.33991" pt_clust_5="100.67947" pt_clust_6="32.51341"></scales>
<clustering>
<clus scale="   32.513">  2  6  1 -1</clus>
<clus scale="   63.340">  1  4  2 -1</clus>
<clus scale="  100.679">  1  5  2 -1</clus>
<clus scale="   63.340">  1  3  2 -1</clus>
</clustering>
</event>
<event>
 6    0  0.6132510E+002  0.9580499E+02  0.7546771E-02  0.1289373E+00
         21   -1    0    0  505  501  0.00000000000E+00  0.00000000000E+00  0.87196150498E+03  0.87196150498E+03  0.00000000000E+00 0. -1.
         21   -1    0    0  504  502 -0.00000000000E+00 -0.00000000000E+00 -0.15723786500E+03  0.15723786500E+03  0.00000000000E+00 0.  1.
         21    1    1    2  503  501 -0.79751843090E+02  0.40459002209E+02  0.14084088993E+03  0.16683358059E+03  0.00000000000E+00 0.  1.
         21    1    1    2  504  503  0.39837996487E+01  0.39995823879E+02  0.48995586191E+02  0.63372739041E+02  0.00000000000E+00 0.  1.
         21    1    1    2  505  506  0.46633050776E+02 -0.90541151608E+02  0.65622698143E+03  0.66408297126E+03  0.00000000000E+00 0. -1.
         21    1    1    2  506  502  0.29134992665E+02  0.10086325519E+02 -0.13133981757E+03  0.13491007909E+03  0.00000000000E+00 0.  1.
<scales pt_clust_3="95.80499" pt_clust_4="44.83031" pt_clust_5="14000.00000" pt_clust_6="30.83151"></scales>
<clustering>
<clus scale="   30.832">  2  6  1 -1</clus>
<clus scale="   44.830">  2  4  1 -1</clus>
<clus scale="   95.805">  2  3  1 -1</clus>
<clus scale="   95.805">  1  3  2 -1</clus>
</clustering>
</event>
<event>
 6    0  0.6132510E+002  0.1254673E+03  0.7546771E-02  0.1234341E+00
         21   -1    0    0  504  501  0.00000000000E+00  0.00000000000E+00  0.72197009604E+03  0.72197009604E+03  0.00000000000E+00 0.  1.
         21   -1    0    0  503  502 -0.00000000000E+00 -0.00000000000E+00 -0.27968493575E+02  0.27968493575E+02  0.00000000000E+00 0.  1.
         21    1    1    2  503  505 -0.91285247875E+01 -0.79031917791E+02  0.27282890861E+03  0.28419181440E+03  0.00000000000E+00 0.  1.
         21    1    1    2  504  506 -0.39651824675E+02  0.12954856724E+01  0.11437046860E+03  0.12105597701E+03  0.00000000000E+00 0.  1.
         21    1    1    2  505  501 -0.47299354206E+01 -0.31426401962E+02  0.37076286647E+02  0.48832796980E+02  0.00000000000E+00 0.  1.
         21    1    1    2  506  502  0.53510284883E+02  0.10916283408E+03  0.26972593860E+03  0.29585800122E+03  0.00000000000E+00 0.  1.
<scales pt_clust_3="31.41819" pt_clust_4="39.67298" pt_clust_5="31.41819" pt_clust_6="115.19978"></scales>
<clustering>
<clus scale="   31.418">  3  5 -1 -1</clus>
<clus scale="   39.673">  1  4  2 -1</clus>
<clus scale="  115.200">  2  6  1 -1</clus>
<clus scale="   39.673">  1  3  2 -1</clus>
</clustering>
</event>
<event>
 6    0  0.6132510E+002  0.7943616E+02  0.7546771E-02  0.1330659E+00
         21   -1    0    0  506  501  0.00000000000E+00  0.00000000000E+00  0.43792407384E+03  0.43792407384E+03  0.00000000000E+00 0.  1.
         21   -1    0    0  505  502 -0.00000000000E+00 -0.00000000000E+00 -0.10694960127E+03  0.10694960127E+03  0.00000000000E+00 0. -1.
         21    1    1    2  503  501  0.11988912532E+02 -0.59561797042E+02  0.98274732708E+02  0.11553901843E+03  0.00000000000E+00 0. -1.
         21    1    1    2  504  503 -0.80686831731E+02 -0.30021667980E+02  0.13985778548E+02  0.87219650106E+02  0.00000000000E+00 0. -1.
         21    1    1    2  505  504 -0.12813823818E+01  0.63508478701E+02 -0.38500809966E+02  0.74278403158E+02  0.00000000000E+00 0. -1.
         21    1    1    2  506  502  0.69979301581E+02  0.26074986322E+02  0.25721477128E+03  0.26783660341E+03  0.00000000000E+00 0.  1.
<scales pt_clust_3="60.75641" pt_clust_4="14000.00000" pt_clust_5="60.29297" pt_clust_6="79.43616"></scales>
<clustering>
<clus scale="   60.756">  1  3  2 -1</clus>
<clus scale="   60.293">  2  5  1 -1</clus>
<clus scale="   79.436">  1  6  2 -1</clus>
<clus scale="   60.756">  1  3  2 -1</clus>
</clustering>
</event>
<event>
 6    0  0.6132510E+002  0.1213305E+03  0.7546771E-02  0.1240918E+00
         21   -1    0    0  503  501  0.00000000000E+00  0.00000000000E+00  0.43404140484E+02  0.43404140484E+02  0.00000000000E+00 0. -1.
         21   -1    0    0  504  502 -0.00000000000E+00 -0.00000000000E+00 -0.14975966952E+04  0.14975966952E+04  0.00000000000E+00 0. -1.
         21    1    1    2  503  505 -0.51403422000E+01 -0.80455068609E+02 -0.81790910821E+02  0.11484421742E+03  0.00000000000E+00 0. -1.
         21    1    1    2  504  506  0.63400310198E+02 -0.18203361415E+02 -0.62437338784E+03  0.62784798251E+03  0.00000000000E+00 0. -1.
         21    1    1    2  505  502 -0.60852915414E+02 -0.79596013936E+02 -0.28919436431E+03  0.30605879026E+03  0.00000000000E+00 0. -1.
         21    1    1    2  506  501  0.25929474157E+01  0.17825444396E+03 -0.45883389176E+03  0.49224984550E+03  0.00000000000E+00 0. -1.
<scales pt_clust_3="82.53323" pt_clust_4="65.96182" pt_clust_5="121.33048" pt_clust_6="14000.00000"></scales>
<clustering>
<clus scale="   65.962">  2  4  1 -1</clus>
<clus scale="   82.533">  1  3  2 -1</clus>
<clus scale="  121.330">  2  5  1 -1</clus>
<clus scale="   82.533">  1  3  2 -1</clus>
</clustering>
</event>
<event>
 6    0  0.6132510E+002  0.1198639E+03  0.7546771E-02  0.1243322E+00
         21   -1    0    0  505  501  0.00000000000E+00  0.00000000000E+00  0.28289802593E+03  0.28289802593E+03  0.00000000000E+00 0.  1.
         21   -1    0    0  506  502 -0.00000000000E+00 -0.00000000000E+00 -0.89825867008E+02  0.89825867008E+02  0.00000000000E+00 0.  1.
         21    1    1    2  503  501  0.32488314743E+02  0.57947962207E+02  0.86251130656E+02  0.10887017249E+03  0.00000000000E+00 0.  1.
         21    1    1    2  504  503  0.29010293684E+02  0.24149350188E+02  0.14117455541E+02  0.40300009989E+02  0.00000000000E+00 0. -1.
         21    1    1    2  505  502 -0.35828188192E+02  0.53566283348E+02  0.19796785847E+02  0.67416010789E+02  0.00000000000E+00 0. -1.
         21    1    1    2  506  504 -0.25670420235E+02 -0.13566359574E+03  0.72906786876E+02  0.15613769967E+03  0.00000000000E+00 0.  1.
<scales pt_clust_3="30.67273" pt_clust_4="30.67273" pt_clust_5="64.44382" pt_clust_6="112.74529"></scales>
<clustering>
<clus scale="   30.673">  3  4 -1 -1</clus>
<clus scale="   64.444">  2  5  1 -1</clus>
<clus scale="  112.745">  2  6  1 -1</clus>
<clus scale="  119.864">  1  3  2 -1</clus>
</clustering>
</event>
<event>
 6    0  0.6132510E+002  0.1107714E+03  0.7546771E-02  0.1259148E+00
         21   -1    0    0  503  501  0.00000000000E+00  0.00000000000E+00  0.14815512990E+04  0.14815512990E+04  0.00000000000E+00 0.  1.
         21   -1    0    0  505  502 -0.00000000000E+00 -0.00000000000E+00 -0.19335977577E+03  0.19335977577E+03  0.00000000000E+00 0. -1.
         21    1    1    2  503  504  0.18282487703E+02  0.76580214512E+02  0.11732495904E+04  0.11758883365E+04  0.00000000000E+00 0.  1.
         21    1    1    2  504  502  0.57028672248E+02  0.30860194470E+02  0.57890140817E+02  0.86924619441E+02  0.00000000000E+00 0.  1.
         21    1    1    2  505  506  0.78489636687E+01 -0.14122449613E+03 -0.13785889816E+03  0.19751212707E+03  0.00000000000E+00 0. -1.
         21    1    1    2  506  501 -0.83160123620E+02  0.33784087147E+02  0.19491069019E+03  0.21458599175E+03  0.00000000000E+00 0.  1.
<scales pt_clust_3="79.05226" pt_clust_4="64.84305" pt_clust_5="110.77142" pt_clust_6="14000.00000"></scales>
<clustering>
<clus scale="   64.843">  2  4  1 -1</clus>
<clus scale="   79.052">  1  3  2 -1</clus>
<clus scale="  110.771">  2  5  1 -1</clus>
<clus scale="   79.052">  1  3  2 -1</clus>
</clustering>
</event>
<event>
 6    0  0.6132510E+002  0.8208611E+02  0.7546771E-02  0.1323233E+00
         21   -1    0    0  504  501  0.00000000000E+00  0.00000000000E+00  0.31506199132E+03  0.31506199132E+03  0.00000000000E+00 0.  1.
         21   -1    0    0  505  502 -0.00000000000E+00 -0.00000000000E+00 -0.10938400803E+04  0.10938400803E+04  0.00000000000E+00 0.  1.
         21    1    1    2  503  506  0.26735022146E+02  0.10227072881E+03 -0.49525535363E+02  0.11673406544E+03  0.00000000000E+00 0.  1.
         21    1    1    2  504  502 -0.35233106373E+02 -0.13614922132E+02  0.12794147781E+03  0.13340074825E+03  0.00000000000E+00 0.  1.
         21    1    1    2  505  503 -0.63547831913E+02 -0.29372797932E+02 -0.99219544444E+03  0.99466219802E+03  0.00000000000E+00 0.  1.
         21    1    1    2  506  501  0.72045916139E+02 -0.59283008746E+02  0.13500141304E+03  0.16410505989E+03  0.00000000000E+00 0.  1.
<scales pt_clust_3="14000.00000" pt_clust_4="37.77218" pt_clust_5="70.25991" pt_clust_6="82.08611"></scales>
<clustering>
<clus scale="   37.772">  1  4  2 -1</clus>
<clus scale="   70.260">  2  5  1 -1</clus>
<clus scale="   82.086">  1  6  2 -1</clus>
<clus scale="   37.772">  1  3  2 -1</clus>
</clustering>
</event>
<event>
 6    0  0.6132510E+002  0.1415879E+03  0.7546771E-02  0.1211208E+00
         21   -1    0    0  504  501  0.00000000000E+00  0.00000000000E+00  0.30168285655E+03  0.30168285655E+03  0.00000000000E+00 0.  1.
         21   -1    0    0  505  502 -0.00000000000E+00 -0.00000000000E+00 -0.16131598750E+03  0.16131598750E+03  0.00000000000E+00 0.  1.
         21    1    1    2  503  502 -0.16228395513E+02  0.62815832886E+02  0.37989678356E+02  0.75182480298E+02  0.00000000000E+00 0.  1.
         21    1    1    2  504  503  0.37053868514E+02  0.53093173860E+02  0.53931006156E+02  0.84264035670E+02  0.00000000000E+00 0.  1.
         21    1    1    2  505  506 -0.89873297580E+02  0.29536981450E+02 -0.57603885335E+02  0.11076032907E+03  0.00000000000E+00 0.  1.
         21    1    1    2  506  501  0.69047824579E+02 -0.14544598820E+03  0.10605006987E+03  0.19279199901E+03  0.00000000000E+00 0.  1.
<scales pt_clust_3="55.66675" pt_clust_4="55.66675" pt_clust_5="94.60255" pt_clust_6="130.16128"></scales>
<clustering>
<clus scale="   55.667">  3  4 -1 -1</clus>
<clus scale="   94.603">  2  5  1 -1</clus>
<clus scale="  130.161">  2  6  1 -1</clus>
<clus scale="  141.588">  1  3  2 -1</clus>
</clustering>
</event>
<event>
 6    0  0.6132510E+002  0.1453903E+03  0.7546771E-02  0.1206255E+00
         21   -1    0    0  505  501  0.00000000000E+00  0.00000000000E+00  0.39761271199E+03  0.39761271199E+03  0.00000000000E+00 0.  1.
         21   -1    0    0  501  502 -0.00000000000E+00 -0.00000000000E+00 -0.53997129472E+03  0.53997129472E+03  0.00000000000E+00 0. -1.
         21    1    1    2  503  502  0.30611877196E+02  0.17955594156E+02 -0.43321245848E+03  0.43466369134E+03  0.00000000000E+00 0. -1.
         21    1    1    2  504  503  0.37105253908E+02 -0.13637116932E+03 -0.35487267658E+02  0.14571630607E+03  0.00000000000E+00 0.  1.
         21    1    1    2  505  506 -0.41230470566E+02  0.25330904741E+02  0.11426237702E+03  0.12408665215E+03  0.00000000000E+00 0. -1.
         21    1    1    2  506  504 -0.26486660538E+02  0.93084670425E+02  0.21207876639E+03  0.23311735715E+03  0.00000000000E+00 0.  1.
<scales pt_clust_3="35.48930" pt_clust_4="136.56515" pt_clust_5="35.27266" pt_clust_6="35.27266"></scales>
<clustering>
<clus scale="   35.273">  5  6 -1 -1</clus>
<clus scale="   35.489">  2  3  1 -1</clus>
<clus scale="  136.565">  2  4  1 -1</clus>
<clus scale="  145.390">  1  3  2 -1</clus>
</clustering>
</event>
<event>
 6    0  0.6132510E+002  0.1295880E+03  0.7546771E-02  0.1228068E+00
         21   -1    0    0  504  501  0.00000000000E+00  0.00000000000E+00  0.14932081194E+03  0.14932081194E+03  0.00000000000E+00 0. -1.
         21   -1    0    0  503  502 -0.00000000000E+00 -0.00000000000E+00 -0.57299390588E+03  0.57299390588E+03  0.00000000000E+00 0. -1.
         21    1    1    2  503  501  0.22981553355E+02  0.88990776156E+02 -0.50275488807E+03  0.51108706452E+03  0.00000000000E+00 0. -1.
         21    1    1    2  504  506 -0.37237572860E+02 -0.48556892039E+02  0.68879389775E+02  0.92134569694E+02  0.00000000000E+00 0. -1.
         21    1    1    2  505  502  0.23166383652E+02  0.25862192009E+02 -0.25678973501E+02  0.43184997245E+02  0.00000000000E+00 0. -1.
         21    1    1    2  506  505 -0.89103641464E+01 -0.66296076127E+02  0.35881377857E+02  0.75908086367E+02  0.00000000000E+00 0. -1.
<scales pt_clust_3="121.86204" pt_clust_4="42.23466" pt_clust_5="34.72081" pt_clust_6="42.23466"></scales>
<clustering>
<clus scale="   34.721">  2  5  1 -1</clus>
<clus scale="   42.235">  4  6 -1 -1</clus>
<clus scale="  121.862">  2  3  1 -1</clus>
<clus scale="  129.588">  1  3  2 -1</clus>
</clustering>
</event>
<event>
 6    0  0.6132510E+002  0.8343693E+02  0.7546771E-02  0.1319571E+00
         21   -1    0    0  505  501  0.00000000000E+00  0.00000000000E+00  0.96129044494E+02  0.96129044494E+02  0.00000000000E+00 0. -1.
         21   -1    0    0  506  502 -0.00000000000E+00 -0.00000000000E+00 -0.11789115700E+04  0.11789115700E+04  0.00000000000E+00 0.  1.
         21    1    1    2  503  501  0.39235717363E+02 -0.27308844855E+02 -0.66475934619E+02  0.81879572591E+02  0.00000000000E+00 0.  1.
         21    1    1    2  504  502 -0.21681652824E+02  0.58725533252E+02 -0.10184588489E+04  0.10203809138E+04  0.00000000000E+00 0.  1.
         21    1    1    2  505  504 -0.39695644002E+02 -0.93488758949E+02  0.22061561715E+02  0.10393557961E+03  0.00000000000E+00 0. -1.
         21    1    1    2  506  503  0.22141579463E+02  0.62072070552E+02 -0.19909303688E+02  0.68844548492E+02  0.00000000000E+00 0.  1.
<scales pt_clust_3="47.80392" pt_clust_4="62.17477" pt_clust_5="83.43693" pt_clust_6="14000.00000"></scales>
<clustering>
<clus scale="   47.804">  1  3  2 -1</clus>
<clus scale="   62.175">  2  4  1 -1</clus>
<clus scale="   83.437">  1  5  2 -1</clus>
<clus scale="   47.804">  1  3  2 -1</clus>
</clustering>
</event>
<event>
 6    0  0.6132510E+002  0.2297776E+03  0.7546771E-02  0.1126796E+00
         21   -1    0    0  504  501  0.00000000000E+00  0.00000000000E+00  0.26886646920E+04  0.26886646920E+04  0.00000000000E+00 0.  1.
         21   -1    0    0  501  502 -0.00000000000E+00 -0.00000000000E+00 -0.34487094027E+02  0.34487094027E+02  0.00000000000E+00 0.  1.
         21    1    1    2  503  502 -0.24382276025E+02 -0.17743640277E+02  0.32621732983E+02  0.44424200806E+02  0.00000000000E+00 0.  1.
         21    1    1    2  504  505  0.13666916409E+03 -0.63321698191E+02  0.18171477780E+04  0.18233798685E+04  0.00000000000E+00 0.  1.
         21    1    1    2  505  506  0.67946442135E+02 -0.68772785134E+01  0.37818678921E+03  0.38430360848E+03  0.00000000000E+00 0. -1.
         21    1    1    2  506  503 -0.18023333020E+03  0.87942616982E+02  0.42622129777E+03  0.47104410820E+03  0.00000000000E+00 0.  1.
<scales pt_clust_3="30.15513" pt_clust_4="57.88949" pt_clust_5="57.88949" pt_clust_6="212.65168"></scales>
<clustering>
<clus scale="   30.155">  2  3  1 -1</clus>
<clus scale="   57.889">  4  5 -1 -1</clus>
<clus scale="  212.652">  2  6  1 -1</clus>
<clus scale="  229.778">  1  3  2 -1</clus>
</clustering>
</event>
<event>
 6    0  0.6132510E+002  0.1319910E+03  0.7546771E-02  0.1224531E+00
         21   -1    0    0  505  501  0.00000000000E+00  0.00000000000E+00  0.63546279387E+03  0.63546279387E+03  0.00000000000E+00 0.  1.
         21   -1    0    0  506  502 -0.00000000000E+00 -0.00000000000E+00 -0.59696046182E+03  0.59696046182E+03  0.00000000000E+00 0.  1.
         21    1    1    2  503  504  0.39282834613E+02  0.10380877822E+03 -0.27943128055E+02  0.11445620095E+03  0.00000000000E+00 0.  1.
         21    1    1    2  504  502 -0.79442996162E+02 -0.11179389377E+03 -0.49870810004E+03  0.51722222822E+03  0.00000000000E+00 0.  1.
         21    1    1    2  505  503  0.10024422777E+02  0.37031574602E+02  0.55673011795E+03  0.55805040167E+03  0.00000000000E+00 0.  1.
         21    1    1    2  506  501  0.30135738771E+02 -0.29046459049E+02  0.84234421972E+01  0.42694424847E+02  0.00000000000E+00 0.  1.
<scales pt_clust_3="14000.00000" pt_clust_4="131.99099" pt_clust_5="38.36439" pt_clust_6="37.45831"></scales>
<clustering>
<clus scale="   38.364">  1  5  2 -1</clus>
<clus scale="   37.458">  1  6  2 -1</clus>
<clus scale="  131.991">  2  4  1 -1</clus>
<clus scale="   38.364">  1  3  2 -1</clus>
</clustering>
</event>
<event>
 6    0  0.6132510E+002  0.1249913E+03  0.7546771E-02  0.1235083E+00
         21   -1    0    0  506  501  0.00000000000E+00  0.00000000000E+00  0.65239341280E+03  0.65239341280E+03  0.00000000000E+00 0.  1.
         21   -1    0    0  505  502 -0.00000000000E+00 -0.00000000000E+00 -0.39636861415E+02  0.39636861415E+02  0.00000000000E+00 0.  1.
         21    1    1    2  503  502 -0.25691126546E+02  0.76238352868E+02  0.46768981599E+02  0.93057283815E+02  0.00000000000E+00 0.  1.
         21    1    1    2  504  503 -0.23977647248E+02  0.30299122031E+02  0.74664486930E+02  0.84069911216E+02  0.00000000000E+00 0.  1.
         21    1    1    2  505  501  0.69528879245E+02 -0.82380141793E+02  0.25979455103E+03  0.28127204190E+03  0.00000000000E+00 0.  1.
         21    1    1    2  506  504 -0.19860105451E+02 -0.24157333105E+02  0.23152853183E+03  0.23363103728E+03  0.00000000000E+00 0.  1.
<scales pt_clust_3="36.96499" pt_clust_4="36.96499" pt_clust_5="113.19046" pt_clust_6="31.27300"></scales>
<clustering>
<clus scale="   31.273">  1  6  2 -1</clus>
<clus scale="   36.965">  3  4 -1 -1</clus>
<clus scale="  113.190">  1  5  2 -1</clus>
<clus scale="   31.273">  1  3  2 -1</clus>
</clustering>
</event>
<event>
 6    0  0.6132510E+002  0.1347291E+03  0.7546771E-02  0.1220603E+00
         21   -1    0    0  503  501  0.00000000000E+00  0.00000000000E+00  0.13602806745E+04  0.13602806745E+04  0.00000000000E+00 0.  1.
         21   -1    0    0  505  502 -0.00000000000E+00 -0.00000000000E+00 -0.42687938014E+03  0.42687938014E+03  0.00000000000E+00 0. -1.
         21    1    1    2  503  506 -0.40953402290E+02 -0.54899923638E+02  0.12057770000E+04  0.12077207279E+04  0.00000000000E+00 0.  1.
         21    1    1    2  504  502 -0.10454348918E+03  0.69800804225E+02 -0.23545771081E+03  0.26691164639E+03  0.00000000000E+00 0. -1.
         21    1    1    2  505  501 -0.76960206098E+01  0.32950858229E+02  0.97484946424E+02  0.10319061280E+03  0.00000000000E+00 0. -1.
         21    1    1    2  506  504  0.15319291208E+03 -0.47851738815E+02 -0.13440294129E+03  0.20933706754E+03  0.00000000000E+00 0.  1.
<scales pt_clust_3="53.66585" pt_clust_4="134.72912" pt_clust_5="33.83767" pt_clust_6="14000.00000"></scales>
<clustering>
<clus scale="   33.838">  1  5  2 -1</clus>
<clus scale="   53.666">  1  3  2 -1</clus>
<clus scale="  134.729">  2  4  1 -1</clus>
<clus scale="   33.838">  1  3  2 -1</clus>
</clustering>
</event>
<event>
 6    0  0.6132510E+002  0.9643146E+02  0.7546771E-02  0.1287984E+00
         21   -1    0    0  504  501  0.00000000000E+00  0.00000000000E+00  0.38857302209E+02  0.38857302209E+02  0.00000000000E+00 0. -1.
         21   -1    0    0  506  502 -0.00000000000E+00 -0.00000000000E+00 -0.20538739306E+04  0.20538739306E+04  0.00000000000E+00 0.  1.
         21    1    1    2  503  501 -0.20614236326E+02  0.35485048724E+02 -0.36638702383E+01  0.41201448608E+02  0.00000000000E+00 0. -1.
         21    1    1    2  504  505  0.89402719961E+02  0.12368838808E+02 -0.49213412319E+03  0.50034171295E+03  0.00000000000E+00 0.  1.
         21    1    1    2  505  502  0.81703848572E+01 -0.83865343010E+02 -0.14114013906E+04  0.14139144374E+04  0.00000000000E+00 0.  1.
         21    1    1    2  506  503 -0.76958868493E+02  0.36011455477E+02 -0.10781724438E+03  0.13727363385E+03  0.00000000000E+00 0.  1.
<scales pt_clust_3="41.03822" pt_clust_4="14000.00000" pt_clust_5="81.93522" pt_clust_6="96.43146"></scales>
<clustering>
<clus scale="   41.038">  1  3  2 -1</clus>
<clus scale="   81.935">  2  5  1 -1</clus>
<clus scale="   96.431">  1  6  2 -1</clus>
<clus scale="   41.038">  1  3  2 -1</clus>
</clustering>
</event>
<event>
 6    0  0.6132510E+002  0.8249329E+02  0.7546771E-02  0.1322121E+00
         21   -1    0    0  504  501  0.00000000000E+00  0.00000000000E+00  0.51089800596E+03  0.51089800596E+03  0.00000000000E+00 0.  1.
         21   -1    0    0  506  502 -0.00000000000E+00 -0.00000000000E+00 -0.66632293222E+03  0.66632293222E+03  0.00000000000E+00 0.  1.
         21    1    1    2  503  501 -0.20571127872E+02 -0.93822710879E+02  0.47257469459E+02  0.10704737642E+03  0.00000000000E+00 0.  1.
         21    1    1    2  504  505 -0.15839919841E+02  0.36929394481E+02  0.41976368787E+03  0.42168262578E+03  0.00000000000E+00 0.  1.
         21    1    1    2  505  502  0.10266839104E+03  0.16761194242E+02 -0.33409136491E+03  0.34991252658E+03  0.00000000000E+00 0.  1.
         21    1    1    2  506  503 -0.66257343326E+02  0.40132122156E+02 -0.28835471867E+03  0.29857840939E+03  0.00000000000E+00 0.  1.
<scales pt_clust_3="70.96860" pt_clust_4="40.18312" pt_clust_5="14000.00000" pt_clust_6="82.49329"></scales>
<clustering>
<clus scale="   40.183">  1  4  2 -1</clus>
<clus scale="   70.969">  1  3  2 -1</clus>
<clus scale="   82.493">  2  6  1 -1</clus>
<clus scale="   40.183">  1  3  2 -1</clus>
</clustering>
</event>
<event>
 6    0  0.6132510E+002  0.1519899E+03  0.7546771E-02  0.1198049E+00
         21   -1    0    0  505  501  0.00000000000E+00  0.00000000000E+00  0.25616014817E+03  0.25616014817E+03  0.00000000000E+00 0. -1.
         21   -1    0    0  506  502 -0.00000000000E+00 -0.00000000000E+00 -0.16814841421E+04  0.16814841421E+04  0.00000000000E+00 0. -1.
         21    1    1    2  503  504 -0.23536672244E+02 -0.37664302609E+02  0.27911337644E+02  0.52455861450E+02  0.00000000000E+00 0. -1.
         21    1    1    2  504  502  0.95974161926E+02  0.14468596214E+03 -0.23094546115E+03  0.28893056851E+03  0.00000000000E+00 0.  1.
         21    1    1    2  505  503 -0.70560756769E+02 -0.64936042246E+02  0.17435095703E+03  0.19898182378E+03  0.00000000000E+00 0. -1.
         21    1    1    2  506  501 -0.18767329131E+01 -0.42085617280E+02 -0.13966408275E+04  0.13972760366E+04  0.00000000000E+00 0. -1.
<scales pt_clust_3="36.83640" pt_clust_4="142.02543" pt_clust_5="36.83640" pt_clust_6="42.12744"></scales>
<clustering>
<clus scale="   36.836">  3  5 -1 -1</clus>
<clus scale="   42.127">  2  6  1 -1</clus>
<clus scale="  142.025">  2  4  1 -1</clus>
<clus scale="  151.990">  1  3  2 -1</clus>
</clustering>
</event>
<event>
 6    0  0.6132510E+002  0.1202470E+03  0.7546771E-02  0.1242690E+00
         21   -1    0    0  505  501  0.00000000000E+00  0.00000000000E+00  0.64265039120E+03  0.64265039120E+03  0.00000000000E+00 0. -1.
         21   -1    0    0  504  502 -0.00000000000E+00 -0.00000000000E+00 -0.77401362483E+02  0.77401362483E+02  0.00000000000E+00 0. -1.
         21    1    1    2  503  501 -0.58599159277E+02  0.80477206116E+02  0.36126887006E+03  0.37473409058E+03  0.00000000000E+00 0. -1.
         21    1    1    2  504  503  0.12512878474E+03  0.59638226098E+00  0.16698814938E+02  0.12623952972E+03  0.00000000000E+00 0. -1.
         21    1    1    2  505  506 -0.24061558370E+02 -0.61025500015E+02  0.12390731877E+03  0.14020019218E+03  0.00000000000E+00 0.  1.
         21    1    1    2  506  502 -0.42468067094E+02 -0.20048088362E+02  0.63374024950E+02  0.78877941201E+02  0.00000000000E+00 0. -1.
<scales pt_clust_3="99.55120" pt_clust_4="111.97111" pt_clust_5="37.09244" pt_clust_6="37.09244"></scales>
<clustering>
<clus scale="   37.092">  5  6 -1 -1</clus>
<clus scale="   99.551">  1  3  2 -1</clus>
<clus scale="  111.971">  2  4  1 -1</clus>
<clus scale="   99.551">  1  3  2 -1</clus>
</clustering>
</event>
<event>
 6    0  0.6132510E+002  0.1347281E+03  0.7546771E-02  0.1220604E+00
         21   -1    0    0  506  501  0.00000000000E+00  0.00000000000E+00  0.19475547766E+03  0.19475547766E+03  0.00000000000E+00 0. -1.
         21   -1    0    0  505  502 -0.00000000000E+00 -0.00000000000E+00 -0.25312999935E+03  0.25312999935E+03  0.00000000000E+00 0.  1.
         21    1    1    2  503  502 -0.71013947853E+01 -0.33576495529E+02 -0.13683736353E+03  0.14107542280E+03  0.00000000000E+00 0.  1.
         21    1    1    2  504  501 -0.53897904672E+01 -0.59386789737E+02  0.16525180449E+02  0.61878285573E+02  0.00000000000E+00 0. -1.
         21    1    1    2  505  504 -0.28741772942E+02 -0.46540877379E+02  0.81497112759E+02  0.98152545393E+02  0.00000000000E+00 0. -1.
         21    1    1    2  506  503  0.41232958194E+02  0.13950416265E+03 -0.19559451362E+02  0.14677922324E+03  0.00000000000E+00 0. -1.
<scales pt_clust_3="34.31925" pt_clust_4="55.74200" pt_clust_5="55.74200" pt_clust_6="120.56445"></scales>
<clustering>
<clus scale="   34.319">  2  3  1 -1</clus>
<clus scale="   55.742">  4  5 -1 -1</clus>
<clus scale="  120.564">  2  6  1 -1</clus>
<clus scale="  134.728">  1  3  2 -1</clus>
</clustering>
</event>
<event>
 6    0  0.6132510E+002  0.7062568E+02  0.7546771E-02  0.1357978E+00
         21   -1    0    0  505  501  0.00000000000E+00  0.00000000000E+00  0.46289852734E+02  0.46289852734E+02  0.00000000000E+00 0. -1.
         21   -1    0    0  504  502 -0.00000000000E+00 -0.00000000000E+00 -0.64300826111E+03  0.64300826111E+03  0.00000000000E+00 0. -1.
         21    1    1    2  503  502 -0.10451974288E+02  0.28820852806E+02 -0.27018892679E+03  0.27192267556E+03  0.00000000000E+00 0. -1.
         21    1    1    2  504  501  0.10299704774E+03 -0.70801168338E+02 -0.13745617760E+03  0.18578320172E+03  0.00000000000E+00 0. -1.
         21    1    1    2  505  506 -0.48419314790E+02  0.28241842895E+02 -0.25437842967E+02  0.61555792494E+02  0.00000000000E+00 0. -1.
         21    1    1    2  506  503 -0.44125758666E+02  0.13738472637E+02 -0.16363546101E+03  0.17003644406E+03  0.00000000000E+00 0.  1.
<scales pt_clust_3="30.65755" pt_clust_4="70.62568" pt_clust_5="14000.00000" pt_clust_6="55.62250"></scales>
<clustering>
<clus scale="   30.658">  2  3  1 -1</clus>
<clus scale="   55.622">  2  6  1 -1</clus>
<clus scale="   70.626">  2  4  1 -1</clus>
<clus scale="   70.626">  1  3  2 -1</clus>
</clustering>
</event>
<event>
 6    0  0.6132510E+002  0.1266651E+03  0.7546771E-02  0.1232490E+00
         21   -1    0    0  503  501  0.00000000000E+00  0.00000000000E+00  0.27769668513E+03  0.27769668513E+03  0.00000000000E+00 0.  1.
         21   -1    0    0  505  502 -0.00000000000E+00 -0.00000000000E+00 -0.17484866347E+04  0.17484866347E+04  0.00000000000E+00 0.  1.
         21    1    1    2  503  506 -0.67821907870E+01 -0.35124086254E+02  0.27545271908E+02  0.45149103552E+02  0.00000000000E+00 0.  1.
         21    1    1    2  504  502  0.35572391179E+01  0.13104756723E+03 -0.16596720447E+04  0.16648415585E+04  0.00000000000E+00 0.  1.
         21    1    1    2  505  501  0.83190465310E+02 -0.36370653944E+02  0.19157706855E+03  0.21200295088E+03  0.00000000000E+00 0.  1.
         21    1    1    2  506  504 -0.79965513641E+02 -0.59552827036E+02 -0.30240245231E+02  0.10418970684E+03  0.00000000000E+00 0.  1.
<scales pt_clust_3="35.77289" pt_clust_4="14000.00000" pt_clust_5="101.64039" pt_clust_6="126.66508"></scales>
<clustering>
<clus scale="   35.773">  1  3  2 -1</clus>
<clus scale="  101.640">  1  5  2 -1</clus>
<clus scale="  126.665">  1  6  2 -1</clus>
<clus scale="   35.773">  1  3  2 -1</clus>
</clustering>
</event>
<event>
 6    0  0.6132510E+002  0.1038106E+03  0.7546771E-02  0.1272481E+00
         21   -1    0    0  503  501  0.00000000000E+00  0.00000000000E+00  0.16632763569E+03  0.16632763569E+03  0.00000000000E+00 0.  1.
         21   -1    0    0  506  502 -0.00000000000E+00 -0.00000000000E+00 -0.89807488634E+03  0.89807488634E+03  0.00000000000E+00 0. -1.
         21    1    1    2  503  504  0.21756315799E+02  0.38156051621E+02 -0.21032367846E+02  0.48698891668E+02  0.00000000000E+00 0. -1.
         21    1    1    2  504  505  0.75203827066E+02 -0.17591695389E+02 -0.37894070076E+02  0.86029319996E+02  0.00000000000E+00 0. -1.
         21    1    1    2  505  502  0.43706978822E+02  0.10146085212E+02 -0.76002245922E+03  0.76134577004E+03  0.00000000000E+00 0. -1.
         21    1    1    2  506  501 -0.14066712169E+03 -0.30710441444E+02  0.87201646497E+02  0.16832854033E+03  0.00000000000E+00 0.  1.
<scales pt_clust_3="43.92290" pt_clust_4="14000.00000" pt_clust_5="44.99878" pt_clust_6="103.81064"></scales>
<clustering>
<clus scale="   43.923">  1  3  2 -1</clus>
<clus scale="   44.999">  2  5  1 -1</clus>
<clus scale="  103.811">  1  6  2 -1</clus>
<clus scale="   43.923">  1  3  2 -1</clus>
</clustering>
</event>
<event>
 6    0  0.6132510E+002  0.1710011E+03  0.7546771E-02  0.1176808E+00
         21   -1    0    0  506  501  0.00000000000E+00  0.00000000000E+00  0.22062068107E+03  0.22062068107E+03  0.00000000000E+00 0. -1.
         21   -1    0    0  505  502 -0.00000000000E+00 -0.00000000000E+00 -0.23584019126E+03  0.23584019126E+03  0.00000000000E+00 0. -1.
         21    1    1    2  503  501 -0.70123173151E+02  0.78675247642E+02  0.11458297271E+03  0.15568015814E+03  0.00000000000E+00 0. -1.
         21    1    1    2  504  502 -0.33433809982E+02  0.70284371102E+01 -0.48306354170E+02  0.59166903175E+02  0.00000000000E+00 0. -1.
         21    1    1    2  505  503 -0.38226313168E+02  0.23605742312E+02 -0.44090980661E-01  0.44927542027E+02  0.00000000000E+00 0. -1.
         21    1    1    2  506  504  0.14178329630E+03 -0.10930942706E+03 -0.81452037748E+02  0.19668626899E+03  0.00000000000E+00 0. -1.
<scales pt_clust_3="47.10962" pt_clust_4="34.16458" pt_clust_5="47.10962" pt_clust_6="155.94264"></scales>
<clustering>
<clus scale="   34.165">  2  4  1 -1</clus>
<clus scale="   47.110">  3  5 -1 -1</clus>
<clus scale="  155.943">  2  6  1 -1</clus>
<clus scale="  171.001">  1  3  2 -1</clus>
</clustering>
</event>
<event>
 6    0  0.6132510E+002  0.1235623E+03  0.7546771E-02  0.1237333E+00
         21   -1    0    0  506  501  0.00000000000E+00  0.00000000000E+00  0.49137178610E+03  0.49137178610E+03  0.00000000000E+00 0.  1.
         21   -1    0    0  505  502 -0.00000000000E+00 -0.00000000000E+00 -0.19662982534E+03  0.19662982534E+03  0.00000000000E+00 0.  1.
         21    1    1    2  503  501 -0.16448431854E+02  0.16898321080E+03  0.33709419450E+03  0.37743658064E+03  0.00000000000E+00 0.  1.
         21    1    1    2  504  502 -0.63337606349E+01 -0.82497173084E+02 -0.13649514938E+03  0.15961461680E+03  0.00000000000E+00 0.  1.
         21    1    1    2  505  503  0.38887526651E+02 -0.37183789544E+02  0.14182878964E+02  0.55641962489E+02  0.00000000000E+00 0.  1.
         21    1    1    2  506  504 -0.16105334162E+02 -0.49302248173E+02  0.79960036674E+02  0.95308451505E+02  0.00000000000E+00 0.  1.
<scales pt_clust_3="123.56226" pt_clust_4="14000.00000" pt_clust_5="55.89031" pt_clust_6="51.86611"></scales>
<clustering>
<clus scale="   51.866">  1  6  2 -1</clus>
<clus scale="   55.890">  2  5  1 -1</clus>
<clus scale="  123.562">  1  3  2 -1</clus>
<clus scale="   51.866">  1  3  2 -1</clus>
</clustering>
</event>
<event>
 6    0  0.6132510E+002  0.2651658E+03  0.7546771E-02  0.1104079E+00
         21   -1    0    0  503  501  0.00000000000E+00  0.00000000000E+00  0.62552216865E+03  0.62552216865E+03  0.00000000000E+00 0.  1.
         21   -1    0    0  504  502 -0.00000000000E+00 -0.00000000000E+00 -0.53561128946E+03  0.53561128946E+03  0.00000000000E+00 0.  1.
         21    1    1    2  503  502 -0.42076418850E+02 -0.11563455669E+02  0.18327342606E+02  0.47328955379E+02  0.00000000000E+00 0. -1.
         21    1    1    2  504  505  0.15587059381E+02  0.29755225358E+02 -0.89172943063E+02  0.95289787652E+02  0.00000000000E+00 0. -1.
         21    1    1    2  505  506  0.17173442959E+03 -0.21842834650E+03 -0.35244951180E+03  0.44880320322E+03  0.00000000000E+00 0.  1.
         21    1    1    2  506  501 -0.14524507012E+03  0.20023657681E+03  0.51320599144E+03  0.56971151185E+03  0.00000000000E+00 0.  1.
<scales pt_clust_3="42.89453" pt_clust_4="33.59062" pt_clust_5="14000.00000" pt_clust_6="265.16577"></scales>
<clustering>
<clus scale="   33.591">  2  4  1 -1</clus>
<clus scale="   42.895">  1  3  2 -1</clus>
<clus scale="  265.166">  1  6  2 -1</clus>
<clus scale="   42.895">  1  3  2 -1</clus>
</clustering>
</event>
<event>
 6    0  0.6132510E+002  0.9628758E+02  0.7546771E-02  0.1288302E+00
         21   -1    0    0  504  501  0.00000000000E+00  0.00000000000E+00  0.21419879606E+03  0.21419879606E+03  0.00000000000E+00 0. -1.
         21   -1    0    0  505  502 -0.00000000000E+00 -0.00000000000E+00 -0.78038453193E+03  0.78038453193E+03  0.00000000000E+00 0. -1.
         21    1    1    2  503  501 -0.47480296840E+02  0.63558692842E+02  0.28139078388E+02  0.84177750958E+02  0.00000000000E+00 0. -1.
         21    1    1    2  504  506 -0.21352072466E+02  0.23349434675E+02  0.64956762519E+02  0.72252945235E+02  0.00000000000E+00 0.  1.
         21    1    1    2  505  503  0.26401319408E+02  0.26277759644E+02 -0.70715831138E+03  0.70813870652E+03  0.00000000000E+00 0. -1.
         21    1    1    2  506  502  0.42431049898E+02 -0.11318588716E+03  0.47876734614E+02  0.13001392527E+03  0.00000000000E+00 0. -1.
<scales pt_clust_3="96.28758" pt_clust_4="31.64028" pt_clust_5="37.25449" pt_clust_6="14000.00000"></scales>
<clustering>
<clus scale="   31.640">  1  4  2 -1</clus>
<clus scale="   37.254">  2  5  1 -1</clus>
<clus scale="   96.288">  2  3  1 -1</clus>
<clus scale="   31.640">  1  3  2 -1</clus>
</clustering>
</event>
<event>
 6    0  0.6132510E+002  0.1128739E+03  0.7546771E-02  0.1255339E+00
         21   -1    0    0  505  501  0.00000000000E+00  0.00000000000E+00  0.15616438093E+03  0.15616438093E+03  0.00000000000E+00 0.  1.
         21   -1    0    0  501  502 -0.00000000000E+00 -0.00000000000E+00 -0.11785724943E+04  0.11785724943E+04  0.00000000000E+00 0.  1.
         21    1    1    2  503  506 -0.11541459236E+03  0.62944290510E+02  0.31430088080E+02  0.13516790401E+03  0.00000000000E+00 0.  1.
         21    1    1    2  504  502  0.22059080297E+02  0.30373584467E+02 -0.57587927420E+03  0.57710146085E+03  0.00000000000E+00 0.  1.
         21    1    1    2  505  503  0.92543061168E+02  0.45817774947E+02  0.20218337009E+02  0.10522484413E+03  0.00000000000E+00 0.  1.
         21    1    1    2  506  504  0.81245089430E+00 -0.13913564992E+03 -0.49817726422E+03  0.51724266621E+03  0.00000000000E+00 0.  1.
<scales pt_clust_3="14000.00000" pt_clust_4="37.53875" pt_clust_5="105.61825" pt_clust_6="112.87387"></scales>
<clustering>
<clus scale="   37.539">  2  4  1 -1</clus>
<clus scale="  105.618">  1  5  2 -1</clus>
<clus scale="  112.874">  2  6  1 -1</clus>
<clus scale="  105.618">  1  3  2 -1</clus>
</clustering>
</event>
<event>
 6    0  0.6132510E+002  0.1383246E+03  0.7546771E-02  0.1215601E+00
         21   -1    0    0  503  501  0.00000000000E+00  0.00000000000E+00  0.49099314942E+02  0.49099314942E+02  0.00000000000E+00 0. -1.
         21   -1    0    0  505  502 -0.00000000000E+00 -0.00000000000E+00 -0.79003609156E+03  0.79003609156E+03  0.00000000000E+00 0. -1.
         21    1    1    2  503  502  0.46682085352E+02 -0.15630709542E+03 -0.45314833504E+03  0.48161658892E+03  0.00000000000E+00 0. -1.
         21    1    1    2  504  501 -0.34120811294E+02  0.55391339895E+02 -0.52335456276E+02  0.83495091367E+02  0.00000000000E+00 0. -1.
         21    1    1    2  505  506 -0.24666744280E+02  0.37361825752E+02 -0.18937635824E+03  0.19459640119E+03  0.00000000000E+00 0. -1.
         21    1    1    2  506  504  0.12105470222E+02  0.63553929775E+02 -0.46076627064E+02  0.79427325025E+02  0.00000000000E+00 0. -1.
<scales pt_clust_3="130.02911" pt_clust_4="46.50534" pt_clust_5="44.77002" pt_clust_6="46.50534"></scales>
<clustering>
<clus scale="   44.770">  2  5  1 -1</clus>
<clus scale="   46.505">  4  6 -1 -1</clus>
<clus scale="  130.029">  2  3  1 -1</clus>
<clus scale="  138.325">  1  3  2 -1</clus>
</clustering>
</event>
<event>
 6    0  0.6132510E+002  0.1529427E+03  0.7546771E-02  0.1196903E+00
         21   -1    0    0  506  501  0.00000000000E+00  0.00000000000E+00  0.70424607829E+02  0.70424607829E+02  0.00000000000E+00 0.  1.
         21   -1    0    0  504  502 -0.00000000000E+00 -0.00000000000E+00 -0.17732136325E+04  0.17732136325E+04  0.00000000000E+00 0. -1.
         21    1    1    2  503  505  0.51063401677E+02 -0.23258616834E+02 -0.52990017587E+02  0.77177562878E+02  0.00000000000E+00 0. -1.
         21    1    1    2  504  501 -0.10450202624E+03  0.80622998999E+02 -0.25039212156E+03  0.28304938791E+03  0.00000000000E+00 0. -1.
         21    1    1    2  505  502 -0.38741177306E+02 -0.34996830245E+02 -0.13867308902E+04  0.13877133057E+04  0.00000000000E+00 0. -1.
         21    1    1    2  506  503  0.92179801868E+02 -0.22367551920E+02 -0.12675995292E+02  0.95697983824E+02  0.00000000000E+00 0.  1.
<scales pt_clust_3="41.94044" pt_clust_4="142.89118" pt_clust_5="52.20782" pt_clust_6="41.94044"></scales>
<clustering>
<clus scale="   41.940">  3  6 -1 -1</clus>
<clus scale="   52.208">  2  5  1 -1</clus>
<clus scale="  142.891">  2  4  1 -1</clus>
<clus scale="  152.943">  1  3  2 -1</clus>
</clustering>
</event>
<event>
 6    0  0.6132510E+002  0.9847135E+02  0.7546771E-02  0.1283544E+00
         21   -1    0    0  505  501  0.00000000000E+00  0.00000000000E+00  0.37977605452E+03  0.37977605452E+03  0.00000000000E+00 0. -1.
         21   -1    0    0  503  502 -0.00000000000E+00 -0.00000000000E+00 -0.75069013113E+03  0.75069013113E+03  0.00000000000E+00 0.  1.
         21    1    1    2  503  504  0.21209603961E+02 -0.21232377093E+02 -0.59828793687E+03  0.59904016271E+03  0.00000000000E+00 0.  1.
         21    1    1    2  504  506  0.26603561676E+02 -0.20129493121E+02 -0.83558362908E+01  0.34391365010E+02  0.00000000000E+00 0.  1.
         21    1    1    2  505  502 -0.12431642092E+03  0.97722419131E+02 -0.72889518590E+02  0.17411813700E+03  0.00000000000E+00 0.  1.
         21    1    1    2  506  501  0.76503255285E+02 -0.56360548918E+02  0.30861921514E+03  0.32291652094E+03  0.00000000000E+00 0. -1.
<scales pt_clust_3="30.01102" pt_clust_4="37.54442" pt_clust_5="98.47135" pt_clust_6="14000.00000"></scales>
<clustering>
<clus scale="   30.011">  2  3  1 -1</clus>
<clus scale="   37.544">  2  4  1 -1</clus>
<clus scale="   98.471">  2  5  1 -1</clus>
<clus scale="   98.471">  1  3  2 -1</clus>
</clustering>
</event>
<event>
 6    0  0.6132510E+002  0.1711913E+03  0.7546771E-02  0.1176611E+00
         21   -1    0    0  505  501  0.00000000000E+00  0.00000000000E+00  0.34303905699E+03  0.34303905699E+03  0.00000000000E+00 0. -1.
         21   -1    0    0  503  502 -0.00000000000E+00 -0.00000000000E+00 -0.14338543280E+04  0.14338543280E+04  0.00000000000E+00 0.  1.
         21    1    1    2  503  506  0.89625387556E+02 -0.15635727774E+03 -0.11139416824E+04  0.11284265064E+04  0.00000000000E+00 0.  1.
         21    1    1    2  504  502 -0.11682464937E+03 -0.15360758253E+02 -0.27357442907E+03  0.29787064278E+03  0.00000000000E+00 0.  1.
         21    1    1    2  505  504 -0.68840865714E+01  0.29742580765E+02  0.16663674546E+02  0.34780595277E+02  0.00000000000E+00 0. -1.
         21    1    1    2  506  501  0.34083348383E+02  0.14197545523E+03  0.28003716593E+03  0.31581564057E+03  0.00000000000E+00 0. -1.
<scales pt_clust_3="171.19132" pt_clust_4="117.94878" pt_clust_5="30.52887" pt_clust_6="14000.00000"></scales>
<clustering>
<clus scale="   30.529">  1  5  2 -1</clus>
<clus scale="  117.949">  2  4  1 -1</clus>
<clus scale="  171.191">  2  3  1 -1</clus>
<clus scale="   30.529">  1  3  2 -1</clus>
</clustering>
</event>
<event>
 6    0  0.6132510E+002  0.1043637E+03  0.7546771E-02  0.1271378E+00
         21   -1    0    0  504  501  0.00000000000E+00  0.00000000000E+00  0.13685688117E+03  0.13685688117E+03  0.00000000000E+00 0. -1.
         21   -1    0    0  503  502 -0.00000000000E+00 -0.00000000000E+00 -0.38623805484E+03  0.38623805484E+03  0.00000000000E+00 0.  1.
         21    1    1    2  503  501  0.65631960561E+01 -0.72537634511E+02 -0.66810094384E+02  0.98835078158E+02  0.00000000000E+00 0. -1.
         21    1    1    2  504  506 -0.18058819127E+02 -0.24934024600E+02  0.64581260175E+02  0.71544152080E+02  0.00000000000E+00 0. -1.
         21    1    1    2  505  502  0.14972526108E+02  0.13666325428E+03 -0.27298351392E+03  0.30564852442E+03  0.00000000000E+00 0.  1.
         21    1    1    2  506  505 -0.34769030376E+01 -0.39191595173E+02  0.25831174457E+02  0.47067181356E+02  0.00000000000E+00 0. -1.
<scales pt_clust_3="104.36372" pt_clust_4="30.78679" pt_clust_5="14000.00000" pt_clust_6="54.00167"></scales>
<clustering>
<clus scale="   30.787">  1  4  2 -1</clus>
<clus scale="   54.002">  1  6  2 -1</clus>
<clus scale="  104.364">  2  3  1 -1</clus>
<clus scale="   30.787">  1  3  2 -1</clus>
</clustering>
</event>
<event>
 6    0  0.6132510E+002  0.1304261E+03  0.7546771E-02  0.1226825E+00
         21   -1    0    0  505  501  0.00000000000E+00  0.00000000000E+00  0.93776553949E+03  0.93776553949E+03  0.00000000000E+00 0.  1.
         21   -1    0    0  506  502 -0.00000000000E+00 -0.00000000000E+00 -0.17782970391E+04  0.17782970391E+04  0.00000000000E+00 0. -1.
         21    1    1    2  503  501  0.45740971709E+02 -0.48080745279E+02  0.16751150963E+03  0.18017796874E+03  0.00000000000E+00 0.  1.
         21    1    1    2  504  502  0.57095421375E+02 -0.40403363977E+02 -0.45458206166E+03  0.45993170117E+03  0.00000000000E+00 0. -1.
         21    1    1    2  505  504 -0.17401923179E+03  0.22998021112E+02  0.74931046162E+03  0.76959584842E+03  0.00000000000E+00 0.  1.
         21    1    1    2  506  503  0.71182838709E+02  0.65486088144E+02 -0.13027714092E+04  0.13063570602E+04  0.00000000000E+00 0. -1.
<scales pt_clust_3="66.36260" pt_clust_4="70.17311" pt_clust_5="14000.00000" pt_clust_6="130.42606"></scales>
<clustering>
<clus scale="   66.363">  1  3  2 -1</clus>
<clus scale="   70.173">  2  4  1 -1</clus>
<clus scale="  130.426">  2  6  1 -1</clus>
<clus scale="   66.363">  1  3  2 -1</clus>
</clustering>
</event>
<event>
 6    0  0.6132510E+002  0.9062585E+02  0.7546771E-02  0.1301343E+00
         21   -1    0    0  506  501  0.00000000000E+00  0.00000000000E+00  0.94726542922E+02  0.94726542922E+02  0.00000000000E+00 0.  1.
         21   -1    0    0  505  502 -0.00000000000E+00 -0.00000000000E+00 -0.96714426469E+03  0.96714426469E+03  0.00000000000E+00 0.  1.
         21    1    1    2  503  501  0.11176036981E+03 -0.37630969137E+02  0.20161444808E+02  0.11963675838E+03  0.00000000000E+00 0.  1.
         21    1    1    2  504  502 -0.45778811954E+02  0.85220050293E+02 -0.14136050824E+03  0.17129200181E+03  0.00000000000E+00 0.  1.
         21    1    1    2  505  503 -0.29421480460E+02 -0.44064741285E+02 -0.72217725421E+03  0.72411829934E+03  0.00000000000E+00 0.  1.
         21    1    1    2  506  504 -0.36560077398E+02 -0.35243398709E+01 -0.29041404133E+02  0.46823748087E+02  0.00000000000E+00 0.  1.
<scales pt_clust_3="90.62585" pt_clust_4="14000.00000" pt_clust_5="53.24785" pt_clust_6="36.72956"></scales>
<clustering>
<clus scale="   36.730">  1  6  2 -1</clus>
<clus scale="   53.248">  2  5  1 -1</clus>
<clus scale="   90.626">  1  3  2 -1</clus>
<clus scale="   36.730">  1  3  2 -1</clus>
</clustering>
</event>
<event>
 6    0  0.6132510E+002  0.1655237E+03  0.7546771E-02  0.1182598E+00
         21   -1    0    0  503  501  0.00000000000E+00  0.00000000000E+00  0.87931742319E+02  0.87931742319E+02  0.00000000000E+00 0. -1.
         21   -1    0    0  505  502 -0.00000000000E+00 -0.00000000000E+00 -0.67232647876E+03  0.67232647876E+03  0.00000000000E+00 0.  1.
         21    1    1    2  503  504 -0.47660567240E+02  0.49842014546E+02 -0.76267858102E+01  0.69382446955E+02  0.00000000000E+00 0.  1.
         21    1    1    2  504  502 -0.19327927537E+02  0.74383831664E+02 -0.84503145390E+02  0.11422479931E+03  0.00000000000E+00 0. -1.
         21    1    1    2  505  506  0.26425439907E+02 -0.14958813882E+03 -0.50482996086E+03  0.52718896472E+03  0.00000000000E+00 0.  1.
         21    1    1    2  506  501  0.40563054871E+02  0.25362292609E+02  0.12565155615E+02  0.49462010093E+02  0.00000000000E+00 0. -1.
<scales pt_clust_3="66.81831" pt_clust_4="66.81831" pt_clust_5="148.64027" pt_clust_6="47.83939"></scales>
<clustering>
<clus scale="   47.839">  1  6  2 -1</clus>
<clus scale="   66.818">  3  4 -1 -1</clus>
<clus scale="  148.640">  2  5  1 -1</clus>
<clus scale="   47.839">  1  3  2 -1</clus>
</clustering>
</event>
<event>
 6    0  0.6132510E+002  0.8106110E+02  0.7546771E-02  0.1326067E+00
         21   -1    0    0  504  501  0.00000000000E+00  0.00000000000E+00  0.21370098124E+04  0.21370098124E+04  0.00000000000E+00 0.  1.
         21   -1    0    0  503  502 -0.00000000000E+00 -0.00000000000E+00 -0.60511961886E+02  0.60511961886E+02  0.00000000000E+00 0.  1.
         21    1    1    2  503  505  0.96194706572E+02  0.59747021094E+02  0.72943123449E+02  0.13469902509E+03  0.00000000000E+00 0.  1.
         21    1    1    2  504  506 -0.36415685087E+02  0.13071722392E+02  0.18217882788E+04  0.18221990848E+04  0.00000000000E+00 0.  1.
         21    1    1    2  505  501 -0.32132052792E+02 -0.60546631770E+01  0.16261108435E+03  0.16586588714E+03  0.00000000000E+00 0.  1.
         21    1    1    2  506  502 -0.27646968693E+02 -0.66764080309E+02  0.19155364013E+02  0.74757777307E+02  0.00000000000E+00 0.  1.
<scales pt_clust_3="14000.00000" pt_clust_4="66.51382" pt_clust_5="32.69752" pt_clust_6="81.06110"></scales>
<clustering>
<clus scale="   32.698">  1  5  2 -1</clus>
<clus scale="   66.514">  1  4  2 -1</clus>
<clus scale="   81.061">  2  6  1 -1</clus>
<clus scale="   32.698">  1  3  2 -1</clus>
</clustering>
</event>
<event>
 6    0  0.6132510E+002  0.1044045E+03  0.7546771E-02  0.1271297E+00
         21   -1    0    0  504  501  0.00000000000E+00  0.00000000000E+00  0.65714504436E+03  0.65714504436E+03  0.00000000000E+00 0.  1.
         21   -1    0    0  503  502 -0.00000000000E+00 -0.00000000000E+00 -0.12880390119E+03  0.12880390119E+03  0.00000000000E+00 0. -1.
         21    1    1    2  503  506  0.35876094078E+02 -0.67858696499E+02 -0.87053676045E+02  0.11606136019E+03  0.00000000000E+00 0. -1.
         21    1    1    2  504  505  0.42457916966E+02  0.50004652953E+00  0.12906891901E+03  0.13587387760E+03  0.00000000000E+00 0.  1.
         21    1    1    2  505  502  0.38222041509E+02 -0.64279301861E+01  0.12822316561E+02  0.40824680594E+02  0.00000000000E+00 0.  1.
         21    1    1    2  506  501 -0.11655605255E+03  0.73786580156E+02  0.47350358364E+03  0.49318902717E+03  0.00000000000E+00 0.  1.
<scales pt_clust_3="14000.00000" pt_clust_4="43.59183" pt_clust_5="38.75878" pt_clust_6="104.40447"></scales>
<clustering>
<clus scale="   38.759">  2  5  1 -1</clus>
<clus scale="   43.592">  1  4  2 -1</clus>
<clus scale="  104.404">  1  6  2 -1</clus>
<clus scale="   43.592">  1  3  2 -1</clus>
</clustering>
</event>
<event>
 6    0  0.6132510E+002  0.7698905E+02  0.7546771E-02  0.1337820E+00
         21   -1    0    0  502  501  0.00000000000E+00  0.00000000000E+00  0.11150792310E+04  0.11150792310E+04  0.00000000000E+00 0. -1.
         21   -1    0    0  504  502 -0.00000000000E+00 -0.00000000000E+00 -0.20509111506E+03  0.20509111506E+03  0.00000000000E+00 0. -1.
         21    1    1    2  503  505 -0.72949473024E+01  0.94325731772E+02  0.42314566291E+03  0.43359291042E+03  0.00000000000E+00 0. -1.
         21    1    1    2  504  506  0.70933810662E+01 -0.40868094703E+02 -0.11197456951E+03  0.11941030707E+03  0.00000000000E+00 0. -1.
         21    1    1    2  505  501 -0.62742283114E+02 -0.52054764110E+02  0.66838562304E+03  0.67333916688E+03  0.00000000000E+00 0. -1.
         21    1    1    2  506  503  0.62943849350E+02 -0.14028729590E+01 -0.69568600493E+02  0.93827961707E+02  0.00000000000E+00 0. -1.
<scales pt_clust_3="14000.00000" pt_clust_4="41.47912" pt_clust_5="76.98905" pt_clust_6="79.50865"></scales>
<clustering>
<clus scale="   41.479">  2  4  1 -1</clus>
<clus scale="   79.509">  2  6  1 -1</clus>
<clus scale="   76.989">  1  5  2 -1</clus>
<clus scale="   76.989">  1  3  2 -1</clus>
</clustering>
</event>
<event>
 6    0  0.6132510E+002  0.6898918E+02  0.7546771E-02  0.1363564E+00
         21   -1    0    0  503  501  0.00000000000E+00  0.00000000000E+00  0.20757946126E+03  0.20757946126E+03  0.00000000000E+00 0.  1.
         21   -1    0    0  504  502 -0.00000000000E+00 -0.00000000000E+00 -0.59076068787E+03  0.59076068787E+03  0.00000000000E+00 0. -1.
         21    1    1    2  503  502 -0.71668891149E+02 -0.43961323924E+01 -0.46324733870E+03  0.46877910870E+03  0.00000000000E+00 0. -1.
         21    1    1    2  504  505  0.10203467275E+02  0.34504524519E+02 -0.78220477495E+02  0.86099454448E+02  0.00000000000E+00 0. -1.
         21    1    1    2  505  506  0.10025577103E+03 -0.10261057455E+02  0.17063404940E+03  0.19817287337E+03  0.00000000000E+00 0.  1.
         21    1    1    2  506  501 -0.38790347156E+02 -0.19847334671E+02 -0.12347459810E+02  0.45288712610E+02  0.00000000000E+00 0.  1.
<scales pt_clust_3="14000.00000" pt_clust_4="35.98156" pt_clust_5="68.98918" pt_clust_6="42.19366"></scales>
<clustering>
<clus scale="   35.982">  2  4  1 -1</clus>
<clus scale="   42.194">  1  6  2 -1</clus>
<clus scale="   68.989">  1  5  2 -1</clus>
<clus scale="   42.194">  1  3  2 -1</clus>
</clustering>
</event>
<event>
 6    0  0.6132510E+002  0.1491362E+03  0.7546771E-02  0.1201538E+00
         21   -1    0    0  503  501  0.00000000000E+00  0.00000000000E+00  0.48487916428E+02  0.48487916428E+02  0.00000000000E+00 0. -1.
         21   -1    0    0  506  502 -0.00000000000E+00 -0.00000000000E+00 -0.14236815815E+04  0.14236815815E+04  0.00000000000E+00 0. -1.
         21    1    1    2  503  502  0.15834532952E+03  0.12899277278E+03 -0.86184098423E+03  0.88571003206E+03  0.00000000000E+00 0. -1.
         21    1    1    2  504  505 -0.10658139534E+03 -0.16107512153E+02 -0.11470518826E+03  0.15740497449E+03  0.00000000000E+00 0. -1.
         21    1    1    2  505  501 -0.73393553252E+01 -0.93815075084E+02 -0.16052247984E+03  0.18607149428E+03  0.00000000000E+00 0. -1.
         21    1    1    2  506  504 -0.44424578850E+02 -0.19070185541E+02 -0.23812501278E+03  0.24298299713E+03  0.00000000000E+00 0. -1.
<scales pt_clust_3="14000.00000" pt_clust_4="149.13618" pt_clust_5="97.59558" pt_clust_6="48.34475"></scales>
<clustering>
<clus scale="   48.345">  2  6  1 -1</clus>
<clus scale="   97.596">  1  5  2 -1</clus>
<clus scale="  149.136">  1  4  2 -1</clus>
<clus scale="   97.596">  1  3  2 -1</clus>
</clustering>
</event>
<event>
 6    0  0.6132510E+002  0.1282001E+03  0.7546771E-02  0.1230151E+00
         21   -1    0    0  506  501  0.00000000000E+00  0.00000000000E+00  0.35993413721E+03  0.35993413721E+03  0.00000000000E+00 0.  1.
         21   -1    0    0  505  502 -0.00000000000E+00 -0.00000000000E+00 -0.17748875861E+03  0.17748875861E+03  0.00000000000E+00 0.  1.
         21    1    1    2  503  501  0.39681839374E+02 -0.21238381621E+01  0.22697887251E+02  0.45764103294E+02  0.00000000000E+00 0.  1.
         21    1    1    2  504  503  0.32141822948E+01  0.12342876290E+03  0.24622516054E+03  0.27544839837E+03  0.00000000000E+00 0.  1.
         21    1    1    2  505  504 -0.42096955902E+02  0.20019164169E+02  0.64654999815E+01  0.47060846999E+02  0.00000000000E+00 0.  1.
         21    1    1    2  506  502 -0.79906576700E+00 -0.14132408890E+03 -0.92943169175E+02  0.16914954717E+03  0.00000000000E+00 0.  1.
<scales pt_clust_3="39.73863" pt_clust_4="128.20007" pt_clust_5="43.61269" pt_clust_6="14000.00000"></scales>
<clustering>
<clus scale="   39.739">  1  3  2 -1</clus>
<clus scale="   43.613">  2  5  1 -1</clus>
<clus scale="  128.200">  1  4  2 -1</clus>
<clus scale="   39.739">  1  3  2 -1</clus>
</clustering>
</event>
<event>
 6    0  0.6132510E+002  0.1151249E+03  0.7546771E-02  0.1251363E+00
         21   -1    0    0  506  501  0.00000000000E+00  0.00000000000E+00  0.13462918002E+03  0.13462918002E+03  0.00000000000E+00 0.  1.
         21   -1    0    0  504  502 -0.00000000000E+00 -0.00000000000E+00 -0.58204908732E+03  0.58204908732E+03  0.00000000000E+00 0.  1.
         21    1    1    2  503  505  0.40091146310E+02 -0.27781413134E+02 -0.11478180376E+02  0.50108437941E+02  0.00000000000E+00 0.  1.
         21    1    1    2  504  503  0.14723150826E+02 -0.52883787972E+02 -0.34712562442E+02  0.64949427956E+02  0.00000000000E+00 0.  1.
         21    1    1    2  505  501 -0.34578294042E+02  0.10795659030E+03  0.67319490268E+02  0.13184156241E+03  0.00000000000E+00 0.  1.
         21    1    1    2  506  502 -0.20236003093E+02 -0.27291389191E+02 -0.46854865475E+03  0.46977883904E+03  0.00000000000E+00 0.  1.
<scales pt_clust_3="34.73171" pt_clust_4="34.73171" pt_clust_5="107.98375" pt_clust_6="33.97522"></scales>
<clustering>
<clus scale="   33.975">  2  6  1 -1</clus>
<clus scale="   34.732">  3  4 -1 -1</clus>
<clus scale="  107.984">  1  5  2 -1</clus>
<clus scale="  107.984">  1  3  2 -1</clus>
</clustering>
</event>
<event>
 6    0  0.6132510E+002  0.7247527E+02  0.7546771E-02  0.1351872E+00
         21   -1    0    0  506  501  0.00000000000E+00  0.00000000000E+00  0.59080994032E+03  0.59080994032E+03  0.00000000000E+00 0.  1.
         21   -1    0    0  505  502 -0.00000000000E+00 -0.00000000000E+00 -0.32882803283E+03  0.32882803283E+03  0.00000000000E+00 0. -1.
         21    1    1    2  503  504  0.41013988044E+02 -0.50437337452E+02  0.26848826343E+02  0.70334427562E+02  0.00000000000E+00 0.  1.
         21    1    1    2  504  501 -0.72693652933E+02 -0.48683611948E+02  0.48803132038E+03  0.49581148729E+03  0.00000000000E+00 0.  1.
         21    1    1    2  505  503  0.10005345478E+02  0.74397626835E+02 -0.29252384863E+03  0.30200217853E+03  0.00000000000E+00 0. -1.
         21    1    1    2  506  502  0.21674319412E+02  0.24723322565E+02  0.39625609389E+02  0.51489879783E+02  0.00000000000E+00 0.  1.
<scales pt_clust_3="14000.00000" pt_clust_4="59.32628" pt_clust_5="72.47527" pt_clust_6="32.87885"></scales>
<clustering>
<clus scale="   32.879">  1  6  2 -1</clus>
<clus scale="   59.326">  1  4  2 -1</clus>
<clus scale="   72.475">  2  5  1 -1</clus>
<clus scale="   32.879">  1  3  2 -1</clus>
</clustering>
</event>
<event>
 6    0  0.6132510E+002  0.1871078E+03  0.7546771E-02  0.1161096E+00
         21   -1    0    0  506  501  0.00000000000E+00  0.00000000000E+00  0.90045991369E+03  0.90045991369E+03  0.00000000000E+00 0. -1.
         21   -1    0    0  505  502 -0.00000000000E+00 -0.00000000000E+00 -0.42187823939E+03  0.42187823939E+03  0.00000000000E+00 0. -1.
         21    1    1    2  503  501  0.14625569796E+03  0.44428009130E+02  0.73599879273E+03  0.75170393114E+03  0.00000000000E+00 0. -1.
         21    1    1    2  504  502 -0.62888242197E+02  0.15777922031E+02 -0.18441081310E+02  0.67408807364E+02  0.00000000000E+00 0.  1.
         21    1    1    2  505  503 -0.10294897768E+03 -0.11169143881E+03 -0.34875651779E+03  0.38040054970E+03  0.00000000000E+00 0. -1.
         21    1    1    2  506  504  0.19581521914E+02  0.51485507649E+02  0.10978048067E+03  0.12282486488E+03  0.00000000000E+00 0. -1.
<scales pt_clust_3="14000.00000" pt_clust_4="64.65802" pt_clust_5="187.10780" pt_clust_6="55.08351"></scales>
<clustering>
<clus scale="   55.084">  1  6  2 -1</clus>
<clus scale="   64.658">  2  4  1 -1</clus>
<clus scale="  187.108">  2  5  1 -1</clus>
<clus scale="   55.084">  1  3  2 -1</clus>
</clustering>
</event>
<event>
 6    0  0.6132510E+002  0.8256995E+02  0.7546771E-02  0.1321913E+00
         21   -1    0    0  505  501  0.00000000000E+00  0.00000000000E+00  0.13103154577E+04  0.13103154577E+04  0.00000000000E+00 0. -1.
         21   -1    0    0  504  502 -0.00000000000E+00 -0.00000000000E+00 -0.86136992687E+03  0.86136992687E+03  0.00000000000E+00 0.  1.
         21    1    1    2  503  502  0.89833808353E+02 -0.43853343743E+02 -0.51354586642E+03  0.52318503973E+03  0.00000000000E+00 0.  1.
         21    1    1    2  504  506 -0.75809253527E+01  0.42626057300E+02 -0.33534867060E+03  0.33813190040E+03  0.00000000000E+00 0. -1.
         21    1    1    2  505  503 -0.12264855195E+03 -0.28581792693E+02  0.10475817069E+04  0.10551241722E+04  0.00000000000E+00 0. -1.
         21    1    1    2  506  501  0.40395668945E+02  0.29809079136E+02  0.25025836096E+03  0.25524427222E+03  0.00000000000E+00 0. -1.
<scales pt_clust_3="14000.00000" pt_clust_4="43.29493" pt_clust_5="82.56995" pt_clust_6="50.29512"></scales>
<clustering>
<clus scale="   43.295">  2  4  1 -1</clus>
<clus scale="   50.295">  1  6  2 -1</clus>
<clus scale="   82.570">  1  5  2 -1</clus>
<clus scale="   50.295">  1  3  2 -1</clus>
</clustering>
</event>
<event>
 6    0  0.6132510E+002  0.8631539E+02  0.7546771E-02  0.1312028E+00
         21   -1    0    0  505  501  0.00000000000E+00  0.00000000000E+00  0.23383641110E+03  0.23383641110E+03  0.00000000000E+00 0. -1.
         21   -1    0    0  506  502 -0.00000000000E+00 -0.00000000000E+00 -0.43541058814E+03  0.43541058814E+03  0.00000000000E+00 0.  1.
         21    1    1    2  503  502 -0.30261130819E+02  0.34189004227E+02 -0.10735748636E+03  0.11666299296E+03  0.00000000000E+00 0.  1.
         21    1    1    2  504  503 -0.49382615696E+02  0.48572651601E+02  0.37576370834E+02  0.78803101853E+02  0.00000000000E+00 0.  1.
         21    1    1    2  505  504  0.29067481345E+02  0.36827534540E+02  0.15340343421E+03  0.16041757821E+03  0.00000000000E+00 0. -1.
         21    1    1    2  506  501  0.50576265171E+02 -0.11958919037E+03 -0.28519649572E+03  0.31336332622E+03  0.00000000000E+00 0.  1.
<scales pt_clust_3="45.65768" pt_clust_4="14000.00000" pt_clust_5="47.00704" pt_clust_6="86.31539"></scales>
<clustering>
<clus scale="   45.658">  2  3  1 -1</clus>
<clus scale="   47.007">  1  5  2 -1</clus>
<clus scale="   86.315">  2  6  1 -1</clus>
<clus scale="   47.007">  1  3  2 -1</clus>
</clustering>
</event>
<event>
 6    0  0.6132510E+002  0.1175982E+03  0.7546771E-02  0.1247113E+00
         21   -1    0    0  504  501  0.00000000000E+00  0.00000000000E+00  0.55113873139E+03  0.55113873139E+03  0.00000000000E+00 0. -1.
         21   -1    0    0  505  502 -0.00000000000E+00 -0.00000000000E+00 -0.21734872046E+03  0.21734872046E+03  0.00000000000E+00 0.  1.
         21    1    1    2  503  501 -0.19964400343E+02 -0.66419278554E+02  0.99266261218E+01  0.70061656780E+02  0.00000000000E+00 0.  1.
         21    1    1    2  504  502  0.94265117980E+02  0.95563209952E+02  0.48862542531E+03  0.50672778276E+03  0.00000000000E+00 0. -1.
         21    1    1    2  505  506 -0.16814197570E+02 -0.35206858759E+02 -0.52300320049E+02  0.65250008589E+02  0.00000000000E+00 0.  1.
         21    1    1    2  506  503 -0.57486520067E+02  0.60629273607E+01 -0.11246172045E+03  0.12644800372E+03  0.00000000000E+00 0.  1.
<scales pt_clust_3="117.59817" pt_clust_4="14000.00000" pt_clust_5="39.01590" pt_clust_6="73.07513"></scales>
<clustering>
<clus scale="   39.016">  2  5  1 -1</clus>
<clus scale="   73.075">  2  6  1 -1</clus>
<clus scale="  117.598">  2  3  1 -1</clus>
<clus scale="  117.598">  1  3  2 -1</clus>
</clustering>
</event>
<event>
 6    0  0.6132510E+002  0.1587571E+03  0.7546771E-02  0.1190107E+00
         21   -1    0    0  505  501  0.00000000000E+00  0.00000000000E+00  0.11423061846E+04  0.11423061846E+04  0.00000000000E+00 0.  1.
         21   -1    0    0  504  502 -0.00000000000E+00 -0.00000000000E+00 -0.14399472341E+03  0.14399472341E+03  0.00000000000E+00 0.  1.
         21    1    1    2  503  502 -0.25245533881E+02 -0.55303844966E+02 -0.74401947549E+02  0.96080705909E+02  0.00000000000E+00 0.  1.
         21    1    1    2  504  506 -0.13568431995E+03  0.63200908879E+02  0.71151784853E+02  0.16573221187E+03  0.00000000000E+00 0.  1.
         21    1    1    2  505  503 -0.13336516148E+02 -0.32831226005E+02  0.10534833572E+03  0.11114865678E+03  0.00000000000E+00 0.  1.
         21    1    1    2  506  501  0.17426636998E+03  0.24934162092E+02  0.89621328815E+03  0.91333933343E+03  0.00000000000E+00 0.  1.
<scales pt_clust_3="61.16465" pt_clust_4="158.75708" pt_clust_5="35.43659" pt_clust_6="14000.00000"></scales>
<clustering>
<clus scale="   35.437">  1  5  2 -1</clus>
<clus scale="   61.165">  2  3  1 -1</clus>
<clus scale="  158.757">  2  4  1 -1</clus>
<clus scale="   35.437">  1  3  2 -1</clus>
</clustering>
</event>
<event>
 6    0  0.6132510E+002  0.1367609E+03  0.7546771E-02  0.1217755E+00
         21   -1    0    0  506  501  0.00000000000E+00  0.00000000000E+00  0.28480421232E+03  0.28480421232E+03  0.00000000000E+00 0.  1.
         21   -1    0    0  504  502 -0.00000000000E+00 -0.00000000000E+00 -0.58266836459E+03  0.58266836459E+03  0.00000000000E+00 0. -1.
         21    1    1    2  503  501  0.16091030022E+03 -0.11947508291E+03  0.37531355944E+02  0.20389954103E+03  0.00000000000E+00 0. -1.
         21    1    1    2  504  503 -0.24973178761E+02  0.29929069970E+02 -0.97238010147E+02  0.10475991363E+03  0.00000000000E+00 0.  1.
         21    1    1    2  505  502 -0.31896674732E+02  0.30202349407E+02 -0.37465171432E+03  0.37721808919E+03  0.00000000000E+00 0. -1.
         21    1    1    2  506  505 -0.10404044673E+03  0.59343663533E+02  0.13649421626E+03  0.18159503305E+03  0.00000000000E+00 0.  1.
<scales pt_clust_3="136.76090" pt_clust_4="38.97960" pt_clust_5="74.22628" pt_clust_6="14000.00000"></scales>
<clustering>
<clus scale="   38.980">  2  4  1 -1</clus>
<clus scale="   74.226">  2  5  1 -1</clus>
<clus scale="  136.761">  2  3  1 -1</clus>
<clus scale="  136.761">  1  3  2 -1</clus>
</clustering>
</event>
<event>
 6    0  0.6132510E+002  0.1389163E+03  0.7546771E-02  0.1214795E+00
         21   -1    0    0  506  501  0.00000000000E+00  0.00000000000E+00  0.52004956785E+03  0.52004956785E+03  0.00000000000E+00 0. -1.
         21   -1    0    0  505  502 -0.00000000000E+00 -0.00000000000E+00 -0.89388512660E+02  0.89388512660E+02  0.00000000000E+00 0. -1.
         21    1    1    2  503  501 -0.47840730474E+01  0.45669061450E+02  0.11283130479E+03  0.12181729709E+03  0.00000000000E+00 0.  1.
         21    1    1    2  504  502  0.27811386701E+02  0.15516753434E+02  0.19832185092E+02  0.37517441716E+02  0.00000000000E+00 0. -1.
         21    1    1    2  505  503  0.10200248600E+03 -0.89963106825E+02  0.11865125537E+02  0.13652343734E+03  0.00000000000E+00 0. -1.
         21    1    1    2  506  504 -0.12502979965E+03  0.28777291940E+02  0.28613243977E+03  0.31357990436E+03  0.00000000000E+00 0. -1.
<scales pt_clust_3="46.64677" pt_clust_4="31.84718" pt_clust_5="138.91633" pt_clust_6="14000.00000"></scales>
<clustering>
<clus scale="   31.847">  2  4  1 -1</clus>
<clus scale="   46.647">  1  3  2 -1</clus>
<clus scale="  138.916">  2  5  1 -1</clus>
<clus scale="   46.647">  1  3  2 -1</clus>
</clustering>
</event>
<event>
 6    0  0.6132510E+002  0.1906857E+03  0.7546771E-02  0.1157844E+00
         21   -1    0    0  505  501  0.00000000000E+00  0.00000000000E+00  0.57502837268E+03  0.57502837268E+03  0.00000000000E+00 0.  1.
         21   -1    0    0  506  502 -0.00000000000E+00 -0.00000000000E+00 -0.34774212511E+03  0.34774212511E+03  0.00000000000E+00 0.  1.
         21    1    1    2  503  501  0.15562265392E+03 -0.70998693216E+02  0.32305684095E+03  0.36554746250E+03  0.00000000000E+00 0.  1.
         21    1    1    2  504  502  0.12002418798E+02  0.30791862955E+02 -0.88459899304E+02  0.94431724892E+02  0.00000000000E+00 0.  1.
         21    1    1    2  505  504 -0.26865800336E+03  0.81399082855E+02  0.11098486120E+03  0.30186184402E+03  0.00000000000E+00 0.  1.
         21    1    1    2  506  503  0.10103293064E+03 -0.41192252594E+02 -0.11829555528E+03  0.16092946638E+03  0.00000000000E+00 0.  1.
<scales pt_clust_3="190.68568" pt_clust_4="33.04840" pt_clust_5="14000.00000" pt_clust_6="110.30780"></scales>
<clustering>
<clus scale="   33.048">  2  4  1 -1</clus>
<clus scale="  110.308">  2  6  1 -1</clus>
<clus scale="  190.686">  1  3  2 -1</clus>
<clus scale="  190.686">  1  3  2 -1</clus>
</clustering>
</event>
<event>
 6    0  0.6132510E+002  0.1413911E+03  0.7546771E-02  0.1211469E+00
         21   -1    0    0  506  501  0.00000000000E+00  0.00000000000E+00  0.80660451252E+02  0.80660451252E+02  0.00000000000E+00 0. -1.
         21   -1    0    0  503  502 -0.00000000000E+00 -0.00000000000E+00 -0.10889987376E+04  0.10889987376E+04  0.00000000000E+00 0. -1.
         21    1    1    2  503  504  0.45587322473E+02 -0.11595989946E+02 -0.20859091547E+03  0.21382899937E+03  0.00000000000E+00 0. -1.
         21    1    1    2  504  505  0.48357447768E+02 -0.27783850980E+02 -0.21645723900E+02  0.59824096258E+02  0.00000000000E+00 0. -1.
         21    1    1    2  505  501  0.72560878702E+02  0.19660818978E+02  0.22154361012E+02  0.78373749641E+02  0.00000000000E+00 0. -1.
         21    1    1    2  506  502 -0.16650564894E+03  0.19719021948E+02 -0.80025600798E+03  0.81763234357E+03  0.00000000000E+00 0. -1.
<scales pt_clust_3="47.03904" pt_clust_4="57.77183" pt_clust_5="57.77183" pt_clust_6="124.82096"></scales>
<clustering>
<clus scale="   47.039">  2  3  1 -1</clus>
<clus scale="   57.772">  4  5 -1 -1</clus>
<clus scale="  124.821">  2  6  1 -1</clus>
<clus scale="  141.391">  1  3  2 -1</clus>
</clustering>
</event>
<event>
 6    0  0.6132510E+002  0.2881922E+03  0.7546771E-02  0.1091297E+00
         21   -1    0    0  504  501  0.00000000000E+00  0.00000000000E+00  0.23818503076E+03  0.23818503076E+03  0.00000000000E+00 0. -1.
         21   -1    0    0  505  502 -0.00000000000E+00 -0.00000000000E+00 -0.22127523015E+04  0.22127523015E+04  0.00000000000E+00 0. -1.
         21    1    1    2  503  501 -0.77091964746E+02 -0.53841556819E+02  0.10385241405E+03  0.14009785213E+03  0.00000000000E+00 0. -1.
         21    1    1    2  504  502 -0.47888274843E+02  0.36633328149E+03 -0.13112768361E+04  0.13623289988E+04  0.00000000000E+00 0. -1.
         21    1    1    2  505  506 -0.20085321671E+02 -0.92312841021E+02 -0.65534008644E+03  0.66211457442E+03  0.00000000000E+00 0. -1.
         21    1    1    2  506  503  0.14506556126E+03 -0.22017888365E+03 -0.11180276225E+03  0.28639590695E+03  0.00000000000E+00 0. -1.
<scales pt_clust_3="94.03236" pt_clust_4="14000.00000" pt_clust_5="96.50182" pt_clust_6="288.19222"></scales>
<clustering>
<clus scale="   94.032">  1  3  2 -1</clus>
<clus scale="   96.502">  2  5  1 -1</clus>
<clus scale="  288.192">  1  6  2 -1</clus>
<clus scale="   94.032">  1  3  2 -1</clus>
</clustering>
</event>
<event>
 6    0  0.6132510E+002  0.1587511E+03  0.7546771E-02  0.1190114E+00
         21   -1    0    0  504  501  0.00000000000E+00  0.00000000000E+00  0.74741630673E+03  0.74741630673E+03  0.00000000000E+00 0.  1.
         21   -1    0    0  501  502 -0.00000000000E+00 -0.00000000000E+00 -0.20089058415E+03  0.20089058415E+03  0.00000000000E+00 0.  1.
         21    1    1    2  503  506  0.39234484895E+02  0.12810356398E+02  0.94913612491E+02  0.10349900421E+03  0.00000000000E+00 0. -1.
         21    1    1    2  504  505  0.49987944315E+02 -0.31983436390E+02  0.24800607001E+03  0.25500734409E+03  0.00000000000E+00 0.  1.
         21    1    1    2  505  503  0.65152631743E+02  0.42809352094E+02  0.36025945826E+03  0.36859786125E+03  0.00000000000E+00 0.  1.
         21    1    1    2  506  502 -0.15437506095E+03 -0.23636272102E+02 -0.15665341818E+03  0.22120268134E+03  0.00000000000E+00 0.  1.
<scales pt_clust_3="30.02414" pt_clust_4="59.34421" pt_clust_5="30.02414" pt_clust_6="153.29446"></scales>
<clustering>
<clus scale="   30.024">  3  5 -1 -1</clus>
<clus scale="   59.344">  1  4  2 -1</clus>
<clus scale="  153.294">  2  6  1 -1</clus>
<clus scale="   59.344">  1  3  2 -1</clus>
</clustering>
</event>
<event>
 6    0  0.6132510E+002  0.1051767E+03  0.7546771E-02  0.1269772E+00
         21   -1    0    0  503  501  0.00000000000E+00  0.00000000000E+00  0.85541908826E+02  0.85541908826E+02  0.00000000000E+00 0. -1.
         21   -1    0    0  505  502 -0.00000000000E+00 -0.00000000000E+00 -0.35116820885E+03  0.35116820885E+03  0.00000000000E+00 0. -1.
         21    1    1    2  503  502 -0.50030875917E+02  0.13732541587E+02 -0.40492667999E+02  0.65812820978E+02  0.00000000000E+00 0. -1.
         21    1    1    2  504  506  0.57360158115E+02  0.64640428644E+02 -0.16519758210E+03  0.18643715800E+03  0.00000000000E+00 0. -1.
         21    1    1    2  505  504  0.56955270035E+02  0.14205348185E+02 -0.37159242817E+02  0.69473045338E+02  0.00000000000E+00 0. -1.
         21    1    1    2  506  501 -0.64284552233E+02 -0.92578318415E+02 -0.22776807113E+02  0.11498709336E+03  0.00000000000E+00 0. -1.
<scales pt_clust_3="51.88132" pt_clust_4="105.17672" pt_clust_5="50.81401" pt_clust_6="14000.00000"></scales>
<clustering>
<clus scale="   51.881">  2  3  1 -1</clus>
<clus scale="   50.814">  2  5  1 -1</clus>
<clus scale="  105.177">  2  4  1 -1</clus>
<clus scale="  105.177">  1  3  2 -1</clus>
</clustering>
</event>
<event>
 6    0  0.6132510E+002  0.1128858E+03  0.7546771E-02  0.1255317E+00
         21   -1    0    0  504  501  0.00000000000E+00  0.00000000000E+00  0.58090266534E+02  0.58090266534E+02  0.00000000000E+00 0. -1.
         21   -1    0    0  506  502 -0.00000000000E+00 -0.00000000000E+00 -0.10419571698E+04  0.10419571698E+04  0.00000000000E+00 0. -1.
         21    1    1    2  503  501 -0.85935752459E+02 -0.17684830956E+02 -0.70920567720E+02  0.11281592850E+03  0.00000000000E+00 0. -1.
         21    1    1    2  504  502  0.14441539739E+03 -0.10234605598E+03 -0.38695553672E+03  0.42551746096E+03  0.00000000000E+00 0. -1.
         21    1    1    2  505  503 -0.44617146565E+01  0.89223125338E+02 -0.11290098222E+03  0.14396980509E+03  0.00000000000E+00 0. -1.
         21    1    1    2  506  505 -0.54017930274E+02  0.30807761598E+02 -0.41308981662E+03  0.41774424181E+03  0.00000000000E+00 0. -1.
<scales pt_clust_3="94.77546" pt_clust_4="112.88579" pt_clust_5="14000.00000" pt_clust_6="62.18565"></scales>
<clustering>
<clus scale="   62.186">  2  6  1 -1</clus>
<clus scale="   94.775">  1  3  2 -1</clus>
<clus scale="  112.886">  2  4  1 -1</clus>
<clus scale="   94.775">  1  3  2 -1</clus>
</clustering>
</event>
<event>
 6    0  0.6132510E+002  0.7867062E+02  0.7546771E-02  0.1332867E+00
         21   -1    0    0  502  501  0.00000000000E+00  0.00000000000E+00  0.73967864472E+03  0.73967864472E+03  0.00000000000E+00 0. -1.
         21   -1    0    0  504  502 -0.00000000000E+00 -0.00000000000E+00 -0.63166506406E+03  0.63166506406E+03  0.00000000000E+00 0. -1.
         21    1    1    2  503  501  0.70050568126E+02  0.13387868601E+02  0.48108494730E+03  0.48634251679E+03  0.00000000000E+00 0. -1.
         21    1    1    2  504  506  0.35103940788E+02 -0.26130870337E+02 -0.45218586737E+03  0.45429854468E+03  0.00000000000E+00 0. -1.
         21    1    1    2  505  503 -0.11262338122E+03 -0.33153441590E+02  0.23787678571E+03  0.26527069545E+03  0.00000000000E+00 0. -1.
         21    1    1    2  506  505  0.74688723074E+01  0.45896443326E+02 -0.15876228498E+03  0.16543195186E+03  0.00000000000E+00 0. -1.
<scales pt_clust_3="78.67062" pt_clust_4="43.76196" pt_clust_5="14000.00000" pt_clust_6="45.16841"></scales>
<clustering>
<clus scale="   43.762">  2  4  1 -1</clus>
<clus scale="   45.168">  2  6  1 -1</clus>
<clus scale="   78.671">  1  3  2 -1</clus>
<clus scale="   78.671">  1  3  2 -1</clus>
</clustering>
</event>
<event>
 6    0  0.6132510E+002  0.8750921E+02  0.7546771E-02  0.1308998E+00
         21   -1    0    0  503  501  0.00000000000E+00  0.00000000000E+00  0.15661223248E+03  0.15661223248E+03  0.00000000000E+00 0.  1.
         21   -1    0    0  504  502 -0.00000000000E+00 -0.00000000000E+00 -0.79090601030E+03  0.79090601030E+03  0.00000000000E+00 0. -1.
         21    1    1    2  503  506 -0.16348520512E+02  0.45384718773E+02  0.67513042206E+02  0.82976247739E+02  0.00000000000E+00 0.  1.
         21    1    1    2  504  501  0.52260353317E+02  0.33680298375E+02  0.47545634029E+02  0.78269370399E+02  0.00000000000E+00 0.  1.
         21    1    1    2  505  502 -0.94333437993E+02 -0.10896031701E+02 -0.62897641509E+03  0.63610443464E+03  0.00000000000E+00 0. -1.
         21    1    1    2  506  505  0.58421605188E+02 -0.68168985447E+02 -0.12037603897E+03  0.15016819000E+03  0.00000000000E+00 0.  1.
<scales pt_clust_3="48.23947" pt_clust_4="79.36570" pt_clust_5="87.50921" pt_clust_6="14000.00000"></scales>
<clustering>
<clus scale="   48.239">  1  3  2 -1</clus>
<clus scale="   79.366">  1  4  2 -1</clus>
<clus scale="   87.509">  2  5  1 -1</clus>
<clus scale="   48.239">  1  3  2 -1</clus>
</clustering>
</event>
<event>
 6    0  0.6132510E+002  0.1030968E+03  0.7546771E-02  0.1273915E+00
         21   -1    0    0  505  501  0.00000000000E+00  0.00000000000E+00  0.64678934913E+03  0.64678934913E+03  0.00000000000E+00 0.  1.
         21   -1    0    0  503  502 -0.00000000000E+00 -0.00000000000E+00 -0.83427966426E+03  0.83427966426E+03  0.00000000000E+00 0. -1.
         21    1    1    2  503  506 -0.48166662037E+02  0.71802591104E+01 -0.19758484860E+02  0.52554554290E+02  0.00000000000E+00 0.  1.
         21    1    1    2  504  502 -0.30723819020E+02  0.78832585559E+02 -0.38599137156E+03  0.39515549916E+03  0.00000000000E+00 0. -1.
         21    1    1    2  505  504 -0.22972577524E+02 -0.10567870526E+03 -0.39594791759E+03  0.41045155806E+03  0.00000000000E+00 0. -1.
         21    1    1    2  506  501  0.10186305858E+03  0.19665860594E+02  0.61420745888E+03  0.62290740188E+03  0.00000000000E+00 0.  1.
<scales pt_clust_3="48.69891" pt_clust_4="98.63497" pt_clust_5="103.09677" pt_clust_6="14000.00000"></scales>
<clustering>
<clus scale="   48.699">  2  3  1 -1</clus>
<clus scale="   98.635">  2  4  1 -1</clus>
<clus scale="  103.097">  2  5  1 -1</clus>
<clus scale="  103.097">  1  3  2 -1</clus>
</clustering>
</event>
<event>
 6    0  0.6132510E+002  0.1462805E+03  0.7546771E-02  0.1205119E+00
         21   -1    0    0  502  501  0.00000000000E+00  0.00000000000E+00  0.97162756016E+03  0.97162756016E+03  0.00000000000E+00 0.  1.
         21   -1    0    0  505  502 -0.00000000000E+00 -0.00000000000E+00 -0.36964411077E+03  0.36964411077E+03  0.00000000000E+00 0.  1.
         21    1    1    2  503  501  0.18204366548E+03 -0.13463116727E+02  0.73771978470E+03  0.75996817854E+03  0.00000000000E+00 0.  1.
         21    1    1    2  504  506 -0.27596432063E+02  0.63088835018E+02 -0.40303890458E+01  0.68978316900E+02  0.00000000000E+00 0.  1.
         21    1    1    2  505  504 -0.55447556231E+02 -0.15788449737E+02 -0.30472651794E+03  0.31013216114E+03  0.00000000000E+00 0.  1.
         21    1    1    2  506  503 -0.98999677182E+02 -0.33837268554E+02  0.17302057169E+03  0.20219301435E+03  0.00000000000E+00 0.  1.
<scales pt_clust_3="146.28050" pt_clust_4="80.70170" pt_clust_5="57.65160" pt_clust_6="14000.00000"></scales>
<clustering>
<clus scale="   57.652">  2  5  1 -1</clus>
<clus scale="   80.702">  2  4  1 -1</clus>
<clus scale="  146.280">  1  3  2 -1</clus>
<clus scale="  146.280">  1  3  2 -1</clus>
</clustering>
</event>
<event>
 6    0  0.6132510E+002  0.1027338E+03  0.7546771E-02  0.1274650E+00
         21   -1    0    0  505  501  0.00000000000E+00  0.00000000000E+00  0.15543892031E+03  0.15543892031E+03  0.00000000000E+00 0.  1.
         21   -1    0    0  503  502 -0.00000000000E+00 -0.00000000000E+00 -0.50264448525E+03  0.50264448525E+03  0.00000000000E+00 0.  1.
         21    1    1    2  503  506  0.40735625163E+01 -0.41245882097E+02 -0.27723590013E+03  0.28031689393E+03  0.00000000000E+00 0.  1.
         21    1    1    2  504  502  0.10317483815E+03  0.14366822327E+02 -0.18000813110E+03  0.20797687389E+03  0.00000000000E+00 0.  1.
         21    1    1    2  505  504 -0.37958545837E+02  0.32279585268E+02  0.14973958765E+02  0.52029244356E+02  0.00000000000E+00 0. -1.
         21    1    1    2  506  501 -0.69289854825E+02 -0.54005254985E+01  0.95064507533E+02  0.11776039338E+03  0.00000000000E+00 0.  1.
<scales pt_clust_3="41.44655" pt_clust_4="102.73375" pt_clust_5="47.41959" pt_clust_6="14000.00000"></scales>
<clustering>
<clus scale="   41.447">  2  3  1 -1</clus>
<clus scale="   47.420">  1  5  2 -1</clus>
<clus scale="  102.734">  2  4  1 -1</clus>
<clus scale="   47.420">  1  3  2 -1</clus>
</clustering>
</event>
<event>
 6    0  0.6132510E+002  0.1037970E+03  0.7546771E-02  0.1272508E+00
         21   -1    0    0  505  501  0.00000000000E+00  0.00000000000E+00  0.10050415486E+03  0.10050415486E+03  0.00000000000E+00 0.  1.
         21   -1    0    0  504  502 -0.00000000000E+00 -0.00000000000E+00 -0.29403750046E+03  0.29403750046E+03  0.00000000000E+00 0.  1.
         21    1    1    2  503  506 -0.31722378855E+02 -0.85324487396E+02 -0.11381227859E+03  0.14573884941E+03  0.00000000000E+00 0.  1.
         21    1    1    2  504  501  0.36742043180E+02  0.66221053901E+02  0.37099689094E+02  0.84330259383E+02  0.00000000000E+00 0.  1.
         21    1    1    2  505  503 -0.53595574666E+02 -0.15683196994E+02 -0.61099945815E+02  0.82774704291E+02  0.00000000000E+00 0.  1.
         21    1    1    2  506  502  0.48575910341E+02  0.34786630488E+02 -0.55720810288E+02  0.81697842232E+02  0.00000000000E+00 0.  1.
<scales pt_clust_3="50.41034" pt_clust_4="81.43324" pt_clust_5="50.41034" pt_clust_6="59.74721"></scales>
<clustering>
<clus scale="   50.410">  3  5 -1 -1</clus>
<clus scale="   59.747">  2  6  1 -1</clus>
<clus scale="   81.433">  1  4  2 -1</clus>
<clus scale="   81.433">  1  3  2 -1</clus>
</clustering>
</event>
<event>
 6    0  0.6132510E+002  0.2208842E+03  0.7546771E-02  0.1133226E+00
         21   -1    0    0  504  501  0.00000000000E+00  0.00000000000E+00  0.16365468249E+04  0.16365468249E+04  0.00000000000E+00 0. -1.
         21   -1    0    0  506  502 -0.00000000000E+00 -0.00000000000E+00 -0.11686156722E+03  0.11686156722E+03  0.00000000000E+00 0. -1.
         21    1    1    2  503  502 -0.12684090184E+03  0.18845986805E+03  0.78253367430E+02  0.24026927760E+03  0.00000000000E+00 0. -1.
         21    1    1    2  504  505  0.29912308328E+02 -0.50326353607E+02  0.20888379725E+03  0.21693300536E+03  0.00000000000E+00 0. -1.
         21    1    1    2  505  503  0.22777182071E+02 -0.14488428062E+03  0.12093601801E+04  0.12182209570E+04  0.00000000000E+00 0. -1.
         21    1    1    2  506  501  0.74151411437E+02  0.67507661718E+01  0.23187912944E+02  0.77985152232E+02  0.00000000000E+00 0. -1.
<scales pt_clust_3="203.52467" pt_clust_4="54.23054" pt_clust_5="54.23054" pt_clust_6="74.45807"></scales>
<clustering>
<clus scale="   54.231">  4  5 -1 -1</clus>
<clus scale="   74.458">  2  6  1 -1</clus>
<clus scale="  203.525">  2  3  1 -1</clus>
<clus scale="  220.884">  1  3  2 -1</clus>
</clustering>
</event>
<event>
 6    0  0.6132510E+002  0.9663853E+02  0.7546771E-02  0.1287528E+00
         21   -1    0    0  506  501  0.00000000000E+00  0.00000000000E+00  0.56174552763E+02  0.56174552763E+02  0.00000000000E+00 0.  1.
         21   -1    0    0  504  502 -0.00000000000E+00 -0.00000000000E+00 -0.97493438374E+03  0.97493438374E+03  0.00000000000E+00 0. -1.
         21    1    1    2  503  502  0.34453865039E+02 -0.27442556783E+02 -0.64334700010E+03  0.64485310365E+03  0.00000000000E+00 0. -1.
         21    1    1    2  504  505  0.38497801727E+02  0.10879165411E+01 -0.88820905603E+02  0.96811247137E+02  0.00000000000E+00 0.  1.
         21    1    1    2  505  501  0.60152119723E+02 -0.40278824868E+02 -0.58854030508E+02  0.93297685647E+02  0.00000000000E+00 0. -1.
         21    1    1    2  506  503 -0.13310378649E+03  0.66633465109E+02 -0.12773789476E+03  0.19614690007E+03  0.00000000000E+00 0.  1.
<scales pt_clust_3="68.00276" pt_clust_4="38.51317" pt_clust_5="14000.00000" pt_clust_6="96.63853"></scales>
<clustering>
<clus scale="   38.513">  2  4  1 -1</clus>
<clus scale="   68.003">  2  3  1 -1</clus>
<clus scale="   96.639">  2  6  1 -1</clus>
<clus scale="   96.639">  1  3  2 -1</clus>
</clustering>
</event>
<event>
 6    0  0.6132510E+002  0.9356374E+02  0.7546771E-02  0.1294444E+00
         21   -1    0    0  505  501  0.00000000000E+00  0.00000000000E+00  0.10875249347E+03  0.10875249347E+03  0.00000000000E+00 0.  1.
         21   -1    0    0  503  502 -0.00000000000E+00 -0.00000000000E+00 -0.56854121970E+03  0.56854121970E+03  0.00000000000E+00 0.  1.
         21    1    1    2  503  501  0.14513668874E+03  0.28178145249E+02 -0.15797547666E+02  0.14868836135E+03  0.00000000000E+00 0.  1.
         21    1    1    2  504  502 -0.55093841448E+02 -0.33348926956E+01 -0.41226055349E+03  0.41593895807E+03  0.00000000000E+00 0.  1.
         21    1    1    2  505  506 -0.37242160500E+02 -0.27220429979E+01  0.13500125722E+02  0.39706944371E+02  0.00000000000E+00 0.  1.
         21    1    1    2  506  504 -0.52800686790E+02 -0.22121209556E+02 -0.45230750791E+02  0.72959449387E+02  0.00000000000E+00 0.  1.
<scales pt_clust_3="14000.00000" pt_clust_4="56.03064" pt_clust_5="37.34151" pt_clust_6="93.56374"></scales>
<clustering>
<clus scale="   37.342">  1  5  2 -1</clus>
<clus scale="   56.031">  2  4  1 -1</clus>
<clus scale="   93.564">  2  6  1 -1</clus>
<clus scale="   37.342">  1  3  2 -1</clus>
</clustering>
</event>
<event>
 6    0  0.6132510E+002  0.1543256E+03  0.7546771E-02  0.1195256E+00
         21   -1    0    0  503  501  0.00000000000E+00  0.00000000000E+00  0.16822232931E+03  0.16822232931E+03  0.00000000000E+00 0.  1.
         21   -1    0    0  504  502 -0.00000000000E+00 -0.00000000000E+00 -0.26516417163E+03  0.26516417163E+03  0.00000000000E+00 0. -1.
         21    1    1    2  503  506 -0.41570821487E+02  0.11007514747E+02  0.39580287791E+02  0.58445682147E+02  0.00000000000E+00 0.  1.
         21    1    1    2  504  501  0.90150281231E+02  0.11536377229E+03  0.29360736371E+02  0.14932490081E+03  0.00000000000E+00 0.  1.
         21    1    1    2  505  502 -0.88299686335E+01 -0.93569415946E+02 -0.13815825524E+03  0.16709550394E+03  0.00000000000E+00 0. -1.
         21    1    1    2  506  505 -0.39749491111E+02 -0.32801871090E+02 -0.27724611246E+02  0.58520414040E+02  0.00000000000E+00 0. -1.
<scales pt_clust_3="43.00347" pt_clust_4="136.96952" pt_clust_5="54.58036" pt_clust_6="54.58036"></scales>
<clustering>
<clus scale="   43.003">  1  3  2 -1</clus>
<clus scale="   54.580">  5  6 -1 -1</clus>
<clus scale="  136.970">  1  4  2 -1</clus>
<clus scale="   43.003">  1  3  2 -1</clus>
</clustering>
</event>
<event>
 6    0  0.6132510E+002  0.9852778E+02  0.7546771E-02  0.1283423E+00
         21   -1    0    0  504  501  0.00000000000E+00  0.00000000000E+00  0.62943100255E+03  0.62943100255E+03  0.00000000000E+00 0.  1.
         21   -1    0    0  505  502 -0.00000000000E+00 -0.00000000000E+00 -0.73530913893E+03  0.73530913893E+03  0.00000000000E+00 0. -1.
         21    1    1    2  503  506 -0.92937342005E+02  0.24314024472E+02 -0.20559625642E+03  0.22693246127E+03  0.00000000000E+00 0. -1.
         21    1    1    2  504  502  0.29399370154E+02  0.19306551358E+02  0.31308291144E+02  0.47087949469E+02  0.00000000000E+00 0.  1.
         21    1    1    2  505  503  0.16525924935E+02  0.39253595498E+02 -0.50633887642E+03  0.50812696123E+03  0.00000000000E+00 0. -1.
         21    1    1    2  506  501  0.47012046915E+02 -0.82874171327E+02  0.57474870531E+03  0.58259276951E+03  0.00000000000E+00 0.  1.
<scales pt_clust_3="98.52778" pt_clust_4="35.17195" pt_clust_5="42.63475" pt_clust_6="14000.00000"></scales>
<clustering>
<clus scale="   35.172">  1  4  2 -1</clus>
<clus scale="   42.635">  2  5  1 -1</clus>
<clus scale="   98.528">  2  3  1 -1</clus>
<clus scale="   35.172">  1  3  2 -1</clus>
</clustering>
</event>
<event>
 6    0  0.6132510E+002  0.3120035E+03  0.7546771E-02  0.1079390E+00
         21   -1    0    0  506  501  0.00000000000E+00  0.00000000000E+00  0.80110720087E+03  0.80110720087E+03  0.00000000000E+00 0.  1.
         21   -1    0    0  504  502 -0.00000000000E+00 -0.00000000000E+00 -0.23906405781E+03  0.23906405781E+03  0.00000000000E+00 0. -1.
         21    1    1    2  503  505 -0.31773468081E+03 -0.12061414811E+03  0.11102544556E+02  0.34003877222E+03  0.00000000000E+00 0. -1.
         21    1    1    2  504  501  0.23290882313E+03  0.16418574237E+03  0.49027783367E+03  0.56707656633E+03  0.00000000000E+00 0.  1.
         21    1    1    2  505  502  0.30554292182E+02 -0.74152107580E+01 -0.13572115755E+02  0.34245473386E+02  0.00000000000E+00 0.  1.
         21    1    1    2  506  503  0.54271565498E+02 -0.36156383501E+02  0.74234880584E+02  0.98810446739E+02  0.00000000000E+00 0.  1.
<scales pt_clust_3="312.00351" pt_clust_4="14000.00000" pt_clust_5="31.44122" pt_clust_6="66.90248"></scales>
<clustering>
<clus scale="   31.441">  2  5  1 -1</clus>
<clus scale="   66.902">  1  6  2 -1</clus>
<clus scale="  312.004">  2  3  1 -1</clus>
<clus scale="   66.902">  1  3  2 -1</clus>
</clustering>
</event>
<event>
 6    0  0.6132510E+002  0.7190852E+02  0.7546771E-02  0.1353721E+00
         21   -1    0    0  504  501  0.00000000000E+00  0.00000000000E+00  0.32778546908E+03  0.32778546908E+03  0.00000000000E+00 0. -1.
         21   -1    0    0  505  502 -0.00000000000E+00 -0.00000000000E+00 -0.27596066014E+03  0.27596066014E+03  0.00000000000E+00 0.  1.
         21    1    1    2  503  502  0.74688371237E+02  0.84752372310E+02 -0.78487902296E+02  0.13755605482E+03  0.00000000000E+00 0.  1.
         21    1    1    2  504  503  0.31874886552E+02  0.14094628525E+01  0.10894813650E+03  0.11352396851E+03  0.00000000000E+00 0. -1.
         21    1    1    2  505  506 -0.40373649532E+02 -0.29060245077E+02 -0.15122733728E+03  0.15919873417E+03  0.00000000000E+00 0.  1.
         21    1    1    2  506  501 -0.66189608257E+02 -0.57101590085E+02  0.17259191201E+03  0.19346737173E+03  0.00000000000E+00 0. -1.
<scales pt_clust_3="14000.00000" pt_clust_4="31.90603" pt_clust_5="49.25438" pt_clust_6="71.90852"></scales>
<clustering>
<clus scale="   31.906">  1  4  2 -1</clus>
<clus scale="   49.254">  2  5  1 -1</clus>
<clus scale="   71.909">  1  6  2 -1</clus>
<clus scale="   31.906">  1  3  2 -1</clus>
</clustering>
</event>
<event>
 6    0  0.6132510E+002  0.1286295E+03  0.7546771E-02  0.1229504E+00
         21   -1    0    0  503  501  0.00000000000E+00  0.00000000000E+00  0.12962701433E+04  0.12962701433E+04  0.00000000000E+00 0. -1.
         21   -1    0    0  505  502 -0.00000000000E+00 -0.00000000000E+00 -0.33769052289E+02  0.33769052289E+02  0.00000000000E+00 0. -1.
         21    1    1    2  503  504  0.46462004546E+02  0.20657975100E+01  0.23852280048E+03  0.24301463276E+03  0.00000000000E+00 0. -1.
         21    1    1    2  504  502  0.48397682847E+02  0.15155617110E+03  0.52493864508E+03  0.54851817636E+03  0.00000000000E+00 0. -1.
         21    1    1    2  505  506 -0.40179570223E+02 -0.53248389459E+02  0.80024739883E+02  0.10418132192E+03  0.00000000000E+00 0. -1.
         21    1    1    2  506  501 -0.54680117171E+02 -0.10037357915E+03  0.41901490552E+03  0.43432506450E+03  0.00000000000E+00 0. -1.
<scales pt_clust_3="46.50791" pt_clust_4="128.62947" pt_clust_5="64.19707" pt_clust_6="14000.00000"></scales>
<clustering>
<clus scale="   46.508">  1  3  2 -1</clus>
<clus scale="   64.197">  2  5  1 -1</clus>
<clus scale="  128.629">  2  4  1 -1</clus>
<clus scale="   46.508">  1  3  2 -1</clus>
</clustering>
</event>
<event>
 6    0  0.6132510E+002  0.1060780E+03  0.7546771E-02  0.1268010E+00
         21   -1    0    0  503  501  0.00000000000E+00  0.00000000000E+00  0.29936463323E+03  0.29936463323E+03  0.00000000000E+00 0.  1.
         21   -1    0    0  505  502 -0.00000000000E+00 -0.00000000000E+00 -0.86058602545E+02  0.86058602545E+02  0.00000000000E+00 0.  1.
         21    1    1    2  503  504  0.38885996731E+02  0.26893849725E+02  0.74868703250E+02  0.88547854978E+02  0.00000000000E+00 0.  1.
         21    1    1    2  504  506  0.47530080705E+02 -0.17935189495E+02  0.98500561559E+02  0.11082932925E+03  0.00000000000E+00 0.  1.
         21    1    1    2  505  501 -0.11653946443E+03 -0.43927539421E+02  0.56830402294E+02  0.13689693245E+03  0.00000000000E+00 0.  1.
         21    1    1    2  506  502  0.30123386998E+02  0.34968879191E+02 -0.16893636422E+02  0.49149119094E+02  0.00000000000E+00 0.  1.
<scales pt_clust_3="44.69436" pt_clust_4="44.69436" pt_clust_5="95.42633" pt_clust_6="46.15453"></scales>
<clustering>
<clus scale="   44.694">  3  4 -1 -1</clus>
<clus scale="   46.155">  2  6  1 -1</clus>
<clus scale="   95.426">  2  5  1 -1</clus>
<clus scale="  106.078">  1  3  2 -1</clus>
</clustering>
</event>
<event>
 6    0  0.6132510E+002  0.1335556E+03  0.7546771E-02  0.1222273E+00
         21   -1    0    0  506  501  0.00000000000E+00  0.00000000000E+00  0.41452250164E+02  0.41452250164E+02  0.00000000000E+00 0. -1.
         21   -1    0    0  505  502 -0.00000000000E+00 -0.00000000000E+00 -0.63558417118E+03  0.63558417118E+03  0.00000000000E+00 0. -1.
         21    1    1    2  503  502  0.35307137403E+02 -0.24082357563E+02 -0.13526444711E+03  0.14185564687E+03  0.00000000000E+00 0. -1.
         21    1    1    2  504  503  0.56986144764E+02 -0.61444052933E+02 -0.10063312609E+03  0.13095731519E+03  0.00000000000E+00 0. -1.
         21    1    1    2  505  501 -0.11149392210E+03  0.50091992796E+02 -0.33739353344E+03  0.35885163900E+03  0.00000000000E+00 0. -1.
         21    1    1    2  506  504  0.19200639931E+02  0.35434417701E+02 -0.20840814379E+02  0.45371820280E+02  0.00000000000E+00 0. -1.
<scales pt_clust_3="38.76402" pt_clust_4="38.76402" pt_clust_5="122.02734" pt_clust_6="40.30214"></scales>
<clustering>
<clus scale="   38.764">  3  4 -1 -1</clus>
<clus scale="   40.302">  1  6  2 -1</clus>
<clus scale="  122.027">  2  5  1 -1</clus>
<clus scale="   40.302">  1  3  2 -1</clus>
</clustering>
</event>
<event>
 6    0  0.6132510E+002  0.1367748E+03  0.7546771E-02  0.1217736E+00
         21   -1    0    0  506  501  0.00000000000E+00  0.00000000000E+00  0.41876571831E+03  0.41876571831E+03  0.00000000000E+00 0. -1.
         21   -1    0    0  505  502 -0.00000000000E+00 -0.00000000000E+00 -0.35277562638E+03  0.35277562638E+03  0.00000000000E+00 0. -1.
         21    1    1    2  503  501 -0.25912549227E+02  0.41506854184E+02  0.24110450296E+03  0.24601963438E+03  0.00000000000E+00 0. -1.
         21    1    1    2  504  502 -0.94473830327E+02 -0.79687830005E+02  0.11196138540E+03  0.16676572396E+03  0.00000000000E+00 0. -1.
         21    1    1    2  505  503  0.11776494405E+03  0.72667903409E+02 -0.29265511498E+03  0.32372244679E+03  0.00000000000E+00 0. -1.
         21    1    1    2  506  504  0.26214355004E+01 -0.34486927589E+02  0.55793185525E+01  0.35033539560E+02  0.00000000000E+00 0. -1.
<scales pt_clust_3="31.75251" pt_clust_4="136.77478" pt_clust_5="14000.00000" pt_clust_6="34.58641"></scales>
<clustering>
<clus scale="   34.586">  1  6  2 -1</clus>
<clus scale="   31.753">  1  3  2 -1</clus>
<clus scale="  136.775">  1  4  2 -1</clus>
<clus scale="   34.586">  1  3  2 -1</clus>
</clustering>
</event>
<event>
 6    0  0.6132510E+002  0.1268280E+03  0.7546771E-02  0.1232240E+00
         21   -1    0    0  506  501  0.00000000000E+00  0.00000000000E+00  0.43334930755E+03  0.43334930755E+03  0.00000000000E+00 0.  1.
         21   -1    0    0  503  502 -0.00000000000E+00 -0.00000000000E+00 -0.20182098050E+03  0.20182098050E+03  0.00000000000E+00 0.  1.
         21    1    1    2  503  501 -0.30664794133E+02 -0.21869758147E+02 -0.35845227140E+02  0.51995155826E+02  0.00000000000E+00 0.  1.
         21    1    1    2  504  502  0.11230885082E+03  0.99557338392E+02 -0.10977952434E+03  0.18594753444E+03  0.00000000000E+00 0.  1.
         21    1    1    2  505  504 -0.45703326237E+02 -0.65111179948E+02  0.30985835591E+03  0.31990695602E+03  0.00000000000E+00 0.  1.
         21    1    1    2  506  505 -0.35940730448E+02 -0.12576400297E+02  0.67294722625E+02  0.77320641764E+02  0.00000000000E+00 0.  1.
<scales pt_clust_3="37.66452" pt_clust_4="115.07014" pt_clust_5="36.89727" pt_clust_6="36.89727"></scales>
<clustering>
<clus scale="   36.897">  5  6 -1 -1</clus>
<clus scale="   37.665">  2  3  1 -1</clus>
<clus scale="  115.070">  2  4  1 -1</clus>
<clus scale="  126.828">  1  3  2 -1</clus>
</clustering>
</event>
<event>
 6    0  0.6132510E+002  0.1094991E+03  0.7546771E-02  0.1261500E+00
         21   -1    0    0  505  501  0.00000000000E+00  0.00000000000E+00  0.10357922258E+03  0.10357922258E+03  0.00000000000E+00 0.  1.
         21   -1    0    0  504  502 -0.00000000000E+00 -0.00000000000E+00 -0.54315645087E+03  0.54315645087E+03  0.00000000000E+00 0. -1.
         21    1    1    2  503  501 -0.28134520879E+02 -0.94332117501E+02  0.92114583442E+01  0.98868349952E+02  0.00000000000E+00 0.  1.
         21    1    1    2  504  503 -0.44733542646E+02 -0.57586686042E+02 -0.94695978270E+02  0.11951838581E+03  0.00000000000E+00 0. -1.
         21    1    1    2  505  506  0.20855107943E+02  0.18006341816E+03 -0.25311569621E+03  0.31132832469E+03  0.00000000000E+00 0. -1.
         21    1    1    2  506  502  0.52012955582E+02 -0.28144614617E+02 -0.10097701216E+03  0.11702061299E+03  0.00000000000E+00 0.  1.
<scales pt_clust_3="109.49909" pt_clust_4="71.98507" pt_clust_5="14000.00000" pt_clust_6="59.13939"></scales>
<clustering>
<clus scale="   59.139">  2  6  1 -1</clus>
<clus scale="   71.985">  2  4  1 -1</clus>
<clus scale="  109.499">  1  3  2 -1</clus>
<clus scale="  109.499">  1  3  2 -1</clus>
</clustering>
</event>
<event>
 6    0  0.6132510E+002  0.1188577E+03  0.7546771E-02  0.1244994E+00
         21   -1    0    0  504  501  0.00000000000E+00  0.00000000000E+00  0.92361199379E+03  0.92361199379E+03  0.00000000000E+00 0. -1.
         21   -1    0    0  506  502 -0.00000000000E+00 -0.00000000000E+00 -0.12465833281E+03  0.12465833281E+03  0.00000000000E+00 0. -1.
         21    1    1    2  503  505 -0.62683696802E+02 -0.58391754660E+02  0.23039319149E+03  0.24580452710E+03  0.00000000000E+00 0. -1.
         21    1    1    2  504  502  0.12793665002E+03  0.13817923748E+03  0.17783096746E+02  0.18914948220E+03  0.00000000000E+00 0. -1.
         21    1    1    2  505  501 -0.29603579764E+02 -0.21699037663E+02  0.54353992535E+03  0.54477781766E+03  0.00000000000E+00 0. -1.
         21    1    1    2  506  503 -0.35649373451E+02 -0.58088445156E+02  0.72374473987E+01  0.68538499640E+02  0.00000000000E+00 0. -1.
<scales pt_clust_3="118.85765" pt_clust_4="14000.00000" pt_clust_5="36.70450" pt_clust_6="71.56144"></scales>
<clustering>
<clus scale="   36.704">  1  5  2 -1</clus>
<clus scale="   71.561">  2  6  1 -1</clus>
<clus scale="  118.858">  1  3  2 -1</clus>
<clus scale="   36.704">  1  3  2 -1</clus>
</clustering>
</event>
<event>
 6    0  0.6132510E+002  0.9855667E+02  0.7546771E-02  0.1283361E+00
         21   -1    0    0  506  501  0.00000000000E+00  0.00000000000E+00  0.15538600043E+03  0.15538600043E+03  0.00000000000E+00 0.  1.
         21   -1    0    0  503  502 -0.00000000000E+00 -0.00000000000E+00 -0.10970461723E+04  0.10970461723E+04  0.00000000000E+00 0. -1.
         21    1    1    2  503  501 -0.42878106370E+02 -0.33579999364E+01 -0.28240694434E+01  0.43102013151E+02  0.00000000000E+00 0. -1.
         21    1    1    2  504  505  0.20176932202E+02 -0.75776947471E+02 -0.19115482668E+03  0.20661418665E+03  0.00000000000E+00 0. -1.
         21    1    1    2  505  502 -0.89548405452E+02  0.71272183961E+02 -0.84574690262E+03  0.85345560190E+03  0.00000000000E+00 0. -1.
         21    1    1    2  506  504  0.11224957962E+03  0.78627634463E+01  0.98065626895E+02  0.14926037100E+03  0.00000000000E+00 0.  1.
<scales pt_clust_3="43.00940" pt_clust_4="98.55667" pt_clust_5="14000.00000" pt_clust_6="73.20107"></scales>
<clustering>
<clus scale="   43.009">  1  3  2 -1</clus>
<clus scale="   73.201">  1  6  2 -1</clus>
<clus scale="   98.557">  1  4  2 -1</clus>
<clus scale="   43.009">  1  3  2 -1</clus>
</clustering>
</event>
<event>
 6    0  0.6132510E+002  0.8281060E+02  0.7546771E-02  0.1321259E+00
         21   -1    0    0  504  501  0.00000000000E+00  0.00000000000E+00  0.11973562450E+04  0.11973562450E+04  0.00000000000E+00 0.  1.
         21   -1    0    0  505  502 -0.00000000000E+00 -0.00000000000E+00 -0.38074199082E+02  0.38074199082E+02  0.00000000000E+00 0.  1.
         21    1    1    2  503  501  0.79032831912E+01 -0.88565607267E+02  0.30002420973E+03  0.31292308177E+03  0.00000000000E+00 0.  1.
         21    1    1    2  504  506  0.31169736051E+02  0.77143671684E+02  0.81123815893E+03  0.81549374555E+03  0.00000000000E+00 0.  1.
         21    1    1    2  505  503 -0.12695473448E+01 -0.30218283168E+02 -0.38706585413E+01  0.30491611725E+02  0.00000000000E+00 0.  1.
         21    1    1    2  506  502 -0.37803471897E+02  0.41640218751E+02  0.51890335766E+02  0.76522005012E+02  0.00000000000E+00 0.  1.
<scales pt_clust_3="82.81060" pt_clust_4="14000.00000" pt_clust_5="30.24494" pt_clust_6="45.32098"></scales>
<clustering>
<clus scale="   30.245">  2  5  1 -1</clus>
<clus scale="   45.321">  2  6  1 -1</clus>
<clus scale="   82.811">  2  3  1 -1</clus>
<clus scale="   82.811">  1  3  2 -1</clus>
</clustering>
</event>
<event>
 6    0  0.6132510E+002  0.1166828E+03  0.7546771E-02  0.1248672E+00
         21   -1    0    0  504  501  0.00000000000E+00  0.00000000000E+00  0.23295113399E+03  0.23295113399E+03  0.00000000000E+00 0. -1.
         21   -1    0    0  503  502 -0.00000000000E+00 -0.00000000000E+00 -0.31269149505E+03  0.31269149505E+03  0.00000000000E+00 0. -1.
         21    1    1    2  503  505  0.10748409185E+03 -0.55568985985E+02  0.12180370064E+03  0.17168833302E+03  0.00000000000E+00 0. -1.
         21    1    1    2  504  506 -0.77150898901E+02  0.13077089484E+03 -0.14568967815E+03  0.21042521346E+03  0.00000000000E+00 0. -1.
         21    1    1    2  505  501 -0.71194843578E+02 -0.46163556215E+02  0.46226810532E+01  0.84977343184E+02  0.00000000000E+00 0. -1.
         21    1    1    2  506  502  0.40861650629E+02 -0.29038352644E+02 -0.60477064608E+02  0.78551739382E+02  0.00000000000E+00 0. -1.
<scales pt_clust_3="116.68278" pt_clust_4="14000.00000" pt_clust_5="82.15865" pt_clust_6="50.12884"></scales>
<clustering>
<clus scale="   50.129">  2  6  1 -1</clus>
<clus scale="   82.159">  1  5  2 -1</clus>
<clus scale="  116.683">  1  3  2 -1</clus>
<clus scale="   82.159">  1  3  2 -1</clus>
</clustering>
</event>
<event>
 6    0  0.6132510E+002  0.1145950E+03  0.7546771E-02  0.1252290E+00
         21   -1    0    0  503  501  0.00000000000E+00  0.00000000000E+00  0.30907249625E+03  0.30907249625E+03  0.00000000000E+00 0.  1.
         21   -1    0    0  504  502 -0.00000000000E+00 -0.00000000000E+00 -0.47073704771E+03  0.47073704771E+03  0.00000000000E+00 0.  1.
         21    1    1    2  503  505  0.90029789491E+02  0.47952101178E+02  0.28731045046E+02  0.10597282648E+03  0.00000000000E+00 0.  1.
         21    1    1    2  504  506 -0.90629486515E+02 -0.12858294526E+03 -0.30586745935E+03  0.34395083998E+03  0.00000000000E+00 0.  1.
         21    1    1    2  505  502  0.25860473986E+02  0.35565838358E+02 -0.99505043921E+02  0.10878854139E+03  0.00000000000E+00 0.  1.
         21    1    1    2  506  501 -0.25260776963E+02  0.45065005725E+02  0.21497690676E+03  0.22109733611E+03  0.00000000000E+00 0.  1.
<scales pt_clust_3="114.59502" pt_clust_4="14000.00000" pt_clust_5="43.97378" pt_clust_6="51.81649"></scales>
<clustering>
<clus scale="   43.974">  2  5  1 -1</clus>
<clus scale="   51.816">  1  6  2 -1</clus>
<clus scale="  114.595">  1  3  2 -1</clus>
<clus scale="   51.816">  1  3  2 -1</clus>
</clustering>
</event>
<event>
 6    0  0.6132510E+002  0.1946004E+03  0.7546771E-02  0.1154376E+00
         21   -1    0    0  503  501  0.00000000000E+00  0.00000000000E+00  0.52702551045E+03  0.52702551045E+03  0.00000000000E+00 0. -1.
         21   -1    0    0  504  502 -0.00000000000E+00 -0.00000000000E+00 -0.40223716293E+03  0.40223716293E+03  0.00000000000E+00 0.  1.
         21    1    1    2  503  506 -0.24986264654E+03 -0.45326870895E+02  0.40296804155E+03  0.47630778901E+03  0.00000000000E+00 0. -1.
         21    1    1    2  504  501  0.55146608288E+02  0.52242008214E+02  0.26524309843E+02  0.80460641562E+02  0.00000000000E+00 0. -1.
         21    1    1    2  505  502  0.23875907998E+02 -0.20655317376E+02 -0.10339405792E+03  0.10810657858E+03  0.00000000000E+00 0. -1.
         21    1    1    2  506  505  0.17084013026E+03  0.13740180056E+02 -0.20130994595E+03  0.26438766422E+03  0.00000000000E+00 0.  1.
<scales pt_clust_3="194.60041" pt_clust_4="76.30102" pt_clust_5="31.57057" pt_clust_6="14000.00000"></scales>
<clustering>
<clus scale="   31.571">  2  5  1 -1</clus>
<clus scale="   76.301">  1  4  2 -1</clus>
<clus scale="  194.600">  1  3  2 -1</clus>
<clus scale="   76.301">  1  3  2 -1</clus>
</clustering>
</event>
<event>
 6    0  0.6132510E+002  0.1798661E+03  0.7546771E-02  0.1167933E+00
         21   -1    0    0  503  501  0.00000000000E+00  0.00000000000E+00  0.48401468762E+03  0.48401468762E+03  0.00000000000E+00 0.  1.
         21   -1    0    0  504  502 -0.00000000000E+00 -0.00000000000E+00 -0.34865332229E+03  0.34865332229E+03  0.00000000000E+00 0. -1.
         21    1    1    2  503  506  0.15055584711E+03  0.41146952898E+01  0.38084304868E+03  0.40954294224E+03  0.00000000000E+00 0.  1.
         21    1    1    2  504  505 -0.40286401570E+02  0.58702479199E+02  0.37414363239E+01  0.71294975709E+02  0.00000000000E+00 0.  1.
         21    1    1    2  505  501  0.38251405140E+02 -0.16223947007E+02  0.15819162171E+02  0.44459333592E+02  0.00000000000E+00 0.  1.
         21    1    1    2  506  502 -0.14852085068E+03 -0.46593227482E+02 -0.26504228184E+03  0.30737075836E+03  0.00000000000E+00 0. -1.
<scales pt_clust_3="179.86605" pt_clust_4="68.32682" pt_clust_5="41.54981" pt_clust_6="14000.00000"></scales>
<clustering>
<clus scale="   41.550">  1  5  2 -1</clus>
<clus scale="   68.327">  2  4  1 -1</clus>
<clus scale="  179.866">  1  3  2 -1</clus>
<clus scale="   41.550">  1  3  2 -1</clus>
</clustering>
</event>
<event>
 6    0  0.6132510E+002  0.1235649E+03  0.7546771E-02  0.1237329E+00
         21   -1    0    0  503  501  0.00000000000E+00  0.00000000000E+00  0.10485043978E+04  0.10485043978E+04  0.00000000000E+00 0.  1.
         21   -1    0    0  505  502 -0.00000000000E+00 -0.00000000000E+00 -0.33549829806E+03  0.33549829806E+03  0.00000000000E+00 0. -1.
         21    1    1    2  503  502 -0.15533668095E+03 -0.25473398991E+01 -0.14852984158E+03  0.21493507677E+03  0.00000000000E+00 0. -1.
         21    1    1    2  504  501  0.18008463826E+02 -0.25168966298E+02  0.70457575209E+03  0.70525511133E+03  0.00000000000E+00 0.  1.
         21    1    1    2  505  506  0.10430567184E+03  0.22004074799E+02 -0.13383007714E+03  0.17109746355E+03  0.00000000000E+00 0. -1.
         21    1    1    2  506  504  0.33022545275E+02  0.57122313986E+01  0.29079026642E+03  0.29271504424E+03  0.00000000000E+00 0. -1.
<scales pt_clust_3="123.56493" pt_clust_4="30.94805" pt_clust_5="14000.00000" pt_clust_6="50.78855"></scales>
<clustering>
<clus scale="   30.948">  1  4  2 -1</clus>
<clus scale="   50.789">  1  6  2 -1</clus>
<clus scale="  123.565">  1  3  2 -1</clus>
<clus scale="   30.948">  1  3  2 -1</clus>
</clustering>
</event>
<event>
 6    0  0.6132510E+002  0.1504560E+03  0.7546771E-02  0.1199914E+00
         21   -1    0    0  505  501  0.00000000000E+00  0.00000000000E+00  0.16407455944E+04  0.16407455944E+04  0.00000000000E+00 0.  1.
         21   -1    0    0  503  502 -0.00000000000E+00 -0.00000000000E+00 -0.54895463583E+02  0.54895463583E+02  0.00000000000E+00 0.  1.
         21    1    1    2  503  506 -0.43977631791E+02 -0.52478314392E+01  0.32934231005E+02  0.55192711517E+02  0.00000000000E+00 0.  1.
         21    1    1    2  504  502  0.36855932079E+01 -0.15493061143E+03  0.14700182857E+03  0.21360387534E+03  0.00000000000E+00 0.  1.
         21    1    1    2  505  504 -0.69370619384E+02  0.65215961802E+02  0.67412628520E+03  0.68081690116E+03  0.00000000000E+00 0.  1.
         21    1    1    2  506  501  0.10966265797E+03  0.94962481064E+02  0.73178778608E+03  0.74602757001E+03  0.00000000000E+00 0.  1.
<scales pt_clust_3="44.28964" pt_clust_4="14000.00000" pt_clust_5="97.42135" pt_clust_6="150.45596"></scales>
<clustering>
<clus scale="   44.290">  2  3  1 -1</clus>
<clus scale="   97.421">  1  5  2 -1</clus>
<clus scale="  150.456">  1  6  2 -1</clus>
<clus scale="   97.421">  1  3  2 -1</clus>
</clustering>
</event>
<event>
 6    0  0.6132510E+002  0.6801681E+02  0.7546771E-02  0.1366970E+00
         21   -1    0    0  504  501  0.00000000000E+00  0.00000000000E+00  0.41665631131E+02  0.41665631131E+02  0.00000000000E+00 0.  1.
         21   -1    0    0  503  502 -0.00000000000E+00 -0.00000000000E+00 -0.42359311324E+03  0.42359311324E+03  0.00000000000E+00 0. -1.
         21    1    1    2  503  501  0.15735793969E+02 -0.32386759638E+02 -0.57805213653E+02  0.68102570709E+02  0.00000000000E+00 0. -1.
         21    1    1    2  504  505  0.49703832538E+02  0.24514269292E+01 -0.36800124925E+02  0.61892888585E+02  0.00000000000E+00 0. -1.
         21    1    1    2  505  506 -0.96807422706E+02 -0.26293736342E+02 -0.12263637101E+03  0.15843837021E+03  0.00000000000E+00 0. -1.
         21    1    1    2  506  502  0.31367796200E+02  0.56229069051E+02 -0.16468577253E+03  0.17682491487E+03  0.00000000000E+00 0.  1.
<scales pt_clust_3="36.00719" pt_clust_4="51.89476" pt_clust_5="14000.00000" pt_clust_6="68.01681"></scales>
<clustering>
<clus scale="   36.007">  2  3  1 -1</clus>
<clus scale="   51.895">  1  4  2 -1</clus>
<clus scale="   68.017">  2  6  1 -1</clus>
<clus scale="   51.895">  1  3  2 -1</clus>
</clustering>
</event>
<event>
 6    0  0.6132510E+002  0.9516995E+02  0.7546771E-02  0.1290794E+00
         21   -1    0    0  505  501  0.00000000000E+00  0.00000000000E+00  0.25536852818E+03  0.25536852818E+03  0.00000000000E+00 0.  1.
         21   -1    0    0  503  502 -0.00000000000E+00 -0.00000000000E+00 -0.33129392660E+03  0.33129392660E+03  0.00000000000E+00 0.  1.
         21    1    1    2  503  504 -0.74781356764E+01 -0.50069563204E+02 -0.31660769356E+02  0.59710032565E+02  0.00000000000E+00 0.  1.
         21    1    1    2  504  506 -0.79275047462E+01 -0.31204996695E+02  0.12424216964E+03  0.12834607071E+03  0.00000000000E+00 0.  1.
         21    1    1    2  505  502  0.52425452741E+02  0.12223156324E+03 -0.25983054442E+03  0.29189192343E+03  0.00000000000E+00 0.  1.
         21    1    1    2  506  501 -0.37019812318E+02 -0.40957003340E+02  0.91323745719E+02  0.10671442807E+03  0.00000000000E+00 0.  1.
<scales pt_clust_3="50.62493" pt_clust_4="30.13473" pt_clust_5="86.60347" pt_clust_6="30.13473"></scales>
<clustering>
<clus scale="   30.135">  4  6 -1 -1</clus>
<clus scale="   50.625">  2  3  1 -1</clus>
<clus scale="   86.603">  2  5  1 -1</clus>
<clus scale="   95.170">  1  3  2 -1</clus>
</clustering>
</event>
<event>
 6    0  0.6132510E+002  0.1900156E+03  0.7546771E-02  0.1158447E+00
         21   -1    0    0  505  501  0.00000000000E+00  0.00000000000E+00  0.27578144497E+03  0.27578144497E+03  0.00000000000E+00 0. -1.
         21   -1    0    0  506  502 -0.00000000000E+00 -0.00000000000E+00 -0.34383248401E+03  0.34383248401E+03  0.00000000000E+00 0. -1.
         21    1    1    2  503  502 -0.50233852197E+02 -0.19784250203E+02 -0.10482964892E+03  0.11791569766E+03  0.00000000000E+00 0. -1.
         21    1    1    2  504  501 -0.43552660905E+02 -0.72351771385E+02  0.13051701499E+02  0.85451506754E+02  0.00000000000E+00 0. -1.
         21    1    1    2  505  503 -0.13048969631E+03  0.12253835116E+03  0.56155851680E+02  0.18760780374E+03  0.00000000000E+00 0. -1.
         21    1    1    2  506  504  0.22427620941E+03 -0.30402329568E+02 -0.32428943299E+02  0.22863892083E+03  0.00000000000E+00 0. -1.
<scales pt_clust_3="53.98941" pt_clust_4="91.26618" pt_clust_5="190.01562" pt_clust_6="14000.00000"></scales>
<clustering>
<clus scale="   53.989">  2  3  1 -1</clus>
<clus scale="   91.266">  1  4  2 -1</clus>
<clus scale="  190.016">  1  5  2 -1</clus>
<clus scale="   91.266">  1  3  2 -1</clus>
</clustering>
</event>
<event>
 6    0  0.6132510E+002  0.1422493E+03  0.7546771E-02  0.1210334E+00
         21   -1    0    0  503  501  0.00000000000E+00  0.00000000000E+00  0.66133408613E+03  0.66133408613E+03  0.00000000000E+00 0. -1.
         21   -1    0    0  506  502 -0.00000000000E+00 -0.00000000000E+00 -0.90309356273E+02  0.90309356273E+02  0.00000000000E+00 0.  1.
         21    1    1    2  503  505 -0.55288338884E+02  0.77277828746E+02  0.22502033854E+02  0.97647348965E+02  0.00000000000E+00 0.  1.
         21    1    1    2  504  501  0.70809672212E+02 -0.36915986675E+02  0.25049747206E+03  0.26291782606E+03  0.00000000000E+00 0. -1.
         21    1    1    2  505  502 -0.12538398191E+02  0.47979356448E+02 -0.25452683843E+02  0.55741090671E+02  0.00000000000E+00 0.  1.
         21    1    1    2  506  504 -0.29829351364E+01 -0.88341198519E+02  0.32347790779E+03  0.33533717671E+03  0.00000000000E+00 0. -1.
<scales pt_clust_3="41.05444" pt_clust_4="79.85487" pt_clust_5="41.05444" pt_clust_6="130.40465"></scales>
<clustering>
<clus scale="   41.054">  3  5 -1 -1</clus>
<clus scale="   79.855">  1  4  2 -1</clus>
<clus scale="  130.405">  1  6  2 -1</clus>
<clus scale="   79.855">  1  3  2 -1</clus>
</clustering>
</event>
<event>
 6    0  0.6132510E+002  0.2146866E+03  0.7546771E-02  0.1137908E+00
         21   -1    0    0  504  501  0.00000000000E+00  0.00000000000E+00  0.69484680033E+03  0.69484680033E+03  0.00000000000E+00 0.  1.
         21   -1    0    0  503  502 -0.00000000000E+00 -0.00000000000E+00 -0.11632276665E+04  0.11632276665E+04  0.00000000000E+00 0.  1.
         21    1    1    2  503  501  0.11977929794E+03 -0.17008474480E+03 -0.10347202006E+04  0.10554249353E+04  0.00000000000E+00 0.  1.
         21    1    1    2  504  506 -0.42107624389E+02  0.11053603869E+03  0.34920187864E+03  0.36869122573E+03  0.00000000000E+00 0.  1.
         21    1    1    2  505  502 -0.10724708097E+03 -0.32624877745E+02 -0.69174347604E+02  0.13172474859E+03  0.00000000000E+00 0. -1.
         21    1    1    2  506  505  0.29575407420E+02  0.92173583849E+02  0.28631180341E+03  0.30223355713E+03  0.00000000000E+00 0.  1.
<scales pt_clust_3="202.67255" pt_clust_4="64.05872" pt_clust_5="112.09959" pt_clust_6="64.05872"></scales>
<clustering>
<clus scale="   64.059">  4  6 -1 -1</clus>
<clus scale="  112.100">  2  5  1 -1</clus>
<clus scale="  202.673">  2  3  1 -1</clus>
<clus scale="  214.687">  1  3  2 -1</clus>
</clustering>
</event>
<event>
 6    0  0.6132510E+002  0.1222641E+03  0.7546771E-02  0.1239408E+00
         21   -1    0    0  502  501  0.00000000000E+00  0.00000000000E+00  0.76440175985E+03  0.76440175985E+03  0.00000000000E+00 0. -1.
         21   -1    0    0  504  502 -0.00000000000E+00 -0.00000000000E+00 -0.18275995454E+03  0.18275995454E+03  0.00000000000E+00 0. -1.
         21    1    1    2  503  505  0.18267868649E+02  0.14247599112E+03 -0.92611789298E+02  0.17090952749E+03  0.00000000000E+00 0. -1.
         21    1    1    2  504  503 -0.26598141726E+02  0.26161784821E+02  0.20723545250E+02  0.42677458406E+02  0.00000000000E+00 0. -1.
         21    1    1    2  505  506  0.96492525900E+01 -0.91087285134E+02  0.18024457605E+02  0.93353535876E+02  0.00000000000E+00 0. -1.
         21    1    1    2  506  501 -0.13189795125E+01 -0.77550490807E+02  0.63550559175E+03  0.64022119262E+03  0.00000000000E+00 0. -1.
<scales pt_clust_3="14000.00000" pt_clust_4="37.30818" pt_clust_5="122.26407" pt_clust_6="77.20978"></scales>
<clustering>
<clus scale="   37.308">  2  4  1 -1</clus>
<clus scale="   77.210">  1  6  2 -1</clus>
<clus scale="  122.264">  1  5  2 -1</clus>
<clus scale="   77.210">  1  3  2 -1</clus>
</clustering>
</event>
<event>
 6    0  0.6132510E+002  0.1474282E+03  0.7546771E-02  0.1203669E+00
         21   -1    0    0  506  501  0.00000000000E+00  0.00000000000E+00  0.29813347796E+02  0.29813347796E+02  0.00000000000E+00 0.  1.
         21   -1    0    0  505  502 -0.00000000000E+00 -0.00000000000E+00 -0.25862172898E+04  0.25862172898E+04  0.00000000000E+00 0. -1.
         21    1    1    2  503  501  0.24733778100E+02 -0.23447385281E+02 -0.50594180642E+02  0.61002547246E+02  0.00000000000E+00 0.  1.
         21    1    1    2  504  502 -0.19267150567E+02  0.66204780053E+02 -0.15327889641E+04  0.15343390448E+04  0.00000000000E+00 0. -1.
         21    1    1    2  505  503 -0.19578152534E+02 -0.17456626101E+03 -0.56425996273E+03  0.59097037919E+03  0.00000000000E+00 0.  1.
         21    1    1    2  506  504  0.14111525000E+02  0.13180886623E+03 -0.40876083455E+03  0.42971866635E+03  0.00000000000E+00 0.  1.
<scales pt_clust_3="34.08137" pt_clust_4="68.02686" pt_clust_5="147.42817" pt_clust_6="14000.00000"></scales>
<clustering>
<clus scale="   34.081">  1  3  2 -1</clus>
<clus scale="   68.027">  2  4  1 -1</clus>
<clus scale="  147.428">  2  5  1 -1</clus>
<clus scale="   34.081">  1  3  2 -1</clus>
</clustering>
</event>
<event>
 6    0  0.6132510E+002  0.9667173E+02  0.7546771E-02  0.1287455E+00
         21   -1    0    0  503  501  0.00000000000E+00  0.00000000000E+00  0.63259455083E+03  0.63259455083E+03  0.00000000000E+00 0.  1.
         21   -1    0    0  504  502 -0.00000000000E+00 -0.00000000000E+00 -0.69464817441E+02  0.69464817441E+02  0.00000000000E+00 0.  1.
         21    1    1    2  503  502  0.76780272442E+02  0.31324796289E+02 -0.24359155086E+02  0.86428129306E+02  0.00000000000E+00 0.  1.
         21    1    1    2  504  505 -0.32592931961E+02  0.28912101436E+02  0.12793574371E+03  0.13515089101E+03  0.00000000000E+00 0.  1.
         21    1    1    2  505  506 -0.76868697579E+02 -0.77430275370E+01  0.28553470501E+03  0.29580199274E+03  0.00000000000E+00 0.  1.
         21    1    1    2  506  501  0.32681357097E+02 -0.52493870187E+02  0.17401843976E+03  0.18467835521E+03  0.00000000000E+00 0.  1.
<scales pt_clust_3="83.74261" pt_clust_4="36.26896" pt_clust_5="36.26896" pt_clust_6="61.83589"></scales>
<clustering>
<clus scale="   36.269">  4  5 -1 -1</clus>
<clus scale="   61.836">  1  6  2 -1</clus>
<clus scale="   83.743">  2  3  1 -1</clus>
<clus scale="   61.836">  1  3  2 -1</clus>
</clustering>
</event>
<event>
 6    0  0.6132510E+002  0.8196831E+02  0.7546771E-02  0.1323557E+00
         21   -1    0    0  505  501  0.00000000000E+00  0.00000000000E+00  0.10564767841E+03  0.10564767841E+03  0.00000000000E+00 0.  1.
         21   -1    0    0  506  502 -0.00000000000E+00 -0.00000000000E+00 -0.40393651753E+03  0.40393651753E+03  0.00000000000E+00 0.  1.
         21    1    1    2  503  501  0.31508758270E+02  0.63301294829E+01  0.16703674231E+02  0.36219954718E+02  0.00000000000E+00 0.  1.
         21    1    1    2  504  502 -0.43662286636E+02 -0.30765639557E+02 -0.26240601247E+03  0.26778692132E+03  0.00000000000E+00 0.  1.
         21    1    1    2  505  504 -0.58825244238E+02 -0.58680250645E+02  0.26140810437E+01  0.83130106431E+02  0.00000000000E+00 0.  1.
         21    1    1    2  506  503  0.70978772605E+02  0.83115760719E+02 -0.55200581933E+02  0.12244721347E+03  0.00000000000E+00 0.  1.
<scales pt_clust_3="32.13833" pt_clust_4="52.41558" pt_clust_5="81.96831" pt_clust_6="14000.00000"></scales>
<clustering>
<clus scale="   32.138">  1  3  2 -1</clus>
<clus scale="   52.416">  2  4  1 -1</clus>
<clus scale="   81.968">  1  5  2 -1</clus>
<clus scale="   32.138">  1  3  2 -1</clus>
</clustering>
</event>
<event>
 6    0  0.6132510E+002  0.7530828E+02  0.7546771E-02  0.1342919E+00
         21   -1    0    0  504  501  0.00000000000E+00  0.00000000000E+00  0.34151921217E+03  0.34151921217E+03  0.00000000000E+00 0. -1.
         21   -1    0    0  506  502 -0.00000000000E+00 -0.00000000000E+00 -0.13620436629E+04  0.13620436629E+04  0.00000000000E+00 0. -1.
         21    1    1    2  503  502  0.46947539690E+01  0.44583442539E+02 -0.11989753735E+04  0.11998131814E+04  0.00000000000E+00 0. -1.
         21    1    1    2  504  505 -0.53546241349E+02 -0.15031578951E+02  0.35650731665E+02  0.66061509191E+02  0.00000000000E+00 0. -1.
         21    1    1    2  505  503 -0.22069563608E+02 -0.75252953056E+02 -0.13017469375E+03  0.15197211414E+03  0.00000000000E+00 0. -1.
         21    1    1    2  506  501  0.70921050987E+02  0.45701089469E+02  0.27297488488E+03  0.28571607030E+03  0.00000000000E+00 0. -1.
<scales pt_clust_3="44.82995" pt_clust_4="75.30828" pt_clust_5="40.77103" pt_clust_6="14000.00000"></scales>
<clustering>
<clus scale="   44.830">  2  3  1 -1</clus>
<clus scale="   40.771">  2  5  1 -1</clus>
<clus scale="   75.308">  2  4  1 -1</clus>
<clus scale="   75.308">  1  3  2 -1</clus>
</clustering>
</event>
<event>
 6    0  0.6132510E+002  0.8958311E+02  0.7546771E-02  0.1303864E+00
         21   -1    0    0  503  501  0.00000000000E+00  0.00000000000E+00  0.23856188194E+02  0.23856188194E+02  0.00000000000E+00 0. -1.
         21   -1    0    0  505  502 -0.00000000000E+00 -0.00000000000E+00 -0.97267962784E+03  0.97267962784E+03  0.00000000000E+00 0. -1.
         21    1    1    2  503  504 -0.26790730427E+02  0.20545406579E+02 -0.32260861507E+02  0.46697110761E+02  0.00000000000E+00 0. -1.
         21    1    1    2  504  506 -0.95140740678E+02  0.48238539977E+01 -0.23679780698E+03  0.25524151601E+03  0.00000000000E+00 0. -1.
         21    1    1    2  505  501  0.67984549326E+02 -0.48885661888E+02 -0.38137296601E+03  0.39045748307E+03  0.00000000000E+00 0. -1.
         21    1    1    2  506  502  0.53946921779E+02  0.23516401311E+02 -0.29839180515E+03  0.30413970619E+03  0.00000000000E+00 0. -1.
<scales pt_clust_3="33.76177" pt_clust_4="14000.00000" pt_clust_5="89.58311" pt_clust_6="56.25762"></scales>
<clustering>
<clus scale="   33.762">  1  3  2 -1</clus>
<clus scale="   56.258">  2  6  1 -1</clus>
<clus scale="   89.583">  1  5  2 -1</clus>
<clus scale="   33.762">  1  3  2 -1</clus>
</clustering>
</event>
<event>
 6    0  0.6132510E+002  0.9647349E+02  0.7546771E-02  0.1287891E+00
         21   -1    0    0  506  501  0.00000000000E+00  0.00000000000E+00  0.55892573507E+03  0.55892573507E+03  0.00000000000E+00 0. -1.
         21   -1    0    0  503  502 -0.00000000000E+00 -0.00000000000E+00 -0.17599854480E+03  0.17599854480E+03  0.00000000000E+00 0. -1.
         21    1    1    2  503  504 -0.14216063664E+02 -0.73857587499E+02 -0.92013368208E+02  0.11884233095E+03  0.00000000000E+00 0. -1.
         21    1    1    2  504  501  0.35693390442E+02  0.34322841784E+02  0.36156368679E+03  0.36493886501E+03  0.00000000000E+00 0. -1.
         21    1    1    2  505  502 -0.97077161076E+02  0.54249730216E+02 -0.33952466272E+01  0.11125886990E+03  0.00000000000E+00 0. -1.
         21    1    1    2  506  505  0.75599834297E+02 -0.14714984500E+02  0.11677211832E+03  0.13988421402E+03  0.00000000000E+00 0. -1.
<scales pt_clust_3="72.46666" pt_clust_4="49.51844" pt_clust_5="14000.00000" pt_clust_6="96.47349"></scales>
<clustering>
<clus scale="   49.518">  1  4  2 -1</clus>
<clus scale="   72.467">  2  3  1 -1</clus>
<clus scale="   96.473">  1  6  2 -1</clus>
<clus scale="   49.518">  1  3  2 -1</clus>
</clustering>
</event>
<event>
 6    0  0.6132510E+002  0.1813018E+03  0.7546771E-02  0.1166549E+00
         21   -1    0    0  506  501  0.00000000000E+00  0.00000000000E+00  0.27420143331E+03  0.27420143331E+03  0.00000000000E+00 0. -1.
         21   -1    0    0  504  502 -0.00000000000E+00 -0.00000000000E+00 -0.36954765367E+03  0.36954765367E+03  0.00000000000E+00 0. -1.
         21    1    1    2  503  501 -0.16005583142E+03  0.46021139374E+02  0.13008819642E+03  0.21132617748E+03  0.00000000000E+00 0. -1.
         21    1    1    2  504  503 -0.31957974461E+02  0.24500774889E+02 -0.22035453232E+03  0.22400383929E+03  0.00000000000E+00 0. -1.
         21    1    1    2  505  502  0.10160910272E+03 -0.32118001057E+02  0.16550562559E+02  0.10784199955E+03  0.00000000000E+00 0. -1.
         21    1    1    2  506  505  0.90404703162E+02 -0.38403913206E+02 -0.21630447014E+02  0.10057707065E+03  0.00000000000E+00 0. -1.
<scales pt_clust_3="176.91890" pt_clust_4="40.26910" pt_clust_5="38.04172" pt_clust_6="38.04172"></scales>
<clustering>
<clus scale="   38.042">  5  6 -1 -1</clus>
<clus scale="   40.269">  2  4  1 -1</clus>
<clus scale="  176.919">  1  3  2 -1</clus>
<clus scale="  176.919">  1  3  2 -1</clus>
</clustering>
</event>
<event>
 6    0  0.6132510E+002  0.1807329E+03  0.7546771E-02  0.1167096E+00
         21   -1    0    0  506  501  0.00000000000E+00  0.00000000000E+00  0.83991404598E+02  0.83991404598E+02  0.00000000000E+00 0. -1.
         21   -1    0    0  505  502 -0.00000000000E+00 -0.00000000000E+00 -0.71394053385E+03  0.71394053385E+03  0.00000000000E+00 0. -1.
         21    1    1    2  503  501 -0.12180163214E+02  0.86392192452E+02 -0.18368639365E+02  0.89159263146E+02  0.00000000000E+00 0. -1.
         21    1    1    2  504  502  0.52187734476E+02  0.14923435513E+02 -0.25178951158E+03  0.25757373061E+03  0.00000000000E+00 0. -1.
         21    1    1    2  505  503 -0.18662900460E+02  0.81291731392E+02 -0.74699925317E+02  0.11196753230E+03  0.00000000000E+00 0. -1.
         21    1    1    2  506  504 -0.21344670802E+02 -0.18260735936E+03 -0.28509105299E+03  0.33923141240E+03  0.00000000000E+00 0. -1.
<scales pt_clust_3="51.00269" pt_clust_4="54.27954" pt_clust_5="51.00269" pt_clust_6="173.04148"></scales>
<clustering>
<clus scale="   51.003">  3  5 -1 -1</clus>
<clus scale="   54.280">  2  4  1 -1</clus>
<clus scale="  173.041">  2  6  1 -1</clus>
<clus scale="  180.733">  1  3  2 -1</clus>
</clustering>
</event>
<event>
 6    0  0.6132510E+002  0.8061285E+02  0.7546771E-02  0.1327321E+00
         21   -1    0    0  503  501  0.00000000000E+00  0.00000000000E+00  0.44131188988E+03  0.44131188988E+03  0.00000000000E+00 0. -1.
         21   -1    0    0  505  502 -0.00000000000E+00 -0.00000000000E+00 -0.23425934134E+03  0.23425934134E+03  0.00000000000E+00 0. -1.
         21    1    1    2  503  506 -0.29728700321E+02  0.76137282927E+02  0.34441254046E+03  0.35397836021E+03  0.00000000000E+00 0. -1.
         21    1    1    2  504  501 -0.29158292101E+02 -0.85104293284E+02  0.68526656017E+01  0.90221426277E+02  0.00000000000E+00 0. -1.
         21    1    1    2  505  504  0.21753274834E+02 -0.31833281997E+02 -0.16721279549E+03  0.17160035485E+03  0.00000000000E+00 0. -1.
         21    1    1    2  506  502  0.37133717588E+02  0.40800292354E+02  0.23000137973E+02  0.59771089875E+02  0.00000000000E+00 0. -1.
<scales pt_clust_3="80.61285" pt_clust_4="14000.00000" pt_clust_5="38.55597" pt_clust_6="53.70888"></scales>
<clustering>
<clus scale="   38.556">  2  5  1 -1</clus>
<clus scale="   53.709">  2  6  1 -1</clus>
<clus scale="   80.613">  1  3  2 -1</clus>
<clus scale="   80.613">  1  3  2 -1</clus>
</clustering>
</event>
<event>
 6    0  0.6132510E+002  0.1720166E+03  0.7546771E-02  0.1175761E+00
         21   -1    0    0  504  501  0.00000000000E+00  0.00000000000E+00  0.48146198122E+02  0.48146198122E+02  0.00000000000E+00 0.  1.
         21   -1    0    0  505  502 -0.00000000000E+00 -0.00000000000E+00 -0.86536411176E+03  0.86536411176E+03  0.00000000000E+00 0.  1.
         21    1    1    2  503  502 -0.41833398578E+02  0.58131296763E+02 -0.20707765809E+03  0.21911284166E+03  0.00000000000E+00 0.  1.
         21    1    1    2  504  506 -0.51483612877E+02 -0.20585054568E+02 -0.49885490729E+02  0.74584643538E+02  0.00000000000E+00 0.  1.
         21    1    1    2  505  501  0.15023741209E+03 -0.90368868649E+02 -0.46476567443E+03  0.49673427961E+03  0.00000000000E+00 0.  1.
         21    1    1    2  506  503 -0.56920400638E+02  0.52822626453E+02 -0.95489090392E+02  0.12307854508E+03  0.00000000000E+00 0.  1.
<scales pt_clust_3="54.00650" pt_clust_4="55.44643" pt_clust_5="161.56884" pt_clust_6="54.00650"></scales>
<clustering>
<clus scale="   55.446">  1  4  2 -1</clus>
<clus scale="   54.006">  3  6 -1 -1</clus>
<clus scale="  161.569">  2  5  1 -1</clus>
<clus scale="   55.446">  1  3  2 -1</clus>
</clustering>
</event>
<event>
 6    0  0.6132510E+002  0.1131736E+03  0.7546771E-02  0.1254803E+00
         21   -1    0    0  506  501  0.00000000000E+00  0.00000000000E+00  0.18731419402E+03  0.18731419402E+03  0.00000000000E+00 0.  1.
         21   -1    0    0  504  502 -0.00000000000E+00 -0.00000000000E+00 -0.35759055006E+03  0.35759055006E+03  0.00000000000E+00 0. -1.
         21    1    1    2  503  501  0.43659145566E+02 -0.78068091541E+02  0.51360825931E+02  0.10314398843E+03  0.00000000000E+00 0.  1.
         21    1    1    2  504  503 -0.48573636415E+02  0.10622679677E+03 -0.27994225948E+03  0.30333347845E+03  0.00000000000E+00 0. -1.
         21    1    1    2  505  502 -0.15882504639E+01 -0.60708054161E+02 -0.10876418554E+02  0.61695112125E+02  0.00000000000E+00 0.  1.
         21    1    1    2  506  505  0.65027413133E+01  0.32549348937E+02  0.69181496060E+02  0.76732165081E+02  0.00000000000E+00 0.  1.
<scales pt_clust_3="14000.00000" pt_clust_4="113.17360" pt_clust_5="53.47603" pt_clust_6="33.19256"></scales>
<clustering>
<clus scale="   33.193">  1  6  2 -1</clus>
<clus scale="   53.476">  1  5  2 -1</clus>
<clus scale="  113.174">  2  4  1 -1</clus>
<clus scale="   33.193">  1  3  2 -1</clus>
</clustering>
</event>
<event>
 6    0  0.6132510E+002  0.1464704E+03  0.7546771E-02  0.1204878E+00
         21   -1    0    0  505  501  0.00000000000E+00  0.00000000000E+00  0.26939160293E+03  0.26939160293E+03  0.00000000000E+00 0. -1.
         21   -1    0    0  506  502 -0.00000000000E+00 -0.00000000000E+00 -0.50141562314E+03  0.50141562314E+03  0.00000000000E+00 0.  1.
         21    1    1    2  503  502  0.15084258806E+03 -0.62849657653E+01 -0.44346251320E+03  0.46845702874E+03  0.00000000000E+00 0.  1.
         21    1    1    2  504  503 -0.54478702545E+02 -0.21666508882E+02 -0.39022806694E+01  0.58758781748E+02  0.00000000000E+00 0. -1.
         21    1    1    2  505  504 -0.15027680989E+02  0.27244308040E+02  0.43610118597E+02  0.53571689917E+02  0.00000000000E+00 0. -1.
         21    1    1    2  506  501 -0.81336204526E+02  0.70716660776E+00  0.17173065506E+03  0.19001972566E+03  0.00000000000E+00 0. -1.
<scales pt_clust_3="146.47040" pt_clust_4="59.23723" pt_clust_5="31.11404" pt_clust_6="14000.00000"></scales>
<clustering>
<clus scale="   31.114">  1  5  2 -1</clus>
<clus scale="   59.237">  1  4  2 -1</clus>
<clus scale="  146.470">  2  3  1 -1</clus>
<clus scale="   31.114">  1  3  2 -1</clus>
</clustering>
</event>
<event>
 6    0  0.6132510E+002  0.1662652E+03  0.7546771E-02  0.1181800E+00
         21   -1    0    0  506  501  0.00000000000E+00  0.00000000000E+00  0.30849855090E+03  0.30849855090E+03  0.00000000000E+00 0.  1.
         21   -1    0    0  504  502 -0.00000000000E+00 -0.00000000000E+00 -0.76715161387E+03  0.76715161387E+03  0.00000000000E+00 0. -1.
         21    1    1    2  503  502 -0.13690493072E+03  0.11239650727E+03 -0.13196688942E+03  0.22088728982E+03  0.00000000000E+00 0.  1.
         21    1    1    2  504  505  0.98589754821E+02 -0.13153836511E+03 -0.54728117075E+03  0.57143587664E+03  0.00000000000E+00 0. -1.
         21    1    1    2  505  501 -0.39499357977E+02 -0.36471198038E+02  0.16309798681E+03  0.17173031436E+03  0.00000000000E+00 0.  1.
         21    1    1    2  506  503  0.77814533874E+02  0.55613055878E+02  0.57497010386E+02  0.11159668395E+03  0.00000000000E+00 0.  1.
<scales pt_clust_3="14000.00000" pt_clust_4="166.26525" pt_clust_5="53.76195" pt_clust_6="63.80530"></scales>
<clustering>
<clus scale="   53.762">  1  5  2 -1</clus>
<clus scale="   63.805">  1  6  2 -1</clus>
<clus scale="  166.265">  2  4  1 -1</clus>
<clus scale="   53.762">  1  3  2 -1</clus>
</clustering>
</event>
<event>
 6    0  0.6132510E+002  0.1005993E+03  0.7546771E-02  0.1279041E+00
         21   -1    0    0  504  501  0.00000000000E+00  0.00000000000E+00  0.38300798503E+03  0.38300798503E+03  0.00000000000E+00 0.  1.
         21   -1    0    0  506  502 -0.00000000000E+00 -0.00000000000E+00 -0.45591372274E+03  0.45591372274E+03  0.00000000000E+00 0.  1.
         21    1    1    2  503  502  0.96949189806E+02 -0.56567022106E+02 -0.35945684829E+03  0.37657429437E+03  0.00000000000E+00 0.  1.
         21    1    1    2  504  505 -0.20152281071E+01  0.53647013535E+02  0.31072920939E+03  0.31533268903E+03  0.00000000000E+00 0.  1.
         21    1    1    2  505  503 -0.71436211692E+02 -0.48103472584E+02 -0.68344119249E+00  0.86125161872E+02  0.00000000000E+00 0.  1.
         21    1    1    2  506  501 -0.23497750007E+02  0.51023481155E+02 -0.23494657618E+02  0.60889562498E+02  0.00000000000E+00 0. -1.
<scales pt_clust_3="100.59926" pt_clust_4="53.68485" pt_clust_5="14000.00000" pt_clust_6="69.63736"></scales>
<clustering>
<clus scale="   53.685">  1  4  2 -1</clus>
<clus scale="   69.637">  1  6  2 -1</clus>
<clus scale="  100.599">  2  3  1 -1</clus>
<clus scale="   53.685">  1  3  2 -1</clus>
</clustering>
</event>
<event>
 6    0  0.6132510E+002  0.1193225E+03  0.7546771E-02  0.1244219E+00
         21   -1    0    0  502  501  0.00000000000E+00  0.00000000000E+00  0.73703660371E+03  0.73703660371E+03  0.00000000000E+00 0. -1.
         21   -1    0    0  506  502 -0.00000000000E+00 -0.00000000000E+00 -0.14252061075E+03  0.14252061075E+03  0.00000000000E+00 0. -1.
         21    1    1    2  503  501  0.40858019846E+02 -0.23972181033E+02  0.28144208664E+03  0.28540093094E+03  0.00000000000E+00 0. -1.
         21    1    1    2  504  505 -0.16663559722E+03  0.53881308379E+02  0.50861048419E+02  0.18236629047E+03  0.00000000000E+00 0. -1.
         21    1    1    2  505  503  0.65662252271E+02  0.11018293281E+02  0.31497911854E+03  0.32193909249E+03  0.00000000000E+00 0. -1.
         21    1    1    2  506  504  0.60115325105E+02 -0.40927420627E+02 -0.52766260626E+02  0.89850900564E+02  0.00000000000E+00 0. -1.
<scales pt_clust_3="34.04730" pt_clust_4="112.28795" pt_clust_5="34.04730" pt_clust_6="72.72487"></scales>
<clustering>
<clus scale="   34.047">  3  5 -1 -1</clus>
<clus scale="   72.725">  2  6  1 -1</clus>
<clus scale="  112.288">  2  4  1 -1</clus>
<clus scale="  119.323">  1  3  2 -1</clus>
</clustering>
</event>
<event>
 6    0  0.6132510E+002  0.1488401E+03  0.7546771E-02  0.1201906E+00
         21   -1    0    0  502  501  0.00000000000E+00  0.00000000000E+00  0.30029797440E+03  0.30029797440E+03  0.00000000000E+00 0. -1.
         21   -1    0    0  505  502 -0.00000000000E+00 -0.00000000000E+00 -0.11647494856E+03  0.11647494856E+03  0.00000000000E+00 0. -1.
         21    1    1    2  503  501 -0.24564775489E+02  0.33713833461E+02  0.10179170954E+03  0.11000728564E+03  0.00000000000E+00 0. -1.
         21    1    1    2  504  503  0.24370222669E+02  0.34768063422E+02  0.51951382049E+02  0.67094501144E+02  0.00000000000E+00 0. -1.
         21    1    1    2  505  506 -0.94396555177E+02 -0.98049900600E+02  0.90248406753E-02  0.13610471233E+03  0.00000000000E+00 0. -1.
         21    1    1    2  506  504  0.94591107997E+02  0.29568003718E+02  0.30070909417E+02  0.10356642385E+03  0.00000000000E+00 0.  1.
<scales pt_clust_3="41.71392" pt_clust_4="45.50217" pt_clust_5="134.33844" pt_clust_6="45.50217"></scales>
<clustering>
<clus scale="   41.714">  1  3  2 -1</clus>
<clus scale="   45.502">  4  6 -1 -1</clus>
<clus scale="  134.338">  2  5  1 -1</clus>
<clus scale="   41.714">  1  3  2 -1</clus>
</clustering>
</event>
<event>
 6    0  0.6132510E+002  0.1278060E+03  0.7546771E-02  0.1230748E+00
         21   -1    0    0  503  501  0.00000000000E+00  0.00000000000E+00  0.84743257715E+02  0.84743257715E+02  0.00000000000E+00 0.  1.
         21   -1    0    0  504  502 -0.00000000000E+00 -0.00000000000E+00 -0.77156924130E+03  0.77156924130E+03  0.00000000000E+00 0.  1.
         21    1    1    2  503  506 -0.52308680611E+02  0.66061480896E+02  0.83582232570E+00  0.84267525918E+02  0.00000000000E+00 0.  1.
         21    1    1    2  504  501 -0.13808053624E+02 -0.29332635769E+02 -0.59760187835E+02  0.67987836531E+02  0.00000000000E+00 0. -1.
         21    1    1    2  505  502  0.67595305339E+02 -0.78484757151E+02 -0.64902534161E+03  0.65723882757E+03  0.00000000000E+00 0.  1.
         21    1    1    2  506  505 -0.14785711042E+01  0.41755912025E+02  0.21123723534E+02  0.46818308999E+02  0.00000000000E+00 0.  1.
<scales pt_clust_3="32.86156" pt_clust_4="32.42015" pt_clust_5="118.95698" pt_clust_6="32.86156"></scales>
<clustering>
<clus scale="   32.420">  2  4  1 -1</clus>
<clus scale="   32.862">  3  6 -1 -1</clus>
<clus scale="  118.957">  2  5  1 -1</clus>
<clus scale="  127.806">  1  3  2 -1</clus>
</clustering>
</event>
<event>
 6    0  0.6132510E+002  0.1214488E+03  0.7546771E-02  0.1240726E+00
         21   -1    0    0  503  501  0.00000000000E+00  0.00000000000E+00  0.11405073888E+02  0.11405073888E+02  0.00000000000E+00 0. -1.
         21   -1    0    0  505  502 -0.00000000000E+00 -0.00000000000E+00 -0.17646291831E+04  0.17646291831E+04  0.00000000000E+00 0. -1.
         21    1    1    2  503  502  0.65291485284E+02  0.80260224674E+02 -0.85348847866E+03  0.85973674163E+03  0.00000000000E+00 0. -1.
         21    1    1    2  504  501 -0.15464392797E+02 -0.75335197764E+02 -0.26738336139E+03  0.27822365359E+03  0.00000000000E+00 0. -1.
         21    1    1    2  505  506 -0.23378233569E+02  0.31994473508E+02 -0.31741414692E+03  0.31987799049E+03  0.00000000000E+00 0. -1.
         21    1    1    2  506  504 -0.26448858918E+02 -0.36919500418E+02 -0.31493812221E+03  0.31819587123E+03  0.00000000000E+00 0. -1.
<scales pt_clust_3="111.75734" pt_clust_4="36.53314" pt_clust_5="39.62560" pt_clust_6="36.53314"></scales>
<clustering>
<clus scale="   36.533">  4  6 -1 -1</clus>
<clus scale="   39.626">  2  5  1 -1</clus>
<clus scale="  111.757">  2  3  1 -1</clus>
<clus scale="  121.449">  1  3  2 -1</clus>
</clustering>
</event>
<event>
 6    0  0.6132510E+002  0.1127571E+03  0.7546771E-02  0.1255548E+00
         21   -1    0    0  503  501  0.00000000000E+00  0.00000000000E+00  0.13021625128E+03  0.13021625128E+03  0.00000000000E+00 0. -1.
         21   -1    0    0  505  502 -0.00000000000E+00 -0.00000000000E+00 -0.34852858723E+03  0.34852858723E+03  0.00000000000E+00 0. -1.
         21    1    1    2  503  504 -0.21252309666E+02 -0.36852075335E+02  0.35477477606E+02  0.55393027900E+02  0.00000000000E+00 0. -1.
         21    1    1    2  504  502 -0.25675269993E+02 -0.52805125450E+02 -0.11529152162E+02  0.59837464122E+02  0.00000000000E+00 0. -1.
         21    1    1    2  505  506 -0.39233208533E+02  0.26454944782E+02 -0.25182402692E+03  0.25623124183E+03  0.00000000000E+00 0. -1.
         21    1    1    2  506  501  0.86160788192E+02  0.63202256003E+02  0.95633655259E+01  0.10728310466E+03  0.00000000000E+00 0. -1.
<scales pt_clust_3="42.25119" pt_clust_4="42.25119" pt_clust_5="47.31922" pt_clust_6="101.24340"></scales>
<clustering>
<clus scale="   42.251">  3  4 -1 -1</clus>
<clus scale="   47.319">  2  5  1 -1</clus>
<clus scale="  101.243">  2  6  1 -1</clus>
<clus scale="  112.757">  1  3  2 -1</clus>
</clustering>
</event>
<event>
 6    0  0.6132510E+002  0.9187958E+02  0.7546771E-02  0.1298363E+00
         21   -1    0    0  506  501  0.00000000000E+00  0.00000000000E+00  0.15619544805E+03  0.15619544805E+03  0.00000000000E+00 0. -1.
         21   -1    0    0  505  502 -0.00000000000E+00 -0.00000000000E+00 -0.19849739829E+03  0.19849739829E+03  0.00000000000E+00 0. -1.
         21    1    1    2  503  502  0.64069488557E+02  0.18667129077E+02  0.73865558301E+02  0.99546380019E+02  0.00000000000E+00 0. -1.
         21    1    1    2  504  501 -0.13132352074E+03 -0.12053201552E+02 -0.77766226036E+02  0.15309713479E+03  0.00000000000E+00 0. -1.
         21    1    1    2  505  504  0.39827196602E+02  0.18226708802E+02 -0.46805739205E+02  0.64103008708E+02  0.00000000000E+00 0. -1.
         21    1    1    2  506  503  0.27426835586E+02 -0.24840636327E+02  0.84044566987E+01  0.37946322823E+02  0.00000000000E+00 0. -1.
<scales pt_clust_3="14000.00000" pt_clust_4="91.87958" pt_clust_5="44.80372" pt_clust_6="37.00390"></scales>
<clustering>
<clus scale="   37.004">  1  6  2 -1</clus>
<clus scale="   44.804">  2  5  1 -1</clus>
<clus scale="   91.880">  2  4  1 -1</clus>
<clus scale="   37.004">  1  3  2 -1</clus>
</clustering>
</event>
<event>
 6    0  0.6132510E+002  0.6691104E+02  0.7546771E-02  0.1370924E+00
         21   -1    0    0  506  501  0.00000000000E+00  0.00000000000E+00  0.29198801325E+03  0.29198801325E+03  0.00000000000E+00 0. -1.
         21   -1    0    0  505  502 -0.00000000000E+00 -0.00000000000E+00 -0.77669212913E+02  0.77669212913E+02  0.00000000000E+00 0. -1.
         21    1    1    2  503  501 -0.71478217392E+02 -0.16014315373E+02  0.11210956283E+03  0.13391843763E+03  0.00000000000E+00 0. -1.
         21    1    1    2  504  502  0.45555556066E+02  0.29628426572E+02  0.36896285427E+02  0.65684764047E+02  0.00000000000E+00 0. -1.
         21    1    1    2  505  503  0.30722662433E+02 -0.64835953502E+02 -0.16303987077E+02  0.73575830597E+02  0.00000000000E+00 0. -1.
         21    1    1    2  506  504 -0.48000011071E+01  0.51221842303E+02  0.81616939159E+02  0.96478193895E+02  0.00000000000E+00 0. -1.
<scales pt_clust_3="66.91104" pt_clust_4="61.47196" pt_clust_5="14000.00000" pt_clust_6="51.44625"></scales>
<clustering>
<clus scale="   51.446">  1  6  2 -1</clus>
<clus scale="   61.472">  2  4  1 -1</clus>
<clus scale="   66.911">  1  3  2 -1</clus>
<clus scale="   51.446">  1  3  2 -1</clus>
</clustering>
</event>
<event>
 6    0  0.6132510E+002  0.1187798E+03  0.7546771E-02  0.1245124E+00
         21   -1    0    0  503  501  0.00000000000E+00  0.00000000000E+00  0.15764403718E+03  0.15764403718E+03  0.00000000000E+00 0.  1.
         21   -1    0    0  506  502 -0.00000000000E+00 -0.00000000000E+00 -0.77325731114E+03  0.77325731114E+03  0.00000000000E+00 0.  1.
         21    1    1    2  503  502  0.15030470453E+03  0.34641917532E+02  0.58778234738E+02  0.16506497973E+03  0.00000000000E+00 0.  1.
         21    1    1    2  504  505 -0.41593078717E+02  0.61930053241E+01 -0.14309437140E+03  0.14914535406E+03  0.00000000000E+00 0.  1.
         21    1    1    2  505  501 -0.87579300931E+02 -0.10537049580E+02 -0.42102733505E+01  0.88311322983E+02  0.00000000000E+00 0. -1.
         21    1    1    2  506  504 -0.21132324886E+02 -0.30297873276E+02 -0.52708686395E+03  0.52837969154E+03  0.00000000000E+00 0.  1.
<scales pt_clust_3="14000.00000" pt_clust_4="55.44815" pt_clust_5="118.77975" pt_clust_6="36.93963"></scales>
<clustering>
<clus scale="   36.940">  2  6  1 -1</clus>
<clus scale="   55.448">  2  4  1 -1</clus>
<clus scale="  118.780">  1  5  2 -1</clus>
<clus scale="  118.780">  1  3  2 -1</clus>
</clustering>
</event>
<event>
 6    0  0.6132510E+002  0.1166864E+03  0.7546771E-02  0.1248666E+00
         21   -1    0    0  503  501  0.00000000000E+00  0.00000000000E+00  0.60699362094E+03  0.60699362094E+03  0.00000000000E+00 0. -1.
         21   -1    0    0  506  502 -0.00000000000E+00 -0.00000000000E+00 -0.41195939145E+03  0.41195939145E+03  0.00000000000E+00 0.  1.
         21    1    1    2  503  504  0.79536469136E+02  0.17283407633E+02  0.33972937378E+03  0.34934340342E+03  0.00000000000E+00 0. -1.
         21    1    1    2  504  502 -0.26658011776E+02 -0.23032241753E+02 -0.43967003911E+01  0.35503024186E+02  0.00000000000E+00 0. -1.
         21    1    1    2  505  501  0.30095310227E+02 -0.68154179047E+02  0.23300035969E+03  0.24462192755E+03  0.00000000000E+00 0. -1.
         21    1    1    2  506  505 -0.82973767587E+02  0.73903013168E+02 -0.37329880359E+03  0.38948465724E+03  0.00000000000E+00 0.  1.
<scales pt_clust_3="116.68641" pt_clust_4="35.22973" pt_clust_5="74.65752" pt_clust_6="14000.00000"></scales>
<clustering>
<clus scale="   35.230">  2  4  1 -1</clus>
<clus scale="   74.658">  1  5  2 -1</clus>
<clus scale="  116.686">  1  3  2 -1</clus>
<clus scale="   74.658">  1  3  2 -1</clus>
</clustering>
</event>
<event>
 6    0  0.6132510E+002  0.1461261E+03  0.7546771E-02  0.1205316E+00
         21   -1    0    0  504  501  0.00000000000E+00  0.00000000000E+00  0.39934842942E+03  0.39934842942E+03  0.00000000000E+00 0. -1.
         21   -1    0    0  506  502 -0.00000000000E+00 -0.00000000000E+00 -0.15388513626E+03  0.15388513626E+03  0.00000000000E+00 0.  1.
         21    1    1    2  503  502 -0.20928516951E+02 -0.63397791555E+02  0.87357692292E+02  0.10994839334E+03  0.00000000000E+00 0. -1.
         21    1    1    2  504  503  0.64822131431E+01 -0.60294203928E+02  0.13558177596E+03  0.14852551325E+03  0.00000000000E+00 0. -1.
         21    1    1    2  505  501  0.79266213019E+02 -0.78707202055E+01  0.10083160437E+03  0.12849938989E+03  0.00000000000E+00 0. -1.
         21    1    1    2  506  505 -0.64819909212E+02  0.13156271569E+03 -0.78307779462E+02  0.16626026920E+03  0.00000000000E+00 0.  1.
<scales pt_clust_3="38.10252" pt_clust_4="38.10252" pt_clust_5="79.65602" pt_clust_6="140.55061"></scales>
<clustering>
<clus scale="   38.103">  3  4 -1 -1</clus>
<clus scale="   79.656">  1  5  2 -1</clus>
<clus scale="  140.551">  2  6  1 -1</clus>
<clus scale="   79.656">  1  3  2 -1</clus>
</clustering>
</event>
<event>
 6    0  0.6132510E+002  0.1068584E+03  0.7546771E-02  0.1266501E+00
         21   -1    0    0  506  501  0.00000000000E+00  0.00000000000E+00  0.61466017296E+02  0.61466017296E+02  0.00000000000E+00 0.  1.
         21   -1    0    0  505  502 -0.00000000000E+00 -0.00000000000E+00 -0.42636604784E+03  0.42636604784E+03  0.00000000000E+00 0.  1.
         21    1    1    2  503  502 -0.31145516192E+02 -0.10190467656E+02 -0.10015182718E+03  0.10537683473E+03  0.00000000000E+00 0.  1.
         21    1    1    2  504  501  0.17129438189E+02 -0.38512423803E+02 -0.18622681149E+02  0.46080675917E+02  0.00000000000E+00 0.  1.
         21    1    1    2  505  504  0.98426555947E+02  0.86742813846E+02 -0.17938493718E+03  0.22224099162E+03  0.00000000000E+00 0.  1.
         21    1    1    2  506  503 -0.84410477945E+02 -0.38039922388E+02 -0.66740585031E+02  0.11413356287E+03  0.00000000000E+00 0.  1.
<scales pt_clust_3="32.77024" pt_clust_4="41.94229" pt_clust_5="14000.00000" pt_clust_6="106.85838"></scales>
<clustering>
<clus scale="   32.770">  2  3  1 -1</clus>
<clus scale="   41.942">  1  4  2 -1</clus>
<clus scale="  106.858">  1  6  2 -1</clus>
<clus scale="   41.942">  1  3  2 -1</clus>
</clustering>
</event>
<event>
 6    0  0.6132510E+002  0.1631107E+03  0.7546771E-02  0.1185229E+00
         21   -1    0    0  506  501  0.00000000000E+00  0.00000000000E+00  0.98193794161E+03  0.98193794161E+03  0.00000000000E+00 0.  1.
         21   -1    0    0  504  502 -0.00000000000E+00 -0.00000000000E+00 -0.14544345799E+03  0.14544345799E+03  0.00000000000E+00 0.  1.
         21    1    1    2  503  502 -0.16085579072E+02  0.14866504215E+03 -0.59088895792E+02  0.16078413546E+03  0.00000000000E+00 0.  1.
         21    1    1    2  504  505  0.50566139606E+02  0.17496418945E+02  0.15323324082E+01  0.53529498346E+02  0.00000000000E+00 0.  1.
         21    1    1    2  505  501 -0.30499906803E+02 -0.12331633230E+03  0.79484004907E+03  0.80492724251E+03  0.00000000000E+00 0.  1.
         21    1    1    2  506  503 -0.39806537306E+01 -0.42845128793E+02  0.99210997933E+02  0.10814052328E+03  0.00000000000E+00 0. -1.
<scales pt_clust_3="163.11070" pt_clust_4="52.96472" pt_clust_5="14000.00000" pt_clust_6="43.02965"></scales>
<clustering>
<clus scale="   43.030">  1  6  2 -1</clus>
<clus scale="   52.965">  2  4  1 -1</clus>
<clus scale="  163.111">  2  3  1 -1</clus>
<clus scale="   43.030">  1  3  2 -1</clus>
</clustering>
</event>
<event>
 6    0  0.6132510E+002  0.9614609E+02  0.7546771E-02  0.1288615E+00
         21   -1    0    0  504  501  0.00000000000E+00  0.00000000000E+00  0.24168388057E+03  0.24168388057E+03  0.00000000000E+00 0.  1.
         21   -1    0    0  505  502 -0.00000000000E+00 -0.00000000000E+00 -0.27194332654E+03  0.27194332654E+03  0.00000000000E+00 0.  1.
         21    1    1    2  503  506  0.17246565898E+02  0.91657716028E+02 -0.11866828187E+03  0.15093290584E+03  0.00000000000E+00 0.  1.
         21    1    1    2  504  502 -0.45258996285E+02 -0.80225236417E+01  0.15272396653E+03  0.15949090126E+03  0.00000000000E+00 0.  1.
         21    1    1    2  505  503  0.46553745087E+02 -0.38818837944E+01 -0.10266014197E+03  0.11278929449E+03  0.00000000000E+00 0.  1.
         21    1    1    2  506  501 -0.18541314699E+02 -0.79753308592E+02  0.38345011335E+02  0.90414105517E+02  0.00000000000E+00 0.  1.
<scales pt_clust_3="96.14609" pt_clust_4="45.96453" pt_clust_5="44.09100" pt_clust_6="14000.00000"></scales>
<clustering>
<clus scale="   45.965">  1  4  2 -1</clus>
<clus scale="   44.091">  2  5  1 -1</clus>
<clus scale="   96.146">  2  3  1 -1</clus>
<clus scale="   45.965">  1  3  2 -1</clus>
</clustering>
</event>
<event>
 6    0  0.6132510E+002  0.1425736E+03  0.7546771E-02  0.1209907E+00
         21   -1    0    0  503  501  0.00000000000E+00  0.00000000000E+00  0.52375397366E+03  0.52375397366E+03  0.00000000000E+00 0. -1.
         21   -1    0    0  506  502 -0.00000000000E+00 -0.00000000000E+00 -0.90323428284E+02  0.90323428284E+02  0.00000000000E+00 0. -1.
         21    1    1    2  503  504  0.70863584310E+01  0.40805795623E+02  0.15505036577E+03  0.16048658934E+03  0.00000000000E+00 0. -1.
         21    1    1    2  504  505 -0.93263763794E+02  0.33803050756E+02  0.24485112563E+03  0.26418336359E+03  0.00000000000E+00 0. -1.
         21    1    1    2  505  502 -0.32425970957E+02 -0.11955074126E+02  0.42730597496E+02  0.54956995480E+02  0.00000000000E+00 0. -1.
         21    1    1    2  506  501  0.11860337632E+03 -0.62653772253E+02 -0.92015435190E+01  0.13445045353E+03  0.00000000000E+00 0. -1.
<scales pt_clust_3="41.41654" pt_clust_4="31.63190" pt_clust_5="31.63190" pt_clust_6="132.11800"></scales>
<clustering>
<clus scale="   31.632">  4  5 -1 -1</clus>
<clus scale="   41.417">  1  3  2 -1</clus>
<clus scale="  132.118">  2  6  1 -1</clus>
<clus scale="   41.417">  1  3  2 -1</clus>
</clustering>
</event>
<event>
 6    0  0.6132510E+002  0.1016002E+03  0.7546771E-02  0.1276967E+00
         21   -1    0    0  503  501  0.00000000000E+00  0.00000000000E+00  0.59041312541E+03  0.59041312541E+03  0.00000000000E+00 0. -1.
         21   -1    0    0  506  502 -0.00000000000E+00 -0.00000000000E+00 -0.34867419648E+03  0.34867419648E+03  0.00000000000E+00 0. -1.
         21    1    1    2  503  504 -0.41520195585E+02  0.13712697946E+01  0.36106047178E+02  0.55040472973E+02  0.00000000000E+00 0. -1.
         21    1    1    2  504  502  0.14099187614E+01 -0.65595684250E+02  0.45990695977E+01  0.65771826068E+02  0.00000000000E+00 0. -1.
         21    1    1    2  505  501 -0.42284217325E+02 -0.61170400999E+02  0.48843590522E+03  0.49406417245E+03  0.00000000000E+00 0. -1.
         21    1    1    2  506  505  0.82394494149E+02  0.12539481545E+03 -0.28740209307E+03  0.32421085039E+03  0.00000000000E+00 0. -1.
<scales pt_clust_3="41.54283" pt_clust_4="65.51947" pt_clust_5="101.60016" pt_clust_6="14000.00000"></scales>
<clustering>
<clus scale="   41.543">  1  3  2 -1</clus>
<clus scale="   65.519">  2  4  1 -1</clus>
<clus scale="  101.600">  1  5  2 -1</clus>
<clus scale="   41.543">  1  3  2 -1</clus>
</clustering>
</event>
<event>
 6    0  0.6132510E+002  0.1726611E+03  0.7546771E-02  0.1175101E+00
         21   -1    0    0  504  501  0.00000000000E+00  0.00000000000E+00  0.30530802125E+03  0.30530802125E+03  0.00000000000E+00 0.  1.
         21   -1    0    0  505  502 -0.00000000000E+00 -0.00000000000E+00 -0.50007186144E+03  0.50007186144E+03  0.00000000000E+00 0.  1.
         21    1    1    2  503  502  0.24202924931E+02  0.52428797209E+02 -0.31776157391E+03  0.32296590874E+03  0.00000000000E+00 0.  1.
         21    1    1    2  504  506 -0.11863105254E+03 -0.15960417050E+03  0.21729179107E+03  0.29455481720E+03  0.00000000000E+00 0.  1.
         21    1    1    2  505  501  0.70932968434E+00  0.34464478414E+02 -0.51062660067E+02  0.61609241791E+02  0.00000000000E+00 0.  1.
         21    1    1    2  506  503  0.93718797926E+02  0.72710894881E+02 -0.43231397273E+02  0.12624991497E+03  0.00000000000E+00 0.  1.
<scales pt_clust_3="81.16550" pt_clust_4="172.66112" pt_clust_5="34.47178" pt_clust_6="14000.00000"></scales>
<clustering>
<clus scale="   34.472">  2  5  1 -1</clus>
<clus scale="   81.166">  2  3  1 -1</clus>
<clus scale="  172.661">  1  4  2 -1</clus>
<clus scale="  172.661">  1  3  2 -1</clus>
</clustering>
</event>
<event>
 6    0  0.6132510E+002  0.1169616E+03  0.7546771E-02  0.1248195E+00
         21   -1    0    0  506  501  0.00000000000E+00  0.00000000000E+00  0.34448737486E+03  0.34448737486E+03  0.00000000000E+00 0.  1.
         21   -1    0    0  505  502 -0.00000000000E+00 -0.00000000000E+00 -0.53720653089E+03  0.53720653089E+03  0.00000000000E+00 0. -1.
         21    1    1    2  503  504  0.87259701550E+02 -0.54052219689E+02  0.23468453303E+03  0.25614981556E+03  0.00000000000E+00 0.  1.
         21    1    1    2  504  502  0.30425911341E+02  0.13196385748E+02 -0.75327002226E+02  0.82304543873E+02  0.00000000000E+00 0. -1.
         21    1    1    2  505  501 -0.11218223586E+03  0.71070260293E+02 -0.43499587635E+03  0.45481562021E+03  0.00000000000E+00 0. -1.
         21    1    1    2  506  503 -0.55033770299E+01 -0.30214426352E+02  0.82919189512E+02  0.88423926105E+02  0.00000000000E+00 0.  1.
<scales pt_clust_3="14000.00000" pt_clust_4="32.93613" pt_clust_5="116.96157" pt_clust_6="30.71154"></scales>
<clustering>
<clus scale="   30.712">  1  6  2 -1</clus>
<clus scale="   32.936">  2  4  1 -1</clus>
<clus scale="  116.962">  2  5  1 -1</clus>
<clus scale="   30.712">  1  3  2 -1</clus>
</clustering>
</event>
<event>
 6    0  0.6132510E+002  0.9142208E+02  0.7546771E-02  0.1299444E+00
         21   -1    0    0  504  501  0.00000000000E+00  0.00000000000E+00  0.10567448175E+03  0.10567448175E+03  0.00000000000E+00 0.  1.
         21   -1    0    0  506  502 -0.00000000000E+00 -0.00000000000E+00 -0.39139779087E+03  0.39139779087E+03  0.00000000000E+00 0.  1.
         21    1    1    2  503  501 -0.87959990812E+02  0.32773866374E+02 -0.12356547291E+03  0.15517574681E+03  0.00000000000E+00 0.  1.
         21    1    1    2  504  505  0.85694060068E+02  0.44132653792E+02  0.49962968606E+02  0.10857007550E+03  0.00000000000E+00 0.  1.
         21    1    1    2  505  502 -0.45122905966E+01 -0.35224865152E+02 -0.30350243635E+02  0.46714978113E+02  0.00000000000E+00 0.  1.
         21    1    1    2  506  503  0.67782213407E+01 -0.41681655014E+02 -0.18177056118E+03  0.18661147221E+03  0.00000000000E+00 0.  1.
<scales pt_clust_3="91.42208" pt_clust_4="14000.00000" pt_clust_5="35.51270" pt_clust_6="60.23118"></scales>
<clustering>
<clus scale="   35.513">  2  5  1 -1</clus>
<clus scale="   60.231">  2  6  1 -1</clus>
<clus scale="   91.422">  2  3  1 -1</clus>
<clus scale="   91.422">  1  3  2 -1</clus>
</clustering>
</event>
<event>
 6    0  0.6132510E+002  0.9395571E+02  0.7546771E-02  0.1293546E+00
         21   -1    0    0  503  501  0.00000000000E+00  0.00000000000E+00  0.31333081287E+03  0.31333081287E+03  0.00000000000E+00 0. -1.
         21   -1    0    0  506  502 -0.00000000000E+00 -0.00000000000E+00 -0.14069162478E+03  0.14069162478E+03  0.00000000000E+00 0. -1.
         21    1    1    2  503  502  0.56535788037E+02  0.47443752956E+02 -0.11958823889E+02  0.74767763724E+02  0.00000000000E+00 0. -1.
         21    1    1    2  504  505 -0.15525947964E+02  0.45160290801E+02  0.16596157731E+03  0.17269554734E+03  0.00000000000E+00 0. -1.
         21    1    1    2  505  501  0.47226391543E+01  0.41070631025E+02  0.46856545163E+02  0.62487085689E+02  0.00000000000E+00 0. -1.
         21    1    1    2  506  504 -0.45732479227E+02 -0.13367467478E+03 -0.28220110498E+02  0.14407204091E+03  0.00000000000E+00 0. -1.
<scales pt_clust_3="93.95571" pt_clust_4="73.11190" pt_clust_5="41.34126" pt_clust_6="14000.00000"></scales>
<clustering>
<clus scale="   41.341">  1  5  2 -1</clus>
<clus scale="   73.112">  1  4  2 -1</clus>
<clus scale="   93.956">  2  3  1 -1</clus>
<clus scale="   41.341">  1  3  2 -1</clus>
</clustering>
</event>
<event>
 6    0  0.6132510E+002  0.2757986E+03  0.7546771E-02  0.1098006E+00
         21   -1    0    0  503  501  0.00000000000E+00  0.00000000000E+00  0.90845290812E+03  0.90845290812E+03  0.00000000000E+00 0.  1.
         21   -1    0    0  501  502 -0.00000000000E+00 -0.00000000000E+00 -0.77698591444E+02  0.77698591444E+02  0.00000000000E+00 0. -1.
         21    1    1    2  503  505 -0.68596676897E+02  0.69482638617E+00  0.20509465472E+03  0.21626327533E+03  0.00000000000E+00 0. -1.
         21    1    1    2  504  502  0.23531171136E+03  0.34625135708E+02  0.26076458899E+03  0.35294287412E+03  0.00000000000E+00 0.  1.
         21    1    1    2  505  506 -0.35653944234E+02 -0.42159130760E+02  0.19260938990E+03  0.20036709591E+03  0.00000000000E+00 0. -1.
         21    1    1    2  506  504 -0.13106109023E+03  0.68391686663E+01  0.17228568307E+03  0.21657825420E+03  0.00000000000E+00 0. -1.
<scales pt_clust_3="109.84795" pt_clust_4="237.84554" pt_clust_5="47.68285" pt_clust_6="109.84795"></scales>
<clustering>
<clus scale="   47.683">  3  5 -1 -1</clus>
<clus scale="  109.848">  3  6 -1 -1</clus>
<clus scale="  237.846">  2  4  1 -1</clus>
<clus scale="  275.799">  1  3  2 -1</clus>
</clustering>
</event>
<event>
 6    0  0.6132510E+002  0.9437310E+02  0.7546771E-02  0.1292594E+00
         21   -1    0    0  506  501  0.00000000000E+00  0.00000000000E+00  0.59950012256E+03  0.59950012256E+03  0.00000000000E+00 0.  1.
         21   -1    0    0  505  502 -0.00000000000E+00 -0.00000000000E+00 -0.25418749321E+03  0.25418749321E+03  0.00000000000E+00 0.  1.
         21    1    1    2  503  502 -0.30434211979E+02  0.75286207179E+02  0.37131993830E+02  0.89291876539E+02  0.00000000000E+00 0. -1.
         21    1    1    2  504  501 -0.78145063609E+02 -0.17312667666E+02  0.71410101202E+02  0.10726500819E+03  0.00000000000E+00 0.  1.
         21    1    1    2  505  504  0.47507367783E+02 -0.84373596240E+02 -0.19635125989E+03  0.21892846091E+03  0.00000000000E+00 0.  1.
         21    1    1    2  506  503  0.61071907805E+02  0.26400056728E+02  0.43312179422E+03  0.43820227013E+03  0.00000000000E+00 0.  1.
<scales pt_clust_3="94.37310" pt_clust_4="44.93859" pt_clust_5="14000.00000" pt_clust_6="66.53376"></scales>
<clustering>
<clus scale="   66.534">  1  6  2 -1</clus>
<clus scale="   44.939">  1  4  2 -1</clus>
<clus scale="   94.373">  1  3  2 -1</clus>
<clus scale="   66.534">  1  3  2 -1</clus>
</clustering>
</event>
<event>
 6    0  0.6132510E+002  0.1544010E+03  0.7546771E-02  0.1195167E+00
         21   -1    0    0  506  501  0.00000000000E+00  0.00000000000E+00  0.37065494776E+03  0.37065494776E+03  0.00000000000E+00 0. -1.
         21   -1    0    0  503  502 -0.00000000000E+00 -0.00000000000E+00 -0.44610857654E+03  0.44610857654E+03  0.00000000000E+00 0. -1.
         21    1    1    2  503  501 -0.15343964295E+03 -0.35521674840E+02  0.12867549637E+03  0.20337870286E+03  0.00000000000E+00 0. -1.
         21    1    1    2  504  502  0.32758482318E+02 -0.22909002869E+02 -0.18028886691E+03  0.18466731196E+03  0.00000000000E+00 0. -1.
         21    1    1    2  505  504 -0.34094777196E+02  0.11128255001E+03 -0.17223864780E+03  0.20787595235E+03  0.00000000000E+00 0. -1.
         21    1    1    2  506  505  0.15477593782E+03 -0.52851872296E+02  0.14839838957E+03  0.22084155714E+03  0.00000000000E+00 0. -1.
<scales pt_clust_3="154.40104" pt_clust_4="39.97425" pt_clust_5="95.34446" pt_clust_6="14000.00000"></scales>
<clustering>
<clus scale="   39.974">  2  4  1 -1</clus>
<clus scale="   95.344">  2  5  1 -1</clus>
<clus scale="  154.401">  2  3  1 -1</clus>
<clus scale="  154.401">  1  3  2 -1</clus>
</clustering>
</event>
<event>
 6    0  0.6132510E+002  0.1274448E+03  0.7546771E-02  0.1231297E+00
         21   -1    0    0  506  501  0.00000000000E+00  0.00000000000E+00  0.56597358917E+02  0.56597358917E+02  0.00000000000E+00 0. -1.
         21   -1    0    0  505  502 -0.00000000000E+00 -0.00000000000E+00 -0.87251963188E+03  0.87251963188E+03  0.00000000000E+00 0. -1.
         21    1    1    2  503  502  0.25334768432E+02  0.43638988224E+02 -0.16547524050E+03  0.17299788150E+03  0.00000000000E+00 0.  1.
         21    1    1    2  504  501  0.47807968742E+02 -0.54452401569E+02  0.15656163240E+01  0.72478390341E+02  0.00000000000E+00 0. -1.
         21    1    1    2  505  504  0.36454695307E+02 -0.28608475805E+02 -0.41783998773E+02  0.62396251901E+02  0.00000000000E+00 0. -1.
         21    1    1    2  506  503 -0.10959743248E+03  0.39421889150E+02 -0.61022865001E+03  0.62124446706E+03  0.00000000000E+00 0. -1.
<scales pt_clust_3="50.46000" pt_clust_4="40.57490" pt_clust_5="40.57490" pt_clust_6="116.90947"></scales>
<clustering>
<clus scale="   40.575">  4  5 -1 -1</clus>
<clus scale="   50.460">  2  3  1 -1</clus>
<clus scale="  116.909">  2  6  1 -1</clus>
<clus scale="  127.445">  1  3  2 -1</clus>
</clustering>
</event>
<event>
 6    0  0.6132510E+002  0.1876825E+03  0.7546771E-02  0.1160568E+00
         21   -1    0    0  503  501  0.00000000000E+00  0.00000000000E+00  0.29826701903E+03  0.29826701903E+03  0.00000000000E+00 0.  1.
         21   -1    0    0  504  502 -0.00000000000E+00 -0.00000000000E+00 -0.19309928371E+03  0.19309928371E+03  0.00000000000E+00 0.  1.
         21    1    1    2  503  505  0.18030320324E+03 -0.65999175271E+01  0.10046436443E+03  0.20650881950E+03  0.00000000000E+00 0.  1.
         21    1    1    2  504  506  0.13776769966E+01 -0.49853977759E+02 -0.93675617679E+01  0.50745130857E+02  0.00000000000E+00 0.  1.
         21    1    1    2  505  502 -0.19282416576E+03  0.26028259026E+02 -0.82802959902E+01  0.19474904998E+03  0.00000000000E+00 0.  1.
         21    1    1    2  506  501  0.11143285519E+02  0.30425636260E+02  0.22351228653E+02  0.39363302406E+02  0.00000000000E+00 0.  1.
<scales pt_clust_3="187.68250" pt_clust_4="47.55281" pt_clust_5="14000.00000" pt_clust_6="32.40204"></scales>
<clustering>
<clus scale="   32.402">  1  6  2 -1</clus>
<clus scale="   47.553">  2  4  1 -1</clus>
<clus scale="  187.682">  1  3  2 -1</clus>
<clus scale="   32.402">  1  3  2 -1</clus>
</clustering>
</event>
<event>
 6    0  0.6132510E+002  0.1745564E+03  0.7546771E-02  0.1173178E+00
         21   -1    0    0  505  501  0.00000000000E+00  0.00000000000E+00  0.17530028814E+03  0.17530028814E+03  0.00000000000E+00 0. -1.
         21   -1    0    0  503  502 -0.00000000000E+00 -0.00000000000E+00 -0.84496268199E+03  0.84496268199E+03  0.00000000000E+00 0. -1.
         21    1    1    2  503  501 -0.10082619354E+03 -0.61382840633E+02 -0.40302565871E+02  0.12473199768E+03  0.00000000000E+00 0. -1.
         21    1    1    2  504  502 -0.43314401470E+02  0.16843448719E+02 -0.21226691456E+03  0.21729491976E+03  0.00000000000E+00 0. -1.
         21    1    1    2  505  506 -0.83433182539E+02  0.69598000154E+00  0.88760259471E+02  0.12181939090E+03  0.00000000000E+00 0. -1.
         21    1    1    2  506  504  0.22757377755E+03  0.43843411913E+02 -0.50585317289E+03  0.55641666179E+03  0.00000000000E+00 0. -1.
<scales pt_clust_3="14000.00000" pt_clust_4="46.47407" pt_clust_5="84.57697" pt_clust_6="174.55645"></scales>
<clustering>
<clus scale="   46.474">  2  4  1 -1</clus>
<clus scale="   84.577">  1  5  2 -1</clus>
<clus scale="  174.556">  2  6  1 -1</clus>
<clus scale="   84.577">  1  3  2 -1</clus>
</clustering>
</event>
<event>
 6    0  0.6132510E+002  0.6669088E+02  0.7546771E-02  0.1371722E+00
         21   -1    0    0  503  501  0.00000000000E+00  0.00000000000E+00  0.26804037322E+03  0.26804037322E+03  0.00000000000E+00 0. -1.
         21   -1    0    0  505  502 -0.00000000000E+00 -0.00000000000E+00 -0.23233899521E+03  0.23233899521E+03  0.00000000000E+00 0. -1.
         21    1    1    2  503  502 -0.48383393811E+02  0.57971866400E+02 -0.85354757971E+02  0.11396106703E+03  0.00000000000E+00 0. -1.
         21    1    1    2  504  506  0.23287902029E+02 -0.79597540291E+02  0.21220913706E+03  0.22783944490E+03  0.00000000000E+00 0. -1.
         21    1    1    2  505  504  0.61024909553E+02  0.90079870322E+01 -0.10180596476E+03  0.11903628807E+03  0.00000000000E+00 0. -1.
         21    1    1    2  506  501 -0.35929417770E+02  0.12617686859E+02  0.10652963676E+02  0.39542568430E+02  0.00000000000E+00 0. -1.
<scales pt_clust_3="14000.00000" pt_clust_4="66.69088" pt_clust_5="60.49432" pt_clust_6="38.08056"></scales>
<clustering>
<clus scale="   38.081">  1  6  2 -1</clus>
<clus scale="   60.494">  2  5  1 -1</clus>
<clus scale="   66.691">  1  4  2 -1</clus>
<clus scale="   38.081">  1  3  2 -1</clus>
</clustering>
</event>
<event>
 6    0  0.6132510E+002  0.9761531E+02  0.7546771E-02  0.1285392E+00
         21   -1    0    0  506  501  0.00000000000E+00  0.00000000000E+00  0.32097205331E+02  0.32097205331E+02  0.00000000000E+00 0. -1.
         21   -1    0    0  504  502 -0.00000000000E+00 -0.00000000000E+00 -0.12479754077E+04  0.12479754077E+04  0.00000000000E+00 0.  1.
         21    1    1    2  503  502  0.22128497252E+02 -0.99623673654E+02 -0.16091761217E+03  0.19054927092E+03  0.00000000000E+00 0. -1.
         21    1    1    2  504  501 -0.86048720802E+02  0.54022481676E+02 -0.94550174745E+03  0.95094498543E+03  0.00000000000E+00 0.  1.
         21    1    1    2  505  503  0.25721823392E+02  0.30085425948E+02 -0.75167421994E+02  0.84952259430E+02  0.00000000000E+00 0.  1.
         21    1    1    2  506  505  0.38198400159E+02  0.15515766030E+02 -0.34291420789E+02  0.53626097284E+02  0.00000000000E+00 0. -1.
<scales pt_clust_3="14000.00000" pt_clust_4="97.61531" pt_clust_5="31.86238" pt_clust_6="84.98660"></scales>
<clustering>
<clus scale="   31.862">  5  6 -1 -1</clus>
<clus scale="   84.987">  1  5  2 -1</clus>
<clus scale="   97.615">  2  4  1 -1</clus>
<clus scale="   84.987">  1  3  2 -1</clus>
</clustering>
</event>
<event>
 6    0  0.6132510E+002  0.1417129E+03  0.7546771E-02  0.1211042E+00
         21   -1    0    0  504  501  0.00000000000E+00  0.00000000000E+00  0.37165747870E+03  0.37165747870E+03  0.00000000000E+00 0. -1.
         21   -1    0    0  505  502 -0.00000000000E+00 -0.00000000000E+00 -0.50937037929E+03  0.50937037929E+03  0.00000000000E+00 0. -1.
         21    1    1    2  503  501  0.53298786984E+01  0.36841471399E+02  0.14273227486E+03  0.14750662327E+03  0.00000000000E+00 0. -1.
         21    1    1    2  504  502 -0.33402322284E+02  0.26094692271E+02  0.15284647683E+03  0.15861492230E+03  0.00000000000E+00 0. -1.
         21    1    1    2  505  506  0.53003413160E+02  0.12219825867E+03 -0.34192705115E+03  0.36695488079E+03  0.00000000000E+00 0. -1.
         21    1    1    2  506  503 -0.24930969575E+02 -0.18513442234E+03 -0.91364601127E+02  0.20795143163E+03  0.00000000000E+00 0. -1.
<scales pt_clust_3="37.22501" pt_clust_4="59.40100" pt_clust_5="141.71294" pt_clust_6="14000.00000"></scales>
<clustering>
<clus scale="   37.225">  1  3  2 -1</clus>
<clus scale="   59.401">  1  4  2 -1</clus>
<clus scale="  141.713">  2  5  1 -1</clus>
<clus scale="   37.225">  1  3  2 -1</clus>
</clustering>
</event>
<event>
 6    0  0.6132510E+002  0.8516156E+02  0.7546771E-02  0.1315011E+00
         21   -1    0    0  506  501  0.00000000000E+00  0.00000000000E+00  0.14153060848E+03  0.14153060848E+03  0.00000000000E+00 0.  1.
         21   -1    0    0  505  502 -0.00000000000E+00 -0.00000000000E+00 -0.13412140264E+04  0.13412140264E+04  0.00000000000E+00 0.  1.
         21    1    1    2  503  501  0.42101818443E+02 -0.73802474827E+02  0.10263094789E+03  0.13323843241E+03  0.00000000000E+00 0.  1.
         21    1    1    2  504  503 -0.73435757134E+02  0.60141187349E+02 -0.29085005157E+03  0.30594693223E+03  0.00000000000E+00 0.  1.
         21    1    1    2  505  504 -0.20618178454E+02  0.32062680305E+02 -0.97869805641E+03  0.97944015150E+03  0.00000000000E+00 0.  1.
         21    1    1    2  506  502  0.51952117146E+02 -0.18401392828E+02 -0.32766257794E+02  0.64119118707E+02  0.00000000000E+00 0.  1.
<scales pt_clust_3="14000.00000" pt_clust_4="85.16156" pt_clust_5="38.11987" pt_clust_6="51.17834"></scales>
<clustering>
<clus scale="   38.120">  2  5  1 -1</clus>
<clus scale="   51.178">  2  6  1 -1</clus>
<clus scale="   85.162">  2  4  1 -1</clus>
<clus scale="   85.162">  1  3  2 -1</clus>
</clustering>
</event>
<event>
 6    0  0.6132510E+002  0.1570424E+03  0.7546771E-02  0.1192077E+00
         21   -1    0    0  505  501  0.00000000000E+00  0.00000000000E+00  0.52079509023E+02  0.52079509023E+02  0.00000000000E+00 0. -1.
         21   -1    0    0  506  502 -0.00000000000E+00 -0.00000000000E+00 -0.16237069365E+04  0.16237069365E+04  0.00000000000E+00 0. -1.
         21    1    1    2  503  504  0.76821623870E+02 -0.10753311713E+03 -0.17369296052E+03  0.21825255487E+03  0.00000000000E+00 0. -1.
         21    1    1    2  504  501  0.62183089788E+01 -0.34140302490E+02  0.58690858612E+01  0.35194797762E+02  0.00000000000E+00 0. -1.
         21    1    1    2  505  502 -0.46613242872E+02  0.17216451059E+03 -0.10036423279E+04  0.10193681060E+04  0.00000000000E+00 0. -1.
         21    1    1    2  506  503 -0.36426689977E+02 -0.30491090975E+02 -0.40016122484E+03  0.40297098684E+03  0.00000000000E+00 0. -1.
<scales pt_clust_3="157.04240" pt_clust_4="34.70198" pt_clust_5="14000.00000" pt_clust_6="48.28600"></scales>
<clustering>
<clus scale="   34.702">  1  4  2 -1</clus>
<clus scale="   48.286">  2  6  1 -1</clus>
<clus scale="  157.042">  1  3  2 -1</clus>
<clus scale="   34.702">  1  3  2 -1</clus>
</clustering>
</event>
<event>
 6    0  0.6132510E+002  0.1073992E+03  0.7546771E-02  0.1265463E+00
         21   -1    0    0  503  501  0.00000000000E+00  0.00000000000E+00  0.85084175846E+02  0.85084175846E+02  0.00000000000E+00 0. -1.
         21   -1    0    0  505  502 -0.00000000000E+00 -0.00000000000E+00 -0.12851723020E+04  0.12851723020E+04  0.00000000000E+00 0.  1.
         21    1    1    2  503  504  0.15958131972E+02  0.38234094131E+02 -0.68308347717E+01  0.41990096853E+02  0.00000000000E+00 0. -1.
         21    1    1    2  504  506  0.45578713006E+02 -0.38990769033E+02  0.28314067424E+02  0.66327864154E+02  0.00000000000E+00 0. -1.
         21    1    1    2  505  501 -0.44862252040E+02 -0.10643947862E+03 -0.17452344584E+03  0.20928549261E+03  0.00000000000E+00 0.  1.
         21    1    1    2  506  502 -0.16674592939E+02  0.10719615352E+03 -0.10470479130E+04  0.10526530242E+04  0.00000000000E+00 0.  1.
<scales pt_clust_3="41.43076" pt_clust_4="58.05923" pt_clust_5="107.39924" pt_clust_6="14000.00000"></scales>
<clustering>
<clus scale="   41.431">  1  3  2 -1</clus>
<clus scale="   58.059">  1  4  2 -1</clus>
<clus scale="  107.399">  1  5  2 -1</clus>
<clus scale="   41.431">  1  3  2 -1</clus>
</clustering>
</event>
<event>
 6    0  0.6132510E+002  0.8559813E+02  0.7546771E-02  0.1313876E+00
         21   -1    0    0  505  501  0.00000000000E+00  0.00000000000E+00  0.10982624060E+04  0.10982624060E+04  0.00000000000E+00 0. -1.
         21   -1    0    0  503  502 -0.00000000000E+00 -0.00000000000E+00 -0.15938383371E+03  0.15938383371E+03  0.00000000000E+00 0.  1.
         21    1    1    2  503  506 -0.98884559866E+02  0.12201681510E+02  0.23586359412E+03  0.25604427789E+03  0.00000000000E+00 0. -1.
         21    1    1    2  504  502  0.12479885927E+02 -0.43366461263E+02 -0.14005457184E+03  0.14714510052E+03  0.00000000000E+00 0.  1.
         21    1    1    2  505  504  0.71804171993E+02 -0.26332683233E+02  0.38148394886E+03  0.38907486755E+03  0.00000000000E+00 0.  1.
         21    1    1    2  506  501  0.14600501946E+02  0.57497462986E+02  0.46158560111E+03  0.46538199370E+03  0.00000000000E+00 0. -1.
<scales pt_clust_3="14000.00000" pt_clust_4="45.12646" pt_clust_5="85.59813" pt_clust_6="54.70539"></scales>
<clustering>
<clus scale="   45.126">  2  4  1 -1</clus>
<clus scale="   54.705">  1  6  2 -1</clus>
<clus scale="   85.598">  1  5  2 -1</clus>
<clus scale="   54.705">  1  3  2 -1</clus>
</clustering>
</event>
<event>
 6    0  0.6132510E+002  0.1125103E+03  0.7546771E-02  0.1255991E+00
         21   -1    0    0  505  501  0.00000000000E+00  0.00000000000E+00  0.22116209289E+03  0.22116209289E+03  0.00000000000E+00 0.  1.
         21   -1    0    0  503  502 -0.00000000000E+00 -0.00000000000E+00 -0.29953405246E+03  0.29953405246E+03  0.00000000000E+00 0.  1.
         21    1    1    2  503  504  0.14043595236E+02  0.50819043189E+02 -0.22083693212E+02  0.57161938593E+02  0.00000000000E+00 0.  1.
         21    1    1    2  504  506 -0.55714529239E+02  0.96199949920E+02  0.47661686248E+02  0.12095526226E+03  0.00000000000E+00 0.  1.
         21    1    1    2  505  502  0.84846504686E+01 -0.37067791184E+02 -0.19333832576E+03  0.19704242854E+03  0.00000000000E+00 0.  1.
         21    1    1    2  506  501  0.33186283535E+02 -0.10995120192E+03  0.89388373161E+02  0.14553651595E+03  0.00000000000E+00 0.  1.
<scales pt_clust_3="40.59750" pt_clust_4="112.51033" pt_clust_5="38.02644" pt_clust_6="14000.00000"></scales>
<clustering>
<clus scale="   38.026">  2  5  1 -1</clus>
<clus scale="   40.597">  2  3  1 -1</clus>
<clus scale="  112.510">  2  4  1 -1</clus>
<clus scale="  112.510">  1  3  2 -1</clus>
</clustering>
</event>
<event>
 6    0  0.6132510E+002  0.7877561E+02  0.7546771E-02  0.1332562E+00
         21   -1    0    0  505  501  0.00000000000E+00  0.00000000000E+00  0.87445705701E+02  0.87445705701E+02  0.00000000000E+00 0.  1.
         21   -1    0    0  504  502 -0.00000000000E+00 -0.00000000000E+00 -0.12116463583E+04  0.12116463583E+04  0.00000000000E+00 0. -1.
         21    1    1    2  503  501 -0.73853448169E+02  0.18777844891E+02  0.50950336292E+02  0.91667202605E+02  0.00000000000E+00 0.  1.
         21    1    1    2  504  506 -0.36133921575E+02 -0.54217049500E+02 -0.76521380721E+03  0.76798262968E+03  0.00000000000E+00 0. -1.
         21    1    1    2  505  502 -0.11777065988E+02  0.33853690242E+02 -0.11137963499E+03  0.11700510551E+03  0.00000000000E+00 0. -1.
         21    1    1    2  506  503  0.12176443573E+03  0.15855143668E+01 -0.29855754667E+03  0.32243712618E+03  0.00000000000E+00 0.  1.
<scales pt_clust_3="14000.00000" pt_clust_4="53.87339" pt_clust_5="35.84371" pt_clust_6="78.77561"></scales>
<clustering>
<clus scale="   35.844">  2  5  1 -1</clus>
<clus scale="   53.873">  2  4  1 -1</clus>
<clus scale="   78.776">  2  6  1 -1</clus>
<clus scale="   78.776">  1  3  2 -1</clus>
</clustering>
</event>
<event>
 6    0  0.6132510E+002  0.7285184E+02  0.7546771E-02  0.1350655E+00
         21   -1    0    0  504  501  0.00000000000E+00  0.00000000000E+00  0.63911455076E+02  0.63911455076E+02  0.00000000000E+00 0.  1.
         21   -1    0    0  503  502 -0.00000000000E+00 -0.00000000000E+00 -0.78916399661E+03  0.78916399661E+03  0.00000000000E+00 0.  1.
         21    1    1    2  503  505  0.29678792458E+02  0.18130892521E+02 -0.21378134550E+03  0.21659183657E+03  0.00000000000E+00 0.  1.
         21    1    1    2  504  506 -0.36883552971E+02 -0.21077139938E+02 -0.14036860283E+02  0.44740091130E+02  0.00000000000E+00 0. -1.
         21    1    1    2  505  501  0.48958199893E+02  0.86744072416E+02 -0.15507008026E+02  0.10080628321E+03  0.00000000000E+00 0.  1.
         21    1    1    2  506  502 -0.41753439380E+02 -0.83797824999E+02 -0.48192732772E+03  0.49093724077E+03  0.00000000000E+00 0.  1.
<scales pt_clust_3="34.77873" pt_clust_4="40.70115" pt_clust_5="72.85184" pt_clust_6="14000.00000"></scales>
<clustering>
<clus scale="   34.779">  2  3  1 -1</clus>
<clus scale="   40.701">  1  4  2 -1</clus>
<clus scale="   72.852">  1  5  2 -1</clus>
<clus scale="   40.701">  1  3  2 -1</clus>
</clustering>
</event>
<event>
 6    0  0.6132510E+002  0.1367861E+03  0.7546771E-02  0.1217720E+00
         21   -1    0    0  506  501  0.00000000000E+00  0.00000000000E+00  0.38992058525E+03  0.38992058525E+03  0.00000000000E+00 0. -1.
         21   -1    0    0  501  502 -0.00000000000E+00 -0.00000000000E+00 -0.21793530144E+03  0.21793530144E+03  0.00000000000E+00 0.  1.
         21    1    1    2  503  505  0.10952556419E+03  0.72901622923E+02 -0.11203781801E+03  0.17280905214E+03  0.00000000000E+00 0.  1.
         21    1    1    2  504  503 -0.41049957633E+02 -0.67486575741E+02  0.14000399964E+03  0.16075029344E+03  0.00000000000E+00 0. -1.
         21    1    1    2  505  502 -0.31518748048E+02  0.25722461027E+02 -0.55609449295E+02  0.68902012530E+02  0.00000000000E+00 0.  1.
         21    1    1    2  506  504 -0.36956858509E+02 -0.31137508209E+02  0.19962855148E+03  0.20539452858E+03  0.00000000000E+00 0. -1.
<scales pt_clust_3="125.73965" pt_clust_4="42.27175" pt_clust_5="40.68263" pt_clust_6="42.27175"></scales>
<clustering>
<clus scale="   40.683">  2  5  1 -1</clus>
<clus scale="   42.272">  4  6 -1 -1</clus>
<clus scale="  125.740">  2  3  1 -1</clus>
<clus scale="  136.786">  1  3  2 -1</clus>
</clustering>
</event>
<event>
 6    0  0.6132510E+002  0.1281701E+03  0.7546771E-02  0.1230197E+00
         21   -1    0    0  506  501  0.00000000000E+00  0.00000000000E+00  0.13348434887E+04  0.13348434887E+04  0.00000000000E+00 0. -1.
         21   -1    0    0  504  502 -0.00000000000E+00 -0.00000000000E+00 -0.68750871327E+02  0.68750871327E+02  0.00000000000E+00 0. -1.
         21    1    1    2  503  505 -0.49236170077E+02  0.51187321873E+02  0.53592563913E+03  0.54061135120E+03  0.00000000000E+00 0. -1.
         21    1    1    2  504  503  0.68443001644E+02 -0.15189347260E+02 -0.18506730434E+02  0.72509722214E+02  0.00000000000E+00 0. -1.
         21    1    1    2  505  501 -0.54431327136E+02  0.16093944557E+02  0.71847648826E+03  0.72071509531E+03  0.00000000000E+00 0. -1.
         21    1    1    2  506  502  0.35224495569E+02 -0.52091919170E+02  0.30197220385E+02  0.69758191274E+02  0.00000000000E+00 0. -1.
<scales pt_clust_3="41.41300" pt_clust_4="119.50555" pt_clust_5="41.41300" pt_clust_6="62.88349"></scales>
<clustering>
<clus scale="   41.413">  3  5 -1 -1</clus>
<clus scale="   62.883">  2  6  1 -1</clus>
<clus scale="  119.506">  2  4  1 -1</clus>
<clus scale="  128.170">  1  3  2 -1</clus>
</clustering>
</event>
<event>
 6    0  0.6132510E+002  0.2805341E+03  0.7546771E-02  0.1095398E+00
         21   -1    0    0  503  501  0.00000000000E+00  0.00000000000E+00  0.63152725244E+03  0.63152725244E+03  0.00000000000E+00 0.  1.
         21   -1    0    0  505  502 -0.00000000000E+00 -0.00000000000E+00 -0.43803759050E+03  0.43803759050E+03  0.00000000000E+00 0. -1.
         21    1    1    2  503  504  0.25208622453E+03  0.11503470023E+03  0.47812598952E+03  0.55261642095E+03  0.00000000000E+00 0.  1.
         21    1    1    2  504  506  0.57097743242E+02 -0.19591169669E+01  0.29406894535E+01  0.57206975773E+02  0.00000000000E+00 0.  1.
         21    1    1    2  505  501 -0.27903706462E+03 -0.14122510159E+03 -0.27545425660E+03  0.41675083710E+03  0.00000000000E+00 0. -1.
         21    1    1    2  506  502 -0.30146903153E+02  0.28149518323E+02 -0.12122760434E+02  0.42990609116E+02  0.00000000000E+00 0.  1.
<scales pt_clust_3="280.53410" pt_clust_4="55.10509" pt_clust_5="14000.00000" pt_clust_6="41.24598"></scales>
<clustering>
<clus scale="   41.246">  2  6  1 -1</clus>
<clus scale="   55.105">  2  4  1 -1</clus>
<clus scale="  280.534">  1  3  2 -1</clus>
<clus scale="  280.534">  1  3  2 -1</clus>
</clustering>
</event>
<event>
 6    0  0.6132510E+002  0.9395058E+02  0.7546771E-02  0.1293557E+00
         21   -1    0    0  504  501  0.00000000000E+00  0.00000000000E+00  0.17552492700E+03  0.17552492700E+03  0.00000000000E+00 0.  1.
         21   -1    0    0  505  502 -0.00000000000E+00 -0.00000000000E+00 -0.12869677750E+04  0.12869677750E+04  0.00000000000E+00 0. -1.
         21    1    1    2  503  502  0.10326569381E+03 -0.41191235441E+02 -0.24173499668E+03  0.26607579750E+03  0.00000000000E+00 0.  1.
         21    1    1    2  504  503 -0.21548751940E+02  0.72013145261E+02  0.13838309681E+03  0.15748054890E+03  0.00000000000E+00 0.  1.
         21    1    1    2  505  506 -0.90931791785E+02  0.10357857991E+02 -0.98794651241E+03  0.99217649003E+03  0.00000000000E+00 0. -1.
         21    1    1    2  506  501  0.92148499107E+01 -0.41179767811E+02 -0.20144435692E+02  0.46759865539E+02  0.00000000000E+00 0. -1.
<scales pt_clust_3="93.95058" pt_clust_4="36.88197" pt_clust_5="14000.00000" pt_clust_6="42.19818"></scales>
<clustering>
<clus scale="   42.198">  1  6  2 -1</clus>
<clus scale="   36.882">  1  4  2 -1</clus>
<clus scale="   93.951">  1  3  2 -1</clus>
<clus scale="   42.198">  1  3  2 -1</clus>
</clustering>
</event>
<event>
 6    0  0.6132510E+002  0.1373074E+03  0.7546771E-02  0.1216999E+00
         21   -1    0    0  503  501  0.00000000000E+00  0.00000000000E+00  0.48065507289E+03  0.48065507289E+03  0.00000000000E+00 0. -1.
         21   -1    0    0  504  502 -0.00000000000E+00 -0.00000000000E+00 -0.24385273655E+03  0.24385273655E+03  0.00000000000E+00 0. -1.
         21    1    1    2  503  505 -0.11371537033E+03  0.10642766916E+03  0.37033768721E+03  0.40175619072E+03  0.00000000000E+00 0. -1.
         21    1    1    2  504  501  0.34021314083E+02 -0.13860278232E+02  0.69423838152E+02  0.78544423280E+02  0.00000000000E+00 0. -1.
         21    1    1    2  505  506  0.41371725385E+02 -0.34876452076E+02 -0.40462516938E+02  0.67566277444E+02  0.00000000000E+00 0. -1.
         21    1    1    2  506  502  0.38322330864E+02 -0.57690938856E+02 -0.16249667209E+03  0.17664091800E+03  0.00000000000E+00 0. -1.
<scales pt_clust_3="123.80821" pt_clust_4="36.73632" pt_clust_5="52.83848" pt_clust_6="52.83848"></scales>
<clustering>
<clus scale="   36.736">  1  4  2 -1</clus>
<clus scale="   52.838">  5  6 -1 -1</clus>
<clus scale="  123.808">  1  3  2 -1</clus>
<clus scale="   36.736">  1  3  2 -1</clus>
</clustering>
</event>
<event>
 6    0  0.6132510E+002  0.1056173E+03  0.7546771E-02  0.1268908E+00
         21   -1    0    0  504  501  0.00000000000E+00  0.00000000000E+00  0.24164177225E+03  0.24164177225E+03  0.00000000000E+00 0. -1.
         21   -1    0    0  505  502 -0.00000000000E+00 -0.00000000000E+00 -0.15897073595E+04  0.15897073595E+04  0.00000000000E+00 0.  1.
         21    1    1    2  503  506 -0.90290918639E+02  0.50475700155E+02 -0.12289899440E+04  0.12333355297E+04  0.00000000000E+00 0.  1.
         21    1    1    2  504  502  0.10418653100E+03 -0.74089341403E+02  0.17481785548E+03  0.21657642149E+03  0.00000000000E+00 0. -1.
         21    1    1    2  505  503 -0.12811294501E+02 -0.27650323395E+02 -0.32167770295E+03  0.32311795714E+03  0.00000000000E+00 0.  1.
         21    1    1    2  506  501 -0.10843178571E+01  0.51263964643E+02  0.27784204247E+02  0.58319223433E+02  0.00000000000E+00 0.  1.
<scales pt_clust_3="105.61729" pt_clust_4="14000.00000" pt_clust_5="30.47408" pt_clust_6="50.94592"></scales>
<clustering>
<clus scale="   30.474">  2  5  1 -1</clus>
<clus scale="   50.946">  1  6  2 -1</clus>
<clus scale="  105.617">  2  3  1 -1</clus>
<clus scale="   50.946">  1  3  2 -1</clus>
</clustering>
</event>
<event>
 6    0  0.6132510E+002  0.1863322E+03  0.7546771E-02  0.1161812E+00
         21   -1    0    0  504  501  0.00000000000E+00  0.00000000000E+00  0.43906355545E+03  0.43906355545E+03  0.00000000000E+00 0. -1.
         21   -1    0    0  501  502 -0.00000000000E+00 -0.00000000000E+00 -0.75606852879E+03  0.75606852879E+03  0.00000000000E+00 0. -1.
         21    1    1    2  503  502 -0.46376591244E+02  0.30317585565E+01 -0.65199449545E+03  0.65364883681E+03  0.00000000000E+00 0. -1.
         21    1    1    2  504  506 -0.51958301485E+02  0.22900626191E+02  0.13464423014E+03  0.14612724757E+03  0.00000000000E+00 0. -1.
         21    1    1    2  505  503  0.15691117093E+03 -0.12604588897E+03  0.53557513012E+02  0.20827167088E+03  0.00000000000E+00 0. -1.
         21    1    1    2  506  505 -0.58576278205E+02  0.10011350422E+03  0.14678777896E+03  0.18708432897E+03  0.00000000000E+00 0. -1.
<scales pt_clust_3="46.47558" pt_clust_4="46.74181" pt_clust_5="173.90827" pt_clust_6="46.74181"></scales>
<clustering>
<clus scale="   46.476">  2  3  1 -1</clus>
<clus scale="   46.742">  4  6 -1 -1</clus>
<clus scale="  173.908">  2  5  1 -1</clus>
<clus scale="  186.332">  1  3  2 -1</clus>
</clustering>
</event>
<event>
 6    0  0.6132510E+002  0.1907867E+03  0.7546771E-02  0.1157754E+00
         21   -1    0    0  503  501  0.00000000000E+00  0.00000000000E+00  0.20801866401E+03  0.20801866401E+03  0.00000000000E+00 0. -1.
         21   -1    0    0  504  502 -0.00000000000E+00 -0.00000000000E+00 -0.33107663203E+03  0.33107663203E+03  0.00000000000E+00 0.  1.
         21    1    1    2  503  502 -0.34446057255E+02  0.69262411953E+01 -0.12096013100E+03  0.12595974344E+03  0.00000000000E+00 0.  1.
         21    1    1    2  504  506 -0.69098686573E+02 -0.41923637851E+02 -0.60014223323E+02  0.10066740733E+03  0.00000000000E+00 0.  1.
         21    1    1    2  505  501  0.15873747063E+03  0.10933298898E+03  0.92297157030E+02  0.21370552697E+03  0.00000000000E+00 0. -1.
         21    1    1    2  506  505 -0.55192726803E+02 -0.74335592322E+02 -0.34380770726E+02  0.98762618300E+02  0.00000000000E+00 0.  1.
<scales pt_clust_3="35.13550" pt_clust_4="42.05929" pt_clust_5="185.74765" pt_clust_6="42.05929"></scales>
<clustering>
<clus scale="   35.136">  2  3  1 -1</clus>
<clus scale="   42.059">  4  6 -1 -1</clus>
<clus scale="  185.748">  1  5  2 -1</clus>
<clus scale="  185.748">  1  3  2 -1</clus>
</clustering>
</event>
<event>
 6    0  0.6132510E+002  0.1036811E+03  0.7546771E-02  0.1272740E+00
         21   -1    0    0  506  501  0.00000000000E+00  0.00000000000E+00  0.32445763813E+03  0.32445763813E+03  0.00000000000E+00 0.  1.
         21   -1    0    0  504  502 -0.00000000000E+00 -0.00000000000E+00 -0.14229283138E+03  0.14229283138E+03  0.00000000000E+00 0. -1.
         21    1    1    2  503  502  0.28923396298E+01 -0.34325569853E+02 -0.19308616837E+01  0.34501284050E+02  0.00000000000E+00 0. -1.
         21    1    1    2  504  505  0.77906090869E+02  0.11103058031E+03 -0.63627498971E+02  0.14981858157E+03  0.00000000000E+00 0. -1.
         21    1    1    2  505  501 -0.59543504576E+02 -0.51455978663E+01  0.12927570295E+03  0.14242230685E+03  0.00000000000E+00 0.  1.
         21    1    1    2  506  503 -0.21254925923E+02 -0.71559412589E+02  0.11844746445E+03  0.14000829704E+03  0.00000000000E+00 0.  1.
<scales pt_clust_3="34.44721" pt_clust_4="103.68110" pt_clust_5="59.79718" pt_clust_6="14000.00000"></scales>
<clustering>
<clus scale="   34.447">  2  3  1 -1</clus>
<clus scale="   59.797">  1  5  2 -1</clus>
<clus scale="  103.681">  2  4  1 -1</clus>
<clus scale="   59.797">  1  3  2 -1</clus>
</clustering>
</event>
<event>
 6    0  0.6132510E+002  0.8379825E+02  0.7546771E-02  0.1318605E+00
         21   -1    0    0  505  501  0.00000000000E+00  0.00000000000E+00  0.17779939146E+03  0.17779939146E+03  0.00000000000E+00 0. -1.
         21   -1    0    0  503  502 -0.00000000000E+00 -0.00000000000E+00 -0.16535623539E+03  0.16535623539E+03  0.00000000000E+00 0. -1.
         21    1    1    2  503  506 -0.33941792071E+02 -0.11622281944E+02 -0.61077095519E+02  0.70834555717E+02  0.00000000000E+00 0. -1.
         21    1    1    2  504  502  0.79512009067E+02 -0.40718996344E+02 -0.28684133563E+02  0.93824174749E+02  0.00000000000E+00 0. -1.
         21    1    1    2  505  504  0.26630761234E+02 -0.22314911267E+02  0.53485238489E+02  0.63779490787E+02  0.00000000000E+00 0. -1.
         21    1    1    2  506  501 -0.72200978230E+02  0.74656189555E+02  0.48719146666E+02  0.11471740560E+03  0.00000000000E+00 0. -1.
<scales pt_clust_3="35.16206" pt_clust_4="14000.00000" pt_clust_5="34.74410" pt_clust_6="83.79825"></scales>
<clustering>
<clus scale="   34.744">  1  5  2 -1</clus>
<clus scale="   35.162">  2  3  1 -1</clus>
<clus scale="   83.798">  1  6  2 -1</clus>
<clus scale="   34.744">  1  3  2 -1</clus>
</clustering>
</event>
<event>
 6    0  0.6132510E+002  0.1721459E+03  0.7546771E-02  0.1175628E+00
         21   -1    0    0  502  501  0.00000000000E+00  0.00000000000E+00  0.29951160103E+03  0.29951160103E+03  0.00000000000E+00 0.  1.
         21   -1    0    0  505  502 -0.00000000000E+00 -0.00000000000E+00 -0.69649268628E+03  0.69649268628E+03  0.00000000000E+00 0.  1.
         21    1    1    2  503  501 -0.32882927798E+02 -0.17381090692E+03  0.19203049703E+03  0.26108854838E+03  0.00000000000E+00 0.  1.
         21    1    1    2  504  503  0.94213274363E+01  0.91215347899E+02  0.26151748937E+02  0.95356777817E+02  0.00000000000E+00 0.  1.
         21    1    1    2  505  506  0.16156650442E+02  0.41852101363E+02 -0.58874932115E+03  0.59045609396E+03  0.00000000000E+00 0.  1.
         21    1    1    2  506  504  0.73049499195E+01  0.40743457656E+02 -0.26414010061E+02  0.49102867152E+02  0.00000000000E+00 0. -1.
<scales pt_clust_3="162.66094" pt_clust_4="37.86105" pt_clust_5="44.86241" pt_clust_6="37.86105"></scales>
<clustering>
<clus scale="   37.861">  4  6 -1 -1</clus>
<clus scale="   44.862">  2  5  1 -1</clus>
<clus scale="  162.661">  1  3  2 -1</clus>
<clus scale="  162.661">  1  3  2 -1</clus>
</clustering>
</event>
<event>
 6    0  0.6132510E+002  0.6252135E+02  0.7546771E-02  0.1387545E+00
         21   -1    0    0  505  501  0.00000000000E+00  0.00000000000E+00  0.23940278523E+04  0.23940278523E+04  0.00000000000E+00 0. -1.
         21   -1    0    0  503  502 -0.00000000000E+00 -0.00000000000E+00 -0.11638909742E+02  0.11638909742E+02  0.00000000000E+00 0.  1.
         21    1    1    2  503  504  0.66787869511E+02 -0.75326263849E+02  0.48282657028E+03  0.49321005921E+03  0.00000000000E+00 0.  1.
         21    1    1    2  504  506 -0.76466062675E+01  0.51846402139E+02  0.11082835338E+04  0.11095219292E+04  0.00000000000E+00 0. -1.
         21    1    1    2  505  502 -0.14451984313E+02  0.47028278900E+02  0.11911521006E+03  0.12887572360E+03  0.00000000000E+00 0.  1.
         21    1    1    2  506  501 -0.44689278931E+02 -0.23548417190E+02  0.67216362841E+03  0.67405905005E+03  0.00000000000E+00 0. -1.
<scales pt_clust_3="62.52135" pt_clust_4="14000.00000" pt_clust_5="49.19877" pt_clust_6="49.69710"></scales>
<clustering>
<clus scale="   49.199">  2  5  1 -1</clus>
<clus scale="   49.697">  1  6  2 -1</clus>
<clus scale="   62.521">  2  3  1 -1</clus>
<clus scale="   49.697">  1  3  2 -1</clus>
</clustering>
</event>
<event>
 6    0  0.6132510E+002  0.1854744E+03  0.7546771E-02  0.1162608E+00
         21   -1    0    0  504  501  0.00000000000E+00  0.00000000000E+00  0.97689094188E+03  0.97689094188E+03  0.00000000000E+00 0. -1.
         21   -1    0    0  503  502 -0.00000000000E+00 -0.00000000000E+00 -0.11257703919E+03  0.11257703919E+03  0.00000000000E+00 0. -1.
         21    1    1    2  503  505 -0.31332059568E+02 -0.19549952351E+01 -0.14599000753E+01  0.31426919533E+02  0.00000000000E+00 0. -1.
         21    1    1    2  504  506  0.16250318876E+02 -0.90920305488E+02  0.42418479448E+03  0.43412361682E+03  0.00000000000E+00 0. -1.
         21    1    1    2  505  501 -0.43957105722E+02  0.16628724179E+03 -0.40071243283E+00  0.17199951888E+03  0.00000000000E+00 0. -1.
         21    1    1    2  506  502  0.59038846414E+02 -0.73411941064E+02  0.44198972072E+03  0.45191792585E+03  0.00000000000E+00 0. -1.
<scales pt_clust_3="31.39299" pt_clust_4="45.96492" pt_clust_5="179.61892" pt_clust_6="45.96492"></scales>
<clustering>
<clus scale="   31.393">  2  3  1 -1</clus>
<clus scale="   45.965">  4  6 -1 -1</clus>
<clus scale="  179.619">  2  5  1 -1</clus>
<clus scale="  185.474">  1  3  2 -1</clus>
</clustering>
</event>
<event>
 6    0  0.6132510E+002  0.1579196E+03  0.7546771E-02  0.1191066E+00
         21   -1    0    0  505  501  0.00000000000E+00  0.00000000000E+00  0.53717206601E+03  0.53717206601E+03  0.00000000000E+00 0.  1.
         21   -1    0    0  503  502 -0.00000000000E+00 -0.00000000000E+00 -0.25488966320E+03  0.25488966320E+03  0.00000000000E+00 0. -1.
         21    1    1    2  503  501 -0.29124542719E+02 -0.20252517713E+02  0.22185378940E+01  0.35543288715E+02  0.00000000000E+00 0. -1.
         21    1    1    2  504  506 -0.15148266143E+03  0.70141028425E+01 -0.14605874947E+03  0.21054536957E+03  0.00000000000E+00 0. -1.
         21    1    1    2  505  504  0.15236920624E+03  0.45350897860E+02  0.46298337646E+03  0.48951678809E+03  0.00000000000E+00 0.  1.
         21    1    1    2  506  502  0.28237997910E+02 -0.32112482990E+02 -0.36860762074E+02  0.56456282825E+02  0.00000000000E+00 0. -1.
<scales pt_clust_3="35.47398" pt_clust_4="14000.00000" pt_clust_5="157.91960" pt_clust_6="42.53787"></scales>
<clustering>
<clus scale="   35.474">  2  3  1 -1</clus>
<clus scale="   42.538">  2  6  1 -1</clus>
<clus scale="  157.920">  1  5  2 -1</clus>
<clus scale="  157.920">  1  3  2 -1</clus>
</clustering>
</event>
<event>
 6    0  0.6132510E+002  0.7607020E+02  0.7546771E-02  0.1340589E+00
         21   -1    0    0  504  501  0.00000000000E+00  0.00000000000E+00  0.75379042388E+03  0.75379042388E+03  0.00000000000E+00 0. -1.
         21   -1    0    0  505  502 -0.00000000000E+00 -0.00000000000E+00 -0.11907736964E+03  0.11907736964E+03  0.00000000000E+00 0.  1.
         21    1    1    2  503  501  0.46149010532E+02 -0.22219553528E+02  0.35477116404E+03  0.35844946445E+03  0.00000000000E+00 0. -1.
         21    1    1    2  504  502 -0.92968487821E+02 -0.29102475860E+02  0.32525045429E+03  0.33952606947E+03  0.00000000000E+00 0. -1.
         21    1    1    2  505  506  0.75238095212E+02  0.18679438155E+01 -0.78622460914E+02  0.10883818974E+03  0.00000000000E+00 0.  1.
         21    1    1    2  506  503 -0.28418617924E+02  0.49454085573E+02  0.33313896816E+02  0.66054069864E+02  0.00000000000E+00 0.  1.
<scales pt_clust_3="51.21952" pt_clust_4="14000.00000" pt_clust_5="76.07020" pt_clust_6="51.87821"></scales>
<clustering>
<clus scale="   51.220">  1  3  2 -1</clus>
<clus scale="   51.878">  1  6  2 -1</clus>
<clus scale="   76.070">  2  5  1 -1</clus>
<clus scale="   51.220">  1  3  2 -1</clus>
</clustering>
</event>
<event>
 6    0  0.6132510E+002  0.1120292E+03  0.7546771E-02  0.1256858E+00
         21   -1    0    0  504  501  0.00000000000E+00  0.00000000000E+00  0.36005069416E+03  0.36005069416E+03  0.00000000000E+00 0.  1.
         21   -1    0    0  505  502 -0.00000000000E+00 -0.00000000000E+00 -0.55043436441E+03  0.55043436441E+03  0.00000000000E+00 0.  1.
         21    1    1    2  503  501 -0.47096390757E+02  0.55016915236E+02  0.79782684080E+02  0.10775067361E+03  0.00000000000E+00 0.  1.
         21    1    1    2  504  506 -0.64101038037E+02 -0.17997979820E+02  0.24807977707E+03  0.25685880586E+03  0.00000000000E+00 0.  1.
         21    1    1    2  505  503 -0.36600823989E+01  0.35267206013E+02 -0.94797774007E+02  0.10121160991E+03  0.00000000000E+00 0. -1.
         21    1    1    2  506  502  0.11485751119E+03 -0.72286141429E+02 -0.42344835739E+03  0.44466396919E+03  0.00000000000E+00 0.  1.
<scales pt_clust_3="112.02920" pt_clust_4="66.52236" pt_clust_5="35.45662" pt_clust_6="14000.00000"></scales>
<clustering>
<clus scale="   35.457">  2  5  1 -1</clus>
<clus scale="   66.522">  1  4  2 -1</clus>
<clus scale="  112.029">  1  3  2 -1</clus>
<clus scale="   66.522">  1  3  2 -1</clus>
</clustering>
</event>
<event>
 6    0  0.6132510E+002  0.9931178E+02  0.7546771E-02  0.1281750E+00
         21   -1    0    0  506  501  0.00000000000E+00  0.00000000000E+00  0.56402059954E+03  0.56402059954E+03  0.00000000000E+00 0. -1.
         21   -1    0    0  505  502 -0.00000000000E+00 -0.00000000000E+00 -0.14814157118E+03  0.14814157118E+03  0.00000000000E+00 0.  1.
         21    1    1    2  503  502  0.50733133537E+02  0.28579619954E+02 -0.18104863072E+00  0.58229531114E+02  0.00000000000E+00 0.  1.
         21    1    1    2  504  501  0.21012512577E+02 -0.12096812914E+03  0.43599177050E+03  0.45294992869E+03  0.00000000000E+00 0. -1.
         21    1    1    2  505  504 -0.76349343129E+02  0.29443792785E+02 -0.79578314142E+02  0.11414406341E+03  0.00000000000E+00 0.  1.
         21    1    1    2  506  503  0.46036970149E+01  0.62944716401E+02  0.59646620629E+02  0.86838647511E+02  0.00000000000E+00 0.  1.
<scales pt_clust_3="58.22925" pt_clust_4="99.31178" pt_clust_5="63.29739" pt_clust_6="14000.00000"></scales>
<clustering>
<clus scale="   58.229">  2  3  1 -1</clus>
<clus scale="   63.297">  2  5  1 -1</clus>
<clus scale="   99.312">  1  4  2 -1</clus>
<clus scale="   99.312">  1  3  2 -1</clus>
</clustering>
</event>
<event>
 6    0  0.6132510E+002  0.8762845E+02  0.7546771E-02  0.1308699E+00
         21   -1    0    0  505  501  0.00000000000E+00  0.00000000000E+00  0.65003625804E+02  0.65003625804E+02  0.00000000000E+00 0.  1.
         21   -1    0    0  504  502 -0.00000000000E+00 -0.00000000000E+00 -0.19323557367E+04  0.19323557367E+04  0.00000000000E+00 0.  1.
         21    1    1    2  503  502 -0.71026101762E+02 -0.26627769445E+02 -0.71715640682E+03  0.72115674932E+03  0.00000000000E+00 0.  1.
         21    1    1    2  504  506  0.11719126235E+02 -0.42525023018E+02 -0.11257663301E+04  0.11266301725E+04  0.00000000000E+00 0.  1.
         21    1    1    2  505  503  0.18025408648E+02  0.86533393153E+02  0.15294024776E+02  0.89704240041E+02  0.00000000000E+00 0.  1.
         21    1    1    2  506  501  0.41281566878E+02 -0.17380600690E+02 -0.39723398715E+02  0.59868200656E+02  0.00000000000E+00 0.  1.
<scales pt_clust_3="87.62845" pt_clust_4="44.11027" pt_clust_5="14000.00000" pt_clust_6="46.52689"></scales>
<clustering>
<clus scale="   44.110">  2  4  1 -1</clus>
<clus scale="   46.527">  1  6  2 -1</clus>
<clus scale="   87.628">  2  3  1 -1</clus>
<clus scale="   46.527">  1  3  2 -1</clus>
</clustering>
</event>
<event>
 6    0  0.6132510E+002  0.8786442E+02  0.7546771E-02  0.1308107E+00
         21   -1    0    0  506  501  0.00000000000E+00  0.00000000000E+00  0.19008040193E+02  0.19008040193E+02  0.00000000000E+00 0.  1.
         21   -1    0    0  504  502 -0.00000000000E+00 -0.00000000000E+00 -0.25037552754E+04  0.25037552754E+04  0.00000000000E+00 0.  1.
         21    1    1    2  503  501  0.38353487363E+02 -0.12499511671E+02 -0.63058779852E+02  0.74857447868E+02  0.00000000000E+00 0.  1.
         21    1    1    2  504  503  0.41435661711E+02  0.41830259217E+02 -0.57688937900E+03  0.57988623044E+03  0.00000000000E+00 0.  1.
         21    1    1    2  505  502 -0.28119598034E+02 -0.11838550359E+03 -0.15676340011E+04  0.15723492617E+04  0.00000000000E+00 0.  1.
         21    1    1    2  506  505 -0.51669551040E+02  0.89054756044E+02 -0.27716507524E+03  0.29567037561E+03  0.00000000000E+00 0.  1.
<scales pt_clust_3="40.33891" pt_clust_4="61.08788" pt_clust_5="14000.00000" pt_clust_6="87.86442"></scales>
<clustering>
<clus scale="   40.339">  1  3  2 -1</clus>
<clus scale="   61.088">  2  4  1 -1</clus>
<clus scale="   87.864">  1  6  2 -1</clus>
<clus scale="   40.339">  1  3  2 -1</clus>
</clustering>
</event>
<event>
 6    0  0.6132510E+002  0.8849660E+02  0.7546771E-02  0.1306534E+00
         21   -1    0    0  503  501  0.00000000000E+00  0.00000000000E+00  0.58907390705E+03  0.58907390705E+03  0.00000000000E+00 0. -1.
         21   -1    0    0  506  502 -0.00000000000E+00 -0.00000000000E+00 -0.20503960540E+03  0.20503960540E+03  0.00000000000E+00 0.  1.
         21    1    1    2  503  505 -0.43805732153E+02 -0.29128022142E+01  0.81563982707E+02  0.92628882436E+02  0.00000000000E+00 0. -1.
         21    1    1    2  504  501  0.88485185590E+02 -0.50627151470E+02  0.40807578894E+03  0.42061691128E+03  0.00000000000E+00 0. -1.
         21    1    1    2  505  502 -0.92138304203E+02 -0.14562364957E+02 -0.15744391823E+03  0.18300305179E+03  0.00000000000E+00 0.  1.
         21    1    1    2  506  504  0.47458850765E+02  0.68102318641E+02  0.51838448238E+02  0.97864666944E+02  0.00000000000E+00 0. -1.
<scales pt_clust_3="43.90247" pt_clust_4="74.50114" pt_clust_5="14000.00000" pt_clust_6="88.49660"></scales>
<clustering>
<clus scale="   43.902">  1  3  2 -1</clus>
<clus scale="   74.501">  1  4  2 -1</clus>
<clus scale="   88.497">  1  6  2 -1</clus>
<clus scale="   43.902">  1  3  2 -1</clus>
</clustering>
</event>
<event>
 6    0  0.6132510E+002  0.1430197E+03  0.7546771E-02  0.1209323E+00
         21   -1    0    0  503  501  0.00000000000E+00  0.00000000000E+00  0.10354809400E+03  0.10354809400E+03  0.00000000000E+00 0.  1.
         21   -1    0    0  506  502 -0.00000000000E+00 -0.00000000000E+00 -0.43257696564E+03  0.43257696564E+03  0.00000000000E+00 0.  1.
         21    1    1    2  503  505  0.46744254812E+02  0.62513077391E+02  0.31419347986E+02  0.84143244712E+02  0.00000000000E+00 0.  1.
         21    1    1    2  504  501 -0.69506217650E+02 -0.87976094265E+02 -0.32673200257E+03  0.34543408772E+03  0.00000000000E+00 0.  1.
         21    1    1    2  505  502  0.38706573351E+02  0.52429165203E+02 -0.73136611632E+01  0.65578242002E+02  0.00000000000E+00 0.  1.
         21    1    1    2  506  504 -0.15944610512E+02 -0.26966148329E+02 -0.26402555888E+02  0.40969485199E+02  0.00000000000E+00 0.  1.
<scales pt_clust_3="32.92403" pt_clust_4="138.32117" pt_clust_5="32.92403" pt_clust_6="31.32736"></scales>
<clustering>
<clus scale="   31.327">  2  6  1 -1</clus>
<clus scale="   32.924">  3  5 -1 -1</clus>
<clus scale="  138.321">  2  4  1 -1</clus>
<clus scale="  143.020">  1  3  2 -1</clus>
</clustering>
</event>
<event>
 6    0  0.6132510E+002  0.8539968E+02  0.7546771E-02  0.1314391E+00
         21   -1    0    0  505  501  0.00000000000E+00  0.00000000000E+00  0.17643175857E+04  0.17643175857E+04  0.00000000000E+00 0.  1.
         21   -1    0    0  504  502 -0.00000000000E+00 -0.00000000000E+00 -0.16182222329E+03  0.16182222329E+03  0.00000000000E+00 0.  1.
         21    1    1    2  503  502 -0.30207753629E+02  0.43711157595E+01 -0.85065050944E+02  0.90375206358E+02  0.00000000000E+00 0.  1.
         21    1    1    2  504  506 -0.37323084751E+02 -0.59255638922E+02 -0.50969651288E+02  0.86614945315E+02  0.00000000000E+00 0.  1.
         21    1    1    2  505  503  0.10371110113E+03 -0.10441606451E+01  0.14170859576E+04  0.14208763823E+04  0.00000000000E+00 0.  1.
         21    1    1    2  506  501 -0.36180262750E+02  0.55928683807E+02  0.32144410707E+03  0.32827327496E+03  0.00000000000E+00 0.  1.
<scales pt_clust_3="30.52237" pt_clust_4="14000.00000" pt_clust_5="85.39968" pt_clust_6="67.54450"></scales>
<clustering>
<clus scale="   30.522">  2  3  1 -1</clus>
<clus scale="   67.545">  1  6  2 -1</clus>
<clus scale="   85.400">  1  5  2 -1</clus>
<clus scale="   67.545">  1  3  2 -1</clus>
</clustering>
</event>
<event>
 6    0  0.6132510E+002  0.1680622E+03  0.7546771E-02  0.1179884E+00
         21   -1    0    0  506  501  0.00000000000E+00  0.00000000000E+00  0.12163347303E+03  0.12163347303E+03  0.00000000000E+00 0. -1.
         21   -1    0    0  503  502 -0.00000000000E+00 -0.00000000000E+00 -0.77543933026E+03  0.77543933026E+03  0.00000000000E+00 0.  1.
         21    1    1    2  503  505 -0.10420488342E+03 -0.46156920168E+02  0.15336532550E+02  0.11499707926E+03  0.00000000000E+00 0. -1.
         21    1    1    2  504  502  0.80631432909E+01 -0.30224652977E+02 -0.27578836392E+03  0.27755677906E+03  0.00000000000E+00 0. -1.
         21    1    1    2  505  501 -0.51814034514E+02  0.91244291534E+01  0.23111763542E+02  0.57463927764E+02  0.00000000000E+00 0. -1.
         21    1    1    2  506  504  0.14795577464E+03  0.67257143991E+02 -0.41646578940E+03  0.44705501721E+03  0.00000000000E+00 0.  1.
<scales pt_clust_3="34.09345" pt_clust_4="31.28169" pt_clust_5="34.09345" pt_clust_6="160.29254"></scales>
<clustering>
<clus scale="   31.282">  2  4  1 -1</clus>
<clus scale="   34.093">  3  5 -1 -1</clus>
<clus scale="  160.293">  2  6  1 -1</clus>
<clus scale="  168.062">  1  3  2 -1</clus>
</clustering>
</event>
<event>
 6    0  0.6132510E+002  0.9168900E+02  0.7546771E-02  0.1298812E+00
         21   -1    0    0  505  501  0.00000000000E+00  0.00000000000E+00  0.34979627053E+03  0.34979627053E+03  0.00000000000E+00 0.  1.
         21   -1    0    0  504  502 -0.00000000000E+00 -0.00000000000E+00 -0.39739276882E+03  0.39739276882E+03  0.00000000000E+00 0. -1.
         21    1    1    2  503  501 -0.50214024969E+02  0.60016669670E+02  0.42320464251E+02  0.88963310619E+02  0.00000000000E+00 0. -1.
         21    1    1    2  504  503  0.14425556543E+02  0.80963380163E+02 -0.27253611528E+03  0.28467367237E+03  0.00000000000E+00 0. -1.
         21    1    1    2  505  506  0.52962769847E+00 -0.13804276011E+03  0.25669571311E+03  0.29145972836E+03  0.00000000000E+00 0.  1.
         21    1    1    2  506  502  0.35258840727E+02 -0.29372897180E+01 -0.74076560367E+02  0.82092327998E+02  0.00000000000E+00 0.  1.
<scales pt_clust_3="76.45752" pt_clust_4="14000.00000" pt_clust_5="91.68900" pt_clust_6="35.38098"></scales>
<clustering>
<clus scale="   35.381">  2  6  1 -1</clus>
<clus scale="   76.458">  1  3  2 -1</clus>
<clus scale="   91.689">  1  5  2 -1</clus>
<clus scale="   76.458">  1  3  2 -1</clus>
</clustering>
</event>
<event>
 6    0  0.6132510E+002  0.2001807E+03  0.7546771E-02  0.1149587E+00
         21   -1    0    0  504  501  0.00000000000E+00  0.00000000000E+00  0.86330891454E+03  0.86330891454E+03  0.00000000000E+00 0.  1.
         21   -1    0    0  503  502 -0.00000000000E+00 -0.00000000000E+00 -0.40531043512E+03  0.40531043512E+03  0.00000000000E+00 0.  1.
         21    1    1    2  503  501 -0.20233643461E+03 -0.87927089192E+02 -0.34658325674E+03  0.41084201299E+03  0.00000000000E+00 0.  1.
         21    1    1    2  504  505  0.57351997905E+02  0.89834975349E+01  0.28909146000E+03  0.29486238678E+03  0.00000000000E+00 0. -1.
         21    1    1    2  505  506  0.11477125112E+03  0.79385377146E+02  0.51405951301E+03  0.53266467979E+03  0.00000000000E+00 0.  1.
         21    1    1    2  506  502  0.30213185584E+02 -0.44178548845E+00  0.14307631528E+01  0.30250270094E+02  0.00000000000E+00 0.  1.
<scales pt_clust_3="194.31473" pt_clust_4="31.01991" pt_clust_5="31.01991" pt_clust_6="30.21642"></scales>
<clustering>
<clus scale="   30.216">  2  6  1 -1</clus>
<clus scale="   31.020">  4  5 -1 -1</clus>
<clus scale="  194.315">  2  3  1 -1</clus>
<clus scale="  200.181">  1  3  2 -1</clus>
</clustering>
</event>
<event>
 6    0  0.6132510E+002  0.1745176E+03  0.7546771E-02  0.1173217E+00
         21   -1    0    0  502  501  0.00000000000E+00  0.00000000000E+00  0.94328095374E+03  0.94328095374E+03  0.00000000000E+00 0. -1.
         21   -1    0    0  505  502 -0.00000000000E+00 -0.00000000000E+00 -0.79867557432E+02  0.79867557432E+02  0.00000000000E+00 0. -1.
         21    1    1    2  503  506  0.14787511441E+03 -0.11759708896E+03  0.34874089871E+03  0.39663123834E+03  0.00000000000E+00 0. -1.
         21    1    1    2  504  503  0.18306590788E+02  0.44974599530E+02  0.17531110185E+02  0.51625436497E+02  0.00000000000E+00 0. -1.
         21    1    1    2  505  504  0.20943910200E+02  0.92312160861E+02  0.11506237533E+03  0.14899507587E+03  0.00000000000E+00 0. -1.
         21    1    1    2  506  501 -0.18712561540E+03 -0.19689671429E+02  0.38207901208E+03  0.42589676046E+03  0.00000000000E+00 0. -1.
<scales pt_clust_3="174.51761" pt_clust_4="34.19405" pt_clust_5="150.55749" pt_clust_6="14000.00000"></scales>
<clustering>
<clus scale="   34.194">  4  5 -1 -1</clus>
<clus scale="  150.557">  2  4  1 -1</clus>
<clus scale="  174.518">  2  3  1 -1</clus>
<clus scale="  174.518">  1  3  2 -1</clus>
</clustering>
</event>
<event>
 6    0  0.6132510E+002  0.1930251E+03  0.7546771E-02  0.1155761E+00
         21   -1    0    0  503  501  0.00000000000E+00  0.00000000000E+00  0.92994566062E+02  0.92994566062E+02  0.00000000000E+00 0.  1.
         21   -1    0    0  501  502 -0.00000000000E+00 -0.00000000000E+00 -0.58813540603E+03  0.58813540603E+03  0.00000000000E+00 0. -1.
         21    1    1    2  503  504  0.15871071169E+02  0.41313620196E+02 -0.17123379686E+02  0.47454359606E+02  0.00000000000E+00 0.  1.
         21    1    1    2  504  505  0.15374994995E+03 -0.10951308712E+03 -0.11015379702E+03  0.21855439222E+03  0.00000000000E+00 0.  1.
         21    1    1    2  505  506 -0.27930891997E+02  0.33518039665E+02 -0.11780264117E+03  0.12562267303E+03  0.00000000000E+00 0. -1.
         21    1    1    2  506  502 -0.14169012912E+03  0.34681427262E+02 -0.25006102210E+03  0.28949854725E+03  0.00000000000E+00 0. -1.
<scales pt_clust_3="44.25727" pt_clust_4="183.51893" pt_clust_5="32.72029" pt_clust_6="32.72029"></scales>
<clustering>
<clus scale="   32.720">  5  6 -1 -1</clus>
<clus scale="   44.257">  1  3  2 -1</clus>
<clus scale="  183.519">  1  4  2 -1</clus>
<clus scale="   44.257">  1  3  2 -1</clus>
</clustering>
</event>
<event>
 6    0  0.6132510E+002  0.1218916E+03  0.7546771E-02  0.1240009E+00
         21   -1    0    0  506  501  0.00000000000E+00  0.00000000000E+00  0.12611564705E+04  0.12611564705E+04  0.00000000000E+00 0. -1.
         21   -1    0    0  505  502 -0.00000000000E+00 -0.00000000000E+00 -0.54701038513E+03  0.54701038513E+03  0.00000000000E+00 0. -1.
         21    1    1    2  503  502  0.10036276891E+03  0.13202451837E+02 -0.91525250831E+02  0.13646927001E+03  0.00000000000E+00 0. -1.
         21    1    1    2  504  501 -0.56398654838E+02  0.64433487010E+02  0.95599973490E+03  0.95982705507E+03  0.00000000000E+00 0. -1.
         21    1    1    2  505  504  0.20364548496E+02 -0.48617212580E+02 -0.42501110618E+03  0.42826719296E+03  0.00000000000E+00 0. -1.
         21    1    1    2  506  503 -0.64328662574E+02 -0.29018726267E+02  0.27468270744E+03  0.28360333755E+03  0.00000000000E+00 0. -1.
<scales pt_clust_3="14000.00000" pt_clust_4="121.89160" pt_clust_5="52.71004" pt_clust_6="70.65088"></scales>
<clustering>
<clus scale="   52.710">  2  5  1 -1</clus>
<clus scale="   70.651">  1  6  2 -1</clus>
<clus scale="  121.892">  1  4  2 -1</clus>
<clus scale="   70.651">  1  3  2 -1</clus>
</clustering>
</event>
<event>
 6    0  0.6132510E+002  0.7004103E+02  0.7546771E-02  0.1359954E+00
         21   -1    0    0  503  501  0.00000000000E+00  0.00000000000E+00  0.86171468116E+03  0.86171468116E+03  0.00000000000E+00 0.  1.
         21   -1    0    0  504  502 -0.00000000000E+00 -0.00000000000E+00 -0.34807205587E+03  0.34807205587E+03  0.00000000000E+00 0. -1.
         21    1    1    2  503  505  0.18601088954E+01 -0.93581222010E+02  0.21961242344E+03  0.23872687667E+03  0.00000000000E+00 0.  1.
         21    1    1    2  504  506 -0.45858709437E+02  0.50696823680E+02 -0.26405903224E+03  0.27276429691E+03  0.00000000000E+00 0. -1.
         21    1    1    2  505  502  0.27613367253E+02 -0.21262511672E+02 -0.63903543150E+02  0.72789115126E+02  0.00000000000E+00 0.  1.
         21    1    1    2  506  501  0.16385233288E+02  0.64146910002E+02  0.62199277724E+03  0.62550644831E+03  0.00000000000E+00 0.  1.
<scales pt_clust_3="14000.00000" pt_clust_4="35.95332" pt_clust_5="34.85100" pt_clust_6="70.04103"></scales>
<clustering>
<clus scale="   34.851">  2  5  1 -1</clus>
<clus scale="   35.953">  2  4  1 -1</clus>
<clus scale="   70.041">  1  6  2 -1</clus>
<clus scale="   70.041">  1  3  2 -1</clus>
</clustering>
</event>
<event>
 6    0  0.6132510E+002  0.7080971E+02  0.7546771E-02  0.1357361E+00
         21   -1    0    0  504  501  0.00000000000E+00  0.00000000000E+00  0.65066952695E+03  0.65066952695E+03  0.00000000000E+00 0.  1.
         21   -1    0    0  506  502 -0.00000000000E+00 -0.00000000000E+00 -0.10372962290E+03  0.10372962290E+03  0.00000000000E+00 0.  1.
         21    1    1    2  503  505 -0.31550828267E+02 -0.26580906093E+02  0.61638380644E+02  0.74170676830E+02  0.00000000000E+00 0.  1.
         21    1    1    2  504  502  0.95890136001E+02  0.93756569851E+02  0.73641101091E+02  0.15299746515E+03  0.00000000000E+00 0.  1.
         21    1    1    2  505  501 -0.55347596101E+02 -0.37871100161E+02  0.46278618163E+03  0.46762017336E+03  0.00000000000E+00 0.  1.
         21    1    1    2  506  503 -0.89917116333E+01 -0.29304563597E+02 -0.51125759320E+02  0.59610834516E+02  0.00000000000E+00 0.  1.
<scales pt_clust_3="44.64465" pt_clust_4="14000.00000" pt_clust_5="70.80971" pt_clust_6="30.65303"></scales>
<clustering>
<clus scale="   30.653">  2  6  1 -1</clus>
<clus scale="   44.645">  2  3  1 -1</clus>
<clus scale="   70.810">  1  5  2 -1</clus>
<clus scale="   70.810">  1  3  2 -1</clus>
</clustering>
</event>
<event>
 6    0  0.6132510E+002  0.1288555E+03  0.7546771E-02  0.1229164E+00
         21   -1    0    0  506  501  0.00000000000E+00  0.00000000000E+00  0.27086237278E+03  0.27086237278E+03  0.00000000000E+00 0.  1.
         21   -1    0    0  505  502 -0.00000000000E+00 -0.00000000000E+00 -0.56754432154E+03  0.56754432154E+03  0.00000000000E+00 0. -1.
         21    1    1    2  503  504 -0.30668853170E+02 -0.32462385857E+02  0.40567187809E+02  0.60333090232E+02  0.00000000000E+00 0.  1.
         21    1    1    2  504  502  0.10384779999E+03  0.57336092452E+02 -0.53025265649E+03  0.54335961644E+03  0.00000000000E+00 0. -1.
         21    1    1    2  505  501 -0.27741394683E+02  0.26380668338E+02  0.10374726907E+02  0.39663076019E+02  0.00000000000E+00 0.  1.
         21    1    1    2  506  503 -0.45437552138E+02 -0.51254374933E+02  0.18262879301E+03  0.19505091164E+03  0.00000000000E+00 0.  1.
<scales pt_clust_3="40.04414" pt_clust_4="118.32110" pt_clust_5="38.28217" pt_clust_6="40.04414"></scales>
<clustering>
<clus scale="   38.282">  1  5  2 -1</clus>
<clus scale="   40.044">  3  6 -1 -1</clus>
<clus scale="  118.321">  2  4  1 -1</clus>
<clus scale="   38.282">  1  3  2 -1</clus>
</clustering>
</event>
<event>
 6    0  0.6132510E+002  0.1349735E+03  0.7546771E-02  0.1220257E+00
         21   -1    0    0  506  501  0.00000000000E+00  0.00000000000E+00  0.93672734436E+03  0.93672734436E+03  0.00000000000E+00 0. -1.
         21   -1    0    0  503  502 -0.00000000000E+00 -0.00000000000E+00 -0.68863780013E+03  0.68863780013E+03  0.00000000000E+00 0. -1.
         21    1    1    2  503  501  0.68541499977E+02 -0.89849203416E+02 -0.57493082979E+03  0.58593197183E+03  0.00000000000E+00 0. -1.
         21    1    1    2  504  502  0.32691259202E+02  0.19437812801E+02 -0.99787125571E+02  0.10678959418E+03  0.00000000000E+00 0.  1.
         21    1    1    2  505  504 -0.83397937503E+02  0.40953595296E+02  0.78997584172E+03  0.79542079647E+03  0.00000000000E+00 0. -1.
         21    1    1    2  506  505 -0.17834821677E+02  0.29457795319E+02  0.13283165788E+03  0.13722278201E+03  0.00000000000E+00 0.  1.
<scales pt_clust_3="123.18005" pt_clust_4="38.03350" pt_clust_5="33.59183" pt_clust_6="33.59183"></scales>
<clustering>
<clus scale="   33.592">  5  6 -1 -1</clus>
<clus scale="   38.033">  2  4  1 -1</clus>
<clus scale="  123.180">  2  3  1 -1</clus>
<clus scale="  134.974">  1  3  2 -1</clus>
</clustering>
</event>
<event>
 6    0  0.6132510E+002  0.9867800E+02  0.7546771E-02  0.1283101E+00
         21   -1    0    0  505  501  0.00000000000E+00  0.00000000000E+00  0.45059807178E+03  0.45059807178E+03  0.00000000000E+00 0.  1.
         21   -1    0    0  504  502 -0.00000000000E+00 -0.00000000000E+00 -0.78481138129E+03  0.78481138129E+03  0.00000000000E+00 0.  1.
         21    1    1    2  503  502  0.66074347418E+02  0.10662499586E+02 -0.67620115777E+02  0.95141937871E+02  0.00000000000E+00 0. -1.
         21    1    1    2  504  506  0.42179126239E+02  0.71297087820E+02 -0.49963678678E+03  0.50645757189E+03  0.00000000000E+00 0.  1.
         21    1    1    2  505  503 -0.83025411972E+02  0.15027761535E+02  0.41639552444E+03  0.42485795911E+03  0.00000000000E+00 0.  1.
         21    1    1    2  506  501 -0.25228061685E+02 -0.96987348941E+02 -0.18335193140E+03  0.20895198419E+03  0.00000000000E+00 0.  1.
<scales pt_clust_3="66.92913" pt_clust_4="98.67800" pt_clust_5="83.99492" pt_clust_6="14000.00000"></scales>
<clustering>
<clus scale="   66.929">  2  3  1 -1</clus>
<clus scale="   83.995">  1  5  2 -1</clus>
<clus scale="   98.678">  2  4  1 -1</clus>
<clus scale="   83.995">  1  3  2 -1</clus>
</clustering>
</event>
<event>
 6    0  0.6132510E+002  0.1800596E+03  0.7546771E-02  0.1167745E+00
         21   -1    0    0  505  501  0.00000000000E+00  0.00000000000E+00  0.29331193726E+03  0.29331193726E+03  0.00000000000E+00 0.  1.
         21   -1    0    0  506  502 -0.00000000000E+00 -0.00000000000E+00 -0.53766188882E+03  0.53766188882E+03  0.00000000000E+00 0.  1.
         21    1    1    2  503  504  0.80608027326E+02 -0.84876616531E+02  0.15366828730E+03  0.19317255660E+03  0.00000000000E+00 0.  1.
         21    1    1    2  504  502 -0.18307030538E+03  0.79938894824E+02 -0.33899178529E+03  0.39347222787E+03  0.00000000000E+00 0.  1.
         21    1    1    2  505  503  0.10868965916E+03  0.47194970284E+02  0.48953519051E+02  0.12820785567E+03  0.00000000000E+00 0.  1.
         21    1    1    2  506  501 -0.62273811097E+01 -0.42257248576E+02 -0.10797997262E+03  0.11612118592E+03  0.00000000000E+00 0. -1.
<scales pt_clust_3="180.05964" pt_clust_4="14000.00000" pt_clust_5="116.44404" pt_clust_6="42.71364"></scales>
<clustering>
<clus scale="   42.714">  2  6  1 -1</clus>
<clus scale="  116.444">  1  5  2 -1</clus>
<clus scale="  180.060">  1  3  2 -1</clus>
<clus scale="  116.444">  1  3  2 -1</clus>
</clustering>
</event>
<event>
 6    0  0.6132510E+002  0.1680284E+03  0.7546771E-02  0.1179920E+00
         21   -1    0    0  506  501  0.00000000000E+00  0.00000000000E+00  0.11073306090E+03  0.11073306090E+03  0.00000000000E+00 0. -1.
         21   -1    0    0  504  502 -0.00000000000E+00 -0.00000000000E+00 -0.13671030949E+04  0.13671030949E+04  0.00000000000E+00 0. -1.
         21    1    1    2  503  501  0.16702607170E+03 -0.99146212214E+02 -0.38541750855E+02  0.19802309609E+03  0.00000000000E+00 0. -1.
         21    1    1    2  504  503 -0.36690985738E+02 -0.27405836752E+02 -0.92213975499E+03  0.92327625121E+03  0.00000000000E+00 0. -1.
         21    1    1    2  505  502 -0.12190991964E+03  0.87721144219E+02 -0.27077268723E+03  0.30963668355E+03  0.00000000000E+00 0. -1.
         21    1    1    2  506  505 -0.84251663237E+01  0.38830904747E+02 -0.24915840940E+02  0.46900124955E+02  0.00000000000E+00 0. -1.
<scales pt_clust_3="168.02838" pt_clust_4="45.70291" pt_clust_5="14000.00000" pt_clust_6="39.73440"></scales>
<clustering>
<clus scale="   39.734">  1  6  2 -1</clus>
<clus scale="   45.703">  2  4  1 -1</clus>
<clus scale="  168.028">  1  3  2 -1</clus>
<clus scale="   39.734">  1  3  2 -1</clus>
</clustering>
</event>
<event>
 6    0  0.6132510E+002  0.1290104E+03  0.7546771E-02  0.1228932E+00
         21   -1    0    0  504  501  0.00000000000E+00  0.00000000000E+00  0.14829572766E+02  0.14829572766E+02  0.00000000000E+00 0. -1.
         21   -1    0    0  505  502 -0.00000000000E+00 -0.00000000000E+00 -0.15095186815E+04  0.15095186815E+04  0.00000000000E+00 0. -1.
         21    1    1    2  503  506  0.49414027600E+02  0.15981714737E+02 -0.19646344981E+03  0.20321183144E+03  0.00000000000E+00 0. -1.
         21    1    1    2  504  502 -0.11192276994E+03  0.50719852546E+02 -0.64230107432E+03  0.65394944755E+03  0.00000000000E+00 0. -1.
         21    1    1    2  505  503 -0.72838363112E+01 -0.33816247413E+02 -0.34915272798E+03  0.35086211012E+03  0.00000000000E+00 0. -1.
         21    1    1    2  506  501  0.69792578656E+02 -0.32885319870E+02 -0.30677185667E+03  0.31632486520E+03  0.00000000000E+00 0. -1.
<scales pt_clust_3="36.64670" pt_clust_4="120.27892" pt_clust_5="34.59180" pt_clust_6="36.64670"></scales>
<clustering>
<clus scale="   34.592">  2  5  1 -1</clus>
<clus scale="   36.647">  3  6 -1 -1</clus>
<clus scale="  120.279">  2  4  1 -1</clus>
<clus scale="  129.010">  1  3  2 -1</clus>
</clustering>
</event>
<event>
 6    0  0.6132510E+002  0.9814665E+02  0.7546771E-02  0.1284242E+00
         21   -1    0    0  503  501  0.00000000000E+00  0.00000000000E+00  0.25097082061E+03  0.25097082061E+03  0.00000000000E+00 0. -1.
         21   -1    0    0  506  502 -0.00000000000E+00 -0.00000000000E+00 -0.63116723282E+03  0.63116723282E+03  0.00000000000E+00 0.  1.
         21    1    1    2  503  505 -0.19965977541E+02 -0.75308243867E+02  0.51093198899E+02  0.93169130227E+02  0.00000000000E+00 0.  1.
         21    1    1    2  504  501  0.21346020112E+02  0.11608821856E+03  0.14911048889E+03  0.19017377569E+03  0.00000000000E+00 0. -1.
         21    1    1    2  505  502 -0.29597299683E+01 -0.81069828456E+02 -0.51924604436E+03  0.52554498539E+03  0.00000000000E+00 0.  1.
         21    1    1    2  506  504  0.15796873972E+01  0.40289853765E+02 -0.61154055647E+02  0.73250162120E+02  0.00000000000E+00 0.  1.
<scales pt_clust_3="98.14665" pt_clust_4="14000.00000" pt_clust_5="43.77531" pt_clust_6="40.32081"></scales>
<clustering>
<clus scale="   40.321">  2  6  1 -1</clus>
<clus scale="   43.775">  2  5  1 -1</clus>
<clus scale="   98.147">  2  3  1 -1</clus>
<clus scale="   98.147">  1  3  2 -1</clus>
</clustering>
</event>
<event>
 6    0  0.6132510E+002  0.7961448E+02  0.7546771E-02  0.1330149E+00
         21   -1    0    0  505  501  0.00000000000E+00  0.00000000000E+00  0.16287968059E+04  0.16287968059E+04  0.00000000000E+00 0.  1.
         21   -1    0    0  506  502 -0.00000000000E+00 -0.00000000000E+00 -0.55734724307E+02  0.55734724307E+02  0.00000000000E+00 0.  1.
         21    1    1    2  503  502 -0.42520856753E+02  0.75094543220E+02  0.35117372460E+03  0.36162162343E+03  0.00000000000E+00 0.  1.
         21    1    1    2  504  503  0.56272139092E+02 -0.28615547094E+02  0.94074672557E+03  0.94286255883E+03  0.00000000000E+00 0.  1.
         21    1    1    2  505  504  0.38396255402E+01  0.32500220866E+02  0.29597981386E+03  0.29778357459E+03  0.00000000000E+00 0. -1.
         21    1    1    2  506  501 -0.17590907879E+02 -0.78979216992E+02 -0.14838182403E+02  0.82263773399E+02  0.00000000000E+00 0.  1.
<scales pt_clust_3="79.61448" pt_clust_4="59.25565" pt_clust_5="32.72624" pt_clust_6="14000.00000"></scales>
<clustering>
<clus scale="   32.726">  1  5  2 -1</clus>
<clus scale="   59.256">  1  4  2 -1</clus>
<clus scale="   79.614">  1  3  2 -1</clus>
<clus scale="   32.726">  1  3  2 -1</clus>
</clustering>
</event>
<event>
 6    0  0.9458242E+002  0.8924187E+02  0.7546771E-02  0.1304698E+00
         21   -1    0    0  506  501  0.00000000000E+00  0.00000000000E+00  0.62775063715E+03  0.62775063715E+03  0.00000000000E+00 0.  1.
         21   -1    0    0  504  502 -0.00000000000E+00 -0.00000000000E+00 -0.51242774775E+03  0.51242774775E+03  0.00000000000E+00 0.  1.
         21    1    1    2  503  502 -0.25883913285E+02 -0.88089268671E+02 -0.47503683394E+03  0.48382816146E+03  0.00000000000E+00 0.  1.
         21    1    1    2  504  505  0.57231263284E+02  0.42663743199E+02  0.29925017063E+02  0.77402319908E+02  0.00000000000E+00 0.  1.
         21    1    1    2  505  501  0.15291880233E+01  0.69120686143E+02  0.50797324443E+03  0.51265663434E+03  0.00000000000E+00 0.  1.
         21    1    1    2  506  503 -0.32876538023E+02 -0.23695160671E+02  0.52461461853E+02  0.66291269194E+02  0.00000000000E+00 0. -1.
<scales pt_clust_3="89.24187" pt_clust_4="14000.00000" pt_clust_5="55.43125" pt_clust_6="40.52564"></scales>
<clustering>
<clus scale="   40.526">  1  6  2 -1</clus>
<clus scale="   55.431">  1  5  2 -1</clus>
<clus scale="   89.242">  2  3  1 -1</clus>
<clus scale="   40.526">  1  3  2 -1</clus>
</clustering>
</event>
<event>
 6    0  0.6132510E+002  0.1492017E+03  0.7546771E-02  0.1201457E+00
         21   -1    0    0  505  501  0.00000000000E+00  0.00000000000E+00  0.52809355262E+03  0.52809355262E+03  0.00000000000E+00 0. -1.
         21   -1    0    0  504  502 -0.00000000000E+00 -0.00000000000E+00 -0.14552108748E+03  0.14552108748E+03  0.00000000000E+00 0. -1.
         21    1    1    2  503  501 -0.43054279836E+02  0.33220318752E+01  0.10826308101E+03  0.11655728900E+03  0.00000000000E+00 0.  1.
         21    1    1    2  504  503 -0.54236077538E+02 -0.39060046423E+02 -0.56996467647E+02  0.87839835255E+02  0.00000000000E+00 0. -1.
         21    1    1    2  505  506  0.18816752607E+03 -0.47699731730E+02  0.26695540841E+03  0.33007191997E+03  0.00000000000E+00 0. -1.
         21    1    1    2  506  502 -0.90877168693E+02  0.83437746278E+02  0.64350443363E+02  0.13914559589E+03  0.00000000000E+00 0.  1.
<scales pt_clust_3="43.18225" pt_clust_4="68.06938" pt_clust_5="149.20173" pt_clust_6="14000.00000"></scales>
<clustering>
<clus scale="   43.182">  1  3  2 -1</clus>
<clus scale="   68.069">  2  4  1 -1</clus>
<clus scale="  149.202">  1  5  2 -1</clus>
<clus scale="   43.182">  1  3  2 -1</clus>
</clustering>
</event>
<event>
 6    0  0.6132510E+002  0.1168016E+03  0.7546771E-02  0.1248469E+00
         21   -1    0    0  503  501  0.00000000000E+00  0.00000000000E+00  0.60808408714E+03  0.60808408714E+03  0.00000000000E+00 0. -1.
         21   -1    0    0  504  502 -0.00000000000E+00 -0.00000000000E+00 -0.22771044695E+03  0.22771044695E+03  0.00000000000E+00 0. -1.
         21    1    1    2  503  506  0.40636391101E+02 -0.13770183004E+02  0.90031499723E+02  0.99732668489E+02  0.00000000000E+00 0. -1.
         21    1    1    2  504  505  0.66543390243E+02  0.94168861491E+02 -0.18143020053E+03  0.21497142816E+03  0.00000000000E+00 0. -1.
         21    1    1    2  505  501  0.27368131125E+02  0.18197284656E+02  0.17657223863E+02  0.37308622659E+02  0.00000000000E+00 0. -1.
         21    1    1    2  506  502 -0.13454791247E+03 -0.98595963144E+02  0.45411511714E+03  0.48378181478E+03  0.00000000000E+00 0. -1.
<scales pt_clust_3="46.38291" pt_clust_4="116.80160" pt_clust_5="32.86572" pt_clust_6="14000.00000"></scales>
<clustering>
<clus scale="   32.866">  1  5  2 -1</clus>
<clus scale="   46.383">  1  3  2 -1</clus>
<clus scale="  116.802">  2  4  1 -1</clus>
<clus scale="   32.866">  1  3  2 -1</clus>
</clustering>
</event>
<event>
 6    0  0.6132510E+002  0.6527325E+02  0.7546771E-02  0.1376947E+00
         21   -1    0    0  504  501  0.00000000000E+00  0.00000000000E+00  0.53315402289E+03  0.53315402289E+03  0.00000000000E+00 0. -1.
         21   -1    0    0  506  502 -0.00000000000E+00 -0.00000000000E+00 -0.14229468964E+03  0.14229468964E+03  0.00000000000E+00 0. -1.
         21    1    1    2  503  502  0.56224863137E+01  0.10702730216E+03 -0.86401148842E+02  0.13766486219E+03  0.00000000000E+00 0. -1.
         21    1    1    2  504  503 -0.68897558919E+02 -0.26829249408E+02  0.34007394765E+03  0.34801863760E+03  0.00000000000E+00 0. -1.
         21    1    1    2  505  501  0.52088668372E+02 -0.34589521952E+02  0.12722508439E+03  0.14175996085E+03  0.00000000000E+00 0. -1.
         21    1    1    2  506  505  0.11186404232E+02 -0.45608530802E+02  0.99614500472E+01  0.48005251886E+02  0.00000000000E+00 0. -1.
<scales pt_clust_3="14000.00000" pt_clust_4="65.27325" pt_clust_5="64.59134" pt_clust_6="46.96034"></scales>
<clustering>
<clus scale="   46.960">  2  6  1 -1</clus>
<clus scale="   64.591">  1  5  2 -1</clus>
<clus scale="   65.273">  1  4  2 -1</clus>
<clus scale="   64.591">  1  3  2 -1</clus>
</clustering>
</event>
<event>
 6    0  0.6132510E+002  0.1228478E+03  0.7546771E-02  0.1238472E+00
         21   -1    0    0  504  501  0.00000000000E+00  0.00000000000E+00  0.40775579030E+03  0.40775579030E+03  0.00000000000E+00 0.  1.
         21   -1    0    0  503  502 -0.00000000000E+00 -0.00000000000E+00 -0.37838042914E+03  0.37838042914E+03  0.00000000000E+00 0.  1.
         21    1    1    2  503  501 -0.10758641098E+03 -0.79122539629E+02 -0.20202824199E+03  0.24217890632E+03  0.00000000000E+00 0.  1.
         21    1    1    2  504  506  0.39314913509E+02 -0.13394100689E+02  0.32034475351E+03  0.32302604455E+03  0.00000000000E+00 0.  1.
         21    1    1    2  505  502  0.32499399725E+02  0.12051929343E+03 -0.11400142736E+03  0.16904862174E+03  0.00000000000E+00 0.  1.
         21    1    1    2  506  505  0.35772097748E+02 -0.28002653114E+02  0.25060277012E+02  0.51882646835E+02  0.00000000000E+00 0.  1.
<scales pt_clust_3="14000.00000" pt_clust_4="41.53389" pt_clust_5="122.84782" pt_clust_6="63.25322"></scales>
<clustering>
<clus scale="   41.534">  1  4  2 -1</clus>
<clus scale="   63.253">  1  6  2 -1</clus>
<clus scale="  122.848">  1  5  2 -1</clus>
<clus scale="   41.534">  1  3  2 -1</clus>
</clustering>
</event>
<event>
 6    0  0.6132510E+002  0.1834246E+03  0.7546771E-02  0.1164529E+00
         21   -1    0    0  506  501  0.00000000000E+00  0.00000000000E+00  0.21317260406E+03  0.21317260406E+03  0.00000000000E+00 0. -1.
         21   -1    0    0  501  502 -0.00000000000E+00 -0.00000000000E+00 -0.75306622097E+03  0.75306622097E+03  0.00000000000E+00 0. -1.
         21    1    1    2  503  505 -0.55116163935E+02  0.80144669190E+02 -0.30792392765E+03  0.32292120516E+03  0.00000000000E+00 0. -1.
         21    1    1    2  504  503 -0.35789747544E+02  0.13850730764E+01 -0.15275842943E+03  0.15690112243E+03  0.00000000000E+00 0.  1.
         21    1    1    2  505  502  0.25150891286E+01  0.45578099087E+02 -0.25102346380E+03  0.25514009518E+03  0.00000000000E+00 0. -1.
         21    1    1    2  506  504  0.88390822351E+02 -0.12710784135E+03  0.17181220397E+03  0.23127640226E+03  0.00000000000E+00 0. -1.
<scales pt_clust_3="43.10897" pt_clust_4="33.73298" pt_clust_5="43.10897" pt_clust_6="154.82035"></scales>
<clustering>
<clus scale="   33.733">  3  4 -1 -1</clus>
<clus scale="   43.109">  3  5 -1 -1</clus>
<clus scale="  154.820">  1  6  2 -1</clus>
<clus scale="  154.820">  1  3  2 -1</clus>
</clustering>
</event>
<event>
 6    0  0.6132510E+002  0.1465835E+03  0.7546771E-02  0.1204735E+00
         21   -1    0    0  504  501  0.00000000000E+00  0.00000000000E+00  0.13729922180E+04  0.13729922180E+04  0.00000000000E+00 0.  1.
         21   -1    0    0  506  502 -0.00000000000E+00 -0.00000000000E+00 -0.32738081909E+03  0.32738081909E+03  0.00000000000E+00 0. -1.
         21    1    1    2  503  505  0.69337527783E+02 -0.28878326070E+02  0.50248993530E+03  0.50807261839E+03  0.00000000000E+00 0.  1.
         21    1    1    2  504  503  0.84556839382E+02  0.20156335940E+02  0.58431784749E+03  0.59074824068E+03  0.00000000000E+00 0.  1.
         21    1    1    2  505  502 -0.44880280804E+02  0.13582769889E+02 -0.30891235578E+03  0.31245091582E+03  0.00000000000E+00 0. -1.
         21    1    1    2  506  501 -0.10901408636E+03 -0.48607797592E+01  0.26771597191E+03  0.28910126223E+03  0.00000000000E+00 0. -1.
<scales pt_clust_3="46.44605" pt_clust_4="46.44605" pt_clust_5="46.89063" pt_clust_6="137.80477"></scales>
<clustering>
<clus scale="   46.446">  3  4 -1 -1</clus>
<clus scale="   46.891">  2  5  1 -1</clus>
<clus scale="  137.805">  2  6  1 -1</clus>
<clus scale="  146.584">  1  3  2 -1</clus>
</clustering>
</event>
<event>
 6    0  0.6132510E+002  0.1099030E+03  0.7546771E-02  0.1260750E+00
         21   -1    0    0  505  501  0.00000000000E+00  0.00000000000E+00  0.44241522667E+02  0.44241522667E+02  0.00000000000E+00 0. -1.
         21   -1    0    0  506  502 -0.00000000000E+00 -0.00000000000E+00 -0.11576114020E+04  0.11576114020E+04  0.00000000000E+00 0. -1.
         21    1    1    2  503  504 -0.38795483092E+02 -0.34451151561E+02 -0.68273820941E+01  0.52331486683E+02  0.00000000000E+00 0. -1.
         21    1    1    2  504  501 -0.42858121988E+02 -0.22477371052E+02 -0.41479892258E+02  0.63738781692E+02  0.00000000000E+00 0.  1.
         21    1    1    2  505  502  0.12991406184E+03  0.43903456674E+02 -0.49845793664E+03  0.51697726407E+03  0.00000000000E+00 0. -1.
         21    1    1    2  506  503 -0.48260456758E+02  0.13025065939E+02 -0.56660466833E+03  0.56880539221E+03  0.00000000000E+00 0. -1.
<scales pt_clust_3="33.87899" pt_clust_4="33.87899" pt_clust_5="104.15428" pt_clust_6="49.98724"></scales>
<clustering>
<clus scale="   33.879">  3  4 -1 -1</clus>
<clus scale="   49.987">  2  6  1 -1</clus>
<clus scale="  104.154">  2  5  1 -1</clus>
<clus scale="  109.903">  1  3  2 -1</clus>
</clustering>
</event>
<event>
 6    0  0.6132510E+002  0.7928851E+02  0.7546771E-02  0.1331083E+00
         21   -1    0    0  504  501  0.00000000000E+00  0.00000000000E+00  0.14679236041E+03  0.14679236041E+03  0.00000000000E+00 0.  1.
         21   -1    0    0  506  502 -0.00000000000E+00 -0.00000000000E+00 -0.24717021324E+03  0.24717021324E+03  0.00000000000E+00 0.  1.
         21    1    1    2  503  502 -0.39700197056E+02  0.69387376692E+02 -0.11088335012E+03  0.13669612659E+03  0.00000000000E+00 0.  1.
         21    1    1    2  504  503 -0.24904237691E+02 -0.38173110250E+02 -0.48829575396E+01  0.45839400907E+02  0.00000000000E+00 0.  1.
         21    1    1    2  505  501  0.92123264147E+02 -0.84595125930E+01  0.89777374352E+02  0.12891173762E+03  0.00000000000E+00 0.  1.
         21    1    1    2  506  505 -0.27518829399E+02 -0.22754753849E+02 -0.74388919523E+02  0.82515308531E+02  0.00000000000E+00 0.  1.
<scales pt_clust_3="14000.00000" pt_clust_4="50.72858" pt_clust_5="79.28851" pt_clust_6="35.70805"></scales>
<clustering>
<clus scale="   35.708">  2  6  1 -1</clus>
<clus scale="   50.729">  1  4  2 -1</clus>
<clus scale="   79.289">  1  5  2 -1</clus>
<clus scale="   50.729">  1  3  2 -1</clus>
</clustering>
</event>
<event>
 6    0  0.6132510E+002  0.8353218E+02  0.7546771E-02  0.1319316E+00
         21   -1    0    0  506  501  0.00000000000E+00  0.00000000000E+00  0.59310797059E+02  0.59310797059E+02  0.00000000000E+00 0.  1.
         21   -1    0    0  503  502 -0.00000000000E+00 -0.00000000000E+00 -0.64423439355E+03  0.64423439355E+03  0.00000000000E+00 0.  1.
         21    1    1    2  503  504 -0.38909259558E+02 -0.38058161511E+02 -0.28202564649E+03  0.28722955874E+03  0.00000000000E+00 0.  1.
         21    1    1    2  504  505 -0.55823607738E+02  0.14064322078E+02 -0.41250856686E+02  0.70821702279E+02  0.00000000000E+00 0.  1.
         21    1    1    2  505  501 -0.32129271468E+02 -0.26361591690E+02  0.88679681111E+01  0.42495463993E+02  0.00000000000E+00 0.  1.
         21    1    1    2  506  502  0.12686213876E+03  0.50355431124E+02 -0.27051506143E+03  0.30299846560E+03  0.00000000000E+00 0.  1.
<scales pt_clust_3="57.63155" pt_clust_4="14000.00000" pt_clust_5="41.55988" pt_clust_6="83.53218"></scales>
<clustering>
<clus scale="   41.560">  1  5  2 -1</clus>
<clus scale="   57.632">  2  3  1 -1</clus>
<clus scale="   83.532">  2  6  1 -1</clus>
<clus scale="   41.560">  1  3  2 -1</clus>
</clustering>
</event>
<event>
 6    0  0.6132510E+002  0.1274062E+03  0.7546771E-02  0.1231356E+00
         21   -1    0    0  506  501  0.00000000000E+00  0.00000000000E+00  0.16704074825E+04  0.16704074825E+04  0.00000000000E+00 0.  1.
         21   -1    0    0  505  502 -0.00000000000E+00 -0.00000000000E+00 -0.15397230952E+03  0.15397230952E+03  0.00000000000E+00 0. -1.
         21    1    1    2  503  504 -0.94049580125E+02 -0.27925382281E+02  0.13941877810E+04  0.13976354028E+04  0.00000000000E+00 0.  1.
         21    1    1    2  504  502 -0.10695635946E+02 -0.69246057886E+02  0.12165935397E+01  0.70077765810E+02  0.00000000000E+00 0. -1.
         21    1    1    2  505  501  0.11738040292E+03  0.13900033058E+03 -0.42975838039E+02  0.18693895674E+03  0.00000000000E+00 0. -1.
         21    1    1    2  506  503 -0.12635186845E+02 -0.41828890413E+02  0.16400663646E+03  0.16972766664E+03  0.00000000000E+00 0.  1.
<scales pt_clust_3="127.40615" pt_clust_4="71.09317" pt_clust_5="14000.00000" pt_clust_6="43.69558"></scales>
<clustering>
<clus scale="   43.696">  1  6  2 -1</clus>
<clus scale="   71.093">  2  4  1 -1</clus>
<clus scale="  127.406">  1  3  2 -1</clus>
<clus scale="   43.696">  1  3  2 -1</clus>
</clustering>
</event>
<event>
 6    0  0.6132510E+002  0.9644016E+02  0.7546771E-02  0.1287965E+00
         21   -1    0    0  503  501  0.00000000000E+00  0.00000000000E+00  0.89002856844E+03  0.89002856844E+03  0.00000000000E+00 0. -1.
         21   -1    0    0  506  502 -0.00000000000E+00 -0.00000000000E+00 -0.49090354573E+02  0.49090354573E+02  0.00000000000E+00 0. -1.
         21    1    1    2  503  502  0.27525987204E+02 -0.35055979931E+02  0.10068645260E+03  0.11011068721E+03  0.00000000000E+00 0.  1.
         21    1    1    2  504  501  0.37135237103E+02 -0.15218721936E+02  0.47244585805E+03  0.47414736540E+03  0.00000000000E+00 0. -1.
         21    1    1    2  505  504  0.47156815811E+02  0.17786391962E+02  0.22535490807E+03  0.23092196866E+03  0.00000000000E+00 0.  1.
         21    1    1    2  506  505 -0.11181804012E+03  0.32488309905E+02  0.42450995146E+02  0.12393890174E+03  0.00000000000E+00 0. -1.
<scales pt_clust_3="53.63348" pt_clust_4="40.13272" pt_clust_5="96.44016" pt_clust_6="14000.00000"></scales>
<clustering>
<clus scale="   40.133">  1  4  2 -1</clus>
<clus scale="   53.633">  1  3  2 -1</clus>
<clus scale="   96.440">  1  5  2 -1</clus>
<clus scale="   40.133">  1  3  2 -1</clus>
</clustering>
</event>
<event>
 6    0  0.6132510E+002  0.7392317E+02  0.7546771E-02  0.1347238E+00
         21   -1    0    0  506  501  0.00000000000E+00  0.00000000000E+00  0.24199891485E+03  0.24199891485E+03  0.00000000000E+00 0.  1.
         21   -1    0    0  503  502 -0.00000000000E+00 -0.00000000000E+00 -0.13368326147E+03  0.13368326147E+03  0.00000000000E+00 0.  1.
         21    1    1    2  503  505  0.33448450779E+02  0.81663416404E+02 -0.51691338605E+02  0.10227270860E+03  0.00000000000E+00 0.  1.
         21    1    1    2  504  502 -0.62848242944E+02 -0.11060511740E+01 -0.11609235821E+02  0.63921039938E+02  0.00000000000E+00 0.  1.
         21    1    1    2  505  501  0.46187626573E+02 -0.39093338889E+02  0.14575657924E+03  0.15781814340E+03  0.00000000000E+00 0.  1.
         21    1    1    2  506  504 -0.16787834407E+02 -0.41464026342E+02  0.25859648568E+02  0.51670284387E+02  0.00000000000E+00 0.  1.
<scales pt_clust_3="14000.00000" pt_clust_4="65.32726" pt_clust_5="73.92317" pt_clust_6="44.73362"></scales>
<clustering>
<clus scale="   44.734">  1  6  2 -1</clus>
<clus scale="   65.327">  2  4  1 -1</clus>
<clus scale="   73.923">  1  5  2 -1</clus>
<clus scale="   44.734">  1  3  2 -1</clus>
</clustering>
</event>
<event>
 6    0  0.6132510E+002  0.9803007E+02  0.7546771E-02  0.1284494E+00
         21   -1    0    0  503  501  0.00000000000E+00  0.00000000000E+00  0.32359192465E+04  0.32359192465E+04  0.00000000000E+00 0. -1.
         21   -1    0    0  505  502 -0.00000000000E+00 -0.00000000000E+00 -0.80092479489E+02  0.80092479489E+02  0.00000000000E+00 0. -1.
         21    1    1    2  503  504 -0.21663681221E+02 -0.22309150179E+02  0.92158302341E+03  0.92210752209E+03  0.00000000000E+00 0. -1.
         21    1    1    2  504  502 -0.14985455249E+03  0.10594592475E+03  0.85468028283E+02  0.20244927694E+03  0.00000000000E+00 0. -1.
         21    1    1    2  505  506  0.79442069278E+02 -0.40994578378E+02  0.79318779604E+02  0.11951178446E+03  0.00000000000E+00 0. -1.
         21    1    1    2  506  501  0.92076164433E+02 -0.42642196195E+02  0.20694569357E+04  0.20719431425E+04  0.00000000000E+00 0. -1.
<scales pt_clust_3="31.09684" pt_clust_4="98.03007" pt_clust_5="89.01736" pt_clust_6="14000.00000"></scales>
<clustering>
<clus scale="   31.097">  1  3  2 -1</clus>
<clus scale="   89.017">  2  5  1 -1</clus>
<clus scale="   98.030">  2  4  1 -1</clus>
<clus scale="   31.097">  1  3  2 -1</clus>
</clustering>
</event>
<event>
 6    0  0.6132510E+002  0.2031572E+03  0.7546771E-02  0.1147102E+00
         21   -1    0    0  503  501  0.00000000000E+00  0.00000000000E+00  0.74519377173E+03  0.74519377173E+03  0.00000000000E+00 0. -1.
         21   -1    0    0  506  502 -0.00000000000E+00 -0.00000000000E+00 -0.84651288117E+02  0.84651288117E+02  0.00000000000E+00 0. -1.
         21    1    1    2  503  502 -0.12871281657E+02 -0.18525628904E+03  0.84338662796E+02  0.20395728122E+03  0.00000000000E+00 0. -1.
         21    1    1    2  504  501  0.26399877114E+02  0.48264549909E+02  0.15259125113E+03  0.16220514854E+03  0.00000000000E+00 0. -1.
         21    1    1    2  505  504 -0.45129013610E+02  0.14299349363E+03  0.38652124579E+03  0.41458707232E+03  0.00000000000E+00 0. -1.
         21    1    1    2  506  505  0.31600418153E+02 -0.60017544986E+01  0.37091323896E+02  0.49095557771E+02  0.00000000000E+00 0. -1.
<scales pt_clust_3="190.14811" pt_clust_4="43.96393" pt_clust_5="43.96393" pt_clust_6="32.16531"></scales>
<clustering>
<clus scale="   32.165">  2  6  1 -1</clus>
<clus scale="   43.964">  4  5 -1 -1</clus>
<clus scale="  190.148">  2  3  1 -1</clus>
<clus scale="  203.157">  1  3  2 -1</clus>
</clustering>
</event>
<event>
 6    0  0.6132510E+002  0.1725802E+03  0.7546771E-02  0.1175184E+00
         21   -1    0    0  502  501  0.00000000000E+00  0.00000000000E+00  0.57235642853E+03  0.57235642853E+03  0.00000000000E+00 0. -1.
         21   -1    0    0  503  502 -0.00000000000E+00 -0.00000000000E+00 -0.14673664784E+03  0.14673664784E+03  0.00000000000E+00 0. -1.
         21    1    1    2  503  504 -0.13930292383E+03  0.20996553318E+02 -0.67082414856E+02  0.15603272163E+03  0.00000000000E+00 0. -1.
         21    1    1    2  504  506 -0.16085516665E+02  0.30938426754E+02 -0.26261688730E+01  0.34968941353E+02  0.00000000000E+00 0.  1.
         21    1    1    2  505  501  0.35957316676E+02  0.31091055158E+01  0.22034003451E+03  0.22327634439E+03  0.00000000000E+00 0. -1.
         21    1    1    2  506  505  0.11943112382E+03 -0.55044085588E+02  0.27498832991E+03  0.30481506899E+03  0.00000000000E+00 0. -1.
<scales pt_clust_3="34.39545" pt_clust_4="34.39545" pt_clust_5="36.09148" pt_clust_6="158.12777"></scales>
<clustering>
<clus scale="   34.395">  3  4 -1 -1</clus>
<clus scale="   36.091">  1  5  2 -1</clus>
<clus scale="  158.128">  1  6  2 -1</clus>
<clus scale="   36.091">  1  3  2 -1</clus>
</clustering>
</event>
<event>
 6    0  0.6132510E+002  0.6029748E+02  0.7546771E-02  0.1396588E+00
         21   -1    0    0  504  501  0.00000000000E+00  0.00000000000E+00  0.91735686990E+02  0.91735686990E+02  0.00000000000E+00 0.  1.
         21   -1    0    0  505  502 -0.00000000000E+00 -0.00000000000E+00 -0.10882245895E+04  0.10882245895E+04  0.00000000000E+00 0.  1.
         21    1    1    2  503  506 -0.69333020066E+02 -0.77891818528E+02  0.20104511841E+02  0.10619978560E+03  0.00000000000E+00 0.  1.
         21    1    1    2  504  503  0.28750755814E+02  0.39942723531E+02 -0.37850689420E+00  0.49215550290E+02  0.00000000000E+00 0.  1.
         21    1    1    2  505  501 -0.29118904359E+02 -0.20975955367E+02 -0.19511735083E+03  0.19839022629E+03  0.00000000000E+00 0.  1.
         21    1    1    2  506  502  0.69701168611E+02  0.58925050365E+02 -0.82109755658E+03  0.82615471426E+03  0.00000000000E+00 0.  1.
<scales pt_clust_3="60.29748" pt_clust_4="48.26841" pt_clust_5="35.88734" pt_clust_6="14000.00000"></scales>
<clustering>
<clus scale="   35.887">  2  5  1 -1</clus>
<clus scale="   48.268">  1  4  2 -1</clus>
<clus scale="   60.297">  1  3  2 -1</clus>
<clus scale="   48.268">  1  3  2 -1</clus>
</clustering>
</event>
<event>
 6    0  0.6132510E+002  0.1573840E+03  0.7546771E-02  0.1191682E+00
         21   -1    0    0  503  501  0.00000000000E+00  0.00000000000E+00  0.14483748280E+03  0.14483748280E+03  0.00000000000E+00 0.  1.
         21   -1    0    0  505  502 -0.00000000000E+00 -0.00000000000E+00 -0.29030878703E+03  0.29030878703E+03  0.00000000000E+00 0.  1.
         21    1    1    2  503  502 -0.62946277361E+02  0.16335702025E+03 -0.12678143192E+03  0.21615106148E+03  0.00000000000E+00 0.  1.
         21    1    1    2  504  501  0.21798209083E+01 -0.42802682533E+02  0.31400058114E+02  0.53129887077E+02  0.00000000000E+00 0.  1.
         21    1    1    2  505  506  0.30691091568E+02 -0.25037784082E+02 -0.52416459678E+02  0.65698698454E+02  0.00000000000E+00 0. -1.
         21    1    1    2  506  504  0.30075364884E+02 -0.95516553630E+02  0.23265292571E+01  0.10016662283E+03  0.00000000000E+00 0.  1.
<scales pt_clust_3="150.26642" pt_clust_4="30.61322" pt_clust_5="39.60851" pt_clust_6="30.61322"></scales>
<clustering>
<clus scale="   30.613">  4  6 -1 -1</clus>
<clus scale="   39.609">  2  5  1 -1</clus>
<clus scale="  150.266">  2  3  1 -1</clus>
<clus scale="  157.384">  1  3  2 -1</clus>
</clustering>
</event>
<event>
 6    0  0.6132510E+002  0.1351102E+03  0.7546771E-02  0.1220064E+00
         21   -1    0    0  505  501  0.00000000000E+00  0.00000000000E+00  0.63858272652E+03  0.63858272652E+03  0.00000000000E+00 0. -1.
         21   -1    0    0  506  502 -0.00000000000E+00 -0.00000000000E+00 -0.12480604955E+03  0.12480604955E+03  0.00000000000E+00 0. -1.
         21    1    1    2  503  502 -0.47088902663E+01  0.35790864136E+02 -0.68162467288E+02  0.77131585942E+02  0.00000000000E+00 0. -1.
         21    1    1    2  504  503  0.15142055231E+02  0.44934466013E+02 -0.13884967795E+02  0.49408302978E+02  0.00000000000E+00 0.  1.
         21    1    1    2  505  504  0.44190609794E+02  0.31484517865E+02  0.40588537814E+02  0.67760713256E+02  0.00000000000E+00 0.  1.
         21    1    1    2  506  501 -0.54623774759E+02 -0.11220984801E+03  0.55523557424E+03  0.56908817389E+03  0.00000000000E+00 0. -1.
<scales pt_clust_3="36.09930" pt_clust_4="56.53197" pt_clust_5="56.53197" pt_clust_6="120.82835"></scales>
<clustering>
<clus scale="   36.099">  2  3  1 -1</clus>
<clus scale="   56.532">  4  5 -1 -1</clus>
<clus scale="  120.828">  1  6  2 -1</clus>
<clus scale="  120.828">  1  3  2 -1</clus>
</clustering>
</event>
<event>
 6    0  0.6132510E+002  0.8115390E+02  0.7546771E-02  0.1325808E+00
         21   -1    0    0  505  501  0.00000000000E+00  0.00000000000E+00  0.16923255423E+03  0.16923255423E+03  0.00000000000E+00 0.  1.
         21   -1    0    0  504  502 -0.00000000000E+00 -0.00000000000E+00 -0.42711267831E+03  0.42711267831E+03  0.00000000000E+00 0. -1.
         21    1    1    2  503  506  0.48821930139E+01  0.84623576437E+02 -0.82858057938E+01  0.85168304405E+02  0.00000000000E+00 0. -1.
         21    1    1    2  504  501  0.14247314148E+02 -0.92791791082E+02  0.47359198114E+02  0.10514844791E+03  0.00000000000E+00 0.  1.
         21    1    1    2  505  503 -0.45302112640E+02  0.28455598651E+02  0.40409432305E+02  0.67044199774E+02  0.00000000000E+00 0. -1.
         21    1    1    2  506  502  0.26172605478E+02 -0.20287384006E+02 -0.33736294871E+03  0.33898428045E+03  0.00000000000E+00 0. -1.
<scales pt_clust_3="81.15390" pt_clust_4="14000.00000" pt_clust_5="48.56573" pt_clust_6="33.11470"></scales>
<clustering>
<clus scale="   33.115">  2  6  1 -1</clus>
<clus scale="   48.566">  1  5  2 -1</clus>
<clus scale="   81.154">  2  3  1 -1</clus>
<clus scale="   48.566">  1  3  2 -1</clus>
</clustering>
</event>
<event>
 6    0  0.6132510E+002  0.1071726E+03  0.7546771E-02  0.1265897E+00
         21   -1    0    0  506  501  0.00000000000E+00  0.00000000000E+00  0.16218477076E+03  0.16218477076E+03  0.00000000000E+00 0. -1.
         21   -1    0    0  505  502 -0.00000000000E+00 -0.00000000000E+00 -0.28520608879E+03  0.28520608879E+03  0.00000000000E+00 0. -1.
         21    1    1    2  503  504  0.83249253183E+02 -0.14754650341E+03 -0.60848430663E+02  0.18000816742E+03  0.00000000000E+00 0. -1.
         21    1    1    2  504  502 -0.33847290715E+02  0.18274412471E+02 -0.37761301772E+02  0.53902774988E+02  0.00000000000E+00 0. -1.
         21    1    1    2  505  501 -0.12245755254E+01  0.48327532463E+02 -0.87598685501E+02  0.10005288442E+03  0.00000000000E+00 0. -1.
         21    1    1    2  506  503 -0.48177386943E+02  0.80944558473E+02  0.63187099901E+02  0.11342703273E+03  0.00000000000E+00 0. -1.
<scales pt_clust_3="14000.00000" pt_clust_4="38.46548" pt_clust_5="57.35146" pt_clust_6="107.17256"></scales>
<clustering>
<clus scale="   38.465">  2  4  1 -1</clus>
<clus scale="   57.351">  2  5  1 -1</clus>
<clus scale="  107.173">  1  6  2 -1</clus>
<clus scale="  107.173">  1  3  2 -1</clus>
</clustering>
</event>
<event>
 6    0  0.6132510E+002  0.1036493E+03  0.7546771E-02  0.1272804E+00
         21   -1    0    0  506  501  0.00000000000E+00  0.00000000000E+00  0.69203158362E+03  0.69203158362E+03  0.00000000000E+00 0. -1.
         21   -1    0    0  503  502 -0.00000000000E+00 -0.00000000000E+00 -0.60062611209E+02  0.60062611209E+02  0.00000000000E+00 0.  1.
         21    1    1    2  503  505  0.13337284543E+03 -0.50094585185E+02  0.27419685780E+03  0.30900113299E+03  0.00000000000E+00 0. -1.
         21    1    1    2  504  502 -0.35365250593E+02  0.21899465614E+02 -0.16371302486E+02  0.44702428220E+02  0.00000000000E+00 0.  1.
         21    1    1    2  505  501 -0.18963566558E+02  0.35987304091E+02  0.23219626720E+03  0.23573249546E+03  0.00000000000E+00 0. -1.
         21    1    1    2  506  504 -0.79044028278E+02 -0.77921845194E+01  0.14194714989E+03  0.16265813816E+03  0.00000000000E+00 0. -1.
<scales pt_clust_3="14000.00000" pt_clust_4="42.68598" pt_clust_5="40.67804" pt_clust_6="103.64931"></scales>
<clustering>
<clus scale="   40.678">  1  5  2 -1</clus>
<clus scale="   42.686">  2  4  1 -1</clus>
<clus scale="  103.649">  1  6  2 -1</clus>
<clus scale="   40.678">  1  3  2 -1</clus>
</clustering>
</event>
<event>
 6    0  0.6132510E+002  0.1697801E+03  0.7546771E-02  0.1178077E+00
         21   -1    0    0  506  501  0.00000000000E+00  0.00000000000E+00  0.80388443832E+03  0.80388443832E+03  0.00000000000E+00 0.  1.
         21   -1    0    0  504  502 -0.00000000000E+00 -0.00000000000E+00 -0.18982029061E+04  0.18982029061E+04  0.00000000000E+00 0.  1.
         21    1    1    2  503  505 -0.10596958235E+03 -0.16714115315E+02  0.52719573248E+03  0.53800023642E+03  0.00000000000E+00 0.  1.
         21    1    1    2  504  501  0.31087064330E+02 -0.26505084228E+02 -0.29208832388E+03  0.29493137168E+03  0.00000000000E+00 0.  1.
         21    1    1    2  505  502  0.11040940449E+03  0.94231013877E+02 -0.15923654824E+04  0.15989676513E+04  0.00000000000E+00 0.  1.
         21    1    1    2  506  503 -0.35526886470E+02 -0.51011814334E+02  0.26293960599E+03  0.27018808497E+03  0.00000000000E+00 0.  1.
<scales pt_clust_3="49.62918" pt_clust_4="40.85248" pt_clust_5="156.77632" pt_clust_6="49.62918"></scales>
<clustering>
<clus scale="   40.852">  2  4  1 -1</clus>
<clus scale="   49.629">  3  6 -1 -1</clus>
<clus scale="  156.776">  2  5  1 -1</clus>
<clus scale="  169.780">  1  3  2 -1</clus>
</clustering>
</event>
<event>
 6    0  0.6132510E+002  0.1627317E+03  0.7546771E-02  0.1185647E+00
         21   -1    0    0  505  501  0.00000000000E+00  0.00000000000E+00  0.17537484295E+03  0.17537484295E+03  0.00000000000E+00 0. -1.
         21   -1    0    0  503  502 -0.00000000000E+00 -0.00000000000E+00 -0.46997316060E+03  0.46997316060E+03  0.00000000000E+00 0. -1.
         21    1    1    2  503  504  0.41735156097E+02 -0.18830159240E+02 -0.14819118347E+03  0.15510327208E+03  0.00000000000E+00 0.  1.
         21    1    1    2  504  506 -0.50848647549E+01  0.13877126086E+03  0.79356090514E+02  0.15993970049E+03  0.00000000000E+00 0. -1.
         21    1    1    2  505  502 -0.73526617363E+02 -0.15111761887E+03 -0.22646718219E+03  0.28201078490E+03  0.00000000000E+00 0. -1.
         21    1    1    2  506  501  0.36876326021E+02  0.31176517249E+02  0.70395748681E+00  0.48294246083E+02  0.00000000000E+00 0.  1.
<scales pt_clust_3="45.78644" pt_clust_4="162.73169" pt_clust_5="14000.00000" pt_clust_6="49.85855"></scales>
<clustering>
<clus scale="   45.786">  2  3  1 -1</clus>
<clus scale="   49.859">  1  6  2 -1</clus>
<clus scale="  162.732">  1  4  2 -1</clus>
<clus scale="   49.859">  1  3  2 -1</clus>
</clustering>
</event>
<event>
 6    0  0.6132510E+002  0.1463399E+03  0.7546771E-02  0.1205044E+00
         21   -1    0    0  502  501  0.00000000000E+00  0.00000000000E+00  0.60223915229E+03  0.60223915229E+03  0.00000000000E+00 0. -1.
         21   -1    0    0  506  502 -0.00000000000E+00 -0.00000000000E+00 -0.16629692868E+03  0.16629692868E+03  0.00000000000E+00 0.  1.
         21    1    1    2  503  501  0.17274467686E+01  0.40981857148E+02  0.10453704769E+03  0.11229644263E+03  0.00000000000E+00 0.  1.
         21    1    1    2  504  505 -0.43376046974E+02  0.10441475406E+03  0.97654586399E+02  0.14939993494E+03  0.00000000000E+00 0. -1.
         21    1    1    2  505  503  0.14359768880E+03 -0.12892664935E+03  0.31906463171E+03  0.37288686803E+03  0.00000000000E+00 0. -1.
         21    1    1    2  506  504 -0.10194908860E+03 -0.16469961855E+02 -0.85314042187E+02  0.13395283537E+03  0.00000000000E+00 0.  1.
<scales pt_clust_3="41.01825" pt_clust_4="146.33988" pt_clust_5="14000.00000" pt_clust_6="102.88406"></scales>
<clustering>
<clus scale="   41.018">  1  3  2 -1</clus>
<clus scale="  102.884">  2  6  1 -1</clus>
<clus scale="  146.340">  2  4  1 -1</clus>
<clus scale="   41.018">  1  3  2 -1</clus>
</clustering>
</event>
<event>
 6    0  0.6132510E+002  0.2122995E+03  0.7546771E-02  0.1139758E+00
         21   -1    0    0  503  501  0.00000000000E+00  0.00000000000E+00  0.18023508479E+03  0.18023508479E+03  0.00000000000E+00 0. -1.
         21   -1    0    0  506  502 -0.00000000000E+00 -0.00000000000E+00 -0.29465014362E+03  0.29465014362E+03  0.00000000000E+00 0.  1.
         21    1    1    2  503  502  0.16788193328E+03 -0.11874574596E+03 -0.53384707635E+02  0.21244957688E+03  0.00000000000E+00 0.  1.
         21    1    1    2  504  501 -0.79488291355E+02  0.46715720538E+02  0.14156780411E+02  0.93280016292E+02  0.00000000000E+00 0. -1.
         21    1    1    2  505  504 -0.10023944409E+03  0.26685091473E+02 -0.60287230651E+02  0.11997745804E+03  0.00000000000E+00 0. -1.
         21    1    1    2  506  505  0.11845802157E+02  0.45344933954E+02 -0.14899900961E+02  0.49178177199E+02  0.00000000000E+00 0. -1.
<scales pt_clust_3="198.51972" pt_clust_4="71.31325" pt_clust_5="71.31325" pt_clust_6="46.86668"></scales>
<clustering>
<clus scale="   46.867">  2  6  1 -1</clus>
<clus scale="   71.313">  4  5 -1 -1</clus>
<clus scale="  198.520">  2  3  1 -1</clus>
<clus scale="  212.299">  1  3  2 -1</clus>
</clustering>
</event>
<event>
 6    0  0.6132510E+002  0.8069471E+02  0.7546771E-02  0.1327091E+00
         21   -1    0    0  505  501  0.00000000000E+00  0.00000000000E+00  0.23972815699E+03  0.23972815699E+03  0.00000000000E+00 0. -1.
         21   -1    0    0  506  502 -0.00000000000E+00 -0.00000000000E+00 -0.78180663750E+03  0.78180663750E+03  0.00000000000E+00 0.  1.
         21    1    1    2  503  502 -0.28431847292E+02  0.12284353391E+02 -0.58897507651E+03  0.58978887411E+03  0.00000000000E+00 0.  1.
         21    1    1    2  504  501 -0.11912347805E+02  0.77305861797E+02  0.18882717749E+03  0.20438640673E+03  0.00000000000E+00 0. -1.
         21    1    1    2  505  503  0.47648925043E+02 -0.12594717603E+03 -0.13288973332E+03  0.18918983173E+03  0.00000000000E+00 0.  1.
         21    1    1    2  506  504 -0.73047299461E+01  0.36356960846E+02 -0.90408481777E+01  0.38169681913E+02  0.00000000000E+00 0.  1.
<scales pt_clust_3="30.97217" pt_clust_4="14000.00000" pt_clust_5="80.69471" pt_clust_6="39.37201"></scales>
<clustering>
<clus scale="   30.972">  2  3  1 -1</clus>
<clus scale="   39.372">  2  6  1 -1</clus>
<clus scale="   80.695">  2  5  1 -1</clus>
<clus scale="   80.695">  1  3  2 -1</clus>
</clustering>
</event>
<event>
 6    0  0.6132510E+002  0.7742279E+02  0.7546771E-02  0.1336528E+00
         21   -1    0    0  505  501  0.00000000000E+00  0.00000000000E+00  0.25587943162E+03  0.25587943162E+03  0.00000000000E+00 0. -1.
         21   -1    0    0  503  502 -0.00000000000E+00 -0.00000000000E+00 -0.86023836665E+03  0.86023836665E+03  0.00000000000E+00 0.  1.
         21    1    1    2  503  504  0.63599904896E+02  0.36177943545E+02 -0.65310397070E+03  0.65718991779E+03  0.00000000000E+00 0.  1.
         21    1    1    2  504  501 -0.13302198789E+03 -0.16516842323E+02 -0.17283862928E+03  0.21872550632E+03  0.00000000000E+00 0. -1.
         21    1    1    2  505  506  0.19652156544E+02 -0.23195014466E+02  0.14934224859E+03  0.15240512842E+03  0.00000000000E+00 0. -1.
         21    1    1    2  506  502  0.49769926451E+02  0.35339132435E+01  0.72241416363E+02  0.87797245742E+02  0.00000000000E+00 0.  1.
<scales pt_clust_3="14000.00000" pt_clust_4="77.42279" pt_clust_5="30.40092" pt_clust_6="66.27223"></scales>
<clustering>
<clus scale="   30.401">  1  5  2 -1</clus>
<clus scale="   66.272">  1  6  2 -1</clus>
<clus scale="   77.423">  1  4  2 -1</clus>
<clus scale="   30.401">  1  3  2 -1</clus>
</clustering>
</event>
<event>
 6    0  0.6132510E+002  0.1869213E+03  0.7546771E-02  0.1161268E+00
         21   -1    0    0  505  501  0.00000000000E+00  0.00000000000E+00  0.31518785448E+03  0.31518785448E+03  0.00000000000E+00 0. -1.
         21   -1    0    0  503  502 -0.00000000000E+00 -0.00000000000E+00 -0.24487781277E+03  0.24487781277E+03  0.00000000000E+00 0. -1.
         21    1    1    2  503  506  0.58457343360E+02  0.45613224603E+02  0.10386366037E+02  0.74871248492E+02  0.00000000000E+00 0.  1.
         21    1    1    2  504  502  0.43232151478E+01  0.39646393627E+02 -0.11023469088E+03  0.11722718878E+03  0.00000000000E+00 0. -1.
         21    1    1    2  505  504 -0.59361084752E+02 -0.16326650164E+03  0.21617932585E+03  0.27733227339E+03  0.00000000000E+00 0. -1.
         21    1    1    2  506  501 -0.34194737557E+01  0.78006883415E+02 -0.46020959287E+02  0.90634956582E+02  0.00000000000E+00 0. -1.
<scales pt_clust_3="80.21950" pt_clust_4="39.88141" pt_clust_5="164.70639" pt_clust_6="80.21950"></scales>
<clustering>
<clus scale="   39.881">  2  4  1 -1</clus>
<clus scale="   80.220">  3  6 -1 -1</clus>
<clus scale="  164.706">  1  5  2 -1</clus>
<clus scale="  164.706">  1  3  2 -1</clus>
</clustering>
</event>
<event>
 6    0  0.6132510E+002  0.8860781E+02  0.7546771E-02  0.1306259E+00
         21   -1    0    0  505  501  0.00000000000E+00  0.00000000000E+00  0.80942342193E+03  0.80942342193E+03  0.00000000000E+00 0. -1.
         21   -1    0    0  504  502 -0.00000000000E+00 -0.00000000000E+00 -0.64876013209E+02  0.64876013209E+02  0.00000000000E+00 0. -1.
         21    1    1    2  503  506  0.95604908685E-01  0.68212034393E+02  0.42659193892E+03  0.43201107986E+03  0.00000000000E+00 0. -1.
         21    1    1    2  504  501  0.97176587230E+02 -0.85239544719E+02  0.77480079667E+02  0.15070577904E+03  0.00000000000E+00 0. -1.
         21    1    1    2  505  503 -0.36026179993E+02  0.16765621352E+02  0.22490427902E+03  0.22838762319E+03  0.00000000000E+00 0. -1.
         21    1    1    2  506  502 -0.61246012146E+02  0.26188897440E+00  0.15571111116E+02  0.63194953050E+02  0.00000000000E+00 0. -1.
<scales pt_clust_3="88.60781" pt_clust_4="14000.00000" pt_clust_5="39.73628" pt_clust_6="63.69587"></scales>
<clustering>
<clus scale="   39.736">  1  5  2 -1</clus>
<clus scale="   63.696">  2  6  1 -1</clus>
<clus scale="   88.608">  1  3  2 -1</clus>
<clus scale="   39.736">  1  3  2 -1</clus>
</clustering>
</event>
<event>
 6    0  0.6237430E+002  0.2106659E+03  0.7546771E-02  0.1141040E+00
         21   -1    0    0  506  501  0.00000000000E+00  0.00000000000E+00  0.74267911964E+03  0.74267911964E+03  0.00000000000E+00 0.  1.
         21   -1    0    0  503  502 -0.00000000000E+00 -0.00000000000E+00 -0.78589695783E+03  0.78589695783E+03  0.00000000000E+00 0. -1.
         21    1    1    2  503  505  0.41157856511E+02  0.13641806520E+02 -0.89708523784E+01  0.44278033269E+02  0.00000000000E+00 0.  1.
         21    1    1    2  504  502 -0.22373443160E+03  0.91915095478E+02 -0.70647735564E+03  0.74673672382E+03  0.00000000000E+00 0. -1.
         21    1    1    2  505  501  0.59632641346E+02  0.45114380051E+02  0.62132416295E+02  0.97220349495E+02  0.00000000000E+00 0.  1.
         21    1    1    2  506  504  0.12294393374E+03 -0.15067128205E+03  0.61009795354E+03  0.64034097088E+03  0.00000000000E+00 0.  1.
<scales pt_clust_3="43.35975" pt_clust_4="14000.00000" pt_clust_5="75.72467" pt_clust_6="210.66585"></scales>
<clustering>
<clus scale="   43.360">  2  3  1 -1</clus>
<clus scale="   75.725">  1  5  2 -1</clus>
<clus scale="  210.666">  1  6  2 -1</clus>
<clus scale="   75.725">  1  3  2 -1</clus>
</clustering>
</event>
<event>
 6    0  0.6132510E+002  0.1313341E+03  0.7546771E-02  0.1225489E+00
         21   -1    0    0  503  501  0.00000000000E+00  0.00000000000E+00  0.29940579706E+03  0.29940579706E+03  0.00000000000E+00 0. -1.
         21   -1    0    0  504  502 -0.00000000000E+00 -0.00000000000E+00 -0.25401607420E+03  0.25401607420E+03  0.00000000000E+00 0. -1.
         21    1    1    2  503  506  0.24129365961E+02  0.28799827746E+02  0.35679401873E+02  0.51813860095E+02  0.00000000000E+00 0.  1.
         21    1    1    2  504  501 -0.10537204265E+03  0.35763057265E+01 -0.14781236976E+03  0.18156143309E+03  0.00000000000E+00 0. -1.
         21    1    1    2  505  502 -0.65834564234E+00 -0.65639132868E+02 -0.57687606933E+02  0.87388724537E+02  0.00000000000E+00 0. -1.
         21    1    1    2  506  505  0.81901022329E+02  0.33262999395E+02  0.21521029767E+03  0.23265785353E+03  0.00000000000E+00 0. -1.
<scales pt_clust_3="35.01302" pt_clust_4="119.85145" pt_clust_5="65.64243" pt_clust_6="35.01302"></scales>
<clustering>
<clus scale="   35.013">  3  6 -1 -1</clus>
<clus scale="   65.642">  2  5  1 -1</clus>
<clus scale="  119.851">  2  4  1 -1</clus>
<clus scale="  131.334">  1  3  2 -1</clus>
</clustering>
</event>
<event>
 6    0  0.6132510E+002  0.2875889E+03  0.7546771E-02  0.1091615E+00
         21   -1    0    0  504  501  0.00000000000E+00  0.00000000000E+00  0.64626436414E+03  0.64626436414E+03  0.00000000000E+00 0. -1.
         21   -1    0    0  505  502 -0.00000000000E+00 -0.00000000000E+00 -0.84909985379E+03  0.84909985379E+03  0.00000000000E+00 0. -1.
         21    1    1    2  503  501  0.25881778401E+03 -0.19838998002E+03  0.37045635402E+03  0.49354142655E+03  0.00000000000E+00 0. -1.
         21    1    1    2  504  506 -0.16838638689E+03  0.17759830817E+03  0.13817712467E+03  0.28104813135E+03  0.00000000000E+00 0. -1.
         21    1    1    2  505  503 -0.53305409689E+02  0.31785225370E+02 -0.59068136022E+03  0.59393285527E+03  0.00000000000E+00 0. -1.
         21    1    1    2  506  502 -0.37125987431E+02 -0.10993553517E+02 -0.12078760812E+03  0.12684180476E+03  0.00000000000E+00 0. -1.
<scales pt_clust_3="14000.00000" pt_clust_4="287.58895" pt_clust_5="86.67889" pt_clust_6="38.71947"></scales>
<clustering>
<clus scale="   38.719">  2  6  1 -1</clus>
<clus scale="   86.679">  2  5  1 -1</clus>
<clus scale="  287.589">  2  4  1 -1</clus>
<clus scale="  287.589">  1  3  2 -1</clus>
</clustering>
</event>
<event>
 6    0  0.6132510E+002  0.1372766E+03  0.7546771E-02  0.1217041E+00
         21   -1    0    0  503  501  0.00000000000E+00  0.00000000000E+00  0.86530170183E+03  0.86530170183E+03  0.00000000000E+00 0. -1.
         21   -1    0    0  505  502 -0.00000000000E+00 -0.00000000000E+00 -0.59688214057E+03  0.59688214057E+03  0.00000000000E+00 0.  1.
         21    1    1    2  503  504  0.65004006270E+02 -0.41265177002E+02  0.67986638086E+03  0.68421241693E+03  0.00000000000E+00 0. -1.
         21    1    1    2  504  502 -0.94650057666E+01  0.12675030172E+03 -0.21421600432E+02  0.12889573416E+03  0.00000000000E+00 0.  1.
         21    1    1    2  505  506 -0.72278211391E+02 -0.12310180258E+03 -0.50613549811E+03  0.52588148483E+03  0.00000000000E+00 0.  1.
         21    1    1    2  506  501  0.16739210887E+02  0.37616677863E+02  0.11611027894E+03  0.12319420648E+03  0.00000000000E+00 0. -1.
<scales pt_clust_3="80.60745" pt_clust_4="14000.00000" pt_clust_5="137.27656" pt_clust_6="41.17300"></scales>
<clustering>
<clus scale="   41.173">  1  6  2 -1</clus>
<clus scale="   80.607">  1  3  2 -1</clus>
<clus scale="  137.277">  2  5  1 -1</clus>
<clus scale="   41.173">  1  3  2 -1</clus>
</clustering>
</event>
<event>
 6    0  0.6132510E+002  0.1118569E+03  0.7546771E-02  0.1257169E+00
         21   -1    0    0  506  501  0.00000000000E+00  0.00000000000E+00  0.86215550449E+02  0.86215550449E+02  0.00000000000E+00 0.  1.
         21   -1    0    0  504  502 -0.00000000000E+00 -0.00000000000E+00 -0.21943018227E+03  0.21943018227E+03  0.00000000000E+00 0.  1.
         21    1    1    2  503  502  0.26378496420E+02  0.43646340471E+02 -0.50357044533E+02  0.71670496328E+02  0.00000000000E+00 0.  1.
         21    1    1    2  504  501  0.78830479297E+02  0.15094906416E+02 -0.15758614235E+02  0.81795076799E+02  0.00000000000E+00 0.  1.
         21    1    1    2  505  503 -0.55193133728E+02 -0.63551948685E+02 -0.54833329769E+02  0.10045808203E+03  0.00000000000E+00 0.  1.
         21    1    1    2  506  505 -0.50015841989E+02  0.48107017983E+01 -0.12265643282E+02  0.51722077556E+02  0.00000000000E+00 0.  1.
<scales pt_clust_3="50.99831" pt_clust_4="91.51453" pt_clust_5="49.69502" pt_clust_6="49.69502"></scales>
<clustering>
<clus scale="   49.695">  5  6 -1 -1</clus>
<clus scale="   50.998">  2  3  1 -1</clus>
<clus scale="   91.515">  1  4  2 -1</clus>
<clus scale="   91.515">  1  3  2 -1</clus>
</clustering>
</event>
<event>
 6    0  0.6132510E+002  0.9943687E+02  0.7546771E-02  0.1281485E+00
         21   -1    0    0  505  501  0.00000000000E+00  0.00000000000E+00  0.10739394573E+04  0.10739394573E+04  0.00000000000E+00 0. -1.
         21   -1    0    0  506  502 -0.00000000000E+00 -0.00000000000E+00 -0.14950714983E+03  0.14950714983E+03  0.00000000000E+00 0.  1.
         21    1    1    2  503  502 -0.21739399865E+02 -0.24920521528E+02 -0.10750114144E+03  0.11247279365E+03  0.00000000000E+00 0.  1.
         21    1    1    2  504  503  0.26705318253E+02  0.50014007288E+02  0.38117933673E+01  0.56825211981E+02  0.00000000000E+00 0.  1.
         21    1    1    2  505  504 -0.66449398477E+02 -0.81179852886E+02  0.86186266864E+03  0.86822402102E+03  0.00000000000E+00 0. -1.
         21    1    1    2  506  501  0.61483480089E+02  0.56086367126E+02  0.16625898695E+03  0.18592458053E+03  0.00000000000E+00 0.  1.
<scales pt_clust_3="33.07014" pt_clust_4="35.43807" pt_clust_5="14000.00000" pt_clust_6="99.43687"></scales>
<clustering>
<clus scale="   33.070">  2  3  1 -1</clus>
<clus scale="   35.438">  2  4  1 -1</clus>
<clus scale="   99.437">  2  6  1 -1</clus>
<clus scale="   99.437">  1  3  2 -1</clus>
</clustering>
</event>
<event>
 6    0  0.6132510E+002  0.1103027E+03  0.7546771E-02  0.1260010E+00
         21   -1    0    0  504  501  0.00000000000E+00  0.00000000000E+00  0.16742472697E+03  0.16742472697E+03  0.00000000000E+00 0.  1.
         21   -1    0    0  505  502 -0.00000000000E+00 -0.00000000000E+00 -0.48258106490E+03  0.48258106490E+03  0.00000000000E+00 0.  1.
         21    1    1    2  503  506  0.50487411536E+02 -0.87069269223E+01  0.38563756762E+02  0.64124508853E+02  0.00000000000E+00 0. -1.
         21    1    1    2  504  503  0.38432395905E+02 -0.38472183091E+02  0.93340335372E+02  0.10802581235E+03  0.00000000000E+00 0.  1.
         21    1    1    2  505  501 -0.33107949364E+02 -0.48047881643E+02 -0.14961860221E+03  0.16059408883E+03  0.00000000000E+00 0.  1.
         21    1    1    2  506  502 -0.55811858077E+02  0.95226991655E+02 -0.29744182786E+03  0.31726138183E+03  0.00000000000E+00 0.  1.
<scales pt_clust_3="44.52701" pt_clust_4="44.52701" pt_clust_5="58.35011" pt_clust_6="100.31073"></scales>
<clustering>
<clus scale="   44.527">  3  4 -1 -1</clus>
<clus scale="   58.350">  2  5  1 -1</clus>
<clus scale="  100.311">  2  6  1 -1</clus>
<clus scale="  110.303">  1  3  2 -1</clus>
</clustering>
</event>
<event>
 6    0  0.6132510E+002  0.1037449E+03  0.7546771E-02  0.1272612E+00
         21   -1    0    0  504  501  0.00000000000E+00  0.00000000000E+00  0.34026949259E+03  0.34026949259E+03  0.00000000000E+00 0.  1.
         21   -1    0    0  505  502 -0.00000000000E+00 -0.00000000000E+00 -0.20044904676E+03  0.20044904676E+03  0.00000000000E+00 0.  1.
         21    1    1    2  503  501 -0.32840628618E+02 -0.92916232349E+01  0.18847710887E+03  0.19154232357E+03  0.00000000000E+00 0.  1.
         21    1    1    2  504  506 -0.21446576686E+02 -0.34531284151E+02  0.62270991094E+01  0.41123496933E+02  0.00000000000E+00 0.  1.
         21    1    1    2  505  503  0.24963226500E+02 -0.64011818534E+02  0.97381555180E+02  0.11917987615E+03  0.00000000000E+00 0.  1.
         21    1    1    2  506  502  0.29323978804E+02  0.10783472592E+03 -0.15226531733E+03  0.18887284270E+03  0.00000000000E+00 0.  1.
<scales pt_clust_3="34.12977" pt_clust_4="44.76986" pt_clust_5="14000.00000" pt_clust_6="103.74486"></scales>
<clustering>
<clus scale="   34.130">  1  3  2 -1</clus>
<clus scale="   44.770">  1  4  2 -1</clus>
<clus scale="  103.745">  2  6  1 -1</clus>
<clus scale="   34.130">  1  3  2 -1</clus>
</clustering>
</event>
<event>
 6    0  0.6132510E+002  0.2000519E+03  0.7546771E-02  0.1149695E+00
         21   -1    0    0  504  501  0.00000000000E+00  0.00000000000E+00  0.24335145202E+03  0.24335145202E+03  0.00000000000E+00 0. -1.
         21   -1    0    0  505  502 -0.00000000000E+00 -0.00000000000E+00 -0.29504478879E+03  0.29504478879E+03  0.00000000000E+00 0. -1.
         21    1    1    2  503  502  0.28467925637E+02 -0.30663053860E+02  0.78885912699E+01  0.42577876113E+02  0.00000000000E+00 0.  1.
         21    1    1    2  504  506  0.64592654257E+02  0.10749543068E+03  0.80157985888E+01  0.12566515678E+03  0.00000000000E+00 0. -1.
         21    1    1    2  505  501 -0.21636329843E+03 -0.92541846742E+02 -0.71020074929E+02  0.24580667475E+03  0.00000000000E+00 0. -1.
         21    1    1    2  506  503  0.12330271854E+03  0.15709469919E+02  0.34223483023E+01  0.12434653317E+03  0.00000000000E+00 0. -1.
<scales pt_clust_3="38.82410" pt_clust_4="125.40924" pt_clust_5="188.52825" pt_clust_6="38.82410"></scales>
<clustering>
<clus scale="   38.824">  3  6 -1 -1</clus>
<clus scale="  125.409">  1  4  2 -1</clus>
<clus scale="  188.528">  1  5  2 -1</clus>
<clus scale="  125.409">  1  3  2 -1</clus>
</clustering>
</event>
<event>
 6    0  0.6132510E+002  0.1004534E+03  0.7546771E-02  0.1279345E+00
         21   -1    0    0  505  501  0.00000000000E+00  0.00000000000E+00  0.10276127628E+04  0.10276127628E+04  0.00000000000E+00 0. -1.
         21   -1    0    0  506  502 -0.00000000000E+00 -0.00000000000E+00 -0.27138859770E+03  0.27138859770E+03  0.00000000000E+00 0.  1.
         21    1    1    2  503  502 -0.25835669775E+02  0.23498588254E+02 -0.24417994587E+02  0.42613424438E+02  0.00000000000E+00 0.  1.
         21    1    1    2  504  501  0.12385466796E+03  0.44357167011E+02  0.79535476419E+03  0.80616173189E+03  0.00000000000E+00 0. -1.
         21    1    1    2  505  503 -0.27638005570E+02 -0.16531301968E+02  0.20831593622E+03  0.21079058940E+03  0.00000000000E+00 0. -1.
         21    1    1    2  506  504 -0.70380992610E+02 -0.51324453297E+02 -0.22302854074E+03  0.23943561476E+03  0.00000000000E+00 0.  1.
<scales pt_clust_3="35.02907" pt_clust_4="100.45342" pt_clust_5="32.20471" pt_clust_6="14000.00000"></scales>
<clustering>
<clus scale="   32.205">  1  5  2 -1</clus>
<clus scale="   35.029">  2  3  1 -1</clus>
<clus scale="  100.453">  1  4  2 -1</clus>
<clus scale="   32.205">  1  3  2 -1</clus>
</clustering>
</event>
<event>
 6    0  0.6132510E+002  0.1749176E+03  0.7546771E-02  0.1172814E+00
         21   -1    0    0  504  501  0.00000000000E+00  0.00000000000E+00  0.84753855217E+03  0.84753855217E+03  0.00000000000E+00 0. -1.
         21   -1    0    0  503  502 -0.00000000000E+00 -0.00000000000E+00 -0.92184051177E+02  0.92184051177E+02  0.00000000000E+00 0. -1.
         21    1    1    2  503  501  0.47907873579E+02  0.19266446857E+01 -0.13547276667E+02  0.49823739479E+02  0.00000000000E+00 0. -1.
         21    1    1    2  504  505 -0.12886911157E+03  0.11760104591E+03  0.70324794126E+03  0.72456533232E+03  0.00000000000E+00 0. -1.
         21    1    1    2  505  506  0.35161375205E+02 -0.39207271685E+02  0.47888000997E+02  0.71181409783E+02  0.00000000000E+00 0.  1.
         21    1    1    2  506  502  0.45799862783E+02 -0.80320418908E+02  0.17765835400E+02  0.94152121761E+02  0.00000000000E+00 0. -1.
<scales pt_clust_3="47.94660" pt_clust_4="168.56162" pt_clust_5="35.26324" pt_clust_6="35.26324"></scales>
<clustering>
<clus scale="   35.263">  5  6 -1 -1</clus>
<clus scale="   47.947">  2  3  1 -1</clus>
<clus scale="  168.562">  1  4  2 -1</clus>
<clus scale="  168.562">  1  3  2 -1</clus>
</clustering>
</event>
<event>
 6    0  0.6132510E+002  0.1126049E+03  0.7546771E-02  0.1255821E+00
         21   -1    0    0  505  501  0.00000000000E+00  0.00000000000E+00  0.10645691144E+03  0.10645691144E+03  0.00000000000E+00 0.  1.
         21   -1    0    0  504  502 -0.00000000000E+00 -0.00000000000E+00 -0.14996629106E+04  0.14996629106E+04  0.00000000000E+00 0.  1.
         21    1    1    2  503  502 -0.47784036142E+02  0.17701489172E+01 -0.30348256996E+03  0.30722649268E+03  0.00000000000E+00 0.  1.
         21    1    1    2  504  501 -0.59336658323E+02 -0.72864462098E+02 -0.10829241342E+04  0.10869934449E+04  0.00000000000E+00 0.  1.
         21    1    1    2  505  506  0.25526502040E+02  0.52696525671E+02  0.74836885055E+02  0.95021500140E+02  0.00000000000E+00 0.  1.
         21    1    1    2  506  503  0.81594192425E+02  0.18397787510E+02 -0.81636180085E+02  0.11687838432E+03  0.00000000000E+00 0.  1.
<scales pt_clust_3="47.81681" pt_clust_4="14000.00000" pt_clust_5="58.39222" pt_clust_6="112.60488"></scales>
<clustering>
<clus scale="   47.817">  2  3  1 -1</clus>
<clus scale="   58.392">  1  5  2 -1</clus>
<clus scale="  112.605">  1  6  2 -1</clus>
<clus scale="   58.392">  1  3  2 -1</clus>
</clustering>
</event>
<event>
 6    0  0.6132510E+002  0.1213172E+03  0.7546771E-02  0.1240940E+00
         21   -1    0    0  503  501  0.00000000000E+00  0.00000000000E+00  0.15195626981E+03  0.15195626981E+03  0.00000000000E+00 0.  1.
         21   -1    0    0  504  502 -0.00000000000E+00 -0.00000000000E+00 -0.11621141765E+04  0.11621141765E+04  0.00000000000E+00 0.  1.
         21    1    1    2  503  506 -0.28497161209E+02 -0.22598501485E+02  0.50641044309E+02  0.62348182291E+02  0.00000000000E+00 0.  1.
         21    1    1    2  504  505 -0.66079257785E+02  0.10409430175E+03 -0.10584166927E+04  0.10655740177E+04  0.00000000000E+00 0.  1.
         21    1    1    2  505  501  0.50171018080E+02 -0.19972491752E+02 -0.67304000991E+02  0.86289396982E+02  0.00000000000E+00 0. -1.
         21    1    1    2  506  502  0.44405400913E+02 -0.61523308508E+02  0.64921742638E+02  0.99858849318E+02  0.00000000000E+00 0.  1.
<scales pt_clust_3="36.37005" pt_clust_4="121.31725" pt_clust_5="52.29274" pt_clust_6="14000.00000"></scales>
<clustering>
<clus scale="   36.370">  1  3  2 -1</clus>
<clus scale="   52.293">  1  5  2 -1</clus>
<clus scale="  121.317">  2  4  1 -1</clus>
<clus scale="   36.370">  1  3  2 -1</clus>
</clustering>
</event>
<event>
 6    0  0.6132510E+002  0.1133663E+03  0.7546771E-02  0.1254460E+00
         21   -1    0    0  503  501  0.00000000000E+00  0.00000000000E+00  0.21479602478E+03  0.21479602478E+03  0.00000000000E+00 0.  1.
         21   -1    0    0  505  502 -0.00000000000E+00 -0.00000000000E+00 -0.64341110803E+03  0.64341110803E+03  0.00000000000E+00 0.  1.
         21    1    1    2  503  502  0.29279681118E+02  0.40184991170E+02 -0.26372682817E+03  0.26837282489E+03  0.00000000000E+00 0. -1.
         21    1    1    2  504  501  0.58139196447E+01  0.78819340569E+02  0.12673325140E+03  0.14935731358E+03  0.00000000000E+00 0.  1.
         21    1    1    2  505  506 -0.11455468548E+03 -0.12473367104E+03 -0.31483672970E+03  0.35749605735E+03  0.00000000000E+00 0.  1.
         21    1    1    2  506  504  0.79461084719E+02  0.57293393002E+01  0.23215223225E+02  0.82980936985E+02  0.00000000000E+00 0.  1.
<scales pt_clust_3="49.72055" pt_clust_4="80.30324" pt_clust_5="14000.00000" pt_clust_6="113.36631"></scales>
<clustering>
<clus scale="   49.721">  2  3  1 -1</clus>
<clus scale="   80.303">  1  4  2 -1</clus>
<clus scale="  113.366">  1  6  2 -1</clus>
<clus scale="   80.303">  1  3  2 -1</clus>
</clustering>
</event>
<event>
 6    0  0.6132510E+002  0.1303175E+03  0.7546771E-02  0.1226985E+00
         21   -1    0    0  506  501  0.00000000000E+00  0.00000000000E+00  0.67164403914E+03  0.67164403914E+03  0.00000000000E+00 0.  1.
         21   -1    0    0  505  502 -0.00000000000E+00 -0.00000000000E+00 -0.25695875487E+03  0.25695875487E+03  0.00000000000E+00 0.  1.
         21    1    1    2  503  504  0.45477436302E+02  0.89890444893E+02  0.14959912686E+03  0.18035628088E+03  0.00000000000E+00 0.  1.
         21    1    1    2  504  502  0.36781481575E+02 -0.57804543272E+02 -0.19728556804E+03  0.20884405179E+03  0.00000000000E+00 0.  1.
         21    1    1    2  505  501  0.11935827692E+02 -0.13455531418E+03  0.18501559062E+03  0.22908156916E+03  0.00000000000E+00 0.  1.
         21    1    1    2  506  503 -0.94194745568E+02  0.10246941256E+03  0.27735613483E+03  0.31032089219E+03  0.00000000000E+00 0.  1.
<scales pt_clust_3="92.30355" pt_clust_4="68.51454" pt_clust_5="130.31750" pt_clust_6="14000.00000"></scales>
<clustering>
<clus scale="   68.515">  2  4  1 -1</clus>
<clus scale="   92.304">  2  3  1 -1</clus>
<clus scale="  130.317">  2  5  1 -1</clus>
<clus scale="  130.317">  1  3  2 -1</clus>
</clustering>
</event>
<event>
 6    0  0.6236892E+002  0.1083102E+03  0.7546771E-02  0.1263732E+00
         21   -1    0    0  505  501  0.00000000000E+00  0.00000000000E+00  0.66532640403E+03  0.66532640403E+03  0.00000000000E+00 0.  1.
         21   -1    0    0  503  502 -0.00000000000E+00 -0.00000000000E+00 -0.13551437878E+04  0.13551437878E+04  0.00000000000E+00 0.  1.
         21    1    1    2  503  506  0.18319826985E+02 -0.38213307661E+02 -0.12457905246E+04  0.12465110926E+04  0.00000000000E+00 0.  1.
         21    1    1    2  504  502  0.21205084580E+02 -0.60556398345E+02  0.30453562849E+01  0.64234003359E+02  0.00000000000E+00 0.  1.
         21    1    1    2  505  504  0.33320014875E+02  0.11389677145E+03  0.60652841009E+03  0.61802864836E+03  0.00000000000E+00 0.  1.
         21    1    1    2  506  501 -0.72844926441E+02 -0.15127065445E+02 -0.53600625573E+02  0.91696447472E+02  0.00000000000E+00 0.  1.
<scales pt_clust_3="42.37774" pt_clust_4="108.31018" pt_clust_5="14000.00000" pt_clust_6="72.97031"></scales>
<clustering>
<clus scale="   42.378">  2  3  1 -1</clus>
<clus scale="   72.970">  2  6  1 -1</clus>
<clus scale="  108.310">  2  4  1 -1</clus>
<clus scale="  108.310">  1  3  2 -1</clus>
</clustering>
</event>
<event>
 6    0  0.6132510E+002  0.1200589E+03  0.7546771E-02  0.1243000E+00
         21   -1    0    0  506  501  0.00000000000E+00  0.00000000000E+00  0.38916344566E+03  0.38916344566E+03  0.00000000000E+00 0.  1.
         21   -1    0    0  504  502 -0.00000000000E+00 -0.00000000000E+00 -0.18568272399E+03  0.18568272399E+03  0.00000000000E+00 0. -1.
         21    1    1    2  503  502 -0.73157219359E+02  0.11308319105E+03 -0.13095643391E+03  0.18785466303E+03  0.00000000000E+00 0. -1.
         21    1    1    2  504  501  0.56607240830E+02 -0.14586646877E+02  0.10001750610E+03  0.11584753562E+03  0.00000000000E+00 0.  1.
         21    1    1    2  505  503 -0.10431358248E+02 -0.82846813074E+02  0.87496825555E+02  0.12094669137E+03  0.00000000000E+00 0.  1.
         21    1    1    2  506  505  0.26981336777E+02 -0.15649731098E+02  0.14692282392E+03  0.15019727962E+03  0.00000000000E+00 0.  1.
<scales pt_clust_3="14000.00000" pt_clust_4="72.02804" pt_clust_5="120.05889" pt_clust_6="31.19145"></scales>
<clustering>
<clus scale="   31.191">  1  6  2 -1</clus>
<clus scale="   72.028">  1  4  2 -1</clus>
<clus scale="  120.059">  1  5  2 -1</clus>
<clus scale="   31.191">  1  3  2 -1</clus>
</clustering>
</event>
<event>
 6    0  0.6132510E+002  0.1282452E+03  0.7546771E-02  0.1230083E+00
         21   -1    0    0  504  501  0.00000000000E+00  0.00000000000E+00  0.88181921644E+02  0.88181921644E+02  0.00000000000E+00 0. -1.
         21   -1    0    0  505  502 -0.00000000000E+00 -0.00000000000E+00 -0.23717502699E+04  0.23717502699E+04  0.00000000000E+00 0. -1.
         21    1    1    2  503  502 -0.48855828074E+02 -0.18005809743E+03 -0.17256148021E+04  0.17356711254E+04  0.00000000000E+00 0. -1.
         21    1    1    2  504  503 -0.41099951298E+01  0.82402512348E+02  0.52278699101E+02  0.97673581284E+02  0.00000000000E+00 0. -1.
         21    1    1    2  505  506  0.34372681082E+02  0.53315665288E+02 -0.52425995445E+03  0.52808383918E+03  0.00000000000E+00 0. -1.
         21    1    1    2  506  501  0.18593142122E+02  0.44339919795E+02 -0.85972290837E+02  0.98503645685E+02  0.00000000000E+00 0.  1.
<scales pt_clust_3="128.24522" pt_clust_4="14000.00000" pt_clust_5="64.54058" pt_clust_6="48.08049"></scales>
<clustering>
<clus scale="   48.080">  1  6  2 -1</clus>
<clus scale="   64.541">  2  5  1 -1</clus>
<clus scale="  128.245">  2  3  1 -1</clus>
<clus scale="   48.080">  1  3  2 -1</clus>
</clustering>
</event>
<event>
 6    0  0.6132510E+002  0.1076868E+03  0.7546771E-02  0.1264914E+00
         21   -1    0    0  506  501  0.00000000000E+00  0.00000000000E+00  0.88205555909E+03  0.88205555909E+03  0.00000000000E+00 0.  1.
         21   -1    0    0  505  502 -0.00000000000E+00 -0.00000000000E+00 -0.22763095741E+03  0.22763095741E+03  0.00000000000E+00 0.  1.
         21    1    1    2  503  501 -0.35233856763E+02  0.20809100119E+02  0.83138535162E+02  0.92663149845E+02  0.00000000000E+00 0. -1.
         21    1    1    2  504  502  0.77271900528E+02  0.49538531781E+02  0.47256276076E+02  0.10323840550E+03  0.00000000000E+00 0. -1.
         21    1    1    2  505  503 -0.15428813173E+03 -0.11574502625E+03 -0.14030215258E+03  0.23850876863E+03  0.00000000000E+00 0.  1.
         21    1    1    2  506  504  0.11225008796E+03  0.45397394348E+02  0.66433194303E+03  0.67527619253E+03  0.00000000000E+00 0.  1.
<scales pt_clust_3="40.91996" pt_clust_4="90.10803" pt_clust_5="14000.00000" pt_clust_6="107.68685"></scales>
<clustering>
<clus scale="   40.920">  1  3  2 -1</clus>
<clus scale="   90.108">  2  4  1 -1</clus>
<clus scale="  107.687">  1  6  2 -1</clus>
<clus scale="   40.920">  1  3  2 -1</clus>
</clustering>
</event>
<event>
 6    0  0.6132510E+002  0.1834432E+03  0.7546771E-02  0.1164512E+00
         21   -1    0    0  503  501  0.00000000000E+00  0.00000000000E+00  0.13400032014E+04  0.13400032014E+04  0.00000000000E+00 0.  1.
         21   -1    0    0  504  502 -0.00000000000E+00 -0.00000000000E+00 -0.71532010596E+02  0.71532010596E+02  0.00000000000E+00 0.  1.
         21    1    1    2  503  506  0.21738237095E+02  0.83885462429E+02  0.33757419263E+03  0.34851923517E+03  0.00000000000E+00 0.  1.
         21    1    1    2  504  501 -0.12977787418E+03 -0.11384909010E+03  0.83476479554E+03  0.85242957235E+03  0.00000000000E+00 0.  1.
         21    1    1    2  505  502  0.50116766199E+02 -0.18979863533E+02 -0.31473261206E+02  0.62148947255E+02  0.00000000000E+00 0.  1.
         21    1    1    2  506  505  0.57922870887E+02  0.48943491208E+02  0.12760546387E+03  0.14843745725E+03  0.00000000000E+00 0.  1.
<scales pt_clust_3="79.84281" pt_clust_4="164.52052" pt_clust_5="53.59035" pt_clust_6="79.84281"></scales>
<clustering>
<clus scale="   53.590">  2  5  1 -1</clus>
<clus scale="   79.843">  3  6 -1 -1</clus>
<clus scale="  164.521">  1  4  2 -1</clus>
<clus scale="  164.521">  1  3  2 -1</clus>
</clustering>
</event>
<event>
 6    0  0.6132510E+002  0.1108851E+03  0.7546771E-02  0.1258939E+00
         21   -1    0    0  505  501  0.00000000000E+00  0.00000000000E+00  0.28371290047E+03  0.28371290047E+03  0.00000000000E+00 0.  1.
         21   -1    0    0  503  502 -0.00000000000E+00 -0.00000000000E+00 -0.23641814340E+03  0.23641814340E+03  0.00000000000E+00 0. -1.
         21    1    1    2  503  501  0.81724425593E+02  0.66757410720E+02 -0.30856746977E+02  0.10994349666E+03  0.00000000000E+00 0.  1.
         21    1    1    2  504  502  0.19728130929E+02 -0.66252359988E+02 -0.14463607405E+03  0.16030648231E+03  0.00000000000E+00 0. -1.
         21    1    1    2  505  506 -0.70140133479E+02  0.21765843632E+02  0.16342320469E+03  0.17916621920E+03  0.00000000000E+00 0.  1.
         21    1    1    2  506  504 -0.31312423043E+02 -0.22270894364E+02  0.59364373401E+02  0.70714845697E+02  0.00000000000E+00 0.  1.
<scales pt_clust_3="98.90475" pt_clust_4="69.12723" pt_clust_5="36.26334" pt_clust_6="36.26334"></scales>
<clustering>
<clus scale="   36.263">  5  6 -1 -1</clus>
<clus scale="   69.127">  2  4  1 -1</clus>
<clus scale="   98.905">  2  3  1 -1</clus>
<clus scale="  110.885">  1  3  2 -1</clus>
</clustering>
</event>
<event>
 6    0  0.6132510E+002  0.1653628E+03  0.7546771E-02  0.1182772E+00
         21   -1    0    0  502  501  0.00000000000E+00  0.00000000000E+00  0.12671128149E+03  0.12671128149E+03  0.00000000000E+00 0. -1.
         21   -1    0    0  503  502 -0.00000000000E+00 -0.00000000000E+00 -0.63700367740E+03  0.63700367740E+03  0.00000000000E+00 0. -1.
         21    1    1    2  503  504 -0.28755004038E+02  0.50200653865E+02 -0.29755766169E+03  0.30312953986E+03  0.00000000000E+00 0. -1.
         21    1    1    2  504  506 -0.44783610733E+02  0.87156646601E+02 -0.26869938510E+03  0.28600911243E+03  0.00000000000E+00 0. -1.
         21    1    1    2  505  501  0.19200858010E+02 -0.30957093940E+02 -0.10433697245E+02  0.37892963090E+02  0.00000000000E+00 0. -1.
         21    1    1    2  506  505  0.54337756762E+02 -0.10640020653E+03  0.66398348131E+02  0.13668334351E+03  0.00000000000E+00 0. -1.
<scales pt_clust_3="35.73033" pt_clust_4="162.59554" pt_clust_5="30.59475" pt_clust_6="30.59475"></scales>
<clustering>
<clus scale="   30.595">  5  6 -1 -1</clus>
<clus scale="   35.730">  3  4 -1 -1</clus>
<clus scale="  162.596">  2  3  1 -1</clus>
<clus scale="  165.363">  1  3  2 -1</clus>
</clustering>
</event>
<event>
 6    0  0.6132510E+002  0.1836109E+03  0.7546771E-02  0.1164353E+00
         21   -1    0    0  503  501  0.00000000000E+00  0.00000000000E+00  0.10011588115E+03  0.10011588115E+03  0.00000000000E+00 0.  1.
         21   -1    0    0  506  502 -0.00000000000E+00 -0.00000000000E+00 -0.14851832983E+04  0.14851832983E+04  0.00000000000E+00 0.  1.
         21    1    1    2  503  504  0.75782165919E+02 -0.63999740975E+02 -0.83868001145E+02  0.12989513129E+03  0.00000000000E+00 0. -1.
         21    1    1    2  504  505  0.11663159583E+02 -0.87835533837E+02 -0.57832600134E+03  0.58507441759E+03  0.00000000000E+00 0. -1.
         21    1    1    2  505  502 -0.34106920971E+02 -0.83568124199E+02 -0.58588082522E+03  0.59279275873E+03  0.00000000000E+00 0.  1.
         21    1    1    2  506  501 -0.53338404531E+02  0.23540339901E+03 -0.13699258944E+03  0.27753687183E+03  0.00000000000E+00 0.  1.
<scales pt_clust_3="99.19125" pt_clust_4="45.51860" pt_clust_5="45.51860" pt_clust_6="177.77048"></scales>
<clustering>
<clus scale="   45.519">  4  5 -1 -1</clus>
<clus scale="   99.191">  1  3  2 -1</clus>
<clus scale="  177.770">  1  6  2 -1</clus>
<clus scale="   99.191">  1  3  2 -1</clus>
</clustering>
</event>
<event>
 6    0  0.6132510E+002  0.7956524E+02  0.7546771E-02  0.1330290E+00
         21   -1    0    0  505  501  0.00000000000E+00  0.00000000000E+00  0.11336883580E+04  0.11336883580E+04  0.00000000000E+00 0.  1.
         21   -1    0    0  504  502 -0.00000000000E+00 -0.00000000000E+00 -0.41430614378E+02  0.41430614378E+02  0.00000000000E+00 0. -1.
         21    1    1    2  503  502  0.45101025253E+02 -0.29265247323E+02  0.37037760466E+02  0.65286697573E+02  0.00000000000E+00 0. -1.
         21    1    1    2  504  506  0.51852632160E+02  0.30135838341E+02  0.92763364038E+02  0.11046223754E+03  0.00000000000E+00 0. -1.
         21    1    1    2  505  503  0.30691621243E+02 -0.67875780121E+02  0.66134327678E+03  0.66552537659E+03  0.00000000000E+00 0.  1.
         21    1    1    2  506  501 -0.12764527866E+03  0.67005189103E+02  0.30111334236E+03  0.33384466070E+03  0.00000000000E+00 0. -1.
<scales pt_clust_3="53.76390" pt_clust_4="69.60332" pt_clust_5="14000.00000" pt_clust_6="79.56524"></scales>
<clustering>
<clus scale="   53.764">  2  3  1 -1</clus>
<clus scale="   69.603">  2  4  1 -1</clus>
<clus scale="   79.565">  2  6  1 -1</clus>
<clus scale="   79.565">  1  3  2 -1</clus>
</clustering>
</event>
<event>
 6    0  0.6132510E+002  0.8646438E+02  0.7546771E-02  0.1311647E+00
         21   -1    0    0  503  501  0.00000000000E+00  0.00000000000E+00  0.86937556396E+02  0.86937556396E+02  0.00000000000E+00 0. -1.
         21   -1    0    0  504  502 -0.00000000000E+00 -0.00000000000E+00 -0.12738033918E+04  0.12738033918E+04  0.00000000000E+00 0.  1.
         21    1    1    2  503  506 -0.25112276935E+02 -0.31301944123E+02 -0.53383299429E+01  0.40483773605E+02  0.00000000000E+00 0. -1.
         21    1    1    2  504  501  0.82009485968E+02 -0.75428035869E+02 -0.12346146494E+03  0.16630597617E+03  0.00000000000E+00 0. -1.
         21    1    1    2  505  502 -0.86075594040E+01  0.42682561359E+02 -0.10717039392E+04  0.10725880963E+04  0.00000000000E+00 0.  1.
         21    1    1    2  506  505 -0.48289649629E+02  0.64047418634E+02  0.13637898703E+02  0.81363102055E+02  0.00000000000E+00 0. -1.
<scales pt_clust_3="40.13026" pt_clust_4="86.46438" pt_clust_5="43.37836" pt_clust_6="14000.00000"></scales>
<clustering>
<clus scale="   40.130">  1  3  2 -1</clus>
<clus scale="   43.378">  2  5  1 -1</clus>
<clus scale="   86.464">  2  4  1 -1</clus>
<clus scale="   40.130">  1  3  2 -1</clus>
</clustering>
</event>
<event>
 6    0  0.6132510E+002  0.1078286E+03  0.7546771E-02  0.1264645E+00
         21   -1    0    0  504  501  0.00000000000E+00  0.00000000000E+00  0.59629522490E+02  0.59629522490E+02  0.00000000000E+00 0.  1.
         21   -1    0    0  505  502 -0.00000000000E+00 -0.00000000000E+00 -0.20003720776E+04  0.20003720776E+04  0.00000000000E+00 0. -1.
         21    1    1    2  503  501 -0.25924450714E+02 -0.30916981758E+02  0.20298180076E+02  0.45165839085E+02  0.00000000000E+00 0.  1.
         21    1    1    2  504  502  0.27804641640E+02  0.16079278092E+02 -0.20254562663E+03  0.20507650316E+03  0.00000000000E+00 0.  1.
         21    1    1    2  505  506 -0.17072228936E+02  0.95807429149E+02 -0.17127804522E+04  0.17155428884E+04  0.00000000000E+00 0. -1.
         21    1    1    2  506  503  0.15192038009E+02 -0.80969725482E+02 -0.45714656318E+02  0.94216369416E+02  0.00000000000E+00 0.  1.
<scales pt_clust_3="40.13886" pt_clust_4="32.11917" pt_clust_5="107.82864" pt_clust_6="14000.00000"></scales>
<clustering>
<clus scale="   32.119">  2  4  1 -1</clus>
<clus scale="   40.139">  1  3  2 -1</clus>
<clus scale="  107.829">  2  5  1 -1</clus>
<clus scale="   40.139">  1  3  2 -1</clus>
</clustering>
</event>
<event>
 6    0  0.6132510E+002  0.1336785E+03  0.7546771E-02  0.1222097E+00
         21   -1    0    0  505  501  0.00000000000E+00  0.00000000000E+00  0.87846891414E+03  0.87846891414E+03  0.00000000000E+00 0. -1.
         21   -1    0    0  501  502 -0.00000000000E+00 -0.00000000000E+00 -0.16245184895E+03  0.16245184895E+03  0.00000000000E+00 0. -1.
         21    1    1    2  503  506  0.15998974509E+03  0.21513915884E+02  0.30568159364E+03  0.34568888295E+03  0.00000000000E+00 0. -1.
         21    1    1    2  504  503 -0.59645355057E+02 -0.92488731191E+01  0.18554422662E+03  0.19511476127E+03  0.00000000000E+00 0.  1.
         21    1    1    2  505  504 -0.52728802008E+02 -0.12587224060E+02  0.35622370853E+03  0.36032498565E+03  0.00000000000E+00 0. -1.
         21    1    1    2  506  502 -0.47615588022E+02  0.32218129423E+00 -0.13143246358E+03  0.13979213321E+03  0.00000000000E+00 0. -1.
<scales pt_clust_3="126.38786" pt_clust_4="41.26654" pt_clust_5="41.26654" pt_clust_6="47.61668"></scales>
<clustering>
<clus scale="   41.267">  4  5 -1 -1</clus>
<clus scale="   47.617">  2  6  1 -1</clus>
<clus scale="  126.388">  2  3  1 -1</clus>
<clus scale="  133.679">  1  3  2 -1</clus>
</clustering>
</event>
<event>
 6    0  0.6132510E+002  0.8268812E+02  0.7546771E-02  0.1321592E+00
         21   -1    0    0  505  501  0.00000000000E+00  0.00000000000E+00  0.24906228593E+04  0.24906228593E+04  0.00000000000E+00 0.  1.
         21   -1    0    0  506  502 -0.00000000000E+00 -0.00000000000E+00 -0.23976262644E+02  0.23976262644E+02  0.00000000000E+00 0.  1.
         21    1    1    2  503  504  0.78046538762E+02 -0.22554762478E+02  0.34788493307E+03  0.35724488265E+03  0.00000000000E+00 0.  1.
         21    1    1    2  504  502 -0.52266882669E+01 -0.68995026161E+02  0.11678198138E+03  0.13574116207E+03  0.00000000000E+00 0.  1.
         21    1    1    2  505  503 -0.66458082091E+02  0.51177639086E+02  0.19640937048E+04  0.19658840019E+04  0.00000000000E+00 0.  1.
         21    1    1    2  506  501 -0.63617684035E+01  0.40372149553E+02  0.37885977314E+02  0.55729075300E+02  0.00000000000E+00 0.  1.
<scales pt_clust_3="14000.00000" pt_clust_4="44.54103" pt_clust_5="82.68812" pt_clust_6="40.87031"></scales>
<clustering>
<clus scale="   40.870">  2  6  1 -1</clus>
<clus scale="   44.541">  2  4  1 -1</clus>
<clus scale="   82.688">  1  5  2 -1</clus>
<clus scale="   82.688">  1  3  2 -1</clus>
</clustering>
</event>
<event>
 6    0  0.6132510E+002  0.1351667E+03  0.7546771E-02  0.1219985E+00
         21   -1    0    0  506  501  0.00000000000E+00  0.00000000000E+00  0.35928635057E+03  0.35928635057E+03  0.00000000000E+00 0.  1.
         21   -1    0    0  505  502 -0.00000000000E+00 -0.00000000000E+00 -0.38898595149E+03  0.38898595149E+03  0.00000000000E+00 0.  1.
         21    1    1    2  503  504 -0.10905760663E+03  0.27053816172E+02  0.25224886565E+03  0.27614300779E+03  0.00000000000E+00 0.  1.
         21    1    1    2  504  501 -0.10945109234E+01  0.54637914439E+02  0.62948773354E+02  0.83360948382E+02  0.00000000000E+00 0.  1.
         21    1    1    2  505  503 -0.23281089699E+02 -0.23585274166E+02 -0.51196010871E+02  0.60986111732E+02  0.00000000000E+00 0.  1.
         21    1    1    2  506  502  0.13343320725E+03 -0.58106456445E+02 -0.29370122905E+03  0.32778223415E+03  0.00000000000E+00 0.  1.
<scales pt_clust_3="14000.00000" pt_clust_4="53.94514" pt_clust_5="33.14022" pt_clust_6="135.16665"></scales>
<clustering>
<clus scale="   33.140">  2  5  1 -1</clus>
<clus scale="   53.945">  1  4  2 -1</clus>
<clus scale="  135.167">  2  6  1 -1</clus>
<clus scale="   53.945">  1  3  2 -1</clus>
</clustering>
</event>
<event>
 6    0  0.6132510E+002  0.1586262E+03  0.7546771E-02  0.1190257E+00
         21   -1    0    0  506  501  0.00000000000E+00  0.00000000000E+00  0.13780323535E+03  0.13780323535E+03  0.00000000000E+00 0. -1.
         21   -1    0    0  503  502 -0.00000000000E+00 -0.00000000000E+00 -0.10459393648E+04  0.10459393648E+04  0.00000000000E+00 0. -1.
         21    1    1    2  503  501  0.23582541429E+02  0.49267960239E+02 -0.84874204993E+02  0.10093115891E+03  0.00000000000E+00 0. -1.
         21    1    1    2  504  502 -0.16517363797E+02  0.33073052118E+02 -0.69770890661E+03  0.69868760433E+03  0.00000000000E+00 0. -1.
         21    1    1    2  505  504 -0.12020788299E+03 -0.16846352085E+03 -0.12530509851E+03  0.24193234736E+03  0.00000000000E+00 0. -1.
         21    1    1    2  506  505  0.11314270536E+03  0.86122508490E+02 -0.24791937717E+00  0.14219148958E+03  0.00000000000E+00 0. -1.
<scales pt_clust_3="61.18438" pt_clust_4="36.96823" pt_clust_5="158.62623" pt_clust_6="14000.00000"></scales>
<clustering>
<clus scale="   36.968">  2  4  1 -1</clus>
<clus scale="   61.184">  2  3  1 -1</clus>
<clus scale="  158.626">  2  5  1 -1</clus>
<clus scale="  158.626">  1  3  2 -1</clus>
</clustering>
</event>
<event>
 6    0  0.6132510E+002  0.1201416E+03  0.7546771E-02  0.1242864E+00
         21   -1    0    0  504  501  0.00000000000E+00  0.00000000000E+00  0.13716850893E+03  0.13716850893E+03  0.00000000000E+00 0. -1.
         21   -1    0    0  506  502 -0.00000000000E+00 -0.00000000000E+00 -0.48100545746E+03  0.48100545746E+03  0.00000000000E+00 0. -1.
         21    1    1    2  503  501  0.53769256353E+02  0.62425837252E+01  0.50317493542E+02  0.73905026464E+02  0.00000000000E+00 0. -1.
         21    1    1    2  504  502  0.25649178757E+02  0.35308566510E+02 -0.21108961894E+01  0.43692460707E+02  0.00000000000E+00 0. -1.
         21    1    1    2  505  503 -0.39801500701E+02 -0.15090894409E+03 -0.97806206898E+02  0.18418393788E+03  0.00000000000E+00 0. -1.
         21    1    1    2  506  505 -0.39616934409E+02  0.10935779385E+03 -0.29423733898E+03  0.31639254135E+03  0.00000000000E+00 0. -1.
<scales pt_clust_3="71.97207" pt_clust_4="43.64144" pt_clust_5="14000.00000" pt_clust_6="120.14160"></scales>
<clustering>
<clus scale="   43.641">  1  4  2 -1</clus>
<clus scale="   71.972">  1  3  2 -1</clus>
<clus scale="  120.142">  2  6  1 -1</clus>
<clus scale="   43.641">  1  3  2 -1</clus>
</clustering>
</event>
<event>
 6    0  0.6132510E+002  0.1068331E+03  0.7546771E-02  0.1266549E+00
         21   -1    0    0  505  501  0.00000000000E+00  0.00000000000E+00  0.21475032631E+03  0.21475032631E+03  0.00000000000E+00 0.  1.
         21   -1    0    0  501  502 -0.00000000000E+00 -0.00000000000E+00 -0.49316705441E+03  0.49316705441E+03  0.00000000000E+00 0.  1.
         21    1    1    2  503  504  0.56708825501E+02  0.68168608036E+02 -0.48014846131E+02  0.10083786719E+03  0.00000000000E+00 0.  1.
         21    1    1    2  504  502 -0.36967477124E+02  0.51526304180E+02 -0.34474482194E+03  0.35052895264E+03  0.00000000000E+00 0.  1.
         21    1    1    2  505  506 -0.47676061365E+02  0.28458603092E+02 -0.15428267644E+02  0.57627513913E+02  0.00000000000E+00 0.  1.
         21    1    1    2  506  503  0.27934712988E+02 -0.14815351531E+03  0.12977120762E+03  0.19892304697E+03  0.00000000000E+00 0.  1.
<scales pt_clust_3="106.83315" pt_clust_4="64.17697" pt_clust_5="55.52386" pt_clust_6="14000.00000"></scales>
<clustering>
<clus scale="   55.524">  1  5  2 -1</clus>
<clus scale="   64.177">  2  4  1 -1</clus>
<clus scale="  106.833">  2  3  1 -1</clus>
<clus scale="   55.524">  1  3  2 -1</clus>
</clustering>
</event>
<event>
 6    0  0.6132510E+002  0.1280275E+03  0.7546771E-02  0.1230412E+00
         21   -1    0    0  504  501  0.00000000000E+00  0.00000000000E+00  0.32169174467E+02  0.32169174467E+02  0.00000000000E+00 0. -1.
         21   -1    0    0  506  502 -0.00000000000E+00 -0.00000000000E+00 -0.16516689916E+04  0.16516689916E+04  0.00000000000E+00 0. -1.
         21    1    1    2  503  501  0.68594087511E+02  0.30120723201E+02 -0.51216529229E+02  0.90749874236E+02  0.00000000000E+00 0. -1.
         21    1    1    2  504  502 -0.32381187721E+02 -0.79862330993E+02 -0.35048915900E+03  0.36092822528E+03  0.00000000000E+00 0.  1.
         21    1    1    2  505  503  0.45989900825E+02  0.17248286486E+02 -0.10565901634E+03  0.11651781881E+03  0.00000000000E+00 0.  1.
         21    1    1    2  506  505 -0.82202800614E+02  0.32493321306E+02 -0.11121351126E+04  0.11156422478E+04  0.00000000000E+00 0. -1.
<scales pt_clust_3="44.17703" pt_clust_4="86.17734" pt_clust_5="44.17703" pt_clust_6="115.82049"></scales>
<clustering>
<clus scale="   44.177">  3  5 -1 -1</clus>
<clus scale="   86.177">  2  4  1 -1</clus>
<clus scale="  115.820">  2  6  1 -1</clus>
<clus scale="  128.027">  1  3  2 -1</clus>
</clustering>
</event>
<event>
 6    0  0.6132510E+002  0.2125243E+03  0.7546771E-02  0.1139582E+00
         21   -1    0    0  505  501  0.00000000000E+00  0.00000000000E+00  0.75175703416E+02  0.75175703416E+02  0.00000000000E+00 0. -1.
         21   -1    0    0  506  502 -0.00000000000E+00 -0.00000000000E+00 -0.14111718926E+04  0.14111718926E+04  0.00000000000E+00 0. -1.
         21    1    1    2  503  504 -0.36568603335E+02  0.22141192927E+02 -0.14516615843E+02  0.45146730885E+02  0.00000000000E+00 0. -1.
         21    1    1    2  504  502 -0.16766677842E+03 -0.76053736421E+02 -0.51933413453E+03  0.55100296070E+03  0.00000000000E+00 0. -1.
         21    1    1    2  505  503 -0.32234555488E+02 -0.15019274948E+02  0.13602430183E+02  0.38074549168E+02  0.00000000000E+00 0. -1.
         21    1    1    2  506  501  0.23646993725E+03  0.68931818443E+02 -0.81574786894E+03  0.85212335521E+03  0.00000000000E+00 0. -1.
<scales pt_clust_3="49.74655" pt_clust_4="14000.00000" pt_clust_5="35.56185" pt_clust_6="212.52432"></scales>
<clustering>
<clus scale="   35.562">  1  5  2 -1</clus>
<clus scale="   49.747">  1  3  2 -1</clus>
<clus scale="  212.524">  1  6  2 -1</clus>
<clus scale="   35.562">  1  3  2 -1</clus>
</clustering>
</event>
<event>
 6    0  0.6132510E+002  0.1569195E+03  0.7546771E-02  0.1192219E+00
         21   -1    0    0  502  501  0.00000000000E+00  0.00000000000E+00  0.14867121772E+03  0.14867121772E+03  0.00000000000E+00 0.  1.
         21   -1    0    0  503  502 -0.00000000000E+00 -0.00000000000E+00 -0.20456175944E+04  0.20456175944E+04  0.00000000000E+00 0. -1.
         21    1    1    2  503  504  0.58238416911E+02 -0.64918687923E+02 -0.14704686302E+04  0.14730526609E+04  0.00000000000E+00 0. -1.
         21    1    1    2  504  506  0.78510188199E+02  0.11053141384E+03 -0.51941493971E+03  0.53681740163E+03  0.00000000000E+00 0. -1.
         21    1    1    2  505  501 -0.72390191650E+02 -0.56805369765E+02  0.68330714481E+02  0.11461359615E+03  0.00000000000E+00 0.  1.
         21    1    1    2  506  505 -0.64358413460E+02  0.11192643845E+02  0.24606478733E+02  0.69805153499E+02  0.00000000000E+00 0.  1.
<scales pt_clust_3="87.21324" pt_clust_4="141.53263" pt_clust_5="57.09733" pt_clust_6="57.09733"></scales>
<clustering>
<clus scale="   57.097">  5  6 -1 -1</clus>
<clus scale="   87.213">  2  3  1 -1</clus>
<clus scale="  141.533">  2  4  1 -1</clus>
<clus scale="  156.920">  1  3  2 -1</clus>
</clustering>
</event>
<event>
 6    0  0.6132510E+002  0.1175821E+03  0.7546771E-02  0.1247140E+00
         21   -1    0    0  506  501  0.00000000000E+00  0.00000000000E+00  0.41655633005E+02  0.41655633005E+02  0.00000000000E+00 0.  1.
         21   -1    0    0  505  502 -0.00000000000E+00 -0.00000000000E+00 -0.11490813974E+04  0.11490813974E+04  0.00000000000E+00 0. -1.
         21    1    1    2  503  501  0.34193055043E+02 -0.10297669726E+03 -0.69933936232E+02  0.12908958373E+03  0.00000000000E+00 0.  1.
         21    1    1    2  504  502 -0.39370211674E+02  0.56782488784E+02 -0.26181824293E+03  0.27078230543E+03  0.00000000000E+00 0. -1.
         21    1    1    2  505  503  0.25539617564E+02  0.78616009160E+02 -0.71039199168E+03  0.71518496266E+03  0.00000000000E+00 0. -1.
         21    1    1    2  506  504 -0.20362460933E+02 -0.32421800689E+02 -0.65281593523E+02  0.75680178568E+02  0.00000000000E+00 0.  1.
<scales pt_clust_3="117.58209" pt_clust_4="67.38596" pt_clust_5="14000.00000" pt_clust_6="38.28581"></scales>
<clustering>
<clus scale="   38.286">  1  6  2 -1</clus>
<clus scale="   67.386">  2  4  1 -1</clus>
<clus scale="  117.582">  1  3  2 -1</clus>
<clus scale="   38.286">  1  3  2 -1</clus>
</clustering>
</event>
<event>
 6    0  0.6132510E+002  0.1129539E+03  0.7546771E-02  0.1255196E+00
         21   -1    0    0  503  501  0.00000000000E+00  0.00000000000E+00  0.76024303709E+03  0.76024303709E+03  0.00000000000E+00 0. -1.
         21   -1    0    0  504  502 -0.00000000000E+00 -0.00000000000E+00 -0.42474722921E+03  0.42474722921E+03  0.00000000000E+00 0. -1.
         21    1    1    2  503  502  0.43364424206E+02  0.43753510207E+01  0.62962914424E+02  0.76576403520E+02  0.00000000000E+00 0.  1.
         21    1    1    2  504  506 -0.51939278208E+02 -0.49503712305E+02 -0.18359687577E+03  0.19711955496E+03  0.00000000000E+00 0. -1.
         21    1    1    2  505  501  0.58688259402E+02 -0.57735633997E+02  0.66663607591E+03  0.67170035948E+03  0.00000000000E+00 0. -1.
         21    1    1    2  506  505 -0.50113405399E+02  0.10286399528E+03 -0.21050630669E+03  0.23959394834E+03  0.00000000000E+00 0. -1.
<scales pt_clust_3="43.58460" pt_clust_4="71.41523" pt_clust_5="112.95387" pt_clust_6="14000.00000"></scales>
<clustering>
<clus scale="   43.585">  1  3  2 -1</clus>
<clus scale="   71.415">  2  4  1 -1</clus>
<clus scale="  112.954">  1  5  2 -1</clus>
<clus scale="   43.585">  1  3  2 -1</clus>
</clustering>
</event>
<event>
 6    0  0.6132510E+002  0.1254746E+03  0.7546771E-02  0.1234330E+00
         21   -1    0    0  506  501  0.00000000000E+00  0.00000000000E+00  0.14889825336E+04  0.14889825336E+04  0.00000000000E+00 0. -1.
         21   -1    0    0  503  502 -0.00000000000E+00 -0.00000000000E+00 -0.21225734852E+02  0.21225734852E+02  0.00000000000E+00 0. -1.
         21    1    1    2  503  504 -0.69226351462E+02 -0.58863103946E+02  0.44345530373E+03  0.45266959159E+03  0.00000000000E+00 0. -1.
         21    1    1    2  504  505 -0.15118207575E+02 -0.36713019204E+02  0.10085678485E+03  0.10839048404E+03  0.00000000000E+00 0. -1.
         21    1    1    2  505  501  0.39393576638E+02  0.10660956432E+03  0.87423299537E+03  0.88158991787E+03  0.00000000000E+00 0. -1.
         21    1    1    2  506  502  0.44950982399E+02 -0.11033441173E+02  0.49211714799E+02  0.67558274965E+02  0.00000000000E+00 0. -1.
<scales pt_clust_3="31.45167" pt_clust_4="31.45167" pt_clust_5="116.10299" pt_clust_6="46.28529"></scales>
<clustering>
<clus scale="   31.452">  3  4 -1 -1</clus>
<clus scale="   46.285">  2  6  1 -1</clus>
<clus scale="  116.103">  1  5  2 -1</clus>
<clus scale="  116.103">  1  3  2 -1</clus>
</clustering>
</event>
<event>
 6    0  0.6132510E+002  0.1752767E+03  0.7546771E-02  0.1172454E+00
         21   -1    0    0  506  501  0.00000000000E+00  0.00000000000E+00  0.14297657873E+03  0.14297657873E+03  0.00000000000E+00 0. -1.
         21   -1    0    0  504  502 -0.00000000000E+00 -0.00000000000E+00 -0.37324448786E+03  0.37324448786E+03  0.00000000000E+00 0. -1.
         21    1    1    2  503  501 -0.40118900703E+02  0.87163033061E+02 -0.46309477975E+02  0.10654336336E+03  0.00000000000E+00 0. -1.
         21    1    1    2  504  505  0.10400095495E+03 -0.15573239436E+03 -0.40459672907E+02  0.19158747980E+03  0.00000000000E+00 0. -1.
         21    1    1    2  505  503 -0.28916823457E+02  0.47061019314E+02  0.12625090662E+02  0.56659642886E+02  0.00000000000E+00 0. -1.
         21    1    1    2  506  502 -0.34965230787E+02  0.21508341989E+02 -0.15612384890E+03  0.16143058055E+03  0.00000000000E+00 0. -1.
<scales pt_clust_3="39.55927" pt_clust_4="167.34206" pt_clust_5="39.55927" pt_clust_6="41.05090"></scales>
<clustering>
<clus scale="   39.559">  3  5 -1 -1</clus>
<clus scale="   41.051">  2  6  1 -1</clus>
<clus scale="  167.342">  2  4  1 -1</clus>
<clus scale="  175.277">  1  3  2 -1</clus>
</clustering>
</event>
<event>
 6    0  0.6132510E+002  0.1319924E+03  0.7546771E-02  0.1224529E+00
         21   -1    0    0  503  501  0.00000000000E+00  0.00000000000E+00  0.74431340149E+03  0.74431340149E+03  0.00000000000E+00 0.  1.
         21   -1    0    0  506  502 -0.00000000000E+00 -0.00000000000E+00 -0.14344140454E+04  0.14344140454E+04  0.00000000000E+00 0.  1.
         21    1    1    2  503  502 -0.11231589671E+03 -0.17301934502E+03  0.27071185574E+03  0.34034609333E+03  0.00000000000E+00 0.  1.
         21    1    1    2  504  505  0.15110969573E+02  0.79978904951E+02  0.64070126034E+02  0.10358546080E+03  0.00000000000E+00 0.  1.
         21    1    1    2  505  501  0.64017030259E+02  0.92942331861E+02  0.34578025531E+03  0.36373127742E+03  0.00000000000E+00 0.  1.
         21    1    1    2  506  504  0.33187896874E+02  0.98108206407E-01 -0.13706628809E+04  0.13710646153E+04  0.00000000000E+00 0.  1.
<scales pt_clust_3="14000.00000" pt_clust_4="83.95320" pt_clust_5="131.99242" pt_clust_6="33.18804"></scales>
<clustering>
<clus scale="   33.188">  2  6  1 -1</clus>
<clus scale="   83.953">  2  4  1 -1</clus>
<clus scale="  131.992">  1  5  2 -1</clus>
<clus scale="  131.992">  1  3  2 -1</clus>
</clustering>
</event>
<event>
 6    0  0.6132510E+002  0.9889208E+02  0.7546771E-02  0.1282643E+00
         21   -1    0    0  503  501  0.00000000000E+00  0.00000000000E+00  0.29743247390E+03  0.29743247390E+03  0.00000000000E+00 0.  1.
         21   -1    0    0  506  502 -0.00000000000E+00 -0.00000000000E+00 -0.12285399379E+03  0.12285399379E+03  0.00000000000E+00 0. -1.
         21    1    1    2  503  505 -0.69285310172E+02 -0.28129332682E+02  0.98626790739E+02  0.12376977585E+03  0.00000000000E+00 0.  1.
         21    1    1    2  504  501 -0.94239006136E+01 -0.50163854413E+02  0.11137910285E+03  0.12251745486E+03  0.00000000000E+00 0.  1.
         21    1    1    2  505  502 -0.31469126841E+02  0.30660076358E+02  0.11012372497E+02  0.45294796328E+02  0.00000000000E+00 0. -1.
         21    1    1    2  506  504  0.11017833763E+03  0.47633110737E+02 -0.46439785979E+02  0.12870444065E+03  0.00000000000E+00 0. -1.
<scales pt_clust_3="98.89208" pt_clust_4="49.79732" pt_clust_5="43.93571" pt_clust_6="14000.00000"></scales>
<clustering>
<clus scale="   43.936">  2  5  1 -1</clus>
<clus scale="   49.797">  1  4  2 -1</clus>
<clus scale="   98.892">  1  3  2 -1</clus>
<clus scale="   49.797">  1  3  2 -1</clus>
</clustering>
</event>
<event>
 6    0  0.6132510E+002  0.1534123E+03  0.7546771E-02  0.1196342E+00
         21   -1    0    0  505  501  0.00000000000E+00  0.00000000000E+00  0.33619309485E+03  0.33619309485E+03  0.00000000000E+00 0.  1.
         21   -1    0    0  503  502 -0.00000000000E+00 -0.00000000000E+00 -0.22962008514E+03  0.22962008514E+03  0.00000000000E+00 0.  1.
         21    1    1    2  503  506  0.90259290319E+02  0.70761390363E+01 -0.69665314663E+02  0.11423689115E+03  0.00000000000E+00 0.  1.
         21    1    1    2  504  501 -0.71512956738E+02  0.60343469280E+01  0.65388277450E+02  0.97088326550E+02  0.00000000000E+00 0.  1.
         21    1    1    2  505  502 -0.66897632935E+02  0.29458133869E+02  0.21778540662E+03  0.22972496225E+03  0.00000000000E+00 0.  1.
         21    1    1    2  506  504  0.48151299355E+02 -0.42568619833E+02 -0.10693535970E+03  0.12476300003E+03  0.00000000000E+00 0.  1.
<scales pt_clust_3="62.57528" pt_clust_4="71.76710" pt_clust_5="134.23630" pt_clust_6="62.57528"></scales>
<clustering>
<clus scale="   62.575">  3  6 -1 -1</clus>
<clus scale="   71.767">  1  4  2 -1</clus>
<clus scale="  134.236">  1  5  2 -1</clus>
<clus scale="   71.767">  1  3  2 -1</clus>
</clustering>
</event>
<event>
 6    0  0.6132510E+002  0.1960207E+03  0.7546771E-02  0.1153140E+00
         21   -1    0    0  503  501  0.00000000000E+00  0.00000000000E+00  0.18507647482E+04  0.18507647482E+04  0.00000000000E+00 0.  1.
         21   -1    0    0  504  502 -0.00000000000E+00 -0.00000000000E+00 -0.51093207233E+03  0.51093207233E+03  0.00000000000E+00 0. -1.
         21    1    1    2  503  505  0.65479319570E+02 -0.27569541585E+02  0.95348025699E+03  0.95612353877E+03  0.00000000000E+00 0.  1.
         21    1    1    2  504  501 -0.28986289417E+02  0.13087826156E+03  0.56970632481E+02  0.14565362093E+03  0.00000000000E+00 0.  1.
         21    1    1    2  505  506  0.14576087273E+03 -0.25930651676E+02  0.76617332715E+03  0.78034620391E+03  0.00000000000E+00 0.  1.
         21    1    1    2  506  502 -0.18225390288E+03 -0.77378068300E+02 -0.43679154072E+03  0.47957345696E+03  0.00000000000E+00 0. -1.
<scales pt_clust_3="71.04661" pt_clust_4="129.57087" pt_clust_5="14000.00000" pt_clust_6="196.02069"></scales>
<clustering>
<clus scale="   71.047">  1  3  2 -1</clus>
<clus scale="  129.571">  1  4  2 -1</clus>
<clus scale="  196.021">  2  6  1 -1</clus>
<clus scale="   71.047">  1  3  2 -1</clus>
</clustering>
</event>
<event>
 6    0  0.6132510E+002  0.1759463E+03  0.7546771E-02  0.1171785E+00
         21   -1    0    0  504  501  0.00000000000E+00  0.00000000000E+00  0.15642701933E+04  0.15642701933E+04  0.00000000000E+00 0. -1.
         21   -1    0    0  505  502 -0.00000000000E+00 -0.00000000000E+00 -0.40660318014E+02  0.40660318014E+02  0.00000000000E+00 0.  1.
         21    1    1    2  503  501 -0.95766330770E+01  0.46424663976E+02  0.45276076737E+03  0.45523540482E+03  0.00000000000E+00 0. -1.
         21    1    1    2  504  502 -0.69875976523E+02 -0.13853106179E+03  0.24251443319E+03  0.28790060347E+03  0.00000000000E+00 0.  1.
         21    1    1    2  505  506  0.35726277364E+02 -0.29889034401E+02  0.35837728959E+02  0.58771286260E+02  0.00000000000E+00 0.  1.
         21    1    1    2  506  503  0.43726332236E+02  0.12199543222E+03  0.79249694575E+03  0.80302321675E+03  0.00000000000E+00 0. -1.
<scales pt_clust_3="33.21645" pt_clust_4="167.15459" pt_clust_5="46.58027" pt_clust_6="33.21645"></scales>
<clustering>
<clus scale="   33.216">  3  6 -1 -1</clus>
<clus scale="   46.580">  2  5  1 -1</clus>
<clus scale="  167.155">  2  4  1 -1</clus>
<clus scale="  175.946">  1  3  2 -1</clus>
</clustering>
</event>
<event>
 6    0  0.6132510E+002  0.8028782E+02  0.7546771E-02  0.1328237E+00
         21   -1    0    0  506  501  0.00000000000E+00  0.00000000000E+00  0.93008312945E+03  0.93008312945E+03  0.00000000000E+00 0.  1.
         21   -1    0    0  504  502 -0.00000000000E+00 -0.00000000000E+00 -0.18183831050E+03  0.18183831050E+03  0.00000000000E+00 0. -1.
         21    1    1    2  503  505 -0.51502657534E+02  0.72992067126E+02 -0.15654913911E+02  0.90694222120E+02  0.00000000000E+00 0.  1.
         21    1    1    2  504  501 -0.71422292714E+02 -0.78022278306E+02  0.33539138837E+03  0.35167599179E+03  0.00000000000E+00 0.  1.
         21    1    1    2  505  502  0.60513881109E+02 -0.33479812257E+02 -0.10789562564E+03  0.12815730048E+03  0.00000000000E+00 0. -1.
         21    1    1    2  506  503  0.62411069140E+02  0.38510023437E+02  0.53640397013E+03  0.54139392556E+03  0.00000000000E+00 0.  1.
<scales pt_clust_3="45.10610" pt_clust_4="14000.00000" pt_clust_5="69.15799" pt_clust_6="80.28782"></scales>
<clustering>
<clus scale="   69.158">  2  5  1 -1</clus>
<clus scale="   45.106">  2  3  1 -1</clus>
<clus scale="   80.288">  1  6  2 -1</clus>
<clus scale="   80.288">  1  3  2 -1</clus>
</clustering>
</event>
<event>
 6    0  0.6132510E+002  0.1621016E+03  0.7546771E-02  0.1186344E+00
         21   -1    0    0  504  501  0.00000000000E+00  0.00000000000E+00  0.13420077555E+03  0.13420077555E+03  0.00000000000E+00 0.  1.
         21   -1    0    0  506  502 -0.00000000000E+00 -0.00000000000E+00 -0.26466794599E+04  0.26466794599E+04  0.00000000000E+00 0. -1.
         21    1    1    2  503  502  0.31589228253E+02  0.12257258206E+03 -0.84319376202E+02  0.15209100702E+03  0.00000000000E+00 0.  1.
         21    1    1    2  504  503 -0.32587782044E+02  0.28071886305E+02  0.51468918887E+02  0.67074912976E+02  0.00000000000E+00 0.  1.
         21    1    1    2  505  501  0.51424205730E+02  0.64270347001E+01  0.20805466679E+02  0.55844634064E+02  0.00000000000E+00 0.  1.
         21    1    1    2  506  505 -0.50425651938E+02 -0.15707150306E+03 -0.25004336937E+04  0.25058696814E+04  0.00000000000E+00 0. -1.
<scales pt_clust_3="14000.00000" pt_clust_4="43.01156" pt_clust_5="40.49708" pt_clust_6="162.10158"></scales>
<clustering>
<clus scale="   43.012">  1  4  2 -1</clus>
<clus scale="   40.497">  1  5  2 -1</clus>
<clus scale="  162.102">  2  6  1 -1</clus>
<clus scale="   43.012">  1  3  2 -1</clus>
</clustering>
</event>
<event>
 6    0  0.6132510E+002  0.1353033E+03  0.7546771E-02  0.1219792E+00
         21   -1    0    0  504  501  0.00000000000E+00  0.00000000000E+00  0.37476419746E+04  0.37476419746E+04  0.00000000000E+00 0.  1.
         21   -1    0    0  506  502 -0.00000000000E+00 -0.00000000000E+00 -0.12615084270E+02  0.12615084270E+02  0.00000000000E+00 0.  1.
         21    1    1    2  503  501  0.37036514205E+02 -0.64792453688E+01  0.14856180038E+04  0.14860937175E+04  0.00000000000E+00 0.  1.
         21    1    1    2  504  502 -0.74328272930E+02 -0.11331705392E+03  0.92302793185E+03  0.93292336761E+03  0.00000000000E+00 0.  1.
         21    1    1    2  505  503  0.24874317809E+02 -0.22165223706E+02  0.60510096294E+03  0.60601749494E+03  0.00000000000E+00 0. -1.
         21    1    1    2  506  505  0.12417440916E+02  0.14196152300E+03  0.72127999177E+03  0.73522247883E+03  0.00000000000E+00 0.  1.
<scales pt_clust_3="76.31204" pt_clust_4="135.30333" pt_clust_5="32.19968" pt_clust_6="14000.00000"></scales>
<clustering>
<clus scale="   32.200">  3  5 -1 -1</clus>
<clus scale="   76.312">  1  3  2 -1</clus>
<clus scale="  135.303">  1  4  2 -1</clus>
<clus scale="   76.312">  1  3  2 -1</clus>
</clustering>
</event>
<event>
 6    0  0.6132510E+002  0.1659838E+03  0.7546771E-02  0.1182102E+00
         21   -1    0    0  503  501  0.00000000000E+00  0.00000000000E+00  0.31058239095E+03  0.31058239095E+03  0.00000000000E+00 0. -1.
         21   -1    0    0  505  502 -0.00000000000E+00 -0.00000000000E+00 -0.34657098396E+03  0.34657098396E+03  0.00000000000E+00 0. -1.
         21    1    1    2  503  504  0.14145808972E+03  0.26873909743E+02  0.19532250056E+03  0.24265917950E+03  0.00000000000E+00 0. -1.
         21    1    1    2  504  506 -0.80116055243E+02 -0.46931884260E+02  0.23414089842E+02  0.95757003248E+02  0.00000000000E+00 0. -1.
         21    1    1    2  505  501  0.27311912695E+02  0.28084592015E+02 -0.21955831221E+03  0.22302586698E+03  0.00000000000E+00 0. -1.
         21    1    1    2  506  502 -0.88653947172E+02 -0.80266174977E+01 -0.35166871201E+02  0.95711325180E+02  0.00000000000E+00 0. -1.
<scales pt_clust_3="150.10788" pt_clust_4="67.60432" pt_clust_5="39.17505" pt_clust_6="67.60432"></scales>
<clustering>
<clus scale="   39.175">  2  5  1 -1</clus>
<clus scale="   67.604">  4  6 -1 -1</clus>
<clus scale="  150.108">  1  3  2 -1</clus>
<clus scale="  150.108">  1  3  2 -1</clus>
</clustering>
</event>
<event>
 6    0  0.6132510E+002  0.9273958E+02  0.7546771E-02  0.1296350E+00
         21   -1    0    0  503  501  0.00000000000E+00  0.00000000000E+00  0.49614284707E+02  0.49614284707E+02  0.00000000000E+00 0.  1.
         21   -1    0    0  504  502 -0.00000000000E+00 -0.00000000000E+00 -0.10419053543E+04  0.10419053543E+04  0.00000000000E+00 0.  1.
         21    1    1    2  503  505 -0.42975479511E+02 -0.19141832093E+02 -0.36939340273E+02  0.59814851290E+02  0.00000000000E+00 0.  1.
         21    1    1    2  504  506 -0.29118370551E+02  0.50826323015E+02 -0.25596669393E+03  0.26258359244E+03  0.00000000000E+00 0.  1.
         21    1    1    2  505  502  0.10959160509E+03 -0.95119495602E+02 -0.67660465929E+03  0.69199125957E+03  0.00000000000E+00 0.  1.
         21    1    1    2  506  501 -0.37497755024E+02  0.63435004680E+02 -0.22780376127E+02  0.77129935739E+02  0.00000000000E+00 0.  1.
<scales pt_clust_3="47.04574" pt_clust_4="59.12768" pt_clust_5="92.73958" pt_clust_6="14000.00000"></scales>
<clustering>
<clus scale="   47.046">  1  3  2 -1</clus>
<clus scale="   59.128">  2  4  1 -1</clus>
<clus scale="   92.740">  2  5  1 -1</clus>
<clus scale="   47.046">  1  3  2 -1</clus>
</clustering>
</event>
<event>
 6    0  0.6132510E+002  0.7328521E+02  0.7546771E-02  0.1349265E+00
         21   -1    0    0  503  501  0.00000000000E+00  0.00000000000E+00  0.59922032998E+02  0.59922032998E+02  0.00000000000E+00 0. -1.
         21   -1    0    0  505  502 -0.00000000000E+00 -0.00000000000E+00 -0.53938082261E+03  0.53938082261E+03  0.00000000000E+00 0. -1.
         21    1    1    2  503  504 -0.38119823531E+02  0.15960934735E+02 -0.87563889051E+01  0.42243895775E+02  0.00000000000E+00 0. -1.
         21    1    1    2  504  502 -0.49919199272E+02 -0.18615122396E+02 -0.70686416837E+02  0.88515641347E+02  0.00000000000E+00 0. -1.
         21    1    1    2  505  506 -0.24914613770E+02  0.33890396269E+02 -0.32864952406E+03  0.33133035871E+03  0.00000000000E+00 0. -1.
         21    1    1    2  506  501  0.11295363657E+03 -0.31236208608E+02 -0.71366459803E+02  0.13721295977E+03  0.00000000000E+00 0. -1.
<scales pt_clust_3="41.32641" pt_clust_4="14000.00000" pt_clust_5="43.16821" pt_clust_6="73.28521"></scales>
<clustering>
<clus scale="   41.326">  1  3  2 -1</clus>
<clus scale="   43.168">  2  5  1 -1</clus>
<clus scale="   73.285">  1  6  2 -1</clus>
<clus scale="   41.326">  1  3  2 -1</clus>
</clustering>
</event>
<event>
 6    0  0.6132510E+002  0.2304381E+03  0.7546771E-02  0.1126332E+00
         21   -1    0    0  504  501  0.00000000000E+00  0.00000000000E+00  0.20660207129E+03  0.20660207129E+03  0.00000000000E+00 0. -1.
         21   -1    0    0  506  502 -0.00000000000E+00 -0.00000000000E+00 -0.67753010262E+03  0.67753010262E+03  0.00000000000E+00 0. -1.
         21    1    1    2  503  501  0.74692765317E+02 -0.24611119373E+03 -0.11040781932E+03  0.27989214965E+03  0.00000000000E+00 0. -1.
         21    1    1    2  504  505 -0.76820414090E+02  0.20207303777E+03  0.54084328638E+01  0.21625017863E+03  0.00000000000E+00 0. -1.
         21    1    1    2  505  502 -0.27423332572E+02 -0.27017660978E+02 -0.51601748316E+02  0.64379605492E+02  0.00000000000E+00 0. -1.
         21    1    1    2  506  503  0.29550981345E+02  0.71055816940E+02 -0.31432689656E+03  0.32361024014E+03  0.00000000000E+00 0. -1.
<scales pt_clust_3="14000.00000" pt_clust_4="230.43806" pt_clust_5="38.49666" pt_clust_6="59.19288"></scales>
<clustering>
<clus scale="   38.497">  2  5  1 -1</clus>
<clus scale="   59.193">  2  6  1 -1</clus>
<clus scale="  230.438">  1  4  2 -1</clus>
<clus scale="  230.438">  1  3  2 -1</clus>
</clustering>
</event>
<event>
 6    0  0.6132510E+002  0.1468043E+03  0.7546771E-02  0.1204456E+00
         21   -1    0    0  504  501  0.00000000000E+00  0.00000000000E+00  0.78388556989E+02  0.78388556989E+02  0.00000000000E+00 0.  1.
         21   -1    0    0  506  502 -0.00000000000E+00 -0.00000000000E+00 -0.11268457449E+04  0.11268457449E+04  0.00000000000E+00 0.  1.
         21    1    1    2  503  501 -0.59953521494E+02  0.95708956246E+01  0.20276717618E+02  0.64009156063E+02  0.00000000000E+00 0.  1.
         21    1    1    2  504  505 -0.35954067498E+02  0.24792024324E+02 -0.27360517418E+02  0.51535787110E+02  0.00000000000E+00 0. -1.
         21    1    1    2  505  502  0.14010902354E+03 -0.84810648767E+01 -0.10269188475E+04  0.10364674555E+04  0.00000000000E+00 0.  1.
         21    1    1    2  506  503 -0.44201434553E+02 -0.25881855072E+02 -0.14454540609E+02  0.53221903224E+02  0.00000000000E+00 0. -1.
<scales pt_clust_3="41.61761" pt_clust_4="43.67310" pt_clust_5="137.68290" pt_clust_6="41.61761"></scales>
<clustering>
<clus scale="   43.673">  1  4  2 -1</clus>
<clus scale="   41.618">  3  6 -1 -1</clus>
<clus scale="  137.683">  2  5  1 -1</clus>
<clus scale="   43.673">  1  3  2 -1</clus>
</clustering>
</event>
<event>
 6    0  0.6132510E+002  0.6480054E+02  0.7546771E-02  0.1378723E+00
         21   -1    0    0  506  501  0.00000000000E+00  0.00000000000E+00  0.21114330765E+03  0.21114330765E+03  0.00000000000E+00 0. -1.
         21   -1    0    0  505  502 -0.00000000000E+00 -0.00000000000E+00 -0.25987444993E+03  0.25987444993E+03  0.00000000000E+00 0. -1.
         21    1    1    2  503  502  0.50305100892E+02 -0.19602880747E+02 -0.10045936091E+03  0.11404805699E+03  0.00000000000E+00 0. -1.
         21    1    1    2  504  501  0.55197356752E+02 -0.10437778620E+02  0.15499252428E+03  0.16485866067E+03  0.00000000000E+00 0. -1.
         21    1    1    2  505  504 -0.76951299181E+02  0.67668654630E+02 -0.10240403831E+03  0.14486937678E+03  0.00000000000E+00 0. -1.
         21    1    1    2  506  503 -0.28551158463E+02 -0.37627995263E+02 -0.86026733897E+00  0.47241663148E+02  0.00000000000E+00 0. -1.
<scales pt_clust_3="64.80054" pt_clust_4="52.51139" pt_clust_5="14000.00000" pt_clust_6="47.23383"></scales>
<clustering>
<clus scale="   47.234">  1  6  2 -1</clus>
<clus scale="   52.511">  1  4  2 -1</clus>
<clus scale="   64.801">  2  3  1 -1</clus>
<clus scale="   47.234">  1  3  2 -1</clus>
</clustering>
</event>
<event>
 6    0  0.6132510E+002  0.1303458E+03  0.7546771E-02  0.1226944E+00
         21   -1    0    0  503  501  0.00000000000E+00  0.00000000000E+00  0.27326044405E+03  0.27326044405E+03  0.00000000000E+00 0. -1.
         21   -1    0    0  504  502 -0.00000000000E+00 -0.00000000000E+00 -0.17044245540E+03  0.17044245540E+03  0.00000000000E+00 0. -1.
         21    1    1    2  503  505  0.40434722636E+02 -0.66402227685E-01  0.55979579241E+02  0.69055662302E+02  0.00000000000E+00 0. -1.
         21    1    1    2  504  501  0.25999095719E+02 -0.16969802850E+02 -0.70285912973E+02  0.76837729986E+02  0.00000000000E+00 0.  1.
         21    1    1    2  505  506 -0.12919661291E+03 -0.83601202496E+02  0.80554561642E+02  0.17369502943E+03  0.00000000000E+00 0. -1.
         21    1    1    2  506  502  0.62762794556E+02  0.10063740757E+03  0.36569760744E+02  0.12411447774E+03  0.00000000000E+00 0. -1.
<scales pt_clust_3="42.20668" pt_clust_4="31.04718" pt_clust_5="14000.00000" pt_clust_6="130.34575"></scales>
<clustering>
<clus scale="   31.047">  2  4  1 -1</clus>
<clus scale="   42.207">  1  3  2 -1</clus>
<clus scale="  130.346">  2  6  1 -1</clus>
<clus scale="   42.207">  1  3  2 -1</clus>
</clustering>
</event>
<event>
 6    0  0.6132510E+002  0.7723912E+02  0.7546771E-02  0.1337074E+00
         21   -1    0    0  505  501  0.00000000000E+00  0.00000000000E+00  0.26958642275E+03  0.26958642275E+03  0.00000000000E+00 0. -1.
         21   -1    0    0  504  502 -0.00000000000E+00 -0.00000000000E+00 -0.19111769637E+03  0.19111769637E+03  0.00000000000E+00 0. -1.
         21    1    1    2  503  501  0.74404251687E+02 -0.90029146247E+02  0.13873859494E+03  0.18135500426E+03  0.00000000000E+00 0. -1.
         21    1    1    2  504  503  0.66569588706E+01  0.43494162281E+02 -0.11653767994E+03  0.12456760453E+03  0.00000000000E+00 0. -1.
         21    1    1    2  505  506 -0.17699278548E+02  0.36754230836E+02  0.77219375752E+02  0.87332525081E+02  0.00000000000E+00 0. -1.
         21    1    1    2  506  502 -0.63361932010E+02  0.97807531310E+01 -0.20951564379E+02  0.67448985239E+02  0.00000000000E+00 0. -1.
<scales pt_clust_3="77.23912" pt_clust_4="44.72473" pt_clust_5="40.79385" pt_clust_6="14000.00000"></scales>
<clustering>
<clus scale="   40.794">  1  5  2 -1</clus>
<clus scale="   44.725">  2  4  1 -1</clus>
<clus scale="   77.239">  1  3  2 -1</clus>
<clus scale="   40.794">  1  3  2 -1</clus>
</clustering>
</event>
<event>
 6    0  0.6132510E+002  0.1222025E+03  0.7546771E-02  0.1239507E+00
         21   -1    0    0  503  501  0.00000000000E+00  0.00000000000E+00  0.10948067101E+04  0.10948067101E+04  0.00000000000E+00 0.  1.
         21   -1    0    0  505  502 -0.00000000000E+00 -0.00000000000E+00 -0.62608055045E+02  0.62608055045E+02  0.00000000000E+00 0.  1.
         21    1    1    2  503  502 -0.17604295106E+02 -0.25435654520E+02  0.68768347901E+03  0.68837885719E+03  0.00000000000E+00 0.  1.
         21    1    1    2  504  501  0.57368586199E+02 -0.85639953588E+02  0.32678981533E+03  0.34266155275E+03  0.00000000000E+00 0. -1.
         21    1    1    2  505  506  0.35057996868E+01  0.49582911893E+02  0.10790688370E+02  0.50864474230E+02  0.00000000000E+00 0.  1.
         21    1    1    2  506  504 -0.43270090780E+02  0.61492696215E+02  0.69346723507E+01  0.75509880973E+02  0.00000000000E+00 0.  1.
<scales pt_clust_3="30.93354" pt_clust_4="114.87445" pt_clust_5="33.42801" pt_clust_6="33.42801"></scales>
<clustering>
<clus scale="   30.934">  1  3  2 -1</clus>
<clus scale="   33.428">  5  6 -1 -1</clus>
<clus scale="  114.874">  1  4  2 -1</clus>
<clus scale="   30.934">  1  3  2 -1</clus>
</clustering>
</event>
<event>
 6    0  0.6132510E+002  0.1348502E+03  0.7546771E-02  0.1220431E+00
         21   -1    0    0  504  501  0.00000000000E+00  0.00000000000E+00  0.10369114327E+04  0.10369114327E+04  0.00000000000E+00 0. -1.
         21   -1    0    0  503  502 -0.00000000000E+00 -0.00000000000E+00 -0.46887015986E+02  0.46887015986E+02  0.00000000000E+00 0. -1.
         21    1    1    2  503  501 -0.84203946490E+00  0.12895734048E+03  0.69494197970E+03  0.70680623925E+03  0.00000000000E+00 0. -1.
         21    1    1    2  504  505 -0.11664888479E+02 -0.76809249196E+02  0.24468662774E+03  0.25672412466E+03  0.00000000000E+00 0. -1.
         21    1    1    2  505  506 -0.24471763104E+02 -0.38292659503E+02  0.64006962340E+02  0.78498956612E+02  0.00000000000E+00 0. -1.
         21    1    1    2  506  502  0.36978691048E+02 -0.13855431783E+02 -0.13611153053E+02  0.41769128180E+02  0.00000000000E+00 0. -1.
<scales pt_clust_3="125.12432" pt_clust_4="38.45804" pt_clust_5="38.45804" pt_clust_6="39.48920"></scales>
<clustering>
<clus scale="   38.458">  4  5 -1 -1</clus>
<clus scale="   39.489">  2  6  1 -1</clus>
<clus scale="  125.124">  1  3  2 -1</clus>
<clus scale="  125.124">  1  3  2 -1</clus>
</clustering>
</event>
<event>
 6    0  0.6132510E+002  0.8420756E+02  0.7546771E-02  0.1317518E+00
         21   -1    0    0  505  501  0.00000000000E+00  0.00000000000E+00  0.82544064252E+03  0.82544064252E+03  0.00000000000E+00 0.  1.
         21   -1    0    0  506  502 -0.00000000000E+00 -0.00000000000E+00 -0.71444573110E+02  0.71444573110E+02  0.00000000000E+00 0.  1.
         21    1    1    2  503  502  0.24516295159E+02 -0.18212023902E+02 -0.25197177287E+02  0.39593235359E+02  0.00000000000E+00 0.  1.
         21    1    1    2  504  501  0.37088147268E+02  0.72492892865E+02  0.62446430476E+03  0.62975107630E+03  0.00000000000E+00 0.  1.
         21    1    1    2  505  503  0.11496496279E+02  0.39253258686E+02  0.72132817368E+02  0.82922440181E+02  0.00000000000E+00 0.  1.
         21    1    1    2  506  504 -0.73100938706E+02 -0.93534127649E+02  0.82596124568E+02  0.14461846379E+03  0.00000000000E+00 0.  1.
<scales pt_clust_3="30.54057" pt_clust_4="14000.00000" pt_clust_5="39.63762" pt_clust_6="84.20756"></scales>
<clustering>
<clus scale="   30.541">  2  3  1 -1</clus>
<clus scale="   39.638">  2  5  1 -1</clus>
<clus scale="   84.208">  2  6  1 -1</clus>
<clus scale="   84.208">  1  3  2 -1</clus>
</clustering>
</event>
<event>
 6    0  0.6132510E+002  0.1305767E+03  0.7546771E-02  0.1226602E+00
         21   -1    0    0  506  501  0.00000000000E+00  0.00000000000E+00  0.98478248652E+02  0.98478248652E+02  0.00000000000E+00 0.  1.
         21   -1    0    0  505  502 -0.00000000000E+00 -0.00000000000E+00 -0.69424383330E+03  0.69424383330E+03  0.00000000000E+00 0.  1.
         21    1    1    2  503  502 -0.21102227864E+02  0.27017663477E+02 -0.39946962535E+03  0.40093794998E+03  0.00000000000E+00 0.  1.
         21    1    1    2  504  503 -0.70003896988E+02  0.90590847639E+02 -0.60787983797E+02  0.12962417307E+03  0.00000000000E+00 0. -1.
         21    1    1    2  505  501  0.29456046334E+02  0.16094518706E+02 -0.10706818250E+03  0.11220645214E+03  0.00000000000E+00 0.  1.
         21    1    1    2  506  504  0.61650078518E+02 -0.13370302982E+03 -0.28439793007E+02  0.14995350677E+03  0.00000000000E+00 0.  1.
<scales pt_clust_3="38.04703" pt_clust_4="14000.00000" pt_clust_5="33.56624" pt_clust_6="130.57673"></scales>
<clustering>
<clus scale="   33.566">  2  5  1 -1</clus>
<clus scale="   38.047">  2  3  1 -1</clus>
<clus scale="  130.577">  1  6  2 -1</clus>
<clus scale="  130.577">  1  3  2 -1</clus>
</clustering>
</event>
<event>
 6    0  0.6132510E+002  0.1170060E+03  0.7546771E-02  0.1248119E+00
         21   -1    0    0  504  501  0.00000000000E+00  0.00000000000E+00  0.38276288620E+03  0.38276288620E+03  0.00000000000E+00 0.  1.
         21   -1    0    0  505  502 -0.00000000000E+00 -0.00000000000E+00 -0.31112294219E+03  0.31112294219E+03  0.00000000000E+00 0.  1.
         21    1    1    2  503  502  0.63167929224E+02 -0.82767839222E+02  0.48522415517E+02  0.11487004527E+03  0.00000000000E+00 0.  1.
         21    1    1    2  504  506  0.69537685941E+02  0.93465478282E+02  0.20124085346E+03  0.23252777576E+03  0.00000000000E+00 0.  1.
         21    1    1    2  505  501  0.29672001488E+02  0.47593072724E+01 -0.18087373891E+03  0.18335317860E+03  0.00000000000E+00 0.  1.
         21    1    1    2  506  503 -0.16237761665E+03 -0.15456946333E+02  0.27504139401E+01  0.16313482877E+03  0.00000000000E+00 0.  1.
<scales pt_clust_3="107.98965" pt_clust_4="14000.00000" pt_clust_5="30.05127" pt_clust_6="117.00603"></scales>
<clustering>
<clus scale="   30.051">  2  5  1 -1</clus>
<clus scale="  107.990">  2  3  1 -1</clus>
<clus scale="  117.006">  2  6  1 -1</clus>
<clus scale="  117.006">  1  3  2 -1</clus>
</clustering>
</event>
<event>
 6    0  0.6132510E+002  0.2391702E+03  0.7546771E-02  0.1120347E+00
         21   -1    0    0  504  501  0.00000000000E+00  0.00000000000E+00  0.71034293348E+03  0.71034293348E+03  0.00000000000E+00 0.  1.
         21   -1    0    0  506  502 -0.00000000000E+00 -0.00000000000E+00 -0.11538695949E+03  0.11538695949E+03  0.00000000000E+00 0.  1.
         21    1    1    2  503  501  0.12061861477E+03 -0.66597862963E+02  0.24462714685E+03  0.28076069269E+03  0.00000000000E+00 0.  1.
         21    1    1    2  504  505 -0.22230283774E+03  0.15498515310E+01  0.27465781362E+03  0.35335232883E+03  0.00000000000E+00 0.  1.
         21    1    1    2  505  502  0.96842088186E+01  0.39777723012E+02 -0.28861866214E+02  0.50090502791E+02  0.00000000000E+00 0.  1.
         21    1    1    2  506  503  0.92000014154E+02  0.25270288420E+02  0.10453287972E+03  0.14152636865E+03  0.00000000000E+00 0. -1.
<scales pt_clust_3="83.97465" pt_clust_4="218.41108" pt_clust_5="40.93960" pt_clust_6="83.97465"></scales>
<clustering>
<clus scale="   40.940">  2  5  1 -1</clus>
<clus scale="   83.975">  3  6 -1 -1</clus>
<clus scale="  218.411">  2  4  1 -1</clus>
<clus scale="  239.170">  1  3  2 -1</clus>
</clustering>
</event>
<event>
 6    0  0.6132510E+002  0.1879085E+03  0.7546771E-02  0.1160361E+00
         21   -1    0    0  506  501  0.00000000000E+00  0.00000000000E+00  0.81326999664E+03  0.81326999664E+03  0.00000000000E+00 0. -1.
         21   -1    0    0  503  502 -0.00000000000E+00 -0.00000000000E+00 -0.56866100493E+03  0.56866100493E+03  0.00000000000E+00 0. -1.
         21    1    1    2  503  504 -0.39647181601E+01  0.41346808670E+02  0.33742345651E+02  0.53514703281E+02  0.00000000000E+00 0.  1.
         21    1    1    2  504  501 -0.53768981893E+02  0.10009993950E+03  0.25004665101E+03  0.27465328868E+03  0.00000000000E+00 0. -1.
         21    1    1    2  505  502 -0.17431967213E+02  0.43106957799E+02 -0.52583633550E+03  0.52788818421E+03  0.00000000000E+00 0. -1.
         21    1    1    2  506  505  0.75165667266E+02 -0.18455370596E+03  0.48665633056E+03  0.52587482540E+03  0.00000000000E+00 0. -1.
<scales pt_clust_3="37.35711" pt_clust_4="37.35711" pt_clust_5="46.49821" pt_clust_6="177.45970"></scales>
<clustering>
<clus scale="   37.357">  3  4 -1 -1</clus>
<clus scale="   46.498">  2  5  1 -1</clus>
<clus scale="  177.460">  1  6  2 -1</clus>
<clus scale="  177.460">  1  3  2 -1</clus>
</clustering>
</event>
<event>
 6    0  0.6132510E+002  0.9322437E+02  0.7546771E-02  0.1295226E+00
         21   -1    0    0  503  501  0.00000000000E+00  0.00000000000E+00  0.18625755088E+02  0.18625755088E+02  0.00000000000E+00 0.  1.
         21   -1    0    0  504  502 -0.00000000000E+00 -0.00000000000E+00 -0.14176995287E+04  0.14176995287E+04  0.00000000000E+00 0.  1.
         21    1    1    2  503  502  0.25132343253E+02  0.22351341284E+02 -0.14564413176E+03  0.14947718973E+03  0.00000000000E+00 0.  1.
         21    1    1    2  504  506  0.24712112858E+02  0.33011975140E+02 -0.59733469420E+03  0.59875639113E+03  0.00000000000E+00 0.  1.
         21    1    1    2  505  501 -0.10849249475E+03 -0.43586453780E+02 -0.23197989142E+03  0.25977888751E+03  0.00000000000E+00 0.  1.
         21    1    1    2  506  505  0.58648038638E+02 -0.11776862644E+02 -0.42411505625E+03  0.42831281543E+03  0.00000000000E+00 0.  1.
<scales pt_clust_3="33.63357" pt_clust_4="56.84172" pt_clust_5="14000.00000" pt_clust_6="93.22437"></scales>
<clustering>
<clus scale="   33.634">  2  3  1 -1</clus>
<clus scale="   56.842">  2  4  1 -1</clus>
<clus scale="   93.224">  2  6  1 -1</clus>
<clus scale="   93.224">  1  3  2 -1</clus>
</clustering>
</event>
<event>
 6    0  0.6132510E+002  0.1296026E+03  0.7546771E-02  0.1228047E+00
         21   -1    0    0  506  501  0.00000000000E+00  0.00000000000E+00  0.11912201801E+03  0.11912201801E+03  0.00000000000E+00 0.  1.
         21   -1    0    0  504  502 -0.00000000000E+00 -0.00000000000E+00 -0.41054843624E+03  0.41054843624E+03  0.00000000000E+00 0. -1.
         21    1    1    2  503  501 -0.56891623411E+02 -0.39124534552E+02 -0.45698407473E+02  0.82799338547E+02  0.00000000000E+00 0.  1.
         21    1    1    2  504  503 -0.65103369056E+02 -0.29943523449E+02  0.39952389198E+02  0.82044236004E+02  0.00000000000E+00 0.  1.
         21    1    1    2  505  502  0.14050870493E+03  0.39857197557E+02 -0.29485647014E+03  0.32904654738E+03  0.00000000000E+00 0. -1.
         21    1    1    2  506  505 -0.18513712461E+02  0.29210860444E+02  0.91760701923E+01  0.35780332323E+02  0.00000000000E+00 0.  1.
<scales pt_clust_3="69.11628" pt_clust_4="129.60259" pt_clust_5="14000.00000" pt_clust_6="34.58369"></scales>
<clustering>
<clus scale="   34.584">  1  6  2 -1</clus>
<clus scale="   69.116">  1  3  2 -1</clus>
<clus scale="  129.603">  1  4  2 -1</clus>
<clus scale="   34.584">  1  3  2 -1</clus>
</clustering>
</event>
<event>
 6    0  0.6132510E+002  0.1773349E+03  0.7546771E-02  0.1170408E+00
         21   -1    0    0  503  501  0.00000000000E+00  0.00000000000E+00  0.38664477547E+02  0.38664477547E+02  0.00000000000E+00 0.  1.
         21   -1    0    0  506  502 -0.00000000000E+00 -0.00000000000E+00 -0.10780317578E+04  0.10780317578E+04  0.00000000000E+00 0.  1.
         21    1    1    2  503  504  0.51125248950E+02  0.16376331870E+03 -0.28858989998E+03  0.33573255130E+03  0.00000000000E+00 0.  1.
         21    1    1    2  504  505  0.77121857690E+00 -0.12401443119E+03 -0.33012013984E+03  0.35264639606E+03  0.00000000000E+00 0.  1.
         21    1    1    2  505  502 -0.12923172996E+02 -0.39418197298E+02 -0.23134829382E+03  0.23503794530E+03  0.00000000000E+00 0.  1.
         21    1    1    2  506  501 -0.38973294531E+02 -0.33069020996E+00 -0.18930894660E+03  0.19327934268E+03  0.00000000000E+00 0.  1.
<scales pt_clust_3="167.86742" pt_clust_4="33.06329" pt_clust_5="33.06329" pt_clust_6="38.97470"></scales>
<clustering>
<clus scale="   33.063">  4  5 -1 -1</clus>
<clus scale="   38.975">  2  6  1 -1</clus>
<clus scale="  167.867">  1  3  2 -1</clus>
<clus scale="  167.867">  1  3  2 -1</clus>
</clustering>
</event>
<event>
 6    0  0.6132510E+002  0.1934576E+03  0.7546771E-02  0.1155379E+00
         21   -1    0    0  505  501  0.00000000000E+00  0.00000000000E+00  0.28902441771E+03  0.28902441771E+03  0.00000000000E+00 0.  1.
         21   -1    0    0  506  502 -0.00000000000E+00 -0.00000000000E+00 -0.15436469231E+04  0.15436469231E+04  0.00000000000E+00 0.  1.
         21    1    1    2  503  504  0.97803829335E+02  0.56691288158E+02 -0.12858781074E+03  0.17121424081E+03  0.00000000000E+00 0.  1.
         21    1    1    2  504  502  0.28091414345E+02  0.58425105935E+02 -0.12260133628E+03  0.13868564534E+03  0.00000000000E+00 0. -1.
         21    1    1    2  505  503 -0.16015590805E+03 -0.92947336579E+02  0.22627517788E+03  0.29238600922E+03  0.00000000000E+00 0.  1.
         21    1    1    2  506  501  0.34260664366E+02 -0.22169057514E+02 -0.12297085362E+04  0.12303854454E+04  0.00000000000E+00 0.  1.
<scales pt_clust_3="44.99780" pt_clust_4="44.99780" pt_clust_5="183.26286" pt_clust_6="40.80760"></scales>
<clustering>
<clus scale="   40.808">  2  6  1 -1</clus>
<clus scale="   44.998">  3  4 -1 -1</clus>
<clus scale="  183.263">  1  5  2 -1</clus>
<clus scale="  183.263">  1  3  2 -1</clus>
</clustering>
</event>
<event>
 6    0  0.6132510E+002  0.3059556E+03  0.7546771E-02  0.1082301E+00
         21   -1    0    0  504  501  0.00000000000E+00  0.00000000000E+00  0.40297814827E+03  0.40297814827E+03  0.00000000000E+00 0.  1.
         21   -1    0    0  505  502 -0.00000000000E+00 -0.00000000000E+00 -0.10102746408E+04  0.10102746408E+04  0.00000000000E+00 0.  1.
         21    1    1    2  503  506 -0.17495322888E+03 -0.20072969192E+02  0.14682153122E+03  0.22927738314E+03  0.00000000000E+00 0.  1.
         21    1    1    2  504  502  0.30188670625E+02  0.18766773799E+02 -0.34508568450E+02  0.49541789727E+02  0.00000000000E+00 0.  1.
         21    1    1    2  505  503  0.27248018710E+03  0.14046060699E+02 -0.88441528249E+03  0.92554477800E+03  0.00000000000E+00 0.  1.
         21    1    1    2  506  501 -0.12771562885E+03 -0.12739865305E+02  0.16480582723E+03  0.20888883816E+03  0.00000000000E+00 0.  1.
<scales pt_clust_3="40.02092" pt_clust_4="35.54642" pt_clust_5="302.35065" pt_clust_6="40.02092"></scales>
<clustering>
<clus scale="   35.546">  2  4  1 -1</clus>
<clus scale="   40.021">  3  6 -1 -1</clus>
<clus scale="  302.351">  2  5  1 -1</clus>
<clus scale="  305.956">  1  3  2 -1</clus>
</clustering>
</event>
<event>
 6    0  0.6132510E+002  0.2701831E+03  0.7546771E-02  0.1101175E+00
         21   -1    0    0  503  501  0.00000000000E+00  0.00000000000E+00  0.20073156525E+04  0.20073156525E+04  0.00000000000E+00 0.  1.
         21   -1    0    0  506  502 -0.00000000000E+00 -0.00000000000E+00 -0.85484688046E+02  0.85484688046E+02  0.00000000000E+00 0.  1.
         21    1    1    2  503  502  0.23754648436E+03  0.15873337754E+03  0.11962239868E+04  0.12298684662E+04  0.00000000000E+00 0.  1.
         21    1    1    2  504  505 -0.12560356366E+03 -0.98150911468E+02  0.40301485665E+03  0.43339454463E+03  0.00000000000E+00 0.  1.
         21    1    1    2  505  501 -0.61318737574E+02 -0.43284152227E+02  0.35773826038E+03  0.36552724707E+03  0.00000000000E+00 0.  1.
         21    1    1    2  506  504 -0.50624183118E+02 -0.17298313846E+02 -0.35146139374E+02  0.64010082730E+02  0.00000000000E+00 0.  1.
<scales pt_clust_3="261.55686" pt_clust_4="46.47333" pt_clust_5="46.47333" pt_clust_6="53.49803"></scales>
<clustering>
<clus scale="   46.473">  4  5 -1 -1</clus>
<clus scale="   53.498">  2  6  1 -1</clus>
<clus scale="  261.557">  1  3  2 -1</clus>
<clus scale="  261.557">  1  3  2 -1</clus>
</clustering>
</event>
<event>
 6    0  0.6132510E+002  0.2207915E+03  0.7546771E-02  0.1133294E+00
         21   -1    0    0  504  501  0.00000000000E+00  0.00000000000E+00  0.37470930606E+03  0.37470930606E+03  0.00000000000E+00 0.  1.
         21   -1    0    0  503  502 -0.00000000000E+00 -0.00000000000E+00 -0.33078584412E+03  0.33078584412E+03  0.00000000000E+00 0.  1.
         21    1    1    2  503  505 -0.16611292418E+02  0.78284923831E+02  0.25789459014E+02  0.84080678704E+02  0.00000000000E+00 0.  1.
         21    1    1    2  504  506  0.10977542576E+03  0.12666566993E+02  0.89552415087E+02  0.14223473931E+03  0.00000000000E+00 0.  1.
         21    1    1    2  505  501  0.75553978444E+01  0.99273958821E+02  0.14373080113E+03  0.17484549217E+03  0.00000000000E+00 0.  1.
         21    1    1    2  506  502 -0.10071953118E+03 -0.19022544965E+03 -0.21514921329E+03  0.30433424000E+03  0.00000000000E+00 0.  1.
<scales pt_clust_3="73.36673" pt_clust_4="110.50378" pt_clust_5="73.36673" pt_clust_6="205.06680"></scales>
<clustering>
<clus scale="   73.367">  3  5 -1 -1</clus>
<clus scale="  110.504">  1  4  2 -1</clus>
<clus scale="  205.067">  2  6  1 -1</clus>
<clus scale="  110.504">  1  3  2 -1</clus>
</clustering>
</event>
<event>
 6    0  0.6132510E+002  0.1415608E+03  0.7546771E-02  0.1211244E+00
         21   -1    0    0  505  501  0.00000000000E+00  0.00000000000E+00  0.75711044081E+02  0.75711044081E+02  0.00000000000E+00 0. -1.
         21   -1    0    0  503  502 -0.00000000000E+00 -0.00000000000E+00 -0.53489631100E+03  0.53489631100E+03  0.00000000000E+00 0.  1.
         21    1    1    2  503  504 -0.70872653062E+01  0.31477766043E+02 -0.15384521644E+03  0.15719233348E+03  0.00000000000E+00 0.  1.
         21    1    1    2  504  501  0.12863825787E+03 -0.73856189752E+02 -0.27477124038E+03  0.31225273848E+03  0.00000000000E+00 0.  1.
         21    1    1    2  505  506 -0.68251865282E+02  0.33470645015E+02  0.54624092728E+01  0.76213116373E+02  0.00000000000E+00 0. -1.
         21    1    1    2  506  502 -0.53299127282E+02  0.89077786945E+01 -0.36031219372E+02  0.64949166736E+02  0.00000000000E+00 0. -1.
<scales pt_clust_3="32.26576" pt_clust_4="132.73171" pt_clust_5="41.64016" pt_clust_6="41.64016"></scales>
<clustering>
<clus scale="   32.266">  2  3  1 -1</clus>
<clus scale="   41.640">  5  6 -1 -1</clus>
<clus scale="  132.732">  2  4  1 -1</clus>
<clus scale="  141.561">  1  3  2 -1</clus>
</clustering>
</event>
<event>
 6    0  0.6132510E+002  0.8242847E+02  0.7546771E-02  0.1322298E+00
         21   -1    0    0  503  501  0.00000000000E+00  0.00000000000E+00  0.16243815183E+03  0.16243815183E+03  0.00000000000E+00 0.  1.
         21   -1    0    0  504  502 -0.00000000000E+00 -0.00000000000E+00 -0.57957497361E+03  0.57957497361E+03  0.00000000000E+00 0. -1.
         21    1    1    2  503  506 -0.33006541944E+02  0.18788634237E+02  0.51843927257E+02  0.64266922916E+02  0.00000000000E+00 0.  1.
         21    1    1    2  504  501  0.24341201253E+02 -0.86789933688E+02 -0.21337202793E+03  0.23163032827E+03  0.00000000000E+00 0. -1.
         21    1    1    2  505  502 -0.43432940846E+02  0.49184175656E+01 -0.33159138341E+03  0.33445994787E+03  0.00000000000E+00 0. -1.
         21    1    1    2  506  505  0.52098281537E+02  0.63082881885E+02  0.75982662302E+02  0.11165592638E+03  0.00000000000E+00 0.  1.
<scales pt_clust_3="37.97953" pt_clust_4="82.42847" pt_clust_5="44.19072" pt_clust_6="14000.00000"></scales>
<clustering>
<clus scale="   37.980">  1  3  2 -1</clus>
<clus scale="   44.191">  2  5  1 -1</clus>
<clus scale="   82.428">  2  4  1 -1</clus>
<clus scale="   37.980">  1  3  2 -1</clus>
</clustering>
</event>
<event>
 6    0  0.6132510E+002  0.1018638E+03  0.7546771E-02  0.1276425E+00
         21   -1    0    0  504  501  0.00000000000E+00  0.00000000000E+00  0.12899541656E+03  0.12899541656E+03  0.00000000000E+00 0.  1.
         21   -1    0    0  503  502 -0.00000000000E+00 -0.00000000000E+00 -0.28948755954E+03  0.28948755954E+03  0.00000000000E+00 0.  1.
         21    1    1    2  503  506  0.38471226794E+02 -0.21551743514E+02 -0.47760676711E+02  0.65004578142E+02  0.00000000000E+00 0.  1.
         21    1    1    2  504  505 -0.83147784505E+02 -0.72472778447E+02 -0.48750434127E+01  0.11040662902E+03  0.00000000000E+00 0.  1.
         21    1    1    2  505  502 -0.24756131914E+02  0.26751899200E+02 -0.13726387595E+03  0.14202077953E+03  0.00000000000E+00 0.  1.
         21    1    1    2  506  501  0.69432689625E+02  0.67272622761E+02  0.29407453090E+02  0.10105098940E+03  0.00000000000E+00 0. -1.
<scales pt_clust_3="31.33696" pt_clust_4="14000.00000" pt_clust_5="36.44901" pt_clust_6="101.86380"></scales>
<clustering>
<clus scale="   36.449">  2  5  1 -1</clus>
<clus scale="   31.337">  2  3  1 -1</clus>
<clus scale="  101.864">  1  6  2 -1</clus>
<clus scale="  101.864">  1  3  2 -1</clus>
</clustering>
</event>
<event>
 6    0  0.6132510E+002  0.1088067E+03  0.7546771E-02  0.1262796E+00
         21   -1    0    0  505  501  0.00000000000E+00  0.00000000000E+00  0.13305683336E+03  0.13305683336E+03  0.00000000000E+00 0. -1.
         21   -1    0    0  504  502 -0.00000000000E+00 -0.00000000000E+00 -0.56230421419E+03  0.56230421419E+03  0.00000000000E+00 0. -1.
         21    1    1    2  503  502 -0.10032994119E+03  0.43650766588E+02 -0.40765668305E+03  0.42208465710E+03  0.00000000000E+00 0. -1.
         21    1    1    2  504  506  0.11639591167E+03  0.73929015791E+01 -0.10355737995E+03  0.15597049141E+03  0.00000000000E+00 0. -1.
         21    1    1    2  505  503 -0.30082510255E+02 -0.20311171154E+02  0.74265515468E+02  0.82661163097E+02  0.00000000000E+00 0. -1.
         21    1    1    2  506  501  0.14016539770E+02 -0.30732497013E+02  0.77011667045E+01  0.34644735941E+02  0.00000000000E+00 0. -1.
<scales pt_clust_3="108.80667" pt_clust_4="14000.00000" pt_clust_5="46.50528" pt_clust_6="33.77795"></scales>
<clustering>
<clus scale="   33.778">  1  6  2 -1</clus>
<clus scale="   46.505">  1  5  2 -1</clus>
<clus scale="  108.807">  2  3  1 -1</clus>
<clus scale="   33.778">  1  3  2 -1</clus>
</clustering>
</event>
<event>
 6    0  0.6132510E+002  0.1253102E+03  0.7546771E-02  0.1234585E+00
         21   -1    0    0  506  501  0.00000000000E+00  0.00000000000E+00  0.14244235483E+03  0.14244235483E+03  0.00000000000E+00 0.  1.
         21   -1    0    0  504  502 -0.00000000000E+00 -0.00000000000E+00 -0.62949894141E+03  0.62949894141E+03  0.00000000000E+00 0.  1.
         21    1    1    2  503  502 -0.50830620811E+02  0.13192714096E+03 -0.35631254297E+03  0.38333686336E+03  0.00000000000E+00 0.  1.
         21    1    1    2  504  501  0.10657415245E+03 -0.31824716071E+02  0.72452993404E+02  0.13274147346E+03  0.00000000000E+00 0.  1.
         21    1    1    2  505  503 -0.28856439409E+02 -0.11468560651E+03 -0.18698740479E+03  0.22124595360E+03  0.00000000000E+00 0.  1.
         21    1    1    2  506  505 -0.26887092228E+02  0.14583181624E+02 -0.16209632229E+02  0.34617005817E+02  0.00000000000E+00 0.  1.
<scales pt_clust_3="14000.00000" pt_clust_4="88.30566" pt_clust_5="125.31023" pt_clust_6="30.58733"></scales>
<clustering>
<clus scale="   30.587">  1  6  2 -1</clus>
<clus scale="   88.306">  1  4  2 -1</clus>
<clus scale="  125.310">  1  5  2 -1</clus>
<clus scale="   30.587">  1  3  2 -1</clus>
</clustering>
</event>
<event>
 6    0  0.6132510E+002  0.1115887E+03  0.7546771E-02  0.1257656E+00
         21   -1    0    0  504  501  0.00000000000E+00  0.00000000000E+00  0.14476532738E+04  0.14476532738E+04  0.00000000000E+00 0.  1.
         21   -1    0    0  505  502 -0.00000000000E+00 -0.00000000000E+00 -0.31390741066E+02  0.31390741066E+02  0.00000000000E+00 0.  1.
         21    1    1    2  503  506  0.94751774209E+02 -0.25955010384E+01  0.38531137330E+03  0.39679905461E+03  0.00000000000E+00 0.  1.
         21    1    1    2  504  503  0.24055318787E+02 -0.19587497633E+02  0.38647605446E+03  0.38771905949E+03  0.00000000000E+00 0.  1.
         21    1    1    2  505  501 -0.15553467892E+02  0.99261615798E+02  0.45110764277E+03  0.46216110189E+03  0.00000000000E+00 0.  1.
         21    1    1    2  506  502 -0.10325362510E+03 -0.77078617127E+02  0.19336746218E+03  0.23236479885E+03  0.00000000000E+00 0.  1.
<scales pt_clust_3="14000.00000" pt_clust_4="31.02142" pt_clust_5="90.97651" pt_clust_6="111.58865"></scales>
<clustering>
<clus scale="   31.021">  1  4  2 -1</clus>
<clus scale="   90.977">  1  5  2 -1</clus>
<clus scale="  111.589">  2  6  1 -1</clus>
<clus scale="   31.021">  1  3  2 -1</clus>
</clustering>
</event>
<event>
 6    0  0.6132510E+002  0.1395723E+03  0.7546771E-02  0.1213906E+00
         21   -1    0    0  502  501  0.00000000000E+00  0.00000000000E+00  0.16756239455E+03  0.16756239455E+03  0.00000000000E+00 0.  1.
         21   -1    0    0  503  502 -0.00000000000E+00 -0.00000000000E+00 -0.17849127223E+03  0.17849127223E+03  0.00000000000E+00 0.  1.
         21    1    1    2  503  506  0.68365068488E+02  0.11913848874E+03 -0.52804336019E+02  0.14715998094E+03  0.00000000000E+00 0.  1.
         21    1    1    2  504  505 -0.26761913502E+02 -0.71416301560E+02  0.21548638462E+02  0.79251700060E+02  0.00000000000E+00 0.  1.
         21    1    1    2  505  501 -0.53212200267E+02  0.76009708651E+01  0.31093586578E+02  0.62097698360E+02  0.00000000000E+00 0.  1.
         21    1    1    2  506  504  0.11609045281E+02 -0.55323158048E+02 -0.10766766704E+02  0.57544287414E+02  0.00000000000E+00 0. -1.
<scales pt_clust_3="131.05732" pt_clust_4="41.32807" pt_clust_5="53.75233" pt_clust_6="41.32807"></scales>
<clustering>
<clus scale="   41.328">  4  6 -1 -1</clus>
<clus scale="   53.752">  1  5  2 -1</clus>
<clus scale="  131.057">  2  3  1 -1</clus>
<clus scale="   53.752">  1  3  2 -1</clus>
</clustering>
</event>
<event>
 6    0  0.6132510E+002  0.1233260E+03  0.7546771E-02  0.1237709E+00
         21   -1    0    0  503  501  0.00000000000E+00  0.00000000000E+00  0.14748309152E+03  0.14748309152E+03  0.00000000000E+00 0.  1.
         21   -1    0    0  504  502 -0.00000000000E+00 -0.00000000000E+00 -0.45489826007E+03  0.45489826007E+03  0.00000000000E+00 0.  1.
         21    1    1    2  503  506 -0.11291982237E+03  0.33357902197E+02  0.18532360770E+02  0.11919347431E+03  0.00000000000E+00 0.  1.
         21    1    1    2  504  505  0.49370993333E+02  0.22008201464E+02  0.10468974271E+02  0.55058653603E+02  0.00000000000E+00 0.  1.
         21    1    1    2  505  501  0.64890540435E+02 -0.22457371084E+02  0.18954871055E+02  0.71234843235E+02  0.00000000000E+00 0.  1.
         21    1    1    2  506  502 -0.13417114008E+01 -0.32908732576E+02 -0.35537137465E+03  0.35689438044E+03  0.00000000000E+00 0.  1.
<scales pt_clust_3="114.80819" pt_clust_4="38.06271" pt_clust_5="38.06271" pt_clust_6="32.93607"></scales>
<clustering>
<clus scale="   32.936">  2  6  1 -1</clus>
<clus scale="   38.063">  4  5 -1 -1</clus>
<clus scale="  114.808">  2  3  1 -1</clus>
<clus scale="  123.326">  1  3  2 -1</clus>
</clustering>
</event>
<event>
 6    0  0.6132510E+002  0.1369972E+03  0.7546771E-02  0.1217427E+00
         21   -1    0    0  504  501  0.00000000000E+00  0.00000000000E+00  0.23091482420E+03  0.23091482420E+03  0.00000000000E+00 0. -1.
         21   -1    0    0  506  502 -0.00000000000E+00 -0.00000000000E+00 -0.14387084647E+04  0.14387084647E+04  0.00000000000E+00 0.  1.
         21    1    1    2  503  505 -0.73969948841E+02 -0.76320005777E+02 -0.16776593496E+02  0.10759995680E+03  0.00000000000E+00 0. -1.
         21    1    1    2  504  502 -0.15938710901E+01  0.74204166449E+02 -0.58494824425E+03  0.58963823417E+03  0.00000000000E+00 0.  1.
         21    1    1    2  505  501 -0.63507287275E+02  0.18847464111E+02  0.17069171768E+03  0.18309578074E+03  0.00000000000E+00 0. -1.
         21    1    1    2  506  503  0.13907110721E+03 -0.16731624784E+02 -0.77676052044E+03  0.78928931720E+03  0.00000000000E+00 0.  1.
<scales pt_clust_3="14000.00000" pt_clust_4="75.14836" pt_clust_5="66.24502" pt_clust_6="136.99723"></scales>
<clustering>
<clus scale="   66.245">  1  5  2 -1</clus>
<clus scale="   75.148">  2  4  1 -1</clus>
<clus scale="  136.997">  2  6  1 -1</clus>
<clus scale="   66.245">  1  3  2 -1</clus>
</clustering>
</event>
<event>
 6    0  0.6132510E+002  0.2034666E+03  0.7546771E-02  0.1146847E+00
         21   -1    0    0  502  501  0.00000000000E+00  0.00000000000E+00  0.54553597831E+03  0.54553597831E+03  0.00000000000E+00 0. -1.
         21   -1    0    0  506  502 -0.00000000000E+00 -0.00000000000E+00 -0.90552875058E+03  0.90552875058E+03  0.00000000000E+00 0.  1.
         21    1    1    2  503  501  0.65920566178E+02 -0.10366839042E+03  0.35369301006E+03  0.37442142244E+03  0.00000000000E+00 0. -1.
         21    1    1    2  504  503  0.31843381377E+02 -0.49021497922E+02  0.66007136027E+02  0.88170574471E+02  0.00000000000E+00 0. -1.
         21    1    1    2  505  504 -0.18208548299E+03  0.21279747660E+03 -0.94622392036E+02  0.29562017225E+03  0.00000000000E+00 0. -1.
         21    1    1    2  506  505  0.84321535436E+02 -0.60107588265E+02 -0.68507052631E+03  0.69285255973E+03  0.00000000000E+00 0.  1.
<scales pt_clust_3="48.63532" pt_clust_4="48.63532" pt_clust_5="190.85994" pt_clust_6="103.55213"></scales>
<clustering>
<clus scale="   48.635">  3  4 -1 -1</clus>
<clus scale="  103.552">  2  6  1 -1</clus>
<clus scale="  190.860">  2  5  1 -1</clus>
<clus scale="  203.467">  1  3  2 -1</clus>
</clustering>
</event>
<event>
 6    0  0.6132510E+002  0.1402384E+03  0.7546771E-02  0.1213009E+00
         21   -1    0    0  506  501  0.00000000000E+00  0.00000000000E+00  0.81973934921E+02  0.81973934921E+02  0.00000000000E+00 0.  1.
         21   -1    0    0  501  502 -0.00000000000E+00 -0.00000000000E+00 -0.16097233084E+04  0.16097233084E+04  0.00000000000E+00 0. -1.
         21    1    1    2  503  504 -0.14385249808E+03  0.13167328328E+03 -0.98228781986E+02  0.21835816528E+03  0.00000000000E+00 0.  1.
         21    1    1    2  504  505  0.60873348802E+02 -0.50842903363E+02 -0.10963850956E+04  0.10992501277E+04  0.00000000000E+00 0. -1.
         21    1    1    2  505  502  0.21373264370E+02 -0.41872723996E+02 -0.27991910185E+03  0.28383947052E+03  0.00000000000E+00 0.  1.
         21    1    1    2  506  503  0.61605884905E+02 -0.38957655922E+02 -0.53216394022E+02  0.90249479791E+02  0.00000000000E+00 0.  1.
<scales pt_clust_3="127.68671" pt_clust_4="44.64672" pt_clust_5="44.64672" pt_clust_6="72.89022"></scales>
<clustering>
<clus scale="   44.647">  4  5 -1 -1</clus>
<clus scale="   72.890">  1  6  2 -1</clus>
<clus scale="  127.687">  1  3  2 -1</clus>
<clus scale="   72.890">  1  3  2 -1</clus>
</clustering>
</event>
<event>
 6    0  0.6132510E+002  0.1018467E+03  0.7546771E-02  0.1276460E+00
         21   -1    0    0  502  501  0.00000000000E+00  0.00000000000E+00  0.18209690622E+03  0.18209690622E+03  0.00000000000E+00 0.  1.
         21   -1    0    0  503  502 -0.00000000000E+00 -0.00000000000E+00 -0.60250238143E+03  0.60250238143E+03  0.00000000000E+00 0. -1.
         21    1    1    2  503  504 -0.50691209845E+02  0.15437037492E+02 -0.40501542963E+03  0.40846713347E+03  0.00000000000E+00 0. -1.
         21    1    1    2  504  505 -0.56792119471E+02  0.13382074274E+02 -0.10933318036E+03  0.12392808025E+03  0.00000000000E+00 0. -1.
         21    1    1    2  505  506 -0.19718017175E+00 -0.97470811060E+02  0.70168679730E+01  0.97723253758E+02  0.00000000000E+00 0.  1.
         21    1    1    2  506  501  0.10768050949E+03  0.68651699294E+02  0.86926266817E+02  0.15448082018E+03  0.00000000000E+00 0.  1.
<scales pt_clust_3="52.98963" pt_clust_4="89.87542" pt_clust_5="101.84674" pt_clust_6="14000.00000"></scales>
<clustering>
<clus scale="   52.990">  2  3  1 -1</clus>
<clus scale="   89.875">  2  4  1 -1</clus>
<clus scale="  101.847">  2  5  1 -1</clus>
<clus scale="  101.847">  1  3  2 -1</clus>
</clustering>
</event>
<event>
 6    0  0.6132510E+002  0.1139802E+03  0.7546771E-02  0.1253372E+00
         21   -1    0    0  506  501  0.00000000000E+00  0.00000000000E+00  0.24814261897E+03  0.24814261897E+03  0.00000000000E+00 0. -1.
         21   -1    0    0  503  502 -0.00000000000E+00 -0.00000000000E+00 -0.51384397626E+03  0.51384397626E+03  0.00000000000E+00 0. -1.
         21    1    1    2  503  505 -0.14057771821E+03 -0.31235057814E+02 -0.75007140728E+02  0.16236931624E+03  0.00000000000E+00 0.  1.
         21    1    1    2  504  502  0.33243845630E+02 -0.97697323804E+01 -0.37329379221E+03  0.37489846125E+03  0.00000000000E+00 0. -1.
         21    1    1    2  505  501  0.70583361087E+02  0.53046102314E+02  0.15037209194E+03  0.17437793974E+03  0.00000000000E+00 0. -1.
         21    1    1    2  506  504  0.36750511497E+02 -0.12041312120E+02  0.32227483701E+02  0.50340878008E+02  0.00000000000E+00 0.  1.
<scales pt_clust_3="14000.00000" pt_clust_4="34.64969" pt_clust_5="113.98021" pt_clust_6="40.91745"></scales>
<clustering>
<clus scale="   34.650">  2  4  1 -1</clus>
<clus scale="   40.917">  1  6  2 -1</clus>
<clus scale="  113.980">  1  5  2 -1</clus>
<clus scale="   40.917">  1  3  2 -1</clus>
</clustering>
</event>
<event>
 6    0  0.6132510E+002  0.9226903E+02  0.7546771E-02  0.1297448E+00
         21   -1    0    0  506  501  0.00000000000E+00  0.00000000000E+00  0.26052526646E+03  0.26052526646E+03  0.00000000000E+00 0. -1.
         21   -1    0    0  505  502 -0.00000000000E+00 -0.00000000000E+00 -0.21088766153E+03  0.21088766153E+03  0.00000000000E+00 0. -1.
         21    1    1    2  503  504 -0.22988389296E+02 -0.54601157733E+02  0.15930626399E+03  0.16996540300E+03  0.00000000000E+00 0. -1.
         21    1    1    2  504  502  0.78736835424E+01 -0.62794394958E+02 -0.22028859541E+02  0.67010458761E+02  0.00000000000E+00 0. -1.
         21    1    1    2  505  501  0.17201738363E+02  0.15368606476E+03 -0.11176837392E+03  0.19080743096E+03  0.00000000000E+00 0. -1.
         21    1    1    2  506  503 -0.20870326087E+01 -0.36290512066E+02  0.24128574397E+02  0.43629635268E+02  0.00000000000E+00 0. -1.
<scales pt_clust_3="92.26903" pt_clust_4="66.83677" pt_clust_5="14000.00000" pt_clust_6="36.35047"></scales>
<clustering>
<clus scale="   36.350">  1  6  2 -1</clus>
<clus scale="   66.837">  2  4  1 -1</clus>
<clus scale="   92.269">  1  3  2 -1</clus>
<clus scale="   36.350">  1  3  2 -1</clus>
</clustering>
</event>
<event>
 6    0  0.6132510E+002  0.8746094E+02  0.7546771E-02  0.1309120E+00
         21   -1    0    0  502  501  0.00000000000E+00  0.00000000000E+00  0.79784694404E+02  0.79784694404E+02  0.00000000000E+00 0.  1.
         21   -1    0    0  505  502 -0.00000000000E+00 -0.00000000000E+00 -0.52888613399E+03  0.52888613399E+03  0.00000000000E+00 0. -1.
         21    1    1    2  503  501  0.15803856404E+02  0.43059427455E+02 -0.42690602107E+02  0.62660702823E+02  0.00000000000E+00 0.  1.
         21    1    1    2  504  503 -0.36746209238E+02  0.35540691158E+02  0.29130072295E+02  0.58838641498E+02  0.00000000000E+00 0.  1.
         21    1    1    2  505  506 -0.45653300154E+02 -0.90650540257E+02 -0.39597737456E+03  0.40877845519E+03  0.00000000000E+00 0. -1.
         21    1    1    2  506  504  0.66595652988E+02  0.12050421644E+02 -0.39563535213E+02  0.78393028882E+02  0.00000000000E+00 0.  1.
<scales pt_clust_3="45.86803" pt_clust_4="68.15920" pt_clust_5="14000.00000" pt_clust_6="87.46094"></scales>
<clustering>
<clus scale="   45.868">  1  3  2 -1</clus>
<clus scale="   68.159">  1  4  2 -1</clus>
<clus scale="   87.461">  1  6  2 -1</clus>
<clus scale="   45.868">  1  3  2 -1</clus>
</clustering>
</event>
<event>
 6    0  0.6132510E+002  0.9616441E+02  0.7546771E-02  0.1288575E+00
         21   -1    0    0  504  501  0.00000000000E+00  0.00000000000E+00  0.32037020096E+03  0.32037020096E+03  0.00000000000E+00 0. -1.
         21   -1    0    0  506  502 -0.00000000000E+00 -0.00000000000E+00 -0.50546025293E+03  0.50546025293E+03  0.00000000000E+00 0.  1.
         21    1    1    2  503  501 -0.10047712145E+03 -0.42086035239E+02  0.83192184772E+02  0.13706869046E+03  0.00000000000E+00 0. -1.
         21    1    1    2  504  505  0.17192405230E+02  0.10731804530E+03  0.17792963236E+03  0.20849867078E+03  0.00000000000E+00 0. -1.
         21    1    1    2  505  502  0.30411788326E+02 -0.42857876425E+02 -0.40783224690E+03  0.41120410510E+03  0.00000000000E+00 0.  1.
         21    1    1    2  506  503  0.52872927890E+02 -0.22374133641E+02 -0.38379622208E+02  0.69058987545E+02  0.00000000000E+00 0.  1.
<scales pt_clust_3="96.16441" pt_clust_4="14000.00000" pt_clust_5="52.55164" pt_clust_6="83.88321"></scales>
<clustering>
<clus scale="   52.552">  2  5  1 -1</clus>
<clus scale="   83.883">  2  6  1 -1</clus>
<clus scale="   96.164">  2  3  1 -1</clus>
<clus scale="   96.164">  1  3  2 -1</clus>
</clustering>
</event>
<event>
 6    0  0.6132510E+002  0.1342090E+03  0.7546771E-02  0.1221341E+00
         21   -1    0    0  506  501  0.00000000000E+00  0.00000000000E+00  0.28962018520E+03  0.28962018520E+03  0.00000000000E+00 0.  1.
         21   -1    0    0  503  502 -0.00000000000E+00 -0.00000000000E+00 -0.58761864305E+03  0.58761864305E+03  0.00000000000E+00 0. -1.
         21    1    1    2  503  505 -0.12453082102E+03  0.58173526992E+02 -0.39970253378E+03  0.42267505266E+03  0.00000000000E+00 0. -1.
         21    1    1    2  504  502 -0.60307875345E+01 -0.35333260163E+02 -0.13182242678E+03  0.13660879135E+03  0.00000000000E+00 0. -1.
         21    1    1    2  505  501 -0.31223767234E+02  0.92651011394E+01  0.64009224753E+00  0.32575688135E+02  0.00000000000E+00 0. -1.
         21    1    1    2  506  504  0.16178537579E+03 -0.32105367969E+02  0.23288641045E+03  0.28537929611E+03  0.00000000000E+00 0.  1.
<scales pt_clust_3="134.20905" pt_clust_4="35.81136" pt_clust_5="32.56940" pt_clust_6="14000.00000"></scales>
<clustering>
<clus scale="   32.569">  1  5  2 -1</clus>
<clus scale="   35.811">  2  4  1 -1</clus>
<clus scale="  134.209">  2  3  1 -1</clus>
<clus scale="   32.569">  1  3  2 -1</clus>
</clustering>
</event>
<event>
 6    0  0.6132510E+002  0.1027221E+03  0.7546771E-02  0.1274674E+00
         21   -1    0    0  506  501  0.00000000000E+00  0.00000000000E+00  0.78960096739E+03  0.78960096739E+03  0.00000000000E+00 0. -1.
         21   -1    0    0  505  502 -0.00000000000E+00 -0.00000000000E+00 -0.90923314534E+02  0.90923314534E+02  0.00000000000E+00 0. -1.
         21    1    1    2  503  504 -0.29505697531E+02 -0.47594041791E+02  0.30555547033E+02  0.63792009337E+02  0.00000000000E+00 0. -1.
         21    1    1    2  504  502  0.28601342618E+02 -0.33571521485E+02 -0.47821542350E+02  0.65053699104E+02  0.00000000000E+00 0. -1.
         21    1    1    2  505  501 -0.43345538870E+02  0.14488820951E+03  0.48774874068E+03  0.51065669782E+03  0.00000000000E+00 0. -1.
         21    1    1    2  506  503  0.44249893783E+02 -0.63722646230E+02  0.22819490750E+03  0.24102187567E+03  0.00000000000E+00 0. -1.
<scales pt_clust_3="65.68143" pt_clust_4="44.10310" pt_clust_5="14000.00000" pt_clust_6="102.72206"></scales>
<clustering>
<clus scale="   44.103">  2  4  1 -1</clus>
<clus scale="   65.681">  2  3  1 -1</clus>
<clus scale="  102.722">  1  6  2 -1</clus>
<clus scale="  102.722">  1  3  2 -1</clus>
</clustering>
</event>
<event>
 6    0  0.6132510E+002  0.1789460E+03  0.7546771E-02  0.1168827E+00
         21   -1    0    0  504  501  0.00000000000E+00  0.00000000000E+00  0.11372551590E+03  0.11372551590E+03  0.00000000000E+00 0.  1.
         21   -1    0    0  506  502 -0.00000000000E+00 -0.00000000000E+00 -0.55152073991E+03  0.55152073991E+03  0.00000000000E+00 0.  1.
         21    1    1    2  503  505 -0.68228602387E+02  0.72633738769E+02 -0.10831897163E+02  0.10024037204E+03  0.00000000000E+00 0.  1.
         21    1    1    2  504  502  0.12815008033E+01  0.39544754609E+02 -0.21698406057E+03  0.22056181084E+03  0.00000000000E+00 0.  1.
         21    1    1    2  505  501  0.38597819340E+01  0.69152054055E+02 -0.15118423138E+02  0.70890558008E+02  0.00000000000E+00 0.  1.
         21    1    1    2  506  503  0.63087319650E+02 -0.18133054743E+03 -0.19486084314E+03  0.27355351492E+03  0.00000000000E+00 0.  1.
<scales pt_clust_3="55.76231" pt_clust_4="39.56551" pt_clust_5="55.76231" pt_clust_6="166.30050"></scales>
<clustering>
<clus scale="   39.566">  2  4  1 -1</clus>
<clus scale="   55.762">  3  5 -1 -1</clus>
<clus scale="  166.301">  2  6  1 -1</clus>
<clus scale="  178.946">  1  3  2 -1</clus>
</clustering>
</event>
<event>
 6    0  0.6132510E+002  0.1125715E+03  0.7546771E-02  0.1255881E+00
         21   -1    0    0  506  501  0.00000000000E+00  0.00000000000E+00  0.42750834419E+03  0.42750834419E+03  0.00000000000E+00 0. -1.
         21   -1    0    0  505  502 -0.00000000000E+00 -0.00000000000E+00 -0.12260986177E+04  0.12260986177E+04  0.00000000000E+00 0. -1.
         21    1    1    2  503  502 -0.65718212400E+02  0.99558758427E+02 -0.39974329130E+03  0.41716367143E+03  0.00000000000E+00 0. -1.
         21    1    1    2  504  501 -0.41421363933E+02  0.28845272854E+01 -0.65667397644E+01  0.42037744455E+02  0.00000000000E+00 0. -1.
         21    1    1    2  505  504  0.10169864138E+03 -0.52227512760E+02 -0.78760895700E+03  0.79586317661E+03  0.00000000000E+00 0. -1.
         21    1    1    2  506  503  0.54409349522E+01 -0.50215772953E+02  0.39532871456E+03  0.39854236937E+03  0.00000000000E+00 0. -1.
<scales pt_clust_3="14000.00000" pt_clust_4="41.52168" pt_clust_5="112.57152" pt_clust_6="58.75121"></scales>
<clustering>
<clus scale="   41.522">  1  4  2 -1</clus>
<clus scale="   58.751">  1  6  2 -1</clus>
<clus scale="  112.572">  2  5  1 -1</clus>
<clus scale="   41.522">  1  3  2 -1</clus>
</clustering>
</event>
<event>
 6    0  0.6132510E+002  0.5034383E+03  0.7546771E-02  0.1012885E+00
         21   -1    0    0  506  501  0.00000000000E+00  0.00000000000E+00  0.51938230765E+03  0.51938230765E+03  0.00000000000E+00 0.  1.
         21   -1    0    0  503  502 -0.00000000000E+00 -0.00000000000E+00 -0.78314985966E+03  0.78314985966E+03  0.00000000000E+00 0. -1.
         21    1    1    2  503  501  0.13585647535E+02  0.27431528226E+02  0.43875496869E+02  0.53498764334E+02  0.00000000000E+00 0. -1.
         21    1    1    2  504  502  0.29405973918E+03  0.22886266331E+02 -0.21584360563E+03  0.36549059288E+03  0.00000000000E+00 0. -1.
         21    1    1    2  505  504  0.13970099168E+03  0.11759303414E+03 -0.30880365433E+03  0.35875365598E+03  0.00000000000E+00 0. -1.
         21    1    1    2  506  505 -0.44734637839E+03 -0.16791082870E+03  0.21700421108E+03  0.52478915412E+03  0.00000000000E+00 0.  1.
<scales pt_clust_3="30.61141" pt_clust_4="160.05096" pt_clust_5="160.05096" pt_clust_6="460.49745"></scales>
<clustering>
<clus scale="   30.611">  1  3  2 -1</clus>
<clus scale="  160.051">  4  5 -1 -1</clus>
<clus scale="  460.497">  1  6  2 -1</clus>
<clus scale="   30.611">  1  3  2 -1</clus>
</clustering>
</event>
<event>
 6    0  0.6132510E+002  0.1838389E+03  0.7546771E-02  0.1164139E+00
         21   -1    0    0  504  501  0.00000000000E+00  0.00000000000E+00  0.11620811797E+04  0.11620811797E+04  0.00000000000E+00 0.  1.
         21   -1    0    0  503  502 -0.00000000000E+00 -0.00000000000E+00 -0.27605796109E+03  0.27605796109E+03  0.00000000000E+00 0.  1.
         21    1    1    2  503  505  0.86378240011E+02  0.98404341697E+02 -0.21615523135E+03  0.25272059444E+03  0.00000000000E+00 0.  1.
         21    1    1    2  504  502 -0.24192015958E+02  0.22170748080E+02  0.33464762799E+02  0.46868817520E+02  0.00000000000E+00 0.  1.
         21    1    1    2  505  506 -0.21516875533E+03 -0.82671795237E+02  0.71690558922E+03  0.75305102275E+03  0.00000000000E+00 0.  1.
         21    1    1    2  506  501  0.15298253127E+03 -0.37903294540E+02  0.35180809790E+03  0.38549870604E+03  0.00000000000E+00 0. -1.
<scales pt_clust_3="130.94999" pt_clust_4="32.81457" pt_clust_5="183.83890" pt_clust_6="14000.00000"></scales>
<clustering>
<clus scale="   32.815">  1  4  2 -1</clus>
<clus scale="  130.950">  2  3  1 -1</clus>
<clus scale="  183.839">  2  5  1 -1</clus>
<clus scale="   32.815">  1  3  2 -1</clus>
</clustering>
</event>
<event>
 6    0  0.6132510E+002  0.1214506E+03  0.7546771E-02  0.1240723E+00
         21   -1    0    0  505  501  0.00000000000E+00  0.00000000000E+00  0.28980807580E+03  0.28980807580E+03  0.00000000000E+00 0.  1.
         21   -1    0    0  506  502 -0.00000000000E+00 -0.00000000000E+00 -0.21612511217E+03  0.21612511217E+03  0.00000000000E+00 0. -1.
         21    1    1    2  503  502  0.47348448649E+02  0.25921277723E+02  0.62134250503E+02  0.82307067217E+02  0.00000000000E+00 0.  1.
         21    1    1    2  504  501 -0.88099796662E+02  0.40068231378E+01 -0.81329679345E+02  0.11996726864E+03  0.00000000000E+00 0. -1.
         21    1    1    2  505  503  0.54560557676E+02  0.31075760457E+02  0.18327523167E+03  0.19373272280E+03  0.00000000000E+00 0.  1.
         21    1    1    2  506  504 -0.13809209663E+02 -0.61003861318E+02 -0.90396839201E+02  0.10992612931E+03  0.00000000000E+00 0. -1.
<scales pt_clust_3="44.83285" pt_clust_4="111.41011" pt_clust_5="44.83285" pt_clust_6="62.54731"></scales>
<clustering>
<clus scale="   44.833">  3  5 -1 -1</clus>
<clus scale="   62.547">  2  6  1 -1</clus>
<clus scale="  111.410">  2  4  1 -1</clus>
<clus scale="  121.451">  1  3  2 -1</clus>
</clustering>
</event>
<event>
 6    0  0.6132510E+002  0.5471826E+02  0.7546771E-02  0.1421436E+00
         21   -1    0    0  506  501  0.00000000000E+00  0.00000000000E+00  0.70114984584E+03  0.70114984584E+03  0.00000000000E+00 0.  1.
         21   -1    0    0  504  502 -0.00000000000E+00 -0.00000000000E+00 -0.33066941303E+03  0.33066941303E+03  0.00000000000E+00 0. -1.
         21    1    1    2  503  501  0.49988177669E+02 -0.72888641984E+01  0.38019212538E+03  0.38353356783E+03  0.00000000000E+00 0.  1.
         21    1    1    2  504  505 -0.47876614998E+01 -0.52119141743E+02 -0.26929602715E+03  0.27433497203E+03  0.00000000000E+00 0. -1.
         21    1    1    2  505  503 -0.54912516479E+02 -0.32502252750E+02  0.27318047758E+03  0.28053405182E+03  0.00000000000E+00 0.  1.
         21    1    1    2  506  502  0.97120003097E+01  0.91910258692E+02 -0.13596143006E+02  0.93416667182E+02  0.00000000000E+00 0.  1.
<scales pt_clust_3="50.51678" pt_clust_4="14000.00000" pt_clust_5="40.50911" pt_clust_6="54.71826"></scales>
<clustering>
<clus scale="   50.517">  1  3  2 -1</clus>
<clus scale="   40.509">  1  5  2 -1</clus>
<clus scale="   54.718">  1  6  2 -1</clus>
<clus scale="   50.517">  1  3  2 -1</clus>
</clustering>
</event>
<event>
 6    0  0.6132510E+002  0.1361615E+03  0.7546771E-02  0.1218589E+00
         21   -1    0    0  506  501  0.00000000000E+00  0.00000000000E+00  0.30775895249E+03  0.30775895249E+03  0.00000000000E+00 0. -1.
         21   -1    0    0  505  502 -0.00000000000E+00 -0.00000000000E+00 -0.31552415827E+03  0.31552415827E+03  0.00000000000E+00 0. -1.
         21    1    1    2  503  502 -0.35810004583E+02 -0.20334157744E+02  0.68654347776E+02  0.80057815783E+02  0.00000000000E+00 0. -1.
         21    1    1    2  504  501 -0.10202455032E+02 -0.81508487189E+02  0.13968643715E+02  0.83323745594E+02  0.00000000000E+00 0.  1.
         21    1    1    2  505  504  0.10536895080E+03  0.76256066391E+02 -0.25324108708E+03  0.28469044880E+03  0.00000000000E+00 0. -1.
         21    1    1    2  506  503 -0.59356491184E+02  0.25586578543E+02  0.16285288981E+03  0.17521110058E+03  0.00000000000E+00 0. -1.
<scales pt_clust_3="39.76861" pt_clust_4="82.14453" pt_clust_5="126.71850" pt_clust_6="39.76861"></scales>
<clustering>
<clus scale="   39.769">  3  6 -1 -1</clus>
<clus scale="   82.145">  1  4  2 -1</clus>
<clus scale="  126.718">  2  5  1 -1</clus>
<clus scale="   82.145">  1  3  2 -1</clus>
</clustering>
</event>
<event>
 6    0  0.6132510E+002  0.1327250E+03  0.7546771E-02  0.1223467E+00
         21   -1    0    0  505  501  0.00000000000E+00  0.00000000000E+00  0.75858296449E+02  0.75858296449E+02  0.00000000000E+00 0.  1.
         21   -1    0    0  503  502 -0.00000000000E+00 -0.00000000000E+00 -0.71471023649E+03  0.71471023649E+03  0.00000000000E+00 0.  1.
         21    1    1    2  503  506  0.32017331963E+02 -0.78893359593E+02 -0.29649175344E+03  0.30847468549E+03  0.00000000000E+00 0.  1.
         21    1    1    2  504  502 -0.33360580143E+02  0.23825903167E+02 -0.13167709975E+03  0.13791106036E+03  0.00000000000E+00 0.  1.
         21    1    1    2  505  504 -0.21350101449E+02  0.15594900623E+03 -0.77148239147E+02  0.17529338316E+03  0.00000000000E+00 0.  1.
         21    1    1    2  506  501  0.22693349630E+02 -0.10088154981E+03 -0.13353484770E+03  0.16888940393E+03  0.00000000000E+00 0. -1.
<scales pt_clust_3="68.05400" pt_clust_4="40.99515" pt_clust_5="14000.00000" pt_clust_6="132.72504"></scales>
<clustering>
<clus scale="   40.995">  2  4  1 -1</clus>
<clus scale="   68.054">  2  3  1 -1</clus>
<clus scale="  132.725">  2  6  1 -1</clus>
<clus scale="  132.725">  1  3  2 -1</clus>
</clustering>
</event>
<event>
 6    0  0.6132510E+002  0.1210671E+03  0.7546771E-02  0.1241347E+00
         21   -1    0    0  505  501  0.00000000000E+00  0.00000000000E+00  0.32035880181E+03  0.32035880181E+03  0.00000000000E+00 0. -1.
         21   -1    0    0  506  502 -0.00000000000E+00 -0.00000000000E+00 -0.21819241176E+03  0.21819241176E+03  0.00000000000E+00 0. -1.
         21    1    1    2  503  504 -0.92437797130E+02 -0.39290807488E+02  0.22202891391E+03  0.24369110059E+03  0.00000000000E+00 0. -1.
         21    1    1    2  504  502 -0.13614385016E+02  0.60812766426E+02 -0.11855586084E+01  0.62329363778E+02  0.00000000000E+00 0.  1.
         21    1    1    2  505  503 -0.30181389908E+02  0.88773643317E+01  0.18770490837E+02  0.36634071852E+02  0.00000000000E+00 0. -1.
         21    1    1    2  506  501  0.13623357205E+03 -0.30399323270E+02 -0.13744745610E+03  0.19589667735E+03  0.00000000000E+00 0. -1.
<scales pt_clust_3="14000.00000" pt_clust_4="63.97643" pt_clust_5="31.45988" pt_clust_6="121.06708"></scales>
<clustering>
<clus scale="   31.460">  1  5  2 -1</clus>
<clus scale="   63.976">  2  4  1 -1</clus>
<clus scale="  121.067">  2  6  1 -1</clus>
<clus scale="   31.460">  1  3  2 -1</clus>
</clustering>
</event>
<event>
 6    0  0.6132510E+002  0.8864326E+02  0.7546771E-02  0.1306171E+00
         21   -1    0    0  506  501  0.00000000000E+00  0.00000000000E+00  0.85074548441E+02  0.85074548441E+02  0.00000000000E+00 0.  1.
         21   -1    0    0  505  502 -0.00000000000E+00 -0.00000000000E+00 -0.15680973067E+04  0.15680973067E+04  0.00000000000E+00 0.  1.
         21    1    1    2  503  501  0.31707576272E+02 -0.40680730117E+02  0.64665626099E+02  0.82715992376E+02  0.00000000000E+00 0.  1.
         21    1    1    2  504  503 -0.11649977259E+02  0.50378910924E+02 -0.11741717139E+03  0.12829867019E+03  0.00000000000E+00 0. -1.
         21    1    1    2  505  504 -0.12551660133E+02  0.84891685452E+02 -0.83117535805E+03  0.83559357242E+03  0.00000000000E+00 0.  1.
         21    1    1    2  506  502 -0.75059388803E+01 -0.94589866258E+02 -0.59909585489E+03  0.60656362013E+03  0.00000000000E+00 0. -1.
<scales pt_clust_3="51.57802" pt_clust_4="31.13379" pt_clust_5="88.64326" pt_clust_6="14000.00000"></scales>
<clustering>
<clus scale="   51.578">  1  3  2 -1</clus>
<clus scale="   31.134">  1  4  2 -1</clus>
<clus scale="   88.643">  2  5  1 -1</clus>
<clus scale="   51.578">  1  3  2 -1</clus>
</clustering>
</event>
<event>
 6    0  0.6132510E+002  0.1639310E+03  0.7546771E-02  0.1184329E+00
         21   -1    0    0  506  501  0.00000000000E+00  0.00000000000E+00  0.11387761041E+04  0.11387761041E+04  0.00000000000E+00 0.  1.
         21   -1    0    0  504  502 -0.00000000000E+00 -0.00000000000E+00 -0.10741516037E+04  0.10741516037E+04  0.00000000000E+00 0.  1.
         21    1    1    2  503  505 -0.47653365791E+02  0.22685077325E+02  0.29716720667E+03  0.30181750235E+03  0.00000000000E+00 0. -1.
         21    1    1    2  504  503 -0.53534452130E+02 -0.15692884985E+03 -0.99179274746E+03  0.10055572860E+04  0.00000000000E+00 0.  1.
         21    1    1    2  505  501 -0.56263501746E+02  0.49828840103E+02  0.71835953218E+03  0.72228035583E+03  0.00000000000E+00 0.  1.
         21    1    1    2  506  502  0.15745131967E+03  0.84414932418E+02  0.40890508984E+02  0.18327256370E+03  0.00000000000E+00 0. -1.
<scales pt_clust_3="31.63227" pt_clust_4="163.93097" pt_clust_5="132.21901" pt_clust_6="14000.00000"></scales>
<clustering>
<clus scale="   31.632">  3  5 -1 -1</clus>
<clus scale="  132.219">  1  3  2 -1</clus>
<clus scale="  163.931">  2  4  1 -1</clus>
<clus scale="  132.219">  1  3  2 -1</clus>
</clustering>
</event>
<event>
 6    0  0.6132510E+002  0.1369119E+03  0.7546771E-02  0.1217546E+00
         21   -1    0    0  504  501  0.00000000000E+00  0.00000000000E+00  0.35813567919E+03  0.35813567919E+03  0.00000000000E+00 0.  1.
         21   -1    0    0  505  502 -0.00000000000E+00 -0.00000000000E+00 -0.60820947975E+03  0.60820947975E+03  0.00000000000E+00 0.  1.
         21    1    1    2  503  501 -0.62228914857E+02  0.69355844858E+02  0.26448387704E+03  0.28041824525E+03  0.00000000000E+00 0.  1.
         21    1    1    2  504  502  0.15618686238E+02  0.67865233926E+02  0.47989067084E+02  0.84572950139E+02  0.00000000000E+00 0. -1.
         21    1    1    2  505  506  0.81396360924E+02 -0.24925058875E+02 -0.15096630226E+03  0.17331315746E+03  0.00000000000E+00 0.  1.
         21    1    1    2  506  503 -0.34786132305E+02 -0.11229601991E+03 -0.41158044242E+03  0.42804080608E+03  0.00000000000E+00 0.  1.
<scales pt_clust_3="136.91189" pt_clust_4="69.63931" pt_clust_5="84.97974" pt_clust_6="14000.00000"></scales>
<clustering>
<clus scale="   69.639">  1  4  2 -1</clus>
<clus scale="   84.980">  2  5  1 -1</clus>
<clus scale="  136.912">  1  3  2 -1</clus>
<clus scale="   69.639">  1  3  2 -1</clus>
</clustering>
</event>
<event>
 6    0  0.6132510E+002  0.8323483E+02  0.7546771E-02  0.1320114E+00
         21   -1    0    0  504  501  0.00000000000E+00  0.00000000000E+00  0.34123364002E+03  0.34123364002E+03  0.00000000000E+00 0. -1.
         21   -1    0    0  505  502 -0.00000000000E+00 -0.00000000000E+00 -0.16289304422E+03  0.16289304422E+03  0.00000000000E+00 0.  1.
         21    1    1    2  503  502  0.81723102737E+02 -0.84911918590E+02 -0.49725644477E+02  0.12791145046E+03  0.00000000000E+00 0.  1.
         21    1    1    2  504  506  0.66138123933E+01  0.35023102997E+02  0.19415018693E+03  0.19739466898E+03  0.00000000000E+00 0. -1.
         21    1    1    2  505  501 -0.44171723252E+02  0.51701692167E+02 -0.49708338779E+02  0.84232565271E+02  0.00000000000E+00 0.  1.
         21    1    1    2  506  503 -0.44165191878E+02 -0.18128765745E+01  0.83624392133E+02  0.94587999529E+02  0.00000000000E+00 0. -1.
<scales pt_clust_3="14000.00000" pt_clust_4="35.64211" pt_clust_5="83.23483" pt_clust_6="44.66428"></scales>
<clustering>
<clus scale="   35.642">  1  4  2 -1</clus>
<clus scale="   44.664">  1  6  2 -1</clus>
<clus scale="   83.235">  2  5  1 -1</clus>
<clus scale="   35.642">  1  3  2 -1</clus>
</clustering>
</event>
<event>
 6    0  0.6132510E+002  0.8026012E+02  0.7546771E-02  0.1328315E+00
         21   -1    0    0  506  501  0.00000000000E+00  0.00000000000E+00  0.12093212776E+03  0.12093212776E+03  0.00000000000E+00 0. -1.
         21   -1    0    0  503  502 -0.00000000000E+00 -0.00000000000E+00 -0.14210957605E+04  0.14210957605E+04  0.00000000000E+00 0. -1.
         21    1    1    2  503  501  0.28438725890E+02 -0.34705553771E+02 -0.45581800900E+02  0.63960434380E+02  0.00000000000E+00 0.  1.
         21    1    1    2  504  502 -0.43126180097E+02 -0.14695693998E+02 -0.11592845403E+04  0.11601795017E+04  0.00000000000E+00 0. -1.
         21    1    1    2  505  504  0.38451459403E+01 -0.63392896307E+02 -0.17046342373E+03  0.18190993178E+03  0.00000000000E+00 0. -1.
         21    1    1    2  506  505  0.10842308267E+02  0.11279414408E+03  0.75166132214E+02  0.13597802035E+03  0.00000000000E+00 0. -1.
<scales pt_clust_3="44.86911" pt_clust_4="45.49863" pt_clust_5="80.26012" pt_clust_6="14000.00000"></scales>
<clustering>
<clus scale="   44.869">  1  3  2 -1</clus>
<clus scale="   45.499">  2  4  1 -1</clus>
<clus scale="   80.260">  2  5  1 -1</clus>
<clus scale="   44.869">  1  3  2 -1</clus>
</clustering>
</event>
<event>
 6    0  0.6132510E+002  0.1140725E+03  0.7546771E-02  0.1253209E+00
         21   -1    0    0  503  501  0.00000000000E+00  0.00000000000E+00  0.88749559772E+03  0.88749559772E+03  0.00000000000E+00 0. -1.
         21   -1    0    0  504  502 -0.00000000000E+00 -0.00000000000E+00 -0.55561174216E+03  0.55561174216E+03  0.00000000000E+00 0. -1.
         21    1    1    2  503  502  0.36962185657E+02  0.37902805037E+02 -0.40949251708E+02  0.66930314610E+02  0.00000000000E+00 0. -1.
         21    1    1    2  504  506 -0.27408465291E+02  0.77470159593E+02 -0.49276242807E+03  0.49956747303E+03  0.00000000000E+00 0. -1.
         21    1    1    2  505  501 -0.19677276552E+02 -0.24814494550E+02  0.45137334056E+03  0.45248297970E+03  0.00000000000E+00 0. -1.
         21    1    1    2  506  505  0.10123556185E+02 -0.90558470081E+02  0.41422219477E+03  0.42412657254E+03  0.00000000000E+00 0. -1.
<scales pt_clust_3="52.00224" pt_clust_4="14000.00000" pt_clust_5="31.66945" pt_clust_6="114.07252"></scales>
<clustering>
<clus scale="   31.669">  1  5  2 -1</clus>
<clus scale="   52.002">  2  3  1 -1</clus>
<clus scale="  114.073">  1  6  2 -1</clus>
<clus scale="   31.669">  1  3  2 -1</clus>
</clustering>
</event>
<event>
 6    0  0.6132510E+002  0.8449261E+02  0.7546771E-02  0.1316765E+00
         21   -1    0    0  503  501  0.00000000000E+00  0.00000000000E+00  0.68166628831E+03  0.68166628831E+03  0.00000000000E+00 0.  1.
         21   -1    0    0  504  502 -0.00000000000E+00 -0.00000000000E+00 -0.66050956367E+03  0.66050956367E+03  0.00000000000E+00 0. -1.
         21    1    1    2  503  502  0.20930278020E+02 -0.98999415547E+02  0.60299396002E+03  0.61142511940E+03  0.00000000000E+00 0.  1.
         21    1    1    2  504  506 -0.81221958784E+02  0.27258970409E+02 -0.57732276977E+03  0.58364513067E+03  0.00000000000E+00 0. -1.
         21    1    1    2  505  501 -0.26155493412E+02  0.31500620626E+02  0.24151268584E+02  0.47536120053E+02  0.00000000000E+00 0.  1.
         21    1    1    2  506  505  0.86447174176E+02  0.40239824512E+02 -0.28665734186E+02  0.99569481851E+02  0.00000000000E+00 0.  1.
<scales pt_clust_3="69.47873" pt_clust_4="84.49261" pt_clust_5="40.94385" pt_clust_6="14000.00000"></scales>
<clustering>
<clus scale="   40.944">  1  5  2 -1</clus>
<clus scale="   69.479">  1  3  2 -1</clus>
<clus scale="   84.493">  2  4  1 -1</clus>
<clus scale="   40.944">  1  3  2 -1</clus>
</clustering>
</event>
<event>
 6    0  0.6132510E+002  0.9406685E+02  0.7546771E-02  0.1293292E+00
         21   -1    0    0  505  501  0.00000000000E+00  0.00000000000E+00  0.54536059260E+02  0.54536059260E+02  0.00000000000E+00 0. -1.
         21   -1    0    0  506  502 -0.00000000000E+00 -0.00000000000E+00 -0.14452405082E+04  0.14452405082E+04  0.00000000000E+00 0. -1.
         21    1    1    2  503  502  0.12202024467E+03  0.53616536515E+02 -0.10146431561E+04  0.10233593735E+04  0.00000000000E+00 0. -1.
         21    1    1    2  504  501 -0.57966407513E+01 -0.41720997682E+02 -0.66047765064E+02  0.78336134456E+02  0.00000000000E+00 0.  1.
         21    1    1    2  505  503 -0.56725040444E+02  0.14963236425E+02  0.19763507044E+02  0.61904966427E+02  0.00000000000E+00 0. -1.
         21    1    1    2  506  504 -0.59498563477E+02 -0.26858775257E+02 -0.32977703478E+03  0.33617609304E+03  0.00000000000E+00 0. -1.
<scales pt_clust_3="94.06685" pt_clust_4="42.12176" pt_clust_5="64.85612" pt_clust_6="14000.00000"></scales>
<clustering>
<clus scale="   42.122">  1  4  2 -1</clus>
<clus scale="   64.856">  1  5  2 -1</clus>
<clus scale="   94.067">  1  3  2 -1</clus>
<clus scale="   42.122">  1  3  2 -1</clus>
</clustering>
</event>
<event>
 6    0  0.6132510E+002  0.9930333E+02  0.7546771E-02  0.1281768E+00
         21   -1    0    0  505  501  0.00000000000E+00  0.00000000000E+00  0.72932784846E+03  0.72932784846E+03  0.00000000000E+00 0.  1.
         21   -1    0    0  504  502 -0.00000000000E+00 -0.00000000000E+00 -0.35862405323E+03  0.35862405323E+03  0.00000000000E+00 0.  1.
         21    1    1    2  503  506  0.48233631916E+02  0.35761725451E+02 -0.47626708571E+02  0.76639987111E+02  0.00000000000E+00 0.  1.
         21    1    1    2  504  501 -0.41067903546E+02 -0.11762284569E+03  0.61284415816E+03  0.62537961969E+03  0.00000000000E+00 0.  1.
         21    1    1    2  505  503  0.25284903226E+02  0.54865856659E+02  0.84427610103E+02  0.10381526817E+03  0.00000000000E+00 0. -1.
         21    1    1    2  506  502 -0.32450631596E+02  0.26995263575E+02 -0.27894126447E+03  0.28211702672E+03  0.00000000000E+00 0.  1.
<scales pt_clust_3="61.47207" pt_clust_4="99.30333" pt_clust_5="14000.00000" pt_clust_6="42.21123"></scales>
<clustering>
<clus scale="   42.211">  2  6  1 -1</clus>
<clus scale="   61.472">  2  3  1 -1</clus>
<clus scale="   99.303">  1  4  2 -1</clus>
<clus scale="   99.303">  1  3  2 -1</clus>
</clustering>
</event>
<event>
 6    0  0.6132510E+002  0.8336895E+02  0.7546771E-02  0.1319754E+00
         21   -1    0    0  506  501  0.00000000000E+00  0.00000000000E+00  0.12537145260E+04  0.12537145260E+04  0.00000000000E+00 0. -1.
         21   -1    0    0  504  502 -0.00000000000E+00 -0.00000000000E+00 -0.40604555322E+02  0.40604555322E+02  0.00000000000E+00 0.  1.
         21    1    1    2  503  505  0.34950507872E+02  0.35120096487E+02  0.85324887369E+03  0.85468625801E+03  0.00000000000E+00 0. -1.
         21    1    1    2  504  503  0.12175334133E+02 -0.71104921605E+02  0.13054582150E+03  0.14915213759E+03  0.00000000000E+00 0.  1.
         21    1    1    2  505  501  0.34170529349E+02  0.33454439067E+02  0.19739610109E+03  0.20310599522E+03  0.00000000000E+00 0. -1.
         21    1    1    2  506  502 -0.81296371354E+02  0.25303860507E+01  0.31919174433E+02  0.87374690531E+02  0.00000000000E+00 0.  1.
<scales pt_clust_3="83.36895" pt_clust_4="68.72653" pt_clust_5="47.82075" pt_clust_6="14000.00000"></scales>
<clustering>
<clus scale="   47.821">  1  5  2 -1</clus>
<clus scale="   68.727">  2  4  1 -1</clus>
<clus scale="   83.369">  1  3  2 -1</clus>
<clus scale="   47.821">  1  3  2 -1</clus>
</clustering>
</event>
<event>
 6    0  0.6132510E+002  0.1647530E+03  0.7546771E-02  0.1183433E+00
         21   -1    0    0  504  501  0.00000000000E+00  0.00000000000E+00  0.51847949213E+03  0.51847949213E+03  0.00000000000E+00 0.  1.
         21   -1    0    0  503  502 -0.00000000000E+00 -0.00000000000E+00 -0.11055155263E+03  0.11055155263E+03  0.00000000000E+00 0.  1.
         21    1    1    2  503  505 -0.90433045709E+02  0.61141780687E+02  0.21332035326E+03  0.23962893443E+03  0.00000000000E+00 0.  1.
         21    1    1    2  504  506  0.14745794080E+03 -0.86991062148E+02  0.37698221708E+02  0.17530671726E+03  0.00000000000E+00 0.  1.
         21    1    1    2  505  501 -0.45205287801E+02 -0.17356073846E+01  0.17384595979E+03  0.17963559812E+03  0.00000000000E+00 0.  1.
         21    1    1    2  506  502 -0.11819607286E+02  0.27584888845E+02 -0.16936595253E+02  0.34459794947E+02  0.00000000000E+00 0.  1.
<scales pt_clust_3="39.95430" pt_clust_4="152.26757" pt_clust_5="39.95430" pt_clust_6="30.01048"></scales>
<clustering>
<clus scale="   30.010">  2  6  1 -1</clus>
<clus scale="   39.954">  3  5 -1 -1</clus>
<clus scale="  152.268">  2  4  1 -1</clus>
<clus scale="  164.753">  1  3  2 -1</clus>
</clustering>
</event>
<event>
 6    0  0.6132510E+002  0.7577702E+02  0.7546771E-02  0.1341482E+00
         21   -1    0    0  503  501  0.00000000000E+00  0.00000000000E+00  0.78180543747E+02  0.78180543747E+02  0.00000000000E+00 0. -1.
         21   -1    0    0  505  502 -0.00000000000E+00 -0.00000000000E+00 -0.49632208779E+03  0.49632208779E+03  0.00000000000E+00 0.  1.
         21    1    1    2  503  504  0.43401813256E+02 -0.11930217887E+03 -0.33022445724E+02  0.13117625242E+03  0.00000000000E+00 0. -1.
         21    1    1    2  504  502  0.18467665311E+02  0.25740644079E+02 -0.16003564277E+03  0.16314117315E+03  0.00000000000E+00 0.  1.
         21    1    1    2  505  506 -0.33597910878E+02  0.48122132006E+02 -0.21852395981E+03  0.22626815997E+03  0.00000000000E+00 0.  1.
         21    1    1    2  506  501 -0.28271567688E+02  0.45439402785E+02 -0.65594957390E+01  0.53917046000E+02  0.00000000000E+00 0.  1.
<scales pt_clust_3="14000.00000" pt_clust_4="31.68021" pt_clust_5="75.77702" pt_clust_6="54.67358"></scales>
<clustering>
<clus scale="   31.680">  2  4  1 -1</clus>
<clus scale="   54.674">  1  6  2 -1</clus>
<clus scale="   75.777">  2  5  1 -1</clus>
<clus scale="   54.674">  1  3  2 -1</clus>
</clustering>
</event>
<event>
 6    0  0.6132510E+002  0.2838588E+03  0.7546771E-02  0.1093600E+00
         21   -1    0    0  506  501  0.00000000000E+00  0.00000000000E+00  0.84805036473E+03  0.84805036473E+03  0.00000000000E+00 0.  1.
         21   -1    0    0  505  502 -0.00000000000E+00 -0.00000000000E+00 -0.21982354344E+03  0.21982354344E+03  0.00000000000E+00 0. -1.
         21    1    1    2  503  502 -0.91837898975E+02 -0.30588910635E+03  0.20953347108E+02  0.32006466195E+03  0.00000000000E+00 0. -1.
         21    1    1    2  504  503 -0.11897865542E+00  0.77884388017E+02  0.12732914404E+03  0.14926052048E+03  0.00000000000E+00 0.  1.
         21    1    1    2  505  501  0.64928344196E+02  0.34804509605E+02 -0.69808126518E+01  0.73998483189E+02  0.00000000000E+00 0.  1.
         21    1    1    2  506  504  0.27028533434E+02  0.19320020873E+03  0.48692514279E+03  0.52455024254E+03  0.00000000000E+00 0.  1.
<scales pt_clust_3="279.41760" pt_clust_4="31.60305" pt_clust_5="73.66847" pt_clust_6="31.60305"></scales>
<clustering>
<clus scale="   31.603">  4  6 -1 -1</clus>
<clus scale="   73.668">  2  5  1 -1</clus>
<clus scale="  279.418">  2  3  1 -1</clus>
<clus scale="  283.859">  1  3  2 -1</clus>
</clustering>
</event>
<event>
 6    0  0.6132510E+002  0.1329259E+03  0.7546771E-02  0.1223178E+00
         21   -1    0    0  506  501  0.00000000000E+00  0.00000000000E+00  0.96180808362E+03  0.96180808362E+03  0.00000000000E+00 0.  1.
         21   -1    0    0  503  502 -0.00000000000E+00 -0.00000000000E+00 -0.54523662189E+03  0.54523662189E+03  0.00000000000E+00 0. -1.
         21    1    1    2  503  505  0.20286691091E+02 -0.14309678860E+03  0.46290763626E+02  0.15175992732E+03  0.00000000000E+00 0.  1.
         21    1    1    2  504  502 -0.10840247942E+03  0.11991312006E+02 -0.47009079564E+03  0.48257667292E+03  0.00000000000E+00 0. -1.
         21    1    1    2  505  501  0.77114747913E+02  0.18108585684E+02  0.61775926594E+03  0.62281708059E+03  0.00000000000E+00 0.  1.
         21    1    1    2  506  504  0.11001040414E+02  0.11299689091E+03  0.22261222780E+03  0.24989102467E+03  0.00000000000E+00 0.  1.
<scales pt_clust_3="14000.00000" pt_clust_4="107.70007" pt_clust_5="79.21241" pt_clust_6="132.92587"></scales>
<clustering>
<clus scale="   79.212">  1  5  2 -1</clus>
<clus scale="  107.700">  2  4  1 -1</clus>
<clus scale="  132.926">  1  6  2 -1</clus>
<clus scale="   79.212">  1  3  2 -1</clus>
</clustering>
</event>
<event>
 6    0  0.6132510E+002  0.1636633E+03  0.7546771E-02  0.1184622E+00
         21   -1    0    0  506  501  0.00000000000E+00  0.00000000000E+00  0.48188246443E+03  0.48188246443E+03  0.00000000000E+00 0. -1.
         21   -1    0    0  503  502 -0.00000000000E+00 -0.00000000000E+00 -0.29471326072E+03  0.29471326072E+03  0.00000000000E+00 0.  1.
         21    1    1    2  503  505 -0.14429654590E+03 -0.54289727692E+02 -0.17073384640E+03  0.23004111372E+03  0.00000000000E+00 0.  1.
         21    1    1    2  504  501  0.80798934443E+02  0.89267295637E+02  0.45331516037E+02  0.12865482589E+03  0.00000000000E+00 0. -1.
         21    1    1    2  505  504  0.46497040121E+02  0.81103270188E+02  0.10778944108E+02  0.94105795843E+02  0.00000000000E+00 0. -1.
         21    1    1    2  506  502  0.17000571338E+02 -0.11608083813E+03  0.30179258997E+03  0.32379398970E+03  0.00000000000E+00 0. -1.
<scales pt_clust_3="159.81914" pt_clust_4="31.07274" pt_clust_5="31.07274" pt_clust_6="117.31914"></scales>
<clustering>
<clus scale="   31.073">  4  5 -1 -1</clus>
<clus scale="  117.319">  1  6  2 -1</clus>
<clus scale="  159.819">  2  3  1 -1</clus>
<clus scale="  117.319">  1  3  2 -1</clus>
</clustering>
</event>
<event>
 6    0  0.6132510E+002  0.2415270E+03  0.7546771E-02  0.1118780E+00
         21   -1    0    0  505  501  0.00000000000E+00  0.00000000000E+00  0.40007146567E+03  0.40007146567E+03  0.00000000000E+00 0. -1.
         21   -1    0    0  503  502 -0.00000000000E+00 -0.00000000000E+00 -0.96000532120E+03  0.96000532120E+03  0.00000000000E+00 0.  1.
         21    1    1    2  503  506  0.30702208520E+02 -0.50251212597E+02 -0.80395278033E+02  0.99655459988E+02  0.00000000000E+00 0.  1.
         21    1    1    2  504  501 -0.12072650720E+03 -0.14458272914E+03  0.31518452192E+03  0.36717889096E+03  0.00000000000E+00 0. -1.
         21    1    1    2  505  502  0.12674033123E+03  0.21106217660E+03 -0.81276388602E+03  0.84923229352E+03  0.00000000000E+00 0.  1.
         21    1    1    2  506  504 -0.36716032543E+02 -0.16228234867E+02  0.18040786605E+02  0.44010142398E+02  0.00000000000E+00 0. -1.
<scales pt_clust_3="58.88811" pt_clust_4="39.68278" pt_clust_5="225.71281" pt_clust_6="39.68278"></scales>
<clustering>
<clus scale="   39.683">  4  6 -1 -1</clus>
<clus scale="   58.888">  2  3  1 -1</clus>
<clus scale="  225.713">  2  5  1 -1</clus>
<clus scale="  241.527">  1  3  2 -1</clus>
</clustering>
</event>
<event>
 6    0  0.6132510E+002  0.2552261E+03  0.7546771E-02  0.1110046E+00
         21   -1    0    0  505  501  0.00000000000E+00  0.00000000000E+00  0.11099602760E+04  0.11099602760E+04  0.00000000000E+00 0.  1.
         21   -1    0    0  503  502 -0.00000000000E+00 -0.00000000000E+00 -0.17289378470E+03  0.17289378470E+03  0.00000000000E+00 0.  1.
         21    1    1    2  503  506  0.75519634310E+02  0.12394740531E+02 -0.27524389052E+02  0.81329187576E+02  0.00000000000E+00 0.  1.
         21    1    1    2  504  502 -0.17471930980E+03 -0.25788546141E+03  0.22083615032E+03  0.38183812501E+03  0.00000000000E+00 0.  1.
         21    1    1    2  505  504 -0.18423482183E+02  0.22424538582E+03  0.48115797111E+03  0.53116702733E+03  0.00000000000E+00 0.  1.
         21    1    1    2  506  501  0.11762315767E+03  0.21245335060E+02  0.26259675891E+03  0.28851972077E+03  0.00000000000E+00 0. -1.
<scales pt_clust_3="76.53003" pt_clust_4="255.22607" pt_clust_5="14000.00000" pt_clust_6="127.89860"></scales>
<clustering>
<clus scale="   76.530">  2  3  1 -1</clus>
<clus scale="  127.899">  1  6  2 -1</clus>
<clus scale="  255.226">  2  4  1 -1</clus>
<clus scale="  127.899">  1  3  2 -1</clus>
</clustering>
</event>
<event>
 6    0  0.6132510E+002  0.8016098E+02  0.7546771E-02  0.1328595E+00
         21   -1    0    0  505  501  0.00000000000E+00  0.00000000000E+00  0.78579713722E+02  0.78579713722E+02  0.00000000000E+00 0.  1.
         21   -1    0    0  506  502 -0.00000000000E+00 -0.00000000000E+00 -0.38682180129E+03  0.38682180129E+03  0.00000000000E+00 0.  1.
         21    1    1    2  503  502 -0.76023867747E+02 -0.41000511078E+02 -0.10047708284E+03  0.13250024359E+03  0.00000000000E+00 0.  1.
         21    1    1    2  504  501  0.83177264479E+02  0.67040865637E+02 -0.59128470905E+02  0.12210287082E+03  0.00000000000E+00 0.  1.
         21    1    1    2  505  503 -0.33664478625E+02 -0.65787582471E+02 -0.24614838037E+02  0.77892190751E+02  0.00000000000E+00 0.  1.
         21    1    1    2  506  504  0.26511081893E+02  0.39747227912E+02 -0.12402169578E+03  0.13290620984E+03  0.00000000000E+00 0.  1.
<scales pt_clust_3="80.16098" pt_clust_4="14000.00000" pt_clust_5="64.49455" pt_clust_6="47.77740"></scales>
<clustering>
<clus scale="   47.777">  2  6  1 -1</clus>
<clus scale="   64.495">  1  5  2 -1</clus>
<clus scale="   80.161">  2  3  1 -1</clus>
<clus scale="   64.495">  1  3  2 -1</clus>
</clustering>
</event>
<event>
 6    0  0.6132510E+002  0.8982799E+02  0.7546771E-02  0.1303269E+00
         21   -1    0    0  505  501  0.00000000000E+00  0.00000000000E+00  0.37856691648E+03  0.37856691648E+03  0.00000000000E+00 0. -1.
         21   -1    0    0  504  502 -0.00000000000E+00 -0.00000000000E+00 -0.49136523640E+03  0.49136523640E+03  0.00000000000E+00 0. -1.
         21    1    1    2  503  501 -0.34067154173E+02 -0.11964998838E+02  0.37108120599E+02  0.51775909504E+02  0.00000000000E+00 0. -1.
         21    1    1    2  504  506 -0.34835227273E+02  0.85585584439E+01 -0.37097189917E+03  0.37270214911E+03  0.00000000000E+00 0. -1.
         21    1    1    2  505  502  0.12043127453E+03 -0.23787091278E+02  0.31322503349E+03  0.33642152012E+03  0.00000000000E+00 0. -1.
         21    1    1    2  506  503 -0.51528893084E+02  0.27193531672E+02 -0.92159574838E+02  0.10903257413E+03  0.00000000000E+00 0. -1.
<scales pt_clust_3="37.96893" pt_clust_4="35.87119" pt_clust_5="14000.00000" pt_clust_6="89.82799"></scales>
<clustering>
<clus scale="   35.871">  2  4  1 -1</clus>
<clus scale="   37.969">  1  3  2 -1</clus>
<clus scale="   89.828">  2  6  1 -1</clus>
<clus scale="   37.969">  1  3  2 -1</clus>
</clustering>
</event>
<event>
 6    0  0.6132510E+002  0.1430346E+03  0.7546771E-02  0.1209303E+00
         21   -1    0    0  506  501  0.00000000000E+00  0.00000000000E+00  0.10999821402E+04  0.10999821402E+04  0.00000000000E+00 0.  1.
         21   -1    0    0  504  502 -0.00000000000E+00 -0.00000000000E+00 -0.38012654771E+03  0.38012654771E+03  0.00000000000E+00 0.  1.
         21    1    1    2  503  505 -0.62124025358E+02 -0.61051364453E+01 -0.11174955359E+03  0.12800246070E+03  0.00000000000E+00 0.  1.
         21    1    1    2  504  501  0.78748371404E+02  0.59782901059E+02  0.97653241050E+03  0.98152475772E+03  0.00000000000E+00 0.  1.
         21    1    1    2  505  502 -0.61094311505E+02 -0.44948769121E+02 -0.24727663103E+03  0.25864771214E+03  0.00000000000E+00 0.  1.
         21    1    1    2  506  503  0.44469965458E+02 -0.87289954927E+01  0.10234936663E+03  0.11193375738E+03  0.00000000000E+00 0. -1.
<scales pt_clust_3="48.00246" pt_clust_4="132.85179" pt_clust_5="48.00246" pt_clust_6="45.31857"></scales>
<clustering>
<clus scale="   45.319">  1  6  2 -1</clus>
<clus scale="   48.002">  3  5 -1 -1</clus>
<clus scale="  132.852">  1  4  2 -1</clus>
<clus scale="   45.319">  1  3  2 -1</clus>
</clustering>
</event>
<event>
 6    0  0.6132510E+002  0.1705109E+03  0.7546771E-02  0.1177316E+00
         21   -1    0    0  503  501  0.00000000000E+00  0.00000000000E+00  0.10171178728E+04  0.10171178728E+04  0.00000000000E+00 0. -1.
         21   -1    0    0  505  502 -0.00000000000E+00 -0.00000000000E+00 -0.51731952836E+03  0.51731952836E+03  0.00000000000E+00 0.  1.
         21    1    1    2  503  506  0.58153044328E+02  0.22075903160E+02  0.98002393137E+02  0.11607579905E+03  0.00000000000E+00 0. -1.
         21    1    1    2  504  501 -0.21232104720E+03 -0.93209340365E+02  0.86670711893E+03  0.89718974483E+03  0.00000000000E+00 0. -1.
         21    1    1    2  505  504  0.19003114235E+02  0.34089807935E+02 -0.37772267049E+01  0.39210978019E+02  0.00000000000E+00 0.  1.
         21    1    1    2  506  502  0.13516488864E+03  0.37043629270E+02 -0.46113394096E+03  0.48196087922E+03  0.00000000000E+00 0.  1.
<scales pt_clust_3="62.74824" pt_clust_4="170.51095" pt_clust_5="39.02862" pt_clust_6="14000.00000"></scales>
<clustering>
<clus scale="   39.029">  2  5  1 -1</clus>
<clus scale="   62.748">  1  3  2 -1</clus>
<clus scale="  170.511">  1  4  2 -1</clus>
<clus scale="   62.748">  1  3  2 -1</clus>
</clustering>
</event>
<event>
 6    0  0.6132510E+002  0.1672417E+03  0.7546771E-02  0.1180755E+00
         21   -1    0    0  503  501  0.00000000000E+00  0.00000000000E+00  0.10106293200E+04  0.10106293200E+04  0.00000000000E+00 0. -1.
         21   -1    0    0  504  502 -0.00000000000E+00 -0.00000000000E+00 -0.42440825790E+03  0.42440825790E+03  0.00000000000E+00 0. -1.
         21    1    1    2  503  506  0.61131924692E+02 -0.51732390321E+01  0.40930685460E+03  0.41387918024E+03  0.00000000000E+00 0. -1.
         21    1    1    2  504  501  0.33381580604E+02  0.14884504130E+02 -0.35753903183E+03  0.35940233398E+03  0.00000000000E+00 0. -1.
         21    1    1    2  505  502 -0.18216628005E+03 -0.55192391523E+02  0.97651963256E+02  0.21393143667E+03  0.00000000000E+00 0. -1.
         21    1    1    2  506  505  0.87652774749E+02  0.45481126425E+02  0.43680127606E+03  0.44782462701E+03  0.00000000000E+00 0. -1.
<scales pt_clust_3="41.98522" pt_clust_4="36.54967" pt_clust_5="158.42009" pt_clust_6="41.98522"></scales>
<clustering>
<clus scale="   36.550">  2  4  1 -1</clus>
<clus scale="   41.985">  3  6 -1 -1</clus>
<clus scale="  158.420">  2  5  1 -1</clus>
<clus scale="  167.242">  1  3  2 -1</clus>
</clustering>
</event>
<event>
 6    0  0.6132510E+002  0.1029672E+03  0.7546771E-02  0.1274177E+00
         21   -1    0    0  505  501  0.00000000000E+00  0.00000000000E+00  0.10250983412E+03  0.10250983412E+03  0.00000000000E+00 0. -1.
         21   -1    0    0  503  502 -0.00000000000E+00 -0.00000000000E+00 -0.24584157993E+03  0.24584157993E+03  0.00000000000E+00 0. -1.
         21    1    1    2  503  501  0.31766317670E+02 -0.21404402694E+02 -0.44300720979E+02  0.58564505225E+02  0.00000000000E+00 0. -1.
         21    1    1    2  504  506 -0.91383590186E+02 -0.24611501935E+02 -0.19913557784E+02  0.96712131433E+02  0.00000000000E+00 0. -1.
         21    1    1    2  505  504 -0.30151442640E+02 -0.24031081416E+01  0.30770489726E+02  0.43147508156E+02  0.00000000000E+00 0. -1.
         21    1    1    2  506  502  0.89768715156E+02  0.48419012770E+02 -0.10988795677E+03  0.14992726924E+03  0.00000000000E+00 0. -1.
<scales pt_clust_3="35.78902" pt_clust_4="14000.00000" pt_clust_5="30.24706" pt_clust_6="102.96719"></scales>
<clustering>
<clus scale="   30.247">  1  5  2 -1</clus>
<clus scale="   35.789">  2  3  1 -1</clus>
<clus scale="  102.967">  2  6  1 -1</clus>
<clus scale="   30.247">  1  3  2 -1</clus>
</clustering>
</event>
<event>
 6    0  0.6132510E+002  0.7568461E+02  0.7546771E-02  0.1341764E+00
         21   -1    0    0  505  501  0.00000000000E+00  0.00000000000E+00  0.50387781436E+02  0.50387781436E+02  0.00000000000E+00 0. -1.
         21   -1    0    0  503  502 -0.00000000000E+00 -0.00000000000E+00 -0.95775625548E+03  0.95775625548E+03  0.00000000000E+00 0. -1.
         21    1    1    2  503  504  0.90266178583E+02 -0.74707111523E+02 -0.73214342894E+03  0.74146013787E+03  0.00000000000E+00 0. -1.
         21    1    1    2  504  501 -0.57511615443E+02  0.78548961388E+01  0.85247325669E-02  0.58045545711E+02  0.00000000000E+00 0. -1.
         21    1    1    2  505  506  0.31609141919E+01  0.46264730204E+02 -0.24749234083E+02  0.52563687343E+02  0.00000000000E+00 0. -1.
         21    1    1    2  506  502 -0.35915477332E+02  0.20587485180E+02 -0.15048433576E+03  0.15607466600E+03  0.00000000000E+00 0. -1.
<scales pt_clust_3="14000.00000" pt_clust_4="75.68461" pt_clust_5="47.27578" pt_clust_6="41.39766"></scales>
<clustering>
<clus scale="   41.398">  2  6  1 -1</clus>
<clus scale="   47.276">  1  5  2 -1</clus>
<clus scale="   75.685">  1  4  2 -1</clus>
<clus scale="   47.276">  1  3  2 -1</clus>
</clustering>
</event>
<event>
 6    0  0.6132510E+002  0.1268580E+03  0.7546771E-02  0.1232194E+00
         21   -1    0    0  506  501  0.00000000000E+00  0.00000000000E+00  0.79125044494E+03  0.79125044494E+03  0.00000000000E+00 0.  1.
         21   -1    0    0  505  502 -0.00000000000E+00 -0.00000000000E+00 -0.21222319532E+03  0.21222319532E+03  0.00000000000E+00 0.  1.
         21    1    1    2  503  502 -0.45252967759E+02 -0.29099539008E+02 -0.17764097685E+03  0.18560961968E+03  0.00000000000E+00 0.  1.
         21    1    1    2  504  503 -0.10143056265E+03  0.57818763994E+01  0.11507992027E+03  0.15350888308E+03  0.00000000000E+00 0.  1.
         21    1    1    2  505  501  0.13291067002E+03 -0.11055004977E+02  0.54007903869E+03  0.55630281985E+03  0.00000000000E+00 0.  1.
         21    1    1    2  506  504  0.13772860384E+02  0.34372667586E+02  0.10150926751E+03  0.10805231765E+03  0.00000000000E+00 0.  1.
<scales pt_clust_3="53.62662" pt_clust_4="126.85800" pt_clust_5="14000.00000" pt_clust_6="37.02934"></scales>
<clustering>
<clus scale="   37.029">  1  6  2 -1</clus>
<clus scale="   53.627">  2  3  1 -1</clus>
<clus scale="  126.858">  2  4  1 -1</clus>
<clus scale="   37.029">  1  3  2 -1</clus>
</clustering>
</event>
<event>
 6    0  0.6132510E+002  0.9988922E+02  0.7546771E-02  0.1280529E+00
         21   -1    0    0  504  501  0.00000000000E+00  0.00000000000E+00  0.63649478982E+02  0.63649478982E+02  0.00000000000E+00 0. -1.
         21   -1    0    0  503  502 -0.00000000000E+00 -0.00000000000E+00 -0.83030537031E+03  0.83030537031E+03  0.00000000000E+00 0. -1.
         21    1    1    2  503  505  0.40830212669E+02 -0.73335495161E+01 -0.57391252923E+03  0.57540983518E+03  0.00000000000E+00 0. -1.
         21    1    1    2  504  502 -0.53171547165E+01 -0.36000522122E+02 -0.16866971255E+02  0.40109904595E+02  0.00000000000E+00 0. -1.
         21    1    1    2  505  506 -0.11051009666E+03  0.71081120848E+02 -0.13590018535E+03  0.18903403816E+03  0.00000000000E+00 0. -1.
         21    1    1    2  506  501  0.74997038704E+02 -0.27747049210E+02 -0.39976205492E+02  0.89401071357E+02  0.00000000000E+00 0. -1.
<scales pt_clust_3="41.50315" pt_clust_4="36.39107" pt_clust_5="14000.00000" pt_clust_6="99.88922"></scales>
<clustering>
<clus scale="   36.391">  1  4  2 -1</clus>
<clus scale="   41.503">  2  3  1 -1</clus>
<clus scale="   99.889">  1  6  2 -1</clus>
<clus scale="   36.391">  1  3  2 -1</clus>
</clustering>
</event>
<event>
 6    0  0.6132510E+002  0.7515333E+02  0.7546771E-02  0.1343397E+00
         21   -1    0    0  506  501  0.00000000000E+00  0.00000000000E+00  0.39109764484E+03  0.39109764484E+03  0.00000000000E+00 0. -1.
         21   -1    0    0  504  502 -0.00000000000E+00 -0.00000000000E+00 -0.26129898085E+03  0.26129898085E+03  0.00000000000E+00 0.  1.
         21    1    1    2  503  502  0.56665634468E+02 -0.54709577286E+00 -0.71626857041E+02  0.91332908051E+02  0.00000000000E+00 0.  1.
         21    1    1    2  504  505 -0.14934250512E+02 -0.62358342438E+02 -0.16088552669E+03  0.17319280414E+03  0.00000000000E+00 0.  1.
         21    1    1    2  505  501  0.31137241282E+02 -0.11586780731E+02  0.68594287526E+02  0.76216517656E+02  0.00000000000E+00 0.  1.
         21    1    1    2  506  503 -0.72868625239E+02  0.74492218943E+02  0.29371676019E+03  0.31165439583E+03  0.00000000000E+00 0. -1.
<scales pt_clust_3="57.63542" pt_clust_4="75.15333" pt_clust_5="33.22320" pt_clust_6="14000.00000"></scales>
<clustering>
<clus scale="   33.223">  1  5  2 -1</clus>
<clus scale="   57.635">  2  3  1 -1</clus>
<clus scale="   75.153">  2  4  1 -1</clus>
<clus scale="   33.223">  1  3  2 -1</clus>
</clustering>
</event>
<event>
 6    0  0.6132510E+002  0.1401721E+03  0.7546771E-02  0.1213098E+00
         21   -1    0    0  505  501  0.00000000000E+00  0.00000000000E+00  0.52116404988E+03  0.52116404988E+03  0.00000000000E+00 0.  1.
         21   -1    0    0  506  502 -0.00000000000E+00 -0.00000000000E+00 -0.22873822234E+03  0.22873822234E+03  0.00000000000E+00 0.  1.
         21    1    1    2  503  504  0.36335118509E+02  0.81330657343E+02  0.29388220568E+03  0.30708576567E+03  0.00000000000E+00 0.  1.
         21    1    1    2  504  502 -0.23365564070E+02 -0.38175608613E+02 -0.97261391355E+01  0.45803105351E+02  0.00000000000E+00 0.  1.
         21    1    1    2  505  503 -0.97250797917E+01  0.52185789113E+02  0.18701592854E+03  0.19440393847E+03  0.00000000000E+00 0.  1.
         21    1    1    2  506  501 -0.32444746475E+01 -0.95340837843E+02 -0.17874616754E+03  0.20260946273E+03  0.00000000000E+00 0.  1.
<scales pt_clust_3="31.77429" pt_clust_4="44.75854" pt_clust_5="31.77429" pt_clust_6="133.99271"></scales>
<clustering>
<clus scale="   31.774">  3  5 -1 -1</clus>
<clus scale="   44.759">  2  4  1 -1</clus>
<clus scale="  133.993">  2  6  1 -1</clus>
<clus scale="  140.172">  1  3  2 -1</clus>
</clustering>
</event>
<event>
 6    0  0.6132510E+002  0.1395571E+03  0.7546771E-02  0.1213926E+00
         21   -1    0    0  504  501  0.00000000000E+00  0.00000000000E+00  0.34559115519E+03  0.34559115519E+03  0.00000000000E+00 0.  1.
         21   -1    0    0  505  502 -0.00000000000E+00 -0.00000000000E+00 -0.90098899258E+03  0.90098899258E+03  0.00000000000E+00 0.  1.
         21    1    1    2  503  501 -0.34350605708E+02 -0.11686178084E+03  0.69851940760E+02  0.14041343797E+03  0.00000000000E+00 0.  1.
         21    1    1    2  504  506  0.42085777926E+02  0.77254687714E+02  0.14061756816E+03  0.16586982834E+03  0.00000000000E+00 0.  1.
         21    1    1    2  505  503 -0.66009272169E+02  0.25400776152E+02 -0.84110660043E+03  0.84407507766E+03  0.00000000000E+00 0.  1.
         21    1    1    2  506  502  0.58274099951E+02  0.14206316979E+02  0.75239254116E+02  0.96221803804E+02  0.00000000000E+00 0.  1.
<scales pt_clust_3="125.75988" pt_clust_4="49.95811" pt_clust_5="70.72781" pt_clust_6="49.95811"></scales>
<clustering>
<clus scale="   49.958">  4  6 -1 -1</clus>
<clus scale="   70.728">  2  5  1 -1</clus>
<clus scale="  125.760">  2  3  1 -1</clus>
<clus scale="  139.557">  1  3  2 -1</clus>
</clustering>
</event>
<event>
 6    0  0.6132510E+002  0.1621352E+03  0.7546771E-02  0.1186307E+00
         21   -1    0    0  506  501  0.00000000000E+00  0.00000000000E+00  0.42212217048E+03  0.42212217048E+03  0.00000000000E+00 0. -1.
         21   -1    0    0  504  502 -0.00000000000E+00 -0.00000000000E+00 -0.20334640395E+03  0.20334640395E+03  0.00000000000E+00 0. -1.
         21    1    1    2  503  505  0.23755824493E+02  0.65955893240E+02 -0.63298992634E+02  0.94452535799E+02  0.00000000000E+00 0. -1.
         21    1    1    2  504  503 -0.32149347511E+02  0.56364183530E+02  0.13718508960E+02  0.66322690072E+02  0.00000000000E+00 0. -1.
         21    1    1    2  505  501  0.12828299884E+03  0.19053559772E+02 -0.10208720244E+02  0.13009144438E+03  0.00000000000E+00 0. -1.
         21    1    1    2  506  502 -0.11988947582E+03 -0.14137363654E+03  0.27856497045E+03  0.33460190418E+03  0.00000000000E+00 0. -1.
<scales pt_clust_3="91.55417" pt_clust_4="64.88838" pt_clust_5="14000.00000" pt_clust_6="162.13515"></scales>
<clustering>
<clus scale="   64.888">  2  4  1 -1</clus>
<clus scale="   91.554">  2  3  1 -1</clus>
<clus scale="  162.135">  1  6  2 -1</clus>
<clus scale="  162.135">  1  3  2 -1</clus>
</clustering>
</event>
<event>
 6    0  0.6132510E+002  0.1037809E+03  0.7546771E-02  0.1272540E+00
         21   -1    0    0  506  501  0.00000000000E+00  0.00000000000E+00  0.12388966994E+04  0.12388966994E+04  0.00000000000E+00 0.  1.
         21   -1    0    0  503  502 -0.00000000000E+00 -0.00000000000E+00 -0.69292682954E+03  0.69292682954E+03  0.00000000000E+00 0. -1.
         21    1    1    2  503  504 -0.10562397277E+03 -0.36193393205E+02 -0.57122090808E+03  0.58203067889E+03  0.00000000000E+00 0. -1.
         21    1    1    2  504  501 -0.49319612193E+02  0.20479853046E+02  0.61892974536E+03  0.62122932821E+03  0.00000000000E+00 0.  1.
         21    1    1    2  505  502  0.25928982635E+01  0.31732724194E+02 -0.10314841620E+03  0.10795038060E+03  0.00000000000E+00 0.  1.
         21    1    1    2  506  505  0.15235068670E+03 -0.16019184035E+02  0.60140944879E+03  0.62061314124E+03  0.00000000000E+00 0.  1.
<scales pt_clust_3="14000.00000" pt_clust_4="53.42187" pt_clust_5="31.83848" pt_clust_6="103.78094"></scales>
<clustering>
<clus scale="   31.838">  2  5  1 -1</clus>
<clus scale="   53.422">  1  4  2 -1</clus>
<clus scale="  103.781">  1  6  2 -1</clus>
<clus scale="   53.422">  1  3  2 -1</clus>
</clustering>
</event>
<event>
 6    0  0.6132510E+002  0.7745859E+02  0.7546771E-02  0.1336422E+00
         21   -1    0    0  505  501  0.00000000000E+00  0.00000000000E+00  0.63624816702E+03  0.63624816702E+03  0.00000000000E+00 0. -1.
         21   -1    0    0  506  502 -0.00000000000E+00 -0.00000000000E+00 -0.92246799883E+03  0.92246799883E+03  0.00000000000E+00 0.  1.
         21    1    1    2  503  502 -0.51599368806E+02 -0.28994673082E+01 -0.26984306517E+03  0.27474748696E+03  0.00000000000E+00 0.  1.
         21    1    1    2  504  503  0.94446378635E+02 -0.44012879334E+02 -0.62698703826E+03  0.63558634199E+03  0.00000000000E+00 0.  1.
         21    1    1    2  505  504 -0.10109639584E+03 -0.24575406546E+01  0.14638184027E+03  0.17791617104E+03  0.00000000000E+00 0. -1.
         21    1    1    2  506  501  0.58249386009E+02  0.49369887297E+02  0.46422843135E+03  0.47046616585E+03  0.00000000000E+00 0. -1.
<scales pt_clust_3="51.68077" pt_clust_4="64.49363" pt_clust_5="14000.00000" pt_clust_6="77.45859"></scales>
<clustering>
<clus scale="   51.681">  2  3  1 -1</clus>
<clus scale="   64.494">  2  4  1 -1</clus>
<clus scale="   77.459">  1  6  2 -1</clus>
<clus scale="   77.459">  1  3  2 -1</clus>
</clustering>
</event>
<event>
 6    0  0.6132510E+002  0.1186179E+03  0.7546771E-02  0.1245395E+00
         21   -1    0    0  506  501  0.00000000000E+00  0.00000000000E+00  0.18459128366E+03  0.18459128366E+03  0.00000000000E+00 0.  1.
         21   -1    0    0  504  502 -0.00000000000E+00 -0.00000000000E+00 -0.15787075205E+04  0.15787075205E+04  0.00000000000E+00 0. -1.
         21    1    1    2  503  501  0.19354514008E+02 -0.27971582919E+02  0.98581083661E+02  0.10428440305E+03  0.00000000000E+00 0.  1.
         21    1    1    2  504  505  0.10416358165E+03  0.58012541166E+02 -0.15121483557E+04  0.15168415067E+04  0.00000000000E+00 0. -1.
         21    1    1    2  505  503 -0.33141166329E+02  0.17287745938E+02 -0.36925723927E+01  0.37561125597E+02  0.00000000000E+00 0. -1.
         21    1    1    2  506  502 -0.90376929331E+02 -0.47328704185E+02  0.23143607655E+02  0.10461176880E+03  0.00000000000E+00 0.  1.
<scales pt_clust_3="34.01480" pt_clust_4="14000.00000" pt_clust_5="31.41651" pt_clust_6="118.61785"></scales>
<clustering>
<clus scale="   34.015">  1  3  2 -1</clus>
<clus scale="   31.417">  1  5  2 -1</clus>
<clus scale="  118.618">  1  6  2 -1</clus>
<clus scale="   34.015">  1  3  2 -1</clus>
</clustering>
</event>
<event>
 6    0  0.6132510E+002  0.6415444E+02  0.7546771E-02  0.1381181E+00
         21   -1    0    0  506  501  0.00000000000E+00  0.00000000000E+00  0.22125321294E+03  0.22125321294E+03  0.00000000000E+00 0. -1.
         21   -1    0    0  505  502 -0.00000000000E+00 -0.00000000000E+00 -0.25138873906E+03  0.25138873906E+03  0.00000000000E+00 0. -1.
         21    1    1    2  503  502 -0.93740331609E+02 -0.89052357724E+01 -0.77866889710E+02  0.12218758328E+03  0.00000000000E+00 0. -1.
         21    1    1    2  504  501  0.37432142752E+02  0.55140225740E+02 -0.22560276472E+01  0.66683577187E+02  0.00000000000E+00 0. -1.
         21    1    1    2  505  504 -0.60651765157E+01 -0.44697327437E+02 -0.10630825739E+03  0.11548195978E+03  0.00000000000E+00 0. -1.
         21    1    1    2  506  503  0.62373365372E+02 -0.15376625303E+01  0.15629564863E+03  0.16828883176E+03  0.00000000000E+00 0. -1.
<scales pt_clust_3="14000.00000" pt_clust_4="56.95001" pt_clust_5="45.10696" pt_clust_6="64.15444"></scales>
<clustering>
<clus scale="   45.107">  2  5  1 -1</clus>
<clus scale="   56.950">  2  4  1 -1</clus>
<clus scale="   64.154">  1  6  2 -1</clus>
<clus scale="   64.154">  1  3  2 -1</clus>
</clustering>
</event>
<event>
 6    0  0.6132510E+002  0.1253247E+03  0.7546771E-02  0.1234563E+00
         21   -1    0    0  503  501  0.00000000000E+00  0.00000000000E+00  0.13206229414E+04  0.13206229414E+04  0.00000000000E+00 0.  1.
         21   -1    0    0  506  502 -0.00000000000E+00 -0.00000000000E+00 -0.22833504622E+03  0.22833504622E+03  0.00000000000E+00 0. -1.
         21    1    1    2  503  504  0.16896681507E+02 -0.97165183887E+02  0.35982146672E+03  0.37309256052E+03  0.00000000000E+00 0.  1.
         21    1    1    2  504  502 -0.43419532320E+02  0.96495673052E+02 -0.19429277913E+03  0.22123823070E+03  0.00000000000E+00 0. -1.
         21    1    1    2  505  501  0.56049159497E+02 -0.10457300451E+02  0.92074156678E+03  0.92250522828E+03  0.00000000000E+00 0.  1.
         21    1    1    2  506  505 -0.29526308684E+02  0.11126811287E+02  0.60176408006E+01  0.32121968101E+02  0.00000000000E+00 0.  1.
<scales pt_clust_3="125.32466" pt_clust_4="14000.00000" pt_clust_5="56.88910" pt_clust_6="31.55327"></scales>
<clustering>
<clus scale="   31.553">  2  6  1 -1</clus>
<clus scale="   56.889">  1  5  2 -1</clus>
<clus scale="  125.325">  1  3  2 -1</clus>
<clus scale="   56.889">  1  3  2 -1</clus>
</clustering>
</event>
<event>
 6    0  0.6132510E+002  0.2085701E+03  0.7546771E-02  0.1142703E+00
         21   -1    0    0  505  501  0.00000000000E+00  0.00000000000E+00  0.14861029374E+04  0.14861029374E+04  0.00000000000E+00 0. -1.
         21   -1    0    0  506  502 -0.00000000000E+00 -0.00000000000E+00 -0.12410472914E+03  0.12410472914E+03  0.00000000000E+00 0. -1.
         21    1    1    2  503  501 -0.12222969458E+03  0.17586209972E+03  0.60685010904E+03  0.64353292939E+03  0.00000000000E+00 0. -1.
         21    1    1    2  504  502  0.13322482146E+02  0.43890377379E+02 -0.61508473435E+02  0.76727739842E+02  0.00000000000E+00 0. -1.
         21    1    1    2  505  504  0.18699077554E+03 -0.10391146720E+03  0.48749460225E+03  0.53236653762E+03  0.00000000000E+00 0. -1.
         21    1    1    2  506  503 -0.78083563102E+02 -0.11584100991E+03  0.32916197041E+03  0.35758045971E+03  0.00000000000E+00 0. -1.
<scales pt_clust_3="208.57013" pt_clust_4="45.86779" pt_clust_5="14000.00000" pt_clust_6="128.41860"></scales>
<clustering>
<clus scale="   45.868">  2  4  1 -1</clus>
<clus scale="  128.419">  2  6  1 -1</clus>
<clus scale="  208.570">  1  3  2 -1</clus>
<clus scale="  208.570">  1  3  2 -1</clus>
</clustering>
</event>
<event>
 6    0  0.6132510E+002  0.9068562E+02  0.7546771E-02  0.1301200E+00
         21   -1    0    0  503  501  0.00000000000E+00  0.00000000000E+00  0.75680000231E+03  0.75680000231E+03  0.00000000000E+00 0. -1.
         21   -1    0    0  506  502 -0.00000000000E+00 -0.00000000000E+00 -0.32055140644E+02  0.32055140644E+02  0.00000000000E+00 0. -1.
         21    1    1    2  503  504  0.25916225117E+02 -0.22222730564E+02  0.26294313628E+03  0.26515013369E+03  0.00000000000E+00 0. -1.
         21    1    1    2  504  505 -0.64315889619E+02 -0.64658864704E+02  0.27455492051E+03  0.28930555961E+03  0.00000000000E+00 0. -1.
         21    1    1    2  505  502  0.51711055997E+01  0.97475764568E+02  0.96845889375E+02  0.13750415012E+03  0.00000000000E+00 0. -1.
         21    1    1    2  506  501  0.33228558903E+02 -0.10594169299E+02  0.90400915496E+02  0.96895299537E+02  0.00000000000E+00 0. -1.
<scales pt_clust_3="34.13943" pt_clust_4="90.68562" pt_clust_5="14000.00000" pt_clust_6="40.93026"></scales>
<clustering>
<clus scale="   34.139">  1  3  2 -1</clus>
<clus scale="   40.930">  1  6  2 -1</clus>
<clus scale="   90.686">  1  4  2 -1</clus>
<clus scale="   34.139">  1  3  2 -1</clus>
</clustering>
</event>
<event>
 6    0  0.6132510E+002  0.1770618E+03  0.7546771E-02  0.1170677E+00
         21   -1    0    0  506  501  0.00000000000E+00  0.00000000000E+00  0.42686067805E+03  0.42686067805E+03  0.00000000000E+00 0. -1.
         21   -1    0    0  503  502 -0.00000000000E+00 -0.00000000000E+00 -0.36937082869E+03  0.36937082869E+03  0.00000000000E+00 0.  1.
         21    1    1    2  503  505 -0.30890759379E+02 -0.74500761918E+01 -0.38068844557E+02  0.49588099138E+02  0.00000000000E+00 0.  1.
         21    1    1    2  504  502  0.22636739477E+03  0.51410195304E+02 -0.24480256319E+03  0.33736256541E+03  0.00000000000E+00 0.  1.
         21    1    1    2  505  501 -0.10221019433E+03 -0.34723593510E+01  0.80226690119E+02  0.12998193302E+03  0.00000000000E+00 0.  1.
         21    1    1    2  506  504 -0.93266441062E+02 -0.40487759761E+02  0.26013456699E+03  0.27929890917E+03  0.00000000000E+00 0. -1.
<scales pt_clust_3="31.77645" pt_clust_4="14000.00000" pt_clust_5="177.06181" pt_clust_6="102.59691"></scales>
<clustering>
<clus scale="   31.776">  2  3  1 -1</clus>
<clus scale="  102.597">  1  6  2 -1</clus>
<clus scale="  177.062">  1  5  2 -1</clus>
<clus scale="  102.597">  1  3  2 -1</clus>
</clustering>
</event>
<event>
 6    0  0.6132510E+002  0.9087056E+02  0.7546771E-02  0.1300757E+00
         21   -1    0    0  503  501  0.00000000000E+00  0.00000000000E+00  0.11444457909E+02  0.11444457909E+02  0.00000000000E+00 0.  1.
         21   -1    0    0  505  502 -0.00000000000E+00 -0.00000000000E+00 -0.34641633533E+04  0.34641633533E+04  0.00000000000E+00 0.  1.
         21    1    1    2  503  506 -0.58329572044E+02 -0.96494003688E+02 -0.38088930534E+03  0.39722801342E+03  0.00000000000E+00 0.  1.
         21    1    1    2  504  502 -0.45390662905E+02  0.27512223260E+02 -0.12627855690E+04  0.12639005609E+04  0.00000000000E+00 0.  1.
         21    1    1    2  505  501  0.54332454138E+02  0.36657918200E+02 -0.52442183997E+03  0.52850173583E+03  0.00000000000E+00 0.  1.
         21    1    1    2  506  504  0.49387780811E+02  0.32323862228E+02 -0.12846221811E+04  0.12859775010E+04  0.00000000000E+00 0.  1.
<scales pt_clust_3="90.87056" pt_clust_4="53.07763" pt_clust_5="14000.00000" pt_clust_6="53.52730"></scales>
<clustering>
<clus scale="   53.078">  2  4  1 -1</clus>
<clus scale="   53.527">  2  6  1 -1</clus>
<clus scale="   90.871">  1  3  2 -1</clus>
<clus scale="   90.871">  1  3  2 -1</clus>
</clustering>
</event>
<event>
 6    0  0.6132510E+002  0.1043404E+03  0.7546771E-02  0.1271425E+00
         21   -1    0    0  503  501  0.00000000000E+00  0.00000000000E+00  0.18857497315E+03  0.18857497315E+03  0.00000000000E+00 0. -1.
         21   -1    0    0  504  502 -0.00000000000E+00 -0.00000000000E+00 -0.23114555250E+03  0.23114555250E+03  0.00000000000E+00 0. -1.
         21    1    1    2  503  502  0.30726418708E+02  0.66809581010E+00 -0.13613665245E+02  0.33613851907E+02  0.00000000000E+00 0. -1.
         21    1    1    2  504  505  0.40567299350E+02 -0.33004209309E+01 -0.89278798711E+02  0.98118818043E+02  0.00000000000E+00 0. -1.
         21    1    1    2  505  506  0.21599933502E+01 -0.82690628288E+02 -0.75206599541E+02  0.11179641404E+03  0.00000000000E+00 0. -1.
         21    1    1    2  506  501 -0.73453711408E+02  0.85322953409E+02  0.13552848415E+03  0.17619144166E+03  0.00000000000E+00 0. -1.
<scales pt_clust_3="30.73368" pt_clust_4="54.52254" pt_clust_5="104.34043" pt_clust_6="14000.00000"></scales>
<clustering>
<clus scale="   30.734">  2  3  1 -1</clus>
<clus scale="   54.523">  2  4  1 -1</clus>
<clus scale="  104.340">  2  5  1 -1</clus>
<clus scale="  104.340">  1  3  2 -1</clus>
</clustering>
</event>
<event>
 6    0  0.6132510E+002  0.1259881E+03  0.7546771E-02  0.1233533E+00
         21   -1    0    0  503  501  0.00000000000E+00  0.00000000000E+00  0.55183513922E+03  0.55183513922E+03  0.00000000000E+00 0. -1.
         21   -1    0    0  506  502 -0.00000000000E+00 -0.00000000000E+00 -0.27712817936E+03  0.27712817936E+03  0.00000000000E+00 0. -1.
         21    1    1    2  503  505  0.11205501366E+03 -0.12009002359E+03 -0.17655526574E+03  0.24114249255E+03  0.00000000000E+00 0. -1.
         21    1    1    2  504  501 -0.60886696414E+02 -0.24628574674E+02  0.36413630255E+03  0.37001216646E+03  0.00000000000E+00 0. -1.
         21    1    1    2  505  502 -0.28151804130E+02  0.27771625596E+02 -0.30811828380E+02  0.50131387695E+02  0.00000000000E+00 0. -1.
         21    1    1    2  506  504 -0.23016513113E+02  0.11694697267E+03  0.11793775142E+03  0.16767727188E+03  0.00000000000E+00 0. -1.
<scales pt_clust_3="14000.00000" pt_clust_4="65.87544" pt_clust_5="39.54475" pt_clust_6="125.98808"></scales>
<clustering>
<clus scale="   39.545">  2  5  1 -1</clus>
<clus scale="   65.875">  1  4  2 -1</clus>
<clus scale="  125.988">  1  6  2 -1</clus>
<clus scale="   65.875">  1  3  2 -1</clus>
</clustering>
</event>
<event>
 6    0  0.6132510E+002  0.1707680E+03  0.7546771E-02  0.1177049E+00
         21   -1    0    0  505  501  0.00000000000E+00  0.00000000000E+00  0.67332548401E+03  0.67332548401E+03  0.00000000000E+00 0. -1.
         21   -1    0    0  504  502 -0.00000000000E+00 -0.00000000000E+00 -0.40733274091E+03  0.40733274091E+03  0.00000000000E+00 0. -1.
         21    1    1    2  503  501  0.85672331063E+02 -0.69199027199E+02  0.50044107697E+03  0.51241538345E+03  0.00000000000E+00 0. -1.
         21    1    1    2  504  506  0.48704387258E+02 -0.34886768982E+02 -0.11202692969E+03  0.12704029662E+03  0.00000000000E+00 0. -1.
         21    1    1    2  505  502 -0.97282817265E+01 -0.84846194033E+02  0.94724302077E+02  0.12753905093E+03  0.00000000000E+00 0.  1.
         21    1    1    2  506  503 -0.12464843659E+03  0.18893199021E+03 -0.21714570625E+03  0.31366349392E+03  0.00000000000E+00 0. -1.
<scales pt_clust_3="170.76804" pt_clust_4="59.90997" pt_clust_5="87.11290" pt_clust_6="14000.00000"></scales>
<clustering>
<clus scale="   59.910">  2  4  1 -1</clus>
<clus scale="   87.113">  1  5  2 -1</clus>
<clus scale="  170.768">  1  3  2 -1</clus>
<clus scale="   87.113">  1  3  2 -1</clus>
</clustering>
</event>
<event>
 6    0  0.6132510E+002  0.1104777E+03  0.7546771E-02  0.1259688E+00
         21   -1    0    0  504  501  0.00000000000E+00  0.00000000000E+00  0.35814188309E+03  0.35814188309E+03  0.00000000000E+00 0.  1.
         21   -1    0    0  506  502 -0.00000000000E+00 -0.00000000000E+00 -0.11439684495E+04  0.11439684495E+04  0.00000000000E+00 0. -1.
         21    1    1    2  503  501  0.14273336520E+02 -0.42587219983E+02  0.18059978719E+03  0.18610126967E+03  0.00000000000E+00 0.  1.
         21    1    1    2  504  502 -0.43454448552E+02  0.14904175649E+03  0.13542284537E+03  0.20601233294E+03  0.00000000000E+00 0.  1.
         21    1    1    2  505  503  0.39631123497E+01 -0.89235932122E+02 -0.54164228193E+03  0.54895821282E+03  0.00000000000E+00 0. -1.
         21    1    1    2  506  505  0.25217999682E+02 -0.17218604381E+02 -0.56020691708E+03  0.56103851721E+03  0.00000000000E+00 0. -1.
<scales pt_clust_3="45.03033" pt_clust_4="110.47775" pt_clust_5="14000.00000" pt_clust_6="30.53568"></scales>
<clustering>
<clus scale="   30.536">  2  6  1 -1</clus>
<clus scale="   45.030">  1  3  2 -1</clus>
<clus scale="  110.478">  1  4  2 -1</clus>
<clus scale="   45.030">  1  3  2 -1</clus>
</clustering>
</event>
<event>
 6    0  0.6132510E+002  0.9726893E+02  0.7546771E-02  0.1286146E+00
         21   -1    0    0  504  501  0.00000000000E+00  0.00000000000E+00  0.91583080676E+03  0.91583080676E+03  0.00000000000E+00 0. -1.
         21   -1    0    0  506  502 -0.00000000000E+00 -0.00000000000E+00 -0.10371824751E+04  0.10371824751E+04  0.00000000000E+00 0.  1.
         21    1    1    2  503  501 -0.43179842303E+02  0.71147898100E+02  0.82827291868E+03  0.83244372183E+03  0.00000000000E+00 0. -1.
         21    1    1    2  504  505  0.71500433880E+02  0.24228378056E+02  0.64640236600E+02  0.99386551082E+02  0.00000000000E+00 0.  1.
         21    1    1    2  505  502 -0.44526366122E+02 -0.44653715246E+02 -0.44730529672E+03  0.45172843616E+03  0.00000000000E+00 0.  1.
         21    1    1    2  506  503  0.16205774544E+02 -0.50722560909E+02 -0.56695952692E+03  0.56945457280E+03  0.00000000000E+00 0.  1.
<scales pt_clust_3="14000.00000" pt_clust_4="75.48520" pt_clust_5="97.26893" pt_clust_6="53.24852"></scales>
<clustering>
<clus scale="   53.249">  2  6  1 -1</clus>
<clus scale="   75.485">  1  4  2 -1</clus>
<clus scale="   97.269">  2  5  1 -1</clus>
<clus scale="   75.485">  1  3  2 -1</clus>
</clustering>
</event>
<event>
 6    0  0.6132510E+002  0.1310622E+03  0.7546771E-02  0.1225888E+00
         21   -1    0    0  503  501  0.00000000000E+00  0.00000000000E+00  0.55225222490E+03  0.55225222490E+03  0.00000000000E+00 0. -1.
         21   -1    0    0  504  502 -0.00000000000E+00 -0.00000000000E+00 -0.75145563547E+02  0.75145563547E+02  0.00000000000E+00 0. -1.
         21    1    1    2  503  506 -0.52229901871E+02  0.18318651794E+02  0.31366476110E+03  0.31851078162E+03  0.00000000000E+00 0. -1.
         21    1    1    2  504  501  0.14181227758E+03  0.16095950653E+02  0.45277347707E+02  0.14973256131E+03  0.00000000000E+00 0. -1.
         21    1    1    2  505  502 -0.37923934528E+02 -0.14528865557E+02  0.17390363732E+02  0.44178473210E+02  0.00000000000E+00 0.  1.
         21    1    1    2  506  505 -0.51658441182E+02 -0.19885736890E+02  0.10077418881E+03  0.11497597230E+03  0.00000000000E+00 0. -1.
<scales pt_clust_3="55.34922" pt_clust_4="122.55358" pt_clust_5="39.78953" pt_clust_6="39.78953"></scales>
<clustering>
<clus scale="   39.790">  5  6 -1 -1</clus>
<clus scale="   55.349">  1  3  2 -1</clus>
<clus scale="  122.554">  2  4  1 -1</clus>
<clus scale="   55.349">  1  3  2 -1</clus>
</clustering>
</event>
<event>
 6    0  0.6132510E+002  0.1340659E+03  0.7546771E-02  0.1221544E+00
         21   -1    0    0  503  501  0.00000000000E+00  0.00000000000E+00  0.58475042837E+03  0.58475042837E+03  0.00000000000E+00 0.  1.
         21   -1    0    0  506  502 -0.00000000000E+00 -0.00000000000E+00 -0.30781639601E+03  0.30781639601E+03  0.00000000000E+00 0.  1.
         21    1    1    2  503  505  0.79031088681E+02 -0.11822477659E+02 -0.25438285296E+03  0.26663893159E+03  0.00000000000E+00 0.  1.
         21    1    1    2  504  501 -0.46215805133E+02 -0.86845324201E+01  0.11207134034E+03  0.12153726619E+03  0.00000000000E+00 0.  1.
         21    1    1    2  505  502  0.45123489474E+02  0.25810274116E+02 -0.21880561640E+02  0.56400873486E+02  0.00000000000E+00 0. -1.
         21    1    1    2  506  504 -0.77938773023E+02 -0.53032640369E+01  0.44112610662E+03  0.44798975311E+03  0.00000000000E+00 0.  1.
<scales pt_clust_3="123.49119" pt_clust_4="40.49074" pt_clust_5="51.98365" pt_clust_6="40.49074"></scales>
<clustering>
<clus scale="   40.491">  4  6 -1 -1</clus>
<clus scale="   51.984">  2  5  1 -1</clus>
<clus scale="  123.491">  2  3  1 -1</clus>
<clus scale="  134.066">  1  3  2 -1</clus>
</clustering>
</event>
<event>
 6    0  0.6132510E+002  0.1167014E+03  0.7546771E-02  0.1248640E+00
         21   -1    0    0  504  501  0.00000000000E+00  0.00000000000E+00  0.90461428057E+02  0.90461428057E+02  0.00000000000E+00 0.  1.
         21   -1    0    0  505  502 -0.00000000000E+00 -0.00000000000E+00 -0.11991253295E+04  0.11991253295E+04  0.00000000000E+00 0.  1.
         21    1    1    2  503  506 -0.94434337630E+02  0.14573941185E+03 -0.46574766392E+03  0.49707012255E+03  0.00000000000E+00 0.  1.
         21    1    1    2  504  503  0.26329661088E+02 -0.20318131510E+02 -0.21573118786E+02  0.39641858877E+02  0.00000000000E+00 0.  1.
         21    1    1    2  505  501  0.53547486254E+02 -0.63196041163E+02  0.37510514721E+02  0.90929157136E+02  0.00000000000E+00 0.  1.
         21    1    1    2  506  502  0.14557190288E+02 -0.62225239177E+02 -0.65885363344E+03  0.66194561897E+03  0.00000000000E+00 0.  1.
<scales pt_clust_3="116.70141" pt_clust_4="33.25774" pt_clust_5="14000.00000" pt_clust_6="64.39607"></scales>
<clustering>
<clus scale="   33.258">  1  4  2 -1</clus>
<clus scale="   64.396">  2  6  1 -1</clus>
<clus scale="  116.701">  2  3  1 -1</clus>
<clus scale="   33.258">  1  3  2 -1</clus>
</clustering>
</event>
<event>
 6    0  0.6132510E+002  0.1387202E+03  0.7546771E-02  0.1215061E+00
         21   -1    0    0  504  501  0.00000000000E+00  0.00000000000E+00  0.22748294124E+03  0.22748294124E+03  0.00000000000E+00 0.  1.
         21   -1    0    0  503  502 -0.00000000000E+00 -0.00000000000E+00 -0.20773590192E+03  0.20773590192E+03  0.00000000000E+00 0.  1.
         21    1    1    2  503  505 -0.16724904068E+03 -0.27588872634E+02 -0.36553526836E+02  0.17340573182E+03  0.00000000000E+00 0.  1.
         21    1    1    2  504  506  0.10273769628E+03  0.59941322595E+02  0.31957711355E+02  0.12316367852E+03  0.00000000000E+00 0.  1.
         21    1    1    2  505  501  0.35461680749E+02 -0.47071805828E+02  0.64220394035E+02  0.87163895710E+02  0.00000000000E+00 0.  1.
         21    1    1    2  506  502  0.29049663658E+02  0.14719355867E+02 -0.39877539232E+02  0.51485537105E+02  0.00000000000E+00 0. -1.
<scales pt_clust_3="14000.00000" pt_clust_4="138.72020" pt_clust_5="59.38310" pt_clust_6="32.56597"></scales>
<clustering>
<clus scale="   32.566">  2  6  1 -1</clus>
<clus scale="   59.383">  1  5  2 -1</clus>
<clus scale="  138.720">  1  4  2 -1</clus>
<clus scale="   59.383">  1  3  2 -1</clus>
</clustering>
</event>
<event>
 6    0  0.6132510E+002  0.9287373E+02  0.7546771E-02  0.1296038E+00
         21   -1    0    0  502  501  0.00000000000E+00  0.00000000000E+00  0.71097573354E+03  0.71097573354E+03  0.00000000000E+00 0.  1.
         21   -1    0    0  504  502 -0.00000000000E+00 -0.00000000000E+00 -0.76922140725E+02  0.76922140725E+02  0.00000000000E+00 0. -1.
         21    1    1    2  503  501 -0.24748914708E+02 -0.37365321866E+02  0.31841936250E+03  0.32155802971E+03  0.00000000000E+00 0.  1.
         21    1    1    2  504  505  0.43705038886E+02 -0.92281488801E+01 -0.91466844462E+01  0.45595515044E+02  0.00000000000E+00 0. -1.
         21    1    1    2  505  506 -0.59628385405E+02  0.10483905738E+03  0.39746540968E+02  0.12699039262E+03  0.00000000000E+00 0. -1.
         21    1    1    2  506  503  0.40672261227E+02 -0.58245586632E+02  0.28503437380E+03  0.29375393689E+03  0.00000000000E+00 0.  1.
<scales pt_clust_3="44.31709" pt_clust_4="44.66866" pt_clust_5="92.87373" pt_clust_6="14000.00000"></scales>
<clustering>
<clus scale="   44.669">  2  4  1 -1</clus>
<clus scale="   44.317">  1  3  2 -1</clus>
<clus scale="   92.874">  2  5  1 -1</clus>
<clus scale="   44.317">  1  3  2 -1</clus>
</clustering>
</event>
<event>
 6    0  0.6132510E+002  0.1875519E+03  0.7546771E-02  0.1160688E+00
         21   -1    0    0  503  501  0.00000000000E+00  0.00000000000E+00  0.92584313149E+03  0.92584313149E+03  0.00000000000E+00 0. -1.
         21   -1    0    0  504  502 -0.00000000000E+00 -0.00000000000E+00 -0.14885848738E+03  0.14885848738E+03  0.00000000000E+00 0. -1.
         21    1    1    2  503  502  0.34697009033E+02 -0.50246818235E+02  0.52521525504E+03  0.52875295678E+03  0.00000000000E+00 0. -1.
         21    1    1    2  504  505  0.79935561595E+01  0.20741591338E+03 -0.26027900882E+02  0.20919538639E+03  0.00000000000E+00 0. -1.
         21    1    1    2  505  506 -0.71572405573E+02 -0.13211792366E+03  0.20089626820E+03  0.25087260825E+03  0.00000000000E+00 0. -1.
         21    1    1    2  506  501  0.28881840380E+02 -0.25051171482E+02  0.76901021746E+02  0.85880667452E+02  0.00000000000E+00 0. -1.
<scales pt_clust_3="84.37818" pt_clust_4="187.55192" pt_clust_5="14000.00000" pt_clust_6="38.23247"></scales>
<clustering>
<clus scale="   38.232">  1  6  2 -1</clus>
<clus scale="   84.378">  1  3  2 -1</clus>
<clus scale="  187.552">  2  4  1 -1</clus>
<clus scale="   38.232">  1  3  2 -1</clus>
</clustering>
</event>
<event>
 6    0  0.6132510E+002  0.7119224E+02  0.7546771E-02  0.1356085E+00
         21   -1    0    0  504  501  0.00000000000E+00  0.00000000000E+00  0.31071121169E+03  0.31071121169E+03  0.00000000000E+00 0. -1.
         21   -1    0    0  505  502 -0.00000000000E+00 -0.00000000000E+00 -0.16979797139E+03  0.16979797139E+03  0.00000000000E+00 0. -1.
         21    1    1    2  503  502  0.50736292651E+02  0.35974995193E+01 -0.18593053480E+02  0.54155470937E+02  0.00000000000E+00 0. -1.
         21    1    1    2  504  503  0.93207800927E+02  0.34334782207E+02  0.20705536846E+03  0.22964863821E+03  0.00000000000E+00 0. -1.
         21    1    1    2  505  506 -0.10495699869E+03 -0.29719225436E+02 -0.87830498579E+02  0.14004785045E+03  0.00000000000E+00 0. -1.
         21    1    1    2  506  501 -0.38987094892E+02 -0.82130562906E+01  0.40281423901E+02  0.56657223487E+02  0.00000000000E+00 0. -1.
<scales pt_clust_3="48.18881" pt_clust_4="71.19224" pt_clust_5="14000.00000" pt_clust_6="39.84279"></scales>
<clustering>
<clus scale="   39.843">  1  6  2 -1</clus>
<clus scale="   48.189">  2  3  1 -1</clus>
<clus scale="   71.192">  1  4  2 -1</clus>
<clus scale="   39.843">  1  3  2 -1</clus>
</clustering>
</event>
<event>
 6    0  0.6132510E+002  0.2291507E+03  0.7546771E-02  0.1127239E+00
         21   -1    0    0  503  501  0.00000000000E+00  0.00000000000E+00  0.22579245174E+03  0.22579245174E+03  0.00000000000E+00 0. -1.
         21   -1    0    0  504  502 -0.00000000000E+00 -0.00000000000E+00 -0.63103995110E+03  0.63103995110E+03  0.00000000000E+00 0. -1.
         21    1    1    2  503  505 -0.23089489068E+02 -0.76493169491E+02  0.33756318020E+02  0.86739947490E+02  0.00000000000E+00 0. -1.
         21    1    1    2  504  501  0.13300228642E+03 -0.20391719522E+03 -0.10155249185E+03  0.26378919481E+03  0.00000000000E+00 0. -1.
         21    1    1    2  505  506 -0.97870736847E+02  0.20830758719E+03 -0.88070096488E+02  0.24642863857E+03  0.00000000000E+00 0. -1.
         21    1    1    2  506  502 -0.12042060509E+02  0.72102777522E+02 -0.24938122904E+03  0.25987462198E+03  0.00000000000E+00 0. -1.
<scales pt_clust_3="75.32327" pt_clust_4="229.15067" pt_clust_5="14000.00000" pt_clust_6="73.10145"></scales>
<clustering>
<clus scale="   73.101">  2  6  1 -1</clus>
<clus scale="   75.323">  1  3  2 -1</clus>
<clus scale="  229.151">  2  4  1 -1</clus>
<clus scale="   75.323">  1  3  2 -1</clus>
</clustering>
</event>
<event>
 6    0  0.6132510E+002  0.1887815E+03  0.7546771E-02  0.1159565E+00
         21   -1    0    0  503  501  0.00000000000E+00  0.00000000000E+00  0.69418344249E+03  0.69418344249E+03  0.00000000000E+00 0. -1.
         21   -1    0    0  505  502 -0.00000000000E+00 -0.00000000000E+00 -0.21233421901E+03  0.21233421901E+03  0.00000000000E+00 0. -1.
         21    1    1    2  503  504 -0.13640881778E+03  0.83258568121E+02  0.48834096837E+03  0.51382512212E+03  0.00000000000E+00 0. -1.
         21    1    1    2  504  502 -0.31790447225E+02  0.69313928224E+01  0.13632886896E+02  0.35277930018E+02  0.00000000000E+00 0. -1.
         21    1    1    2  505  506  0.13046681221E+03 -0.17101212847E+03 -0.10043589321E+03  0.23739019738E+03  0.00000000000E+00 0. -1.
         21    1    1    2  506  501  0.37732452798E+02  0.80822167522E+02  0.80311261426E+02  0.12002441197E+03  0.00000000000E+00 0. -1.
<scales pt_clust_3="14000.00000" pt_clust_4="32.53731" pt_clust_5="188.78145" pt_clust_6="88.54516"></scales>
<clustering>
<clus scale="   32.537">  2  4  1 -1</clus>
<clus scale="   88.545">  1  6  2 -1</clus>
<clus scale="  188.781">  2  5  1 -1</clus>
<clus scale="   88.545">  1  3  2 -1</clus>
</clustering>
</event>
<event>
 6    0  0.6132510E+002  0.2873049E+03  0.7546771E-02  0.1091765E+00
         21   -1    0    0  506  501  0.00000000000E+00  0.00000000000E+00  0.44285176341E+03  0.44285176341E+03  0.00000000000E+00 0.  1.
         21   -1    0    0  503  502 -0.00000000000E+00 -0.00000000000E+00 -0.16373400435E+04  0.16373400435E+04  0.00000000000E+00 0. -1.
         21    1    1    2  503  504 -0.25049975656E+02  0.22195501245E+02 -0.11918428715E+03  0.12379432887E+03  0.00000000000E+00 0. -1.
         21    1    1    2  504  505 -0.19648323533E+03 -0.25248207125E+01  0.28607841073E+03  0.34706324146E+03  0.00000000000E+00 0.  1.
         21    1    1    2  505  501 -0.49192458621E+02 -0.73460984346E+02  0.93394676373E+02  0.12860396487E+03  0.00000000000E+00 0.  1.
         21    1    1    2  506  502  0.27072566961E+03  0.53790303814E+02 -0.14547770801E+04  0.14807302717E+04  0.00000000000E+00 0. -1.
<scales pt_clust_3="33.46852" pt_clust_4="85.05487" pt_clust_5="85.05487" pt_clust_6="257.71113"></scales>
<clustering>
<clus scale="   33.469">  2  3  1 -1</clus>
<clus scale="   85.055">  4  5 -1 -1</clus>
<clus scale="  257.711">  2  6  1 -1</clus>
<clus scale="  287.305">  1  3  2 -1</clus>
</clustering>
</event>
<event>
 6    0  0.6132510E+002  0.1201107E+03  0.7546771E-02  0.1242915E+00
         21   -1    0    0  504  501  0.00000000000E+00  0.00000000000E+00  0.95602552047E+03  0.95602552047E+03  0.00000000000E+00 0. -1.
         21   -1    0    0  506  502 -0.00000000000E+00 -0.00000000000E+00 -0.57732882729E+02  0.57732882729E+02  0.00000000000E+00 0. -1.
         21    1    1    2  503  505  0.39236216808E+02 -0.37944404929E+02  0.22847819945E+03  0.23490752691E+03  0.00000000000E+00 0. -1.
         21    1    1    2  504  503  0.58847130729E+02 -0.55222284872E+01  0.43998911463E+03  0.44394132585E+03  0.00000000000E+00 0. -1.
         21    1    1    2  505  502  0.46423801686E+02  0.68049620535E+02  0.14161526875E+03  0.16383163480E+03  0.00000000000E+00 0. -1.
         21    1    1    2  506  501 -0.14450714922E+03 -0.24582987119E+02  0.88210054907E+02  0.17107791564E+03  0.00000000000E+00 0. -1.
<scales pt_clust_3="47.83231" pt_clust_4="47.83231" pt_clust_5="82.37670" pt_clust_6="109.31176"></scales>
<clustering>
<clus scale="   47.832">  3  4 -1 -1</clus>
<clus scale="   82.377">  2  5  1 -1</clus>
<clus scale="  109.312">  2  6  1 -1</clus>
<clus scale="  120.111">  1  3  2 -1</clus>
</clustering>
</event>
<event>
 6    0  0.6132510E+002  0.2111500E+03  0.7546771E-02  0.1140659E+00
         21   -1    0    0  505  501  0.00000000000E+00  0.00000000000E+00  0.53114348051E+02  0.53114348051E+02  0.00000000000E+00 0.  1.
         21   -1    0    0  506  502 -0.00000000000E+00 -0.00000000000E+00 -0.10618197857E+04  0.10618197857E+04  0.00000000000E+00 0.  1.
         21    1    1    2  503  502 -0.44396848016E+00  0.36205676447E+02 -0.15461513878E+03  0.15879826591E+03  0.00000000000E+00 0.  1.
         21    1    1    2  504  501 -0.12256371881E+02  0.40249571747E+02 -0.72543291187E+02  0.83861646619E+02  0.00000000000E+00 0.  1.
         21    1    1    2  505  503  0.14887116156E+03 -0.16046248979E+03 -0.53855189027E+03  0.58133378699E+03  0.00000000000E+00 0.  1.
         21    1    1    2  506  504 -0.13617082120E+03  0.84007241595E+02 -0.24299511737E+03  0.29094043420E+03  0.00000000000E+00 0.  1.
<scales pt_clust_3="36.20840" pt_clust_4="30.08415" pt_clust_5="202.83640" pt_clust_6="30.08415"></scales>
<clustering>
<clus scale="   30.084">  4  6 -1 -1</clus>
<clus scale="   36.208">  2  3  1 -1</clus>
<clus scale="  202.836">  2  5  1 -1</clus>
<clus scale="  211.150">  1  3  2 -1</clus>
</clustering>
</event>
<event>
 6    0  0.6132510E+002  0.1028216E+03  0.7546771E-02  0.1274472E+00
         21   -1    0    0  505  501  0.00000000000E+00  0.00000000000E+00  0.14970762055E+04  0.14970762055E+04  0.00000000000E+00 0.  1.
         21   -1    0    0  506  502 -0.00000000000E+00 -0.00000000000E+00 -0.16599541880E+03  0.16599541880E+03  0.00000000000E+00 0.  1.
         21    1    1    2  503  502  0.30551038369E+02  0.64719736548E+01 -0.14872350451E+03  0.15196688186E+03  0.00000000000E+00 0.  1.
         21    1    1    2  504  503 -0.46550801143E+02  0.17044241476E+02  0.20976097089E+03  0.21553920331E+03  0.00000000000E+00 0.  1.
         21    1    1    2  505  504  0.20124255880E+02  0.96593858545E+02  0.92387273804E+03  0.92912657657E+03  0.00000000000E+00 0.  1.
         21    1    1    2  506  501 -0.41244931060E+01 -0.12011007368E+03  0.34617058230E+03  0.36643896257E+03  0.00000000000E+00 0.  1.
<scales pt_clust_3="31.22903" pt_clust_4="44.79246" pt_clust_5="102.82159" pt_clust_6="14000.00000"></scales>
<clustering>
<clus scale="   31.229">  2  3  1 -1</clus>
<clus scale="   44.792">  2  4  1 -1</clus>
<clus scale="  102.822">  1  5  2 -1</clus>
<clus scale="  102.822">  1  3  2 -1</clus>
</clustering>
</event>
<event>
 6    0  0.6132510E+002  0.1400055E+03  0.7546771E-02  0.1213322E+00
         21   -1    0    0  505  501  0.00000000000E+00  0.00000000000E+00  0.14228874641E+03  0.14228874641E+03  0.00000000000E+00 0.  1.
         21   -1    0    0  506  502 -0.00000000000E+00 -0.00000000000E+00 -0.50268111507E+03  0.50268111507E+03  0.00000000000E+00 0. -1.
         21    1    1    2  503  502 -0.17860207191E+03  0.32373957634E+02 -0.27677482585E+03  0.33098501091E+03  0.00000000000E+00 0. -1.
         21    1    1    2  504  503  0.10239793005E+03 -0.16858360870E+02  0.70035688808E+02  0.12519799566E+03  0.00000000000E+00 0.  1.
         21    1    1    2  505  504  0.38453030071E+02  0.12930825684E+02 -0.16639865378E+02  0.43848909842E+02  0.00000000000E+00 0.  1.
         21    1    1    2  506  501  0.37751111789E+02 -0.28446422448E+02 -0.13701336624E+03  0.14493794507E+03  0.00000000000E+00 0.  1.
<scales pt_clust_3="140.00548" pt_clust_4="14000.00000" pt_clust_5="40.56898" pt_clust_6="47.98592"></scales>
<clustering>
<clus scale="   40.569">  1  5  2 -1</clus>
<clus scale="   47.986">  2  6  1 -1</clus>
<clus scale="  140.005">  2  3  1 -1</clus>
<clus scale="   40.569">  1  3  2 -1</clus>
</clustering>
</event>
<event>
 6    0  0.6132510E+002  0.8070678E+02  0.7546771E-02  0.1327058E+00
         21   -1    0    0  504  501  0.00000000000E+00  0.00000000000E+00  0.78070709375E+03  0.78070709375E+03  0.00000000000E+00 0.  1.
         21   -1    0    0  506  502 -0.00000000000E+00 -0.00000000000E+00 -0.14785712213E+03  0.14785712213E+03  0.00000000000E+00 0.  1.
         21    1    1    2  503  501  0.10063954801E+03  0.15144242123E+02  0.58463257998E+03  0.59342473850E+03  0.00000000000E+00 0.  1.
         21    1    1    2  504  505 -0.49239420657E+02  0.57840643435E+02  0.15914142281E+03  0.17634072993E+03  0.00000000000E+00 0.  1.
         21    1    1    2  505  502  0.15882827525E+01 -0.57712471924E+02 -0.47580874134E+02  0.74814381245E+02  0.00000000000E+00 0.  1.
         21    1    1    2  506  503 -0.52988410108E+02 -0.15272413634E+02 -0.63343157029E+02  0.83984366202E+02  0.00000000000E+00 0.  1.
<scales pt_clust_3="80.70678" pt_clust_4="78.80974" pt_clust_5="14000.00000" pt_clust_6="55.14543"></scales>
<clustering>
<clus scale="   55.145">  2  6  1 -1</clus>
<clus scale="   78.810">  1  4  2 -1</clus>
<clus scale="   80.707">  1  3  2 -1</clus>
<clus scale="   78.810">  1  3  2 -1</clus>
</clustering>
</event>
<event>
 6    0  0.6132510E+002  0.1009081E+03  0.7546771E-02  0.1278398E+00
         21   -1    0    0  504  501  0.00000000000E+00  0.00000000000E+00  0.28892730922E+04  0.28892730922E+04  0.00000000000E+00 0.  1.
         21   -1    0    0  506  502 -0.00000000000E+00 -0.00000000000E+00 -0.63205746337E+02  0.63205746337E+02  0.00000000000E+00 0.  1.
         21    1    1    2  503  502 -0.18514039929E+03  0.16492475461E+02  0.17023608081E+03  0.25205017835E+03  0.00000000000E+00 0.  1.
         21    1    1    2  504  503  0.54265507339E+02 -0.23369069457E+02  0.22303187824E+04  0.22311012371E+04  0.00000000000E+00 0.  1.
         21    1    1    2  505  501  0.45938906455E+02  0.15474263114E+02  0.35586425149E+03  0.35915066676E+03  0.00000000000E+00 0. -1.
         21    1    1    2  506  505  0.84935985501E+02 -0.85976691180E+01  0.69648231146E+02  0.11017675639E+03  0.00000000000E+00 0.  1.
<scales pt_clust_3="100.90814" pt_clust_4="14000.00000" pt_clust_5="48.47511" pt_clust_6="86.94076"></scales>
<clustering>
<clus scale="   48.475">  1  5  2 -1</clus>
<clus scale="   86.941">  2  6  1 -1</clus>
<clus scale="  100.908">  2  3  1 -1</clus>
<clus scale="   48.475">  1  3  2 -1</clus>
</clustering>
</event>
<event>
 6    0  0.6132510E+002  0.2362176E+03  0.7546771E-02  0.1122338E+00
         21   -1    0    0  504  501  0.00000000000E+00  0.00000000000E+00  0.11772511547E+04  0.11772511547E+04  0.00000000000E+00 0.  1.
         21   -1    0    0  506  502 -0.00000000000E+00 -0.00000000000E+00 -0.46090607824E+03  0.46090607824E+03  0.00000000000E+00 0.  1.
         21    1    1    2  503  505 -0.11141833920E+03  0.70608997830E+02  0.52689721024E+03  0.54315775521E+03  0.00000000000E+00 0.  1.
         21    1    1    2  504  502  0.49037977297E+02  0.52538568879E+01 -0.16060292085E+03  0.16800483450E+03  0.00000000000E+00 0.  1.
         21    1    1    2  505  501 -0.98441621025E+02  0.25727777861E+02  0.60242733335E+03  0.61095937940E+03  0.00000000000E+00 0.  1.
         21    1    1    2  506  503  0.16082198293E+03 -0.10159063258E+03 -0.25237654633E+03  0.31603526379E+03  0.00000000000E+00 0.  1.
<scales pt_clust_3="50.41749" pt_clust_4="49.31862" pt_clust_5="50.41749" pt_clust_6="229.14692"></scales>
<clustering>
<clus scale="   49.319">  2  4  1 -1</clus>
<clus scale="   50.417">  3  5 -1 -1</clus>
<clus scale="  229.147">  2  6  1 -1</clus>
<clus scale="  236.218">  1  3  2 -1</clus>
</clustering>
</event>
<event>
 6    0  0.6132510E+002  0.9687627E+02  0.7546771E-02  0.1287005E+00
         21   -1    0    0  506  501  0.00000000000E+00  0.00000000000E+00  0.19028984815E+03  0.19028984815E+03  0.00000000000E+00 0. -1.
         21   -1    0    0  505  502 -0.00000000000E+00 -0.00000000000E+00 -0.41341356859E+03  0.41341356859E+03  0.00000000000E+00 0.  1.
         21    1    1    2  503  502 -0.25080044017E+02 -0.11995096011E+03 -0.35874437165E+03  0.37909730364E+03  0.00000000000E+00 0.  1.
         21    1    1    2  504  501 -0.16233546631E+02  0.29612714373E+02  0.22280336620E+02  0.40458055918E+02  0.00000000000E+00 0.  1.
         21    1    1    2  505  504  0.24316056445E+02  0.20986728809E+02 -0.16393753447E+02  0.36062009639E+02  0.00000000000E+00 0. -1.
         21    1    1    2  506  503  0.16997534203E+02  0.69351516925E+02  0.12973406804E+03  0.14808604755E+03  0.00000000000E+00 0. -1.
<scales pt_clust_3="96.87627" pt_clust_4="33.93603" pt_clust_5="32.12030" pt_clust_6="14000.00000"></scales>
<clustering>
<clus scale="   32.120">  2  5  1 -1</clus>
<clus scale="   33.936">  1  4  2 -1</clus>
<clus scale="   96.876">  2  3  1 -1</clus>
<clus scale="   33.936">  1  3  2 -1</clus>
</clustering>
</event>
<event>
 6    0  0.6132510E+002  0.1039740E+03  0.7546771E-02  0.1272154E+00
         21   -1    0    0  504  501  0.00000000000E+00  0.00000000000E+00  0.11937642347E+04  0.11937642347E+04  0.00000000000E+00 0. -1.
         21   -1    0    0  505  502 -0.00000000000E+00 -0.00000000000E+00 -0.13977010112E+03  0.13977010112E+03  0.00000000000E+00 0.  1.
         21    1    1    2  503  506 -0.70790372061E+02 -0.31977605021E+02  0.90907279613E+03  0.91238544085E+03  0.00000000000E+00 0. -1.
         21    1    1    2  504  502  0.21635671100E+02 -0.32004093030E+02 -0.71235909238E+02  0.81036528798E+02  0.00000000000E+00 0. -1.
         21    1    1    2  505  503  0.47342616511E+02  0.11168010371E+03  0.26445436619E+01  0.12132914948E+03  0.00000000000E+00 0.  1.
         21    1    1    2  506  501  0.18120844499E+01 -0.47698405657E+02  0.21351270302E+03  0.21878321668E+03  0.00000000000E+00 0.  1.
<scales pt_clust_3="14000.00000" pt_clust_4="38.63113" pt_clust_5="103.97402" pt_clust_6="49.09852"></scales>
<clustering>
<clus scale="   38.631">  2  4  1 -1</clus>
<clus scale="   49.099">  1  6  2 -1</clus>
<clus scale="  103.974">  2  5  1 -1</clus>
<clus scale="   49.099">  1  3  2 -1</clus>
</clustering>
</event>
<event>
 6    0  0.6132510E+002  0.1238568E+03  0.7546771E-02  0.1236867E+00
         21   -1    0    0  505  501  0.00000000000E+00  0.00000000000E+00  0.50013145375E+02  0.50013145375E+02  0.00000000000E+00 0.  1.
         21   -1    0    0  504  502 -0.00000000000E+00 -0.00000000000E+00 -0.11403448328E+04  0.11403448328E+04  0.00000000000E+00 0. -1.
         21    1    1    2  503  502  0.59176857365E+01  0.54376389606E+02 -0.14718027004E+03  0.15701542166E+03  0.00000000000E+00 0.  1.
         21    1    1    2  504  506  0.90459605603E+02  0.38547926273E+02 -0.83302395154E+03  0.83880735971E+03  0.00000000000E+00 0. -1.
         21    1    1    2  505  503 -0.60519101662E+02 -0.10463827244E+03 -0.71016750309E+02  0.14019667809E+03  0.00000000000E+00 0.  1.
         21    1    1    2  506  501 -0.35858189677E+02  0.11713956557E+02 -0.39110715528E+02  0.54338518698E+02  0.00000000000E+00 0.  1.
<scales pt_clust_3="55.76275" pt_clust_4="14000.00000" pt_clust_5="123.85675" pt_clust_6="37.72302"></scales>
<clustering>
<clus scale="   37.723">  1  6  2 -1</clus>
<clus scale="   55.763">  2  3  1 -1</clus>
<clus scale="  123.857">  1  5  2 -1</clus>
<clus scale="   37.723">  1  3  2 -1</clus>
</clustering>
</event>
<event>
 6    0  0.6132510E+002  0.1862863E+03  0.7546771E-02  0.1161854E+00
         21   -1    0    0  504  501  0.00000000000E+00  0.00000000000E+00  0.55497286565E+03  0.55497286565E+03  0.00000000000E+00 0. -1.
         21   -1    0    0  505  502 -0.00000000000E+00 -0.00000000000E+00 -0.81440403820E+02  0.81440403820E+02  0.00000000000E+00 0. -1.
         21    1    1    2  503  502  0.61360582058E+02 -0.59550400076E+02  0.12665878970E+03  0.15281956743E+03  0.00000000000E+00 0. -1.
         21    1    1    2  504  503  0.17759109254E+01 -0.90939429679E+02  0.13860457770E+03  0.16578408455E+03  0.00000000000E+00 0. -1.
         21    1    1    2  505  506  0.26877149681E+02 -0.14856062600E+02 -0.73425647467E+01  0.31575259746E+02  0.00000000000E+00 0.  1.
         21    1    1    2  506  501 -0.90013642664E+02  0.16534589236E+03  0.21561165917E+03  0.28623435775E+03  0.00000000000E+00 0. -1.
<scales pt_clust_3="66.18034" pt_clust_4="66.18034" pt_clust_5="30.70967" pt_clust_6="173.75950"></scales>
<clustering>
<clus scale="   30.710">  2  5  1 -1</clus>
<clus scale="   66.180">  3  4 -1 -1</clus>
<clus scale="  173.760">  2  6  1 -1</clus>
<clus scale="  186.286">  1  3  2 -1</clus>
</clustering>
</event>
<event>
 6    0  0.6132510E+002  0.9795559E+02  0.7546771E-02  0.1284655E+00
         21   -1    0    0  505  501  0.00000000000E+00  0.00000000000E+00  0.13429648687E+04  0.13429648687E+04  0.00000000000E+00 0. -1.
         21   -1    0    0  506  502 -0.00000000000E+00 -0.00000000000E+00 -0.41012632211E+03  0.41012632211E+03  0.00000000000E+00 0.  1.
         21    1    1    2  503  504  0.58955658650E+02 -0.10364468788E+01 -0.12538424909E+03  0.13855704179E+03  0.00000000000E+00 0.  1.
         21    1    1    2  504  501 -0.69701399656E+02 -0.51611874618E+02  0.10747426741E+04  0.10782364705E+04  0.00000000000E+00 0. -1.
         21    1    1    2  505  502 -0.30676949734E+02  0.85739708391E+02  0.24921220097E+03  0.26532827582E+03  0.00000000000E+00 0. -1.
         21    1    1    2  506  503  0.41422690740E+02 -0.33091386894E+02 -0.26573207939E+03  0.27096940273E+03  0.00000000000E+00 0.  1.
<scales pt_clust_3="14000.00000" pt_clust_4="86.56463" pt_clust_5="97.95559" pt_clust_6="53.01773"></scales>
<clustering>
<clus scale="   53.018">  2  6  1 -1</clus>
<clus scale="   86.565">  1  4  2 -1</clus>
<clus scale="   97.956">  1  5  2 -1</clus>
<clus scale="   86.565">  1  3  2 -1</clus>
</clustering>
</event>
<event>
 6    0  0.6132510E+002  0.1805246E+03  0.7546771E-02  0.1167296E+00
         21   -1    0    0  504  501  0.00000000000E+00  0.00000000000E+00  0.18788961415E+03  0.18788961415E+03  0.00000000000E+00 0.  1.
         21   -1    0    0  505  502 -0.00000000000E+00 -0.00000000000E+00 -0.39189092487E+03  0.39189092487E+03  0.00000000000E+00 0.  1.
         21    1    1    2  503  501  0.31527770291E+02  0.16813216726E+03 -0.21029970838E+03  0.27108742743E+03  0.00000000000E+00 0.  1.
         21    1    1    2  504  502 -0.10567145528E+03 -0.15323594000E+03  0.74334244098E+02  0.20043275584E+03  0.00000000000E+00 0.  1.
         21    1    1    2  505  506  0.33844863752E+02  0.10630237417E+02 -0.37499259481E+02  0.51620453423E+02  0.00000000000E+00 0.  1.
         21    1    1    2  506  503  0.40298821239E+02 -0.25526464682E+02 -0.30536586950E+02  0.56639902322E+02  0.00000000000E+00 0.  1.
<scales pt_clust_3="180.52459" pt_clust_4="14000.00000" pt_clust_5="31.94503" pt_clust_6="84.21062"></scales>
<clustering>
<clus scale="   31.945">  5  6 -1 -1</clus>
<clus scale="   84.211">  2  5  1 -1</clus>
<clus scale="  180.525">  2  3  1 -1</clus>
<clus scale="  180.525">  1  3  2 -1</clus>
</clustering>
</event>
<event>
 6    0  0.6132510E+002  0.6276025E+02  0.7546771E-02  0.1386600E+00
         21   -1    0    0  506  501  0.00000000000E+00  0.00000000000E+00  0.60491087535E+02  0.60491087535E+02  0.00000000000E+00 0. -1.
         21   -1    0    0  505  502 -0.00000000000E+00 -0.00000000000E+00 -0.87325567575E+03  0.87325567575E+03  0.00000000000E+00 0. -1.
         21    1    1    2  503  502  0.78288892571E+02 -0.33196390027E+02 -0.65204749832E+03  0.65756907704E+03  0.00000000000E+00 0. -1.
         21    1    1    2  504  501 -0.74529025421E+02  0.64608795244E+02 -0.12865263840E+02  0.99470533661E+02  0.00000000000E+00 0. -1.
         21    1    1    2  505  504 -0.24229646607E+02  0.18258809007E+02 -0.10088443993E+03  0.10534766301E+03  0.00000000000E+00 0. -1.
         21    1    1    2  506  503  0.20469779457E+02 -0.49671214224E+02 -0.46967386122E+02  0.71359489577E+02  0.00000000000E+00 0. -1.
<scales pt_clust_3="62.76025" pt_clust_4="14000.00000" pt_clust_5="30.33908" pt_clust_6="51.73128"></scales>
<clustering>
<clus scale="   30.339">  2  5  1 -1</clus>
<clus scale="   51.731">  1  6  2 -1</clus>
<clus scale="   62.760">  2  3  1 -1</clus>
<clus scale="   51.731">  1  3  2 -1</clus>
</clustering>
</event>
<event>
 6    0  0.6132510E+002  0.2407069E+03  0.7546771E-02  0.1119323E+00
         21   -1    0    0  505  501  0.00000000000E+00  0.00000000000E+00  0.27985709343E+04  0.27985709343E+04  0.00000000000E+00 0. -1.
         21   -1    0    0  506  502 -0.00000000000E+00 -0.00000000000E+00 -0.41505599387E+03  0.41505599387E+03  0.00000000000E+00 0. -1.
         21    1    1    2  503  501 -0.12991292080E+00 -0.60241279209E+02  0.22998684093E+03  0.23774561110E+03  0.00000000000E+00 0. -1.
         21    1    1    2  504  503 -0.20865483616E+03 -0.14617931539E+02  0.10464651014E+04  0.10671643421E+04  0.00000000000E+00 0. -1.
         21    1    1    2  505  502  0.26267467788E+03  0.10980826973E+03  0.14917650123E+04  0.15186897953E+04  0.00000000000E+00 0. -1.
         21    1    1    2  506  504 -0.53889928798E+02 -0.34949058981E+02 -0.38470201419E+03  0.39002717966E+03  0.00000000000E+00 0. -1.
<scales pt_clust_3="60.24142" pt_clust_4="240.70691" pt_clust_5="14000.00000" pt_clust_6="64.26470"></scales>
<clustering>
<clus scale="   60.241">  1  3  2 -1</clus>
<clus scale="   64.265">  2  6  1 -1</clus>
<clus scale="  240.707">  1  4  2 -1</clus>
<clus scale="   60.241">  1  3  2 -1</clus>
</clustering>
</event>
<event>
 6    0  0.6132510E+002  0.1956092E+03  0.7546771E-02  0.1153497E+00
         21   -1    0    0  506  501  0.00000000000E+00  0.00000000000E+00  0.19877159865E+03  0.19877159865E+03  0.00000000000E+00 0.  1.
         21   -1    0    0  505  502 -0.00000000000E+00 -0.00000000000E+00 -0.49354994986E+03  0.49354994986E+03  0.00000000000E+00 0.  1.
         21    1    1    2  503  501  0.78924703329E+02  0.18165412492E+03  0.74422094748E+01  0.19819867905E+03  0.00000000000E+00 0.  1.
         21    1    1    2  504  502 -0.12275154148E+02 -0.30084872708E+02 -0.23816853909E+02  0.40286741061E+02  0.00000000000E+00 0.  1.
         21    1    1    2  505  503  0.21761072806E+02 -0.39407484561E+02 -0.30522123326E+03  0.30852308725E+03  0.00000000000E+00 0.  1.
         21    1    1    2  506  504 -0.88410621988E+02 -0.11216176765E+03  0.26817526496E+02  0.14531304115E+03  0.00000000000E+00 0.  1.
<scales pt_clust_3="184.92271" pt_clust_4="30.41697" pt_clust_5="45.01660" pt_clust_6="30.41697"></scales>
<clustering>
<clus scale="   30.417">  4  6 -1 -1</clus>
<clus scale="   45.017">  2  5  1 -1</clus>
<clus scale="  184.923">  2  3  1 -1</clus>
<clus scale="  195.609">  1  3  2 -1</clus>
</clustering>
</event>
<event>
 6    0  0.6132510E+002  0.1249465E+03  0.7546771E-02  0.1235153E+00
         21   -1    0    0  506  501  0.00000000000E+00  0.00000000000E+00  0.74455035022E+03  0.74455035022E+03  0.00000000000E+00 0. -1.
         21   -1    0    0  504  502 -0.00000000000E+00 -0.00000000000E+00 -0.21384532847E+03  0.21384532847E+03  0.00000000000E+00 0. -1.
         21    1    1    2  503  502  0.10086036484E+03  0.13309179615E+03 -0.83160386896E+02  0.18655264498E+03  0.00000000000E+00 0. -1.
         21    1    1    2  504  505 -0.77063948345E+02 -0.71846636959E+01 -0.48910161899E+02  0.91556952024E+02  0.00000000000E+00 0. -1.
         21    1    1    2  505  501 -0.75250221898E+01 -0.80533193683E+02  0.57024421178E+03  0.57595197918E+03  0.00000000000E+00 0. -1.
         21    1    1    2  506  503 -0.16271394305E+02 -0.45373938775E+02  0.92531358764E+02  0.10433410251E+03  0.00000000000E+00 0. -1.
<scales pt_clust_3="124.94653" pt_clust_4="78.08512" pt_clust_5="14000.00000" pt_clust_6="48.20324"></scales>
<clustering>
<clus scale="   48.203">  1  6  2 -1</clus>
<clus scale="   78.085">  2  4  1 -1</clus>
<clus scale="  124.947">  2  3  1 -1</clus>
<clus scale="   48.203">  1  3  2 -1</clus>
</clustering>
</event>
<event>
 6    0  0.6132510E+002  0.8409245E+02  0.7546771E-02  0.1317823E+00
         21   -1    0    0  503  501  0.00000000000E+00  0.00000000000E+00  0.32417375388E+03  0.32417375388E+03  0.00000000000E+00 0.  1.
         21   -1    0    0  506  502 -0.00000000000E+00 -0.00000000000E+00 -0.99249736050E+03  0.99249736050E+03  0.00000000000E+00 0.  1.
         21    1    1    2  503  504  0.20450086385E+01 -0.39380552567E+02  0.11344258009E+03  0.12010091157E+03  0.00000000000E+00 0.  1.
         21    1    1    2  504  505 -0.55652398416E+02 -0.27711675326E+02  0.18982469790E+03  0.19974619479E+03  0.00000000000E+00 0.  1.
         21    1    1    2  505  502  0.87864040090E+01  0.10153758733E+03 -0.89929653623E+03  0.90505322640E+03  0.00000000000E+00 0.  1.
         21    1    1    2  506  501  0.44820985769E+02 -0.34445359439E+02 -0.72294348383E+02  0.91770781626E+02  0.00000000000E+00 0.  1.
<scales pt_clust_3="39.43361" pt_clust_4="84.09245" pt_clust_5="14000.00000" pt_clust_6="57.74791"></scales>
<clustering>
<clus scale="   39.434">  1  3  2 -1</clus>
<clus scale="   57.748">  2  6  1 -1</clus>
<clus scale="   84.092">  1  4  2 -1</clus>
<clus scale="   39.434">  1  3  2 -1</clus>
</clustering>
</event>
<event>
 6    0  0.6132510E+002  0.1162508E+03  0.7546771E-02  0.1249413E+00
         21   -1    0    0  504  501  0.00000000000E+00  0.00000000000E+00  0.34060830560E+03  0.34060830560E+03  0.00000000000E+00 0. -1.
         21   -1    0    0  505  502 -0.00000000000E+00 -0.00000000000E+00 -0.49350883297E+03  0.49350883297E+03  0.00000000000E+00 0. -1.
         21    1    1    2  503  501  0.17633215011E+02 -0.91003286914E+02  0.28074914222E+03  0.29565623511E+03  0.00000000000E+00 0. -1.
         21    1    1    2  504  502 -0.41358051273E+01 -0.34427553663E+02  0.23790700161E+02  0.42051857860E+02  0.00000000000E+00 0. -1.
         21    1    1    2  505  506  0.37288716691E+02  0.53876358457E+02 -0.35732957202E+03  0.36328712258E+03  0.00000000000E+00 0. -1.
         21    1    1    2  506  503 -0.50786126575E+02  0.71554482120E+02 -0.10011079774E+03  0.13312192302E+03  0.00000000000E+00 0. -1.
<scales pt_clust_3="14000.00000" pt_clust_4="34.67508" pt_clust_5="65.22517" pt_clust_6="116.25083"></scales>
<clustering>
<clus scale="   34.675">  1  4  2 -1</clus>
<clus scale="   65.225">  2  5  1 -1</clus>
<clus scale="  116.251">  2  6  1 -1</clus>
<clus scale="   34.675">  1  3  2 -1</clus>
</clustering>
</event>
<event>
 6    0  0.6132510E+002  0.7083164E+02  0.7546771E-02  0.1357288E+00
         21   -1    0    0  504  501  0.00000000000E+00  0.00000000000E+00  0.28328372028E+03  0.28328372028E+03  0.00000000000E+00 0.  1.
         21   -1    0    0  506  502 -0.00000000000E+00 -0.00000000000E+00 -0.66833008596E+03  0.66833008596E+03  0.00000000000E+00 0.  1.
         21    1    1    2  503  502  0.40122788738E+02  0.21269095888E+02 -0.39394752651E+03  0.39655625863E+03  0.00000000000E+00 0.  1.
         21    1    1    2  504  503  0.47659390241E+02  0.21023859336E+02  0.17747912051E+03  0.18496555992E+03  0.00000000000E+00 0.  1.
         21    1    1    2  505  501 -0.32573670511E+02  0.49309021038E+02  0.80012235719E+02  0.99470505332E+02  0.00000000000E+00 0.  1.
         21    1    1    2  506  505 -0.55208508468E+02 -0.91601976262E+02 -0.24859019540E+03  0.27062148236E+03  0.00000000000E+00 0. -1.
<scales pt_clust_3="45.41159" pt_clust_4="52.71139" pt_clust_5="14000.00000" pt_clust_6="70.83164"></scales>
<clustering>
<clus scale="   45.412">  2  3  1 -1</clus>
<clus scale="   52.711">  1  4  2 -1</clus>
<clus scale="   70.832">  2  6  1 -1</clus>
<clus scale="   52.711">  1  3  2 -1</clus>
</clustering>
</event>
<event>
 6    0  0.6132510E+002  0.8361360E+02  0.7546771E-02  0.1319098E+00
         21   -1    0    0  506  501  0.00000000000E+00  0.00000000000E+00  0.47766427009E+02  0.47766427009E+02  0.00000000000E+00 0. -1.
         21   -1    0    0  504  502 -0.00000000000E+00 -0.00000000000E+00 -0.89529644473E+03  0.89529644473E+03  0.00000000000E+00 0.  1.
         21    1    1    2  503  502 -0.26727408218E+01 -0.65736388059E+02 -0.52195529934E+03  0.52608530750E+03  0.00000000000E+00 0.  1.
         21    1    1    2  504  501  0.94094064064E+02  0.21102114858E+02 -0.26238831969E+03  0.27954717393E+03  0.00000000000E+00 0.  1.
         21    1    1    2  505  503 -0.45900839925E+02  0.37856990224E+02 -0.29552508332E+00  0.59498959232E+02  0.00000000000E+00 0. -1.
         21    1    1    2  506  505 -0.45520483318E+02  0.67772829768E+01 -0.62890873606E+02  0.77931431072E+02  0.00000000000E+00 0.  1.
<scales pt_clust_3="65.58017" pt_clust_4="83.61360" pt_clust_5="14000.00000" pt_clust_6="46.02223"></scales>
<clustering>
<clus scale="   46.022">  1  6  2 -1</clus>
<clus scale="   65.580">  2  3  1 -1</clus>
<clus scale="   83.614">  2  4  1 -1</clus>
<clus scale="   46.022">  1  3  2 -1</clus>
</clustering>
</event>
<event>
 6    0  0.6132510E+002  0.1448773E+03  0.7546771E-02  0.1206913E+00
         21   -1    0    0  503  501  0.00000000000E+00  0.00000000000E+00  0.33868202691E+03  0.33868202691E+03  0.00000000000E+00 0.  1.
         21   -1    0    0  504  502 -0.00000000000E+00 -0.00000000000E+00 -0.26065345538E+03  0.26065345538E+03  0.00000000000E+00 0. -1.
         21    1    1    2  503  505  0.31965907649E+02  0.24279741972E+02  0.23091517339E+02  0.46309213933E+02  0.00000000000E+00 0. -1.
         21    1    1    2  504  501 -0.12447665726E+03  0.21835901989E+02  0.72996876984E+02  0.14594447186E+03  0.00000000000E+00 0.  1.
         21    1    1    2  505  506  0.10208006026E+03  0.53804233882E+01  0.17739013156E+03  0.20473530823E+03  0.00000000000E+00 0.  1.
         21    1    1    2  506  502 -0.95693106499E+01 -0.51496067349E+02 -0.19544995435E+03  0.20234648827E+03  0.00000000000E+00 0. -1.
<scales pt_clust_3="39.54552" pt_clust_4="130.41094" pt_clust_5="39.54552" pt_clust_6="52.37764"></scales>
<clustering>
<clus scale="   39.546">  3  5 -1 -1</clus>
<clus scale="   52.378">  2  6  1 -1</clus>
<clus scale="  130.411">  2  4  1 -1</clus>
<clus scale="  144.877">  1  3  2 -1</clus>
</clustering>
</event>
<event>
 6    0  0.6132510E+002  0.1290391E+03  0.7546771E-02  0.1228889E+00
         21   -1    0    0  503  501  0.00000000000E+00  0.00000000000E+00  0.12605647609E+03  0.12605647609E+03  0.00000000000E+00 0.  1.
         21   -1    0    0  506  502 -0.00000000000E+00 -0.00000000000E+00 -0.30420400479E+03  0.30420400479E+03  0.00000000000E+00 0.  1.
         21    1    1    2  503  505  0.30836027263E+02  0.61772820408E+01 -0.92844030467E+01  0.32790540263E+02  0.00000000000E+00 0. -1.
         21    1    1    2  504  502  0.44539040548E+02 -0.18108692997E+02 -0.10777420579E+03  0.11801241600E+03  0.00000000000E+00 0.  1.
         21    1    1    2  505  504  0.57057387396E+02 -0.88447734866E+02 -0.10630825893E+02  0.10579017780E+03  0.00000000000E+00 0.  1.
         21    1    1    2  506  501 -0.13243245521E+03  0.10037914582E+03 -0.50458093967E+02  0.17366734683E+03  0.00000000000E+00 0.  1.
<scales pt_clust_3="31.44868" pt_clust_4="49.26085" pt_clust_5="14000.00000" pt_clust_6="129.03910"></scales>
<clustering>
<clus scale="   31.449">  1  3  2 -1</clus>
<clus scale="   49.261">  2  4  1 -1</clus>
<clus scale="  129.039">  2  6  1 -1</clus>
<clus scale="   31.449">  1  3  2 -1</clus>
</clustering>
</event>
<event>
 6    0  0.6132510E+002  0.1040337E+03  0.7546771E-02  0.1272035E+00
         21   -1    0    0  504  501  0.00000000000E+00  0.00000000000E+00  0.14771933805E+04  0.14771933805E+04  0.00000000000E+00 0. -1.
         21   -1    0    0  506  502 -0.00000000000E+00 -0.00000000000E+00 -0.35869745702E+02  0.35869745702E+02  0.00000000000E+00 0. -1.
         21    1    1    2  503  505  0.35283804731E+02  0.65935403039E+02  0.19881196566E+03  0.21241144493E+03  0.00000000000E+00 0. -1.
         21    1    1    2  504  503  0.60462220597E+02  0.11579469464E+02  0.84609168977E+03  0.84832830421E+03  0.00000000000E+00 0. -1.
         21    1    1    2  505  502 -0.63618935760E+02 -0.10815178669E+03  0.12434976829E+03  0.17665515227E+03  0.00000000000E+00 0. -1.
         21    1    1    2  506  501 -0.32127089567E+02  0.30636914187E+02  0.27207021113E+03  0.27566822483E+03  0.00000000000E+00 0.  1.
<scales pt_clust_3="104.03366" pt_clust_4="50.30887" pt_clust_5="14000.00000" pt_clust_6="44.39336"></scales>
<clustering>
<clus scale="   44.393">  1  6  2 -1</clus>
<clus scale="   50.309">  1  4  2 -1</clus>
<clus scale="  104.034">  1  3  2 -1</clus>
<clus scale="   44.393">  1  3  2 -1</clus>
</clustering>
</event>
<event>
 6    0  0.6132510E+002  0.2265958E+03  0.7546771E-02  0.1129059E+00
         21   -1    0    0  504  501  0.00000000000E+00  0.00000000000E+00  0.21595058864E+03  0.21595058864E+03  0.00000000000E+00 0.  1.
         21   -1    0    0  505  502 -0.00000000000E+00 -0.00000000000E+00 -0.66256808741E+03  0.66256808741E+03  0.00000000000E+00 0.  1.
         21    1    1    2  503  502 -0.53926908944E+02  0.21566415673E+02 -0.41673126585E+03  0.42075903998E+03  0.00000000000E+00 0.  1.
         21    1    1    2  504  503 -0.11418603014E+02 -0.22474941634E+03  0.32974233493E+02  0.22744226678E+03  0.00000000000E+00 0.  1.
         21    1    1    2  505  506  0.63460649440E+02  0.10057122873E+03 -0.35453445512E+02  0.12409179213E+03  0.00000000000E+00 0.  1.
         21    1    1    2  506  501  0.18848625191E+01  0.10261177194E+03 -0.27407020899E+02  0.10622557716E+03  0.00000000000E+00 0.  1.
<scales pt_clust_3="58.07944" pt_clust_4="218.64210" pt_clust_5="55.28270" pt_clust_6="55.28270"></scales>
<clustering>
<clus scale="   55.283">  5  6 -1 -1</clus>
<clus scale="   58.079">  2  3  1 -1</clus>
<clus scale="  218.642">  1  4  2 -1</clus>
<clus scale="  218.642">  1  3  2 -1</clus>
</clustering>
</event>
<event>
 6    0  0.6132510E+002  0.9884025E+02  0.7546771E-02  0.1282754E+00
         21   -1    0    0  504  501  0.00000000000E+00  0.00000000000E+00  0.27134495394E+03  0.27134495394E+03  0.00000000000E+00 0. -1.
         21   -1    0    0  503  502 -0.00000000000E+00 -0.00000000000E+00 -0.20471466886E+03  0.20471466886E+03  0.00000000000E+00 0. -1.
         21    1    1    2  503  506  0.32105542698E+02 -0.71929177434E+01 -0.27140531294E+02  0.42651053639E+02  0.00000000000E+00 0. -1.
         21    1    1    2  504  502 -0.60069996510E+02 -0.91432903847E+02 -0.13634429354E+03  0.17480888641E+03  0.00000000000E+00 0. -1.
         21    1    1    2  505  501  0.29774041436E+02  0.25644466864E+02  0.45763481669E+02  0.60319387254E+02  0.00000000000E+00 0.  1.
         21    1    1    2  506  505 -0.18095876246E+01  0.72981354726E+02  0.18435162825E+03  0.19828029550E+03  0.00000000000E+00 0. -1.
<scales pt_clust_3="32.90143" pt_clust_4="14000.00000" pt_clust_5="40.15277" pt_clust_6="98.84025"></scales>
<clustering>
<clus scale="   32.901">  2  3  1 -1</clus>
<clus scale="   40.153">  1  5  2 -1</clus>
<clus scale="   98.840">  1  6  2 -1</clus>
<clus scale="   40.153">  1  3  2 -1</clus>
</clustering>
</event>
<event>
 6    0  0.6132510E+002  0.1338707E+03  0.7546771E-02  0.1221823E+00
         21   -1    0    0  503  501  0.00000000000E+00  0.00000000000E+00  0.65499763044E+02  0.65499763044E+02  0.00000000000E+00 0. -1.
         21   -1    0    0  504  502 -0.00000000000E+00 -0.00000000000E+00 -0.21397533050E+04  0.21397533050E+04  0.00000000000E+00 0. -1.
         21    1    1    2  503  505 -0.17323887351E+03  0.27116889835E+02 -0.85050779510E+03  0.86839538376E+03  0.00000000000E+00 0. -1.
         21    1    1    2  504  506  0.76750849180E+02  0.17235383166E+02 -0.54345870252E+03  0.54912212906E+03  0.00000000000E+00 0.  1.
         21    1    1    2  505  502 -0.30340476384E+02 -0.15480020697E+02 -0.65418244579E+03  0.65506858261E+03  0.00000000000E+00 0.  1.
         21    1    1    2  506  501  0.12682850072E+03 -0.28872252304E+02 -0.26104598512E+02  0.13266697257E+03  0.00000000000E+00 0. -1.
<scales pt_clust_3="133.87070" pt_clust_4="66.59804" pt_clust_5="34.06135" pt_clust_6="14000.00000"></scales>
<clustering>
<clus scale="   34.061">  2  5  1 -1</clus>
<clus scale="   66.598">  2  4  1 -1</clus>
<clus scale="  133.871">  2  3  1 -1</clus>
<clus scale="  133.871">  1  3  2 -1</clus>
</clustering>
</event>
<event>
 6    0  0.9974667E+002  0.1457748E+03  0.7546771E-02  0.1205763E+00
         21   -1    0    0  503  501  0.00000000000E+00  0.00000000000E+00  0.87298221266E+03  0.87298221266E+03  0.00000000000E+00 0.  1.
         21   -1    0    0  506  502 -0.00000000000E+00 -0.00000000000E+00 -0.13583239660E+04  0.13583239660E+04  0.00000000000E+00 0. -1.
         21    1    1    2  503  504  0.82179122949E+02 -0.27858296961E+02  0.47173289061E+03  0.47964717558E+03  0.00000000000E+00 0.  1.
         21    1    1    2  504  505  0.20106082983E+02 -0.38620023278E+02  0.21184597773E+03  0.21627408317E+03  0.00000000000E+00 0.  1.
         21    1    1    2  505  502 -0.85345136754E+02  0.10887687024E+03 -0.13457064000E+04  0.13527984626E+04  0.00000000000E+00 0. -1.
         21    1    1    2  506  501 -0.16940069178E+02 -0.42398549998E+02  0.17678577835E+03  0.18258645736E+03  0.00000000000E+00 0.  1.
<scales pt_clust_3="32.80482" pt_clust_4="32.80482" pt_clust_5="138.22296" pt_clust_6="45.65745"></scales>
<clustering>
<clus scale="   32.805">  3  4 -1 -1</clus>
<clus scale="   45.657">  1  6  2 -1</clus>
<clus scale="  138.223">  2  5  1 -1</clus>
<clus scale="   45.657">  1  3  2 -1</clus>
</clustering>
</event>
<event>
 6    0  0.6132510E+002  0.2072224E+03  0.7546771E-02  0.1143785E+00
         21   -1    0    0  504  501  0.00000000000E+00  0.00000000000E+00  0.42299617208E+03  0.42299617208E+03  0.00000000000E+00 0.  1.
         21   -1    0    0  503  502 -0.00000000000E+00 -0.00000000000E+00 -0.21636479190E+04  0.21636479190E+04  0.00000000000E+00 0.  1.
         21    1    1    2  503  501  0.84425772148E+02  0.97270381649E+02 -0.63927963139E+01  0.12895776826E+03  0.00000000000E+00 0.  1.
         21    1    1    2  504  506 -0.75313658310E+02  0.48769534588E+02  0.24547304946E+03  0.26135728925E+03  0.00000000000E+00 0.  1.
         21    1    1    2  505  502  0.78517670352E+02 -0.17065485953E+03 -0.20638555114E+04  0.20723869517E+04  0.00000000000E+00 0.  1.
         21    1    1    2  506  505 -0.87629784189E+02  0.24614943292E+02  0.84123511313E+02  0.12394208190E+03  0.00000000000E+00 0.  1.
<scales pt_clust_3="128.79922" pt_clust_4="88.16789" pt_clust_5="187.23045" pt_clust_6="88.16789"></scales>
<clustering>
<clus scale="   88.168">  4  6 -1 -1</clus>
<clus scale="  128.799">  1  3  2 -1</clus>
<clus scale="  187.230">  2  5  1 -1</clus>
<clus scale="  128.799">  1  3  2 -1</clus>
</clustering>
</event>
<event>
 6    0  0.6132510E+002  0.1848139E+03  0.7546771E-02  0.1163224E+00
         21   -1    0    0  505  501  0.00000000000E+00  0.00000000000E+00  0.90581675925E+03  0.90581675925E+03  0.00000000000E+00 0. -1.
         21   -1    0    0  506  502 -0.00000000000E+00 -0.00000000000E+00 -0.69754800059E+03  0.69754800059E+03  0.00000000000E+00 0. -1.
         21    1    1    2  503  504 -0.12472157464E+03  0.17629263111E+02  0.72620986370E+03  0.73705293448E+03  0.00000000000E+00 0. -1.
         21    1    1    2  504  501 -0.45604288820E+02  0.63541136508E+01  0.11450822842E+03  0.12341904349E+03  0.00000000000E+00 0. -1.
         21    1    1    2  505  502  0.20175971913E+03 -0.33628762634E+02 -0.13661762100E+03  0.24597205595E+03  0.00000000000E+00 0. -1.
         21    1    1    2  506  503 -0.31433855673E+02  0.96453858728E+01 -0.49583171247E+03  0.49692072591E+03  0.00000000000E+00 0. -1.
<scales pt_clust_3="38.49400" pt_clust_4="38.49400" pt_clust_5="173.60056" pt_clust_6="32.88040"></scales>
<clustering>
<clus scale="   32.880">  2  6  1 -1</clus>
<clus scale="   38.494">  3  4 -1 -1</clus>
<clus scale="  173.601">  2  5  1 -1</clus>
<clus scale="  184.814">  1  3  2 -1</clus>
</clustering>
</event>
<event>
 6    0  0.6132510E+002  0.1590393E+03  0.7546771E-02  0.1189786E+00
         21   -1    0    0  503  501  0.00000000000E+00  0.00000000000E+00  0.11869521993E+04  0.11869521993E+04  0.00000000000E+00 0.  1.
         21   -1    0    0  505  502 -0.00000000000E+00 -0.00000000000E+00 -0.71521113619E+02  0.71521113619E+02  0.00000000000E+00 0. -1.
         21    1    1    2  503  504  0.10693853534E+03  0.12759968848E+03  0.88660899407E+03  0.90210478283E+03  0.00000000000E+00 0.  1.
         21    1    1    2  504  502 -0.76103651438E+02  0.17259256599E+02  0.42378014226E+02  0.88800584403E+02  0.00000000000E+00 0. -1.
         21    1    1    2  505  506 -0.60976675521E+02 -0.11900984202E+03  0.84547760105E+02  0.15820815780E+03  0.00000000000E+00 0. -1.
         21    1    1    2  506  501  0.30141791618E+02 -0.25849103065E+02  0.10189631723E+03  0.10935978784E+03  0.00000000000E+00 0. -1.
<scales pt_clust_3="159.03935" pt_clust_4="75.91473" pt_clust_5="14000.00000" pt_clust_6="39.70773"></scales>
<clustering>
<clus scale="   39.708">  1  6  2 -1</clus>
<clus scale="   75.915">  2  4  1 -1</clus>
<clus scale="  159.039">  1  3  2 -1</clus>
<clus scale="   39.708">  1  3  2 -1</clus>
</clustering>
</event>
<event>
 6    0  0.6132510E+002  0.1050875E+03  0.7546771E-02  0.1269947E+00
         21   -1    0    0  504  501  0.00000000000E+00  0.00000000000E+00  0.79103777673E+02  0.79103777673E+02  0.00000000000E+00 0. -1.
         21   -1    0    0  503  502 -0.00000000000E+00 -0.00000000000E+00 -0.30036901442E+04  0.30036901442E+04  0.00000000000E+00 0.  1.
         21    1    1    2  503  505  0.47675150639E+02 -0.32031954907E+01 -0.55663319362E+02  0.73359290974E+02  0.00000000000E+00 0. -1.
         21    1    1    2  504  506 -0.87604117712E+02  0.19986204176E+02  0.46640534312E+01  0.89976014537E+02  0.00000000000E+00 0. -1.
         21    1    1    2  505  501  0.49596349470E+02  0.37108411697E+02 -0.19632645917E+02  0.64979018807E+02  0.00000000000E+00 0. -1.
         21    1    1    2  506  502 -0.96673823968E+01 -0.53891420383E+02 -0.28539544547E+04  0.28544795976E+04  0.00000000000E+00 0.  1.
<scales pt_clust_3="46.94334" pt_clust_4="90.48031" pt_clust_5="46.94334" pt_clust_6="54.75165"></scales>
<clustering>
<clus scale="   46.943">  3  5 -1 -1</clus>
<clus scale="   54.752">  2  6  1 -1</clus>
<clus scale="   90.480">  1  4  2 -1</clus>
<clus scale="   90.480">  1  3  2 -1</clus>
</clustering>
</event>
<event>
 6    0  0.6132510E+002  0.9369081E+02  0.7546771E-02  0.1294152E+00
         21   -1    0    0  506  501  0.00000000000E+00  0.00000000000E+00  0.21658558646E+03  0.21658558646E+03  0.00000000000E+00 0. -1.
         21   -1    0    0  503  502 -0.00000000000E+00 -0.00000000000E+00 -0.16420098424E+03  0.16420098424E+03  0.00000000000E+00 0.  1.
         21    1    1    2  503  505  0.41879961343E+02 -0.50219695273E+01 -0.47193219372E+02  0.63295744681E+02  0.00000000000E+00 0.  1.
         21    1    1    2  504  502 -0.84108720456E+02  0.91412401068E+02 -0.48946836081E+02  0.13351515527E+03  0.00000000000E+00 0.  1.
         21    1    1    2  505  501 -0.14395705179E+01 -0.34806246730E+02  0.24035230820E+02  0.42323037406E+02  0.00000000000E+00 0. -1.
         21    1    1    2  506  504  0.43668329630E+02 -0.51584184812E+02  0.12448942685E+03  0.14165263334E+03  0.00000000000E+00 0. -1.
<scales pt_clust_3="42.32663" pt_clust_4="14000.00000" pt_clust_5="34.83600" pt_clust_6="93.69081"></scales>
<clustering>
<clus scale="   34.836">  1  5  2 -1</clus>
<clus scale="   42.327">  2  3  1 -1</clus>
<clus scale="   93.691">  1  6  2 -1</clus>
<clus scale="   34.836">  1  3  2 -1</clus>
</clustering>
</event>
<event>
 6    0  0.6132510E+002  0.8929813E+02  0.7546771E-02  0.1304560E+00
         21   -1    0    0  503  501  0.00000000000E+00  0.00000000000E+00  0.39117174078E+02  0.39117174078E+02  0.00000000000E+00 0.  1.
         21   -1    0    0  504  502 -0.00000000000E+00 -0.00000000000E+00 -0.86855363281E+03  0.86855363281E+03  0.00000000000E+00 0. -1.
         21    1    1    2  503  505  0.58111279208E+02 -0.34819411562E+02 -0.79511220415E+02  0.10445739019E+03  0.00000000000E+00 0.  1.
         21    1    1    2  504  501  0.54318878068E+02  0.45898542740E+02 -0.91313158581E+02  0.11573810812E+03  0.00000000000E+00 0. -1.
         21    1    1    2  505  506 -0.97698886497E+02 -0.51168354553E+02 -0.21335196374E+03  0.24017146659E+03  0.00000000000E+00 0. -1.
         21    1    1    2  506  502 -0.14731270780E+02  0.40089223376E+02 -0.44526011599E+03  0.44730384199E+03  0.00000000000E+00 0. -1.
<scales pt_clust_3="60.78472" pt_clust_4="14000.00000" pt_clust_5="89.29813" pt_clust_6="42.71014"></scales>
<clustering>
<clus scale="   42.710">  2  6  1 -1</clus>
<clus scale="   60.785">  1  3  2 -1</clus>
<clus scale="   89.298">  2  5  1 -1</clus>
<clus scale="   60.785">  1  3  2 -1</clus>
</clustering>
</event>
<event>
 6    0  0.6132510E+002  0.9363495E+02  0.7546771E-02  0.1294280E+00
         21   -1    0    0  505  501  0.00000000000E+00  0.00000000000E+00  0.14275937090E+03  0.14275937090E+03  0.00000000000E+00 0. -1.
         21   -1    0    0  503  502 -0.00000000000E+00 -0.00000000000E+00 -0.14125201139E+04  0.14125201139E+04  0.00000000000E+00 0. -1.
         21    1    1    2  503  506 -0.53986186306E+01 -0.33892455444E+02 -0.80337504308E+02  0.87361079535E+02  0.00000000000E+00 0.  1.
         21    1    1    2  504  502 -0.27796052380E+01  0.47127112593E+02 -0.14780944755E+03  0.15516547210E+03  0.00000000000E+00 0. -1.
         21    1    1    2  505  504 -0.75469565052E+02  0.29253431680E+02 -0.11593697825E+04  0.11621917703E+04  0.00000000000E+00 0. -1.
         21    1    1    2  506  501  0.83647788920E+02 -0.42488088829E+02  0.11775599128E+03  0.15056116288E+03  0.00000000000E+00 0. -1.
<scales pt_clust_3="34.31973" pt_clust_4="43.39590" pt_clust_5="14000.00000" pt_clust_6="93.63495"></scales>
<clustering>
<clus scale="   34.320">  2  3  1 -1</clus>
<clus scale="   43.396">  2  4  1 -1</clus>
<clus scale="   93.635">  1  6  2 -1</clus>
<clus scale="   93.635">  1  3  2 -1</clus>
</clustering>
</event>
<event>
 6    0  0.6132510E+002  0.5642788E+03  0.7546771E-02  0.9982419E-01
         21   -1    0    0  506  501  0.00000000000E+00  0.00000000000E+00  0.19747347299E+03  0.19747347299E+03  0.00000000000E+00 0.  1.
         21   -1    0    0  503  502 -0.00000000000E+00 -0.00000000000E+00 -0.22169643188E+04  0.22169643188E+04  0.00000000000E+00 0.  1.
         21    1    1    2  503  501  0.84653048690E+02  0.15056507205E+02 -0.58094127423E+03  0.58726961540E+03  0.00000000000E+00 0.  1.
         21    1    1    2  504  502 -0.57871697859E+03 -0.16523950184E+03 -0.75918409985E+03  0.96880231820E+03  0.00000000000E+00 0.  1.
         21    1    1    2  505  504  0.15825091537E+03  0.55066917952E+02 -0.15366078052E+03  0.22734852790E+03  0.00000000000E+00 0.  1.
         21    1    1    2  506  505  0.33581301453E+03  0.95116076681E+02 -0.52570469121E+03  0.63101733030E+03  0.00000000000E+00 0.  1.
<scales pt_clust_3="85.98161" pt_clust_4="556.60592" pt_clust_5="64.25616" pt_clust_6="64.25616"></scales>
<clustering>
<clus scale="   64.256">  5  6 -1 -1</clus>
<clus scale="   85.982">  2  3  1 -1</clus>
<clus scale="  556.606">  2  4  1 -1</clus>
<clus scale="  564.279">  1  3  2 -1</clus>
</clustering>
</event>
<event>
 6    0  0.1650332E+003  0.1084977E+03  0.7546771E-02  0.1263377E+00
         21   -1    0    0  506  501  0.00000000000E+00  0.00000000000E+00  0.23090578421E+04  0.23090578421E+04  0.00000000000E+00 0. -1.
         21   -1    0    0  504  502 -0.00000000000E+00 -0.00000000000E+00 -0.21038379581E+03  0.21038379581E+03  0.00000000000E+00 0. -1.
         21    1    1    2  503  502 -0.39491428330E+02  0.74070593869E+01 -0.19035734253E+03  0.19455167770E+03  0.00000000000E+00 0. -1.
         21    1    1    2  504  501  0.33799908680E+02 -0.41362942049E+02  0.81582584028E+02  0.97514331349E+02  0.00000000000E+00 0.  1.
         21    1    1    2  505  503 -0.47268821926E+02 -0.66708402219E+02  0.19152596486E+03  0.20824636292E+03  0.00000000000E+00 0.  1.
         21    1    1    2  506  505  0.52960341576E+02  0.10066428488E+03  0.20159228400E+04  0.20191292660E+04  0.00000000000E+00 0. -1.
<scales pt_clust_3="40.18006" pt_clust_4="41.39656" pt_clust_5="14000.00000" pt_clust_6="108.49772"></scales>
<clustering>
<clus scale="   40.180">  2  3  1 -1</clus>
<clus scale="   41.397">  2  4  1 -1</clus>
<clus scale="  108.498">  1  6  2 -1</clus>
<clus scale="  108.498">  1  3  2 -1</clus>
</clustering>
</event>
<event>
 6    0  0.6132510E+002  0.3449000E+03  0.7546771E-02  0.1064728E+00
         21   -1    0    0  504  501  0.00000000000E+00  0.00000000000E+00  0.14549862157E+04  0.14549862157E+04  0.00000000000E+00 0.  1.
         21   -1    0    0  503  502 -0.00000000000E+00 -0.00000000000E+00 -0.13675522446E+03  0.13675522446E+03  0.00000000000E+00 0.  1.
         21    1    1    2  503  501  0.34860595270E+03 -0.63791230696E+01  0.92414398447E+03  0.98772916708E+03  0.00000000000E+00 0.  1.
         21    1    1    2  504  506 -0.33781115652E+03 -0.14414017357E+02  0.40934602722E+03  0.53093155055E+03  0.00000000000E+00 0.  1.
         21    1    1    2  505  502  0.28531147887E+02  0.12647946483E+02 -0.85964095365E+01  0.32371209538E+02  0.00000000000E+00 0. -1.
         21    1    1    2  506  505 -0.39325944067E+02  0.81451939435E+01 -0.66626109369E+01  0.40709512963E+02  0.00000000000E+00 0.  1.
<scales pt_clust_3="344.90000" pt_clust_4="14000.00000" pt_clust_5="31.20892" pt_clust_6="35.18705"></scales>
<clustering>
<clus scale="   31.209">  2  5  1 -1</clus>
<clus scale="   35.187">  2  6  1 -1</clus>
<clus scale="  344.900">  1  3  2 -1</clus>
<clus scale="  344.900">  1  3  2 -1</clus>
</clustering>
</event>
<event>
 6    0  0.6132510E+002  0.2052510E+03  0.7546771E-02  0.1145383E+00
         21   -1    0    0  504  501  0.00000000000E+00  0.00000000000E+00  0.63436662630E+02  0.63436662630E+02  0.00000000000E+00 0.  1.
         21   -1    0    0  505  502 -0.00000000000E+00 -0.00000000000E+00 -0.56264804293E+03  0.56264804293E+03  0.00000000000E+00 0.  1.
         21    1    1    2  503  506 -0.38153872956E+02  0.60802887155E+02 -0.43860161780E+02  0.84121477039E+02  0.00000000000E+00 0.  1.
         21    1    1    2  504  503 -0.43945663689E+02  0.88477372025E+01 -0.61071932485E+02  0.75758067215E+02  0.00000000000E+00 0.  1.
         21    1    1    2  505  501  0.85831637945E+02 -0.14741031843E+03 -0.25901486388E+03  0.31013798826E+03  0.00000000000E+00 0.  1.
         21    1    1    2  506  502 -0.37321013006E+01  0.77759694069E+02 -0.13526442216E+03  0.15606717305E+03  0.00000000000E+00 0.  1.
<scales pt_clust_3="76.54872" pt_clust_4="42.98818" pt_clust_5="170.57805" pt_clust_6="76.54872"></scales>
<clustering>
<clus scale="   42.988">  3  4 -1 -1</clus>
<clus scale="   76.549">  3  6 -1 -1</clus>
<clus scale="  170.578">  2  5  1 -1</clus>
<clus scale="  205.251">  1  3  2 -1</clus>
</clustering>
</event>
<event>
 6    0  0.6132510E+002  0.9146794E+02  0.7546771E-02  0.1299335E+00
         21   -1    0    0  505  501  0.00000000000E+00  0.00000000000E+00  0.13884663734E+04  0.13884663734E+04  0.00000000000E+00 0. -1.
         21   -1    0    0  504  502 -0.00000000000E+00 -0.00000000000E+00 -0.41100409369E+02  0.41100409369E+02  0.00000000000E+00 0.  1.
         21    1    1    2  503  502  0.25576886667E+02  0.28946896622E+02  0.60571032027E+02  0.71839751367E+02  0.00000000000E+00 0.  1.
         21    1    1    2  504  506  0.24008585719E+01 -0.75012486398E+02  0.26204182769E+02  0.79494002492E+02  0.00000000000E+00 0.  1.
         21    1    1    2  505  503  0.36634961291E+02 -0.21984122877E+02  0.58266175586E+02  0.72252122909E+02  0.00000000000E+00 0. -1.
         21    1    1    2  506  501 -0.64612706531E+02  0.68049712653E+02  0.12023245736E+04  0.12059809060E+04  0.00000000000E+00 0. -1.
<scales pt_clust_3="38.62771" pt_clust_4="14000.00000" pt_clust_5="44.74356" pt_clust_6="91.46794"></scales>
<clustering>
<clus scale="   38.628">  2  3  1 -1</clus>
<clus scale="   44.744">  2  5  1 -1</clus>
<clus scale="   91.468">  1  6  2 -1</clus>
<clus scale="   91.468">  1  3  2 -1</clus>
</clustering>
</event>
<event>
 6    0  0.1884348E+003  0.1013541E+03  0.7546771E-02  0.1277474E+00
         21   -1    0    0  505  501  0.00000000000E+00  0.00000000000E+00  0.45668691645E+03  0.45668691645E+03  0.00000000000E+00 0.  1.
         21   -1    0    0  503  502 -0.00000000000E+00 -0.00000000000E+00 -0.72171136161E+03  0.72171136161E+03  0.00000000000E+00 0.  1.
         21    1    1    2  503  504  0.45073960767E+02 -0.75007196769E+02  0.33190319987E+02  0.93591339595E+02  0.00000000000E+00 0.  1.
         21    1    1    2  504  501  0.44746746047E+02  0.22546692496E+02  0.36719510300E+03  0.37059798743E+03  0.00000000000E+00 0.  1.
         21    1    1    2  505  506  0.11040689372E+02  0.28022836819E+02  0.93326326973E+01  0.31532114395E+02  0.00000000000E+00 0. -1.
         21    1    1    2  506  502 -0.10086139619E+03  0.24437667454E+02 -0.67474250085E+03  0.68267683664E+03  0.00000000000E+00 0.  1.
<scales pt_clust_3="101.35411" pt_clust_4="71.15714" pt_clust_5="30.11937" pt_clust_6="14000.00000"></scales>
<clustering>
<clus scale="   30.119">  1  5  2 -1</clus>
<clus scale="   71.157">  1  4  2 -1</clus>
<clus scale="  101.354">  1  3  2 -1</clus>
<clus scale="   30.119">  1  3  2 -1</clus>
</clustering>
</event>
<event>
 6    0  0.6132510E+002  0.1036371E+03  0.7546771E-02  0.1272828E+00
         21   -1    0    0  506  501  0.00000000000E+00  0.00000000000E+00  0.23919758303E+04  0.23919758303E+04  0.00000000000E+00 0. -1.
         21   -1    0    0  501  502 -0.00000000000E+00 -0.00000000000E+00 -0.72215274247E+03  0.72215274247E+03  0.00000000000E+00 0. -1.
         21    1    1    2  503  504  0.78370839608E+02  0.11268340532E+02  0.66625618616E+03  0.67094431184E+03  0.00000000000E+00 0. -1.
         21    1    1    2  504  505 -0.10693240562E+03 -0.98977417315E+02  0.13966749968E+03  0.20183676319E+03  0.00000000000E+00 0.  1.
         21    1    1    2  505  502  0.79005458708E+01  0.62191318420E+02 -0.68712332969E+03  0.68997728145E+03  0.00000000000E+00 0. -1.
         21    1    1    2  506  503  0.20661020140E+02  0.25517758363E+02  0.15510227317E+04  0.15513702163E+04  0.00000000000E+00 0. -1.
<scales pt_clust_3="103.63709" pt_clust_4="14000.00000" pt_clust_5="62.73853" pt_clust_6="32.83342"></scales>
<clustering>
<clus scale="   32.833">  1  6  2 -1</clus>
<clus scale="   62.739">  2  5  1 -1</clus>
<clus scale="  103.637">  1  3  2 -1</clus>
<clus scale="   32.833">  1  3  2 -1</clus>
</clustering>
</event>
<event>
 6    0  0.6132510E+002  0.9508264E+02  0.7546771E-02  0.1290990E+00
         21   -1    0    0  505  501  0.00000000000E+00  0.00000000000E+00  0.23459721463E+03  0.23459721463E+03  0.00000000000E+00 0. -1.
         21   -1    0    0  506  502 -0.00000000000E+00 -0.00000000000E+00 -0.48577866047E+03  0.48577866047E+03  0.00000000000E+00 0. -1.
         21    1    1    2  503  501 -0.17032402645E+02  0.28867859319E+02  0.11616895003E+02  0.35474050953E+02  0.00000000000E+00 0. -1.
         21    1    1    2  504  503 -0.39249578307E+02 -0.13254050057E+02  0.13097833261E+03  0.13737366142E+03  0.00000000000E+00 0. -1.
         21    1    1    2  505  502 -0.56777439494E+02 -0.74305433042E+02 -0.40870839970E+03  0.41927023625E+03  0.00000000000E+00 0. -1.
         21    1    1    2  506  504  0.11305942045E+03  0.58691623780E+02  0.14931726249E+02  0.12825792647E+03  0.00000000000E+00 0. -1.
<scales pt_clust_3="33.51800" pt_clust_4="50.33681" pt_clust_5="95.08264" pt_clust_6="14000.00000"></scales>
<clustering>
<clus scale="   33.518">  1  3  2 -1</clus>
<clus scale="   50.337">  1  4  2 -1</clus>
<clus scale="   95.083">  2  5  1 -1</clus>
<clus scale="   33.518">  1  3  2 -1</clus>
</clustering>
</event>
<event>
 6    0  0.6132510E+002  0.1524646E+03  0.7546771E-02  0.1197477E+00
         21   -1    0    0  504  501  0.00000000000E+00  0.00000000000E+00  0.12693420052E+03  0.12693420052E+03  0.00000000000E+00 0.  1.
         21   -1    0    0  505  502 -0.00000000000E+00 -0.00000000000E+00 -0.30610618148E+03  0.30610618148E+03  0.00000000000E+00 0.  1.
         21    1    1    2  503  502  0.28615262482E+02 -0.54537796738E+02 -0.13606168956E+03  0.14935189281E+03  0.00000000000E+00 0.  1.
         21    1    1    2  504  503  0.59790898417E+02 -0.54245082871E+02 -0.93109351846E+02  0.12323486500E+03  0.00000000000E+00 0.  1.
         21    1    1    2  505  506 -0.22369230990E+02  0.27086169070E+02  0.42498212494E+02  0.55137474690E+02  0.00000000000E+00 0.  1.
         21    1    1    2  506  501 -0.66036929909E+02  0.81696710539E+02  0.75008479584E+01  0.10531614950E+03  0.00000000000E+00 0.  1.
<scales pt_clust_3="40.35629" pt_clust_4="147.59463" pt_clust_5="34.67790" pt_clust_6="34.67790"></scales>
<clustering>
<clus scale="   34.678">  5  6 -1 -1</clus>
<clus scale="   40.356">  3  4 -1 -1</clus>
<clus scale="  147.595">  2  3  1 -1</clus>
<clus scale="  152.465">  1  3  2 -1</clus>
</clustering>
</event>
<event>
 6    0  0.6132510E+002  0.1974287E+03  0.7546771E-02  0.1151927E+00
         21   -1    0    0  503  501  0.00000000000E+00  0.00000000000E+00  0.34276799349E+03  0.34276799349E+03  0.00000000000E+00 0.  1.
         21   -1    0    0  504  502 -0.00000000000E+00 -0.00000000000E+00 -0.91821611777E+03  0.91821611777E+03  0.00000000000E+00 0.  1.
         21    1    1    2  503  506 -0.10572829042E+03  0.11184090624E+02  0.17999027404E+03  0.20904557883E+03  0.00000000000E+00 0.  1.
         21    1    1    2  504  501  0.22990062863E+03 -0.25247281248E+01 -0.18178779029E+03  0.29309976799E+03  0.00000000000E+00 0.  1.
         21    1    1    2  505  502 -0.48068947513E+02 -0.36409325128E+02 -0.64685338033E+03  0.64965803183E+03  0.00000000000E+00 0.  1.
         21    1    1    2  506  505 -0.76103390695E+02  0.27749962629E+02  0.73202772303E+02  0.10918073261E+03  0.00000000000E+00 0.  1.
<scales pt_clust_3="44.35925" pt_clust_4="190.77593" pt_clust_5="60.30143" pt_clust_6="44.35925"></scales>
<clustering>
<clus scale="   44.359">  3  6 -1 -1</clus>
<clus scale="   60.301">  2  5  1 -1</clus>
<clus scale="  190.776">  2  4  1 -1</clus>
<clus scale="  197.429">  1  3  2 -1</clus>
</clustering>
</event>
<event>
 6    0  0.6132510E+002  0.1262616E+03  0.7546771E-02  0.1233111E+00
         21   -1    0    0  505  501  0.00000000000E+00  0.00000000000E+00  0.34772969058E+03  0.34772969058E+03  0.00000000000E+00 0.  1.
         21   -1    0    0  504  502 -0.00000000000E+00 -0.00000000000E+00 -0.53409883462E+03  0.53409883462E+03  0.00000000000E+00 0. -1.
         21    1    1    2  503  501  0.33550129527E+02 -0.91425419812E+02  0.28924643181E+03  0.30520110893E+03  0.00000000000E+00 0.  1.
         21    1    1    2  504  503 -0.11232177336E+02  0.74978598390E+02 -0.46105678888E+03  0.46724866462E+03  0.00000000000E+00 0. -1.
         21    1    1    2  505  506  0.73695975822E+01 -0.32839517527E+02  0.22913105127E+02  0.40715540847E+02  0.00000000000E+00 0.  1.
         21    1    1    2  506  502 -0.29687549774E+02  0.49286338949E+02 -0.37471892099E+02  0.68663210790E+02  0.00000000000E+00 0. -1.
<scales pt_clust_3="126.26161" pt_clust_4="14000.00000" pt_clust_5="33.65628" pt_clust_6="55.96293"></scales>
<clustering>
<clus scale="   33.656">  1  5  2 -1</clus>
<clus scale="   55.963">  2  6  1 -1</clus>
<clus scale="  126.262">  1  3  2 -1</clus>
<clus scale="   33.656">  1  3  2 -1</clus>
</clustering>
</event>
<event>
 6    0  0.6132510E+002  0.1043260E+03  0.7546771E-02  0.1271453E+00
         21   -1    0    0  504  501  0.00000000000E+00  0.00000000000E+00  0.28899436311E+03  0.28899436311E+03  0.00000000000E+00 0. -1.
         21   -1    0    0  506  502 -0.00000000000E+00 -0.00000000000E+00 -0.15940984049E+03  0.15940984049E+03  0.00000000000E+00 0. -1.
         21    1    1    2  503  502 -0.11904989822E+02 -0.33137034688E+02 -0.29338218361E+02  0.45831461980E+02  0.00000000000E+00 0. -1.
         21    1    1    2  504  503  0.44037744368E+02 -0.50599196595E+02  0.46367697851E+02  0.81544865130E+02  0.00000000000E+00 0. -1.
         21    1    1    2  505  501 -0.13556157702E+03  0.63263579691E+02  0.14736986814E+03  0.20999309445E+03  0.00000000000E+00 0. -1.
         21    1    1    2  506  505  0.10342882247E+03  0.20472651592E+02 -0.34814825014E+02  0.11103478204E+03  0.00000000000E+00 0. -1.
<scales pt_clust_3="35.21068" pt_clust_4="69.70088" pt_clust_5="14000.00000" pt_clust_6="104.32602"></scales>
<clustering>
<clus scale="   35.211">  2  3  1 -1</clus>
<clus scale="   69.701">  1  4  2 -1</clus>
<clus scale="  104.326">  2  6  1 -1</clus>
<clus scale="   69.701">  1  3  2 -1</clus>
</clustering>
</event>
<event>
 6    0  0.6132510E+002  0.9919008E+02  0.7546771E-02  0.1282008E+00
         21   -1    0    0  506  501  0.00000000000E+00  0.00000000000E+00  0.13576656350E+03  0.13576656350E+03  0.00000000000E+00 0.  1.
         21   -1    0    0  504  502 -0.00000000000E+00 -0.00000000000E+00 -0.36498718315E+03  0.36498718315E+03  0.00000000000E+00 0.  1.
         21    1    1    2  503  501  0.28574574886E+02  0.61020645567E+02  0.49078040775E+02  0.83358740403E+02  0.00000000000E+00 0. -1.
         21    1    1    2  504  503  0.63488368383E+02  0.91907741888E+01 -0.11904164025E+02  0.65245324516E+02  0.00000000000E+00 0.  1.
         21    1    1    2  505  502  0.34534247601E+02  0.21522958917E+02 -0.15482320621E+03  0.16008147051E+03  0.00000000000E+00 0.  1.
         21    1    1    2  506  505 -0.12659719087E+03 -0.91734378673E+02 -0.11157129018E+03  0.19206821122E+03  0.00000000000E+00 0.  1.
<scales pt_clust_3="70.22293" pt_clust_4="14000.00000" pt_clust_5="40.69216" pt_clust_6="99.19008"></scales>
<clustering>
<clus scale="   40.692">  2  5  1 -1</clus>
<clus scale="   70.223">  1  3  2 -1</clus>
<clus scale="   99.190">  2  6  1 -1</clus>
<clus scale="   70.223">  1  3  2 -1</clus>
</clustering>
</event>
<event>
 6    0  0.6132510E+002  0.1773934E+03  0.7546771E-02  0.1170350E+00
         21   -1    0    0  506  501  0.00000000000E+00  0.00000000000E+00  0.24439647860E+03  0.24439647860E+03  0.00000000000E+00 0.  1.
         21   -1    0    0  504  502 -0.00000000000E+00 -0.00000000000E+00 -0.38592920219E+03  0.38592920219E+03  0.00000000000E+00 0. -1.
         21    1    1    2  503  505  0.13474801437E+03  0.86650280105E+01 -0.20262581538E+03  0.24349400639E+03  0.00000000000E+00 0. -1.
         21    1    1    2  504  501 -0.20627609678E+02  0.26329948274E+02 -0.23145813824E+01  0.33527924841E+02  0.00000000000E+00 0. -1.
         21    1    1    2  505  502  0.34808596756E+02 -0.17394897372E+02 -0.11431908361E+03  0.12076039806E+03  0.00000000000E+00 0. -1.
         21    1    1    2  506  503 -0.14892900145E+03 -0.17600078912E+02  0.17772675678E+03  0.23254335150E+03  0.00000000000E+00 0.  1.
<scales pt_clust_3="31.30951" pt_clust_4="33.44794" pt_clust_5="31.30951" pt_clust_6="167.53166"></scales>
<clustering>
<clus scale="   31.310">  3  5 -1 -1</clus>
<clus scale="   33.448">  1  4  2 -1</clus>
<clus scale="  167.532">  1  6  2 -1</clus>
<clus scale="   33.448">  1  3  2 -1</clus>
</clustering>
</event>
<event>
 6    0  0.6132510E+002  0.2427914E+03  0.7546771E-02  0.1117947E+00
         21   -1    0    0  504  501  0.00000000000E+00  0.00000000000E+00  0.85490448401E+02  0.85490448401E+02  0.00000000000E+00 0.  1.
         21   -1    0    0  505  502 -0.00000000000E+00 -0.00000000000E+00 -0.21958908281E+04  0.21958908281E+04  0.00000000000E+00 0.  1.
         21    1    1    2  503  501  0.10804547378E+03  0.96657875222E+02 -0.14901701768E+03  0.20790055509E+03  0.00000000000E+00 0. -1.
         21    1    1    2  504  502 -0.16322936617E+03 -0.18959637493E+03 -0.32034778795E+03  0.40646441002E+03  0.00000000000E+00 0.  1.
         21    1    1    2  505  506 -0.16951487550E+02  0.44424711699E+02 -0.15038814626E+04  0.15046329657E+04  0.00000000000E+00 0.  1.
         21    1    1    2  506  503  0.72135379935E+02  0.48513788011E+02 -0.13715411147E+03  0.16238334569E+03  0.00000000000E+00 0.  1.
<scales pt_clust_3="31.70474" pt_clust_4="239.31432" pt_clust_5="47.54901" pt_clust_6="31.70474"></scales>
<clustering>
<clus scale="   31.705">  3  6 -1 -1</clus>
<clus scale="   47.549">  2  5  1 -1</clus>
<clus scale="  239.314">  2  4  1 -1</clus>
<clus scale="  242.791">  1  3  2 -1</clus>
</clustering>
</event>
<event>
 6    0  0.6132510E+002  0.1262723E+03  0.7546771E-02  0.1233094E+00
         21   -1    0    0  503  501  0.00000000000E+00  0.00000000000E+00  0.46738838287E+03  0.46738838287E+03  0.00000000000E+00 0.  1.
         21   -1    0    0  504  502 -0.00000000000E+00 -0.00000000000E+00 -0.78185024068E+03  0.78185024068E+03  0.00000000000E+00 0.  1.
         21    1    1    2  503  502  0.34662974612E+02 -0.26834394835E+02 -0.56043715941E+03  0.56214892706E+03  0.00000000000E+00 0.  1.
         21    1    1    2  504  506 -0.70335687870E+02 -0.61959186069E+01 -0.19258491804E+02  0.73187347964E+02  0.00000000000E+00 0.  1.
         21    1    1    2  505  501  0.81242284797E+02 -0.96463030732E+02  0.40127975727E+03  0.42063151182E+03  0.00000000000E+00 0.  1.
         21    1    1    2  506  505 -0.45569571540E+02  0.12949334417E+03 -0.13604596387E+03  0.19327083670E+03  0.00000000000E+00 0.  1.
<scales pt_clust_3="43.83613" pt_clust_4="64.16921" pt_clust_5="14000.00000" pt_clust_6="126.27226"></scales>
<clustering>
<clus scale="   43.836">  2  3  1 -1</clus>
<clus scale="   64.169">  2  4  1 -1</clus>
<clus scale="  126.272">  2  6  1 -1</clus>
<clus scale="  126.272">  1  3  2 -1</clus>
</clustering>
</event>
<event>
 6    0  0.6132510E+002  0.1860485E+03  0.7546771E-02  0.1162074E+00
         21   -1    0    0  504  501  0.00000000000E+00  0.00000000000E+00  0.84740104677E+03  0.84740104677E+03  0.00000000000E+00 0. -1.
         21   -1    0    0  506  502 -0.00000000000E+00 -0.00000000000E+00 -0.23210052107E+03  0.23210052107E+03  0.00000000000E+00 0.  1.
         21    1    1    2  503  501 -0.89209018748E+02 -0.13438482921E+03  0.62902048614E+02  0.17313058386E+03  0.00000000000E+00 0. -1.
         21    1    1    2  504  505  0.73673158774E+02  0.13543205716E+01  0.41510122192E+03  0.42159055131E+03  0.00000000000E+00 0. -1.
         21    1    1    2  505  502  0.10097921654E+03  0.41048451629E+02  0.27656987886E+03  0.29727542019E+03  0.00000000000E+00 0. -1.
         21    1    1    2  506  503 -0.85443356564E+02  0.91982057012E+02 -0.13927262370E+03  0.18750501248E+03  0.00000000000E+00 0.  1.
<scales pt_clust_3="168.98558" pt_clust_4="63.99307" pt_clust_5="63.99307" pt_clust_6="125.54388"></scales>
<clustering>
<clus scale="   63.993">  4  5 -1 -1</clus>
<clus scale="  125.544">  2  6  1 -1</clus>
<clus scale="  168.986">  2  3  1 -1</clus>
<clus scale="  186.049">  1  3  2 -1</clus>
</clustering>
</event>
<event>
 6    0  0.6132510E+002  0.9090585E+02  0.7546771E-02  0.1300673E+00
         21   -1    0    0  506  501  0.00000000000E+00  0.00000000000E+00  0.91607892234E+02  0.91607892234E+02  0.00000000000E+00 0. -1.
         21   -1    0    0  504  502 -0.00000000000E+00 -0.00000000000E+00 -0.10737459755E+04  0.10737459755E+04  0.00000000000E+00 0. -1.
         21    1    1    2  503  501  0.23395615421E+02 -0.34601341782E+02  0.64232048710E+02  0.76618299091E+02  0.00000000000E+00 0. -1.
         21    1    1    2  504  505  0.74230351454E+02  0.10246259908E+02 -0.36492136214E+03  0.37253554389E+03  0.00000000000E+00 0. -1.
         21    1    1    2  505  503  0.18114916351E+02 -0.38712333441E+02 -0.31691930337E+02  0.53208771865E+02  0.00000000000E+00 0. -1.
         21    1    1    2  506  502 -0.11574088323E+03  0.63067415315E+02 -0.64975683951E+03  0.66299125290E+03  0.00000000000E+00 0. -1.
<scales pt_clust_3="41.76850" pt_clust_4="90.90585" pt_clust_5="63.78037" pt_clust_6="14000.00000"></scales>
<clustering>
<clus scale="   41.769">  1  3  2 -1</clus>
<clus scale="   63.780">  1  5  2 -1</clus>
<clus scale="   90.906">  2  4  1 -1</clus>
<clus scale="   41.769">  1  3  2 -1</clus>
</clustering>
</event>
<event>
 6    0  0.6132510E+002  0.7630119E+02  0.7546771E-02  0.1339888E+00
         21   -1    0    0  505  501  0.00000000000E+00  0.00000000000E+00  0.62870718175E+02  0.62870718175E+02  0.00000000000E+00 0.  1.
         21   -1    0    0  504  502 -0.00000000000E+00 -0.00000000000E+00 -0.11084227127E+04  0.11084227127E+04  0.00000000000E+00 0.  1.
         21    1    1    2  503  501 -0.35710482620E+02  0.95798107582E+01  0.23648890338E+02  0.43889421930E+02  0.00000000000E+00 0.  1.
         21    1    1    2  504  503  0.11277757309E+03  0.52732996299E+02 -0.73990317787E+03  0.75030411335E+03  0.00000000000E+00 0.  1.
         21    1    1    2  505  506 -0.43045765698E+02 -0.23677052020E+02 -0.57280312313E+01  0.49460601277E+02  0.00000000000E+00 0.  1.
         21    1    1    2  506  502 -0.34021324774E+02 -0.38635755037E+02 -0.32356967572E+03  0.32763929428E+03  0.00000000000E+00 0.  1.
<scales pt_clust_3="36.97312" pt_clust_4="14000.00000" pt_clust_5="76.30119" pt_clust_6="52.67820"></scales>
<clustering>
<clus scale="   36.973">  1  3  2 -1</clus>
<clus scale="   52.678">  2  6  1 -1</clus>
<clus scale="   76.301">  1  5  2 -1</clus>
<clus scale="   36.973">  1  3  2 -1</clus>
</clustering>
</event>
<event>
 6    0  0.6132510E+002  0.1482289E+03  0.7546771E-02  0.1202666E+00
         21   -1    0    0  505  501  0.00000000000E+00  0.00000000000E+00  0.20587359110E+04  0.20587359110E+04  0.00000000000E+00 0. -1.
         21   -1    0    0  504  502 -0.00000000000E+00 -0.00000000000E+00 -0.32524854021E+03  0.32524854021E+03  0.00000000000E+00 0.  1.
         21    1    1    2  503  502 -0.37052978159E+02  0.12864057422E+02  0.20087847830E+02  0.44067321161E+02  0.00000000000E+00 0. -1.
         21    1    1    2  504  506 -0.11326510780E+03 -0.63595767952E+02 -0.28286605976E+03  0.31126614675E+03  0.00000000000E+00 0.  1.
         21    1    1    2  505  503  0.12020876433E+03 -0.44681875735E+02  0.26402217951E+03  0.29352057562E+03  0.00000000000E+00 0.  1.
         21    1    1    2  506  501  0.30109321623E+02  0.95413586265E+02  0.17322434032E+04  0.17351304076E+04  0.00000000000E+00 0. -1.
<scales pt_clust_3="39.22253" pt_clust_4="148.22892" pt_clust_5="14000.00000" pt_clust_6="100.05692"></scales>
<clustering>
<clus scale="   39.223">  2  3  1 -1</clus>
<clus scale="  100.057">  1  6  2 -1</clus>
<clus scale="  148.229">  2  4  1 -1</clus>
<clus scale="  100.057">  1  3  2 -1</clus>
</clustering>
</event>
<event>
 6    0  0.6132510E+002  0.9964619E+02  0.7546771E-02  0.1281042E+00
         21   -1    0    0  503  501  0.00000000000E+00  0.00000000000E+00  0.52660210412E+03  0.52660210412E+03  0.00000000000E+00 0. -1.
         21   -1    0    0  506  502 -0.00000000000E+00 -0.00000000000E+00 -0.33346795843E+03  0.33346795843E+03  0.00000000000E+00 0.  1.
         21    1    1    2  503  505 -0.81754521284E+02  0.12836002603E+02  0.37852468598E+03  0.38746548570E+03  0.00000000000E+00 0. -1.
         21    1    1    2  504  501 -0.76006606183E+01  0.31202005121E+02  0.11355856817E+03  0.11801221789E+03  0.00000000000E+00 0. -1.
         21    1    1    2  505  502  0.10062223279E+03 -0.82465118399E+02 -0.14187376206E+03  0.19249284102E+03  0.00000000000E+00 0.  1.
         21    1    1    2  506  504 -0.11267050886E+02  0.38427110675E+02 -0.15707534640E+03  0.16209951794E+03  0.00000000000E+00 0.  1.
<scales pt_clust_3="99.64619" pt_clust_4="32.11441" pt_clust_5="14000.00000" pt_clust_6="40.24101"></scales>
<clustering>
<clus scale="   32.114">  1  4  2 -1</clus>
<clus scale="   40.241">  2  6  1 -1</clus>
<clus scale="   99.646">  1  3  2 -1</clus>
<clus scale="   32.114">  1  3  2 -1</clus>
</clustering>
</event>
<event>
 6    0  0.6132510E+002  0.1133063E+03  0.7546771E-02  0.1254567E+00
         21   -1    0    0  503  501  0.00000000000E+00  0.00000000000E+00  0.41787076962E+03  0.41787076962E+03  0.00000000000E+00 0. -1.
         21   -1    0    0  505  502 -0.00000000000E+00 -0.00000000000E+00 -0.28829174504E+03  0.28829174504E+03  0.00000000000E+00 0.  1.
         21    1    1    2  503  502  0.64722267185E+02 -0.39965617214E+02 -0.13031543721E+03  0.15089180099E+03  0.00000000000E+00 0.  1.
         21    1    1    2  504  506 -0.82392561268E+02  0.98345887539E+01  0.12564402510E+03  0.15057116036E+03  0.00000000000E+00 0. -1.
         21    1    1    2  505  504  0.68338690709E+02  0.52543833434E+02 -0.11816963687E+03  0.14627061960E+03  0.00000000000E+00 0.  1.
         21    1    1    2  506  501 -0.50668396626E+02 -0.22412804974E+02  0.25242007357E+03  0.25842893372E+03  0.00000000000E+00 0. -1.
<scales pt_clust_3="74.13913" pt_clust_4="113.30630" pt_clust_5="14000.00000" pt_clust_6="55.40415"></scales>
<clustering>
<clus scale="   55.404">  1  6  2 -1</clus>
<clus scale="   74.139">  2  3  1 -1</clus>
<clus scale="  113.306">  1  4  2 -1</clus>
<clus scale="   55.404">  1  3  2 -1</clus>
</clustering>
</event>
<event>
 6    0  0.6132510E+002  0.1149944E+03  0.7546771E-02  0.1251591E+00
         21   -1    0    0  506  501  0.00000000000E+00  0.00000000000E+00  0.75385493071E+02  0.75385493071E+02  0.00000000000E+00 0. -1.
         21   -1    0    0  504  502 -0.00000000000E+00 -0.00000000000E+00 -0.28946892944E+03  0.28946892944E+03  0.00000000000E+00 0. -1.
         21    1    1    2  503  501  0.63256691600E+01 -0.49245182721E+02 -0.14946764962E+02  0.51850823469E+02  0.00000000000E+00 0. -1.
         21    1    1    2  504  503  0.25579532701E+02 -0.40947115512E+02 -0.41712857579E+02  0.63803928165E+02  0.00000000000E+00 0. -1.
         21    1    1    2  505  502 -0.91974200639E+02  0.90742452534E+02 -0.12958491512E+03  0.18299097382E+03  0.00000000000E+00 0. -1.
         21    1    1    2  506  505  0.60068998779E+02 -0.55015430158E+00 -0.27838898711E+02  0.66208697053E+02  0.00000000000E+00 0. -1.
<scales pt_clust_3="31.38741" pt_clust_4="31.38741" pt_clust_5="110.50152" pt_clust_6="60.07152"></scales>
<clustering>
<clus scale="   31.387">  3  4 -1 -1</clus>
<clus scale="   60.072">  1  6  2 -1</clus>
<clus scale="  110.502">  2  5  1 -1</clus>
<clus scale="   60.072">  1  3  2 -1</clus>
</clustering>
</event>
<event>
 6    0  0.6132510E+002  0.1152450E+03  0.7546771E-02  0.1251154E+00
         21   -1    0    0  506  501  0.00000000000E+00  0.00000000000E+00  0.33310168596E+03  0.33310168596E+03  0.00000000000E+00 0.  1.
         21   -1    0    0  504  502 -0.00000000000E+00 -0.00000000000E+00 -0.71480351542E+03  0.71480351542E+03  0.00000000000E+00 0. -1.
         21    1    1    2  503  505 -0.83352789019E+02 -0.68952774282E+02 -0.27265926039E+02  0.11155986393E+03  0.00000000000E+00 0. -1.
         21    1    1    2  504  503  0.34669501320E+02  0.11304448385E+03 -0.63445596802E+03  0.64538004696E+03  0.00000000000E+00 0. -1.
         21    1    1    2  505  501  0.41176343187E+02 -0.84677352355E+01  0.16789691987E+03  0.17307966224E+03  0.00000000000E+00 0.  1.
         21    1    1    2  506  502  0.75069445111E+01 -0.35623974332E+02  0.11212314474E+03  0.11788562826E+03  0.00000000000E+00 0.  1.
<scales pt_clust_3="115.24504" pt_clust_4="14000.00000" pt_clust_5="59.43055" pt_clust_6="36.40634"></scales>
<clustering>
<clus scale="   36.406">  1  6  2 -1</clus>
<clus scale="   59.431">  1  5  2 -1</clus>
<clus scale="  115.245">  1  3  2 -1</clus>
<clus scale="   36.406">  1  3  2 -1</clus>
</clustering>
</event>
<event>
 6    0  0.6132510E+002  0.1479892E+03  0.7546771E-02  0.1202966E+00
         21   -1    0    0  505  501  0.00000000000E+00  0.00000000000E+00  0.79374647662E+02  0.79374647662E+02  0.00000000000E+00 0. -1.
         21   -1    0    0  503  502 -0.00000000000E+00 -0.00000000000E+00 -0.42204419012E+03  0.42204419012E+03  0.00000000000E+00 0. -1.
         21    1    1    2  503  501  0.36896477282E+02 -0.96289901477E+01 -0.14725268366E+03  0.15210989558E+03  0.00000000000E+00 0. -1.
         21    1    1    2  504  502  0.28195176978E+02  0.40706418605E+02 -0.41211116675E+02  0.64423106554E+02  0.00000000000E+00 0. -1.
         21    1    1    2  505  506 -0.45711788720E+02 -0.12994931355E+03 -0.75898020260E+02  0.15727969100E+03  0.00000000000E+00 0. -1.
         21    1    1    2  506  504 -0.19379865540E+02  0.98871885093E+02 -0.78307721858E+02  0.12760614465E+03  0.00000000000E+00 0. -1.
<scales pt_clust_3="38.13224" pt_clust_4="40.84869" pt_clust_5="137.36863" pt_clust_6="40.84869"></scales>
<clustering>
<clus scale="   38.132">  2  3  1 -1</clus>
<clus scale="   40.849">  4  6 -1 -1</clus>
<clus scale="  137.369">  1  5  2 -1</clus>
<clus scale="  137.369">  1  3  2 -1</clus>
</clustering>
</event>
<event>
 6    0  0.6132510E+002  0.1626645E+03  0.7546771E-02  0.1185721E+00
         21   -1    0    0  503  501  0.00000000000E+00  0.00000000000E+00  0.84747930778E+02  0.84747930778E+02  0.00000000000E+00 0. -1.
         21   -1    0    0  506  502 -0.00000000000E+00 -0.00000000000E+00 -0.96469470188E+03  0.96469470188E+03  0.00000000000E+00 0. -1.
         21    1    1    2  503  502  0.11066894383E+03 -0.86962145598E+01 -0.76771264759E+03  0.77569707267E+03  0.00000000000E+00 0. -1.
         21    1    1    2  504  501 -0.12549157799E+03 -0.12814670653E+02  0.76692310739E+01  0.12637709063E+03  0.00000000000E+00 0. -1.
         21    1    1    2  505  504 -0.29083977552E+02  0.17662258159E+02 -0.23458042084E+02  0.41329321939E+02  0.00000000000E+00 0.  1.
         21    1    1    2  506  505  0.43906611710E+02  0.38486270541E+01 -0.96445312496E+02  0.10603914742E+03  0.00000000000E+00 0. -1.
<scales pt_clust_3="150.00231" pt_clust_4="32.67936" pt_clust_5="32.67936" pt_clust_6="44.07496"></scales>
<clustering>
<clus scale="   32.679">  4  5 -1 -1</clus>
<clus scale="   44.075">  2  6  1 -1</clus>
<clus scale="  150.002">  2  3  1 -1</clus>
<clus scale="  162.665">  1  3  2 -1</clus>
</clustering>
</event>
<event>
 6    0  0.6132510E+002  0.1093336E+03  0.7546771E-02  0.1261809E+00
         21   -1    0    0  505  501  0.00000000000E+00  0.00000000000E+00  0.20193655923E+03  0.20193655923E+03  0.00000000000E+00 0.  1.
         21   -1    0    0  504  502 -0.00000000000E+00 -0.00000000000E+00 -0.45808746881E+03  0.45808746881E+03  0.00000000000E+00 0. -1.
         21    1    1    2  503  506 -0.12546122078E+02 -0.32717603841E+02 -0.84939250648E+01  0.36055423216E+02  0.00000000000E+00 0. -1.
         21    1    1    2  504  501 -0.80740982812E+02  0.68108520286E+02 -0.38676724498E+03  0.40093238661E+03  0.00000000000E+00 0. -1.
         21    1    1    2  505  503  0.58014867823E+02  0.12112175350E+02  0.15141785437E+03  0.16260318663E+03  0.00000000000E+00 0.  1.
         21    1    1    2  506  502  0.35272237067E+02 -0.47503091795E+02 -0.12307593902E+02  0.60433031576E+02  0.00000000000E+00 0. -1.
<scales pt_clust_3="33.76898" pt_clust_4="100.14170" pt_clust_5="59.26575" pt_clust_6="33.76898"></scales>
<clustering>
<clus scale="   33.769">  3  6 -1 -1</clus>
<clus scale="   59.266">  1  5  2 -1</clus>
<clus scale="  100.142">  2  4  1 -1</clus>
<clus scale="   59.266">  1  3  2 -1</clus>
</clustering>
</event>
<event>
 6    0  0.6132510E+002  0.1327493E+03  0.7546771E-02  0.1223432E+00
         21   -1    0    0  506  501  0.00000000000E+00  0.00000000000E+00  0.45229192010E+03  0.45229192010E+03  0.00000000000E+00 0.  1.
         21   -1    0    0  503  502 -0.00000000000E+00 -0.00000000000E+00 -0.17562416688E+03  0.17562416688E+03  0.00000000000E+00 0.  1.
         21    1    1    2  503  504 -0.25252311833E+02  0.27601014433E+02 -0.93485130407E+02  0.10069242701E+03  0.00000000000E+00 0.  1.
         21    1    1    2  504  505 -0.54729562676E+02  0.91504783737E+02  0.12176172593E+03  0.16184674349E+03  0.00000000000E+00 0.  1.
         21    1    1    2  505  501 -0.62984477919E+02 -0.22092987198E+02  0.15548810292E+03  0.16920902663E+03  0.00000000000E+00 0.  1.
         21    1    1    2  506  502  0.14296635243E+03 -0.97012810972E+02  0.92903054779E+02  0.19616788985E+03  0.00000000000E+00 0.  1.
<scales pt_clust_3="37.40983" pt_clust_4="132.74935" pt_clust_5="68.09673" pt_clust_6="14000.00000"></scales>
<clustering>
<clus scale="   37.410">  2  3  1 -1</clus>
<clus scale="   68.097">  1  5  2 -1</clus>
<clus scale="  132.749">  1  4  2 -1</clus>
<clus scale="   68.097">  1  3  2 -1</clus>
</clustering>
</event>
<event>
 6    0  0.6132510E+002  0.9750493E+02  0.7546771E-02  0.1285632E+00
         21   -1    0    0  502  501  0.00000000000E+00  0.00000000000E+00  0.38020316527E+03  0.38020316527E+03  0.00000000000E+00 0.  1.
         21   -1    0    0  503  502 -0.00000000000E+00 -0.00000000000E+00 -0.14091853798E+04  0.14091853798E+04  0.00000000000E+00 0.  1.
         21    1    1    2  503  504  0.99098924899E+02 -0.27602851945E+02 -0.13145608843E+04  0.13185798545E+04  0.00000000000E+00 0.  1.
         21    1    1    2  504  505 -0.66158303194E+02  0.94198738772E+00 -0.75247382276E+02  0.10019968543E+03  0.00000000000E+00 0.  1.
         21    1    1    2  505  506 -0.45996564676E+02 -0.87545123368E+01  0.20408045264E+03  0.20938279919E+03  0.00000000000E+00 0.  1.
         21    1    1    2  506  501  0.13055942972E+02  0.35415376894E+02  0.15674559935E+03  0.16122620594E+03  0.00000000000E+00 0.  1.
<scales pt_clust_3="14000.00000" pt_clust_4="97.50493" pt_clust_5="41.64928" pt_clust_6="37.74529"></scales>
<clustering>
<clus scale="   37.745">  1  6  2 -1</clus>
<clus scale="   41.649">  1  5  2 -1</clus>
<clus scale="   97.505">  1  4  2 -1</clus>
<clus scale="   37.745">  1  3  2 -1</clus>
</clustering>
</event>
<event>
 6    0  0.6132510E+002  0.1637478E+03  0.7546771E-02  0.1184529E+00
         21   -1    0    0  506  501  0.00000000000E+00  0.00000000000E+00  0.87026660509E+03  0.87026660509E+03  0.00000000000E+00 0. -1.
         21   -1    0    0  504  502 -0.00000000000E+00 -0.00000000000E+00 -0.15230616502E+04  0.15230616502E+04  0.00000000000E+00 0. -1.
         21    1    1    2  503  502 -0.30875245661E+02 -0.42044841181E+02 -0.79280640580E+03  0.79452063946E+03  0.00000000000E+00 0. -1.
         21    1    1    2  504  501  0.58754799908E+02  0.21954442194E+02  0.42248215281E+02  0.75624306534E+02  0.00000000000E+00 0. -1.
         21    1    1    2  505  503 -0.13424624874E+03  0.30881039499E+02 -0.70246537952E+03  0.71584446867E+03  0.00000000000E+00 0. -1.
         21    1    1    2  506  505  0.10636669449E+03 -0.10790640512E+02  0.80022852488E+03  0.80733884067E+03  0.00000000000E+00 0. -1.
<scales pt_clust_3="52.16368" pt_clust_4="61.72764" pt_clust_5="163.74775" pt_clust_6="14000.00000"></scales>
<clustering>
<clus scale="   52.164">  2  3  1 -1</clus>
<clus scale="   61.728">  1  4  2 -1</clus>
<clus scale="  163.748">  2  5  1 -1</clus>
<clus scale="   61.728">  1  3  2 -1</clus>
</clustering>
</event>
<event>
 6    0  0.6132510E+002  0.1351130E+03  0.7546771E-02  0.1220060E+00
         21   -1    0    0  506  501  0.00000000000E+00  0.00000000000E+00  0.32882596839E+04  0.32882596839E+04  0.00000000000E+00 0. -1.
         21   -1    0    0  504  502 -0.00000000000E+00 -0.00000000000E+00 -0.24612066323E+02  0.24612066323E+02  0.00000000000E+00 0.  1.
         21    1    1    2  503  501  0.95799994134E+01  0.52947173266E+02  0.39053896750E+03  0.39422818859E+03  0.00000000000E+00 0. -1.
         21    1    1    2  504  503 -0.27460148077E+02  0.24368016497E+02  0.23702221747E+02  0.43699602700E+02  0.00000000000E+00 0.  1.
         21    1    1    2  505  502 -0.95502569991E+01 -0.16082874998E+03  0.53175611648E+03  0.55562726862E+03  0.00000000000E+00 0.  1.
         21    1    1    2  506  505  0.27430405662E+02  0.83513560220E+02  0.23176503118E+04  0.23193166903E+04  0.00000000000E+00 0. -1.
<scales pt_clust_3="56.35570" pt_clust_4="36.71321" pt_clust_5="135.11301" pt_clust_6="14000.00000"></scales>
<clustering>
<clus scale="   36.713">  2  4  1 -1</clus>
<clus scale="   56.356">  1  3  2 -1</clus>
<clus scale="  135.113">  2  5  1 -1</clus>
<clus scale="   56.356">  1  3  2 -1</clus>
</clustering>
</event>
<event>
 6    0  0.6132510E+002  0.1707746E+03  0.7546771E-02  0.1177042E+00
         21   -1    0    0  503  501  0.00000000000E+00  0.00000000000E+00  0.20027967093E+03  0.20027967093E+03  0.00000000000E+00 0. -1.
         21   -1    0    0  506  502 -0.00000000000E+00 -0.00000000000E+00 -0.75884890473E+03  0.75884890473E+03  0.00000000000E+00 0.  1.
         21    1    1    2  503  505 -0.92922629632E+02  0.30538606004E+01  0.88690654941E+02  0.12849114147E+03  0.00000000000E+00 0. -1.
         21    1    1    2  504  501  0.22536832163E+02 -0.71833495308E+02 -0.27560282661E+02  0.80171871828E+02  0.00000000000E+00 0.  1.
         21    1    1    2  505  502 -0.47438995154E+02 -0.41689128186E+02  0.37676708822E+02  0.73538942458E+02  0.00000000000E+00 0. -1.
         21    1    1    2  506  504  0.11782479262E+03  0.11046876289E+03 -0.65737631490E+03  0.67692661990E+03  0.00000000000E+00 0.  1.
<scales pt_clust_3="49.81613" pt_clust_4="75.28585" pt_clust_5="49.81613" pt_clust_6="159.72034"></scales>
<clustering>
<clus scale="   49.816">  3  5 -1 -1</clus>
<clus scale="   75.286">  1  4  2 -1</clus>
<clus scale="  159.720">  2  6  1 -1</clus>
<clus scale="   75.286">  1  3  2 -1</clus>
</clustering>
</event>
<event>
 6    0  0.6132510E+002  0.1571694E+03  0.7546771E-02  0.1191930E+00
         21   -1    0    0  506  501  0.00000000000E+00  0.00000000000E+00  0.38904666771E+03  0.38904666771E+03  0.00000000000E+00 0. -1.
         21   -1    0    0  505  502 -0.00000000000E+00 -0.00000000000E+00 -0.17173061903E+03  0.17173061903E+03  0.00000000000E+00 0. -1.
         21    1    1    2  503  501 -0.18040685323E+01  0.10407324085E+03  0.18835922514E+03  0.21520616120E+03  0.00000000000E+00 0. -1.
         21    1    1    2  504  502  0.24616659685E+02  0.25911651884E+02 -0.96230341211E+02  0.10265316462E+03  0.00000000000E+00 0. -1.
         21    1    1    2  505  503 -0.16727062786E+02  0.36858093495E+02  0.32861590347E+02  0.52136338630E+02  0.00000000000E+00 0. -1.
         21    1    1    2  506  504 -0.60855283666E+01 -0.16684298623E+03  0.92325574409E+02  0.19078162228E+03  0.00000000000E+00 0. -1.
<scales pt_clust_3="30.08974" pt_clust_4="35.74064" pt_clust_5="30.08974" pt_clust_6="149.57904"></scales>
<clustering>
<clus scale="   30.090">  3  5 -1 -1</clus>
<clus scale="   35.741">  2  4  1 -1</clus>
<clus scale="  149.579">  2  6  1 -1</clus>
<clus scale="  157.169">  1  3  2 -1</clus>
</clustering>
</event>
<event>
 6    0  0.6132510E+002  0.2079466E+03  0.7546771E-02  0.1143202E+00
         21   -1    0    0  504  501  0.00000000000E+00  0.00000000000E+00  0.83778924318E+03  0.83778924318E+03  0.00000000000E+00 0.  1.
         21   -1    0    0  503  502 -0.00000000000E+00 -0.00000000000E+00 -0.32975882495E+03  0.32975882495E+03  0.00000000000E+00 0.  1.
         21    1    1    2  503  501  0.45231894646E+02 -0.36533311478E+02  0.10759163537E+03  0.12229704470E+03  0.00000000000E+00 0.  1.
         21    1    1    2  504  506 -0.63653009619E+02 -0.16094626537E+03  0.67675938308E+03  0.69854038435E+03  0.00000000000E+00 0.  1.
         21    1    1    2  505  502  0.18407653770E+02  0.29576860411E+02 -0.19639736468E+02  0.39991894649E+02  0.00000000000E+00 0. -1.
         21    1    1    2  506  505  0.13461203494E-01  0.16790271644E+03 -0.25668086376E+03  0.30671874444E+03  0.00000000000E+00 0.  1.
<scales pt_clust_3="58.14299" pt_clust_4="196.78446" pt_clust_5="30.61613" pt_clust_6="30.61613"></scales>
<clustering>
<clus scale="   30.616">  5  6 -1 -1</clus>
<clus scale="   58.143">  1  3  2 -1</clus>
<clus scale="  196.784">  1  4  2 -1</clus>
<clus scale="   58.143">  1  3  2 -1</clus>
</clustering>
</event>
<event>
 6    0  0.6132510E+002  0.2266990E+03  0.7546771E-02  0.1128985E+00
         21   -1    0    0  502  501  0.00000000000E+00  0.00000000000E+00  0.87301976304E+03  0.87301976304E+03  0.00000000000E+00 0.  1.
         21   -1    0    0  503  502 -0.00000000000E+00 -0.00000000000E+00 -0.23673898578E+03  0.23673898578E+03  0.00000000000E+00 0.  1.
         21    1    1    2  503  506 -0.24940498389E+02  0.64200276562E+02 -0.11483514459E+03  0.13390599091E+03  0.00000000000E+00 0.  1.
         21    1    1    2  504  505 -0.78647372258E+01 -0.10933557480E+03  0.23058580406E+03  0.25531536390E+03  0.00000000000E+00 0. -1.
         21    1    1    2  505  501 -0.29966132480E+02 -0.99982999293E+02  0.54990166775E+03  0.55971994197E+03  0.00000000000E+00 0.  1.
         21    1    1    2  506  504  0.62771368094E+02  0.14511829754E+03 -0.29371549960E+02  0.16081745203E+03  0.00000000000E+00 0.  1.
<scales pt_clust_3="68.87455" pt_clust_4="98.99279" pt_clust_5="98.99279" pt_clust_6="203.75476"></scales>
<clustering>
<clus scale="   68.875">  2  3  1 -1</clus>
<clus scale="   98.993">  4  5 -1 -1</clus>
<clus scale="  203.755">  2  6  1 -1</clus>
<clus scale="  226.699">  1  3  2 -1</clus>
</clustering>
</event>
<event>
 6    0  0.6132510E+002  0.1425036E+03  0.7546771E-02  0.1209999E+00
         21   -1    0    0  502  501  0.00000000000E+00  0.00000000000E+00  0.34894914270E+03  0.34894914270E+03  0.00000000000E+00 0.  1.
         21   -1    0    0  506  502 -0.00000000000E+00 -0.00000000000E+00 -0.39964811301E+03  0.39964811301E+03  0.00000000000E+00 0.  1.
         21    1    1    2  503  504 -0.61930762584E+02 -0.17327661994E+03 -0.23041385463E+03  0.29487412701E+03  0.00000000000E+00 0.  1.
         21    1    1    2  504  505  0.74763506892E+02  0.10542581097E+03  0.22303331435E+03  0.25777517897E+03  0.00000000000E+00 0.  1.
         21    1    1    2  505  501 -0.19542055686E+02  0.24005166859E+02  0.68762954119E+02  0.75408778239E+02  0.00000000000E+00 0.  1.
         21    1    1    2  506  503  0.67093113777E+01  0.43845642111E+02 -0.11208138415E+03  0.12053917150E+03  0.00000000000E+00 0.  1.
<scales pt_clust_3="14000.00000" pt_clust_4="142.50359" pt_clust_5="30.95384" pt_clust_6="44.67467"></scales>
<clustering>
<clus scale="   30.954">  1  5  2 -1</clus>
<clus scale="   44.675">  2  6  1 -1</clus>
<clus scale="  142.504">  1  4  2 -1</clus>
<clus scale="   30.954">  1  3  2 -1</clus>
</clustering>
</event>
<event>
 6    0  0.6132510E+002  0.1074624E+03  0.7546771E-02  0.1265343E+00
         21   -1    0    0  503  501  0.00000000000E+00  0.00000000000E+00  0.17489982847E+03  0.17489982847E+03  0.00000000000E+00 0.  1.
         21   -1    0    0  506  502 -0.00000000000E+00 -0.00000000000E+00 -0.61332277490E+03  0.61332277490E+03  0.00000000000E+00 0.  1.
         21    1    1    2  503  504  0.25543482188E+02  0.25313062430E+02  0.56524523422E+02  0.66994345731E+02  0.00000000000E+00 0.  1.
         21    1    1    2  504  502  0.89399904152E+02 -0.29646628059E+02 -0.21918640855E+03  0.23856644172E+03  0.00000000000E+00 0.  1.
         21    1    1    2  505  501 -0.17409562159E+02 -0.76348635056E+02  0.75813343604E+02  0.10899481638E+03  0.00000000000E+00 0.  1.
         21    1    1    2  506  505 -0.97533824181E+02  0.80682200685E+02 -0.35157440490E+03  0.37366699955E+03  0.00000000000E+00 0.  1.
<scales pt_clust_3="35.96138" pt_clust_4="107.46236" pt_clust_5="55.78187" pt_clust_6="14000.00000"></scales>
<clustering>
<clus scale="   35.961">  1  3  2 -1</clus>
<clus scale="   55.782">  1  5  2 -1</clus>
<clus scale="  107.462">  2  4  1 -1</clus>
<clus scale="   35.961">  1  3  2 -1</clus>
</clustering>
</event>
<event>
 6    0  0.6132510E+002  0.1316706E+03  0.7546771E-02  0.1224998E+00
         21   -1    0    0  505  501  0.00000000000E+00  0.00000000000E+00  0.10907573338E+04  0.10907573338E+04  0.00000000000E+00 0. -1.
         21   -1    0    0  506  502 -0.00000000000E+00 -0.00000000000E+00 -0.28591280680E+03  0.28591280680E+03  0.00000000000E+00 0.  1.
         21    1    1    2  503  501 -0.66384935437E+02 -0.10024043549E+03  0.80817821535E+03  0.81707229321E+03  0.00000000000E+00 0. -1.
         21    1    1    2  504  503  0.76976528454E+02  0.10007496272E+03 -0.20291784746E+03  0.23898961675E+03  0.00000000000E+00 0.  1.
         21    1    1    2  505  502 -0.38457026735E+02  0.19202110635E+02  0.25343629036E+03  0.25705566951E+03  0.00000000000E+00 0. -1.
         21    1    1    2  506  504  0.27865433719E+02 -0.19036637861E+02 -0.53852131291E+02  0.63552561097E+02  0.00000000000E+00 0.  1.
<scales pt_clust_3="14000.00000" pt_clust_4="131.67058" pt_clust_5="42.71818" pt_clust_6="33.74724"></scales>
<clustering>
<clus scale="   33.747">  2  6  1 -1</clus>
<clus scale="   42.718">  1  5  2 -1</clus>
<clus scale="  131.671">  2  4  1 -1</clus>
<clus scale="   42.718">  1  3  2 -1</clus>
</clustering>
</event>
<event>
 6    0  0.6132510E+002  0.8730395E+02  0.7546771E-02  0.1309515E+00
         21   -1    0    0  505  501  0.00000000000E+00  0.00000000000E+00  0.28588354827E+03  0.28588354827E+03  0.00000000000E+00 0.  1.
         21   -1    0    0  504  502 -0.00000000000E+00 -0.00000000000E+00 -0.33119633431E+03  0.33119633431E+03  0.00000000000E+00 0. -1.
         21    1    1    2  503  501 -0.62890257786E+02 -0.40362060230E+02  0.13133218772E+03  0.15110401702E+03  0.00000000000E+00 0.  1.
         21    1    1    2  504  506 -0.24615858091E+02  0.39936876567E+02 -0.76100461316E+01  0.47526912182E+02  0.00000000000E+00 0.  1.
         21    1    1    2  505  502 -0.54224101923E+02 -0.44099909833E+02 -0.24274609369E+03  0.25260784088E+03  0.00000000000E+00 0. -1.
         21    1    1    2  506  503  0.14173021780E+03  0.44525093496E+02  0.73711166068E+02  0.16584111249E+03  0.00000000000E+00 0.  1.
<scales pt_clust_3="74.71584" pt_clust_4="46.91369" pt_clust_5="14000.00000" pt_clust_6="87.30395"></scales>
<clustering>
<clus scale="   46.914">  2  4  1 -1</clus>
<clus scale="   74.716">  1  3  2 -1</clus>
<clus scale="   87.304">  1  6  2 -1</clus>
<clus scale="   74.716">  1  3  2 -1</clus>
</clustering>
</event>
<event>
 6    0  0.6132510E+002  0.1137280E+03  0.7546771E-02  0.1253818E+00
         21   -1    0    0  505  501  0.00000000000E+00  0.00000000000E+00  0.10130507345E+04  0.10130507345E+04  0.00000000000E+00 0. -1.
         21   -1    0    0  504  502 -0.00000000000E+00 -0.00000000000E+00 -0.43173232523E+03  0.43173232523E+03  0.00000000000E+00 0. -1.
         21    1    1    2  503  502 -0.82720780618E+02  0.64359920586E+02 -0.25149095918E+03  0.27245665613E+03  0.00000000000E+00 0. -1.
         21    1    1    2  504  501 -0.46016192170E+02 -0.92862649947E+01  0.70143253086E+03  0.70300165008E+03  0.00000000000E+00 0. -1.
         21    1    1    2  505  506 -0.27957199226E+02 -0.27624176193E+02  0.26110988917E+03  0.26405127214E+03  0.00000000000E+00 0. -1.
         21    1    1    2  506  503  0.15669417201E+03 -0.27449479398E+02 -0.12973305161E+03  0.20527348134E+03  0.00000000000E+00 0. -1.
<scales pt_clust_3="14000.00000" pt_clust_4="80.27308" pt_clust_5="39.30267" pt_clust_6="113.72799"></scales>
<clustering>
<clus scale="   39.303">  1  5  2 -1</clus>
<clus scale="   80.273">  1  4  2 -1</clus>
<clus scale="  113.728">  1  6  2 -1</clus>
<clus scale="   39.303">  1  3  2 -1</clus>
</clustering>
</event>
<event>
 6    0  0.6132510E+002  0.1481231E+03  0.7546771E-02  0.1202798E+00
         21   -1    0    0  504  501  0.00000000000E+00  0.00000000000E+00  0.38518689003E+03  0.38518689003E+03  0.00000000000E+00 0.  1.
         21   -1    0    0  503  502 -0.00000000000E+00 -0.00000000000E+00 -0.12918442080E+03  0.12918442080E+03  0.00000000000E+00 0.  1.
         21    1    1    2  503  506  0.35365799024E+01 -0.47839778323E+02  0.19108346276E+03  0.19701279534E+03  0.00000000000E+00 0.  1.
         21    1    1    2  504  502 -0.36079562613E+02  0.13177429375E+03 -0.64102897947E+02  0.15091514455E+03  0.00000000000E+00 0.  1.
         21    1    1    2  505  501 -0.12366574923E+02 -0.34410837287E+02  0.31831816538E+02  0.48479917927E+02  0.00000000000E+00 0.  1.
         21    1    1    2  506  505  0.44909557634E+02 -0.49523678138E+02  0.97190087878E+02  0.11796345301E+03  0.00000000000E+00 0.  1.
<scales pt_clust_3="62.85781" pt_clust_4="132.88611" pt_clust_5="36.56553" pt_clust_6="62.85781"></scales>
<clustering>
<clus scale="   36.566">  1  5  2 -1</clus>
<clus scale="   62.858">  3  6 -1 -1</clus>
<clus scale="  132.886">  2  4  1 -1</clus>
<clus scale="   36.566">  1  3  2 -1</clus>
</clustering>
</event>
<event>
 6    0  0.6132510E+002  0.1793295E+03  0.7546771E-02  0.1168454E+00
         21   -1    0    0  504  501  0.00000000000E+00  0.00000000000E+00  0.18835990448E+03  0.18835990448E+03  0.00000000000E+00 0.  1.
         21   -1    0    0  506  502 -0.00000000000E+00 -0.00000000000E+00 -0.18746762379E+04  0.18746762379E+04  0.00000000000E+00 0. -1.
         21    1    1    2  503  501  0.11612850145E+03 -0.14349810091E+03 -0.14591843434E+04  0.14708149040E+04  0.00000000000E+00 0. -1.
         21    1    1    2  504  505 -0.13354262924E+02  0.59164949418E+02  0.21408290681E+02  0.64320622570E+02  0.00000000000E+00 0.  1.
         21    1    1    2  505  502 -0.70839641163E+02  0.86762037458E+02  0.11641086566E+03  0.16154688343E+03  0.00000000000E+00 0.  1.
         21    1    1    2  506  503 -0.31934597360E+02 -0.24288859694E+01 -0.36495114639E+03  0.36635373241E+03  0.00000000000E+00 0. -1.
<scales pt_clust_3="168.87975" pt_clust_4="44.35955" pt_clust_5="44.35955" pt_clust_6="32.02683"></scales>
<clustering>
<clus scale="   32.027">  2  6  1 -1</clus>
<clus scale="   44.360">  4  5 -1 -1</clus>
<clus scale="  168.880">  2  3  1 -1</clus>
<clus scale="  179.330">  1  3  2 -1</clus>
</clustering>
</event>
<event>
 6    0  0.6132510E+002  0.1358917E+03  0.7546771E-02  0.1218966E+00
         21   -1    0    0  505  501  0.00000000000E+00  0.00000000000E+00  0.19690005964E+03  0.19690005964E+03  0.00000000000E+00 0. -1.
         21   -1    0    0  503  502 -0.00000000000E+00 -0.00000000000E+00 -0.19352783507E+03  0.19352783507E+03  0.00000000000E+00 0. -1.
         21    1    1    2  503  501 -0.56684094819E+02  0.73681967681E+01 -0.68601817648E+02  0.89294940023E+02  0.00000000000E+00 0. -1.
         21    1    1    2  504  506 -0.26430029347E+02  0.52953474205E+02  0.13060296396E+02  0.60606833143E+02  0.00000000000E+00 0.  1.
         21    1    1    2  505  504 -0.36504128012E+02  0.47120664414E+02  0.52790967504E+02  0.79622827297E+02  0.00000000000E+00 0. -1.
         21    1    1    2  506  502  0.11961825218E+03 -0.10744233539E+03  0.61227783171E+01  0.16090329425E+03  0.00000000000E+00 0. -1.
<scales pt_clust_3="57.16097" pt_clust_4="36.64453" pt_clust_5="36.64453" pt_clust_6="130.82099"></scales>
<clustering>
<clus scale="   36.645">  4  5 -1 -1</clus>
<clus scale="   57.161">  2  3  1 -1</clus>
<clus scale="  130.821">  2  6  1 -1</clus>
<clus scale="  135.892">  1  3  2 -1</clus>
</clustering>
</event>
<event>
 6    0  0.6132510E+002  0.7923101E+02  0.7546771E-02  0.1331248E+00
         21   -1    0    0  504  501  0.00000000000E+00  0.00000000000E+00  0.45256730376E+02  0.45256730376E+02  0.00000000000E+00 0. -1.
         21   -1    0    0  505  502 -0.00000000000E+00 -0.00000000000E+00 -0.96071778595E+03  0.96071778595E+03  0.00000000000E+00 0. -1.
         21    1    1    2  503  506  0.86108752010E+00 -0.10164770725E+03 -0.93358624122E+02  0.13801750091E+03  0.00000000000E+00 0. -1.
         21    1    1    2  504  502 -0.33071329378E+02 -0.17256345694E+02 -0.16856340821E+03  0.17264158502E+03  0.00000000000E+00 0. -1.
         21    1    1    2  505  503  0.26766014527E+02  0.89138375745E+02 -0.65815755842E+03  0.66470552974E+03  0.00000000000E+00 0. -1.
         21    1    1    2  506  501  0.54442273310E+01  0.29765677195E+02  0.46185351806E+01  0.30609900642E+02  0.00000000000E+00 0. -1.
<scales pt_clust_3="14000.00000" pt_clust_4="35.97407" pt_clust_5="79.23101" pt_clust_6="30.25946"></scales>
<clustering>
<clus scale="   30.259">  1  6  2 -1</clus>
<clus scale="   35.974">  2  4  1 -1</clus>
<clus scale="   79.231">  2  5  1 -1</clus>
<clus scale="   30.259">  1  3  2 -1</clus>
</clustering>
</event>
<event>
 6    0  0.6132510E+002  0.1130408E+03  0.7546771E-02  0.1255040E+00
         21   -1    0    0  504  501  0.00000000000E+00  0.00000000000E+00  0.33101948809E+03  0.33101948809E+03  0.00000000000E+00 0. -1.
         21   -1    0    0  501  502 -0.00000000000E+00 -0.00000000000E+00 -0.20166026656E+03  0.20166026656E+03  0.00000000000E+00 0. -1.
         21    1    1    2  503  506 -0.13322305178E+03  0.13333891689E+02 -0.56360254520E+02  0.14526752040E+03  0.00000000000E+00 0. -1.
         21    1    1    2  504  505 -0.79900932845E+01  0.43574991335E+02  0.77950768602E+02  0.89660157184E+02  0.00000000000E+00 0. -1.
         21    1    1    2  505  503  0.11295725809E+03 -0.74945928875E+01  0.17577008403E+03  0.20907088156E+03  0.00000000000E+00 0. -1.
         21    1    1    2  506  502  0.28255886980E+02 -0.49414290136E+02 -0.68001376581E+02  0.88681195502E+02  0.00000000000E+00 0. -1.
<scales pt_clust_3="14000.00000" pt_clust_4="44.30148" pt_clust_5="113.04078" pt_clust_6="55.17784"></scales>
<clustering>
<clus scale="   44.301">  1  4  2 -1</clus>
<clus scale="   55.178">  2  6  1 -1</clus>
<clus scale="  113.041">  1  5  2 -1</clus>
<clus scale="   44.301">  1  3  2 -1</clus>
</clustering>
</event>
<event>
 6    0  0.6132510E+002  0.1596085E+03  0.7546771E-02  0.1189139E+00
         21   -1    0    0  504  501  0.00000000000E+00  0.00000000000E+00  0.14062476202E+04  0.14062476202E+04  0.00000000000E+00 0.  1.
         21   -1    0    0  503  502 -0.00000000000E+00 -0.00000000000E+00 -0.72249226831E+03  0.72249226831E+03  0.00000000000E+00 0.  1.
         21    1    1    2  503  506  0.75589524361E+02  0.13354832398E+03 -0.60925797212E+02  0.16510870297E+03  0.00000000000E+00 0.  1.
         21    1    1    2  504  502  0.31108889588E+02 -0.79080285914E+01 -0.59975970224E+03  0.60061801535E+03  0.00000000000E+00 0.  1.
         21    1    1    2  505  501 -0.92151175520E+02  0.44456230338E+01  0.62291480553E+03  0.62970982020E+03  0.00000000000E+00 0.  1.
         21    1    1    2  506  505 -0.14547238430E+02 -0.13008591842E+03  0.72152604586E+03  0.73330335003E+03  0.00000000000E+00 0.  1.
<scales pt_clust_3="159.60849" pt_clust_4="32.09829" pt_clust_5="91.38475" pt_clust_6="14000.00000"></scales>
<clustering>
<clus scale="   32.098">  2  4  1 -1</clus>
<clus scale="   91.385">  1  5  2 -1</clus>
<clus scale="  159.608">  2  3  1 -1</clus>
<clus scale="   91.385">  1  3  2 -1</clus>
</clustering>
</event>
<event>
 6    0  0.6132510E+002  0.1222391E+03  0.7546771E-02  0.1239448E+00
         21   -1    0    0  505  501  0.00000000000E+00  0.00000000000E+00  0.68374611120E+02  0.68374611120E+02  0.00000000000E+00 0. -1.
         21   -1    0    0  504  502 -0.00000000000E+00 -0.00000000000E+00 -0.21390448868E+04  0.21390448868E+04  0.00000000000E+00 0. -1.
         21    1    1    2  503  501 -0.80127928585E+02 -0.27527492471E+02  0.26123433815E+02  0.88660484858E+02  0.00000000000E+00 0. -1.
         21    1    1    2  504  506 -0.22570383618E+02 -0.39853870294E+02 -0.19822633456E+03  0.20344884593E+03  0.00000000000E+00 0.  1.
         21    1    1    2  505  502 -0.39663959452E+02 -0.24302945312E+01 -0.75130554482E+02  0.84992565721E+02  0.00000000000E+00 0. -1.
         21    1    1    2  506  503  0.14236227166E+03  0.69811657296E+02 -0.18234368205E+04  0.18303176014E+04  0.00000000000E+00 0. -1.
<scales pt_clust_3="122.23910" pt_clust_4="46.71289" pt_clust_5="39.73834" pt_clust_6="14000.00000"></scales>
<clustering>
<clus scale="   39.738">  1  5  2 -1</clus>
<clus scale="   46.713">  2  4  1 -1</clus>
<clus scale="  122.239">  1  3  2 -1</clus>
<clus scale="   39.738">  1  3  2 -1</clus>
</clustering>
</event>
<event>
 6    0  0.6132510E+002  0.8925797E+02  0.7546771E-02  0.1304659E+00
         21   -1    0    0  504  501  0.00000000000E+00  0.00000000000E+00  0.32578717390E+04  0.32578717390E+04  0.00000000000E+00 0.  1.
         21   -1    0    0  505  502 -0.00000000000E+00 -0.00000000000E+00 -0.83777291468E+02  0.83777291468E+02  0.00000000000E+00 0.  1.
         21    1    1    2  503  502  0.92604517525E+02  0.34968878941E+02 -0.15499700487E+02  0.10019311291E+03  0.00000000000E+00 0.  1.
         21    1    1    2  504  503 -0.18840539478E+02  0.31262577168E+02  0.26867733458E+04  0.26870212739E+04  0.00000000000E+00 0.  1.
         21    1    1    2  505  506 -0.39889725901E+02 -0.77763385755E+02  0.50980786877E+02  0.10117991415E+03  0.00000000000E+00 0.  1.
         21    1    1    2  506  501 -0.33874252146E+02  0.11531929647E+02  0.45184001529E+03  0.45325472946E+03  0.00000000000E+00 0.  1.
<scales pt_clust_3="89.25797" pt_clust_4="66.48360" pt_clust_5="14000.00000" pt_clust_6="35.78338"></scales>
<clustering>
<clus scale="   35.783">  1  6  2 -1</clus>
<clus scale="   66.484">  1  4  2 -1</clus>
<clus scale="   89.258">  2  3  1 -1</clus>
<clus scale="   35.783">  1  3  2 -1</clus>
</clustering>
</event>
<event>
 6    0  0.6132510E+002  0.9792846E+02  0.7546771E-02  0.1284713E+00
         21   -1    0    0  506  501  0.00000000000E+00  0.00000000000E+00  0.87579367515E+03  0.87579367515E+03  0.00000000000E+00 0.  1.
         21   -1    0    0  505  502 -0.00000000000E+00 -0.00000000000E+00 -0.12504140068E+03  0.12504140068E+03  0.00000000000E+00 0.  1.
         21    1    1    2  503  501  0.12946266479E+03  0.25463192269E+02  0.22936824383E+03  0.26461055726E+03  0.00000000000E+00 0.  1.
         21    1    1    2  504  502 -0.56904238967E+02  0.73817692248E+02  0.71574314838E+02  0.11751606973E+03  0.00000000000E+00 0.  1.
         21    1    1    2  505  503 -0.27650272359E+01 -0.37468435165E+02 -0.75956485077E+02  0.84740289323E+02  0.00000000000E+00 0.  1.
         21    1    1    2  506  504 -0.69793398590E+02 -0.61812449352E+02  0.52576620089E+03  0.53396815952E+03  0.00000000000E+00 0.  1.
<scales pt_clust_3="97.92846" pt_clust_4="79.86643" pt_clust_5="37.57032" pt_clust_6="14000.00000"></scales>
<clustering>
<clus scale="   37.570">  2  5  1 -1</clus>
<clus scale="   79.866">  2  4  1 -1</clus>
<clus scale="   97.928">  2  3  1 -1</clus>
<clus scale="   97.928">  1  3  2 -1</clus>
</clustering>
</event>
<event>
 6    0  0.6132510E+002  0.9098643E+02  0.7546771E-02  0.1300480E+00
         21   -1    0    0  504  501  0.00000000000E+00  0.00000000000E+00  0.49790976252E+03  0.49790976252E+03  0.00000000000E+00 0. -1.
         21   -1    0    0  503  502 -0.00000000000E+00 -0.00000000000E+00 -0.80023289609E+02  0.80023289609E+02  0.00000000000E+00 0.  1.
         21    1    1    2  503  505  0.13765821992E+02 -0.51455688886E+02 -0.15267526332E+02  0.55410135662E+02  0.00000000000E+00 0.  1.
         21    1    1    2  504  502  0.28741400259E+02 -0.60903836987E+02  0.18305274477E+03  0.19504782187E+03  0.00000000000E+00 0. -1.
         21    1    1    2  505  506 -0.81611070759E+02  0.11135356382E+03  0.95170307562E+02  0.16768234996E+03  0.00000000000E+00 0.  1.
         21    1    1    2  506  501  0.39103848507E+02  0.10059620489E+01  0.15493094691E+03  0.15979274464E+03  0.00000000000E+00 0. -1.
<scales pt_clust_3="53.85027" pt_clust_4="90.98643" pt_clust_5="14000.00000" pt_clust_6="39.11679"></scales>
<clustering>
<clus scale="   39.117">  1  6  2 -1</clus>
<clus scale="   53.850">  2  3  1 -1</clus>
<clus scale="   90.986">  1  4  2 -1</clus>
<clus scale="   39.117">  1  3  2 -1</clus>
</clustering>
</event>
<event>
 6    0  0.6132510E+002  0.1076395E+03  0.7546771E-02  0.1265005E+00
         21   -1    0    0  503  501  0.00000000000E+00  0.00000000000E+00  0.22113604462E+03  0.22113604462E+03  0.00000000000E+00 0.  1.
         21   -1    0    0  504  502 -0.00000000000E+00 -0.00000000000E+00 -0.13319130333E+04  0.13319130333E+04  0.00000000000E+00 0. -1.
         21    1    1    2  503  505  0.86108266547E+02  0.79468449729E+01 -0.58436725111E+02  0.10436779558E+03  0.00000000000E+00 0. -1.
         21    1    1    2  504  506  0.33152810421E+02 -0.29307197001E+01 -0.65551849737E+03  0.65636285571E+03  0.00000000000E+00 0. -1.
         21    1    1    2  505  502 -0.14077416313E+02  0.34383587382E+02 -0.57797588234E+03  0.57916882280E+03  0.00000000000E+00 0. -1.
         21    1    1    2  506  501 -0.10518366066E+03 -0.39399712655E+02  0.18115411613E+03  0.21314960384E+03  0.00000000000E+00 0.  1.
<scales pt_clust_3="14000.00000" pt_clust_4="33.28210" pt_clust_5="34.93524" pt_clust_6="107.63949"></scales>
<clustering>
<clus scale="   33.282">  2  4  1 -1</clus>
<clus scale="   34.935">  2  5  1 -1</clus>
<clus scale="  107.639">  1  6  2 -1</clus>
<clus scale="  107.639">  1  3  2 -1</clus>
</clustering>
</event>
<event>
 6    0  0.6132510E+002  0.1451833E+03  0.7546771E-02  0.1206520E+00
         21   -1    0    0  505  501  0.00000000000E+00  0.00000000000E+00  0.70324489206E+02  0.70324489206E+02  0.00000000000E+00 0.  1.
         21   -1    0    0  506  502 -0.00000000000E+00 -0.00000000000E+00 -0.21130818821E+04  0.21130818821E+04  0.00000000000E+00 0. -1.
         21    1    1    2  503  504  0.20965586112E+02  0.89316802807E+02 -0.19373732661E+03  0.21436230729E+03  0.00000000000E+00 0. -1.
         21    1    1    2  504  502 -0.10550648928E+03 -0.13023233172E+03 -0.18521469305E+04  0.18597151211E+04  0.00000000000E+00 0. -1.
         21    1    1    2  505  503  0.34191265123E+02  0.41905279765E+02  0.17694137633E+02  0.56904987387E+02  0.00000000000E+00 0.  1.
         21    1    1    2  506  501  0.50349638049E+02 -0.98975085612E+00 -0.14567273422E+02  0.52423955530E+02  0.00000000000E+00 0.  1.
<scales pt_clust_3="14000.00000" pt_clust_4="145.18328" pt_clust_5="81.84920" pt_clust_6="50.35937"></scales>
<clustering>
<clus scale="   50.359">  1  6  2 -1</clus>
<clus scale="   81.849">  1  5  2 -1</clus>
<clus scale="  145.183">  2  4  1 -1</clus>
<clus scale="   50.359">  1  3  2 -1</clus>
</clustering>
</event>
<event>
 6    0  0.6132510E+002  0.1415095E+03  0.7546771E-02  0.1211312E+00
         21   -1    0    0  506  501  0.00000000000E+00  0.00000000000E+00  0.97197789470E+03  0.97197789470E+03  0.00000000000E+00 0.  1.
         21   -1    0    0  504  502 -0.00000000000E+00 -0.00000000000E+00 -0.61610743844E+02  0.61610743844E+02  0.00000000000E+00 0.  1.
         21    1    1    2  503  501 -0.46331217094E+02 -0.11139404808E+03  0.25151159912E+03  0.27895035422E+03  0.00000000000E+00 0.  1.
         21    1    1    2  504  503 -0.54012500331E+02  0.26099285600E+02 -0.17342235690E+02  0.62444183392E+02  0.00000000000E+00 0.  1.
         21    1    1    2  505  502  0.75973569058E+02  0.28867922386E+02  0.47200779897E+03  0.47895375813E+03  0.00000000000E+00 0.  1.
         21    1    1    2  506  505  0.24370148367E+02  0.56426840094E+02  0.20418998845E+03  0.21324034280E+03  0.00000000000E+00 0.  1.
<scales pt_clust_3="124.41778" pt_clust_4="59.98769" pt_clust_5="58.62914" pt_clust_6="58.62914"></scales>
<clustering>
<clus scale="   58.629">  5  6 -1 -1</clus>
<clus scale="   59.988">  2  4  1 -1</clus>
<clus scale="  124.418">  2  3  1 -1</clus>
<clus scale="  141.510">  1  3  2 -1</clus>
</clustering>
</event>
<event>
 6    0  0.6132510E+002  0.2642103E+03  0.7546771E-02  0.1104640E+00
         21   -1    0    0  502  501  0.00000000000E+00  0.00000000000E+00  0.87148347124E+03  0.87148347124E+03  0.00000000000E+00 0.  1.
         21   -1    0    0  505  502 -0.00000000000E+00 -0.00000000000E+00 -0.10474289972E+03  0.10474289972E+03  0.00000000000E+00 0.  1.
         21    1    1    2  503  504 -0.57790291047E+02 -0.73083250853E+01  0.13399633397E+03  0.14611005055E+03  0.00000000000E+00 0.  1.
         21    1    1    2  504  501 -0.16430778815E+03 -0.12413067786E+03  0.49401040291E+03  0.53521187638E+03  0.00000000000E+00 0.  1.
         21    1    1    2  505  506  0.12027030482E+03  0.52015356914E+02  0.66766822473E+02  0.14706580894E+03  0.00000000000E+00 0.  1.
         21    1    1    2  506  503  0.10182777437E+03  0.79423646032E+02  0.71967012163E+02  0.14783863508E+03  0.00000000000E+00 0.  1.
<scales pt_clust_3="30.10205" pt_clust_4="30.10205" pt_clust_5="260.23365" pt_clust_6="33.19043"></scales>
<clustering>
<clus scale="   30.102">  3  4 -1 -1</clus>
<clus scale="   33.190">  5  6 -1 -1</clus>
<clus scale="  260.234">  2  5  1 -1</clus>
<clus scale="  264.210">  1  3  2 -1</clus>
</clustering>
</event>
<event>
 6    0  0.8252970E+002  0.1280740E+03  0.7546771E-02  0.1230342E+00
         21   -1    0    0  503  501  0.00000000000E+00  0.00000000000E+00  0.97156332411E+03  0.97156332411E+03  0.00000000000E+00 0. -1.
         21   -1    0    0  504  502 -0.00000000000E+00 -0.00000000000E+00 -0.23278769346E+03  0.23278769346E+03  0.00000000000E+00 0. -1.
         21    1    1    2  503  505 -0.67521649431E+02 -0.11056078573E+03  0.90457779007E+03  0.91380733131E+03  0.00000000000E+00 0. -1.
         21    1    1    2  504  506  0.34982024473E+02  0.34796182234E+01 -0.10379723484E+01  0.35169975346E+02  0.00000000000E+00 0. -1.
         21    1    1    2  505  502  0.79570077524E+01  0.71042231223E+02 -0.19136308382E+03  0.20427956932E+03  0.00000000000E+00 0. -1.
         21    1    1    2  506  501  0.24582617206E+02  0.36038936281E+02  0.26598896754E+02  0.51094141596E+02  0.00000000000E+00 0.  1.
<scales pt_clust_3="128.07398" pt_clust_4="35.15466" pt_clust_5="14000.00000" pt_clust_6="44.93952"></scales>
<clustering>
<clus scale="   35.155">  2  4  1 -1</clus>
<clus scale="   44.940">  2  6  1 -1</clus>
<clus scale="  128.074">  1  3  2 -1</clus>
<clus scale="  128.074">  1  3  2 -1</clus>
</clustering>
</event>
<event>
 6    0  0.6132510E+002  0.6608118E+02  0.7546771E-02  0.1373950E+00
         21   -1    0    0  505  501  0.00000000000E+00  0.00000000000E+00  0.22114824409E+03  0.22114824409E+03  0.00000000000E+00 0.  1.
         21   -1    0    0  506  502 -0.00000000000E+00 -0.00000000000E+00 -0.44053594831E+03  0.44053594831E+03  0.00000000000E+00 0.  1.
         21    1    1    2  503  504  0.43823399176E+02 -0.84460601481E+02  0.17482717402E+03  0.19904427722E+03  0.00000000000E+00 0.  1.
         21    1    1    2  504  501 -0.28178925154E+01  0.40843803943E+02  0.57326001709E-02  0.40940894856E+02  0.00000000000E+00 0. -1.
         21    1    1    2  505  502 -0.77081148063E+02  0.67927468414E+02 -0.23170502274E+03  0.25346175631E+03  0.00000000000E+00 0.  1.
         21    1    1    2  506  503  0.36075641403E+02 -0.24310670876E+02 -0.16251558811E+03  0.16823726400E+03  0.00000000000E+00 0.  1.
<scales pt_clust_3="14000.00000" pt_clust_4="40.94089" pt_clust_5="66.08118" pt_clust_6="43.14617"></scales>
<clustering>
<clus scale="   40.941">  1  4  2 -1</clus>
<clus scale="   43.146">  2  6  1 -1</clus>
<clus scale="   66.081">  2  5  1 -1</clus>
<clus scale="   40.941">  1  3  2 -1</clus>
</clustering>
</event>
<event>
 6    0  0.6132510E+002  0.9071408E+02  0.7546771E-02  0.1301132E+00
         21   -1    0    0  506  501  0.00000000000E+00  0.00000000000E+00  0.48273440934E+03  0.48273440934E+03  0.00000000000E+00 0. -1.
         21   -1    0    0  505  502 -0.00000000000E+00 -0.00000000000E+00 -0.23011296310E+03  0.23011296310E+03  0.00000000000E+00 0.  1.
         21    1    1    2  503  501 -0.53518019269E+02  0.61895559725E+02  0.36877000826E+03  0.37773874264E+03  0.00000000000E+00 0. -1.
         21    1    1    2  504  502 -0.71332870564E+02 -0.72452498512E+02 -0.31178782908E+01  0.10172248586E+03  0.00000000000E+00 0.  1.
         21    1    1    2  505  503  0.95905612058E+02 -0.11801096908E+02 -0.15189019463E+03  0.18002161964E+03  0.00000000000E+00 0.  1.
         21    1    1    2  506  504  0.28945277775E+02  0.22358035694E+02  0.38859510909E+02  0.53364524299E+02  0.00000000000E+00 0.  1.
<scales pt_clust_3="85.96706" pt_clust_4="14000.00000" pt_clust_5="90.71408" pt_clust_6="36.57473"></scales>
<clustering>
<clus scale="   36.575">  1  6  2 -1</clus>
<clus scale="   85.967">  1  3  2 -1</clus>
<clus scale="   90.714">  2  5  1 -1</clus>
<clus scale="   36.575">  1  3  2 -1</clus>
</clustering>
</event>
<event>
 6    0  0.6132510E+002  0.9496761E+02  0.7546771E-02  0.1291249E+00
         21   -1    0    0  505  501  0.00000000000E+00  0.00000000000E+00  0.11371653691E+04  0.11371653691E+04  0.00000000000E+00 0.  1.
         21   -1    0    0  503  502 -0.00000000000E+00 -0.00000000000E+00 -0.82208506827E+02  0.82208506827E+02  0.00000000000E+00 0.  1.
         21    1    1    2  503  504  0.13140234076E+02 -0.68953242259E+02  0.78256025050E+01  0.70628998465E+02  0.00000000000E+00 0.  1.
         21    1    1    2  504  501 -0.10619748243E+03  0.24557266692E+02  0.91026810929E+03  0.91677096126E+03  0.00000000000E+00 0.  1.
         21    1    1    2  505  506  0.12492789800E+02 -0.37111113360E+02  0.10642022993E+03  0.11339563426E+03  0.00000000000E+00 0.  1.
         21    1    1    2  506  502  0.80564458553E+02  0.81507088927E+02  0.30442920502E+02  0.11857828189E+03  0.00000000000E+00 0.  1.
<scales pt_clust_3="71.67581" pt_clust_4="14000.00000" pt_clust_5="39.15743" pt_clust_6="94.96761"></scales>
<clustering>
<clus scale="   39.157">  1  5  2 -1</clus>
<clus scale="   71.676">  2  3  1 -1</clus>
<clus scale="   94.968">  2  6  1 -1</clus>
<clus scale="   39.157">  1  3  2 -1</clus>
</clustering>
</event>
<event>
 6    0  0.6132510E+002  0.2971923E+03  0.7546771E-02  0.1086653E+00
         21   -1    0    0  502  501  0.00000000000E+00  0.00000000000E+00  0.63739881696E+02  0.63739881696E+02  0.00000000000E+00 0.  1.
         21   -1    0    0  504  502 -0.00000000000E+00 -0.00000000000E+00 -0.19367207579E+04  0.19367207579E+04  0.00000000000E+00 0. -1.
         21    1    1    2  503  506 -0.25517118488E+02 -0.57556764605E+02 -0.13492680447E+03  0.14889307255E+03  0.00000000000E+00 0.  1.
         21    1    1    2  504  505  0.10997451822E+02  0.15551787697E+03 -0.95967600974E+03  0.97225757784E+03  0.00000000000E+00 0. -1.
         21    1    1    2  505  503 -0.29233543318E+02  0.12516772390E+03 -0.51761561424E+03  0.53333618222E+03  0.00000000000E+00 0. -1.
         21    1    1    2  506  501  0.43753209984E+02 -0.22312883626E+03 -0.26076244772E+03  0.34597380695E+03  0.00000000000E+00 0.  1.
<scales pt_clust_3="50.48921" pt_clust_4="290.55469" pt_clust_5="66.13425" pt_clust_6="50.48921"></scales>
<clustering>
<clus scale="   50.489">  3  6 -1 -1</clus>
<clus scale="   66.134">  4  5 -1 -1</clus>
<clus scale="  290.555">  2  4  1 -1</clus>
<clus scale="  297.192">  1  3  2 -1</clus>
</clustering>
</event>
<event>
 6    0  0.6132510E+002  0.1969903E+03  0.7546771E-02  0.1152303E+00
         21   -1    0    0  505  501  0.00000000000E+00  0.00000000000E+00  0.29405743350E+03  0.29405743350E+03  0.00000000000E+00 0. -1.
         21   -1    0    0  506  502 -0.00000000000E+00 -0.00000000000E+00 -0.18879639526E+03  0.18879639526E+03  0.00000000000E+00 0. -1.
         21    1    1    2  503  504 -0.60347121666E+02 -0.21304964840E+02  0.27374396990E+02  0.69606280110E+02  0.00000000000E+00 0. -1.
         21    1    1    2  504  502  0.17896492443E+03  0.34694514168E+02 -0.18714817201E+02  0.18325500777E+03  0.00000000000E+00 0. -1.
         21    1    1    2  505  503 -0.14320699273E+03  0.34897136797E+02  0.42456759769E+02  0.15339044746E+03  0.00000000000E+00 0. -1.
         21    1    1    2  506  501  0.24589189961E+02 -0.48286686125E+02  0.54144698680E+02  0.76602093412E+02  0.00000000000E+00 0. -1.
<scales pt_clust_3="37.46108" pt_clust_4="188.60822" pt_clust_5="37.46108" pt_clust_6="54.18701"></scales>
<clustering>
<clus scale="   37.461">  3  5 -1 -1</clus>
<clus scale="   54.187">  1  6  2 -1</clus>
<clus scale="  188.608">  2  4  1 -1</clus>
<clus scale="   54.187">  1  3  2 -1</clus>
</clustering>
</event>
<event>
 6    0  0.6132510E+002  0.8153266E+02  0.7546771E-02  0.1324757E+00
         21   -1    0    0  503  501  0.00000000000E+00  0.00000000000E+00  0.60167745332E+02  0.60167745332E+02  0.00000000000E+00 0. -1.
         21   -1    0    0  504  502 -0.00000000000E+00 -0.00000000000E+00 -0.69484164931E+03  0.69484164931E+03  0.00000000000E+00 0.  1.
         21    1    1    2  503  506 -0.11077074439E+02  0.65613574332E+02 -0.16872729038E+01  0.66563425427E+02  0.00000000000E+00 0. -1.
         21    1    1    2  504  505 -0.75364741772E+02 -0.38631203934E+02 -0.48254359916E+03  0.48991891096E+03  0.00000000000E+00 0.  1.
         21    1    1    2  505  501  0.92133946884E+01 -0.33486388386E+02 -0.69170326259E+01  0.35412853446E+02  0.00000000000E+00 0. -1.
         21    1    1    2  506  502  0.77228421522E+02  0.65040179876E+01 -0.14352599928E+03  0.16311420481E+03  0.00000000000E+00 0. -1.
<scales pt_clust_3="42.20656" pt_clust_4="81.53266" pt_clust_5="34.73075" pt_clust_6="14000.00000"></scales>
<clustering>
<clus scale="   34.731">  1  5  2 -1</clus>
<clus scale="   42.207">  1  3  2 -1</clus>
<clus scale="   81.533">  2  4  1 -1</clus>
<clus scale="   34.731">  1  3  2 -1</clus>
</clustering>
</event>
<event>
 6    0  0.6132510E+002  0.9966540E+02  0.7546771E-02  0.1281001E+00
         21   -1    0    0  503  501  0.00000000000E+00  0.00000000000E+00  0.33270195544E+03  0.33270195544E+03  0.00000000000E+00 0. -1.
         21   -1    0    0  505  502 -0.00000000000E+00 -0.00000000000E+00 -0.43082329874E+03  0.43082329874E+03  0.00000000000E+00 0. -1.
         21    1    1    2  503  502  0.49698237062E+01  0.11489725003E+03  0.20034605107E+03  0.23100782972E+03  0.00000000000E+00 0. -1.
         21    1    1    2  504  506 -0.47141438060E+02 -0.11465656612E+02 -0.14690243734E+03  0.15470650459E+03  0.00000000000E+00 0. -1.
         21    1    1    2  505  504 -0.26665111335E+02 -0.33378596159E+02 -0.24113315800E+03  0.24488846182E+03  0.00000000000E+00 0. -1.
         21    1    1    2  506  501  0.68836725689E+02 -0.70052997261E+02  0.89568200981E+02  0.13292245806E+03  0.00000000000E+00 0. -1.
<scales pt_clust_3="14000.00000" pt_clust_4="95.41758" pt_clust_5="38.07255" pt_clust_6="99.66540"></scales>
<clustering>
<clus scale="   38.073">  4  5 -1 -1</clus>
<clus scale="   95.418">  2  4  1 -1</clus>
<clus scale="   99.665">  2  6  1 -1</clus>
<clus scale="   99.665">  1  3  2 -1</clus>
</clustering>
</event>
<event>
 6    0  0.6132510E+002  0.1357040E+03  0.7546771E-02  0.1219229E+00
         21   -1    0    0  505  501  0.00000000000E+00  0.00000000000E+00  0.11520916704E+04  0.11520916704E+04  0.00000000000E+00 0.  1.
         21   -1    0    0  504  502 -0.00000000000E+00 -0.00000000000E+00 -0.43382815217E+02  0.43382815217E+02  0.00000000000E+00 0.  1.
         21    1    1    2  503  502  0.61601853652E+02 -0.18110862978E+02  0.12344913143E+03  0.13914912786E+03  0.00000000000E+00 0.  1.
         21    1    1    2  504  506 -0.20282237972E+02  0.14892922358E+03  0.20159067374E+03  0.25145592567E+03  0.00000000000E+00 0.  1.
         21    1    1    2  505  503  0.10547431306E+02 -0.12994622981E+03  0.51562122849E+03  0.53184821351E+03  0.00000000000E+00 0.  1.
         21    1    1    2  506  501 -0.51867046986E+02 -0.87213079248E+00  0.26804782155E+03  0.27302121862E+03  0.00000000000E+00 0.  1.
<scales pt_clust_3="56.88086" pt_clust_4="14000.00000" pt_clust_5="135.70403" pt_clust_6="51.87438"></scales>
<clustering>
<clus scale="   51.874">  1  6  2 -1</clus>
<clus scale="   56.881">  2  3  1 -1</clus>
<clus scale="  135.704">  1  5  2 -1</clus>
<clus scale="   51.874">  1  3  2 -1</clus>
</clustering>
</event>
<event>
 6    0  0.6132510E+002  0.1376766E+03  0.7546771E-02  0.1216490E+00
         21   -1    0    0  504  501  0.00000000000E+00  0.00000000000E+00  0.45858642236E+03  0.45858642236E+03  0.00000000000E+00 0. -1.
         21   -1    0    0  505  502 -0.00000000000E+00 -0.00000000000E+00 -0.16802859312E+04  0.16802859312E+04  0.00000000000E+00 0.  1.
         21    1    1    2  503  502 -0.94072579771E+02 -0.10436300461E+02 -0.12862711788E+04  0.12897488562E+04  0.00000000000E+00 0.  1.
         21    1    1    2  504  503  0.41097368090E+02  0.11464816109E+03  0.31475980251E+03  0.33750100412E+03  0.00000000000E+00 0. -1.
         21    1    1    2  505  506  0.11656310193E+03 -0.12707843302E+03 -0.35052912237E+03  0.39064888391E+03  0.00000000000E+00 0.  1.
         21    1    1    2  506  501 -0.63587890251E+02  0.22866572389E+02  0.10034098982E+03  0.12097360934E+03  0.00000000000E+00 0.  1.
<scales pt_clust_3="94.95307" pt_clust_4="14000.00000" pt_clust_5="137.67657" pt_clust_6="67.57440"></scales>
<clustering>
<clus scale="   67.574">  1  6  2 -1</clus>
<clus scale="   94.953">  2  3  1 -1</clus>
<clus scale="  137.677">  2  5  1 -1</clus>
<clus scale="   67.574">  1  3  2 -1</clus>
</clustering>
</event>
<event>
 6    0  0.6132510E+002  0.1151814E+03  0.7546771E-02  0.1251265E+00
         21   -1    0    0  504  501  0.00000000000E+00  0.00000000000E+00  0.13116608906E+04  0.13116608906E+04  0.00000000000E+00 0.  1.
         21   -1    0    0  503  502 -0.00000000000E+00 -0.00000000000E+00 -0.49612037040E+02  0.49612037040E+02  0.00000000000E+00 0.  1.
         21    1    1    2  503  506 -0.11997698003E+02 -0.32569357553E+02  0.67662154456E+02  0.76045216512E+02  0.00000000000E+00 0. -1.
         21    1    1    2  504  505 -0.33742014088E+02 -0.11844346332E+03  0.67692885891E+03  0.68804073828E+03  0.00000000000E+00 0.  1.
         21    1    1    2  505  502  0.41079266820E+02  0.42324645151E+02 -0.89484997034E+01  0.59656997884E+02  0.00000000000E+00 0.  1.
         21    1    1    2  506  501  0.46604452712E+01  0.10868817572E+03  0.52640633989E+03  0.53752997495E+03  0.00000000000E+00 0.  1.
<scales pt_clust_3="34.70890" pt_clust_4="115.18144" pt_clust_5="36.59826" pt_clust_6="14000.00000"></scales>
<clustering>
<clus scale="   34.709">  2  3  1 -1</clus>
<clus scale="   36.598">  2  5  1 -1</clus>
<clus scale="  115.181">  1  4  2 -1</clus>
<clus scale="  115.181">  1  3  2 -1</clus>
</clustering>
</event>
<event>
 6    0  0.6132510E+002  0.1515820E+03  0.7546771E-02  0.1198542E+00
         21   -1    0    0  506  501  0.00000000000E+00  0.00000000000E+00  0.17643121515E+03  0.17643121515E+03  0.00000000000E+00 0.  1.
         21   -1    0    0  504  502 -0.00000000000E+00 -0.00000000000E+00 -0.23539776648E+04  0.23539776648E+04  0.00000000000E+00 0.  1.
         21    1    1    2  503  502  0.17677459576E+03 -0.21977566837E+01 -0.17823728010E+04  0.17911188932E+04  0.00000000000E+00 0.  1.
         21    1    1    2  504  505 -0.27723314703E+02  0.19180899249E+02 -0.48850779053E+03  0.48966963402E+03  0.00000000000E+00 0. -1.
         21    1    1    2  505  501 -0.17382349259E+03  0.13407283026E+02  0.11093627882E+03  0.20664273462E+03  0.00000000000E+00 0.  1.
         21    1    1    2  506  503  0.24772211534E+02 -0.30390425591E+02 -0.17602136941E+02  0.42977618091E+02  0.00000000000E+00 0.  1.
<scales pt_clust_3="151.58202" pt_clust_4="33.71185" pt_clust_5="14000.00000" pt_clust_6="38.68198"></scales>
<clustering>
<clus scale="   33.712">  2  4  1 -1</clus>
<clus scale="   38.682">  1  6  2 -1</clus>
<clus scale="  151.582">  2  3  1 -1</clus>
<clus scale="   38.682">  1  3  2 -1</clus>
</clustering>
</event>
<event>
 6    0  0.6132510E+002  0.1793429E+03  0.7546771E-02  0.1168440E+00
         21   -1    0    0  503  501  0.00000000000E+00  0.00000000000E+00  0.15957833704E+03  0.15957833704E+03  0.00000000000E+00 0. -1.
         21   -1    0    0  504  502 -0.00000000000E+00 -0.00000000000E+00 -0.52569102699E+03  0.52569102699E+03  0.00000000000E+00 0. -1.
         21    1    1    2  503  502  0.69470199256E+02 -0.52214845510E+02 -0.86423914730E+02  0.12256260324E+03  0.00000000000E+00 0.  1.
         21    1    1    2  504  506  0.66710463072E+02 -0.57718982638E+02 -0.34794087251E+03  0.35894932456E+03  0.00000000000E+00 0. -1.
         21    1    1    2  505  501 -0.93196646393E+02  0.11571104551E+03  0.54569789151E+02  0.15827988767E+03  0.00000000000E+00 0. -1.
         21    1    1    2  506  505 -0.42984015935E+02 -0.57772173611E+01  0.13682308142E+02  0.45477548553E+02  0.00000000000E+00 0. -1.
<scales pt_clust_3="86.90511" pt_clust_4="161.04585" pt_clust_5="42.63855" pt_clust_6="42.63855"></scales>
<clustering>
<clus scale="   42.639">  5  6 -1 -1</clus>
<clus scale="   86.905">  2  3  1 -1</clus>
<clus scale="  161.046">  2  4  1 -1</clus>
<clus scale="  179.343">  1  3  2 -1</clus>
</clustering>
</event>
<event>
 6    0  0.6132510E+002  0.7341958E+02  0.7546771E-02  0.1348836E+00
         21   -1    0    0  504  501  0.00000000000E+00  0.00000000000E+00  0.18030407011E+03  0.18030407011E+03  0.00000000000E+00 0. -1.
         21   -1    0    0  505  502 -0.00000000000E+00 -0.00000000000E+00 -0.60127978161E+03  0.60127978161E+03  0.00000000000E+00 0. -1.
         21    1    1    2  503  501 -0.64910251068E+02  0.28317712966E+02  0.63093191852E+02  0.94847163476E+02  0.00000000000E+00 0. -1.
         21    1    1    2  504  506  0.83136531050E+02  0.36382289959E+02  0.60486526665E+02  0.10905949627E+03  0.00000000000E+00 0. -1.
         21    1    1    2  505  503 -0.57386118054E+02 -0.10638184373E+03 -0.25081971534E+03  0.27842556065E+03  0.00000000000E+00 0. -1.
         21    1    1    2  506  502  0.39159838072E+02  0.41681840804E+02 -0.29373571468E+03  0.29925163132E+03  0.00000000000E+00 0. -1.
<scales pt_clust_3="69.87316" pt_clust_4="14000.00000" pt_clust_5="73.41958" pt_clust_6="57.19151"></scales>
<clustering>
<clus scale="   57.192">  2  6  1 -1</clus>
<clus scale="   69.873">  1  3  2 -1</clus>
<clus scale="   73.420">  2  5  1 -1</clus>
<clus scale="   69.873">  1  3  2 -1</clus>
</clustering>
</event>
<event>
 6    0  0.6132510E+002  0.1080103E+03  0.7546771E-02  0.1264299E+00
         21   -1    0    0  503  501  0.00000000000E+00  0.00000000000E+00  0.11092016606E+04  0.11092016606E+04  0.00000000000E+00 0.  1.
         21   -1    0    0  506  502 -0.00000000000E+00 -0.00000000000E+00 -0.12828835248E+04  0.12828835248E+04  0.00000000000E+00 0.  1.
         21    1    1    2  503  505  0.38057943735E+02 -0.11527791293E+03 -0.23316570315E+01  0.12142010095E+03  0.00000000000E+00 0.  1.
         21    1    1    2  504  501 -0.94384054735E+02  0.54035681906E+02  0.10445582609E+04  0.10502048206E+04  0.00000000000E+00 0.  1.
         21    1    1    2  505  502  0.79032528083E+01  0.44437771297E+02 -0.33027111715E+03  0.33334094820E+03  0.00000000000E+00 0.  1.
         21    1    1    2  506  504  0.48422858192E+02  0.16804459725E+02 -0.88563735093E+03  0.88711931577E+03  0.00000000000E+00 0.  1.
<scales pt_clust_3="14000.00000" pt_clust_4="108.01031" pt_clust_5="45.13510" pt_clust_6="80.63396"></scales>
<clustering>
<clus scale="   45.135">  2  5  1 -1</clus>
<clus scale="   80.634">  2  6  1 -1</clus>
<clus scale="  108.010">  1  4  2 -1</clus>
<clus scale="  108.010">  1  3  2 -1</clus>
</clustering>
</event>
<event>
 6    0  0.6132510E+002  0.1346924E+03  0.7546771E-02  0.1220655E+00
         21   -1    0    0  505  501  0.00000000000E+00  0.00000000000E+00  0.53926185969E+03  0.53926185969E+03  0.00000000000E+00 0.  1.
         21   -1    0    0  503  502 -0.00000000000E+00 -0.00000000000E+00 -0.18819467430E+03  0.18819467430E+03  0.00000000000E+00 0. -1.
         21    1    1    2  503  501 -0.73969086467E+02  0.11582801440E+03  0.37564360971E+03  0.39999459520E+03  0.00000000000E+00 0.  1.
         21    1    1    2  504  502  0.40421065212E+02 -0.14149966486E+01 -0.70500382735E+02  0.81278340868E+02  0.00000000000E+00 0. -1.
         21    1    1    2  505  506 -0.27791257777E+02 -0.20879123791E+02  0.11131670510E+03  0.11661775445E+03  0.00000000000E+00 0. -1.
         21    1    1    2  506  504  0.61339279032E+02 -0.93533893960E+02 -0.65392746692E+02  0.12956584346E+03  0.00000000000E+00 0. -1.
<scales pt_clust_3="134.69238" pt_clust_4="40.10410" pt_clust_5="34.76049" pt_clust_6="14000.00000"></scales>
<clustering>
<clus scale="   34.760">  1  5  2 -1</clus>
<clus scale="   40.104">  2  4  1 -1</clus>
<clus scale="  134.692">  1  3  2 -1</clus>
<clus scale="   34.760">  1  3  2 -1</clus>
</clustering>
</event>
<event>
 6    0  0.6132510E+002  0.1229857E+03  0.7546771E-02  0.1238251E+00
         21   -1    0    0  505  501  0.00000000000E+00  0.00000000000E+00  0.64616133238E+03  0.64616133238E+03  0.00000000000E+00 0. -1.
         21   -1    0    0  504  502 -0.00000000000E+00 -0.00000000000E+00 -0.50959367593E+02  0.50959367593E+02  0.00000000000E+00 0.  1.
         21    1    1    2  503  506  0.42774101161E+02  0.89925124073E+01  0.98197957042E+02  0.10748640740E+03  0.00000000000E+00 0. -1.
         21    1    1    2  504  503 -0.32201843139E+02  0.36863105672E+02  0.69417061349E+01  0.49437177765E+02  0.00000000000E+00 0.  1.
         21    1    1    2  505  502 -0.84723925871E+02 -0.66446646721E+02  0.11587542861E+03  0.15817842910E+03  0.00000000000E+00 0.  1.
         21    1    1    2  506  501  0.74151667849E+02  0.20591028641E+02  0.37418687299E+03  0.38201868570E+03  0.00000000000E+00 0. -1.
<scales pt_clust_3="33.03108" pt_clust_4="48.94739" pt_clust_5="114.91083" pt_clust_6="33.03108"></scales>
<clustering>
<clus scale="   33.031">  3  6 -1 -1</clus>
<clus scale="   48.947">  2  4  1 -1</clus>
<clus scale="  114.911">  2  5  1 -1</clus>
<clus scale="  122.986">  1  3  2 -1</clus>
</clustering>
</event>
<event>
 6    0  0.6132510E+002  0.1386531E+03  0.7546771E-02  0.1215153E+00
         21   -1    0    0  503  501  0.00000000000E+00  0.00000000000E+00  0.66360982374E+02  0.66360982374E+02  0.00000000000E+00 0.  1.
         21   -1    0    0  505  502 -0.00000000000E+00 -0.00000000000E+00 -0.48273051494E+03  0.48273051494E+03  0.00000000000E+00 0.  1.
         21    1    1    2  503  504  0.87635935512E+02 -0.91953410222E+01 -0.76309279060E+02  0.11656636548E+03  0.00000000000E+00 0.  1.
         21    1    1    2  504  506  0.47296460454E+02  0.19080043348E+02 -0.15473681392E+02  0.53295760071E+02  0.00000000000E+00 0.  1.
         21    1    1    2  505  501 -0.22430275718E+02  0.57561897066E+02 -0.74083322126E+02  0.96461535752E+02  0.00000000000E+00 0.  1.
         21    1    1    2  506  502 -0.11250212025E+03 -0.67446599392E+02 -0.25050324999E+03  0.28276783602E+03  0.00000000000E+00 0.  1.
<scales pt_clust_3="35.06638" pt_clust_4="35.06638" pt_clust_5="61.77774" pt_clust_6="130.76739"></scales>
<clustering>
<clus scale="   35.066">  3  4 -1 -1</clus>
<clus scale="   61.778">  2  5  1 -1</clus>
<clus scale="  130.767">  2  6  1 -1</clus>
<clus scale="  138.653">  1  3  2 -1</clus>
</clustering>
</event>
<event>
 6    0  0.6132510E+002  0.5496409E+02  0.7546771E-02  0.1420269E+00
         21   -1    0    0  506  501  0.00000000000E+00  0.00000000000E+00  0.10280524687E+04  0.10280524687E+04  0.00000000000E+00 0.  1.
         21   -1    0    0  504  502 -0.00000000000E+00 -0.00000000000E+00 -0.73593137858E+02  0.73593137858E+02  0.00000000000E+00 0.  1.
         21    1    1    2  503  502 -0.49937084565E+02 -0.85473765060E+01 -0.33699023740E+02  0.60847302825E+02  0.00000000000E+00 0.  1.
         21    1    1    2  504  505  0.12020570957E+01 -0.78339904064E+02  0.65507769505E+03  0.65974644528E+03  0.00000000000E+00 0.  1.
         21    1    1    2  505  501 -0.26859335177E+02  0.37922687222E+02  0.26261566442E+03  0.26669559668E+03  0.00000000000E+00 0.  1.
         21    1    1    2  506  503  0.75594362647E+02  0.48964593348E+02  0.70464995074E+02  0.11435626173E+03  0.00000000000E+00 0.  1.
<scales pt_clust_3="14000.00000" pt_clust_4="50.67257" pt_clust_5="46.47100" pt_clust_6="54.96409"></scales>
<clustering>
<clus scale="   46.471">  1  5  2 -1</clus>
<clus scale="   50.673">  1  4  2 -1</clus>
<clus scale="   54.964">  1  6  2 -1</clus>
<clus scale="   46.471">  1  3  2 -1</clus>
</clustering>
</event>
<event>
 6    0  0.6132510E+002  0.1607066E+03  0.7546771E-02  0.1187901E+00
         21   -1    0    0  506  501  0.00000000000E+00  0.00000000000E+00  0.20020814650E+03  0.20020814650E+03  0.00000000000E+00 0. -1.
         21   -1    0    0  504  502 -0.00000000000E+00 -0.00000000000E+00 -0.12273324999E+04  0.12273324999E+04  0.00000000000E+00 0. -1.
         21    1    1    2  503  502  0.59075603851E+02 -0.73584156702E+02 -0.71632187602E+03  0.72251061249E+03  0.00000000000E+00 0. -1.
         21    1    1    2  504  501 -0.15509401104E+02  0.27068300170E+02  0.61267678019E+00  0.31202720547E+02  0.00000000000E+00 0. -1.
         21    1    1    2  505  503  0.42416636659E+01 -0.66958553351E+02 -0.46903661473E+03  0.47381091750E+03  0.00000000000E+00 0. -1.
         21    1    1    2  506  505 -0.47807866413E+02  0.11347440988E+03  0.15762146057E+03  0.20001639588E+03  0.00000000000E+00 0. -1.
<scales pt_clust_3="40.87008" pt_clust_4="31.19670" pt_clust_5="40.87008" pt_clust_6="153.22363"></scales>
<clustering>
<clus scale="   31.197">  1  4  2 -1</clus>
<clus scale="   40.870">  3  5 -1 -1</clus>
<clus scale="  153.224">  1  6  2 -1</clus>
<clus scale="   31.197">  1  3  2 -1</clus>
</clustering>
</event>
<event>
 6    0  0.6132510E+002  0.1292739E+03  0.7546771E-02  0.1228537E+00
         21   -1    0    0  505  501  0.00000000000E+00  0.00000000000E+00  0.95466033431E+03  0.95466033431E+03  0.00000000000E+00 0. -1.
         21   -1    0    0  506  502 -0.00000000000E+00 -0.00000000000E+00 -0.11728692300E+03  0.11728692300E+03  0.00000000000E+00 0. -1.
         21    1    1    2  503  501  0.70597323634E+02 -0.14727513733E+03  0.54565873772E+03  0.56957651482E+03  0.00000000000E+00 0. -1.
         21    1    1    2  504  502 -0.37830307904E+02  0.39697639757E+02  0.19077742884E+02  0.58060271029E+02  0.00000000000E+00 0. -1.
         21    1    1    2  505  504  0.26309830617E+01  0.11086090839E+03  0.34570397812E+03  0.36305413311E+03  0.00000000000E+00 0. -1.
         21    1    1    2  506  503 -0.35397998792E+02 -0.32834108169E+01 -0.73067047417E+02  0.81256338357E+02  0.00000000000E+00 0. -1.
<scales pt_clust_3="14000.00000" pt_clust_4="66.92978" pt_clust_5="129.27393" pt_clust_6="35.54995"></scales>
<clustering>
<clus scale="   35.550">  2  6  1 -1</clus>
<clus scale="   66.930">  2  4  1 -1</clus>
<clus scale="  129.274">  1  5  2 -1</clus>
<clus scale="  129.274">  1  3  2 -1</clus>
</clustering>
</event>
<event>
 6    0  0.6132510E+002  0.1056414E+03  0.7546771E-02  0.1268861E+00
         21   -1    0    0  505  501  0.00000000000E+00  0.00000000000E+00  0.53307292141E+03  0.53307292141E+03  0.00000000000E+00 0.  1.
         21   -1    0    0  506  502 -0.00000000000E+00 -0.00000000000E+00 -0.15761740425E+03  0.15761740425E+03  0.00000000000E+00 0. -1.
         21    1    1    2  503  502 -0.83949709542E+02 -0.36534152078E+01 -0.61985923473E+02  0.10441817794E+03  0.00000000000E+00 0. -1.
         21    1    1    2  504  501  0.15872422017E+03  0.11102976625E+02  0.96830512128E+02  0.18626003930E+03  0.00000000000E+00 0.  1.
         21    1    1    2  505  503 -0.94834718126E+02  0.26918595665E+02  0.34607741870E+03  0.35984415278E+03  0.00000000000E+00 0.  1.
         21    1    1    2  506  504  0.20060207493E+02 -0.34368157082E+02 -0.54664901923E+01  0.40167955648E+02  0.00000000000E+00 0.  1.
<scales pt_clust_3="75.76489" pt_clust_4="105.64137" pt_clust_5="14000.00000" pt_clust_6="39.79425"></scales>
<clustering>
<clus scale="   39.794">  2  6  1 -1</clus>
<clus scale="   75.765">  2  3  1 -1</clus>
<clus scale="  105.641">  2  4  1 -1</clus>
<clus scale="  105.641">  1  3  2 -1</clus>
</clustering>
</event>
<event>
 6    0  0.6132510E+002  0.6757064E+02  0.7546771E-02  0.1368555E+00
         21   -1    0    0  503  501  0.00000000000E+00  0.00000000000E+00  0.32551458536E+03  0.32551458536E+03  0.00000000000E+00 0.  1.
         21   -1    0    0  506  502 -0.00000000000E+00 -0.00000000000E+00 -0.28624704144E+03  0.28624704144E+03  0.00000000000E+00 0.  1.
         21    1    1    2  503  505  0.35197678040E+02  0.55849895848E+02  0.15000850858E+03  0.16389215982E+03  0.00000000000E+00 0.  1.
         21    1    1    2  504  502 -0.16104537893E+02 -0.43674774273E+02 -0.76501374028E+02  0.89550557099E+02  0.00000000000E+00 0.  1.
         21    1    1    2  505  504 -0.91866544855E+02 -0.18187465596E+02  0.14054848195E+03  0.16889085750E+03  0.00000000000E+00 0.  1.
         21    1    1    2  506  501  0.72773404708E+02  0.60123440211E+01 -0.17478807258E+03  0.18942805238E+03  0.00000000000E+00 0.  1.
<scales pt_clust_3="64.46120" pt_clust_4="46.54935" pt_clust_5="14000.00000" pt_clust_6="67.57064"></scales>
<clustering>
<clus scale="   46.549">  2  4  1 -1</clus>
<clus scale="   64.461">  1  3  2 -1</clus>
<clus scale="   67.571">  2  6  1 -1</clus>
<clus scale="   64.461">  1  3  2 -1</clus>
</clustering>
</event>
<event>
 6    0  0.6132510E+002  0.1923745E+03  0.7546771E-02  0.1156337E+00
         21   -1    0    0  506  501  0.00000000000E+00  0.00000000000E+00  0.33947797080E+03  0.33947797080E+03  0.00000000000E+00 0.  1.
         21   -1    0    0  504  502 -0.00000000000E+00 -0.00000000000E+00 -0.20695602787E+03  0.20695602787E+03  0.00000000000E+00 0.  1.
         21    1    1    2  503  501  0.36308384980E+02 -0.36845136468E+02  0.10107533555E+03  0.11354332370E+03  0.00000000000E+00 0.  1.
         21    1    1    2  504  505 -0.19106055147E+03  0.77396620854E+02 -0.69859794577E+02  0.21765744220E+03  0.00000000000E+00 0.  1.
         21    1    1    2  505  503  0.11928221057E+03 -0.48802216617E+02  0.11839473796E+03  0.17500633155E+03  0.00000000000E+00 0.  1.
         21    1    1    2  506  502  0.35469955914E+02  0.82507322301E+01 -0.17088336003E+02  0.40226901225E+02  0.00000000000E+00 0.  1.
<scales pt_clust_3="37.31043" pt_clust_4="182.91549" pt_clust_5="37.31043" pt_clust_6="36.41692"></scales>
<clustering>
<clus scale="   36.417">  2  6  1 -1</clus>
<clus scale="   37.310">  3  5 -1 -1</clus>
<clus scale="  182.915">  2  4  1 -1</clus>
<clus scale="  192.375">  1  3  2 -1</clus>
</clustering>
</event>
<event>
 6    0  0.6132510E+002  0.8061201E+02  0.7546771E-02  0.1327324E+00
         21   -1    0    0  505  501  0.00000000000E+00  0.00000000000E+00  0.58820373143E+03  0.58820373143E+03  0.00000000000E+00 0. -1.
         21   -1    0    0  506  502 -0.00000000000E+00 -0.00000000000E+00 -0.89763332628E+03  0.89763332628E+03  0.00000000000E+00 0.  1.
         21    1    1    2  503  501 -0.18781377385E+02  0.38188259250E+02  0.12129426911E+03  0.12854331177E+03  0.00000000000E+00 0.  1.
         21    1    1    2  504  502 -0.79780296976E+02  0.98396181254E+01 -0.10335809847E+03  0.13093742929E+03  0.00000000000E+00 0. -1.
         21    1    1    2  505  504  0.76312945534E+02  0.21855486060E+02  0.44423821766E+03  0.45127477434E+03  0.00000000000E+00 0. -1.
         21    1    1    2  506  503  0.22248728827E+02 -0.69883363436E+02 -0.77160398315E+03  0.77508154231E+03  0.00000000000E+00 0.  1.
<scales pt_clust_3="42.55682" pt_clust_4="14000.00000" pt_clust_5="80.61201" pt_clust_6="73.18160"></scales>
<clustering>
<clus scale="   42.557">  1  3  2 -1</clus>
<clus scale="   73.182">  2  6  1 -1</clus>
<clus scale="   80.612">  1  5  2 -1</clus>
<clus scale="   42.557">  1  3  2 -1</clus>
</clustering>
</event>
<event>
 6    0  0.6132510E+002  0.1336746E+03  0.7546771E-02  0.1222103E+00
         21   -1    0    0  502  501  0.00000000000E+00  0.00000000000E+00  0.12865818340E+03  0.12865818340E+03  0.00000000000E+00 0.  1.
         21   -1    0    0  505  502 -0.00000000000E+00 -0.00000000000E+00 -0.29284264145E+03  0.29284264145E+03  0.00000000000E+00 0.  1.
         21    1    1    2  503  504 -0.23837498098E+02 -0.63100843679E+02  0.11794592662E+02  0.68476676355E+02  0.00000000000E+00 0. -1.
         21    1    1    2  504  501  0.23016017343E+02 -0.27061689766E+02 -0.10822629641E+02  0.37137601157E+02  0.00000000000E+00 0.  1.
         21    1    1    2  505  506  0.41326452164E+02  0.11831391242E+03 -0.21302238660E+03  0.24715297837E+03  0.00000000000E+00 0.  1.
         21    1    1    2  506  503 -0.40504971409E+02 -0.28151378974E+02  0.47865965531E+02  0.68733568969E+02  0.00000000000E+00 0.  1.
<scales pt_clust_3="43.79024" pt_clust_4="35.52565" pt_clust_5="122.75403" pt_clust_6="43.79024"></scales>
<clustering>
<clus scale="   35.526">  1  4  2 -1</clus>
<clus scale="   43.790">  3  6 -1 -1</clus>
<clus scale="  122.754">  2  5  1 -1</clus>
<clus scale="   35.526">  1  3  2 -1</clus>
</clustering>
</event>
<event>
 6    0  0.6132510E+002  0.8352128E+02  0.7546771E-02  0.1319345E+00
         21   -1    0    0  504  501  0.00000000000E+00  0.00000000000E+00  0.50314782028E+02  0.50314782028E+02  0.00000000000E+00 0.  1.
         21   -1    0    0  503  502 -0.00000000000E+00 -0.00000000000E+00 -0.51301673915E+03  0.51301673915E+03  0.00000000000E+00 0.  1.
         21    1    1    2  503  506  0.55480622285E+02  0.83636461979E+02 -0.20262464636E+03  0.22611922637E+03  0.00000000000E+00 0.  1.
         21    1    1    2  504  505 -0.25187141725E+01 -0.57587038360E+02 -0.27289435097E+02  0.63775576643E+02  0.00000000000E+00 0. -1.
         21    1    1    2  505  502  0.23136591340E+02 -0.21145513059E+02 -0.17492879237E+03  0.17771470671E+03  0.00000000000E+00 0.  1.
         21    1    1    2  506  501 -0.76098499452E+02 -0.49039105598E+01 -0.57859083301E+02  0.95722011461E+02  0.00000000000E+00 0.  1.
<scales pt_clust_3="83.52128" pt_clust_4="60.44970" pt_clust_5="31.34381" pt_clust_6="14000.00000"></scales>
<clustering>
<clus scale="   31.344">  2  5  1 -1</clus>
<clus scale="   60.450">  1  4  2 -1</clus>
<clus scale="   83.521">  2  3  1 -1</clus>
<clus scale="   60.450">  1  3  2 -1</clus>
</clustering>
</event>
<event>
 6    0  0.6132510E+002  0.6072636E+02  0.7546771E-02  0.1394809E+00
         21   -1    0    0  504  501  0.00000000000E+00  0.00000000000E+00  0.11858235374E+04  0.11858235374E+04  0.00000000000E+00 0.  1.
         21   -1    0    0  505  502 -0.00000000000E+00 -0.00000000000E+00 -0.53271696646E+03  0.53271696646E+03  0.00000000000E+00 0. -1.
         21    1    1    2  503  506 -0.76368390191E+02 -0.34094254719E+02  0.63913281448E+03  0.64458149505E+03  0.00000000000E+00 0.  1.
         21    1    1    2  504  503  0.16234969484E+02  0.36334211893E+02  0.53341104103E+03  0.53489352948E+03  0.00000000000E+00 0.  1.
         21    1    1    2  505  501  0.96515922690E+02  0.16412284488E+02 -0.29179440821E+03  0.30778021879E+03  0.00000000000E+00 0. -1.
         21    1    1    2  506  502 -0.36382501983E+02 -0.18652241662E+02 -0.22764287637E+03  0.23128526052E+03  0.00000000000E+00 0. -1.
<scales pt_clust_3="60.72636" pt_clust_4="39.79635" pt_clust_5="14000.00000" pt_clust_6="40.79848"></scales>
<clustering>
<clus scale="   39.796">  1  4  2 -1</clus>
<clus scale="   40.798">  2  6  1 -1</clus>
<clus scale="   60.726">  1  3  2 -1</clus>
<clus scale="   39.796">  1  3  2 -1</clus>
</clustering>
</event>
<event>
 6    0  0.6132510E+002  0.6681649E+02  0.7546771E-02  0.1371266E+00
         21   -1    0    0  505  501  0.00000000000E+00  0.00000000000E+00  0.11705921449E+03  0.11705921449E+03  0.00000000000E+00 0.  1.
         21   -1    0    0  504  502 -0.00000000000E+00 -0.00000000000E+00 -0.54490469217E+03  0.54490469217E+03  0.00000000000E+00 0. -1.
         21    1    1    2  503  501  0.92812514594E+01 -0.41092056659E+02 -0.89651880331E+01  0.43070562401E+02  0.00000000000E+00 0. -1.
         21    1    1    2  504  503  0.59069108726E+02 -0.68758677063E+02 -0.24803293604E+03  0.26407811844E+03  0.00000000000E+00 0. -1.
         21    1    1    2  505  506 -0.19232272960E+02  0.10021943352E+03  0.60150755514E+02  0.11845644164E+03  0.00000000000E+00 0.  1.
         21    1    1    2  506  502 -0.49118087225E+02  0.96313002026E+01 -0.23099810912E+03  0.23635878417E+03  0.00000000000E+00 0.  1.
<scales pt_clust_3="42.12717" pt_clust_4="66.81649" pt_clust_5="14000.00000" pt_clust_6="49.60819"></scales>
<clustering>
<clus scale="   42.127">  1  3  2 -1</clus>
<clus scale="   49.608">  2  6  1 -1</clus>
<clus scale="   66.816">  2  4  1 -1</clus>
<clus scale="   42.127">  1  3  2 -1</clus>
</clustering>
</event>
<event>
 6    0  0.6132510E+002  0.1461746E+03  0.7546771E-02  0.1205254E+00
         21   -1    0    0  503  501  0.00000000000E+00  0.00000000000E+00  0.47589825209E+03  0.47589825209E+03  0.00000000000E+00 0.  1.
         21   -1    0    0  504  502 -0.00000000000E+00 -0.00000000000E+00 -0.32813298220E+03  0.32813298220E+03  0.00000000000E+00 0.  1.
         21    1    1    2  503  505  0.27163937021E+02 -0.47475622513E+02  0.14532542541E+03  0.15527811654E+03  0.00000000000E+00 0.  1.
         21    1    1    2  504  506 -0.10684440581E+03  0.90920232883E+02 -0.29211031415E+03  0.32405347002E+03  0.00000000000E+00 0.  1.
         21    1    1    2  505  502  0.46282656796E+02 -0.60560868655E+02  0.95726967948E+02  0.12236566318E+03  0.00000000000E+00 0.  1.
         21    1    1    2  506  501  0.33397811991E+02  0.17116258285E+02  0.19882319069E+03  0.20233398454E+03  0.00000000000E+00 0. -1.
<scales pt_clust_3="37.05633" pt_clust_4="139.47581" pt_clust_5="37.05633" pt_clust_6="37.52839"></scales>
<clustering>
<clus scale="   37.056">  3  5 -1 -1</clus>
<clus scale="   37.528">  1  6  2 -1</clus>
<clus scale="  139.476">  2  4  1 -1</clus>
<clus scale="   37.528">  1  3  2 -1</clus>
</clustering>
</event>
<event>
 6    0  0.6132510E+002  0.1692146E+03  0.7546771E-02  0.1178669E+00
         21   -1    0    0  504  501  0.00000000000E+00  0.00000000000E+00  0.68315324487E+03  0.68315324487E+03  0.00000000000E+00 0.  1.
         21   -1    0    0  505  502 -0.00000000000E+00 -0.00000000000E+00 -0.10161478960E+03  0.10161478960E+03  0.00000000000E+00 0. -1.
         21    1    1    2  503  502  0.10787509489E+02 -0.66539100819E+02  0.41181869921E+01  0.67533560271E+02  0.00000000000E+00 0. -1.
         21    1    1    2  504  503  0.13496811494E+03  0.10056663964E+03  0.69188021666E+02  0.18198083251E+03  0.00000000000E+00 0. -1.
         21    1    1    2  505  506 -0.60595138524E+02  0.10148890085E+02  0.29652879304E+03  0.30282684142E+03  0.00000000000E+00 0.  1.
         21    1    1    2  506  501 -0.85160485902E+02 -0.44176428906E+02  0.21170345357E+03  0.23242680027E+03  0.00000000000E+00 0.  1.
<scales pt_clust_3="67.40788" pt_clust_4="151.12812" pt_clust_5="60.91362" pt_clust_6="60.91362"></scales>
<clustering>
<clus scale="   60.914">  5  6 -1 -1</clus>
<clus scale="   67.408">  2  3  1 -1</clus>
<clus scale="  151.128">  2  4  1 -1</clus>
<clus scale="  169.215">  1  3  2 -1</clus>
</clustering>
</event>
<event>
 6    0  0.6132510E+002  0.1263062E+03  0.7546771E-02  0.1233042E+00
         21   -1    0    0  504  501  0.00000000000E+00  0.00000000000E+00  0.87730688358E+02  0.87730688358E+02  0.00000000000E+00 0. -1.
         21   -1    0    0  505  502 -0.00000000000E+00 -0.00000000000E+00 -0.41384738672E+03  0.41384738672E+03  0.00000000000E+00 0. -1.
         21    1    1    2  503  506 -0.87321114821E+02 -0.80635446691E+02 -0.24813127741E+03  0.27512939353E+03  0.00000000000E+00 0. -1.
         21    1    1    2  504  503  0.34027205112E+02 -0.15926532797E+02 -0.28908508579E+01  0.37681058283E+02  0.00000000000E+00 0. -1.
         21    1    1    2  505  501  0.82768864604E+02  0.85310618293E+02 -0.13583356524E+02  0.11963734415E+03  0.00000000000E+00 0. -1.
         21    1    1    2  506  502 -0.29474954895E+02  0.11251361195E+02 -0.61511213572E+02  0.69130279110E+02  0.00000000000E+00 0. -1.
<scales pt_clust_3="14000.00000" pt_clust_4="35.73883" pt_clust_5="126.30619" pt_clust_6="31.54942"></scales>
<clustering>
<clus scale="   31.549">  2  6  1 -1</clus>
<clus scale="   35.739">  1  4  2 -1</clus>
<clus scale="  126.306">  1  5  2 -1</clus>
<clus scale="   35.739">  1  3  2 -1</clus>
</clustering>
</event>
<event>
 6    0  0.6132510E+002  0.1277049E+03  0.7546771E-02  0.1230902E+00
         21   -1    0    0  503  501  0.00000000000E+00  0.00000000000E+00  0.82900770233E+02  0.82900770233E+02  0.00000000000E+00 0. -1.
         21   -1    0    0  506  502 -0.00000000000E+00 -0.00000000000E+00 -0.10318528235E+04  0.10318528235E+04  0.00000000000E+00 0. -1.
         21    1    1    2  503  502  0.52261018409E+02  0.39045109582E+02 -0.50904353310E+03  0.51320663794E+03  0.00000000000E+00 0.  1.
         21    1    1    2  504  505 -0.37104496045E+02  0.27493809963E+02  0.19050650084E+02  0.49955785267E+02  0.00000000000E+00 0. -1.
         21    1    1    2  505  501 -0.81648248973E+02 -0.20063841190E+02  0.14498205708E+01  0.84089810699E+02  0.00000000000E+00 0. -1.
         21    1    1    2  506  504  0.66491726610E+02 -0.46475078355E+02 -0.46040899078E+03  0.46750135980E+03  0.00000000000E+00 0. -1.
<scales pt_clust_3="65.23599" pt_clust_4="43.15436" pt_clust_5="43.15436" pt_clust_6="113.65742"></scales>
<clustering>
<clus scale="   43.154">  4  5 -1 -1</clus>
<clus scale="   65.236">  2  3  1 -1</clus>
<clus scale="  113.657">  2  6  1 -1</clus>
<clus scale="  127.705">  1  3  2 -1</clus>
</clustering>
</event>
<event>
 6    0  0.6132510E+002  0.2663727E+03  0.7546771E-02  0.1103374E+00
         21   -1    0    0  506  501  0.00000000000E+00  0.00000000000E+00  0.69476385867E+03  0.69476385867E+03  0.00000000000E+00 0. -1.
         21   -1    0    0  503  502 -0.00000000000E+00 -0.00000000000E+00 -0.82666187108E+03  0.82666187108E+03  0.00000000000E+00 0. -1.
         21    1    1    2  503  505  0.13518968906E+03 -0.22896082958E+03 -0.56283987766E+03  0.62248537444E+03  0.00000000000E+00 0. -1.
         21    1    1    2  504  502 -0.19175673784E+03  0.19512022118E+03 -0.14609118877E+03  0.31013736095E+03  0.00000000000E+00 0. -1.
         21    1    1    2  505  501  0.16956437556E+02  0.63535248315E+02  0.27594024119E+03  0.28366752592E+03  0.00000000000E+00 0. -1.
         21    1    1    2  506  504  0.39610611232E+02 -0.29694639908E+02  0.30109281283E+03  0.30513546844E+03  0.00000000000E+00 0.  1.
<scales pt_clust_3="14000.00000" pt_clust_4="266.37273" pt_clust_5="61.96026" pt_clust_6="49.50527"></scales>
<clustering>
<clus scale="   49.505">  1  6  2 -1</clus>
<clus scale="   61.960">  1  5  2 -1</clus>
<clus scale="  266.373">  1  4  2 -1</clus>
<clus scale="   49.505">  1  3  2 -1</clus>
</clustering>
</event>
<event>
 6    0  0.6132510E+002  0.8029043E+02  0.7546771E-02  0.1328229E+00
         21   -1    0    0  503  501  0.00000000000E+00  0.00000000000E+00  0.86212377242E+03  0.86212377242E+03  0.00000000000E+00 0.  1.
         21   -1    0    0  504  502 -0.00000000000E+00 -0.00000000000E+00 -0.62075910254E+02  0.62075910254E+02  0.00000000000E+00 0.  1.
         21    1    1    2  503  506 -0.23692966624E+02 -0.43151159911E+02  0.45765749972E+03  0.46029747590E+03  0.00000000000E+00 0.  1.
         21    1    1    2  504  505 -0.45048105008E+02 -0.31743148026E+02 -0.21467238508E+02  0.59142214538E+02  0.00000000000E+00 0.  1.
         21    1    1    2  505  501  0.95259704068E+01 -0.37513250777E+02  0.15949136287E+03  0.16412033063E+03  0.00000000000E+00 0. -1.
         21    1    1    2  506  502  0.59215101225E+02  0.11240755871E+03  0.20436623808E+03  0.24063966160E+03  0.00000000000E+00 0.  1.
<scales pt_clust_3="14000.00000" pt_clust_4="55.48890" pt_clust_5="38.70385" pt_clust_6="80.29043"></scales>
<clustering>
<clus scale="   38.704">  1  5  2 -1</clus>
<clus scale="   55.489">  2  4  1 -1</clus>
<clus scale="   80.290">  2  6  1 -1</clus>
<clus scale="   38.704">  1  3  2 -1</clus>
</clustering>
</event>
<event>
 6    0  0.6132510E+002  0.2790901E+03  0.7546771E-02  0.1096187E+00
         21   -1    0    0  504  501  0.00000000000E+00  0.00000000000E+00  0.90201382717E+03  0.90201382717E+03  0.00000000000E+00 0.  1.
         21   -1    0    0  503  502 -0.00000000000E+00 -0.00000000000E+00 -0.21592986880E+03  0.21592986880E+03  0.00000000000E+00 0.  1.
         21    1    1    2  503  501 -0.23479769982E+03  0.10265691257E+03  0.41612142630E+03  0.48869770100E+03  0.00000000000E+00 0.  1.
         21    1    1    2  504  505  0.91684730032E+02 -0.35069501847E+02  0.17963165557E+03  0.20470342294E+03  0.00000000000E+00 0. -1.
         21    1    1    2  505  506  0.19576633435E+03 -0.32088794606E+01  0.20461496102E+03  0.28319964132E+03  0.00000000000E+00 0.  1.
         21    1    1    2  506  502 -0.52653364555E+02 -0.64378531257E+02 -0.11428408452E+03  0.14134293070E+03  0.00000000000E+00 0.  1.
<scales pt_clust_3="267.54573" pt_clust_4="56.24844" pt_clust_5="56.24844" pt_clust_6="83.16834"></scales>
<clustering>
<clus scale="   56.248">  4  5 -1 -1</clus>
<clus scale="   83.168">  2  6  1 -1</clus>
<clus scale="  267.546">  1  3  2 -1</clus>
<clus scale="  267.546">  1  3  2 -1</clus>
</clustering>
</event>
<event>
 6    0  0.6132510E+002  0.1415768E+03  0.7546771E-02  0.1211223E+00
         21   -1    0    0  504  501  0.00000000000E+00  0.00000000000E+00  0.58514418550E+02  0.58514418550E+02  0.00000000000E+00 0. -1.
         21   -1    0    0  505  502 -0.00000000000E+00 -0.00000000000E+00 -0.98790438792E+03  0.98790438792E+03  0.00000000000E+00 0.  1.
         21    1    1    2  503  501 -0.73517501964E+02 -0.38205775268E+02 -0.17300603896E+03  0.19182177633E+03  0.00000000000E+00 0. -1.
         21    1    1    2  504  502  0.12904706594E+03  0.28734027759E-01 -0.70979503809E+02  0.14727944872E+03  0.00000000000E+00 0. -1.
         21    1    1    2  505  506  0.10795016535E+02  0.29952456251E+02 -0.58985961424E+03  0.59071824631E+03  0.00000000000E+00 0.  1.
         21    1    1    2  506  503 -0.66324580511E+02  0.82245849897E+01 -0.95544812368E+02  0.11659933511E+03  0.00000000000E+00 0. -1.
<scales pt_clust_3="47.88722" pt_clust_4="132.26737" pt_clust_5="31.83837" pt_clust_6="47.88722"></scales>
<clustering>
<clus scale="   31.838">  2  5  1 -1</clus>
<clus scale="   47.887">  3  6 -1 -1</clus>
<clus scale="  132.267">  1  4  2 -1</clus>
<clus scale="  132.267">  1  3  2 -1</clus>
</clustering>
</event>
<event>
 6    0  0.6132510E+002  0.2526466E+03  0.7546771E-02  0.1111644E+00
         21   -1    0    0  505  501  0.00000000000E+00  0.00000000000E+00  0.19228450780E+03  0.19228450780E+03  0.00000000000E+00 0. -1.
         21   -1    0    0  504  502 -0.00000000000E+00 -0.00000000000E+00 -0.62330671051E+03  0.62330671051E+03  0.00000000000E+00 0. -1.
         21    1    1    2  503  501  0.49934159992E+02  0.31923624713E+02 -0.11859575853E+02  0.60441605607E+02  0.00000000000E+00 0. -1.
         21    1    1    2  504  503  0.17517407656E+03 -0.61038063476E+01 -0.11241594797E+03  0.20823198340E+03  0.00000000000E+00 0. -1.
         21    1    1    2  505  506 -0.25267295033E+03 -0.43308058384E+00 -0.15369246464E+02  0.25314031904E+03  0.00000000000E+00 0. -1.
         21    1    1    2  506  502  0.27564713778E+02 -0.25386737782E+02 -0.29137743242E+03  0.29377731027E+03  0.00000000000E+00 0. -1.
<scales pt_clust_3="41.51083" pt_clust_4="41.51083" pt_clust_5="241.72210" pt_clust_6="37.47399"></scales>
<clustering>
<clus scale="   37.474">  2  6  1 -1</clus>
<clus scale="   41.511">  3  4 -1 -1</clus>
<clus scale="  241.722">  1  5  2 -1</clus>
<clus scale="  241.722">  1  3  2 -1</clus>
</clustering>
</event>
<event>
 6    0  0.6132510E+002  0.1312614E+03  0.7546771E-02  0.1225596E+00
         21   -1    0    0  505  501  0.00000000000E+00  0.00000000000E+00  0.12700245584E+03  0.12700245584E+03  0.00000000000E+00 0. -1.
         21   -1    0    0  503  502 -0.00000000000E+00 -0.00000000000E+00 -0.10768576159E+04  0.10768576159E+04  0.00000000000E+00 0. -1.
         21    1    1    2  503  506  0.33151476187E+02  0.50194101433E+02 -0.48286728531E+03  0.48659971580E+03  0.00000000000E+00 0. -1.
         21    1    1    2  504  502 -0.43315753797E+02 -0.35348363168E+02 -0.94351832192E+02  0.10967237366E+03  0.00000000000E+00 0. -1.
         21    1    1    2  505  504 -0.91416098200E+02 -0.58449156463E+02  0.84342359460E+02  0.13742940188E+03  0.00000000000E+00 0. -1.
         21    1    1    2  506  501  0.10158037581E+03  0.43603418198E+02 -0.45697840204E+03  0.47015858044E+03  0.00000000000E+00 0.  1.
<scales pt_clust_3="52.81398" pt_clust_4="55.90851" pt_clust_5="110.01669" pt_clust_6="52.81398"></scales>
<clustering>
<clus scale="   52.814">  3  6 -1 -1</clus>
<clus scale="   55.909">  2  4  1 -1</clus>
<clus scale="  110.017">  1  5  2 -1</clus>
<clus scale="  110.017">  1  3  2 -1</clus>
</clustering>
</event>
<event>
 6    0  0.6132510E+002  0.9354145E+02  0.7546771E-02  0.1294495E+00
         21   -1    0    0  503  501  0.00000000000E+00  0.00000000000E+00  0.54857787055E+02  0.54857787055E+02  0.00000000000E+00 0.  1.
         21   -1    0    0  505  502 -0.00000000000E+00 -0.00000000000E+00 -0.91478900201E+03  0.91478900201E+03  0.00000000000E+00 0. -1.
         21    1    1    2  503  504  0.29906335692E+02 -0.13924679751E+02 -0.48982772334E+02  0.59055885449E+02  0.00000000000E+00 0. -1.
         21    1    1    2  504  502 -0.66405256255E+02 -0.40341040314E+02 -0.25608999015E+03  0.26761752680E+03  0.00000000000E+00 0. -1.
         21    1    1    2  505  506  0.59428111355E+01 -0.43878574700E+02 -0.53678188194E+03  0.53860508269E+03  0.00000000000E+00 0. -1.
         21    1    1    2  506  501  0.30556109428E+02  0.98144294765E+02 -0.18076570535E+02  0.10436829413E+03  0.00000000000E+00 0.  1.
<scales pt_clust_3="32.98917" pt_clust_4="14000.00000" pt_clust_5="44.60800" pt_clust_6="93.54145"></scales>
<clustering>
<clus scale="   32.989">  1  3  2 -1</clus>
<clus scale="   44.608">  2  5  1 -1</clus>
<clus scale="   93.541">  1  6  2 -1</clus>
<clus scale="   32.989">  1  3  2 -1</clus>
</clustering>
</event>
<event>
 6    0  0.6132510E+002  0.1511577E+03  0.7546771E-02  0.1199058E+00
         21   -1    0    0  504  501  0.00000000000E+00  0.00000000000E+00  0.63088801590E+03  0.63088801590E+03  0.00000000000E+00 0. -1.
         21   -1    0    0  506  502 -0.00000000000E+00 -0.00000000000E+00 -0.93011421359E+02  0.93011421359E+02  0.00000000000E+00 0. -1.
         21    1    1    2  503  502  0.14152286328E+03  0.44169789680E+02  0.34474605362E+03  0.37527261109E+03  0.00000000000E+00 0. -1.
         21    1    1    2  504  503  0.11781617476E+02 -0.32935030310E+02  0.10908243939E+03  0.11455348670E+03  0.00000000000E+00 0. -1.
         21    1    1    2  505  501 -0.14535763981E+03 -0.52586004160E+02  0.10517260541E+03  0.18696365479E+03  0.00000000000E+00 0. -1.
         21    1    1    2  506  505 -0.79468409517E+01  0.41351244790E+02 -0.21124503872E+02  0.47109684679E+02  0.00000000000E+00 0. -1.
<scales pt_clust_3="151.15771" pt_clust_4="34.97889" pt_clust_5="14000.00000" pt_clust_6="41.24293"></scales>
<clustering>
<clus scale="   34.979">  1  4  2 -1</clus>
<clus scale="   41.243">  2  6  1 -1</clus>
<clus scale="  151.158">  1  3  2 -1</clus>
<clus scale="   34.979">  1  3  2 -1</clus>
</clustering>
</event>
<event>
 6    0  0.6132510E+002  0.9480882E+02  0.7546771E-02  0.1291607E+00
         21   -1    0    0  503  501  0.00000000000E+00  0.00000000000E+00  0.15947625363E+03  0.15947625363E+03  0.00000000000E+00 0.  1.
         21   -1    0    0  506  502 -0.00000000000E+00 -0.00000000000E+00 -0.35550187416E+03  0.35550187416E+03  0.00000000000E+00 0.  1.
         21    1    1    2  503  505  0.52428105412E+02  0.68507279269E+01 -0.70616886670E+01  0.53343285961E+02  0.00000000000E+00 0. -1.
         21    1    1    2  504  502 -0.97674921457E+02 -0.27528206737E+02 -0.27673363863E+03  0.29475362457E+03  0.00000000000E+00 0.  1.
         21    1    1    2  505  504 -0.26041951999E+00  0.68071693660E+02  0.16696134745E+02  0.70089829586E+02  0.00000000000E+00 0.  1.
         21    1    1    2  506  501  0.45507235565E+02 -0.47394214850E+02  0.71073572019E+02  0.96791387683E+02  0.00000000000E+00 0.  1.
<scales pt_clust_3="52.87380" pt_clust_4="94.80882" pt_clust_5="72.14702" pt_clust_6="14000.00000"></scales>
<clustering>
<clus scale="   52.874">  1  3  2 -1</clus>
<clus scale="   72.147">  1  5  2 -1</clus>
<clus scale="   94.809">  2  4  1 -1</clus>
<clus scale="   52.874">  1  3  2 -1</clus>
</clustering>
</event>
<event>
 6    0  0.6132510E+002  0.2030390E+03  0.7546771E-02  0.1147200E+00
         21   -1    0    0  506  501  0.00000000000E+00  0.00000000000E+00  0.48848736783E+02  0.48848736783E+02  0.00000000000E+00 0. -1.
         21   -1    0    0  503  502 -0.00000000000E+00 -0.00000000000E+00 -0.15414128900E+04  0.15414128900E+04  0.00000000000E+00 0. -1.
         21    1    1    2  503  505  0.23139828632E+03 -0.22290262924E+02 -0.47797904839E+03  0.53151292876E+03  0.00000000000E+00 0. -1.
         21    1    1    2  504  501 -0.69556834961E+02 -0.10142157326E+02 -0.13498748124E+03  0.15219276177E+03  0.00000000000E+00 0. -1.
         21    1    1    2  505  504 -0.84210020618E+02  0.61700155463E+02 -0.24164262767E+03  0.26322879072E+03  0.00000000000E+00 0. -1.
         21    1    1    2  506  502 -0.77631430744E+02 -0.29267735213E+02 -0.63795499588E+03  0.64332714549E+03  0.00000000000E+00 0. -1.
<scales pt_clust_3="191.83970" pt_clust_4="54.56847" pt_clust_5="54.56847" pt_clust_6="82.96529"></scales>
<clustering>
<clus scale="   54.568">  4  5 -1 -1</clus>
<clus scale="   82.965">  2  6  1 -1</clus>
<clus scale="  191.840">  2  3  1 -1</clus>
<clus scale="  203.039">  1  3  2 -1</clus>
</clustering>
</event>
<event>
 6    0  0.6132510E+002  0.7189930E+02  0.7546771E-02  0.1353751E+00
         21   -1    0    0  504  501  0.00000000000E+00  0.00000000000E+00  0.77197619219E+03  0.77197619219E+03  0.00000000000E+00 0. -1.
         21   -1    0    0  505  502 -0.00000000000E+00 -0.00000000000E+00 -0.12676460825E+03  0.12676460825E+03  0.00000000000E+00 0. -1.
         21    1    1    2  503  506  0.63198967155E+02  0.12312995385E+02  0.51503414397E+03  0.51904324363E+03  0.00000000000E+00 0. -1.
         21    1    1    2  504  502  0.46567924322E+02 -0.20470928032E+02 -0.82299080217E+02  0.96751067563E+02  0.00000000000E+00 0. -1.
         21    1    1    2  505  503 -0.10609535157E+03  0.50519263678E+02  0.75865814265E+02  0.13987151748E+03  0.00000000000E+00 0. -1.
         21    1    1    2  506  501 -0.36715399049E+01 -0.42361331032E+02  0.13661070592E+03  0.14307497176E+03  0.00000000000E+00 0. -1.
<scales pt_clust_3="71.89930" pt_clust_4="51.02728" pt_clust_5="14000.00000" pt_clust_6="42.52014"></scales>
<clustering>
<clus scale="   42.520">  1  6  2 -1</clus>
<clus scale="   51.027">  2  4  1 -1</clus>
<clus scale="   71.899">  1  3  2 -1</clus>
<clus scale="   42.520">  1  3  2 -1</clus>
</clustering>
</event>
<event>
 6    0  0.6132510E+002  0.1331930E+03  0.7546771E-02  0.1222793E+00
         21   -1    0    0  505  501  0.00000000000E+00  0.00000000000E+00  0.26598145369E+04  0.26598145369E+04  0.00000000000E+00 0.  1.
         21   -1    0    0  506  502 -0.00000000000E+00 -0.00000000000E+00 -0.46026967421E+02  0.46026967421E+02  0.00000000000E+00 0. -1.
         21    1    1    2  503  504  0.33292153752E+02 -0.71336221391E+02  0.11694845768E+04  0.11721311357E+04  0.00000000000E+00 0.  1.
         21    1    1    2  504  502  0.45123281060E+02 -0.68636937538E+02  0.31320260818E+03  0.32379470882E+03  0.00000000000E+00 0.  1.
         21    1    1    2  505  503  0.27669296279E+02  0.20651810130E+02  0.10072721602E+04  0.10078637269E+04  0.00000000000E+00 0.  1.
         21    1    1    2  506  501 -0.10608473109E+03  0.11932134880E+03  0.12382822426E+03  0.20205193286E+03  0.00000000000E+00 0. -1.
<scales pt_clust_3="77.54630" pt_clust_4="14000.00000" pt_clust_5="34.52662" pt_clust_6="133.19295"></scales>
<clustering>
<clus scale="   34.527">  1  5  2 -1</clus>
<clus scale="   77.546">  1  3  2 -1</clus>
<clus scale="  133.193">  2  6  1 -1</clus>
<clus scale="   34.527">  1  3  2 -1</clus>
</clustering>
</event>
<event>
 6    0  0.6132510E+002  0.1441080E+03  0.7546771E-02  0.1207906E+00
         21   -1    0    0  503  501  0.00000000000E+00  0.00000000000E+00  0.79060149687E+02  0.79060149687E+02  0.00000000000E+00 0. -1.
         21   -1    0    0  504  502 -0.00000000000E+00 -0.00000000000E+00 -0.11015784442E+04  0.11015784442E+04  0.00000000000E+00 0. -1.
         21    1    1    2  503  505  0.59458781103E+02 -0.60007257868E+02 -0.15157992160E+02  0.85825301476E+02  0.00000000000E+00 0. -1.
         21    1    1    2  504  506  0.12588449615E+03  0.96837068810E+02 -0.50056535295E+03  0.52515711634E+03  0.00000000000E+00 0. -1.
         21    1    1    2  505  502 -0.11247681689E+03  0.66457597924E+02 -0.30119004140E+03  0.32830334707E+03  0.00000000000E+00 0. -1.
         21    1    1    2  506  501 -0.72866460356E+02 -0.10328740887E+03 -0.20560490804E+03  0.24135282904E+03  0.00000000000E+00 0.  1.
<scales pt_clust_3="84.47614" pt_clust_4="14000.00000" pt_clust_5="105.51760" pt_clust_6="144.10796"></scales>
<clustering>
<clus scale="   84.476">  1  3  2 -1</clus>
<clus scale="  105.518">  1  5  2 -1</clus>
<clus scale="  144.108">  1  6  2 -1</clus>
<clus scale="   84.476">  1  3  2 -1</clus>
</clustering>
</event>
<event>
 6    0  0.6132510E+002  0.9393737E+02  0.7546771E-02  0.1293587E+00
         21   -1    0    0  504  501  0.00000000000E+00  0.00000000000E+00  0.26935865155E+03  0.26935865155E+03  0.00000000000E+00 0. -1.
         21   -1    0    0  503  502 -0.00000000000E+00 -0.00000000000E+00 -0.61780109059E+03  0.61780109059E+03  0.00000000000E+00 0.  1.
         21    1    1    2  503  506  0.86787134830E+02  0.11813020760E+02 -0.30507713042E+03  0.31740133858E+03  0.00000000000E+00 0.  1.
         21    1    1    2  504  505 -0.12545972860E+03 -0.33206185107E+02  0.22219733177E+03  0.25732168287E+03  0.00000000000E+00 0. -1.
         21    1    1    2  505  502 -0.36678452903E+01  0.32102983785E+02 -0.26679584189E+03  0.26874537374E+03  0.00000000000E+00 0.  1.
         21    1    1    2  506  501  0.42340439059E+02 -0.10709819438E+02  0.12332015060E+01  0.43691346947E+02  0.00000000000E+00 0. -1.
<scales pt_clust_3="14000.00000" pt_clust_4="93.93737" pt_clust_5="32.31183" pt_clust_6="43.01990"></scales>
<clustering>
<clus scale="   32.312">  2  5  1 -1</clus>
<clus scale="   43.020">  1  6  2 -1</clus>
<clus scale="   93.937">  1  4  2 -1</clus>
<clus scale="   43.020">  1  3  2 -1</clus>
</clustering>
</event>
<event>
 6    0  0.6132510E+002  0.1370876E+03  0.7546771E-02  0.1217302E+00
         21   -1    0    0  505  501  0.00000000000E+00  0.00000000000E+00  0.12823650530E+03  0.12823650530E+03  0.00000000000E+00 0. -1.
         21   -1    0    0  506  502 -0.00000000000E+00 -0.00000000000E+00 -0.40156912358E+03  0.40156912358E+03  0.00000000000E+00 0. -1.
         21    1    1    2  503  504  0.24014604079E+02 -0.58642640447E+02  0.49172510440E+02  0.80209701849E+02  0.00000000000E+00 0. -1.
         21    1    1    2  504  502  0.16849898442E+02  0.64018284481E+02 -0.66077647948E+02  0.93533498725E+02  0.00000000000E+00 0. -1.
         21    1    1    2  505  503  0.10179973442E+02 -0.75242745507E+02  0.93992009630E+01  0.76507826982E+02  0.00000000000E+00 0. -1.
         21    1    1    2  506  501 -0.51044475963E+02  0.69867101474E+02 -0.26582668174E+03  0.27955460132E+03  0.00000000000E+00 0. -1.
<scales pt_clust_3="41.21337" pt_clust_4="66.19864" pt_clust_5="41.21337" pt_clust_6="129.45209"></scales>
<clustering>
<clus scale="   41.213">  3  5 -1 -1</clus>
<clus scale="   66.199">  2  4  1 -1</clus>
<clus scale="  129.452">  2  6  1 -1</clus>
<clus scale="  137.088">  1  3  2 -1</clus>
</clustering>
</event>
<event>
 6    0  0.6132510E+002  0.1166678E+03  0.7546771E-02  0.1248698E+00
         21   -1    0    0  505  501  0.00000000000E+00  0.00000000000E+00  0.10312994503E+04  0.10312994503E+04  0.00000000000E+00 0. -1.
         21   -1    0    0  503  502 -0.00000000000E+00 -0.00000000000E+00 -0.62553358255E+03  0.62553358255E+03  0.00000000000E+00 0.  1.
         21    1    1    2  503  504 -0.52315446332E+02 -0.57214265112E+02 -0.51218522706E+03  0.51801938659E+03  0.00000000000E+00 0.  1.
         21    1    1    2  504  506  0.10467106777E+03 -0.71422480181E+01  0.77951915085E+02  0.13070403666E+03  0.00000000000E+00 0.  1.
         21    1    1    2  505  502 -0.67281693185E+02  0.23119872627E+02 -0.68377212852E+02  0.98675214647E+02  0.00000000000E+00 0. -1.
         21    1    1    2  506  501  0.14926071752E+02  0.41236640502E+02  0.90837639259E+03  0.90943439497E+03  0.00000000000E+00 0. -1.
<scales pt_clust_3="14000.00000" pt_clust_4="116.66785" pt_clust_5="71.26168" pt_clust_6="43.85485"></scales>
<clustering>
<clus scale="   43.855">  1  6  2 -1</clus>
<clus scale="   71.262">  2  5  1 -1</clus>
<clus scale="  116.668">  1  4  2 -1</clus>
<clus scale="   43.855">  1  3  2 -1</clus>
</clustering>
</event>
<event>
 6    0  0.6132510E+002  0.8132107E+02  0.7546771E-02  0.1325344E+00
         21   -1    0    0  506  501  0.00000000000E+00  0.00000000000E+00  0.74116784813E+03  0.74116784813E+03  0.00000000000E+00 0.  1.
         21   -1    0    0  503  502 -0.00000000000E+00 -0.00000000000E+00 -0.27050213914E+03  0.27050213914E+03  0.00000000000E+00 0.  1.
         21    1    1    2  503  504  0.61130600888E+02  0.21306428561E+02  0.10955634890E+02  0.65657750486E+02  0.00000000000E+00 0.  1.
         21    1    1    2  504  501  0.22974918692E+02  0.46768410300E+02  0.31080293060E+03  0.31514059206E+03  0.00000000000E+00 0.  1.
         21    1    1    2  505  502  0.22726941612E+02 -0.30495700256E+02 -0.23117175337E+03  0.23427949369E+03  0.00000000000E+00 0.  1.
         21    1    1    2  506  505 -0.10683246119E+03 -0.37579138605E+02  0.38007889687E+03  0.39659215104E+03  0.00000000000E+00 0.  1.
<scales pt_clust_3="14000.00000" pt_clust_4="51.14771" pt_clust_5="38.03290" pt_clust_6="81.32107"></scales>
<clustering>
<clus scale="   38.033">  2  5  1 -1</clus>
<clus scale="   51.148">  1  4  2 -1</clus>
<clus scale="   81.321">  1  6  2 -1</clus>
<clus scale="   51.148">  1  3  2 -1</clus>
</clustering>
</event>
<event>
 6    0  0.6132510E+002  0.1374317E+03  0.7546771E-02  0.1216827E+00
         21   -1    0    0  505  501  0.00000000000E+00  0.00000000000E+00  0.15578612017E+03  0.15578612017E+03  0.00000000000E+00 0.  1.
         21   -1    0    0  503  502 -0.00000000000E+00 -0.00000000000E+00 -0.39289229904E+03  0.39289229904E+03  0.00000000000E+00 0. -1.
         21    1    1    2  503  506 -0.30733318227E+02  0.12368608786E+03 -0.28721136055E+03  0.31421831711E+03  0.00000000000E+00 0. -1.
         21    1    1    2  504  501 -0.15867858485E+02 -0.65010730297E+02  0.50571809772E+02  0.83879031529E+02  0.00000000000E+00 0.  1.
         21    1    1    2  505  502  0.30986364817E+02  0.11207131687E+02 -0.52557442052E+02  0.62032566611E+02  0.00000000000E+00 0.  1.
         21    1    1    2  506  504  0.15614811895E+02 -0.69882489254E+02  0.52090813957E+02  0.88548503960E+02  0.00000000000E+00 0.  1.
<scales pt_clust_3="133.76126" pt_clust_4="30.49997" pt_clust_5="32.95079" pt_clust_6="30.49997"></scales>
<clustering>
<clus scale="   30.500">  4  6 -1 -1</clus>
<clus scale="   32.951">  2  5  1 -1</clus>
<clus scale="  133.761">  2  3  1 -1</clus>
<clus scale="  137.432">  1  3  2 -1</clus>
</clustering>
</event>
<event>
 6    0  0.6132510E+002  0.1606664E+03  0.7546771E-02  0.1187946E+00
         21   -1    0    0  505  501  0.00000000000E+00  0.00000000000E+00  0.26684866024E+03  0.26684866024E+03  0.00000000000E+00 0. -1.
         21   -1    0    0  503  502 -0.00000000000E+00 -0.00000000000E+00 -0.94017739825E+03  0.94017739825E+03  0.00000000000E+00 0. -1.
         21    1    1    2  503  506  0.83641512749E+02 -0.17069213351E+02 -0.71376648183E+03  0.71885315001E+03  0.00000000000E+00 0. -1.
         21    1    1    2  504  502  0.68565108570E+02  0.97453014949E+02 -0.13183309779E+03  0.17770264463E+03  0.00000000000E+00 0.  1.
         21    1    1    2  505  504 -0.15561748432E+03 -0.13286040250E+03  0.12512658735E+03  0.23984443050E+03  0.00000000000E+00 0. -1.
         21    1    1    2  506  501  0.34108630031E+01  0.52476600902E+02  0.47144254254E+02  0.70625833360E+02  0.00000000000E+00 0. -1.
<scales pt_clust_3="85.28038" pt_clust_4="14000.00000" pt_clust_5="160.66643" pt_clust_6="52.58733"></scales>
<clustering>
<clus scale="   52.587">  1  6  2 -1</clus>
<clus scale="   85.280">  2  3  1 -1</clus>
<clus scale="  160.666">  1  5  2 -1</clus>
<clus scale="   52.587">  1  3  2 -1</clus>
</clustering>
</event>
<event>
 6    0  0.6132510E+002  0.9933192E+02  0.7546771E-02  0.1281707E+00
         21   -1    0    0  505  501  0.00000000000E+00  0.00000000000E+00  0.96090268831E+03  0.96090268831E+03  0.00000000000E+00 0. -1.
         21   -1    0    0  503  502 -0.00000000000E+00 -0.00000000000E+00 -0.46204925675E+03  0.46204925675E+03  0.00000000000E+00 0.  1.
         21    1    1    2  503  504  0.65757000067E+02 -0.94440514587E+02  0.22280108770E+01  0.11509977361E+03  0.00000000000E+00 0.  1.
         21    1    1    2  504  501 -0.63513877357E+02  0.21276239730E+02  0.81848416181E+03  0.82122044186E+03  0.00000000000E+00 0. -1.
         21    1    1    2  505  506 -0.21675378584E+02  0.33008997984E+02  0.76336314859E+02  0.85945616240E+02  0.00000000000E+00 0. -1.
         21    1    1    2  506  502  0.19432255874E+02  0.40155276872E+02 -0.39819505598E+03  0.40068611336E+03  0.00000000000E+00 0.  1.
<scales pt_clust_3="99.33192" pt_clust_4="14000.00000" pt_clust_5="39.48944" pt_clust_6="44.63880"></scales>
<clustering>
<clus scale="   39.489">  1  5  2 -1</clus>
<clus scale="   44.639">  2  6  1 -1</clus>
<clus scale="   99.332">  2  3  1 -1</clus>
<clus scale="   39.489">  1  3  2 -1</clus>
</clustering>
</event>
<event>
 6    0  0.6132510E+002  0.8815114E+02  0.7546771E-02  0.1307392E+00
         21   -1    0    0  505  501  0.00000000000E+00  0.00000000000E+00  0.55194158138E+03  0.55194158138E+03  0.00000000000E+00 0.  1.
         21   -1    0    0  503  502 -0.00000000000E+00 -0.00000000000E+00 -0.64701331137E+02  0.64701331137E+02  0.00000000000E+00 0.  1.
         21    1    1    2  503  501 -0.68412141764E+02 -0.12693832901E+02  0.98795056074E+02  0.12083798095E+03  0.00000000000E+00 0. -1.
         21    1    1    2  504  502 -0.44155170426E+02  0.86353772733E+02  0.27952964611E+02  0.10093572891E+03  0.00000000000E+00 0.  1.
         21    1    1    2  505  506  0.21519650997E+02 -0.65494660452E+02  0.13589133633E+03  0.15237815203E+03  0.00000000000E+00 0.  1.
         21    1    1    2  506  504  0.91047661193E+02 -0.81652793805E+01  0.22460089323E+03  0.24249105063E+03  0.00000000000E+00 0.  1.
<scales pt_clust_3="69.57629" pt_clust_4="88.15114" pt_clust_5="68.93944" pt_clust_6="14000.00000"></scales>
<clustering>
<clus scale="   68.939">  1  5  2 -1</clus>
<clus scale="   69.576">  1  3  2 -1</clus>
<clus scale="   88.151">  2  4  1 -1</clus>
<clus scale="   68.939">  1  3  2 -1</clus>
</clustering>
</event>
<event>
 6    0  0.6132510E+002  0.1039393E+03  0.7546771E-02  0.1272224E+00
         21   -1    0    0  505  501  0.00000000000E+00  0.00000000000E+00  0.22755514349E+04  0.22755514349E+04  0.00000000000E+00 0. -1.
         21   -1    0    0  506  502 -0.00000000000E+00 -0.00000000000E+00 -0.11079522377E+03  0.11079522377E+03  0.00000000000E+00 0.  1.
         21    1    1    2  503  502 -0.53210353650E+02 -0.70477194406E+02  0.13158757313E+03  0.15847291904E+03  0.00000000000E+00 0.  1.
         21    1    1    2  504  501  0.12716753933E+03  0.14149959101E+02  0.96729629278E+03  0.97572225681E+03  0.00000000000E+00 0. -1.
         21    1    1    2  505  503 -0.29335652797E+02 -0.46454571967E+02  0.11243967840E+04  0.11257383070E+04  0.00000000000E+00 0.  1.
         21    1    1    2  506  504 -0.44621532883E+02  0.10278180727E+03 -0.58524438801E+02  0.12641317589E+03  0.00000000000E+00 0.  1.
<scales pt_clust_3="95.21205" pt_clust_4="14000.00000" pt_clust_5="54.94186" pt_clust_6="103.93927"></scales>
<clustering>
<clus scale="   54.942">  1  5  2 -1</clus>
<clus scale="   95.212">  2  3  1 -1</clus>
<clus scale="  103.939">  2  6  1 -1</clus>
<clus scale="   54.942">  1  3  2 -1</clus>
</clustering>
</event>
<event>
 6    0  0.6132510E+002  0.7691130E+02  0.7546771E-02  0.1338052E+00
         21   -1    0    0  505  501  0.00000000000E+00  0.00000000000E+00  0.12841363439E+03  0.12841363439E+03  0.00000000000E+00 0.  1.
         21   -1    0    0  503  502 -0.00000000000E+00 -0.00000000000E+00 -0.80200678786E+03  0.80200678786E+03  0.00000000000E+00 0. -1.
         21    1    1    2  503  506 -0.97739232658E+02 -0.96845827220E+01 -0.20510559701E+03  0.22740944278E+03  0.00000000000E+00 0. -1.
         21    1    1    2  504  502  0.30611639781E+02  0.31927333647E+02 -0.53215255052E+03  0.53398760674E+03  0.00000000000E+00 0. -1.
         21    1    1    2  505  504  0.79219023527E+02 -0.70621617001E+02  0.50011515456E+02  0.11732100475E+03  0.00000000000E+00 0.  1.
         21    1    1    2  506  501 -0.12091430651E+02  0.48378866075E+02  0.13653478593E+02  0.51702367988E+02  0.00000000000E+00 0. -1.
<scales pt_clust_3="76.91130" pt_clust_4="44.23152" pt_clust_5="14000.00000" pt_clust_6="51.60107"></scales>
<clustering>
<clus scale="   44.232">  2  4  1 -1</clus>
<clus scale="   51.601">  1  6  2 -1</clus>
<clus scale="   76.911">  2  3  1 -1</clus>
<clus scale="   51.601">  1  3  2 -1</clus>
</clustering>
</event>
<event>
 6    0  0.6132510E+002  0.1716203E+03  0.7546771E-02  0.1176169E+00
         21   -1    0    0  505  501  0.00000000000E+00  0.00000000000E+00  0.58193910441E+03  0.58193910441E+03  0.00000000000E+00 0. -1.
         21   -1    0    0  506  502 -0.00000000000E+00 -0.00000000000E+00 -0.34068152779E+03  0.34068152779E+03  0.00000000000E+00 0. -1.
         21    1    1    2  503  502 -0.65715055442E+02  0.19000691145E+02 -0.10764881651E+03  0.12754513896E+03  0.00000000000E+00 0. -1.
         21    1    1    2  504  503 -0.10272956204E+02  0.83894364587E+02  0.21201932238E+03  0.22824546239E+03  0.00000000000E+00 0. -1.
         21    1    1    2  505  504  0.20520124432E+02  0.81085853070E+02  0.30206676624E+03  0.31343312259E+03  0.00000000000E+00 0. -1.
         21    1    1    2  506  501  0.55467887213E+02 -0.18398090880E+03 -0.16517969548E+03  0.25339690826E+03  0.00000000000E+00 0. -1.
<scales pt_clust_3="68.40683" pt_clust_4="42.29548" pt_clust_5="42.29548" pt_clust_6="166.27029"></scales>
<clustering>
<clus scale="   42.295">  4  5 -1 -1</clus>
<clus scale="   68.407">  2  3  1 -1</clus>
<clus scale="  166.270">  2  6  1 -1</clus>
<clus scale="  171.620">  1  3  2 -1</clus>
</clustering>
</event>
<event>
 6    0  0.6132510E+002  0.8758157E+02  0.7546771E-02  0.1308816E+00
         21   -1    0    0  503  501  0.00000000000E+00  0.00000000000E+00  0.50282642168E+03  0.50282642168E+03  0.00000000000E+00 0. -1.
         21   -1    0    0  504  502 -0.00000000000E+00 -0.00000000000E+00 -0.31134710239E+03  0.31134710239E+03  0.00000000000E+00 0. -1.
         21    1    1    2  503  505  0.64651223900E+02  0.50612206286E+02  0.28175289567E+03  0.29347243550E+03  0.00000000000E+00 0. -1.
         21    1    1    2  504  506  0.51363966149E+02 -0.63690194745E+02 -0.86730584116E+02  0.11923460968E+03  0.00000000000E+00 0. -1.
         21    1    1    2  505  502 -0.82693665727E+02 -0.21981613999E+02 -0.19024465989E+03  0.20860120882E+03  0.00000000000E+00 0. -1.
         21    1    1    2  506  501 -0.33321524322E+02  0.35059602458E+02  0.18670166762E+03  0.19286527008E+03  0.00000000000E+00 0.  1.
<scales pt_clust_3="14000.00000" pt_clust_4="79.31859" pt_clust_5="87.58157" pt_clust_6="48.36838"></scales>
<clustering>
<clus scale="   48.368">  1  6  2 -1</clus>
<clus scale="   79.319">  2  4  1 -1</clus>
<clus scale="   87.582">  2  5  1 -1</clus>
<clus scale="   48.368">  1  3  2 -1</clus>
</clustering>
</event>
<event>
 6    0  0.6132510E+002  0.2781217E+03  0.7546771E-02  0.1096719E+00
         21   -1    0    0  506  501  0.00000000000E+00  0.00000000000E+00  0.14790912295E+03  0.14790912295E+03  0.00000000000E+00 0.  1.
         21   -1    0    0  505  502 -0.00000000000E+00 -0.00000000000E+00 -0.94536874298E+03  0.94536874298E+03  0.00000000000E+00 0. -1.
         21    1    1    2  503  501  0.24430869233E+03 -0.13295254221E+03 -0.19700379859E+03  0.34084250364E+03  0.00000000000E+00 0.  1.
         21    1    1    2  504  502  0.10165690533E+02 -0.34674525429E+02 -0.10583300489E+03  0.11183152016E+03  0.00000000000E+00 0.  1.
         21    1    1    2  505  503 -0.30613564052E+02  0.19850394686E+00 -0.29624219024E+03  0.29781985324E+03  0.00000000000E+00 0.  1.
         21    1    1    2  506  504 -0.22386081881E+03  0.16742856369E+03 -0.19838062631E+03  0.34278398889E+03  0.00000000000E+00 0. -1.
<scales pt_clust_3="14000.00000" pt_clust_4="35.00402" pt_clust_5="30.61421" pt_clust_6="278.12169"></scales>
<clustering>
<clus scale="   30.614">  2  5  1 -1</clus>
<clus scale="   35.004">  2  4  1 -1</clus>
<clus scale="  278.122">  2  6  1 -1</clus>
<clus scale="  278.122">  1  3  2 -1</clus>
</clustering>
</event>
<event>
 6    0  0.6132510E+002  0.1194959E+03  0.7546771E-02  0.1243931E+00
         21   -1    0    0  506  501  0.00000000000E+00  0.00000000000E+00  0.29023899424E+03  0.29023899424E+03  0.00000000000E+00 0.  1.
         21   -1    0    0  504  502 -0.00000000000E+00 -0.00000000000E+00 -0.90984474349E+02  0.90984474349E+02  0.00000000000E+00 0.  1.
         21    1    1    2  503  505 -0.42391485697E+02  0.31249842550E+02  0.45431861718E+02  0.69553179497E+02  0.00000000000E+00 0.  1.
         21    1    1    2  504  503 -0.39096945333E+02 -0.44021362181E+01  0.65920896821E+01  0.39892425146E+02  0.00000000000E+00 0.  1.
         21    1    1    2  505  501 -0.50713635472E+02  0.10211330559E+02  0.12154762276E+03  0.13209832964E+03  0.00000000000E+00 0.  1.
         21    1    1    2  506  502  0.13220206650E+03 -0.37059036891E+02  0.25682945729E+02  0.13967953431E+03  0.00000000000E+00 0.  1.
<scales pt_clust_3="37.78098" pt_clust_4="37.78098" pt_clust_5="51.73146" pt_clust_6="111.21418"></scales>
<clustering>
<clus scale="   37.781">  3  4 -1 -1</clus>
<clus scale="   51.731">  1  5  2 -1</clus>
<clus scale="  111.214">  1  6  2 -1</clus>
<clus scale="   51.731">  1  3  2 -1</clus>
</clustering>
</event>
<event>
 6    0  0.6132510E+002  0.1081605E+03  0.7546771E-02  0.1264015E+00
         21   -1    0    0  503  501  0.00000000000E+00  0.00000000000E+00  0.19090684361E+03  0.19090684361E+03  0.00000000000E+00 0. -1.
         21   -1    0    0  504  502 -0.00000000000E+00 -0.00000000000E+00 -0.51859231717E+03  0.51859231717E+03  0.00000000000E+00 0. -1.
         21    1    1    2  503  505 -0.83629194599E+02 -0.62472565260E+02  0.12871217708E+02  0.10517762046E+03  0.00000000000E+00 0.  1.
         21    1    1    2  504  501 -0.81922434928E+02  0.44377440236E+02 -0.33580256607E+03  0.34848817186E+03  0.00000000000E+00 0. -1.
         21    1    1    2  505  506  0.13317210087E+03 -0.42281713888E+02  0.68434149926E+02  0.15558208334E+03  0.00000000000E+00 0. -1.
         21    1    1    2  506  502  0.32379528659E+02  0.60376838912E+02 -0.73188275130E+02  0.10025128513E+03  0.00000000000E+00 0. -1.
<scales pt_clust_3="97.80243" pt_clust_4="14000.00000" pt_clust_5="108.16051" pt_clust_6="68.51129"></scales>
<clustering>
<clus scale="   68.511">  2  6  1 -1</clus>
<clus scale="   97.802">  1  3  2 -1</clus>
<clus scale="  108.161">  1  5  2 -1</clus>
<clus scale="   97.802">  1  3  2 -1</clus>
</clustering>
</event>
<event>
 6    0  0.6132510E+002  0.1147185E+03  0.7546771E-02  0.1252073E+00
         21   -1    0    0  503  501  0.00000000000E+00  0.00000000000E+00  0.44520232600E+03  0.44520232600E+03  0.00000000000E+00 0.  1.
         21   -1    0    0  504  502 -0.00000000000E+00 -0.00000000000E+00 -0.25610908088E+03  0.25610908088E+03  0.00000000000E+00 0.  1.
         21    1    1    2  503  506  0.23280008037E+02 -0.34497381192E+02  0.10202636215E+03  0.11018805133E+03  0.00000000000E+00 0.  1.
         21    1    1    2  504  505  0.15035633818E+02  0.41509695607E+02 -0.25761151950E+02  0.51115184275E+02  0.00000000000E+00 0.  1.
         21    1    1    2  505  501 -0.10058247556E+03 -0.54985273811E+02  0.30851595406E+03  0.32912354616E+03  0.00000000000E+00 0.  1.
         21    1    1    2  506  502  0.62266833703E+02  0.47972959397E+02 -0.19568791914E+03  0.21088462511E+03  0.00000000000E+00 0.  1.
<scales pt_clust_3="41.61764" pt_clust_4="43.25100" pt_clust_5="14000.00000" pt_clust_6="114.71852"></scales>
<clustering>
<clus scale="   41.618">  1  3  2 -1</clus>
<clus scale="   43.251">  2  4  1 -1</clus>
<clus scale="  114.719">  2  6  1 -1</clus>
<clus scale="   41.618">  1  3  2 -1</clus>
</clustering>
</event>
<event>
 6    0  0.6132510E+002  0.1593873E+03  0.7546771E-02  0.1189390E+00
         21   -1    0    0  506  501  0.00000000000E+00  0.00000000000E+00  0.19673683521E+03  0.19673683521E+03  0.00000000000E+00 0. -1.
         21   -1    0    0  504  502 -0.00000000000E+00 -0.00000000000E+00 -0.48051301979E+03  0.48051301979E+03  0.00000000000E+00 0. -1.
         21    1    1    2  503  501 -0.11186468171E+03 -0.24116275072E+02  0.56241533355E+02  0.12750847741E+03  0.00000000000E+00 0. -1.
         21    1    1    2  504  503 -0.10940115369E+03  0.19836826983E+01 -0.28532976204E+03  0.30559060936E+03  0.00000000000E+00 0. -1.
         21    1    1    2  505  502  0.14936440041E+03  0.50339941195E+02 -0.54922070048E+02  0.16691395258E+03  0.00000000000E+00 0. -1.
         21    1    1    2  506  505  0.71901434998E+02 -0.28207348821E+02  0.23411415180E+00  0.77236815650E+02  0.00000000000E+00 0. -1.
<scales pt_clust_3="135.03300" pt_clust_4="109.41914" pt_clust_5="59.27592" pt_clust_6="59.27592"></scales>
<clustering>
<clus scale="   59.276">  5  6 -1 -1</clus>
<clus scale="  109.419">  2  4  1 -1</clus>
<clus scale="  135.033">  1  3  2 -1</clus>
<clus scale="  135.033">  1  3  2 -1</clus>
</clustering>
</event>
<event>
 6    0  0.6132510E+002  0.1446206E+03  0.7546771E-02  0.1207243E+00
         21   -1    0    0  504  501  0.00000000000E+00  0.00000000000E+00  0.27009612195E+04  0.27009612195E+04  0.00000000000E+00 0.  1.
         21   -1    0    0  503  502 -0.00000000000E+00 -0.00000000000E+00 -0.15737032669E+03  0.15737032669E+03  0.00000000000E+00 0.  1.
         21    1    1    2  503  505 -0.59756355520E+02  0.42210811635E+02 -0.10213418669E+03  0.12563425780E+03  0.00000000000E+00 0.  1.
         21    1    1    2  504  502  0.26064216759E+02  0.92712071214E+02  0.14531393398E+02  0.97396267578E+02  0.00000000000E+00 0.  1.
         21    1    1    2  505  506  0.32425852591E+01 -0.70089771257E+02  0.95300154891E+03  0.95558099741E+03  0.00000000000E+00 0.  1.
         21    1    1    2  506  501  0.30449553502E+02 -0.64833111592E+02  0.16781921372E+04  0.16797200234E+04  0.00000000000E+00 0.  1.
<scales pt_clust_3="73.16129" pt_clust_4="136.46684" pt_clust_5="47.38254" pt_clust_6="47.38254"></scales>
<clustering>
<clus scale="   47.383">  5  6 -1 -1</clus>
<clus scale="   73.161">  2  3  1 -1</clus>
<clus scale="  136.467">  2  4  1 -1</clus>
<clus scale="  144.621">  1  3  2 -1</clus>
</clustering>
</event>
<event>
 6    0  0.6132510E+002  0.2186530E+03  0.7546771E-02  0.1134891E+00
         21   -1    0    0  503  501  0.00000000000E+00  0.00000000000E+00  0.36393236167E+03  0.36393236167E+03  0.00000000000E+00 0. -1.
         21   -1    0    0  506  502 -0.00000000000E+00 -0.00000000000E+00 -0.29062096128E+04  0.29062096128E+04  0.00000000000E+00 0. -1.
         21    1    1    2  503  505  0.72463733407E+02 -0.10548615464E+03  0.23511153775E+03  0.26768592915E+03  0.00000000000E+00 0. -1.
         21    1    1    2  504  501  0.30029211885E+01  0.20694135769E+03 -0.38830830567E+03  0.44001941243E+03  0.00000000000E+00 0. -1.
         21    1    1    2  505  502  0.35302260990E+01 -0.81563495497E+02  0.66628082210E+02  0.10537726336E+03  0.00000000000E+00 0. -1.
         21    1    1    2  506  504 -0.78996880695E+02 -0.19891707549E+02 -0.24557085654E+04  0.24570593696E+04  0.00000000000E+00 0. -1.
<scales pt_clust_3="68.55199" pt_clust_4="201.10307" pt_clust_5="68.55199" pt_clust_6="81.46280"></scales>
<clustering>
<clus scale="   68.552">  3  5 -1 -1</clus>
<clus scale="   81.463">  2  6  1 -1</clus>
<clus scale="  201.103">  2  4  1 -1</clus>
<clus scale="  218.653">  1  3  2 -1</clus>
</clustering>
</event>
<event>
 6    0  0.6132510E+002  0.1434346E+03  0.7546771E-02  0.1208781E+00
         21   -1    0    0  505  501  0.00000000000E+00  0.00000000000E+00  0.75311252377E+03  0.75311252377E+03  0.00000000000E+00 0. -1.
         21   -1    0    0  501  502 -0.00000000000E+00 -0.00000000000E+00 -0.49001007249E+02  0.49001007249E+02  0.00000000000E+00 0.  1.
         21    1    1    2  503  502 -0.18658300541E+02  0.37977832260E+02 -0.27872140619E+00  0.42314602774E+02  0.00000000000E+00 0.  1.
         21    1    1    2  504  506 -0.90792746826E+01  0.56191027620E+02  0.15416886986E+03  0.16434082039E+03  0.00000000000E+00 0.  1.
         21    1    1    2  505  504  0.45902607594E+02 -0.14812056620E+03  0.48346044838E+03  0.50772114065E+03  0.00000000000E+00 0. -1.
         21    1    1    2  506  503 -0.18165032371E+02  0.53951706323E+02  0.66760919688E+02  0.87736967202E+02  0.00000000000E+00 0.  1.
<scales pt_clust_3="42.31368" pt_clust_4="40.54462" pt_clust_5="136.79884" pt_clust_6="40.54462"></scales>
<clustering>
<clus scale="   42.314">  2  3  1 -1</clus>
<clus scale="   40.545">  4  6 -1 -1</clus>
<clus scale="  136.799">  1  5  2 -1</clus>
<clus scale="  136.799">  1  3  2 -1</clus>
</clustering>
</event>
<event>
 6    0  0.6132510E+002  0.1314903E+03  0.7546771E-02  0.1225261E+00
         21   -1    0    0  505  501  0.00000000000E+00  0.00000000000E+00  0.99844139400E+02  0.99844139400E+02  0.00000000000E+00 0.  1.
         21   -1    0    0  504  502 -0.00000000000E+00 -0.00000000000E+00 -0.13030019749E+04  0.13030019749E+04  0.00000000000E+00 0.  1.
         21    1    1    2  503  502  0.63375333674E+02  0.18305770813E+02 -0.18633409902E+03  0.19766621012E+03  0.00000000000E+00 0.  1.
         21    1    1    2  504  501 -0.34150112996E+02 -0.18223085349E+02  0.10580520551E+02  0.40128026022E+02  0.00000000000E+00 0. -1.
         21    1    1    2  505  506 -0.92449664081E+02  0.72259245776E+02  0.14942928659E+02  0.11828622112E+03  0.00000000000E+00 0.  1.
         21    1    1    2  506  503  0.63224443404E+02 -0.72341931240E+02 -0.10423471857E+04  0.10467656571E+04  0.00000000000E+00 0.  1.
<scales pt_clust_3="63.08886" pt_clust_4="38.70802" pt_clust_5="14000.00000" pt_clust_6="131.49033"></scales>
<clustering>
<clus scale="   38.708">  1  4  2 -1</clus>
<clus scale="   63.089">  2  3  1 -1</clus>
<clus scale="  131.490">  2  6  1 -1</clus>
<clus scale="   38.708">  1  3  2 -1</clus>
</clustering>
</event>
<event>
 6    0  0.6132510E+002  0.1207187E+03  0.7546771E-02  0.1241916E+00
         21   -1    0    0  503  501  0.00000000000E+00  0.00000000000E+00  0.69097215935E+03  0.69097215935E+03  0.00000000000E+00 0.  1.
         21   -1    0    0  505  502 -0.00000000000E+00 -0.00000000000E+00 -0.39771901950E+03  0.39771901950E+03  0.00000000000E+00 0.  1.
         21    1    1    2  503  504  0.29139756943E+02  0.41586074189E+02  0.69768280495E+02  0.86291019025E+02  0.00000000000E+00 0.  1.
         21    1    1    2  504  502 -0.73329456426E+01 -0.12813074499E+03 -0.34612591888E+03  0.36915364231E+03  0.00000000000E+00 0.  1.
         21    1    1    2  505  506 -0.43511588806E+02  0.15915246943E+02 -0.11272638686E+02  0.47682552664E+02  0.00000000000E+00 0.  1.
         21    1    1    2  506  501  0.21704777505E+02  0.70629423859E+02  0.58088341692E+03  0.58556396486E+03  0.00000000000E+00 0.  1.
<scales pt_clust_3="50.52142" pt_clust_4="14000.00000" pt_clust_5="46.33091" pt_clust_6="120.71873"></scales>
<clustering>
<clus scale="   46.331">  2  5  1 -1</clus>
<clus scale="   50.521">  1  3  2 -1</clus>
<clus scale="  120.719">  1  6  2 -1</clus>
<clus scale="   50.521">  1  3  2 -1</clus>
</clustering>
</event>
<event>
 6    0  0.6132510E+002  0.1337934E+03  0.7546771E-02  0.1221933E+00
         21   -1    0    0  505  501  0.00000000000E+00  0.00000000000E+00  0.30766752160E+03  0.30766752160E+03  0.00000000000E+00 0.  1.
         21   -1    0    0  506  502 -0.00000000000E+00 -0.00000000000E+00 -0.69643020070E+03  0.69643020070E+03  0.00000000000E+00 0.  1.
         21    1    1    2  503  501  0.35104448065E+02 -0.64639440161E+02  0.16757309315E+03  0.18300634155E+03  0.00000000000E+00 0.  1.
         21    1    1    2  504  503 -0.15651092716E+02 -0.59372070835E+02  0.11651445671E+03  0.13170276428E+03  0.00000000000E+00 0.  1.
         21    1    1    2  505  502 -0.58237819095E+01  0.61936315390E+02 -0.14575419770E+03  0.15847494990E+03  0.00000000000E+00 0.  1.
         21    1    1    2  506  504 -0.13629573439E+02  0.62075195605E+02 -0.52709603126E+03  0.53091366657E+03  0.00000000000E+00 0.  1.
<scales pt_clust_3="46.39626" pt_clust_4="46.39626" pt_clust_5="62.20951" pt_clust_6="123.78157"></scales>
<clustering>
<clus scale="   46.396">  3  4 -1 -1</clus>
<clus scale="   62.210">  2  5  1 -1</clus>
<clus scale="  123.782">  2  6  1 -1</clus>
<clus scale="  133.793">  1  3  2 -1</clus>
</clustering>
</event>
<event>
 6    0  0.6132510E+002  0.3055475E+03  0.7546771E-02  0.1082500E+00
         21   -1    0    0  503  501  0.00000000000E+00  0.00000000000E+00  0.16147450134E+03  0.16147450134E+03  0.00000000000E+00 0.  1.
         21   -1    0    0  504  502 -0.00000000000E+00 -0.00000000000E+00 -0.53278136359E+03  0.53278136359E+03  0.00000000000E+00 0.  1.
         21    1    1    2  503  502  0.16367735636E+03  0.22807984655E+03 -0.18960298954E+03  0.33876243451E+03  0.00000000000E+00 0.  1.
         21    1    1    2  504  506  0.58243411382E+01 -0.35722593246E+02 -0.48201990846E+02  0.60278176312E+02  0.00000000000E+00 0.  1.
         21    1    1    2  505  501 -0.70283529507E+02 -0.78850985349E+02 -0.22492511568E+02  0.10799613645E+03  0.00000000000E+00 0. -1.
         21    1    1    2  506  505 -0.99218167991E+02 -0.11350626796E+03 -0.11100937030E+03  0.18721911767E+03  0.00000000000E+00 0.  1.
<scales pt_clust_3="280.73242" pt_clust_4="34.35117" pt_clust_5="63.04561" pt_clust_6="63.04561"></scales>
<clustering>
<clus scale="   34.351">  4  6 -1 -1</clus>
<clus scale="   63.046">  4  5 -1 -1</clus>
<clus scale="  280.732">  2  3  1 -1</clus>
<clus scale="  305.548">  1  3  2 -1</clus>
</clustering>
</event>
<event>
 6    0  0.6132510E+002  0.1363088E+03  0.7546771E-02  0.1218384E+00
         21   -1    0    0  505  501  0.00000000000E+00  0.00000000000E+00  0.18323550630E+04  0.18323550630E+04  0.00000000000E+00 0.  1.
         21   -1    0    0  503  502 -0.00000000000E+00 -0.00000000000E+00 -0.38647056755E+02  0.38647056755E+02  0.00000000000E+00 0.  1.
         21    1    1    2  503  504  0.13854001687E+03 -0.84180627416E+02  0.19816947705E+03  0.25602901387E+03  0.00000000000E+00 0.  1.
         21    1    1    2  504  501 -0.77169333788E+02  0.68429139280E+02  0.13862654170E+04  0.13900969245E+04  0.00000000000E+00 0.  1.
         21    1    1    2  505  506 -0.25374286115E+02  0.25466622103E+02  0.15443242121E+03  0.15856158411E+03  0.00000000000E+00 0. -1.
         21    1    1    2  506  502 -0.35996396968E+02 -0.97151339671E+01  0.54840691040E+02  0.66314597310E+02  0.00000000000E+00 0. -1.
<scales pt_clust_3="136.30882" pt_clust_4="14000.00000" pt_clust_5="35.95001" pt_clust_6="37.94679"></scales>
<clustering>
<clus scale="   35.950">  1  5  2 -1</clus>
<clus scale="   37.947">  2  6  1 -1</clus>
<clus scale="  136.309">  2  3  1 -1</clus>
<clus scale="   35.950">  1  3  2 -1</clus>
</clustering>
</event>
<event>
 6    0  0.6132510E+002  0.1037862E+03  0.7546771E-02  0.1272530E+00
         21   -1    0    0  506  501  0.00000000000E+00  0.00000000000E+00  0.24122222127E+03  0.24122222127E+03  0.00000000000E+00 0.  1.
         21   -1    0    0  505  502 -0.00000000000E+00 -0.00000000000E+00 -0.12085384432E+03  0.12085384432E+03  0.00000000000E+00 0. -1.
         21    1    1    2  503  501  0.27540989093E+02 -0.17446389514E+02  0.18452252642E+02  0.37461556492E+02  0.00000000000E+00 0.  1.
         21    1    1    2  504  503 -0.80211375645E+01  0.88199435682E+02  0.12859634654E+03  0.15614256129E+03  0.00000000000E+00 0.  1.
         21    1    1    2  505  504 -0.55927258708E+02 -0.96336370276E+02 -0.45278529220E+02  0.12024433339E+03  0.00000000000E+00 0. -1.
         21    1    1    2  506  502  0.36407407179E+02  0.25583324107E+02  0.18598306987E+02  0.48227614420E+02  0.00000000000E+00 0.  1.
<scales pt_clust_3="32.60188" pt_clust_4="14000.00000" pt_clust_5="103.78622" pt_clust_6="46.69506"></scales>
<clustering>
<clus scale="   32.602">  1  3  2 -1</clus>
<clus scale="   46.695">  1  6  2 -1</clus>
<clus scale="  103.786">  2  5  1 -1</clus>
<clus scale="   32.602">  1  3  2 -1</clus>
</clustering>
</event>
<event>
 6    0  0.6132510E+002  0.1668672E+03  0.7546771E-02  0.1181155E+00
         21   -1    0    0  504  501  0.00000000000E+00  0.00000000000E+00  0.52599418311E+03  0.52599418311E+03  0.00000000000E+00 0. -1.
         21   -1    0    0  503  502 -0.00000000000E+00 -0.00000000000E+00 -0.32821836176E+03  0.32821836176E+03  0.00000000000E+00 0. -1.
         21    1    1    2  503  505 -0.75636341127E+01 -0.12957455009E+03  0.28576524724E+03  0.31386071612E+03  0.00000000000E+00 0. -1.
         21    1    1    2  504  502  0.76384826223E+02  0.15254147534E+03 -0.28225638249E+03  0.32980632018E+03  0.00000000000E+00 0. -1.
         21    1    1    2  505  506 -0.33308871047E+02 -0.23361968369E+02  0.66717144788E+02  0.78143712896E+02  0.00000000000E+00 0.  1.
         21    1    1    2  506  501 -0.35512321064E+02  0.39504311486E+00  0.12754981180E+03  0.13240179567E+03  0.00000000000E+00 0. -1.
<scales pt_clust_3="14000.00000" pt_clust_4="166.86722" pt_clust_5="81.17734" pt_clust_6="34.02089"></scales>
<clustering>
<clus scale="   34.021">  5  6 -1 -1</clus>
<clus scale="   81.177">  1  5  2 -1</clus>
<clus scale="  166.867">  2  4  1 -1</clus>
<clus scale="   81.177">  1  3  2 -1</clus>
</clustering>
</event>
<event>
 6    0  0.6132510E+002  0.8912301E+02  0.7546771E-02  0.1304989E+00
         21   -1    0    0  505  501  0.00000000000E+00  0.00000000000E+00  0.14044476254E+03  0.14044476254E+03  0.00000000000E+00 0. -1.
         21   -1    0    0  504  502 -0.00000000000E+00 -0.00000000000E+00 -0.10316949450E+04  0.10316949450E+04  0.00000000000E+00 0. -1.
         21    1    1    2  503  506 -0.32987763530E+02  0.47731705436E+02 -0.80758993266E+03  0.80967154302E+03  0.00000000000E+00 0. -1.
         21    1    1    2  504  501 -0.62265631167E+02  0.20909907281E+02 -0.19755788670E+02  0.68589534429E+02  0.00000000000E+00 0. -1.
         21    1    1    2  505  503  0.13283198915E+03 -0.76474364894E+02  0.59670719012E+02  0.16447875406E+03  0.00000000000E+00 0. -1.
         21    1    1    2  506  502 -0.37578594455E+02  0.78327521769E+01 -0.12357518012E+03  0.12939987600E+03  0.00000000000E+00 0. -1.
<scales pt_clust_3="14000.00000" pt_clust_4="67.54324" pt_clust_5="89.12301" pt_clust_6="38.38623"></scales>
<clustering>
<clus scale="   38.386">  2  6  1 -1</clus>
<clus scale="   67.543">  1  4  2 -1</clus>
<clus scale="   89.123">  1  5  2 -1</clus>
<clus scale="   67.543">  1  3  2 -1</clus>
</clustering>
</event>
<event>
 6    0  0.6132510E+002  0.1632947E+03  0.7546771E-02  0.1185027E+00
         21   -1    0    0  506  501  0.00000000000E+00  0.00000000000E+00  0.22911651363E+03  0.22911651363E+03  0.00000000000E+00 0. -1.
         21   -1    0    0  505  502 -0.00000000000E+00 -0.00000000000E+00 -0.43318624611E+03  0.43318624611E+03  0.00000000000E+00 0.  1.
         21    1    1    2  503  502  0.32403470110E+00  0.45752311746E+02 -0.30525592870E+03  0.30866577561E+03  0.00000000000E+00 0.  1.
         21    1    1    2  504  501  0.10548249469E+03 -0.30268285496E+02  0.95028582102E+01  0.11015003453E+03  0.00000000000E+00 0.  1.
         21    1    1    2  505  504  0.50861245795E+02  0.11774141271E+02 -0.12106833984E+02  0.53591717229E+02  0.00000000000E+00 0.  1.
         21    1    1    2  506  503 -0.15666777519E+03 -0.27258167521E+02  0.10379017199E+03  0.18989523238E+03  0.00000000000E+00 0. -1.
<scales pt_clust_3="45.75346" pt_clust_4="30.99331" pt_clust_5="30.99331" pt_clust_6="156.99035"></scales>
<clustering>
<clus scale="   30.993">  4  5 -1 -1</clus>
<clus scale="   45.753">  2  3  1 -1</clus>
<clus scale="  156.990">  1  6  2 -1</clus>
<clus scale="  156.990">  1  3  2 -1</clus>
</clustering>
</event>
<event>
 6    0  0.6132510E+002  0.1977981E+03  0.7546771E-02  0.1151610E+00
         21   -1    0    0  505  501  0.00000000000E+00  0.00000000000E+00  0.10492304691E+04  0.10492304691E+04  0.00000000000E+00 0.  1.
         21   -1    0    0  503  502 -0.00000000000E+00 -0.00000000000E+00 -0.34973245923E+03  0.34973245923E+03  0.00000000000E+00 0. -1.
         21    1    1    2  503  504  0.54653158401E+02 -0.61507524737E+02 -0.27201188053E+03  0.28418410665E+03  0.00000000000E+00 0. -1.
         21    1    1    2  504  501  0.13825303570E+03  0.16199627206E+02  0.15479794976E+03  0.20817957405E+03  0.00000000000E+00 0. -1.
         21    1    1    2  505  506 -0.23473798118E+03 -0.15434029533E+02  0.79594120195E+03  0.82997742502E+03  0.00000000000E+00 0.  1.
         21    1    1    2  506  502  0.41831787084E+02  0.60741927064E+02  0.20770738664E+02  0.76621822601E+02  0.00000000000E+00 0. -1.
<scales pt_clust_3="91.24969" pt_clust_4="197.79810" pt_clust_5="14000.00000" pt_clust_6="73.75283"></scales>
<clustering>
<clus scale="   73.753">  2  6  1 -1</clus>
<clus scale="   91.250">  2  3  1 -1</clus>
<clus scale="  197.798">  2  4  1 -1</clus>
<clus scale="  197.798">  1  3  2 -1</clus>
</clustering>
</event>
<event>
 6    0  0.6132510E+002  0.7995300E+02  0.7546771E-02  0.1329185E+00
         21   -1    0    0  503  501  0.00000000000E+00  0.00000000000E+00  0.12838361238E+03  0.12838361238E+03  0.00000000000E+00 0.  1.
         21   -1    0    0  504  502 -0.00000000000E+00 -0.00000000000E+00 -0.12094672013E+04  0.12094672013E+04  0.00000000000E+00 0.  1.
         21    1    1    2  503  506 -0.47083015819E+02  0.28510840819E+02  0.71050208197E+02  0.89876640500E+02  0.00000000000E+00 0.  1.
         21    1    1    2  504  505 -0.11382556351E+01  0.77491043676E+02 -0.10169434543E+04  0.10198922231E+04  0.00000000000E+00 0.  1.
         21    1    1    2  505  501  0.82790478070E+01  0.35589959977E+02 -0.28815408438E+02  0.46535101238E+02  0.00000000000E+00 0.  1.
         21    1    1    2  506  502  0.39942223647E+02 -0.14159184447E+03 -0.10637493430E+03  0.18154684877E+03  0.00000000000E+00 0.  1.
<scales pt_clust_3="66.90400" pt_clust_4="79.95300" pt_clust_5="36.54022" pt_clust_6="14000.00000"></scales>
<clustering>
<clus scale="   36.540">  1  5  2 -1</clus>
<clus scale="   66.904">  1  3  2 -1</clus>
<clus scale="   79.953">  2  4  1 -1</clus>
<clus scale="   36.540">  1  3  2 -1</clus>
</clustering>
</event>
<event>
 6    0  0.6132510E+002  0.1493252E+03  0.7546771E-02  0.1201305E+00
         21   -1    0    0  504  501  0.00000000000E+00  0.00000000000E+00  0.51634082084E+03  0.51634082084E+03  0.00000000000E+00 0. -1.
         21   -1    0    0  501  502 -0.00000000000E+00 -0.00000000000E+00 -0.12843727793E+03  0.12843727793E+03  0.00000000000E+00 0.  1.
         21    1    1    2  503  505 -0.79795303216E+02 -0.54421045792E+02 -0.24817692308E+02  0.99723911334E+02  0.00000000000E+00 0. -1.
         21    1    1    2  504  506  0.52249539338E+02  0.20384954627E+02  0.27761008639E+03  0.28321885672E+03  0.00000000000E+00 0. -1.
         21    1    1    2  505  502 -0.65842243451E+02 -0.37598998517E+01 -0.26760917391E+02  0.71172217678E+02  0.00000000000E+00 0.  1.
         21    1    1    2  506  503  0.93388007329E+02  0.37795991017E+02  0.16187206622E+03  0.19066311304E+03  0.00000000000E+00 0. -1.
<scales pt_clust_3="36.48754" pt_clust_4="56.08530" pt_clust_5="36.48754" pt_clust_6="142.64715"></scales>
<clustering>
<clus scale="   36.488">  3  5 -1 -1</clus>
<clus scale="   56.085">  1  4  2 -1</clus>
<clus scale="  142.647">  1  6  2 -1</clus>
<clus scale="   56.085">  1  3  2 -1</clus>
</clustering>
</event>
<event>
 6    0  0.6132510E+002  0.2403186E+03  0.7546771E-02  0.1119581E+00
         21   -1    0    0  503  501  0.00000000000E+00  0.00000000000E+00  0.75176232647E+03  0.75176232647E+03  0.00000000000E+00 0.  1.
         21   -1    0    0  506  502 -0.00000000000E+00 -0.00000000000E+00 -0.16220092645E+03  0.16220092645E+03  0.00000000000E+00 0.  1.
         21    1    1    2  503  502 -0.31561141914E+02  0.33869679446E+02 -0.42013371838E+02  0.62517071892E+02  0.00000000000E+00 0. -1.
         21    1    1    2  504  501 -0.15639821751E+03 -0.17680251840E+03  0.54723294022E+03  0.59597267036E+03  0.00000000000E+00 0.  1.
         21    1    1    2  505  504  0.10489854676E+03  0.87765295595E+02  0.73234878913E+02  0.15514444790E+03  0.00000000000E+00 0.  1.
         21    1    1    2  506  505  0.83060812657E+02  0.55167543357E+02  0.11106952727E+02  0.10032906278E+03  0.00000000000E+00 0.  1.
<scales pt_clust_3="46.29537" pt_clust_4="235.28363" pt_clust_5="41.78284" pt_clust_6="41.78284"></scales>
<clustering>
<clus scale="   41.783">  5  6 -1 -1</clus>
<clus scale="   46.295">  2  3  1 -1</clus>
<clus scale="  235.284">  1  4  2 -1</clus>
<clus scale="  235.284">  1  3  2 -1</clus>
</clustering>
</event>
<event>
 6    0  0.1031216E+003  0.7063547E+02  0.7546771E-02  0.1357945E+00
         21   -1    0    0  504  501  0.00000000000E+00  0.00000000000E+00  0.14538841464E+04  0.14538841464E+04  0.00000000000E+00 0. -1.
         21   -1    0    0  506  502 -0.00000000000E+00 -0.00000000000E+00 -0.39129036946E+03  0.39129036946E+03  0.00000000000E+00 0. -1.
         21    1    1    2  503  505 -0.55829141563E+02 -0.40747124570E+02  0.11920518934E+04  0.11940539928E+04  0.00000000000E+00 0. -1.
         21    1    1    2  504  502 -0.20688409407E+02 -0.43246421568E+02  0.37146452159E+02  0.60647524024E+02  0.00000000000E+00 0.  1.
         21    1    1    2  505  501  0.64149251389E+01  0.75104853426E+02  0.20176565708E+03  0.21538632884E+03  0.00000000000E+00 0. -1.
         21    1    1    2  506  503  0.70102625831E+02  0.88886927124E+01 -0.36837022567E+03  0.37508667021E+03  0.00000000000E+00 0. -1.
<scales pt_clust_3="14000.00000" pt_clust_4="47.94021" pt_clust_5="68.76609" pt_clust_6="70.63547"></scales>
<clustering>
<clus scale="   47.940">  1  4  2 -1</clus>
<clus scale="   68.766">  1  5  2 -1</clus>
<clus scale="   70.635">  2  6  1 -1</clus>
<clus scale="   47.940">  1  3  2 -1</clus>
</clustering>
</event>
<event>
 6    0  0.6132510E+002  0.1159470E+03  0.7546771E-02  0.1249937E+00
         21   -1    0    0  505  501  0.00000000000E+00  0.00000000000E+00  0.15927511324E+03  0.15927511324E+03  0.00000000000E+00 0. -1.
         21   -1    0    0  503  502 -0.00000000000E+00 -0.00000000000E+00 -0.15900968015E+04  0.15900968015E+04  0.00000000000E+00 0. -1.
         21    1    1    2  503  504 -0.60559398924E+02 -0.83403159976E+01 -0.21359186717E+02  0.64755050198E+02  0.00000000000E+00 0. -1.
         21    1    1    2  504  501  0.58704469999E+01 -0.11636730413E+03  0.67742329607E+02  0.13477698186E+03  0.00000000000E+00 0. -1.
         21    1    1    2  505  506  0.17239923473E+01  0.11456045715E+03 -0.55847475938E+02  0.12745984097E+03  0.00000000000E+00 0. -1.
         21    1    1    2  506  502  0.52964959577E+02  0.10147162974E+02 -0.14213573552E+04  0.14223800417E+04  0.00000000000E+00 0. -1.
<scales pt_clust_3="47.35286" pt_clust_4="115.94698" pt_clust_5="14000.00000" pt_clust_6="53.92821"></scales>
<clustering>
<clus scale="   53.928">  2  6  1 -1</clus>
<clus scale="   47.353">  2  3  1 -1</clus>
<clus scale="  115.947">  1  4  2 -1</clus>
<clus scale="  115.947">  1  3  2 -1</clus>
</clustering>
</event>
<event>
 6    0  0.6132510E+002  0.1714151E+03  0.7546771E-02  0.1176380E+00
         21   -1    0    0  503  501  0.00000000000E+00  0.00000000000E+00  0.19414248066E+03  0.19414248066E+03  0.00000000000E+00 0.  1.
         21   -1    0    0  505  502 -0.00000000000E+00 -0.00000000000E+00 -0.37473064885E+03  0.37473064885E+03  0.00000000000E+00 0.  1.
         21    1    1    2  503  506 -0.10313172223E+03 -0.19262485057E+02  0.36523324833E+02  0.11109072291E+03  0.00000000000E+00 0.  1.
         21    1    1    2  504  502  0.92319324921E+00 -0.39072030405E+02 -0.21639113360E+03  0.21989224304E+03  0.00000000000E+00 0.  1.
         21    1    1    2  505  501  0.16484951464E+03  0.37219028727E+02 -0.16879193160E+02  0.16983970601E+03  0.00000000000E+00 0.  1.
         21    1    1    2  506  504 -0.62640985665E+02  0.21115486735E+02  0.16158833737E+02  0.68050457551E+02  0.00000000000E+00 0.  1.
<scales pt_clust_3="33.97607" pt_clust_4="39.08294" pt_clust_5="165.98498" pt_clust_6="33.97607"></scales>
<clustering>
<clus scale="   33.976">  3  6 -1 -1</clus>
<clus scale="   39.083">  2  4  1 -1</clus>
<clus scale="  165.985">  2  5  1 -1</clus>
<clus scale="  171.415">  1  3  2 -1</clus>
</clustering>
</event>
<event>
 6    0  0.6132510E+002  0.1425338E+03  0.7546771E-02  0.1209960E+00
         21   -1    0    0  503  501  0.00000000000E+00  0.00000000000E+00  0.10473759837E+03  0.10473759837E+03  0.00000000000E+00 0.  1.
         21   -1    0    0  504  502 -0.00000000000E+00 -0.00000000000E+00 -0.67727067210E+03  0.67727067210E+03  0.00000000000E+00 0.  1.
         21    1    1    2  503  502  0.18751029166E+02 -0.67844112303E+02 -0.78372009290E+02  0.10534038404E+03  0.00000000000E+00 0. -1.
         21    1    1    2  504  506  0.74387131115E+02 -0.30998752459E+02 -0.51972557896E+03  0.52593635105E+03  0.00000000000E+00 0.  1.
         21    1    1    2  505  501 -0.44268156183E+02  0.48097295718E+02  0.42887694716E+02  0.78181672183E+02  0.00000000000E+00 0.  1.
         21    1    1    2  506  505 -0.48870004098E+02  0.50745569045E+02 -0.17323180196E+02  0.72549863200E+02  0.00000000000E+00 0. -1.
<scales pt_clust_3="70.38767" pt_clust_4="129.20550" pt_clust_5="57.96992" pt_clust_6="57.96992"></scales>
<clustering>
<clus scale="   57.970">  5  6 -1 -1</clus>
<clus scale="   70.388">  2  3  1 -1</clus>
<clus scale="  129.206">  2  4  1 -1</clus>
<clus scale="  142.534">  1  3  2 -1</clus>
</clustering>
</event>
<event>
 6    0  0.6132510E+002  0.3337743E+03  0.7546771E-02  0.1069479E+00
         21   -1    0    0  505  501  0.00000000000E+00  0.00000000000E+00  0.15819433411E+03  0.15819433411E+03  0.00000000000E+00 0. -1.
         21   -1    0    0  503  502 -0.00000000000E+00 -0.00000000000E+00 -0.30246699522E+04  0.30246699522E+04  0.00000000000E+00 0. -1.
         21    1    1    2  503  506  0.26376552928E+03  0.27407792214E+03 -0.23102972353E+04  0.23414022032E+04  0.00000000000E+00 0. -1.
         21    1    1    2  504  501 -0.60338774593E+02  0.13219439627E+02 -0.62039420827E+02  0.87546622094E+02  0.00000000000E+00 0.  1.
         21    1    1    2  505  502 -0.67295147906E+02 -0.66323096797E+01 -0.43021381509E+03  0.43549575332E+03  0.00000000000E+00 0. -1.
         21    1    1    2  506  504 -0.13613160678E+03 -0.28066505209E+03 -0.63925146860E+02  0.31841970767E+03  0.00000000000E+00 0. -1.
<scales pt_clust_3="14000.00000" pt_clust_4="61.76991" pt_clust_5="68.68889" pt_clust_6="333.77428"></scales>
<clustering>
<clus scale="   61.770">  1  4  2 -1</clus>
<clus scale="   68.689">  2  5  1 -1</clus>
<clus scale="  333.774">  1  6  2 -1</clus>
<clus scale="   61.770">  1  3  2 -1</clus>
</clustering>
</event>
<event>
 6    0  0.6132510E+002  0.2299811E+03  0.7546771E-02  0.1126653E+00
         21   -1    0    0  506  501  0.00000000000E+00  0.00000000000E+00  0.42641743246E+03  0.42641743246E+03  0.00000000000E+00 0.  1.
         21   -1    0    0  503  502 -0.00000000000E+00 -0.00000000000E+00 -0.50938686551E+03  0.50938686551E+03  0.00000000000E+00 0.  1.
         21    1    1    2  503  505 -0.54196609535E+02  0.64579395794E+02 -0.29465225410E+03  0.30647629874E+03  0.00000000000E+00 0.  1.
         21    1    1    2  504  502 -0.44207350425E+02  0.81388237268E+01 -0.63870792454E+01  0.45401817855E+02  0.00000000000E+00 0.  1.
         21    1    1    2  505  501  0.19830474586E+03 -0.24722999134E+03  0.47963936349E+02  0.32054325767E+03  0.00000000000E+00 0.  1.
         21    1    1    2  506  504 -0.99900785897E+02  0.17451177182E+03  0.17010596394E+03  0.26338292370E+03  0.00000000000E+00 0.  1.
<scales pt_clust_3="107.33550" pt_clust_4="44.95031" pt_clust_5="229.98106" pt_clust_6="14000.00000"></scales>
<clustering>
<clus scale="   44.950">  2  4  1 -1</clus>
<clus scale="  107.336">  2  3  1 -1</clus>
<clus scale="  229.981">  2  5  1 -1</clus>
<clus scale="  229.981">  1  3  2 -1</clus>
</clustering>
</event>
<event>
 6    0  0.6132510E+002  0.1202751E+03  0.7546771E-02  0.1242644E+00
         21   -1    0    0  503  501  0.00000000000E+00  0.00000000000E+00  0.72169716097E+03  0.72169716097E+03  0.00000000000E+00 0. -1.
         21   -1    0    0  506  502 -0.00000000000E+00 -0.00000000000E+00 -0.93360409406E+02  0.93360409406E+02  0.00000000000E+00 0.  1.
         21    1    1    2  503  505 -0.41638071816E+02  0.30542381622E+02  0.83577691474E+02  0.98243557610E+02  0.00000000000E+00 0.  1.
         21    1    1    2  504  501 -0.77575118194E+02  0.19084735026E+02  0.56036295166E+03  0.56602894243E+03  0.00000000000E+00 0. -1.
         21    1    1    2  505  502  0.11268258509E+03 -0.16968394548E+02  0.12359588780E+00  0.11395308979E+03  0.00000000000E+00 0.  1.
         21    1    1    2  506  504  0.65306049169E+01 -0.32658722099E+02 -0.15727487454E+02  0.36831980552E+02  0.00000000000E+00 0.  1.
<scales pt_clust_3="49.01319" pt_clust_4="120.27506" pt_clust_5="14000.00000" pt_clust_6="33.30527"></scales>
<clustering>
<clus scale="   33.305">  2  6  1 -1</clus>
<clus scale="   49.013">  1  3  2 -1</clus>
<clus scale="  120.275">  1  4  2 -1</clus>
<clus scale="   49.013">  1  3  2 -1</clus>
</clustering>
</event>
<event>
 6    0  0.6132510E+002  0.1005839E+03  0.7546771E-02  0.1279073E+00
         21   -1    0    0  504  501  0.00000000000E+00  0.00000000000E+00  0.93539042989E+02  0.93539042989E+02  0.00000000000E+00 0.  1.
         21   -1    0    0  503  502 -0.00000000000E+00 -0.00000000000E+00 -0.65047462517E+03  0.65047462517E+03  0.00000000000E+00 0.  1.
         21    1    1    2  503  506  0.12586028282E+02 -0.34744240957E+02 -0.39549961524E+03  0.39722225019E+03  0.00000000000E+00 0.  1.
         21    1    1    2  504  502 -0.23985924086E+02  0.47727713106E+02 -0.11482342492E+03  0.12663995445E+03  0.00000000000E+00 0.  1.
         21    1    1    2  505  501  0.86755330374E+02 -0.61012404885E+02  0.20968123100E+02  0.10811412065E+03  0.00000000000E+00 0.  1.
         21    1    1    2  506  505 -0.75355434570E+02  0.48028932736E+02 -0.67580665118E+02  0.11203734287E+03  0.00000000000E+00 0.  1.
<scales pt_clust_3="36.95362" pt_clust_4="36.04077" pt_clust_5="100.58395" pt_clust_6="14000.00000"></scales>
<clustering>
<clus scale="   36.954">  2  3  1 -1</clus>
<clus scale="   36.041">  2  4  1 -1</clus>
<clus scale="  100.584">  1  5  2 -1</clus>
<clus scale="  100.584">  1  3  2 -1</clus>
</clustering>
</event>
<event>
 6    0  0.6132510E+002  0.3714075E+03  0.7546771E-02  0.1054156E+00
         21   -1    0    0  505  501  0.00000000000E+00  0.00000000000E+00  0.10958289643E+04  0.10958289643E+04  0.00000000000E+00 0.  1.
         21   -1    0    0  506  502 -0.00000000000E+00 -0.00000000000E+00 -0.19519825166E+03  0.19519825166E+03  0.00000000000E+00 0.  1.
         21    1    1    2  503  502  0.10019151463E+03 -0.12427512506E+03  0.15061674701E+03  0.21947220961E+03  0.00000000000E+00 0.  1.
         21    1    1    2  504  501  0.12358460022E+03  0.31473559318E+03  0.31759187504E+03  0.46389249414E+03  0.00000000000E+00 0.  1.
         21    1    1    2  505  503 -0.23876135672E+03 -0.25584273624E+03  0.40486995224E+03  0.53514686711E+03  0.00000000000E+00 0.  1.
         21    1    1    2  506  504  0.14985241868E+02  0.65382268113E+02  0.27552138374E+02  0.72515645115E+02  0.00000000000E+00 0.  1.
<scales pt_clust_3="159.63285" pt_clust_4="31.23534" pt_clust_5="364.72648" pt_clust_6="31.23534"></scales>
<clustering>
<clus scale="   31.235">  4  6 -1 -1</clus>
<clus scale="  159.633">  2  3  1 -1</clus>
<clus scale="  364.726">  1  5  2 -1</clus>
<clus scale="  364.726">  1  3  2 -1</clus>
</clustering>
</event>
<event>
 6    0  0.6132510E+002  0.1044413E+03  0.7546771E-02  0.1271224E+00
         21   -1    0    0  503  501  0.00000000000E+00  0.00000000000E+00  0.55720231905E+03  0.55720231905E+03  0.00000000000E+00 0. -1.
         21   -1    0    0  505  502 -0.00000000000E+00 -0.00000000000E+00 -0.28301474388E+03  0.28301474388E+03  0.00000000000E+00 0. -1.
         21    1    1    2  503  502  0.86070092660E+02  0.37631996940E+02 -0.67386456514E+02  0.11560779630E+03  0.00000000000E+00 0. -1.
         21    1    1    2  504  501 -0.68622179258E+02  0.67330643996E+02  0.22939119959E+03  0.24872221766E+03  0.00000000000E+00 0. -1.
         21    1    1    2  505  506 -0.50459390561E+01  0.35886807398E+02 -0.16274475056E+03  0.16673085582E+03  0.00000000000E+00 0. -1.
         21    1    1    2  506  504 -0.12401974346E+02 -0.14084944833E+03  0.27492758266E+03  0.30915619316E+03  0.00000000000E+00 0. -1.
<scales pt_clust_3="104.44131" pt_clust_4="98.50226" pt_clust_5="36.23982" pt_clust_6="14000.00000"></scales>
<clustering>
<clus scale="   36.240">  2  5  1 -1</clus>
<clus scale="   98.502">  1  4  2 -1</clus>
<clus scale="  104.441">  2  3  1 -1</clus>
<clus scale="   98.502">  1  3  2 -1</clus>
</clustering>
</event>
<event>
 6    0  0.6132510E+002  0.1416128E+03  0.7546771E-02  0.1211175E+00
         21   -1    0    0  505  501  0.00000000000E+00  0.00000000000E+00  0.21976115086E+03  0.21976115086E+03  0.00000000000E+00 0.  1.
         21   -1    0    0  506  502 -0.00000000000E+00 -0.00000000000E+00 -0.54669667481E+03  0.54669667481E+03  0.00000000000E+00 0.  1.
         21    1    1    2  503  501  0.20158328655E+01  0.71709327816E+02  0.12627199777E+03  0.14522709354E+03  0.00000000000E+00 0.  1.
         21    1    1    2  504  503  0.28386568836E+02  0.56750932601E+02  0.46638173217E+02  0.78750141856E+02  0.00000000000E+00 0.  1.
         21    1    1    2  505  502  0.42069870815E+02 -0.26712189269E+02 -0.34377215334E+02  0.60540961506E+02  0.00000000000E+00 0.  1.
         21    1    1    2  506  504 -0.72472272517E+02 -0.10174807115E+03 -0.46546847961E+03  0.48193962877E+03  0.00000000000E+00 0.  1.
<scales pt_clust_3="50.24594" pt_clust_4="50.24594" pt_clust_5="49.83387" pt_clust_6="131.19706"></scales>
<clustering>
<clus scale="   49.834">  2  5  1 -1</clus>
<clus scale="   50.246">  3  4 -1 -1</clus>
<clus scale="  131.197">  2  6  1 -1</clus>
<clus scale="  141.613">  1  3  2 -1</clus>
</clustering>
</event>
<event>
 6    0  0.6132510E+002  0.1309438E+03  0.7546771E-02  0.1226062E+00
         21   -1    0    0  506  501  0.00000000000E+00  0.00000000000E+00  0.57553659897E+03  0.57553659897E+03  0.00000000000E+00 0.  1.
         21   -1    0    0  505  502 -0.00000000000E+00 -0.00000000000E+00 -0.19177186531E+03  0.19177186531E+03  0.00000000000E+00 0.  1.
         21    1    1    2  503  502  0.29969409962E+02  0.18640151220E+02 -0.31821000148E+02  0.47520488438E+02  0.00000000000E+00 0.  1.
         21    1    1    2  504  501  0.24206758603E+02 -0.12545351986E+03  0.44192624409E+03  0.46002538845E+03  0.00000000000E+00 0.  1.
         21    1    1    2  505  504 -0.17025482146E+02 -0.63506506672E+02  0.35590715258E+02  0.74763911378E+02  0.00000000000E+00 0.  1.
         21    1    1    2  506  503 -0.37150686419E+02  0.17031987531E+03 -0.61931225541E+02  0.18499867601E+03  0.00000000000E+00 0.  1.
<scales pt_clust_3="35.29335" pt_clust_4="130.94385" pt_clust_5="62.50848" pt_clust_6="14000.00000"></scales>
<clustering>
<clus scale="   35.293">  2  3  1 -1</clus>
<clus scale="   62.508">  2  5  1 -1</clus>
<clus scale="  130.944">  1  4  2 -1</clus>
<clus scale="  130.944">  1  3  2 -1</clus>
</clustering>
</event>
<event>
 6    0  0.6132510E+002  0.1141668E+03  0.7546771E-02  0.1253043E+00
         21   -1    0    0  504  501  0.00000000000E+00  0.00000000000E+00  0.24292357961E+04  0.24292357961E+04  0.00000000000E+00 0. -1.
         21   -1    0    0  505  502 -0.00000000000E+00 -0.00000000000E+00 -0.50625069604E+03  0.50625069604E+03  0.00000000000E+00 0.  1.
         21    1    1    2  503  502 -0.40399879579E+01  0.39017892392E+02 -0.49167391602E+03  0.49323620825E+03  0.00000000000E+00 0.  1.
         21    1    1    2  504  503 -0.43604770644E+02 -0.20279804536E+02  0.11158907516E+03  0.12151036248E+03  0.00000000000E+00 0. -1.
         21    1    1    2  505  506  0.14006668186E+03 -0.65442716875E+02  0.84710574449E+03  0.86109788462E+03  0.00000000000E+00 0. -1.
         21    1    1    2  506  501 -0.92421923253E+02  0.46704629019E+02  0.14559641964E+04  0.14596420368E+04  0.00000000000E+00 0. -1.
<scales pt_clust_3="39.22649" pt_clust_4="45.48884" pt_clust_5="114.16681" pt_clust_6="14000.00000"></scales>
<clustering>
<clus scale="   39.226">  2  3  1 -1</clus>
<clus scale="   45.489">  2  4  1 -1</clus>
<clus scale="  114.167">  2  5  1 -1</clus>
<clus scale="  114.167">  1  3  2 -1</clus>
</clustering>
</event>
<event>
 6    0  0.6132510E+002  0.9796540E+02  0.7546771E-02  0.1284634E+00
         21   -1    0    0  505  501  0.00000000000E+00  0.00000000000E+00  0.29324700602E+03  0.29324700602E+03  0.00000000000E+00 0.  1.
         21   -1    0    0  506  502 -0.00000000000E+00 -0.00000000000E+00 -0.23344954553E+03  0.23344954553E+03  0.00000000000E+00 0.  1.
         21    1    1    2  503  501  0.70428515440E+02  0.27862184438E+02  0.57503194449E+02  0.95095186422E+02  0.00000000000E+00 0.  1.
         21    1    1    2  504  503  0.36985616084E+02 -0.25346991935E+02 -0.63217835150E+02  0.77504196521E+02  0.00000000000E+00 0.  1.
         21    1    1    2  505  502 -0.11202232409E+03 -0.36521779503E+02  0.19077006012E+03  0.22422323098E+03  0.00000000000E+00 0.  1.
         21    1    1    2  506  504  0.46081925649E+01  0.34006586999E+02 -0.12525795893E+03  0.12987393762E+03  0.00000000000E+00 0.  1.
<scales pt_clust_3="14000.00000" pt_clust_4="40.14207" pt_clust_5="97.96540" pt_clust_6="34.31739"></scales>
<clustering>
<clus scale="   34.317">  2  6  1 -1</clus>
<clus scale="   40.142">  2  4  1 -1</clus>
<clus scale="   97.965">  1  5  2 -1</clus>
<clus scale="   97.965">  1  3  2 -1</clus>
</clustering>
</event>
<event>
 6    0  0.6132510E+002  0.1588336E+03  0.7546771E-02  0.1190020E+00
         21   -1    0    0  505  501  0.00000000000E+00  0.00000000000E+00  0.12477913442E+04  0.12477913442E+04  0.00000000000E+00 0.  1.
         21   -1    0    0  503  502 -0.00000000000E+00 -0.00000000000E+00 -0.12622555588E+04  0.12622555588E+04  0.00000000000E+00 0. -1.
         21    1    1    2  503  504  0.11778069954E+03  0.10445674010E+03 -0.11958091681E+04  0.12061273027E+04  0.00000000000E+00 0. -1.
         21    1    1    2  504  501  0.84738069996E+02  0.48497909373E+02  0.87193484117E+03  0.87738415473E+03  0.00000000000E+00 0.  1.
         21    1    1    2  505  506 -0.25730335437E+02 -0.27248868440E+02  0.15702829995E+03  0.16143865082E+03  0.00000000000E+00 0. -1.
         21    1    1    2  506  502 -0.17678843410E+03 -0.12570578103E+03  0.15238181241E+03  0.26509679472E+03  0.00000000000E+00 0.  1.
<scales pt_clust_3="14000.00000" pt_clust_4="69.36781" pt_clust_5="37.47734" pt_clust_6="158.83362"></scales>
<clustering>
<clus scale="   37.477">  1  5  2 -1</clus>
<clus scale="   69.368">  1  4  2 -1</clus>
<clus scale="  158.834">  1  6  2 -1</clus>
<clus scale="   37.477">  1  3  2 -1</clus>
</clustering>
</event>
<event>
 6    0  0.7527868E+002  0.1478908E+03  0.7546771E-02  0.1203089E+00
         21   -1    0    0  505  501  0.00000000000E+00  0.00000000000E+00  0.17808410003E+04  0.17808410003E+04  0.00000000000E+00 0.  1.
         21   -1    0    0  504  502 -0.00000000000E+00 -0.00000000000E+00 -0.38177226686E+03  0.38177226686E+03  0.00000000000E+00 0.  1.
         21    1    1    2  503  501  0.28283855806E+02  0.10535702065E+03  0.15240493398E+04  0.15279484509E+04  0.00000000000E+00 0.  1.
         21    1    1    2  504  503  0.36985299947E+02 -0.97478958668E+02 -0.34107803719E+03  0.35665710038E+03  0.00000000000E+00 0.  1.
         21    1    1    2  505  506 -0.87529646871E+02  0.33742829223E+02  0.21052569567E+03  0.23048012093E+03  0.00000000000E+00 0.  1.
         21    1    1    2  506  502  0.22260491118E+02 -0.41620891205E+02  0.55717350974E+01  0.47527594948E+02  0.00000000000E+00 0. -1.
<scales pt_clust_3="147.89081" pt_clust_4="14000.00000" pt_clust_5="92.82395" pt_clust_6="47.19987"></scales>
<clustering>
<clus scale="   47.200">  2  6  1 -1</clus>
<clus scale="   92.824">  1  5  2 -1</clus>
<clus scale="  147.891">  1  3  2 -1</clus>
<clus scale="   92.824">  1  3  2 -1</clus>
</clustering>
</event>
<event>
 6    0  0.6132510E+002  0.1057596E+03  0.7546771E-02  0.1268630E+00
         21   -1    0    0  506  501  0.00000000000E+00  0.00000000000E+00  0.13835144783E+03  0.13835144783E+03  0.00000000000E+00 0. -1.
         21   -1    0    0  505  502 -0.00000000000E+00 -0.00000000000E+00 -0.25205611951E+03  0.25205611951E+03  0.00000000000E+00 0. -1.
         21    1    1    2  503  504  0.52510446102E+02  0.77054822243E+02  0.10106025885E+02  0.93791920440E+02  0.00000000000E+00 0. -1.
         21    1    1    2  504  502  0.33903499656E+02 -0.17905263169E+02 -0.12536937939E+02  0.40338821884E+02  0.00000000000E+00 0. -1.
         21    1    1    2  505  501 -0.59259782390E+02 -0.95483409943E+02 -0.15620639067E+03  0.19242983103E+03  0.00000000000E+00 0. -1.
         21    1    1    2  506  503 -0.27154163369E+02  0.36333850870E+02  0.44932631053E+02  0.63846993983E+02  0.00000000000E+00 0. -1.
<scales pt_clust_3="14000.00000" pt_clust_4="38.34118" pt_clust_5="105.75962" pt_clust_6="43.91312"></scales>
<clustering>
<clus scale="   38.341">  2  4  1 -1</clus>
<clus scale="   43.913">  1  6  2 -1</clus>
<clus scale="  105.760">  2  5  1 -1</clus>
<clus scale="   43.913">  1  3  2 -1</clus>
</clustering>
</event>
<event>
 6    0  0.6132510E+002  0.1505765E+03  0.7546771E-02  0.1199766E+00
         21   -1    0    0  505  501  0.00000000000E+00  0.00000000000E+00  0.11073131319E+03  0.11073131319E+03  0.00000000000E+00 0.  1.
         21   -1    0    0  504  502 -0.00000000000E+00 -0.00000000000E+00 -0.32470366430E+03  0.32470366430E+03  0.00000000000E+00 0.  1.
         21    1    1    2  503  501 -0.19134614895E+01 -0.49764292217E+02 -0.16525276013E+02  0.52471238427E+02  0.00000000000E+00 0.  1.
         21    1    1    2  504  506 -0.87361910141E+01  0.12108397992E+03 -0.15991759796E+03  0.20077671519E+03  0.00000000000E+00 0.  1.
         21    1    1    2  505  502 -0.54619731886E+02  0.14348826053E+02 -0.47816348802E+02  0.73997345447E+02  0.00000000000E+00 0. -1.
         21    1    1    2  506  503  0.65269384390E+02 -0.85668513759E+02  0.10286871659E+02  0.10818967842E+03  0.00000000000E+00 0.  1.
<scales pt_clust_3="39.74977" pt_clust_4="138.76704" pt_clust_5="56.47304" pt_clust_6="39.74977"></scales>
<clustering>
<clus scale="   39.750">  3  6 -1 -1</clus>
<clus scale="   56.473">  2  5  1 -1</clus>
<clus scale="  138.767">  2  4  1 -1</clus>
<clus scale="  150.577">  1  3  2 -1</clus>
</clustering>
</event>
<event>
 6    0  0.6132510E+002  0.1063792E+03  0.7546771E-02  0.1267426E+00
         21   -1    0    0  504  501  0.00000000000E+00  0.00000000000E+00  0.37533606298E+03  0.37533606298E+03  0.00000000000E+00 0. -1.
         21   -1    0    0  506  502 -0.00000000000E+00 -0.00000000000E+00 -0.21833369192E+03  0.21833369192E+03  0.00000000000E+00 0. -1.
         21    1    1    2  503  505 -0.27665046992E+02 -0.36418868986E+02  0.69077380644E+02  0.82845478814E+02  0.00000000000E+00 0. -1.
         21    1    1    2  504  503 -0.45939474721E+02 -0.21183859562E+01  0.10643306563E+03  0.11594360852E+03  0.00000000000E+00 0. -1.
         21    1    1    2  505  502  0.87979413087E+02 -0.49690539676E+02 -0.18221662464E+03  0.20835648576E+03  0.00000000000E+00 0. -1.
         21    1    1    2  506  501 -0.14374891373E+02  0.88227794617E+02  0.16370854943E+03  0.18652418181E+03  0.00000000000E+00 0. -1.
<scales pt_clust_3="42.43191" pt_clust_4="42.43191" pt_clust_5="97.49921" pt_clust_6="89.39117"></scales>
<clustering>
<clus scale="   42.432">  3  4 -1 -1</clus>
<clus scale="   89.391">  1  6  2 -1</clus>
<clus scale="   97.499">  2  5  1 -1</clus>
<clus scale="   89.391">  1  3  2 -1</clus>
</clustering>
</event>
<event>
 6    0  0.6132510E+002  0.9229831E+02  0.7546771E-02  0.1297380E+00
         21   -1    0    0  504  501  0.00000000000E+00  0.00000000000E+00  0.35103555228E+03  0.35103555228E+03  0.00000000000E+00 0. -1.
         21   -1    0    0  503  502 -0.00000000000E+00 -0.00000000000E+00 -0.64363291663E+03  0.64363291663E+03  0.00000000000E+00 0. -1.
         21    1    1    2  503  501  0.96237209970E+02 -0.95049887337E+01  0.29135234417E+03  0.30698230217E+03  0.00000000000E+00 0. -1.
         21    1    1    2  504  505 -0.17909739158E+02 -0.43082637185E+02  0.29652113187E+02  0.55282187004E+02  0.00000000000E+00 0. -1.
         21    1    1    2  505  506 -0.85741319912E+02 -0.11427331508E+02 -0.29852102106E+03  0.31080051136E+03  0.00000000000E+00 0. -1.
         21    1    1    2  506  502  0.74138490996E+01  0.64014957426E+02 -0.31508080065E+03  0.32160346837E+03  0.00000000000E+00 0. -1.
<scales pt_clust_3="14000.00000" pt_clust_4="46.65697" pt_clust_5="92.29831" pt_clust_6="63.96888"></scales>
<clustering>
<clus scale="   46.657">  1  4  2 -1</clus>
<clus scale="   63.969">  2  6  1 -1</clus>
<clus scale="   92.298">  2  5  1 -1</clus>
<clus scale="   46.657">  1  3  2 -1</clus>
</clustering>
</event>
<event>
 6    0  0.6132510E+002  0.1699917E+03  0.7546771E-02  0.1177857E+00
         21   -1    0    0  506  501  0.00000000000E+00  0.00000000000E+00  0.81057988960E+03  0.81057988960E+03  0.00000000000E+00 0.  1.
         21   -1    0    0  501  502 -0.00000000000E+00 -0.00000000000E+00 -0.12162410377E+03  0.12162410377E+03  0.00000000000E+00 0.  1.
         21    1    1    2  503  504 -0.63805734000E+02 -0.14482558458E+03  0.35538202865E+03  0.38902700154E+03  0.00000000000E+00 0.  1.
         21    1    1    2  504  505  0.93604307943E+02  0.13411454868E+03  0.12994015293E+03  0.20888494914E+03  0.00000000000E+00 0.  1.
         21    1    1    2  505  502  0.42670846034E+01  0.34104186805E+02 -0.59078900428E+02  0.68349250504E+02  0.00000000000E+00 0.  1.
         21    1    1    2  506  503 -0.34065658547E+02 -0.23393150906E+02  0.26271250467E+03  0.26594279218E+03  0.00000000000E+00 0.  1.
<scales pt_clust_3="169.99167" pt_clust_4="14000.00000" pt_clust_5="34.37010" pt_clust_6="40.69418"></scales>
<clustering>
<clus scale="   34.370">  2  5  1 -1</clus>
<clus scale="   40.694">  1  6  2 -1</clus>
<clus scale="  169.992">  1  3  2 -1</clus>
<clus scale="   40.694">  1  3  2 -1</clus>
</clustering>
</event>
<event>
 6    0  0.6132510E+002  0.2514625E+03  0.7546771E-02  0.1112384E+00
         21   -1    0    0  505  501  0.00000000000E+00  0.00000000000E+00  0.15126209137E+04  0.15126209137E+04  0.00000000000E+00 0. -1.
         21   -1    0    0  506  502 -0.00000000000E+00 -0.00000000000E+00 -0.27031875496E+03  0.27031875496E+03  0.00000000000E+00 0.  1.
         21    1    1    2  503  504 -0.54685404420E+02  0.80379519857E+02  0.52743802696E+03  0.53632288125E+03  0.00000000000E+00 0. -1.
         21    1    1    2  504  502 -0.12467221697E+03 -0.22150964770E+03 -0.16196653100E+03  0.30140146461E+03  0.00000000000E+00 0.  1.
         21    1    1    2  505  503 -0.63243890241E+02  0.29898811723E+02  0.87744258231E+02  0.11221757192E+03  0.00000000000E+00 0. -1.
         21    1    1    2  506  501  0.24260151163E+03  0.11123131612E+03  0.78908640456E+03  0.83299775090E+03  0.00000000000E+00 0. -1.
<scales pt_clust_3="120.66153" pt_clust_4="251.46253" pt_clust_5="69.95519" pt_clust_6="14000.00000"></scales>
<clustering>
<clus scale="   69.955">  1  5  2 -1</clus>
<clus scale="  120.662">  1  3  2 -1</clus>
<clus scale="  251.463">  2  4  1 -1</clus>
<clus scale="   69.955">  1  3  2 -1</clus>
</clustering>
</event>
<event>
 6    0  0.6132510E+002  0.1368176E+03  0.7546771E-02  0.1217676E+00
         21   -1    0    0  505  501  0.00000000000E+00  0.00000000000E+00  0.36805819214E+03  0.36805819214E+03  0.00000000000E+00 0. -1.
         21   -1    0    0  503  502 -0.00000000000E+00 -0.00000000000E+00 -0.14641919424E+03  0.14641919424E+03  0.00000000000E+00 0. -1.
         21    1    1    2  503  501  0.15278326511E+03  0.82302089393E+02 -0.77089396410E+01  0.17371179513E+03  0.00000000000E+00 0. -1.
         21    1    1    2  504  506 -0.75201812390E+02 -0.83107182141E+02  0.16035042759E+03  0.19563838053E+03  0.00000000000E+00 0. -1.
         21    1    1    2  505  504 -0.39166958950E+02  0.61616886904E+01  0.91897131023E+02  0.10008546234E+03  0.00000000000E+00 0. -1.
         21    1    1    2  506  502 -0.38414493774E+02 -0.53565959433E+01 -0.22899621062E+02  0.45041748377E+02  0.00000000000E+00 0. -1.
<scales pt_clust_3="136.81755" pt_clust_4="14000.00000" pt_clust_5="41.00206" pt_clust_6="38.78616"></scales>
<clustering>
<clus scale="   38.786">  2  6  1 -1</clus>
<clus scale="   41.002">  1  5  2 -1</clus>
<clus scale="  136.818">  2  3  1 -1</clus>
<clus scale="   41.002">  1  3  2 -1</clus>
</clustering>
</event>
<event>
 6    0  0.6132510E+002  0.7004919E+02  0.7546771E-02  0.1359926E+00
         21   -1    0    0  506  501  0.00000000000E+00  0.00000000000E+00  0.52468578879E+02  0.52468578879E+02  0.00000000000E+00 0.  1.
         21   -1    0    0  504  502 -0.00000000000E+00 -0.00000000000E+00 -0.18630016142E+04  0.18630016142E+04  0.00000000000E+00 0.  1.
         21    1    1    2  503  502 -0.34592214907E+01  0.62143061409E+02 -0.15333774917E+04  0.15346401071E+04  0.00000000000E+00 0.  1.
         21    1    1    2  504  505  0.69810418126E+02 -0.45316194754E+02 -0.21916021744E+03  0.23443176597E+03  0.00000000000E+00 0. -1.
         21    1    1    2  505  501  0.13619075020E+02  0.32647735912E+02 -0.34626603337E+02  0.49501065879E+02  0.00000000000E+00 0.  1.
         21    1    1    2  506  503 -0.79970271655E+02 -0.49474602566E+02 -0.23368722834E+02  0.96897254113E+02  0.00000000000E+00 0.  1.
<scales pt_clust_3="62.68602" pt_clust_4="70.04919" pt_clust_5="35.37448" pt_clust_6="14000.00000"></scales>
<clustering>
<clus scale="   35.374">  1  5  2 -1</clus>
<clus scale="   62.686">  2  3  1 -1</clus>
<clus scale="   70.049">  2  4  1 -1</clus>
<clus scale="   35.374">  1  3  2 -1</clus>
</clustering>
</event>
<event>
 6    0  0.6132510E+002  0.1862958E+03  0.7546771E-02  0.1161845E+00
         21   -1    0    0  506  501  0.00000000000E+00  0.00000000000E+00  0.11905724509E+04  0.11905724509E+04  0.00000000000E+00 0.  1.
         21   -1    0    0  503  502 -0.00000000000E+00 -0.00000000000E+00 -0.14620947707E+04  0.14620947707E+04  0.00000000000E+00 0. -1.
         21    1    1    2  503  504  0.18287538575E+03  0.65279879483E+02 -0.12369111900E+04  0.12520599671E+04  0.00000000000E+00 0. -1.
         21    1    1    2  504  505  0.36003177100E+02  0.14447243132E+03  0.30296146974E+03  0.33757097671E+03  0.00000000000E+00 0.  1.
         21    1    1    2  505  501 -0.12017961061E+03 -0.18658025038E+03  0.83439618801E+03  0.86340739353E+03  0.00000000000E+00 0.  1.
         21    1    1    2  506  502 -0.98698952237E+02 -0.23172060429E+02 -0.17196878757E+03  0.19962888432E+03  0.00000000000E+00 0.  1.
<scales pt_clust_3="96.58109" pt_clust_4="186.29583" pt_clust_5="14000.00000" pt_clust_6="101.38258"></scales>
<clustering>
<clus scale="  101.383">  2  6  1 -1</clus>
<clus scale="   96.581">  2  3  1 -1</clus>
<clus scale="  186.296">  2  4  1 -1</clus>
<clus scale="  186.296">  1  3  2 -1</clus>
</clustering>
</event>
<event>
 6    0  0.6132510E+002  0.9237957E+02  0.7546771E-02  0.1297189E+00
         21   -1    0    0  503  501  0.00000000000E+00  0.00000000000E+00  0.28564608845E+03  0.28564608845E+03  0.00000000000E+00 0. -1.
         21   -1    0    0  506  502 -0.00000000000E+00 -0.00000000000E+00 -0.15125114135E+04  0.15125114135E+04  0.00000000000E+00 0. -1.
         21    1    1    2  503  502  0.49939652049E+01  0.35699870206E+02  0.14773969209E+03  0.15207378814E+03  0.00000000000E+00 0. -1.
         21    1    1    2  504  501  0.26996737627E+02  0.26192709748E+02  0.50932047881E+02  0.63316312178E+02  0.00000000000E+00 0. -1.
         21    1    1    2  505  504 -0.11803462451E+03 -0.92802584134E+02  0.41055145895E+01  0.15020435232E+03  0.00000000000E+00 0. -1.
         21    1    1    2  506  505  0.86043921679E+02  0.30910004179E+02 -0.14296425796E+04  0.14325630493E+04  0.00000000000E+00 0. -1.
<scales pt_clust_3="36.04747" pt_clust_4="50.45314" pt_clust_5="14000.00000" pt_clust_6="92.37957"></scales>
<clustering>
<clus scale="   36.047">  1  3  2 -1</clus>
<clus scale="   50.453">  1  4  2 -1</clus>
<clus scale="   92.380">  2  6  1 -1</clus>
<clus scale="   36.047">  1  3  2 -1</clus>
</clustering>
</event>
<event>
 6    0  0.6132510E+002  0.3000469E+03  0.7546771E-02  0.1085217E+00
         21   -1    0    0  505  501  0.00000000000E+00  0.00000000000E+00  0.35377156622E+03  0.35377156622E+03  0.00000000000E+00 0.  1.
         21   -1    0    0  504  502 -0.00000000000E+00 -0.00000000000E+00 -0.48935854510E+03  0.48935854510E+03  0.00000000000E+00 0. -1.
         21    1    1    2  503  506 -0.18082719221E+03 -0.97244120848E+02 -0.78581995300E+02  0.21984090263E+03  0.00000000000E+00 0. -1.
         21    1    1    2  504  503 -0.38017723878E+02  0.11381923777E+02 -0.21059149988E+03  0.21429809925E+03  0.00000000000E+00 0. -1.
         21    1    1    2  505  502  0.25381020442E+03  0.15238835709E+03  0.15428044724E+03  0.33383272405E+03  0.00000000000E+00 0.  1.
         21    1    1    2  506  501 -0.34965288327E+02 -0.66526160022E+02 -0.69393093992E+00  0.75158385395E+02  0.00000000000E+00 0.  1.
<scales pt_clust_3="50.41518" pt_clust_4="39.68495" pt_clust_5="287.53323" pt_clust_6="50.41518"></scales>
<clustering>
<clus scale="   39.685">  2  4  1 -1</clus>
<clus scale="   50.415">  3  6 -1 -1</clus>
<clus scale="  287.533">  1  5  2 -1</clus>
<clus scale="  287.533">  1  3  2 -1</clus>
</clustering>
</event>
<event>
 6    0  0.6132510E+002  0.1456403E+03  0.7546771E-02  0.1205935E+00
         21   -1    0    0  506  501  0.00000000000E+00  0.00000000000E+00  0.22643979783E+04  0.22643979783E+04  0.00000000000E+00 0. -1.
         21   -1    0    0  504  502 -0.00000000000E+00 -0.00000000000E+00 -0.27683666341E+03  0.27683666341E+03  0.00000000000E+00 0. -1.
         21    1    1    2  503  501 -0.99733379204E+02  0.22892308978E+02  0.11430917645E+04  0.11476626625E+04  0.00000000000E+00 0. -1.
         21    1    1    2  504  503  0.69666305845E+00 -0.56408240209E+02 -0.24795036121E+03  0.25428676042E+03  0.00000000000E+00 0. -1.
         21    1    1    2  505  502 -0.85823920787E+02  0.95112432615E+02  0.46272168543E+03  0.48012860609E+03  0.00000000000E+00 0.  1.
         21    1    1    2  506  505  0.18486063693E+03 -0.61596501384E+02  0.62969822610E+03  0.65915661267E+03  0.00000000000E+00 0. -1.
<scales pt_clust_3="101.26244" pt_clust_4="56.41254" pt_clust_5="14000.00000" pt_clust_6="145.64027"></scales>
<clustering>
<clus scale="   56.413">  2  4  1 -1</clus>
<clus scale="  101.262">  1  3  2 -1</clus>
<clus scale="  145.640">  1  6  2 -1</clus>
<clus scale="  101.262">  1  3  2 -1</clus>
</clustering>
</event>
<event>
 6    0  0.6132510E+002  0.8751089E+02  0.7546771E-02  0.1308994E+00
         21   -1    0    0  505  501  0.00000000000E+00  0.00000000000E+00  0.13897538323E+04  0.13897538323E+04  0.00000000000E+00 0. -1.
         21   -1    0    0  506  502 -0.00000000000E+00 -0.00000000000E+00 -0.22099524379E+03  0.22099524379E+03  0.00000000000E+00 0.  1.
         21    1    1    2  503  504  0.25380879078E+02 -0.43767980917E+02  0.12413921567E+03  0.13405360884E+03  0.00000000000E+00 0.  1.
         21    1    1    2  504  501 -0.76863055572E+02 -0.47074064114E+02  0.10511471081E+04  0.10550043316E+04  0.00000000000E+00 0. -1.
         21    1    1    2  505  502  0.12743706774E+02  0.10321376478E+03  0.19236838414E+03  0.21868031123E+03  0.00000000000E+00 0.  1.
         21    1    1    2  506  503  0.38738469719E+02 -0.12371719745E+02 -0.19889611944E+03  0.20301082438E+03  0.00000000000E+00 0.  1.
<scales pt_clust_3="58.44012" pt_clust_4="87.51089" pt_clust_5="14000.00000" pt_clust_6="40.66606"></scales>
<clustering>
<clus scale="   40.666">  2  6  1 -1</clus>
<clus scale="   58.440">  2  3  1 -1</clus>
<clus scale="   87.511">  1  4  2 -1</clus>
<clus scale="   87.511">  1  3  2 -1</clus>
</clustering>
</event>
<event>
 6    0  0.6132510E+002  0.8969097E+02  0.7546771E-02  0.1303602E+00
         21   -1    0    0  503  501  0.00000000000E+00  0.00000000000E+00  0.18867185781E+03  0.18867185781E+03  0.00000000000E+00 0. -1.
         21   -1    0    0  506  502 -0.00000000000E+00 -0.00000000000E+00 -0.97609360410E+03  0.97609360410E+03  0.00000000000E+00 0.  1.
         21    1    1    2  503  502  0.61016946100E+02 -0.32148941340E+02 -0.28215445025E+02  0.74516665778E+02  0.00000000000E+00 0. -1.
         21    1    1    2  504  501  0.16542552265E+02 -0.49262991677E+02  0.11710504883E+03  0.12811748845E+03  0.00000000000E+00 0. -1.
         21    1    1    2  505  504 -0.53944483191E+02  0.12159126343E+03 -0.62474147417E+02  0.14696074886E+03  0.00000000000E+00 0. -1.
         21    1    1    2  506  505 -0.23615015174E+02 -0.40179330411E+02 -0.81383720268E+03  0.81517055884E+03  0.00000000000E+00 0.  1.
<scales pt_clust_3="14000.00000" pt_clust_4="53.02161" pt_clust_5="89.69097" pt_clust_6="46.60523"></scales>
<clustering>
<clus scale="   46.605">  2  6  1 -1</clus>
<clus scale="   53.022">  1  4  2 -1</clus>
<clus scale="   89.691">  1  5  2 -1</clus>
<clus scale="   53.022">  1  3  2 -1</clus>
</clustering>
</event>
<event>
 6    0  0.6132510E+002  0.1382655E+03  0.7546771E-02  0.1215682E+00
         21   -1    0    0  506  501  0.00000000000E+00  0.00000000000E+00  0.11469355607E+04  0.11469355607E+04  0.00000000000E+00 0.  1.
         21   -1    0    0  505  502 -0.00000000000E+00 -0.00000000000E+00 -0.12744078802E+03  0.12744078802E+03  0.00000000000E+00 0.  1.
         21    1    1    2  503  501  0.65772380697E+02  0.10318742831E+03  0.99190251682E+03  0.99942196009E+03  0.00000000000E+00 0.  1.
         21    1    1    2  504  502 -0.52206466079E+02 -0.59434672568E+02  0.25679332537E+02  0.83171049791E+02  0.00000000000E+00 0.  1.
         21    1    1    2  505  503  0.41267745271E+02 -0.19864596135E+02 -0.78908798548E+02  0.91237204405E+02  0.00000000000E+00 0.  1.
         21    1    1    2  506  504 -0.54833659889E+02 -0.23888159610E+02  0.80821721869E+02  0.10054613445E+03  0.00000000000E+00 0.  1.
<scales pt_clust_3="122.91503" pt_clust_4="52.82156" pt_clust_5="45.79988" pt_clust_6="52.82156"></scales>
<clustering>
<clus scale="   45.800">  2  5  1 -1</clus>
<clus scale="   52.822">  4  6 -1 -1</clus>
<clus scale="  122.915">  1  3  2 -1</clus>
<clus scale="  122.915">  1  3  2 -1</clus>
</clustering>
</event>
<event>
 6    0  0.6132510E+002  0.1621251E+03  0.7546771E-02  0.1186318E+00
         21   -1    0    0  506  501  0.00000000000E+00  0.00000000000E+00  0.13345834678E+04  0.13345834678E+04  0.00000000000E+00 0.  1.
         21   -1    0    0  503  502 -0.00000000000E+00 -0.00000000000E+00 -0.10765506048E+03  0.10765506048E+03  0.00000000000E+00 0.  1.
         21    1    1    2  503  504 -0.27590734993E+02 -0.21503007408E+02  0.60456568307E+02  0.69847151957E+02  0.00000000000E+00 0. -1.
         21    1    1    2  504  501 -0.96924157524E+02  0.21589097501E+02  0.27043155086E+03  0.28808610717E+03  0.00000000000E+00 0.  1.
         21    1    1    2  505  502  0.77637617811E+02  0.14731459747E+03 -0.84015670248E+01  0.16673265024E+03  0.00000000000E+00 0.  1.
         21    1    1    2  506  505  0.46877274706E+02 -0.14740068757E+03  0.90444185515E+03  0.91757261888E+03  0.00000000000E+00 0.  1.
<scales pt_clust_3="33.18067" pt_clust_4="136.48909" pt_clust_5="162.12507" pt_clust_6="14000.00000"></scales>
<clustering>
<clus scale="   33.181">  3  4 -1 -1</clus>
<clus scale="  136.489">  1  3  2 -1</clus>
<clus scale="  162.125">  2  5  1 -1</clus>
<clus scale="  136.489">  1  3  2 -1</clus>
</clustering>
</event>
<event>
 6    0  0.6132510E+002  0.1430645E+03  0.7546771E-02  0.1209264E+00
         21   -1    0    0  505  501  0.00000000000E+00  0.00000000000E+00  0.52925225825E+03  0.52925225825E+03  0.00000000000E+00 0. -1.
         21   -1    0    0  506  502 -0.00000000000E+00 -0.00000000000E+00 -0.55264589108E+02  0.55264589108E+02  0.00000000000E+00 0.  1.
         21    1    1    2  503  501 -0.83767541002E+01 -0.54599481819E+02  0.10116043899E+03  0.11525930696E+03  0.00000000000E+00 0.  1.
         21    1    1    2  504  502 -0.95328969906E+02  0.64447842807E-01  0.13896777022E+03  0.16852198022E+03  0.00000000000E+00 0. -1.
         21    1    1    2  505  504 -0.34806067685E+02  0.30575704928E+02  0.79078659042E+02  0.91650261296E+02  0.00000000000E+00 0. -1.
         21    1    1    2  506  503  0.13851179169E+03  0.23959329048E+02  0.15478080090E+03  0.20908529889E+03  0.00000000000E+00 0.  1.
<scales pt_clust_3="55.23833" pt_clust_4="33.22454" pt_clust_5="33.22454" pt_clust_6="134.89268"></scales>
<clustering>
<clus scale="   33.225">  4  5 -1 -1</clus>
<clus scale="   55.238">  1  3  2 -1</clus>
<clus scale="  134.893">  2  6  1 -1</clus>
<clus scale="   55.238">  1  3  2 -1</clus>
</clustering>
</event>
<event>
 6    0  0.6132510E+002  0.9939329E+02  0.7546771E-02  0.1281577E+00
         21   -1    0    0  504  501  0.00000000000E+00  0.00000000000E+00  0.30170230736E+03  0.30170230736E+03  0.00000000000E+00 0.  1.
         21   -1    0    0  506  502 -0.00000000000E+00 -0.00000000000E+00 -0.67378381009E+03  0.67378381009E+03  0.00000000000E+00 0.  1.
         21    1    1    2  503  502  0.91437118135E+02 -0.30477681869E+02 -0.52332977201E+03  0.53213126758E+03  0.00000000000E+00 0.  1.
         21    1    1    2  504  503  0.21601196180E+02 -0.28338466119E+02 -0.54717476912E+01  0.36050247727E+02  0.00000000000E+00 0.  1.
         21    1    1    2  505  501 -0.14491066398E+02 -0.35386725716E+02  0.24298440322E+03  0.24597485963E+03  0.00000000000E+00 0.  1.
         21    1    1    2  506  505 -0.98547247917E+02  0.94202873704E+02 -0.86264386254E+02  0.16132974252E+03  0.00000000000E+00 0.  1.
<scales pt_clust_3="99.39329" pt_clust_4="35.63257" pt_clust_5="59.70683" pt_clust_6="14000.00000"></scales>
<clustering>
<clus scale="   35.633">  1  4  2 -1</clus>
<clus scale="   59.707">  1  5  2 -1</clus>
<clus scale="   99.393">  2  3  1 -1</clus>
<clus scale="   35.633">  1  3  2 -1</clus>
</clustering>
</event>
<event>
 6    0  0.6132510E+002  0.1018184E+03  0.7546771E-02  0.1276518E+00
         21   -1    0    0  505  501  0.00000000000E+00  0.00000000000E+00  0.13846558932E+03  0.13846558932E+03  0.00000000000E+00 0. -1.
         21   -1    0    0  504  502 -0.00000000000E+00 -0.00000000000E+00 -0.69503668305E+03  0.69503668305E+03  0.00000000000E+00 0. -1.
         21    1    1    2  503  506  0.11594287561E+01 -0.33760347975E+02  0.12435001278E+02  0.35996314078E+02  0.00000000000E+00 0. -1.
         21    1    1    2  504  503 -0.10704124351E+03  0.55066713697E+02 -0.46241105826E+03  0.47782230753E+03  0.00000000000E+00 0. -1.
         21    1    1    2  505  502  0.77077330485E+02 -0.29738593257E+02 -0.20275940163E+03  0.21894445358E+03  0.00000000000E+00 0. -1.
         21    1    1    2  506  501  0.28804484265E+02  0.84322275347E+01  0.96164364890E+02  0.10073919719E+03  0.00000000000E+00 0. -1.
<scales pt_clust_3="34.15965" pt_clust_4="101.81840" pt_clust_5="14000.00000" pt_clust_6="30.01334"></scales>
<clustering>
<clus scale="   30.013">  1  6  2 -1</clus>
<clus scale="   34.160">  1  3  2 -1</clus>
<clus scale="  101.818">  2  4  1 -1</clus>
<clus scale="   30.013">  1  3  2 -1</clus>
</clustering>
</event>
<event>
 6    0  0.6132510E+002  0.1292707E+03  0.7546771E-02  0.1228542E+00
         21   -1    0    0  505  501  0.00000000000E+00  0.00000000000E+00  0.11851659708E+03  0.11851659708E+03  0.00000000000E+00 0.  1.
         21   -1    0    0  506  502 -0.00000000000E+00 -0.00000000000E+00 -0.68622280627E+03  0.68622280627E+03  0.00000000000E+00 0.  1.
         21    1    1    2  503  502 -0.94953175775E+02  0.88304580835E+02 -0.53885029314E+03  0.55423230058E+03  0.00000000000E+00 0.  1.
         21    1    1    2  504  501  0.18679524650E+02 -0.50536044401E+02 -0.24844917349E+02  0.59330315548E+02  0.00000000000E+00 0.  1.
         21    1    1    2  505  503 -0.33090372841E+02  0.27740446793E+02 -0.39843346103E+02  0.58753701089E+02  0.00000000000E+00 0. -1.
         21    1    1    2  506  504  0.10936402397E+03 -0.65508983226E+02  0.35832347401E+02  0.13242308613E+03  0.00000000000E+00 0.  1.
<scales pt_clust_3="129.27073" pt_clust_4="48.06966" pt_clust_5="43.17992" pt_clust_6="14000.00000"></scales>
<clustering>
<clus scale="   43.180">  1  5  2 -1</clus>
<clus scale="   48.070">  1  4  2 -1</clus>
<clus scale="  129.271">  2  3  1 -1</clus>
<clus scale="   43.180">  1  3  2 -1</clus>
</clustering>
</event>
<event>
 6    0  0.6132510E+002  0.2028430E+03  0.7546771E-02  0.1147362E+00
         21   -1    0    0  503  501  0.00000000000E+00  0.00000000000E+00  0.16938617780E+04  0.16938617780E+04  0.00000000000E+00 0. -1.
         21   -1    0    0  504  502 -0.00000000000E+00 -0.00000000000E+00 -0.45862529600E+02  0.45862529600E+02  0.00000000000E+00 0. -1.
         21    1    1    2  503  502  0.12937021116E+03 -0.18271144939E+03  0.73210082960E+03  0.76556629365E+03  0.00000000000E+00 0. -1.
         21    1    1    2  504  506  0.19856996286E+02 -0.25625832430E+02  0.30802513691E+02  0.44718882353E+02  0.00000000000E+00 0. -1.
         21    1    1    2  505  501 -0.79095517706E+02  0.17211082583E+03  0.74431844221E+03  0.76804178318E+03  0.00000000000E+00 0. -1.
         21    1    1    2  506  505 -0.70131689736E+02  0.36226455991E+02  0.14077746294E+03  0.16139734847E+03  0.00000000000E+00 0. -1.
<scales pt_clust_3="202.84304" pt_clust_4="32.41888" pt_clust_5="14000.00000" pt_clust_6="71.23544"></scales>
<clustering>
<clus scale="   32.419">  2  4  1 -1</clus>
<clus scale="   71.235">  2  6  1 -1</clus>
<clus scale="  202.843">  2  3  1 -1</clus>
<clus scale="  202.843">  1  3  2 -1</clus>
</clustering>
</event>
<event>
 6    0  0.6132510E+002  0.1383654E+03  0.7546771E-02  0.1215545E+00
         21   -1    0    0  506  501  0.00000000000E+00  0.00000000000E+00  0.85788605967E+03  0.85788605967E+03  0.00000000000E+00 0. -1.
         21   -1    0    0  505  502 -0.00000000000E+00 -0.00000000000E+00 -0.22950094667E+03  0.22950094667E+03  0.00000000000E+00 0.  1.
         21    1    1    2  503  502  0.55734655149E+01 -0.12098922846E+03 -0.19460941731E+03  0.22922103356E+03  0.00000000000E+00 0.  1.
         21    1    1    2  504  501  0.83738577132E+01  0.52674179539E+02  0.29719827116E+03  0.30194619233E+03  0.00000000000E+00 0. -1.
         21    1    1    2  505  504  0.56892229852E+01  0.12123235447E+03  0.30342883708E+03  0.32680071941E+03  0.00000000000E+00 0. -1.
         21    1    1    2  506  503 -0.19636546213E+02 -0.52917305553E+02  0.22236742207E+03  0.22941906104E+03  0.00000000000E+00 0. -1.
<scales pt_clust_3="122.54177" pt_clust_4="42.59484" pt_clust_5="42.59484" pt_clust_6="56.44320"></scales>
<clustering>
<clus scale="   42.595">  4  5 -1 -1</clus>
<clus scale="   56.443">  1  6  2 -1</clus>
<clus scale="  122.542">  2  3  1 -1</clus>
<clus scale="   56.443">  1  3  2 -1</clus>
</clustering>
</event>
<event>
 6    0  0.6132510E+002  0.8165761E+02  0.7546771E-02  0.1324412E+00
         21   -1    0    0  506  501  0.00000000000E+00  0.00000000000E+00  0.22087233744E+02  0.22087233744E+02  0.00000000000E+00 0. -1.
         21   -1    0    0  503  502 -0.00000000000E+00 -0.00000000000E+00 -0.14309029477E+04  0.14309029477E+04  0.00000000000E+00 0.  1.
         21    1    1    2  503  504  0.20324372055E+02  0.49066915344E+02 -0.35998826885E+03  0.36388486639E+03  0.00000000000E+00 0. -1.
         21    1    1    2  504  501 -0.91010776853E+01  0.70076436039E+02 -0.11734199500E+03  0.13697693344E+03  0.00000000000E+00 0. -1.
         21    1    1    2  505  502 -0.50276847023E+02 -0.12067931762E+02 -0.58710738063E+03  0.58937973559E+03  0.00000000000E+00 0.  1.
         21    1    1    2  506  505  0.39053552654E+02 -0.10707541962E+03 -0.34437806946E+03  0.36274864602E+03  0.00000000000E+00 0.  1.
<scales pt_clust_3="43.90192" pt_clust_4="14000.00000" pt_clust_5="51.70490" pt_clust_6="81.65761"></scales>
<clustering>
<clus scale="   51.705">  2  5  1 -1</clus>
<clus scale="   43.902">  2  3  1 -1</clus>
<clus scale="   81.658">  2  6  1 -1</clus>
<clus scale="   81.658">  1  3  2 -1</clus>
</clustering>
</event>
<event>
 6    0  0.6132510E+002  0.1201917E+03  0.7546771E-02  0.1242781E+00
         21   -1    0    0  505  501  0.00000000000E+00  0.00000000000E+00  0.74295712638E+03  0.74295712638E+03  0.00000000000E+00 0.  1.
         21   -1    0    0  506  502 -0.00000000000E+00 -0.00000000000E+00 -0.20262166514E+03  0.20262166514E+03  0.00000000000E+00 0.  1.
         21    1    1    2  503  504 -0.63462421927E+02  0.53172957206E+02  0.48444678342E+03  0.49147078076E+03  0.00000000000E+00 0.  1.
         21    1    1    2  504  501 -0.35379793756E+02 -0.64520298960E+01  0.20151581212E+03  0.20469973383E+03  0.00000000000E+00 0.  1.
         21    1    1    2  505  502  0.14040484973E+03 -0.43778123770E+02 -0.69593149133E+02  0.16270603048E+03  0.00000000000E+00 0.  1.
         21    1    1    2  506  503 -0.41562634044E+02 -0.29428035396E+01 -0.76033985164E+02  0.86702246460E+02  0.00000000000E+00 0.  1.
<scales pt_clust_3="30.60287" pt_clust_4="30.60287" pt_clust_5="110.86018" pt_clust_6="41.66669"></scales>
<clustering>
<clus scale="   30.603">  3  4 -1 -1</clus>
<clus scale="   41.667">  2  6  1 -1</clus>
<clus scale="  110.860">  2  5  1 -1</clus>
<clus scale="  120.192">  1  3  2 -1</clus>
</clustering>
</event>
<event>
 6    0  0.6132510E+002  0.7603008E+02  0.7546771E-02  0.1340711E+00
         21   -1    0    0  506  501  0.00000000000E+00  0.00000000000E+00  0.13419075186E+04  0.13419075186E+04  0.00000000000E+00 0.  1.
         21   -1    0    0  505  502 -0.00000000000E+00 -0.00000000000E+00 -0.16021108044E+03  0.16021108044E+03  0.00000000000E+00 0. -1.
         21    1    1    2  503  501 -0.72967085822E+02 -0.46504726737E+02  0.10423953770E+04  0.10459804048E+04  0.00000000000E+00 0.  1.
         21    1    1    2  504  502 -0.17204229709E+02 -0.49514564084E+02  0.51853531201E+02  0.73732396369E+02  0.00000000000E+00 0.  1.
         21    1    1    2  505  503  0.51246724608E+02  0.11590037659E+03 -0.11752015594E+03  0.17282971715E+03  0.00000000000E+00 0. -1.
         21    1    1    2  506  504  0.38924590922E+02 -0.19881085767E+02  0.20496768586E+03  0.20957608069E+03  0.00000000000E+00 0.  1.
<scales pt_clust_3="14000.00000" pt_clust_4="52.80497" pt_clust_5="76.03008" pt_clust_6="43.70791"></scales>
<clustering>
<clus scale="   43.708">  1  6  2 -1</clus>
<clus scale="   52.805">  2  4  1 -1</clus>
<clus scale="   76.030">  2  5  1 -1</clus>
<clus scale="   43.708">  1  3  2 -1</clus>
</clustering>
</event>
<event>
 6    0  0.6132510E+002  0.1124739E+03  0.7546771E-02  0.1256056E+00
         21   -1    0    0  503  501  0.00000000000E+00  0.00000000000E+00  0.31482672956E+02  0.31482672956E+02  0.00000000000E+00 0.  1.
         21   -1    0    0  505  502 -0.00000000000E+00 -0.00000000000E+00 -0.10854956621E+04  0.10854956621E+04  0.00000000000E+00 0.  1.
         21    1    1    2  503  504  0.80121058509E+02  0.50163500324E+01 -0.10449226837E+03  0.13176942716E+03  0.00000000000E+00 0.  1.
         21    1    1    2  504  502 -0.78629307493E+02 -0.86657288767E+02 -0.80823193006E+03  0.81665837806E+03  0.00000000000E+00 0.  1.
         21    1    1    2  505  506 -0.19197779603E+02  0.28464618770E+02 -0.69092830193E+02  0.77153149304E+02  0.00000000000E+00 0.  1.
         21    1    1    2  506  501  0.17706028587E+02  0.53176319964E+02 -0.72195960541E+02  0.91397380551E+02  0.00000000000E+00 0.  1.
<scales pt_clust_3="80.27794" pt_clust_4="104.26454" pt_clust_5="33.01473" pt_clust_6="33.01473"></scales>
<clustering>
<clus scale="   33.015">  5  6 -1 -1</clus>
<clus scale="   80.278">  1  3  2 -1</clus>
<clus scale="  104.265">  2  4  1 -1</clus>
<clus scale="   80.278">  1  3  2 -1</clus>
</clustering>
</event>
<event>
 6    0  0.6132510E+002  0.1622173E+03  0.7546771E-02  0.1186216E+00
         21   -1    0    0  503  501  0.00000000000E+00  0.00000000000E+00  0.24253399467E+03  0.24253399467E+03  0.00000000000E+00 0.  1.
         21   -1    0    0  505  502 -0.00000000000E+00 -0.00000000000E+00 -0.48612635850E+03  0.48612635850E+03  0.00000000000E+00 0.  1.
         21    1    1    2  503  506 -0.62990061258E+02 -0.18532624870E+03  0.38618560565E+02  0.19951180290E+03  0.00000000000E+00 0.  1.
         21    1    1    2  504  501  0.89095338156E+02  0.10153131668E+03 -0.22653342793E+02  0.13696627865E+03  0.00000000000E+00 0.  1.
         21    1    1    2  505  504 -0.63492253235E+02  0.12508368154E+03 -0.14670569464E+02  0.14104048787E+03  0.00000000000E+00 0.  1.
         21    1    1    2  506  502  0.37386976336E+02 -0.41288749523E+02 -0.24488701214E+03  0.25114178376E+03  0.00000000000E+00 0.  1.
<scales pt_clust_3="162.21735" pt_clust_4="14000.00000" pt_clust_5="122.79766" pt_clust_6="55.70051"></scales>
<clustering>
<clus scale="   55.701">  2  6  1 -1</clus>
<clus scale="  122.798">  2  5  1 -1</clus>
<clus scale="  162.217">  2  3  1 -1</clus>
<clus scale="  162.217">  1  3  2 -1</clus>
</clustering>
</event>
<event>
 6    0  0.6132510E+002  0.1648493E+03  0.7546771E-02  0.1183328E+00
         21   -1    0    0  502  501  0.00000000000E+00  0.00000000000E+00  0.51666893522E+03  0.51666893522E+03  0.00000000000E+00 0. -1.
         21   -1    0    0  503  502 -0.00000000000E+00 -0.00000000000E+00 -0.51924970502E+02  0.51924970502E+02  0.00000000000E+00 0. -1.
         21    1    1    2  503  505 -0.77015378748E+01  0.10667831120E+03  0.18264117892E+03  0.21165390619E+03  0.00000000000E+00 0. -1.
         21    1    1    2  504  501  0.23367860364E+02 -0.78580636007E+02  0.93733973054E+02  0.12452722978E+03  0.00000000000E+00 0. -1.
         21    1    1    2  505  506 -0.17066198160E+02  0.48130227011E+02  0.37440736480E+02  0.63321265147E+02  0.00000000000E+00 0. -1.
         21    1    1    2  506  504  0.13998756711E+01 -0.76227902199E+02  0.15092807626E+03  0.16909150460E+03  0.00000000000E+00 0. -1.
<scales pt_clust_3="35.20721" pt_clust_4="162.33435" pt_clust_5="35.20721" pt_clust_6="40.60962"></scales>
<clustering>
<clus scale="   35.207">  3  5 -1 -1</clus>
<clus scale="   40.610">  4  6 -1 -1</clus>
<clus scale="  162.334">  1  4  2 -1</clus>
<clus scale="  162.334">  1  3  2 -1</clus>
</clustering>
</event>
<event>
 6    0  0.6132510E+002  0.1404184E+03  0.7546771E-02  0.1212767E+00
         21   -1    0    0  505  501  0.00000000000E+00  0.00000000000E+00  0.11328218122E+03  0.11328218122E+03  0.00000000000E+00 0.  1.
         21   -1    0    0  506  502 -0.00000000000E+00 -0.00000000000E+00 -0.10524022389E+04  0.10524022389E+04  0.00000000000E+00 0.  1.
         21    1    1    2  503  501  0.22994225809E+02 -0.46171299199E+02 -0.11259967743E+03  0.12385156700E+03  0.00000000000E+00 0. -1.
         21    1    1    2  504  502  0.33150558353E+01 -0.81269385396E+02 -0.26623478505E+02  0.85583364070E+02  0.00000000000E+00 0.  1.
         21    1    1    2  505  504  0.27574972923E+02 -0.17912119961E+02  0.67513815037E+02  0.75095528456E+02  0.00000000000E+00 0.  1.
         21    1    1    2  506  503 -0.53884254567E+02  0.14535280456E+03 -0.86741071674E+03  0.88115396056E+03  0.00000000000E+00 0.  1.
<scales pt_clust_3="55.42187" pt_clust_4="14000.00000" pt_clust_5="32.88196" pt_clust_6="140.41841"></scales>
<clustering>
<clus scale="   32.882">  1  5  2 -1</clus>
<clus scale="   55.422">  1  3  2 -1</clus>
<clus scale="  140.418">  2  6  1 -1</clus>
<clus scale="   32.882">  1  3  2 -1</clus>
</clustering>
</event>
<event>
 6    0  0.6132510E+002  0.7992007E+02  0.7546771E-02  0.1329278E+00
         21   -1    0    0  503  501  0.00000000000E+00  0.00000000000E+00  0.15478193122E+03  0.15478193122E+03  0.00000000000E+00 0.  1.
         21   -1    0    0  505  502 -0.00000000000E+00 -0.00000000000E+00 -0.50363906130E+03  0.50363906130E+03  0.00000000000E+00 0.  1.
         21    1    1    2  503  502  0.53573469222E+02  0.37875137710E+02  0.44995932160E+02  0.79556750638E+02  0.00000000000E+00 0.  1.
         21    1    1    2  504  501 -0.35038736075E+02  0.37650023037E+02  0.51121017508E+02  0.72516175378E+02  0.00000000000E+00 0.  1.
         21    1    1    2  505  506  0.48060419538E+02 -0.72527366149E+02 -0.42908603736E+03  0.43781828448E+03  0.00000000000E+00 0.  1.
         21    1    1    2  506  504 -0.66595152685E+02 -0.29977945988E+01 -0.15888042393E+02  0.68529782027E+02  0.00000000000E+00 0. -1.
<scales pt_clust_3="69.90919" pt_clust_4="51.43187" pt_clust_5="79.92007" pt_clust_6="14000.00000"></scales>
<clustering>
<clus scale="   51.432">  1  4  2 -1</clus>
<clus scale="   69.909">  1  3  2 -1</clus>
<clus scale="   79.920">  2  5  1 -1</clus>
<clus scale="   51.432">  1  3  2 -1</clus>
</clustering>
</event>
