<event>
 5    0  0.6274415E-005  0.3024167E+03  0.7546771E-02  0.1084039E+00
         21   -1    0    0  502  501  0.00000000000E+00  0.00000000000E+00  0.32349864413E+03  0.32349864413E+03  0.00000000000E+00 0.  1.
         21   -1    0    0  501  502 -0.00000000000E+00 -0.00000000000E+00 -0.28270867321E+03  0.28270867321E+03  0.00000000000E+00 0.  1.
         25    1    1    2    0    0  0.49832478446E+02  0.99645217074E+02  0.26046713912E+02  0.16945759499E+03  0.12500000000E+03 0.  0.
         25    1    1    2    0    0 -0.18386371001E+03 -0.87679601126E+02  0.62393105832E+02  0.24700501203E+03  0.12500000000E+03 0.  0.
         25    1    1    2    0    0  0.13403123156E+03 -0.11965615948E+02 -0.47649848829E+02  0.18974471032E+03  0.12500000000E+03 0.  0.
</event>
<event>
 5    0  0.5663008E-005  0.2688605E+03  0.7546771E-02  0.1101934E+00
         21   -1    0    0  502  501  0.00000000000E+00  0.00000000000E+00  0.11010114889E+03  0.11010114889E+03  0.00000000000E+00 0.  1.
         21   -1    0    0  501  502 -0.00000000000E+00 -0.00000000000E+00 -0.65654150564E+03  0.65654150564E+03  0.00000000000E+00 0.  1.
         25    1    1    2    0    0 -0.15771456437E+02 -0.11861381411E+02 -0.30541015727E+03  0.33059007149E+03  0.12500000000E+03 0.  0.
         25    1    1    2    0    0  0.28109399781E+02 -0.11063409882E+03 -0.18752244099E+03  0.25262562826E+03  0.12500000000E+03 0.  0.
         25    1    1    2    0    0 -0.12337943344E+02  0.12249548023E+03 -0.53507758497E+02  0.18342695478E+03  0.12500000000E+03 0.  0.
</event>
<event>
 5    0  0.5663008E-005  0.2789861E+03  0.7546771E-02  0.1096244E+00
         21   -1    0    0  502  501  0.00000000000E+00  0.00000000000E+00  0.27326188254E+03  0.27326188254E+03  0.00000000000E+00 0.  1.
         21   -1    0    0  501  502 -0.00000000000E+00 -0.00000000000E+00 -0.28483017393E+03  0.28483017393E+03  0.00000000000E+00 0.  1.
         25    1    1    2    0    0  0.17226610168E+03  0.55781958025E+02 -0.26139032385E+02  0.22157501133E+03  0.12500000000E+03 0.  0.
         25    1    1    2    0    0 -0.83470734806E+02  0.15157515216E+02 -0.44591762051E+02  0.15751361554E+03  0.12500000000E+03 0.  0.
         25    1    1    2    0    0 -0.88795366877E+02 -0.70939473241E+02  0.59162503048E+02  0.17900342960E+03  0.12500000000E+03 0.  0.
</event>
<event>
 5    0  0.5663008E-005  0.3622182E+03  0.7546771E-02  0.1057709E+00
         21   -1    0    0  502  501  0.00000000000E+00  0.00000000000E+00  0.14514145582E+04  0.14514145582E+04  0.00000000000E+00 0.  1.
         21   -1    0    0  501  502 -0.00000000000E+00 -0.00000000000E+00 -0.90395963497E+02  0.90395963497E+02  0.00000000000E+00 0.  1.
         25    1    1    2    0    0  0.30410639492E+02 -0.50533232466E+02  0.34680735290E+03  0.37333464158E+03  0.12500000000E+03 0.  0.
         25    1    1    2    0    0  0.14138415759E+03 -0.10850517895E+03  0.79498167311E+03  0.82424736242E+03  0.12500000000E+03 0.  0.
         25    1    1    2    0    0 -0.17179479708E+03  0.15903841142E+03  0.21922956871E+03  0.34422851771E+03  0.12500000000E+03 0.  0.
</event>
<event>
 5    0  0.5663008E-005  0.2462325E+03  0.7546771E-02  0.1115709E+00
         21   -1    0    0  502  501  0.00000000000E+00  0.00000000000E+00  0.21922256747E+03  0.21922256747E+03  0.00000000000E+00 0.  1.
         21   -1    0    0  501  502 -0.00000000000E+00 -0.00000000000E+00 -0.27657021283E+03  0.27657021283E+03  0.00000000000E+00 0.  1.
         25    1    1    2    0    0  0.22121830436E+02  0.71362070276E+01  0.27556400443E+02  0.13009479635E+03  0.12500000000E+03 0.  0.
         25    1    1    2    0    0 -0.21521227766E+02 -0.11414983997E+03  0.18049747136E+02  0.17159295609E+03  0.12500000000E+03 0.  0.
         25    1    1    2    0    0 -0.60060266976E+00  0.10701363294E+03 -0.10295379293E+03  0.19410502785E+03  0.12500000000E+03 0.  0.
</event>
<event>
 5    0  0.5663008E-005  0.2755427E+03  0.7546771E-02  0.1098149E+00
         21   -1    0    0  502  501  0.00000000000E+00  0.00000000000E+00  0.13392596386E+03  0.13392596386E+03  0.00000000000E+00 0.  1.
         21   -1    0    0  501  502 -0.00000000000E+00 -0.00000000000E+00 -0.56690847115E+03  0.56690847115E+03  0.00000000000E+00 0.  1.
         25    1    1    2    0    0  0.79391122454E+02 -0.63072909796E+02 -0.22167332736E+03  0.27394380142E+03  0.12500000000E+03 0.  0.
         25    1    1    2    0    0  0.18700553936E+02  0.89793046101E+02  0.74259214290E+01  0.15521806001E+03  0.12500000000E+03 0.  0.
         25    1    1    2    0    0 -0.98091676390E+02 -0.26720136305E+02 -0.21873510137E+03  0.27167257357E+03  0.12500000000E+03 0.  0.
</event>
<event>
 5    0  0.5663008E-005  0.2777332E+03  0.7546771E-02  0.1096934E+00
         21   -1    0    0  502  501  0.00000000000E+00  0.00000000000E+00  0.49725107439E+03  0.49725107439E+03  0.00000000000E+00 0.  1.
         21   -1    0    0  501  502 -0.00000000000E+00 -0.00000000000E+00 -0.15512427327E+03  0.15512427327E+03  0.00000000000E+00 0.  1.
         25    1    1    2    0    0 -0.91190146432E+02 -0.82589626130E+02  0.11443622315E+03  0.20942143711E+03  0.12500000000E+03 0.  0.
         25    1    1    2    0    0  0.42576383619E+02  0.13561390632E+02 -0.37432784862E+02  0.13792343217E+03  0.12500000000E+03 0.  0.
         25    1    1    2    0    0  0.48613762812E+02  0.69028235497E+02  0.26512336283E+03  0.30503047839E+03  0.12500000000E+03 0.  0.
</event>
<event>
 5    0  0.5663008E-005  0.2887313E+03  0.7546771E-02  0.1091013E+00
         21   -1    0    0  502  501  0.00000000000E+00  0.00000000000E+00  0.31395922368E+03  0.31395922368E+03  0.00000000000E+00 0.  1.
         21   -1    0    0  501  502 -0.00000000000E+00 -0.00000000000E+00 -0.26553046397E+03  0.26553046397E+03  0.00000000000E+00 0.  1.
         25    1    1    2    0    0  0.14444275855E+03 -0.10725368244E+01 -0.43950693281E+02  0.19601409203E+03  0.12500000000E+03 0.  0.
         25    1    1    2    0    0 -0.54444915247E+02  0.11419519902E+03  0.69744279552E+02  0.19103417706E+03  0.12500000000E+03 0.  0.
         25    1    1    2    0    0 -0.89997843305E+02 -0.11312266219E+03  0.22635173441E+02  0.19244141856E+03  0.12500000000E+03 0.  0.
</event>
<event>
 5    0  0.5898844E-005  0.3080544E+03  0.7546771E-02  0.1081282E+00
         21   -1    0    0  502  501  0.00000000000E+00  0.00000000000E+00  0.28450616818E+03  0.28450616818E+03  0.00000000000E+00 0. -1.
         21   -1    0    0  501  502 -0.00000000000E+00 -0.00000000000E+00 -0.33355173009E+03  0.33355173009E+03  0.00000000000E+00 0. -1.
         25    1    1    2    0    0 -0.24444860388E+02 -0.13128187345E+03  0.20818543051E+02  0.18409479414E+03  0.12500000000E+03 0.  0.
         25    1    1    2    0    0 -0.10941709222E+03 -0.41531036142E+02 -0.61724335770E+02  0.18202148406E+03  0.12500000000E+03 0.  0.
         25    1    1    2    0    0  0.13386195261E+03  0.17281290959E+03 -0.81397691838E+01  0.25194162007E+03  0.12500000000E+03 0.  0.
</event>
<event>
 5    0  0.5663008E-005  0.2982941E+03  0.7546771E-02  0.1086096E+00
         21   -1    0    0  502  501  0.00000000000E+00  0.00000000000E+00  0.59251180268E+03  0.59251180268E+03  0.00000000000E+00 0.  1.
         21   -1    0    0  501  502 -0.00000000000E+00 -0.00000000000E+00 -0.15017319142E+03  0.15017319142E+03  0.00000000000E+00 0.  1.
         25    1    1    2    0    0  0.46323349829E+02  0.47235407161E+02 -0.49891053214E+02  0.14997050917E+03  0.12500000000E+03 0.  0.
         25    1    1    2    0    0  0.19024735871E+02  0.64714911880E+02  0.15378396047E+03  0.20934294087E+03  0.12500000000E+03 0.  0.
         25    1    1    2    0    0 -0.65348085700E+02 -0.11195031904E+03  0.33844570400E+03  0.38337154406E+03  0.12500000000E+03 0.  0.
</event>
<event>
 5    0  0.5809674E-005  0.3119840E+03  0.7546771E-02  0.1079399E+00
         21   -1    0    0  502  501  0.00000000000E+00  0.00000000000E+00  0.12536765441E+04  0.12536765441E+04  0.00000000000E+00 0.  1.
         21   -1    0    0  501  502 -0.00000000000E+00 -0.00000000000E+00 -0.77638868834E+02  0.77638868834E+02  0.00000000000E+00 0.  1.
         25    1    1    2    0    0 -0.69123058097E+02 -0.13383431088E+03  0.55766464500E+03  0.59101986110E+03  0.12500000000E+03 0.  0.
         25    1    1    2    0    0 -0.80578670503E+02  0.87149170578E+02  0.43752539620E+03  0.47025670903E+03  0.12500000000E+03 0.  0.
         25    1    1    2    0    0  0.14970172860E+03  0.46685140305E+02  0.18084763405E+03  0.27003884279E+03  0.12500000000E+03 0.  0.
</event>
<event>
 5    0  0.5663008E-005  0.2533252E+03  0.7546771E-02  0.1111221E+00
         21   -1    0    0  502  501  0.00000000000E+00  0.00000000000E+00  0.12245259613E+03  0.12245259613E+03  0.00000000000E+00 0. -1.
         21   -1    0    0  501  502 -0.00000000000E+00 -0.00000000000E+00 -0.52406932024E+03  0.52406932024E+03  0.00000000000E+00 0. -1.
         25    1    1    2    0    0 -0.57820620728E+02  0.51501102812E+02 -0.20763690283E+03  0.25442812578E+03  0.12500000000E+03 0.  0.
         25    1    1    2    0    0 -0.38880603858E+02  0.38695365573E+02 -0.15799184151E+02  0.13741778230E+03  0.12500000000E+03 0.  0.
         25    1    1    2    0    0  0.96701224586E+02 -0.90196468385E+02 -0.17818063714E+03  0.25467600829E+03  0.12500000000E+03 0.  0.
</event>
<event>
 5    0  0.5663008E-005  0.2691503E+03  0.7546771E-02  0.1101767E+00
         21   -1    0    0  502  501  0.00000000000E+00  0.00000000000E+00  0.60095210414E+03  0.60095210414E+03  0.00000000000E+00 0. -1.
         21   -1    0    0  501  502 -0.00000000000E+00 -0.00000000000E+00 -0.12054520632E+03  0.12054520632E+03  0.00000000000E+00 0. -1.
         25    1    1    2    0    0  0.84192332788E+02 -0.85783460546E+02  0.19337066972E+03  0.25973903617E+03  0.12500000000E+03 0.  0.
         25    1    1    2    0    0  0.19360941587E+02  0.80386737900E+02  0.22796100285E+02  0.15159662225E+03  0.12500000000E+03 0.  0.
         25    1    1    2    0    0 -0.10355327437E+03  0.53967226460E+01  0.26424012781E+03  0.31016165204E+03  0.12500000000E+03 0.  0.
</event>
<event>
 5    0  0.5663008E-005  0.3081444E+03  0.7546771E-02  0.1081239E+00
         21   -1    0    0  502  501  0.00000000000E+00  0.00000000000E+00  0.87670262630E+02  0.87670262630E+02  0.00000000000E+00 0. -1.
         21   -1    0    0  501  502 -0.00000000000E+00 -0.00000000000E+00 -0.10830693119E+04  0.10830693119E+04  0.00000000000E+00 0. -1.
         25    1    1    2    0    0 -0.10936187081E+03 -0.31486544421E+02 -0.38528888177E+03  0.42074213443E+03  0.12500000000E+03 0.  0.
         25    1    1    2    0    0  0.20607043233E+03  0.98353676721E+01 -0.21208321832E+03  0.32119472136E+03  0.12500000000E+03 0.  0.
         25    1    1    2    0    0 -0.96708561517E+02  0.21651176748E+02 -0.39802694919E+03  0.42880271875E+03  0.12500000000E+03 0.  0.
</event>
<event>
 5    0  0.5663008E-005  0.3660458E+03  0.7546771E-02  0.1056215E+00
         21   -1    0    0  502  501  0.00000000000E+00  0.00000000000E+00  0.21440002201E+04  0.21440002201E+04  0.00000000000E+00 0.  1.
         21   -1    0    0  501  502 -0.00000000000E+00 -0.00000000000E+00 -0.62495107544E+02  0.62495107544E+02  0.00000000000E+00 0.  1.
         25    1    1    2    0    0  0.10719023900E+03 -0.11356849940E+03  0.70830941673E+03  0.73601275887E+03  0.12500000000E+03 0.  0.
         25    1    1    2    0    0 -0.15908354038E+02 -0.15334894324E+03  0.73933871575E+03  0.76551662994E+03  0.12500000000E+03 0.  0.
         25    1    1    2    0    0 -0.91281884965E+02  0.26691744264E+03  0.63385698005E+03  0.70496593880E+03  0.12500000000E+03 0.  0.
</event>
<event>
 5    0  0.5663008E-005  0.4412363E+03  0.7546771E-02  0.1030368E+00
         21   -1    0    0  502  501  0.00000000000E+00  0.00000000000E+00  0.19443126465E+04  0.19443126465E+04  0.00000000000E+00 0. -1.
         21   -1    0    0  501  502 -0.00000000000E+00 -0.00000000000E+00 -0.10013279603E+03  0.10013279603E+03  0.00000000000E+00 0.  1.
         25    1    1    2    0    0 -0.15191822220E+03  0.31338369885E+03  0.54586151523E+03  0.65945301785E+03  0.12500000000E+03 0.  0.
         25    1    1    2    0    0  0.84761387308E+01 -0.47672739546E+02  0.58820678739E+03  0.60328828909E+03  0.12500000000E+03 0.  0.
         25    1    1    2    0    0  0.14344208347E+03 -0.26571095930E+03  0.71011154785E+03  0.78170413558E+03  0.12500000000E+03 0.  0.
</event>
<event>
 5    0  0.5663008E-005  0.2822696E+03  0.7546771E-02  0.1094456E+00
         21   -1    0    0  502  501  0.00000000000E+00  0.00000000000E+00  0.21642115033E+03  0.21642115033E+03  0.00000000000E+00 0. -1.
         21   -1    0    0  501  502 -0.00000000000E+00 -0.00000000000E+00 -0.36815319266E+03  0.36815319266E+03  0.00000000000E+00 0. -1.
         25    1    1    2    0    0 -0.17137020214E+02 -0.15768236662E+03  0.25134112474E+02  0.20350461865E+03  0.12500000000E+03 0.  0.
         25    1    1    2    0    0 -0.48899679054E+02  0.16182829646E+02 -0.49668555788E+02  0.14403134388E+03  0.12500000000E+03 0.  0.
         25    1    1    2    0    0  0.66036699268E+02  0.14149953697E+03 -0.12719759901E+03  0.23703838045E+03  0.12500000000E+03 0.  0.
</event>
<event>
 5    0  0.5663008E-005  0.2575320E+03  0.7546771E-02  0.1108635E+00
         21   -1    0    0  502  501  0.00000000000E+00  0.00000000000E+00  0.11434826312E+04  0.11434826312E+04  0.00000000000E+00 0.  1.
         21   -1    0    0  501  502 -0.00000000000E+00 -0.00000000000E+00 -0.58000657634E+02  0.58000657634E+02  0.00000000000E+00 0.  1.
         25    1    1    2    0    0  0.59275576155E+02  0.21118932930E+02  0.47162206198E+03  0.49194712379E+03  0.12500000000E+03 0.  0.
         25    1    1    2    0    0  0.27172648443E+02 -0.10500164618E+03  0.40779563028E+03  0.44009768757E+03  0.12500000000E+03 0.  0.
         25    1    1    2    0    0 -0.86448224598E+02  0.83882713247E+02  0.20606428130E+03  0.26943847748E+03  0.12500000000E+03 0.  0.
</event>
<event>
 5    0  0.5663008E-005  0.4010345E+03  0.7546771E-02  0.1043422E+00
         21   -1    0    0  502  501  0.00000000000E+00  0.00000000000E+00  0.20367893992E+03  0.20367893992E+03  0.00000000000E+00 0.  1.
         21   -1    0    0  501  502 -0.00000000000E+00 -0.00000000000E+00 -0.78961864488E+03  0.78961864488E+03  0.00000000000E+00 0.  1.
         25    1    1    2    0    0  0.21380483758E+03 -0.59848703854E+02 -0.29783306468E+03  0.39194886190E+03  0.12500000000E+03 0.  0.
         25    1    1    2    0    0 -0.20429812239E+03 -0.94993373672E+01  0.40296132546E+02  0.24305706845E+03  0.12500000000E+03 0.  0.
         25    1    1    2    0    0 -0.95067151895E+01  0.69348041221E+02 -0.32840277283E+03  0.35829165446E+03  0.12500000000E+03 0.  0.
</event>
<event>
 5    0  0.6509198E-005  0.3493939E+03  0.7546771E-02  0.1062864E+00
         21   -1    0    0  502  501  0.00000000000E+00  0.00000000000E+00  0.63431435297E+03  0.63431435297E+03  0.00000000000E+00 0.  1.
         21   -1    0    0  501  502 -0.00000000000E+00 -0.00000000000E+00 -0.19245360060E+03  0.19245360060E+03  0.00000000000E+00 0.  1.
         25    1    1    2    0    0  0.86646745610E+02  0.18541854009E+03 -0.18623225150E+02  0.24054005498E+03  0.12500000000E+03 0.  0.
         25    1    1    2    0    0 -0.91796969126E+02 -0.35553693051E+02  0.27048376256E+03  0.31381079402E+03  0.12500000000E+03 0.  0.
         25    1    1    2    0    0  0.51502235159E+01 -0.14986484704E+03  0.19000021495E+03  0.27241710457E+03  0.12500000000E+03 0.  0.
</event>
<event>
 5    0  0.5663008E-005  0.3375907E+03  0.7546771E-02  0.1067827E+00
         21   -1    0    0  502  501  0.00000000000E+00  0.00000000000E+00  0.16092817178E+03  0.16092817178E+03  0.00000000000E+00 0. -1.
         21   -1    0    0  501  502 -0.00000000000E+00 -0.00000000000E+00 -0.70818838679E+03  0.70818838679E+03  0.00000000000E+00 0. -1.
         25    1    1    2    0    0  0.10383148563E+03  0.16157549687E+03 -0.37882634929E+03  0.44274374249E+03  0.12500000000E+03 0.  0.
         25    1    1    2    0    0 -0.39478620444E+02 -0.88354569945E+01  0.34739460681E+02  0.13589870088E+03  0.12500000000E+03 0.  0.
         25    1    1    2    0    0 -0.64352865186E+02 -0.15274003988E+03 -0.20317332641E+03  0.29047411520E+03  0.12500000000E+03 0.  0.
</event>
<event>
 5    0  0.5663008E-005  0.3188882E+03  0.7546771E-02  0.1076162E+00
         21   -1    0    0  502  501  0.00000000000E+00  0.00000000000E+00  0.11890698175E+04  0.11890698175E+04  0.00000000000E+00 0. -1.
         21   -1    0    0  501  502 -0.00000000000E+00 -0.00000000000E+00 -0.85520358480E+02  0.85520358480E+02  0.00000000000E+00 0. -1.
         25    1    1    2    0    0 -0.12373907296E+01 -0.63295809172E+02  0.57379298432E+03  0.59065326500E+03  0.12500000000E+03 0.  0.
         25    1    1    2    0    0  0.32853331631E+01  0.45907610780E+02 -0.61706522752E+01  0.13334683757E+03  0.12500000000E+03 0.  0.
         25    1    1    2    0    0 -0.20479424334E+01  0.17388198393E+02  0.53592712701E+03  0.55059007344E+03  0.12500000000E+03 0.  0.
</event>
<event>
 5    0  0.5663008E-005  0.3143167E+03  0.7546771E-02  0.1078295E+00
         21   -1    0    0  502  501  0.00000000000E+00  0.00000000000E+00  0.12249528293E+04  0.12249528293E+04  0.00000000000E+00 0. -1.
         21   -1    0    0  501  502 -0.00000000000E+00 -0.00000000000E+00 -0.80652090336E+02  0.80652090336E+02  0.00000000000E+00 0. -1.
         25    1    1    2    0    0 -0.74636522990E+02 -0.35002079349E+02  0.40775793356E+03  0.43438150111E+03  0.12500000000E+03 0.  0.
         25    1    1    2    0    0  0.13374689265E+03  0.14333964721E+03  0.20011172652E+03  0.30676406055E+03  0.12500000000E+03 0.  0.
         25    1    1    2    0    0 -0.59110369663E+02 -0.10833756786E+03  0.53643107884E+03  0.56445935793E+03  0.12500000000E+03 0.  0.
</event>
<event>
 5    0  0.5663008E-005  0.3025643E+03  0.7546771E-02  0.1083966E+00
         21   -1    0    0  502  501  0.00000000000E+00  0.00000000000E+00  0.22449910311E+03  0.22449910311E+03  0.00000000000E+00 0.  1.
         21   -1    0    0  501  502 -0.00000000000E+00 -0.00000000000E+00 -0.40777510546E+03  0.40777510546E+03  0.00000000000E+00 0.  1.
         25    1    1    2    0    0  0.81640229033E+02 -0.17477564915E+03 -0.57787493854E+02  0.23701487079E+03  0.12500000000E+03 0.  0.
         25    1    1    2    0    0 -0.46176014177E+02  0.14662488087E+03  0.18845974977E+02  0.19902575398E+03  0.12500000000E+03 0.  0.
         25    1    1    2    0    0 -0.35464214856E+02  0.28150768280E+02 -0.14433448347E+03  0.19623358379E+03  0.12500000000E+03 0.  0.
</event>
<event>
 5    0  0.5663008E-005  0.3721808E+03  0.7546771E-02  0.1053862E+00
         21   -1    0    0  502  501  0.00000000000E+00  0.00000000000E+00  0.23996869977E+03  0.23996869977E+03  0.00000000000E+00 0. -1.
         21   -1    0    0  501  502 -0.00000000000E+00 -0.00000000000E+00 -0.57723595081E+03  0.57723595081E+03  0.00000000000E+00 0. -1.
         25    1    1    2    0    0  0.10727840038E+02  0.18641201513E+03 -0.33374440303E+03  0.40233674017E+03  0.12500000000E+03 0.  0.
         25    1    1    2    0    0  0.51483003557E+02 -0.21583183091E+03 -0.59597113920E+02  0.26155438225E+03  0.12500000000E+03 0.  0.
         25    1    1    2    0    0 -0.62210843595E+02  0.29419815782E+02  0.56074265907E+02  0.15331352816E+03  0.12500000000E+03 0.  0.
</event>
<event>
 5    0  0.5663008E-005  0.2912892E+03  0.7546771E-02  0.1089678E+00
         21   -1    0    0  502  501  0.00000000000E+00  0.00000000000E+00  0.11853887519E+03  0.11853887519E+03  0.00000000000E+00 0. -1.
         21   -1    0    0  501  502 -0.00000000000E+00 -0.00000000000E+00 -0.71579381942E+03  0.71579381942E+03  0.00000000000E+00 0. -1.
         25    1    1    2    0    0  0.11139640878E+03 -0.50116203498E+02 -0.35667688529E+03  0.39719541065E+03  0.12500000000E+03 0.  0.
         25    1    1    2    0    0 -0.50060810106E+02 -0.61108243155E+02 -0.13504392723E+02  0.14848458072E+03  0.12500000000E+03 0.  0.
         25    1    1    2    0    0 -0.61335598673E+02  0.11122444665E+03 -0.22707366622E+03  0.28865270324E+03  0.12500000000E+03 0.  0.
</event>
<event>
 5    0  0.5663008E-005  0.2186203E+03  0.7546771E-02  0.1134916E+00
         21   -1    0    0  502  501  0.00000000000E+00  0.00000000000E+00  0.14393537478E+03  0.14393537478E+03  0.00000000000E+00 0.  1.
         21   -1    0    0  501  502 -0.00000000000E+00 -0.00000000000E+00 -0.33205772157E+03  0.33205772157E+03  0.00000000000E+00 0.  1.
         25    1    1    2    0    0 -0.50221123177E+01  0.35342726084E+02 -0.95864372103E+02  0.16152184910E+03  0.12500000000E+03 0.  0.
         25    1    1    2    0    0  0.33685178907E+02 -0.86639488570E+02 -0.15738334469E+02  0.15656879456E+03  0.12500000000E+03 0.  0.
         25    1    1    2    0    0 -0.28663066590E+02  0.51296762486E+02 -0.76519640215E+02  0.15790245269E+03  0.12500000000E+03 0.  0.
</event>
<event>
 5    0  0.5663008E-005  0.4294079E+03  0.7546771E-02  0.1034047E+00
         21   -1    0    0  502  501  0.00000000000E+00  0.00000000000E+00  0.15013410791E+04  0.15013410791E+04  0.00000000000E+00 0. -1.
         21   -1    0    0  501  502 -0.00000000000E+00 -0.00000000000E+00 -0.12281763146E+03  0.12281763146E+03  0.00000000000E+00 0. -1.
         25    1    1    2    0    0  0.26737142919E+02  0.20070718694E+03  0.51362567089E+03  0.56606941226E+03  0.12500000000E+03 0.  0.
         25    1    1    2    0    0 -0.18548962158E+03 -0.29894455856E+03  0.43686250198E+03  0.57467216258E+03  0.12500000000E+03 0.  0.
         25    1    1    2    0    0  0.15875247866E+03  0.98237371627E+02  0.42803527482E+03  0.48341713577E+03  0.12500000000E+03 0.  0.
</event>
<event>
 5    0  0.5663008E-005  0.2462758E+03  0.7546771E-02  0.1115681E+00
         21   -1    0    0  502  501  0.00000000000E+00  0.00000000000E+00  0.64046720900E+02  0.64046720900E+02  0.00000000000E+00 0. -1.
         21   -1    0    0  501  502 -0.00000000000E+00 -0.00000000000E+00 -0.94699259879E+03  0.94699259879E+03  0.00000000000E+00 0. -1.
         25    1    1    2    0    0  0.14896501127E+02 -0.59433082314E+02 -0.14361018918E+03  0.20000770849E+03  0.12500000000E+03 0.  0.
         25    1    1    2    0    0  0.88522056799E+02  0.63404255344E+02 -0.30119050676E+03  0.34379787012E+03  0.12500000000E+03 0.  0.
         25    1    1    2    0    0 -0.10341855793E+03 -0.39711730299E+01 -0.43814518196E+03  0.46723374109E+03  0.12500000000E+03 0.  0.
</event>
<event>
 5    0  0.5663008E-005  0.3956673E+03  0.7546771E-02  0.1045290E+00
         21   -1    0    0  502  501  0.00000000000E+00  0.00000000000E+00  0.20395177313E+03  0.20395177313E+03  0.00000000000E+00 0. -1.
         21   -1    0    0  501  502 -0.00000000000E+00 -0.00000000000E+00 -0.76759626816E+03  0.76759626816E+03  0.00000000000E+00 0. -1.
         25    1    1    2    0    0  0.85143954377E+02 -0.92091911556E+02 -0.14342882608E+02  0.17765452829E+03  0.12500000000E+03 0.  0.
         25    1    1    2    0    0  0.17040031337E+03  0.83208457567E+02 -0.72157768972E+02  0.23831000363E+03  0.12500000000E+03 0.  0.
         25    1    1    2    0    0 -0.25554426775E+03  0.88834539889E+01 -0.47714384346E+03  0.55558350937E+03  0.12500000000E+03 0.  0.
</event>
<event>
 5    0  0.5663008E-005  0.3594044E+03  0.7546771E-02  0.1058820E+00
         21   -1    0    0  502  501  0.00000000000E+00  0.00000000000E+00  0.14061279384E+04  0.14061279384E+04  0.00000000000E+00 0.  1.
         21   -1    0    0  501  502 -0.00000000000E+00 -0.00000000000E+00 -0.91863289021E+02  0.91863289021E+02  0.00000000000E+00 0.  1.
         25    1    1    2    0    0  0.23908320868E+03 -0.74287111070E+02  0.87483168313E+03  0.91849596044E+03  0.12500000000E+03 0.  0.
         25    1    1    2    0    0 -0.17205879461E+03  0.96893430860E+02  0.25839595203E+03  0.34840498528E+03  0.12500000000E+03 0.  0.
         25    1    1    2    0    0 -0.67024414078E+02 -0.22606319790E+02  0.18103701425E+03  0.23109028172E+03  0.12500000000E+03 0.  0.
</event>
<event>
 5    0  0.5663008E-005  0.2470084E+03  0.7546771E-02  0.1115210E+00
         21   -1    0    0  502  501  0.00000000000E+00  0.00000000000E+00  0.26842044605E+03  0.26842044605E+03  0.00000000000E+00 0. -1.
         21   -1    0    0  501  502 -0.00000000000E+00 -0.00000000000E+00 -0.22730435216E+03  0.22730435216E+03  0.00000000000E+00 0. -1.
         25    1    1    2    0    0  0.29458794078E+02 -0.31925975027E+02 -0.35896416671E+02  0.13711543006E+03  0.12500000000E+03 0.  0.
         25    1    1    2    0    0  0.41808933219E+02 -0.89314293607E+01 -0.69462226627E+02  0.14925735578E+03  0.12500000000E+03 0.  0.
         25    1    1    2    0    0 -0.71267727298E+02  0.40857404388E+02  0.14647473719E+03  0.20935201237E+03  0.12500000000E+03 0.  0.
</event>
<event>
 5    0  0.5663008E-005  0.2344595E+03  0.7546771E-02  0.1123540E+00
         21   -1    0    0  502  501  0.00000000000E+00  0.00000000000E+00  0.42443119335E+03  0.42443119335E+03  0.00000000000E+00 0.  1.
         21   -1    0    0  501  502 -0.00000000000E+00 -0.00000000000E+00 -0.12951748550E+03  0.12951748550E+03  0.00000000000E+00 0.  1.
         25    1    1    2    0    0  0.77602749786E+02  0.21733356296E+02  0.24169602751E+02  0.15067745434E+03  0.12500000000E+03 0.  0.
         25    1    1    2    0    0 -0.95667096543E+02 -0.12404644919E+02  0.87489719854E+02  0.18051459680E+03  0.12500000000E+03 0.  0.
         25    1    1    2    0    0  0.18064346757E+02 -0.93287113767E+01  0.18325438524E+03  0.22275662771E+03  0.12500000000E+03 0.  0.
</event>
<event>
 5    0  0.5663008E-005  0.3019700E+03  0.7546771E-02  0.1084260E+00
         21   -1    0    0  502  501  0.00000000000E+00  0.00000000000E+00  0.70774507530E+02  0.70774507530E+02  0.00000000000E+00 0.  1.
         21   -1    0    0  501  502 -0.00000000000E+00 -0.00000000000E+00 -0.12884001523E+04  0.12884001523E+04  0.00000000000E+00 0.  1.
         25    1    1    2    0    0 -0.10285025863E+03  0.94047773026E+02 -0.93690768354E+03  0.95542878687E+03  0.12500000000E+03 0.  0.
         25    1    1    2    0    0  0.28049414216E+02 -0.54673471469E+02 -0.13456318763E+03  0.19367036321E+03  0.12500000000E+03 0.  0.
         25    1    1    2    0    0  0.74800844409E+02 -0.39374301558E+02 -0.14615477359E+03  0.21007550973E+03  0.12500000000E+03 0.  0.
</event>
<event>
 5    0  0.5663008E-005  0.3124823E+03  0.7546771E-02  0.1079162E+00
         21   -1    0    0  502  501  0.00000000000E+00  0.00000000000E+00  0.69458227870E+03  0.69458227870E+03  0.00000000000E+00 0.  1.
         21   -1    0    0  501  502 -0.00000000000E+00 -0.00000000000E+00 -0.14058113246E+03  0.14058113246E+03  0.00000000000E+00 0.  1.
         25    1    1    2    0    0  0.11204538111E+03  0.88052304958E+02  0.30237134130E+03  0.35687645464E+03  0.12500000000E+03 0.  0.
         25    1    1    2    0    0 -0.62741458377E+02 -0.37126622132E+02  0.29466766969E+03  0.32828175738E+03  0.12500000000E+03 0.  0.
         25    1    1    2    0    0 -0.49303922734E+02 -0.50925682826E+02 -0.43037864748E+02  0.15000519914E+03  0.12500000000E+03 0.  0.
</event>
<event>
 5    0  0.5663008E-005  0.3232869E+03  0.7546771E-02  0.1074146E+00
         21   -1    0    0  502  501  0.00000000000E+00  0.00000000000E+00  0.30382698109E+03  0.30382698109E+03  0.00000000000E+00 0.  1.
         21   -1    0    0  501  502 -0.00000000000E+00 -0.00000000000E+00 -0.34399331811E+03  0.34399331811E+03  0.00000000000E+00 0.  1.
         25    1    1    2    0    0 -0.25075966660E+01 -0.11047798717E+03  0.38867693819E+02  0.17131074489E+03  0.12500000000E+03 0.  0.
         25    1    1    2    0    0  0.14278216338E+03  0.53044052654E+02 -0.16977735258E+03  0.26009568845E+03  0.12500000000E+03 0.  0.
         25    1    1    2    0    0 -0.14027456671E+03  0.57433934517E+02  0.90743321742E+02  0.21641386587E+03  0.12500000000E+03 0.  0.
</event>
<event>
 5    0  0.5663008E-005  0.2784844E+03  0.7546771E-02  0.1096520E+00
         21   -1    0    0  502  501  0.00000000000E+00  0.00000000000E+00  0.18675277082E+03  0.18675277082E+03  0.00000000000E+00 0.  1.
         21   -1    0    0  501  502 -0.00000000000E+00 -0.00000000000E+00 -0.41527394435E+03  0.41527394435E+03  0.00000000000E+00 0.  1.
         25    1    1    2    0    0  0.94917137737E+02  0.15756051693E+02 -0.15157515059E+03  0.21876366809E+03  0.12500000000E+03 0.  0.
         25    1    1    2    0    0 -0.46129873416E+02  0.12048560450E+03 -0.74198253420E+01  0.17979098955E+03  0.12500000000E+03 0.  0.
         25    1    1    2    0    0 -0.48787264321E+02 -0.13624165620E+03 -0.69526197602E+02  0.20347205753E+03  0.12500000000E+03 0.  0.
</event>
<event>
 5    0  0.5663008E-005  0.3733629E+03  0.7546771E-02  0.1053414E+00
         21   -1    0    0  502  501  0.00000000000E+00  0.00000000000E+00  0.23106373099E+03  0.23106373099E+03  0.00000000000E+00 0.  1.
         21   -1    0    0  501  502 -0.00000000000E+00 -0.00000000000E+00 -0.60329612887E+03  0.60329612887E+03  0.00000000000E+00 0.  1.
         25    1    1    2    0    0 -0.35994503892E+02 -0.95809879979E+02 -0.16854967046E+02  0.16243222379E+03  0.12500000000E+03 0.  0.
         25    1    1    2    0    0 -0.10337511137E+03 -0.64343432180E+02  0.63724593185E+02  0.18577490329E+03  0.12500000000E+03 0.  0.
         25    1    1    2    0    0  0.13936961526E+03  0.16015331216E+03 -0.41910202402E+03  0.48615273278E+03  0.12500000000E+03 0.  0.
</event>
<event>
 5    0  0.5663008E-005  0.3271213E+03  0.7546771E-02  0.1072418E+00
         21   -1    0    0  502  501  0.00000000000E+00  0.00000000000E+00  0.28760234840E+03  0.28760234840E+03  0.00000000000E+00 0.  1.
         21   -1    0    0  501  502 -0.00000000000E+00 -0.00000000000E+00 -0.37207045189E+03  0.37207045189E+03  0.00000000000E+00 0.  1.
         25    1    1    2    0    0  0.24875690735E+02 -0.14677515078E+03  0.14592967385E+02  0.19493511632E+03  0.12500000000E+03 0.  0.
         25    1    1    2    0    0  0.15038909158E+03  0.99854819802E+02  0.81177683358E+01  0.21972428647E+03  0.12500000000E+03 0.  0.
         25    1    1    2    0    0 -0.17526478232E+03  0.46920330979E+02 -0.10717883921E+03  0.24501339750E+03  0.12500000000E+03 0.  0.
</event>
<event>
 5    0  0.6673198E-005  0.2582149E+03  0.7546771E-02  0.1108221E+00
         21   -1    0    0  502  501  0.00000000000E+00  0.00000000000E+00  0.37754233491E+03  0.37754233491E+03  0.00000000000E+00 0.  1.
         21   -1    0    0  501  502 -0.00000000000E+00 -0.00000000000E+00 -0.17660256042E+03  0.17660256042E+03  0.00000000000E+00 0.  1.
         25    1    1    2    0    0 -0.11649689517E+03 -0.72841314301E+02 -0.53221034222E-02  0.18574817276E+03  0.12500000000E+03 0.  0.
         25    1    1    2    0    0  0.82809319589E+02  0.14656817065E+02  0.16197847794E+03  0.22121083385E+03  0.12500000000E+03 0.  0.
         25    1    1    2    0    0  0.33687575585E+02  0.58184497236E+02  0.38966618655E+02  0.14718588871E+03  0.12500000000E+03 0.  0.
</event>
<event>
 5    0  0.5663008E-005  0.3372203E+03  0.7546771E-02  0.1067986E+00
         21   -1    0    0  502  501  0.00000000000E+00  0.00000000000E+00  0.22109190135E+04  0.22109190135E+04  0.00000000000E+00 0. -1.
         21   -1    0    0  501  502 -0.00000000000E+00 -0.00000000000E+00 -0.51434498795E+02  0.51434498795E+02  0.00000000000E+00 0. -1.
         25    1    1    2    0    0 -0.19795215838E+03  0.22244614507E+02  0.42613378357E+03  0.48671848268E+03  0.12500000000E+03 0.  0.
         25    1    1    2    0    0  0.28835662669E+02  0.82223414534E+01  0.11022608367E+04  0.11097310730E+04  0.12500000000E+03 0.  0.
         25    1    1    2    0    0  0.16911649571E+03 -0.30466955960E+02  0.63108989443E+03  0.66590395657E+03  0.12500000000E+03 0.  0.
</event>
<event>
 5    0  0.5663008E-005  0.3436473E+03  0.7546771E-02  0.1065253E+00
         21   -1    0    0  502  501  0.00000000000E+00  0.00000000000E+00  0.69806115760E+02  0.69806115760E+02  0.00000000000E+00 0. -1.
         21   -1    0    0  501  502 -0.00000000000E+00 -0.00000000000E+00 -0.16917352501E+04  0.16917352501E+04  0.00000000000E+00 0. -1.
         25    1    1    2    0    0 -0.15669438731E+03  0.14931276497E+03 -0.40475084187E+03  0.47570545171E+03  0.12500000000E+03 0.  0.
         25    1    1    2    0    0  0.16592430704E+02 -0.16849349412E+03 -0.81243784447E+03  0.83925301158E+03  0.12500000000E+03 0.  0.
         25    1    1    2    0    0  0.14010195660E+03  0.19180729147E+02 -0.40474044799E+03  0.44658290256E+03  0.12500000000E+03 0.  0.
</event>
<event>
 5    0  0.5663008E-005  0.4036939E+03  0.7546771E-02  0.1042508E+00
         21   -1    0    0  502  501  0.00000000000E+00  0.00000000000E+00  0.11771230707E+03  0.11771230707E+03  0.00000000000E+00 0.  1.
         21   -1    0    0  501  502 -0.00000000000E+00 -0.00000000000E+00 -0.13844669587E+04  0.13844669587E+04  0.00000000000E+00 0.  1.
         25    1    1    2    0    0  0.16782392594E+03 -0.13251774290E+03 -0.59392235082E+03  0.64350181127E+03  0.12500000000E+03 0.  0.
         25    1    1    2    0    0 -0.10243548056E+03  0.17019231919E+03 -0.79738269873E+02  0.24787425213E+03  0.12500000000E+03 0.  0.
         25    1    1    2    0    0 -0.65388445378E+02 -0.37674576289E+02 -0.59309403090E+03  0.61080320233E+03  0.12500000000E+03 0.  0.
</event>
<event>
 5    0  0.5663008E-005  0.3589433E+03  0.7546771E-02  0.1059003E+00
         21   -1    0    0  502  501  0.00000000000E+00  0.00000000000E+00  0.50410033021E+02  0.50410033021E+02  0.00000000000E+00 0. -1.
         21   -1    0    0  501  502 -0.00000000000E+00 -0.00000000000E+00 -0.25558461802E+04  0.25558461802E+04  0.00000000000E+00 0. -1.
         25    1    1    2    0    0 -0.47436235049E+02  0.81672383311E+02 -0.21819736411E+03  0.26861806398E+03  0.12500000000E+03 0.  0.
         25    1    1    2    0    0  0.17786060827E+03 -0.10059615588E+02 -0.58191004109E+03  0.62127279657E+03  0.12500000000E+03 0.  0.
         25    1    1    2    0    0 -0.13042437322E+03 -0.71612767723E+02 -0.17053287420E+04  0.17163653526E+04  0.12500000000E+03 0.  0.
</event>
<event>
 5    0  0.5663008E-005  0.3540735E+03  0.7546771E-02  0.1060955E+00
         21   -1    0    0  502  501  0.00000000000E+00  0.00000000000E+00  0.11450287207E+04  0.11450287207E+04  0.00000000000E+00 0.  1.
         21   -1    0    0  501  502 -0.00000000000E+00 -0.00000000000E+00 -0.10948898988E+03  0.10948898988E+03  0.00000000000E+00 0.  1.
         25    1    1    2    0    0  0.20236876474E+03 -0.74055077592E+02  0.41593476735E+03  0.48483399443E+03  0.12500000000E+03 0.  0.
         25    1    1    2    0    0  0.23817960280E+01 -0.88324116163E+02  0.13012707228E+03  0.20091012266E+03  0.12500000000E+03 0.  0.
         25    1    1    2    0    0 -0.20475056077E+03  0.16237919376E+03  0.48947789123E+03  0.56877359353E+03  0.12500000000E+03 0.  0.
</event>
<event>
 5    0  0.5663008E-005  0.2706289E+03  0.7546771E-02  0.1100920E+00
         21   -1    0    0  502  501  0.00000000000E+00  0.00000000000E+00  0.24888411195E+04  0.24888411195E+04  0.00000000000E+00 0.  1.
         21   -1    0    0  501  502 -0.00000000000E+00 -0.00000000000E+00 -0.29427354916E+02  0.29427354916E+02  0.00000000000E+00 0.  1.
         25    1    1    2    0    0  0.91859741345E+02 -0.37407867993E+01  0.88214433695E+03  0.89568735437E+03  0.12500000000E+03 0.  0.
         25    1    1    2    0    0 -0.60795442537E+02 -0.77678057937E+02  0.33406905893E+03  0.37007715770E+03  0.12500000000E+03 0.  0.
         25    1    1    2    0    0 -0.31064298808E+02  0.81418844736E+02  0.12432003687E+04  0.12525039623E+04  0.12500000000E+03 0.  0.
</event>
<event>
 5    0  0.5663008E-005  0.4529622E+03  0.7546771E-02  0.1026842E+00
         21   -1    0    0  502  501  0.00000000000E+00  0.00000000000E+00  0.10102200887E+04  0.10102200887E+04  0.00000000000E+00 0. -1.
         21   -1    0    0  501  502 -0.00000000000E+00 -0.00000000000E+00 -0.20309905507E+03  0.20309905507E+03  0.00000000000E+00 0. -1.
         25    1    1    2    0    0  0.46534369926E+02 -0.17127060423E+03  0.20926373778E+03  0.30152177269E+03  0.12500000000E+03 0.  0.
         25    1    1    2    0    0  0.16997838711E+03 -0.89237856981E+02  0.19406072935E+02  0.22990790085E+03  0.12500000000E+03 0.  0.
         25    1    1    2    0    0 -0.21651275704E+03  0.26050846121E+03  0.57845122288E+03  0.68188947020E+03  0.12500000000E+03 0.  0.
</event>
<event>
 5    0  0.5663008E-005  0.2619109E+03  0.7546771E-02  0.1106001E+00
         21   -1    0    0  502  501  0.00000000000E+00  0.00000000000E+00  0.11429018028E+04  0.11429018028E+04  0.00000000000E+00 0.  1.
         21   -1    0    0  501  502 -0.00000000000E+00 -0.00000000000E+00 -0.60020296232E+02  0.60020296232E+02  0.00000000000E+00 0.  1.
         25    1    1    2    0    0 -0.72559528227E+02 -0.24702330241E+02  0.18105193373E+03  0.23298045618E+03  0.12500000000E+03 0.  0.
         25    1    1    2    0    0 -0.42608480226E+02  0.10406010234E+03  0.38447738599E+03  0.41963299182E+03  0.12500000000E+03 0.  0.
         25    1    1    2    0    0  0.11516800845E+03 -0.79357772095E+02  0.51735218689E+03  0.55030865107E+03  0.12500000000E+03 0.  0.
</event>
<event>
 5    0  0.5663008E-005  0.3352059E+03  0.7546771E-02  0.1068856E+00
         21   -1    0    0  502  501  0.00000000000E+00  0.00000000000E+00  0.13030402476E+03  0.13030402476E+03  0.00000000000E+00 0. -1.
         21   -1    0    0  501  502 -0.00000000000E+00 -0.00000000000E+00 -0.86231429100E+03  0.86231429100E+03  0.00000000000E+00 0. -1.
         25    1    1    2    0    0 -0.13045828559E+03  0.23774147366E+02 -0.23921530013E+03  0.30072168891E+03  0.12500000000E+03 0.  0.
         25    1    1    2    0    0 -0.89742942583E+02  0.11864093255E+03 -0.17757139547E+03  0.26322246695E+03  0.12500000000E+03 0.  0.
         25    1    1    2    0    0  0.22020122817E+03 -0.14241507992E+03 -0.31522357064E+03  0.42867415990E+03  0.12500000000E+03 0.  0.
</event>
<event>
 5    0  0.5663008E-005  0.3014409E+03  0.7546771E-02  0.1084523E+00
         21   -1    0    0  502  501  0.00000000000E+00  0.00000000000E+00  0.69281673208E+02  0.69281673208E+02  0.00000000000E+00 0.  1.
         21   -1    0    0  501  502 -0.00000000000E+00 -0.00000000000E+00 -0.13115531869E+04  0.13115531869E+04  0.00000000000E+00 0.  1.
         25    1    1    2    0    0 -0.40721039810E+02 -0.27405393439E+02 -0.15588335753E+03  0.20575198621E+03  0.12500000000E+03 0.  0.
         25    1    1    2    0    0 -0.57736091161E+02 -0.14494024724E+03 -0.64453344327E+03  0.67482552633E+03  0.12500000000E+03 0.  0.
         25    1    1    2    0    0  0.98457130971E+02  0.17234564068E+03 -0.44185471292E+03  0.50025734760E+03  0.12500000000E+03 0.  0.
</event>
<event>
 5    0  0.5663008E-005  0.4169075E+03  0.7546771E-02  0.1038078E+00
         21   -1    0    0  502  501  0.00000000000E+00  0.00000000000E+00  0.10417404773E+04  0.10417404773E+04  0.00000000000E+00 0.  1.
         21   -1    0    0  501  502 -0.00000000000E+00 -0.00000000000E+00 -0.16684753578E+03  0.16684753578E+03  0.00000000000E+00 0.  1.
         25    1    1    2    0    0  0.11411305951E+03 -0.17857012431E+03  0.10222324443E+03  0.26642760996E+03  0.12500000000E+03 0.  0.
         25    1    1    2    0    0 -0.18591148482E+03  0.26057273682E+03  0.65215832163E+03  0.73715446673E+03  0.12500000000E+03 0.  0.
         25    1    1    2    0    0  0.71798425309E+02 -0.82002612506E+02  0.12051137542E+03  0.20500593635E+03  0.12500000000E+03 0.  0.
</event>
<event>
 5    0  0.5663008E-005  0.3713277E+03  0.7546771E-02  0.1054186E+00
         21   -1    0    0  502  501  0.00000000000E+00  0.00000000000E+00  0.10903820516E+04  0.10903820516E+04  0.00000000000E+00 0. -1.
         21   -1    0    0  501  502 -0.00000000000E+00 -0.00000000000E+00 -0.12645498135E+03  0.12645498135E+03  0.00000000000E+00 0. -1.
         25    1    1    2    0    0 -0.11736854265E+03  0.17745230834E+03  0.75229247419E+03  0.79172827616E+03  0.12500000000E+03 0.  0.
         25    1    1    2    0    0  0.77682641372E+01 -0.15655663303E+03  0.12776346533E+03  0.23773688891E+03  0.12500000000E+03 0.  0.
         25    1    1    2    0    0  0.10960027852E+03 -0.20895675315E+02  0.83871130706E+02  0.18737186786E+03  0.12500000000E+03 0.  0.
</event>
<event>
 5    0  0.5663008E-005  0.2052053E+03  0.7546771E-02  0.1145420E+00
         21   -1    0    0  502  501  0.00000000000E+00  0.00000000000E+00  0.22887143933E+03  0.22887143933E+03  0.00000000000E+00 0. -1.
         21   -1    0    0  501  502 -0.00000000000E+00 -0.00000000000E+00 -0.18398635643E+03  0.18398635643E+03  0.00000000000E+00 0. -1.
         25    1    1    2    0    0 -0.38176859713E+02 -0.28942473980E+02 -0.95874622098E+01  0.13420901180E+03  0.12500000000E+03 0.  0.
         25    1    1    2    0    0  0.31079845193E+02  0.53772027697E+02  0.57535071438E+02  0.15097242194E+03  0.12500000000E+03 0.  0.
         25    1    1    2    0    0  0.70970145196E+01 -0.24829553717E+02 -0.30625263261E+01  0.12767636203E+03  0.12500000000E+03 0.  0.
</event>
<event>
 5    0  0.6209341E-005  0.2771375E+03  0.7546771E-02  0.1097263E+00
         21   -1    0    0  502  501  0.00000000000E+00  0.00000000000E+00  0.78634679497E+02  0.78634679497E+02  0.00000000000E+00 0.  1.
         21   -1    0    0  501  502 -0.00000000000E+00 -0.00000000000E+00 -0.97673411615E+03  0.97673411615E+03  0.00000000000E+00 0.  1.
         25    1    1    2    0    0  0.99432534276E+02 -0.13806986782E+03 -0.52191423525E+03  0.56300052063E+03  0.12500000000E+03 0.  0.
         25    1    1    2    0    0 -0.78049434474E+02  0.73601924560E+02 -0.26408525627E+03  0.31124745798E+03  0.12500000000E+03 0.  0.
         25    1    1    2    0    0 -0.21383099802E+02  0.64467943261E+02 -0.11209994514E+03  0.18112081704E+03  0.12500000000E+03 0.  0.
</event>
<event>
 5    0  0.5663008E-005  0.3195155E+03  0.7546771E-02  0.1075872E+00
         21   -1    0    0  502  501  0.00000000000E+00  0.00000000000E+00  0.42048785719E+03  0.42048785719E+03  0.00000000000E+00 0. -1.
         21   -1    0    0  501  502 -0.00000000000E+00 -0.00000000000E+00 -0.24278980950E+03  0.24278980950E+03  0.00000000000E+00 0. -1.
         25    1    1    2    0    0 -0.54790826143E+02 -0.58650158817E+02 -0.13151115846E+03  0.19839874132E+03  0.12500000000E+03 0.  0.
         25    1    1    2    0    0  0.12367406523E+03  0.73470022504E+01  0.88261168642E+02  0.19688648187E+03  0.12500000000E+03 0.  0.
         25    1    1    2    0    0 -0.68883239083E+02  0.51303156567E+02  0.22094803750E+03  0.26799244351E+03  0.12500000000E+03 0.  0.
</event>
<event>
 5    0  0.5663008E-005  0.3723098E+03  0.7546771E-02  0.1053813E+00
         21   -1    0    0  502  501  0.00000000000E+00  0.00000000000E+00  0.73123550673E+03  0.73123550673E+03  0.00000000000E+00 0. -1.
         21   -1    0    0  501  502 -0.00000000000E+00 -0.00000000000E+00 -0.18956218387E+03  0.18956218387E+03  0.00000000000E+00 0. -1.
         25    1    1    2    0    0  0.13310395542E+03  0.10920608907E+03  0.69429272159E+02  0.22380361184E+03  0.12500000000E+03 0.  0.
         25    1    1    2    0    0  0.13329135630E+03 -0.76051099303E+02  0.28376553765E+03  0.34597432813E+03  0.12500000000E+03 0.  0.
         25    1    1    2    0    0 -0.26639531172E+03 -0.33154989770E+02  0.18847851305E+03  0.35101975063E+03  0.12500000000E+03 0.  0.
</event>
<event>
 5    0  0.5663008E-005  0.4200836E+03  0.7546771E-02  0.1037039E+00
         21   -1    0    0  502  501  0.00000000000E+00  0.00000000000E+00  0.25200789790E+03  0.25200789790E+03  0.00000000000E+00 0. -1.
         21   -1    0    0  501  502 -0.00000000000E+00 -0.00000000000E+00 -0.70025660323E+03  0.70025660323E+03  0.00000000000E+00 0. -1.
         25    1    1    2    0    0 -0.92828262429E+02 -0.25445550412E+03 -0.19297487235E+03  0.35528719544E+03  0.12500000000E+03 0.  0.
         25    1    1    2    0    0  0.15109462970E+03  0.32621592322E+03 -0.21164713299E+03  0.43550651498E+03  0.12500000000E+03 0.  0.
         25    1    1    2    0    0 -0.58266367274E+02 -0.71760419095E+02 -0.43626699992E+02  0.16147079072E+03  0.12500000000E+03 0.  0.
</event>
<event>
 5    0  0.5663008E-005  0.3245363E+03  0.7546771E-02  0.1073580E+00
         21   -1    0    0  502  501  0.00000000000E+00  0.00000000000E+00  0.39865482209E+03  0.39865482209E+03  0.00000000000E+00 0. -1.
         21   -1    0    0  501  502 -0.00000000000E+00 -0.00000000000E+00 -0.26419792902E+03  0.26419792902E+03  0.00000000000E+00 0. -1.
         25    1    1    2    0    0 -0.14074143750E+02  0.11553319733E+03 -0.12495306400E+03  0.21162294160E+03  0.12500000000E+03 0.  0.
         25    1    1    2    0    0 -0.11099878546E+03 -0.91891897710E+02  0.13050760634E+03  0.23113218415E+03  0.12500000000E+03 0.  0.
         25    1    1    2    0    0  0.12507292921E+03 -0.23641299620E+02  0.12890235073E+03  0.22009762536E+03  0.12500000000E+03 0.  0.
</event>
<event>
 5    0  0.5663008E-005  0.3560071E+03  0.7546771E-02  0.1060176E+00
         21   -1    0    0  502  501  0.00000000000E+00  0.00000000000E+00  0.12264018994E+04  0.12264018994E+04  0.00000000000E+00 0. -1.
         21   -1    0    0  501  502 -0.00000000000E+00 -0.00000000000E+00 -0.10334379471E+03  0.10334379471E+03  0.00000000000E+00 0. -1.
         25    1    1    2    0    0 -0.14047833113E+03  0.75230879287E+02  0.91582058871E+03  0.93794786498E+03  0.12500000000E+03 0.  0.
         25    1    1    2    0    0  0.84283751614E+02  0.11516266519E+02  0.16580187639E+03  0.22439170527E+03  0.12500000000E+03 0.  0.
         25    1    1    2    0    0  0.56194579519E+02 -0.86747145806E+02  0.41435639579E+02  0.16740612384E+03  0.12500000000E+03 0.  0.
</event>
<event>
 5    0  0.5663008E-005  0.3680390E+03  0.7546771E-02  0.1055445E+00
         21   -1    0    0  502  501  0.00000000000E+00  0.00000000000E+00  0.53394566873E+03  0.53394566873E+03  0.00000000000E+00 0.  1.
         21   -1    0    0  501  502 -0.00000000000E+00 -0.00000000000E+00 -0.25368250611E+03  0.25368250611E+03  0.00000000000E+00 0.  1.
         25    1    1    2    0    0  0.68208916604E+02  0.41136037657E+02  0.35455691137E+02  0.15240320184E+03  0.12500000000E+03 0.  0.
         25    1    1    2    0    0  0.27558083100E+02 -0.26920324670E+03  0.65701071978E+02  0.30524001513E+03  0.12500000000E+03 0.  0.
         25    1    1    2    0    0 -0.95766999704E+02  0.22806720905E+03  0.17910639950E+03  0.32998495787E+03  0.12500000000E+03 0.  0.
</event>
<event>
 5    0  0.5663008E-005  0.3388797E+03  0.7546771E-02  0.1067274E+00
         21   -1    0    0  502  501  0.00000000000E+00  0.00000000000E+00  0.61802881260E+02  0.61802881260E+02  0.00000000000E+00 0.  1.
         21   -1    0    0  501  502 -0.00000000000E+00 -0.00000000000E+00 -0.18581569443E+04  0.18581569443E+04  0.00000000000E+00 0.  1.
         25    1    1    2    0    0  0.65908570827E+02 -0.15497606301E+03 -0.71519788835E+03  0.74531506044E+03  0.12500000000E+03 0.  0.
         25    1    1    2    0    0  0.64248372376E+02  0.22446218017E+03 -0.66318032266E+03  0.71410381882E+03  0.12500000000E+03 0.  0.
         25    1    1    2    0    0 -0.13015694320E+03 -0.69486117165E+02 -0.41797585197E+03  0.46054094625E+03  0.12500000000E+03 0.  0.
</event>
<event>
 5    0  0.5663008E-005  0.3390563E+03  0.7546771E-02  0.1067199E+00
         21   -1    0    0  502  501  0.00000000000E+00  0.00000000000E+00  0.33650115146E+03  0.33650115146E+03  0.00000000000E+00 0. -1.
         21   -1    0    0  501  502 -0.00000000000E+00 -0.00000000000E+00 -0.34163084434E+03  0.34163084434E+03  0.00000000000E+00 0. -1.
         25    1    1    2    0    0 -0.15464062339E+03 -0.51740349370E+01  0.14590125478E+03  0.24668333788E+03  0.12500000000E+03 0.  0.
         25    1    1    2    0    0  0.35680503173E+02 -0.68920381458E+02  0.50901766582E+02  0.15568913619E+03  0.12500000000E+03 0.  0.
         25    1    1    2    0    0  0.11896012022E+03  0.74094416395E+02 -0.20193271425E+03  0.27575952173E+03  0.12500000000E+03 0.  0.
</event>
<event>
 5    0  0.5663008E-005  0.3546713E+03  0.7546771E-02  0.1060714E+00
         21   -1    0    0  502  501  0.00000000000E+00  0.00000000000E+00  0.64739878088E+03  0.64739878088E+03  0.00000000000E+00 0. -1.
         21   -1    0    0  501  502 -0.00000000000E+00 -0.00000000000E+00 -0.19430328173E+03  0.19430328173E+03  0.00000000000E+00 0.  1.
         25    1    1    2    0    0  0.16677811092E+02 -0.17916236725E+03 -0.28361181966E+02  0.22092229372E+03  0.12500000000E+03 0.  0.
         25    1    1    2    0    0  0.37763224526E+02  0.72305958170E+02  0.40462867959E+03  0.43128132473E+03  0.12500000000E+03 0.  0.
         25    1    1    2    0    0 -0.54441035618E+02  0.10685640908E+03  0.76828001526E+02  0.18949844416E+03  0.12500000000E+03 0.  0.
</event>
<event>
 5    0  0.5663008E-005  0.4639997E+03  0.7546771E-02  0.1023628E+00
         21   -1    0    0  502  501  0.00000000000E+00  0.00000000000E+00  0.21276458978E+04  0.21276458978E+04  0.00000000000E+00 0. -1.
         21   -1    0    0  501  502 -0.00000000000E+00 -0.00000000000E+00 -0.10118962359E+03  0.10118962359E+03  0.00000000000E+00 0. -1.
         25    1    1    2    0    0 -0.25444363322E+03  0.33288096440E+02  0.55033023170E+03  0.61995001716E+03  0.12500000000E+03 0.  0.
         25    1    1    2    0    0  0.36194060447E+03  0.10071786477E+03  0.11783070961E+04  0.12430517697E+04  0.12500000000E+03 0.  0.
         25    1    1    2    0    0 -0.10749697125E+03 -0.13400596121E+03  0.29781894637E+03  0.36583373448E+03  0.12500000000E+03 0.  0.
</event>
<event>
 5    0  0.5908477E-005  0.3901301E+03  0.7546771E-02  0.1047252E+00
         21   -1    0    0  502  501  0.00000000000E+00  0.00000000000E+00  0.44870344630E+03  0.44870344630E+03  0.00000000000E+00 0. -1.
         21   -1    0    0  501  502 -0.00000000000E+00 -0.00000000000E+00 -0.33920285819E+03  0.33920285819E+03  0.00000000000E+00 0. -1.
         25    1    1    2    0    0 -0.19904994595E+02  0.10910699522E+03 -0.21600106299E+03  0.27309706045E+03  0.12500000000E+03 0.  0.
         25    1    1    2    0    0 -0.87938835740E+02 -0.15608611256E+03  0.12818846887E+03  0.25328520864E+03  0.12500000000E+03 0.  0.
         25    1    1    2    0    0  0.10784383034E+03  0.46979117344E+02  0.19731318223E+03  0.26152403539E+03  0.12500000000E+03 0.  0.
</event>
<event>
 5    0  0.5663008E-005  0.2966792E+03  0.7546771E-02  0.1086913E+00
         21   -1    0    0  502  501  0.00000000000E+00  0.00000000000E+00  0.11286435033E+03  0.11286435033E+03  0.00000000000E+00 0.  1.
         21   -1    0    0  501  502 -0.00000000000E+00 -0.00000000000E+00 -0.77986131663E+03  0.77986131663E+03  0.00000000000E+00 0.  1.
         25    1    1    2    0    0 -0.91247387673E+02 -0.17875827540E+03 -0.34283071552E+03  0.41645948937E+03  0.12500000000E+03 0.  0.
         25    1    1    2    0    0  0.33168407190E+02  0.16573431166E+03 -0.20424928686E+03  0.29310540166E+03  0.12500000000E+03 0.  0.
         25    1    1    2    0    0  0.58078980483E+02  0.13023963742E+02 -0.11991696391E+03  0.18316077593E+03  0.12500000000E+03 0.  0.
</event>
<event>
 5    0  0.5663008E-005  0.3295931E+03  0.7546771E-02  0.1071317E+00
         21   -1    0    0  502  501  0.00000000000E+00  0.00000000000E+00  0.53716447540E+03  0.53716447540E+03  0.00000000000E+00 0. -1.
         21   -1    0    0  501  502 -0.00000000000E+00 -0.00000000000E+00 -0.20223153277E+03  0.20223153277E+03  0.00000000000E+00 0. -1.
         25    1    1    2    0    0  0.91361857336E+02  0.15860540917E+03  0.13391604311E+03  0.25896171801E+03  0.12500000000E+03 0.  0.
         25    1    1    2    0    0 -0.18529148380E+03 -0.16739014250E+03  0.11757655088E+03  0.30298785304E+03  0.12500000000E+03 0.  0.
         25    1    1    2    0    0  0.93929626462E+02  0.87847333255E+01  0.83440348635E+02  0.17744643712E+03  0.12500000000E+03 0.  0.
</event>
<event>
 5    0  0.5663008E-005  0.3276429E+03  0.7546771E-02  0.1072185E+00
         21   -1    0    0  502  501  0.00000000000E+00  0.00000000000E+00  0.77361065898E+02  0.77361065898E+02  0.00000000000E+00 0.  1.
         21   -1    0    0  501  502 -0.00000000000E+00 -0.00000000000E+00 -0.13876468913E+04  0.13876468913E+04  0.00000000000E+00 0.  1.
         25    1    1    2    0    0  0.19314192353E+03  0.44776501824E+02 -0.65916360076E+03  0.69959301762E+03  0.12500000000E+03 0.  0.
         25    1    1    2    0    0 -0.64448858541E+02 -0.14064345371E+03 -0.32843046381E+03  0.38396068288E+03  0.12500000000E+03 0.  0.
         25    1    1    2    0    0 -0.12869306499E+03  0.95866951888E+02 -0.32269176082E+03  0.38145425668E+03  0.12500000000E+03 0.  0.
</event>
<event>
 5    0  0.5663008E-005  0.2580293E+03  0.7546771E-02  0.1108333E+00
         21   -1    0    0  502  501  0.00000000000E+00  0.00000000000E+00  0.10276287686E+04  0.10276287686E+04  0.00000000000E+00 0. -1.
         21   -1    0    0  501  502 -0.00000000000E+00 -0.00000000000E+00 -0.64789068649E+02  0.64789068649E+02  0.00000000000E+00 0. -1.
         25    1    1    2    0    0  0.35920105930E+02 -0.45908499711E+02  0.24626437762E+03  0.28225695393E+03  0.12500000000E+03 0.  0.
         25    1    1    2    0    0 -0.11121011515E+03  0.10537791945E+03  0.25661468988E+03  0.32395724206E+03  0.12500000000E+03 0.  0.
         25    1    1    2    0    0  0.75290009218E+02 -0.59469419742E+02  0.45996063243E+03  0.48620364124E+03  0.12500000000E+03 0.  0.
</event>
<event>
 5    0  0.5663008E-005  0.3768744E+03  0.7546771E-02  0.1052095E+00
         21   -1    0    0  502  501  0.00000000000E+00  0.00000000000E+00  0.54347249596E+02  0.54347249596E+02  0.00000000000E+00 0.  1.
         21   -1    0    0  501  502 -0.00000000000E+00 -0.00000000000E+00 -0.26134597278E+04  0.26134597278E+04  0.00000000000E+00 0.  1.
         25    1    1    2    0    0 -0.70966233474E+02  0.30796245945E+03 -0.11165150567E+04  0.11670938071E+04  0.12500000000E+03 0.  0.
         25    1    1    2    0    0  0.31078476263E+02 -0.16426598905E+03 -0.57943566300E+03  0.61588949854E+03  0.12500000000E+03 0.  0.
         25    1    1    2    0    0  0.39887757211E+02 -0.14369647039E+03 -0.86316175843E+03  0.88482367170E+03  0.12500000000E+03 0.  0.
</event>
<event>
 5    0  0.5663008E-005  0.5119295E+03  0.7546771E-02  0.1010711E+00
         21   -1    0    0  502  501  0.00000000000E+00  0.00000000000E+00  0.44038447428E+03  0.44038447428E+03  0.00000000000E+00 0.  1.
         21   -1    0    0  501  502 -0.00000000000E+00 -0.00000000000E+00 -0.59509778268E+03  0.59509778268E+03  0.00000000000E+00 0.  1.
         25    1    1    2    0    0 -0.57972416178E+02 -0.30886832474E+03  0.11151269757E+03  0.35611869480E+03  0.12500000000E+03 0.  0.
         25    1    1    2    0    0 -0.97117619096E+02  0.32860910417E+03 -0.30501207229E+03  0.47547149181E+03  0.12500000000E+03 0.  0.
         25    1    1    2    0    0  0.15509003527E+03 -0.19740779431E+02  0.38786066314E+02  0.20389207036E+03  0.12500000000E+03 0.  0.
</event>
<event>
 5    0  0.5663008E-005  0.4484122E+03  0.7546771E-02  0.1028197E+00
         21   -1    0    0  502  501  0.00000000000E+00  0.00000000000E+00  0.33147888923E+03  0.33147888923E+03  0.00000000000E+00 0. -1.
         21   -1    0    0  501  502 -0.00000000000E+00 -0.00000000000E+00 -0.60659510408E+03  0.60659510408E+03  0.00000000000E+00 0.  1.
         25    1    1    2    0    0  0.43927282022E+02  0.96570462092E+02 -0.27055038611E+03  0.31635102604E+03  0.12500000000E+03 0.  0.
         25    1    1    2    0    0 -0.22286873472E+03 -0.18805710189E+03 -0.14248251393E+03  0.34779622376E+03  0.12500000000E+03 0.  0.
         25    1    1    2    0    0  0.17894145270E+03  0.91486639799E+02  0.13791668519E+03  0.27392674351E+03  0.12500000000E+03 0.  0.
</event>
<event>
 5    0  0.5663008E-005  0.3642080E+03  0.7546771E-02  0.1056930E+00
         21   -1    0    0  502  501  0.00000000000E+00  0.00000000000E+00  0.18350313423E+03  0.18350313423E+03  0.00000000000E+00 0. -1.
         21   -1    0    0  501  502 -0.00000000000E+00 -0.00000000000E+00 -0.72286203720E+03  0.72286203720E+03  0.00000000000E+00 0. -1.
         25    1    1    2    0    0 -0.17066791557E+03 -0.84604815504E+01 -0.83676856309E+01  0.21188236197E+03  0.12500000000E+03 0.  0.
         25    1    1    2    0    0  0.24031433382E+03  0.49839444056E+02 -0.44252408027E+03  0.52123652102E+03  0.12500000000E+03 0.  0.
         25    1    1    2    0    0 -0.69646418253E+02 -0.41378962506E+02 -0.88467137066E+02  0.17324628843E+03  0.12500000000E+03 0.  0.
</event>
<event>
 5    0  0.5663008E-005  0.2390262E+03  0.7546771E-02  0.1120443E+00
         21   -1    0    0  502  501  0.00000000000E+00  0.00000000000E+00  0.12006926131E+04  0.12006926131E+04  0.00000000000E+00 0.  1.
         21   -1    0    0  501  502 -0.00000000000E+00 -0.00000000000E+00 -0.47583820095E+02  0.47583820095E+02  0.00000000000E+00 0.  1.
         25    1    1    2    0    0  0.80778485138E+02 -0.72972034832E+02  0.29713113235E+03  0.34023813916E+03  0.12500000000E+03 0.  0.
         25    1    1    2    0    0 -0.99509568948E+02  0.73521919686E+02  0.46576738546E+03  0.49786733609E+03  0.12500000000E+03 0.  0.
         25    1    1    2    0    0  0.18731083809E+02 -0.54988485331E+00  0.39021027521E+03  0.41017095796E+03  0.12500000000E+03 0.  0.
</event>
<event>
 5    0  0.6332466E-005  0.3560400E+03  0.7546771E-02  0.1060163E+00
         21   -1    0    0  502  501  0.00000000000E+00  0.00000000000E+00  0.34732192582E+03  0.34732192582E+03  0.00000000000E+00 0.  1.
         21   -1    0    0  501  502 -0.00000000000E+00 -0.00000000000E+00 -0.36497685682E+03  0.36497685682E+03  0.00000000000E+00 0.  1.
         25    1    1    2    0    0 -0.81371146604E+02  0.34950173218E+02  0.23619748927E+03  0.28152625462E+03  0.12500000000E+03 0.  0.
         25    1    1    2    0    0  0.32281386863E+02 -0.12942713881E+03 -0.11720439381E+03  0.21715280824E+03  0.12500000000E+03 0.  0.
         25    1    1    2    0    0  0.49089759741E+02  0.94476965597E+02 -0.13664802647E+03  0.21361971977E+03  0.12500000000E+03 0.  0.
</event>
<event>
 5    0  0.5663008E-005  0.4107414E+03  0.7546771E-02  0.1040122E+00
         21   -1    0    0  502  501  0.00000000000E+00  0.00000000000E+00  0.21722750421E+03  0.21722750421E+03  0.00000000000E+00 0. -1.
         21   -1    0    0  501  502 -0.00000000000E+00 -0.00000000000E+00 -0.77664426478E+03  0.77664426478E+03  0.00000000000E+00 0. -1.
         25    1    1    2    0    0  0.71690889068E+00  0.72595308598E+02 -0.13761985919E+03  0.19958661887E+03  0.12500000000E+03 0.  0.
         25    1    1    2    0    0 -0.47600372571E+02  0.21849181843E+03 -0.39778955120E+03  0.47314479521E+03  0.12500000000E+03 0.  0.
         25    1    1    2    0    0  0.46883463681E+02 -0.29108712702E+03 -0.24007350182E+02  0.32114035491E+03  0.12500000000E+03 0.  0.
</event>
<event>
 5    0  0.5663008E-005  0.3876295E+03  0.7546771E-02  0.1048149E+00
         21   -1    0    0  502  501  0.00000000000E+00  0.00000000000E+00  0.90335793242E+02  0.90335793242E+02  0.00000000000E+00 0.  1.
         21   -1    0    0  501  502 -0.00000000000E+00 -0.00000000000E+00 -0.16633122201E+04  0.16633122201E+04  0.00000000000E+00 0.  1.
         25    1    1    2    0    0  0.10373427018E+03 -0.58332971997E+01 -0.14637750235E+03  0.21873774105E+03  0.12500000000E+03 0.  0.
         25    1    1    2    0    0 -0.18964513741E+02 -0.10323440337E+03 -0.91989027685E+02  0.18736055090E+03  0.12500000000E+03 0.  0.
         25    1    1    2    0    0 -0.84769756441E+02  0.10906770056E+03 -0.13346098969E+04  0.13475497214E+04  0.12500000000E+03 0.  0.
</event>
<event>
 5    0  0.5792601E-005  0.2911177E+03  0.7546771E-02  0.1089767E+00
         21   -1    0    0  502  501  0.00000000000E+00  0.00000000000E+00  0.83451905003E+03  0.83451905003E+03  0.00000000000E+00 0. -1.
         21   -1    0    0  501  502 -0.00000000000E+00 -0.00000000000E+00 -0.10155490550E+03  0.10155490550E+03  0.00000000000E+00 0. -1.
         25    1    1    2    0    0  0.15434449567E+03 -0.28326026875E+02  0.47420362794E+03  0.51489675459E+03  0.12500000000E+03 0.  0.
         25    1    1    2    0    0 -0.10666790008E+03 -0.23681269719E+01  0.22707747677E+03  0.28030845400E+03  0.12500000000E+03 0.  0.
         25    1    1    2    0    0 -0.47676595597E+02  0.30694153847E+02  0.31683039826E+02  0.14086874693E+03  0.12500000000E+03 0.  0.
</event>
<event>
 5    0  0.6645823E-005  0.3045539E+03  0.7546771E-02  0.1082986E+00
         21   -1    0    0  502  501  0.00000000000E+00  0.00000000000E+00  0.61086112956E+03  0.61086112956E+03  0.00000000000E+00 0.  1.
         21   -1    0    0  501  502 -0.00000000000E+00 -0.00000000000E+00 -0.15183986348E+03  0.15183986348E+03  0.00000000000E+00 0.  1.
         25    1    1    2    0    0 -0.29382939926E+02 -0.20448166126E+03  0.10024486960E+03  0.26143859858E+03  0.12500000000E+03 0.  0.
         25    1    1    2    0    0 -0.82670756977E+01  0.58871013694E+02  0.22553564008E+03  0.26462325245E+03  0.12500000000E+03 0.  0.
         25    1    1    2    0    0  0.37650015624E+02  0.14561064756E+03  0.13324075641E+03  0.23663914201E+03  0.12500000000E+03 0.  0.
</event>
<event>
 5    0  0.5663008E-005  0.2768319E+03  0.7546771E-02  0.1097432E+00
         21   -1    0    0  502  501  0.00000000000E+00  0.00000000000E+00  0.27956906076E+03  0.27956906076E+03  0.00000000000E+00 0. -1.
         21   -1    0    0  501  502 -0.00000000000E+00 -0.00000000000E+00 -0.27412157648E+03  0.27412157648E+03  0.00000000000E+00 0. -1.
         25    1    1    2    0    0  0.58715121467E+02  0.12149858608E+02  0.10835556811E+03  0.17595742011E+03  0.12500000000E+03 0.  0.
         25    1    1    2    0    0 -0.11524808210E+03 -0.92652999105E+02 -0.10809332371E+02  0.19392921476E+03  0.12500000000E+03 0.  0.
         25    1    1    2    0    0  0.56532960629E+02  0.80503140497E+02 -0.92098751455E+02  0.18380400237E+03  0.12500000000E+03 0.  0.
</event>
<event>
 5    0  0.5663008E-005  0.4014969E+03  0.7546771E-02  0.1043263E+00
         21   -1    0    0  502  501  0.00000000000E+00  0.00000000000E+00  0.54606887649E+03  0.54606887649E+03  0.00000000000E+00 0.  1.
         21   -1    0    0  501  502 -0.00000000000E+00 -0.00000000000E+00 -0.29520035909E+03  0.29520035909E+03  0.00000000000E+00 0.  1.
         25    1    1    2    0    0 -0.11809457236E+03  0.55096532960E+02 -0.17623740597E+03  0.25232237163E+03  0.12500000000E+03 0.  0.
         25    1    1    2    0    0  0.78996964920E+02 -0.15534234580E+03  0.34113819437E+03  0.40295413203E+03  0.12500000000E+03 0.  0.
         25    1    1    2    0    0  0.39097607441E+02  0.10024581284E+03  0.85967728990E+02  0.18599273192E+03  0.12500000000E+03 0.  0.
</event>
<event>
 5    0  0.7704483E-005  0.7438883E+03  0.7546771E-02  0.9644988E-01
         21   -1    0    0  502  501  0.00000000000E+00  0.00000000000E+00  0.42391981817E+03  0.42391981817E+03  0.00000000000E+00 0. -1.
         21   -1    0    0  501  502 -0.00000000000E+00 -0.00000000000E+00 -0.13053641677E+04  0.13053641677E+04  0.00000000000E+00 0. -1.
         25    1    1    2    0    0 -0.42031736618E+03 -0.19543623491E+03 -0.65988054778E+03  0.81604494213E+03  0.12500000000E+03 0.  0.
         25    1    1    2    0    0  0.48497053668E+02  0.26218488230E+03 -0.38360510905E+03  0.48360185732E+03  0.12500000000E+03 0.  0.
         25    1    1    2    0    0  0.37182031251E+03 -0.66748647385E+02  0.16204130726E+03  0.42963718645E+03  0.12500000000E+03 0.  0.
</event>
<event>
 5    0  0.5663008E-005  0.2252436E+03  0.7546771E-02  0.1130033E+00
         21   -1    0    0  502  501  0.00000000000E+00  0.00000000000E+00  0.82550863914E+02  0.82550863914E+02  0.00000000000E+00 0. -1.
         21   -1    0    0  501  502 -0.00000000000E+00 -0.00000000000E+00 -0.61458693247E+03  0.61458693247E+03  0.00000000000E+00 0. -1.
         25    1    1    2    0    0  0.41949764540E+02 -0.81973534915E+02 -0.14681548918E+03  0.21368020740E+03  0.12500000000E+03 0.  0.
         25    1    1    2    0    0  0.37851772022E+02  0.51186036642E+02 -0.17287931686E+03  0.22263203990E+03  0.12500000000E+03 0.  0.
         25    1    1    2    0    0 -0.79801536562E+02  0.30787498272E+02 -0.21234126251E+03  0.26082554908E+03  0.12500000000E+03 0.  0.
</event>
<event>
 5    0  0.5663008E-005  0.2586682E+03  0.7546771E-02  0.1107946E+00
         21   -1    0    0  502  501  0.00000000000E+00  0.00000000000E+00  0.31805212478E+03  0.31805212478E+03  0.00000000000E+00 0. -1.
         21   -1    0    0  501  502 -0.00000000000E+00 -0.00000000000E+00 -0.21037186831E+03  0.21037186831E+03  0.00000000000E+00 0. -1.
         25    1    1    2    0    0 -0.65138868860E+02 -0.60093171285E+02 -0.13391239823E+02  0.15381348047E+03  0.12500000000E+03 0.  0.
         25    1    1    2    0    0 -0.20110295558E+02  0.13550113801E+03  0.62050333133E+02  0.19555108343E+03  0.12500000000E+03 0.  0.
         25    1    1    2    0    0  0.85249164418E+02 -0.75407966726E+02  0.59021163156E+02  0.17905942918E+03  0.12500000000E+03 0.  0.
</event>
<event>
 5    0  0.5663008E-005  0.3703394E+03  0.7546771E-02  0.1054563E+00
         21   -1    0    0  502  501  0.00000000000E+00  0.00000000000E+00  0.15961528538E+03  0.15961528538E+03  0.00000000000E+00 0.  1.
         21   -1    0    0  501  502 -0.00000000000E+00 -0.00000000000E+00 -0.85926141864E+03  0.85926141864E+03  0.00000000000E+00 0.  1.
         25    1    1    2    0    0  0.16086638663E+03 -0.19661704154E+02  0.28495139609E+02  0.20664353351E+03  0.12500000000E+03 0.  0.
         25    1    1    2    0    0  0.85801251703E+00  0.76238896832E+02 -0.26268179500E+03  0.30073215824E+03  0.12500000000E+03 0.  0.
         25    1    1    2    0    0 -0.16172439915E+03 -0.56577192678E+02 -0.46545947788E+03  0.51150101227E+03  0.12500000000E+03 0.  0.
</event>
<event>
 5    0  0.5976088E-005  0.3207628E+03  0.7546771E-02  0.1075299E+00
         21   -1    0    0  502  501  0.00000000000E+00  0.00000000000E+00  0.13259188818E+03  0.13259188818E+03  0.00000000000E+00 0.  1.
         21   -1    0    0  501  502 -0.00000000000E+00 -0.00000000000E+00 -0.77598102253E+03  0.77598102253E+03  0.00000000000E+00 0.  1.
         25    1    1    2    0    0  0.17505469359E+03 -0.32745645187E+02 -0.40401232658E+03  0.45887621758E+03  0.12500000000E+03 0.  0.
         25    1    1    2    0    0 -0.17362557555E+02 -0.33763154284E+02 -0.87935887374E+00  0.13064142629E+03  0.12500000000E+03 0.  0.
         25    1    1    2    0    0 -0.15769213603E+03  0.66508799471E+02 -0.23849744889E+03  0.31905526685E+03  0.12500000000E+03 0.  0.
</event>
<event>
 5    0  0.5663008E-005  0.2510338E+03  0.7546771E-02  0.1112653E+00
         21   -1    0    0  502  501  0.00000000000E+00  0.00000000000E+00  0.86340777547E+03  0.86340777547E+03  0.00000000000E+00 0.  1.
         21   -1    0    0  501  502 -0.00000000000E+00 -0.00000000000E+00 -0.72987486684E+02  0.72987486684E+02  0.00000000000E+00 0.  1.
         25    1    1    2    0    0 -0.62257138606E+02  0.75465790600E+01  0.43127368023E+03  0.45338161566E+03  0.12500000000E+03 0.  0.
         25    1    1    2    0    0  0.11493882203E+03  0.40242195012E+02  0.23702188352E+03  0.29433779971E+03  0.12500000000E+03 0.  0.
         25    1    1    2    0    0 -0.52681683420E+02 -0.47788774072E+02  0.12212472504E+03  0.18867584679E+03  0.12500000000E+03 0.  0.
</event>
<event>
 5    0  0.5663008E-005  0.2466275E+03  0.7546771E-02  0.1115455E+00
         21   -1    0    0  502  501  0.00000000000E+00  0.00000000000E+00  0.37986066991E+03  0.37986066991E+03  0.00000000000E+00 0.  1.
         21   -1    0    0  501  502 -0.00000000000E+00 -0.00000000000E+00 -0.16012484589E+03  0.16012484589E+03  0.00000000000E+00 0.  1.
         25    1    1    2    0    0  0.59717581129E+02 -0.23305266021E+02  0.42703952310E+02  0.14682626626E+03  0.12500000000E+03 0.  0.
         25    1    1    2    0    0  0.68688883097E+02 -0.30286637654E+02  0.16626105233E+02  0.14675445634E+03  0.12500000000E+03 0.  0.
         25    1    1    2    0    0 -0.12840646423E+03  0.53591903675E+02  0.16040576647E+03  0.24640479320E+03  0.12500000000E+03 0.  0.
</event>
<event>
 5    0  0.5663008E-005  0.4448874E+03  0.7546771E-02  0.1029258E+00
         21   -1    0    0  502  501  0.00000000000E+00  0.00000000000E+00  0.16991052851E+04  0.16991052851E+04  0.00000000000E+00 0.  1.
         21   -1    0    0  501  502 -0.00000000000E+00 -0.00000000000E+00 -0.11648765778E+03  0.11648765778E+03  0.00000000000E+00 0.  1.
         25    1    1    2    0    0 -0.21477684769E+03  0.74982184445E+02  0.50537954467E+03  0.56814162536E+03  0.12500000000E+03 0.  0.
         25    1    1    2    0    0  0.18812114052E+03 -0.20091314925E+03  0.10125634741E+04  0.10567239214E+04  0.12500000000E+03 0.  0.
         25    1    1    2    0    0  0.26655707167E+02  0.12593096481E+03  0.64674608521E+02  0.19072739606E+03  0.12500000000E+03 0.  0.
</event>
<event>
 5    0  0.5663008E-005  0.2739764E+03  0.7546771E-02  0.1099025E+00
         21   -1    0    0  502  501  0.00000000000E+00  0.00000000000E+00  0.59044807569E+03  0.59044807569E+03  0.00000000000E+00 0.  1.
         21   -1    0    0  501  502 -0.00000000000E+00 -0.00000000000E+00 -0.12712899949E+03  0.12712899949E+03  0.00000000000E+00 0.  1.
         25    1    1    2    0    0  0.10633470008E+03 -0.60216004169E+02  0.34230170127E+03  0.38435464130E+03  0.12500000000E+03 0.  0.
         25    1    1    2    0    0 -0.20346132384E+02  0.86633032124E+02  0.37193997811E+02  0.15788489741E+03  0.12500000000E+03 0.  0.
         25    1    1    2    0    0 -0.85988567696E+02 -0.26417027955E+02  0.83823377117E+02  0.17533753646E+03  0.12500000000E+03 0.  0.
</event>
<event>
 5    0  0.5663008E-005  0.3017045E+03  0.7546771E-02  0.1084392E+00
         21   -1    0    0  502  501  0.00000000000E+00  0.00000000000E+00  0.23533565694E+03  0.23533565694E+03  0.00000000000E+00 0.  1.
         21   -1    0    0  501  502 -0.00000000000E+00 -0.00000000000E+00 -0.38679050687E+03  0.38679050687E+03  0.00000000000E+00 0.  1.
         25    1    1    2    0    0  0.35364337852E+02  0.15283955494E+03  0.68664953271E+02  0.21201519227E+03  0.12500000000E+03 0.  0.
         25    1    1    2    0    0 -0.19324805757E+02  0.11041824954E+02 -0.32800468430E+02  0.13113443768E+03  0.12500000000E+03 0.  0.
         25    1    1    2    0    0 -0.16039532094E+02 -0.16388137989E+03 -0.18731933477E+03  0.27897653386E+03  0.12500000000E+03 0.  0.
</event>
<event>
 5    0  0.5663008E-005  0.2639319E+03  0.7546771E-02  0.1104804E+00
         21   -1    0    0  502  501  0.00000000000E+00  0.00000000000E+00  0.11330801444E+04  0.11330801444E+04  0.00000000000E+00 0. -1.
         21   -1    0    0  501  502 -0.00000000000E+00 -0.00000000000E+00 -0.61478483200E+02  0.61478483200E+02  0.00000000000E+00 0. -1.
         25    1    1    2    0    0 -0.50053968253E+02  0.49728589911E+02  0.61111653736E+03  0.62774736529E+03  0.12500000000E+03 0.  0.
         25    1    1    2    0    0  0.75422278947E+02 -0.10641621103E+03  0.18845147264E+03  0.26105916508E+03  0.12500000000E+03 0.  0.
         25    1    1    2    0    0 -0.25368310694E+02  0.56687621115E+02  0.27203365116E+03  0.30575209719E+03  0.12500000000E+03 0.  0.
</event>
<event>
 5    0  0.5663008E-005  0.2685756E+03  0.7546771E-02  0.1102098E+00
         21   -1    0    0  502  501  0.00000000000E+00  0.00000000000E+00  0.14196180266E+03  0.14196180266E+03  0.00000000000E+00 0. -1.
         21   -1    0    0  501  502 -0.00000000000E+00 -0.00000000000E+00 -0.50811461148E+03  0.50811461148E+03  0.00000000000E+00 0. -1.
         25    1    1    2    0    0 -0.11015627035E+03  0.24150863512E+02 -0.20266935374E+03  0.26347207642E+03  0.12500000000E+03 0.  0.
         25    1    1    2    0    0 -0.43356550471E+02 -0.12225875821E+02 -0.53931448899E+01  0.13297875214E+03  0.12500000000E+03 0.  0.
         25    1    1    2    0    0  0.15351282082E+03 -0.11924987691E+02 -0.15809031019E+03  0.25362558558E+03  0.12500000000E+03 0.  0.
</event>
<event>
 5    0  0.5663008E-005  0.3417435E+03  0.7546771E-02  0.1066056E+00
         21   -1    0    0  502  501  0.00000000000E+00  0.00000000000E+00  0.17328626291E+03  0.17328626291E+03  0.00000000000E+00 0.  1.
         21   -1    0    0  501  502 -0.00000000000E+00 -0.00000000000E+00 -0.67396368396E+03  0.67396368396E+03  0.00000000000E+00 0.  1.
         25    1    1    2    0    0  0.32737665758E+02  0.50431083638E+02 -0.54845838954E+03  0.56572666015E+03  0.12500000000E+03 0.  0.
         25    1    1    2    0    0  0.14958852515E+02 -0.29277881057E+01  0.59088721580E+02  0.13910002239E+03  0.12500000000E+03 0.  0.
         25    1    1    2    0    0 -0.47696518272E+02 -0.47503295532E+02 -0.11307753097E+02  0.14242326433E+03  0.12500000000E+03 0.  0.
</event>
<event>
 5    0  0.5663008E-005  0.2843502E+03  0.7546771E-02  0.1093336E+00
         21   -1    0    0  502  501  0.00000000000E+00  0.00000000000E+00  0.11460083363E+03  0.11460083363E+03  0.00000000000E+00 0. -1.
         21   -1    0    0  501  502 -0.00000000000E+00 -0.00000000000E+00 -0.70553617479E+03  0.70553617479E+03  0.00000000000E+00 0. -1.
         25    1    1    2    0    0  0.10012899480E+03 -0.77953302191E+00 -0.15664205197E+03  0.22402713166E+03  0.12500000000E+03 0.  0.
         25    1    1    2    0    0 -0.82854910961E+02 -0.17983830047E+01 -0.65347725661E+01  0.15011953139E+03  0.12500000000E+03 0.  0.
         25    1    1    2    0    0 -0.17274083841E+02  0.25779160267E+01 -0.42775851662E+03  0.44599034538E+03  0.12500000000E+03 0.  0.
</event>
<event>
 5    0  0.5663008E-005  0.3285190E+03  0.7546771E-02  0.1071794E+00
         21   -1    0    0  502  501  0.00000000000E+00  0.00000000000E+00  0.12595724537E+04  0.12595724537E+04  0.00000000000E+00 0.  1.
         21   -1    0    0  501  502 -0.00000000000E+00 -0.00000000000E+00 -0.85683602795E+02  0.85683602795E+02  0.00000000000E+00 0.  1.
         25    1    1    2    0    0 -0.16618367468E+03 -0.50121600597E+02  0.21736941566E+03  0.30496500035E+03  0.12500000000E+03 0.  0.
         25    1    1    2    0    0  0.18478278545E+03 -0.32793905751E+02  0.75770276856E+03  0.79054323318E+03  0.12500000000E+03 0.  0.
         25    1    1    2    0    0 -0.18599110771E+02  0.82915506348E+02  0.19881666665E+03  0.24974782291E+03  0.12500000000E+03 0.  0.
</event>
<event>
 5    0  0.5663008E-005  0.3307393E+03  0.7546771E-02  0.1070810E+00
         21   -1    0    0  502  501  0.00000000000E+00  0.00000000000E+00  0.28944653246E+03  0.28944653246E+03  0.00000000000E+00 0.  1.
         21   -1    0    0  501  502 -0.00000000000E+00 -0.00000000000E+00 -0.37792285843E+03  0.37792285843E+03  0.00000000000E+00 0.  1.
         25    1    1    2    0    0 -0.75502832385E+02 -0.81432098576E+02 -0.10566004362E+03  0.19779006343E+03  0.12500000000E+03 0.  0.
         25    1    1    2    0    0  0.51471679528E+01  0.19882330465E+03 -0.94472084875E+02  0.25319394667E+03  0.12500000000E+03 0.  0.
         25    1    1    2    0    0  0.70355664432E+02 -0.11739120607E+03  0.11165580252E+03  0.21638538078E+03  0.12500000000E+03 0.  0.
</event>
<event>
 5    0  0.5663008E-005  0.3268166E+03  0.7546771E-02  0.1072554E+00
         21   -1    0    0  502  501  0.00000000000E+00  0.00000000000E+00  0.50807117529E+03  0.50807117529E+03  0.00000000000E+00 0.  1.
         21   -1    0    0  501  502 -0.00000000000E+00 -0.00000000000E+00 -0.21022464328E+03  0.21022464328E+03  0.00000000000E+00 0.  1.
         25    1    1    2    0    0  0.64084390806E+02 -0.20100908048E+02 -0.30733622860E+02  0.14519094746E+03  0.12500000000E+03 0.  0.
         25    1    1    2    0    0 -0.18192681433E+03  0.11364808145E+03  0.27458008698E+03  0.37017897881E+03  0.12500000000E+03 0.  0.
         25    1    1    2    0    0  0.11784242353E+03 -0.93547173404E+02  0.54000067899E+02  0.20292589230E+03  0.12500000000E+03 0.  0.
</event>
<event>
 5    0  0.5663008E-005  0.3715080E+03  0.7546771E-02  0.1054118E+00
         21   -1    0    0  502  501  0.00000000000E+00  0.00000000000E+00  0.26094589033E+03  0.26094589033E+03  0.00000000000E+00 0. -1.
         21   -1    0    0  501  502 -0.00000000000E+00 -0.00000000000E+00 -0.52891512782E+03  0.52891512782E+03  0.00000000000E+00 0. -1.
         25    1    1    2    0    0 -0.44835466364E+02  0.15726307573E+03  0.11947247291E+03  0.23799278522E+03  0.12500000000E+03 0.  0.
         25    1    1    2    0    0 -0.42770158942E+02  0.42707664745E+02 -0.10827551282E+03  0.17607333075E+03  0.12500000000E+03 0.  0.
         25    1    1    2    0    0  0.87605625306E+02 -0.19997074048E+03 -0.27916619758E+03  0.37579490218E+03  0.12500000000E+03 0.  0.
</event>
<event>
 5    0  0.5663008E-005  0.3191390E+03  0.7546771E-02  0.1076046E+00
         21   -1    0    0  502  501  0.00000000000E+00  0.00000000000E+00  0.53630963417E+03  0.53630963417E+03  0.00000000000E+00 0.  1.
         21   -1    0    0  501  502 -0.00000000000E+00 -0.00000000000E+00 -0.18990839915E+03  0.18990839915E+03  0.00000000000E+00 0.  1.
         25    1    1    2    0    0 -0.26319109055E+02  0.31384906253E+01  0.37587803268E+02  0.13319305004E+03  0.12500000000E+03 0.  0.
         25    1    1    2    0    0 -0.60538154543E+02 -0.20646684016E+03  0.11829917417E+03  0.27552335446E+03  0.12500000000E+03 0.  0.
         25    1    1    2    0    0  0.86857263598E+02  0.20332834954E+03  0.19051425758E+03  0.31750162882E+03  0.12500000000E+03 0.  0.
</event>
<event>
 5    0  0.5663008E-005  0.2991745E+03  0.7546771E-02  0.1085654E+00
         21   -1    0    0  502  501  0.00000000000E+00  0.00000000000E+00  0.17999298001E+03  0.17999298001E+03  0.00000000000E+00 0.  1.
         21   -1    0    0  501  502 -0.00000000000E+00 -0.00000000000E+00 -0.49727158019E+03  0.49727158019E+03  0.00000000000E+00 0.  1.
         25    1    1    2    0    0 -0.15083606588E+01  0.12608151183E+03 -0.26751204633E+03  0.32107089203E+03  0.12500000000E+03 0.  0.
         25    1    1    2    0    0  0.45716729513E+02 -0.13275965360E+03 -0.10158781612E+03  0.21368254343E+03  0.12500000000E+03 0.  0.
         25    1    1    2    0    0 -0.44208368854E+02  0.66781417683E+01  0.51821262262E+02  0.14251112475E+03  0.12500000000E+03 0.  0.
</event>
<event>
 5    0  0.5663008E-005  0.3251754E+03  0.7546771E-02  0.1073292E+00
         21   -1    0    0  502  501  0.00000000000E+00  0.00000000000E+00  0.67351625882E+03  0.67351625882E+03  0.00000000000E+00 0.  1.
         21   -1    0    0  501  502 -0.00000000000E+00 -0.00000000000E+00 -0.15699556303E+03  0.15699556303E+03  0.00000000000E+00 0.  1.
         25    1    1    2    0    0 -0.77197298688E+01 -0.65880237926E+02 -0.63225623903E+02  0.15499122393E+03  0.12500000000E+03 0.  0.
         25    1    1    2    0    0  0.37633045231E+02  0.13724848688E+03  0.24316577040E+03  0.30823365348E+03  0.12500000000E+03 0.  0.
         25    1    1    2    0    0 -0.29913315362E+02 -0.71368248957E+02  0.33658054929E+03  0.36728694444E+03  0.12500000000E+03 0.  0.
</event>
<event>
 5    0  0.5663008E-005  0.2393401E+03  0.7546771E-02  0.1120233E+00
         21   -1    0    0  502  501  0.00000000000E+00  0.00000000000E+00  0.99211472511E+03  0.99211472511E+03  0.00000000000E+00 0.  1.
         21   -1    0    0  501  502 -0.00000000000E+00 -0.00000000000E+00 -0.57738956268E+02  0.57738956268E+02  0.00000000000E+00 0.  1.
         25    1    1    2    0    0  0.15912326345E+02 -0.97620007073E+02  0.38368623163E+03  0.41547923204E+03  0.12500000000E+03 0.  0.
         25    1    1    2    0    0 -0.87706238188E+02  0.32087998455E+02  0.29177935639E+03  0.33088097055E+03  0.12500000000E+03 0.  0.
         25    1    1    2    0    0  0.71793911844E+02  0.65532008618E+02  0.25891018083E+03  0.30349347879E+03  0.12500000000E+03 0.  0.
</event>
<event>
 5    0  0.5663008E-005  0.2246651E+03  0.7546771E-02  0.1130452E+00
         21   -1    0    0  502  501  0.00000000000E+00  0.00000000000E+00  0.56597625016E+02  0.56597625016E+02  0.00000000000E+00 0.  1.
         21   -1    0    0  501  502 -0.00000000000E+00 -0.00000000000E+00 -0.89181104551E+03  0.89181104551E+03  0.00000000000E+00 0.  1.
         25    1    1    2    0    0 -0.37479070494E+02  0.49598558292E+01 -0.13073002648E+03  0.18478263100E+03  0.12500000000E+03 0.  0.
         25    1    1    2    0    0  0.80515836890E+02 -0.48050675965E+01 -0.25623553456E+03  0.29628961817E+03  0.12500000000E+03 0.  0.
         25    1    1    2    0    0 -0.43036766396E+02 -0.15478823270E+00 -0.44824785945E+03  0.46733642135E+03  0.12500000000E+03 0.  0.
</event>
<event>
 5    0  0.6410780E-005  0.3289012E+03  0.7546771E-02  0.1071624E+00
         21   -1    0    0  502  501  0.00000000000E+00  0.00000000000E+00  0.46334175879E+03  0.46334175879E+03  0.00000000000E+00 0. -1.
         21   -1    0    0  501  502 -0.00000000000E+00 -0.00000000000E+00 -0.23346907490E+03  0.23346907490E+03  0.00000000000E+00 0. -1.
         25    1    1    2    0    0 -0.50095329721E+02  0.17882803254E+03  0.45791193807E+02  0.22849691620E+03  0.12500000000E+03 0.  0.
         25    1    1    2    0    0 -0.11478792870E+03 -0.87340435695E+02  0.26702337842E+02  0.19272424634E+03  0.12500000000E+03 0.  0.
         25    1    1    2    0    0  0.16488325842E+03 -0.91487596842E+02  0.15737915224E+03  0.27558967115E+03  0.12500000000E+03 0.  0.
</event>
<event>
 5    0  0.5663008E-005  0.2552860E+03  0.7546771E-02  0.1110009E+00
         21   -1    0    0  502  501  0.00000000000E+00  0.00000000000E+00  0.88963396102E+02  0.88963396102E+02  0.00000000000E+00 0.  1.
         21   -1    0    0  501  502 -0.00000000000E+00 -0.00000000000E+00 -0.73255932048E+03  0.73255932048E+03  0.00000000000E+00 0.  1.
         25    1    1    2    0    0 -0.83964342620E+01  0.63153522681E+02 -0.21636138013E+03  0.25786840510E+03  0.12500000000E+03 0.  0.
         25    1    1    2    0    0  0.36851923429E+02  0.74101446854E+02 -0.82591482587E+02  0.17115911218E+03  0.12500000000E+03 0.  0.
         25    1    1    2    0    0 -0.28455489167E+02 -0.13725496954E+03 -0.34464306166E+03  0.39249519931E+03  0.12500000000E+03 0.  0.
</event>
<event>
 5    0  0.5663008E-005  0.3652151E+03  0.7546771E-02  0.1056538E+00
         21   -1    0    0  502  501  0.00000000000E+00  0.00000000000E+00  0.47326688030E+03  0.47326688030E+03  0.00000000000E+00 0. -1.
         21   -1    0    0  501  502 -0.00000000000E+00 -0.00000000000E+00 -0.28183265291E+03  0.28183265291E+03  0.00000000000E+00 0. -1.
         25    1    1    2    0    0  0.57702823031E+02  0.14155412302E+03  0.30607207950E+03  0.36424209447E+03  0.12500000000E+03 0.  0.
         25    1    1    2    0    0  0.64074266025E+02 -0.22719755727E+02 -0.10970039067E+03  0.17966879134E+03  0.12500000000E+03 0.  0.
         25    1    1    2    0    0 -0.12177708906E+03 -0.11883436730E+03 -0.49374614418E+01  0.21118864741E+03  0.12500000000E+03 0.  0.
</event>
<event>
 5    0  0.5663008E-005  0.4080052E+03  0.7546771E-02  0.1041042E+00
         21   -1    0    0  502  501  0.00000000000E+00  0.00000000000E+00  0.12936719285E+04  0.12936719285E+04  0.00000000000E+00 0.  1.
         21   -1    0    0  501  502 -0.00000000000E+00 -0.00000000000E+00 -0.12867884047E+03  0.12867884047E+03  0.00000000000E+00 0.  1.
         25    1    1    2    0    0 -0.28922987046E+03 -0.11540372295E+03  0.27555976940E+03  0.43420055706E+03  0.12500000000E+03 0.  0.
         25    1    1    2    0    0  0.58498454633E+02  0.60532211380E+02  0.21656216798E+03  0.26383781080E+03  0.12500000000E+03 0.  0.
         25    1    1    2    0    0  0.23073141583E+03  0.54871511569E+02  0.67287115064E+03  0.72431240110E+03  0.12500000000E+03 0.  0.
</event>
<event>
 5    0  0.5663008E-005  0.2727469E+03  0.7546771E-02  0.1099718E+00
         21   -1    0    0  502  501  0.00000000000E+00  0.00000000000E+00  0.58348064284E+02  0.58348064284E+02  0.00000000000E+00 0. -1.
         21   -1    0    0  501  502 -0.00000000000E+00 -0.00000000000E+00 -0.12749498869E+04  0.12749498869E+04  0.00000000000E+00 0. -1.
         25    1    1    2    0    0  0.49299678950E+02 -0.59906395147E+02 -0.24900589507E+03  0.28921993414E+03  0.12500000000E+03 0.  0.
         25    1    1    2    0    0 -0.11303490790E+03 -0.81980230988E+02 -0.38363406152E+03  0.42696339637E+03  0.12500000000E+03 0.  0.
         25    1    1    2    0    0  0.63735228948E+02  0.14188662613E+03 -0.58396186602E+03  0.61711462068E+03  0.12500000000E+03 0.  0.
</event>
<event>
 5    0  0.5720709E-005  0.3211397E+03  0.7546771E-02  0.1075126E+00
         21   -1    0    0  502  501  0.00000000000E+00  0.00000000000E+00  0.36547169302E+03  0.36547169302E+03  0.00000000000E+00 0.  1.
         21   -1    0    0  501  502 -0.00000000000E+00 -0.00000000000E+00 -0.28218514254E+03  0.28218514254E+03  0.00000000000E+00 0.  1.
         25    1    1    2    0    0 -0.68417332500E+02  0.14112714934E+03  0.18300159482E+03  0.27150025299E+03  0.12500000000E+03 0.  0.
         25    1    1    2    0    0 -0.91586722087E+01 -0.12702258305E+03  0.28243509010E+02  0.18066907229E+03  0.12500000000E+03 0.  0.
         25    1    1    2    0    0  0.77576004709E+02 -0.14104566282E+02 -0.12795855335E+03  0.19548751027E+03  0.12500000000E+03 0.  0.
</event>
<event>
 5    0  0.5663008E-005  0.5544688E+03  0.7546771E-02  0.1000465E+00
         21   -1    0    0  502  501  0.00000000000E+00  0.00000000000E+00  0.62568110069E+03  0.62568110069E+03  0.00000000000E+00 0. -1.
         21   -1    0    0  501  502 -0.00000000000E+00 -0.00000000000E+00 -0.49136156630E+03  0.49136156630E+03  0.00000000000E+00 0. -1.
         25    1    1    2    0    0 -0.10557636414E+03  0.55934382831E+02  0.53475985752E+03  0.56202146673E+03  0.12500000000E+03 0.  0.
         25    1    1    2    0    0  0.18689838564E+03 -0.16467457335E+02 -0.19477695770E+03  0.29793497102E+03  0.12500000000E+03 0.  0.
         25    1    1    2    0    0 -0.81322021504E+02 -0.39466925496E+02 -0.20566336542E+03  0.25708622924E+03  0.12500000000E+03 0.  0.
</event>
<event>
 5    0  0.5663008E-005  0.2749533E+03  0.7546771E-02  0.1098478E+00
         21   -1    0    0  502  501  0.00000000000E+00  0.00000000000E+00  0.92247755044E+02  0.92247755044E+02  0.00000000000E+00 0. -1.
         21   -1    0    0  501  502 -0.00000000000E+00 -0.00000000000E+00 -0.81952498061E+03  0.81952498061E+03  0.00000000000E+00 0. -1.
         25    1    1    2    0    0 -0.52013490192E+02  0.46637179874E+02 -0.43857732504E+03  0.46136265535E+03  0.12500000000E+03 0.  0.
         25    1    1    2    0    0  0.56969336330E+02 -0.35745709943E+02 -0.29213252683E+03  0.32479173988E+03  0.12500000000E+03 0.  0.
         25    1    1    2    0    0 -0.49558461377E+01 -0.10891469931E+02  0.34326263063E+01  0.12561834043E+03  0.12500000000E+03 0.  0.
</event>
<event>
 5    0  0.5663008E-005  0.3386089E+03  0.7546771E-02  0.1067390E+00
         21   -1    0    0  502  501  0.00000000000E+00  0.00000000000E+00  0.31883405034E+03  0.31883405034E+03  0.00000000000E+00 0. -1.
         21   -1    0    0  501  502 -0.00000000000E+00 -0.00000000000E+00 -0.35961029646E+03  0.35961029646E+03  0.00000000000E+00 0.  1.
         25    1    1    2    0    0 -0.54724800488E+02 -0.68778639073E+02 -0.52064931662E+02  0.16143438943E+03  0.12500000000E+03 0.  0.
         25    1    1    2    0    0 -0.11353060788E+03  0.17159755758E+03 -0.97121895297E+02  0.25960081517E+03  0.12500000000E+03 0.  0.
         25    1    1    2    0    0  0.16825540837E+03 -0.10281891850E+03  0.10841058084E+03  0.25740914220E+03  0.12500000000E+03 0.  0.
</event>
<event>
 5    0  0.5663008E-005  0.2849874E+03  0.7546771E-02  0.1092996E+00
         21   -1    0    0  502  501  0.00000000000E+00  0.00000000000E+00  0.27170079348E+03  0.27170079348E+03  0.00000000000E+00 0.  1.
         21   -1    0    0  501  502 -0.00000000000E+00 -0.00000000000E+00 -0.29892378598E+03  0.29892378598E+03  0.00000000000E+00 0.  1.
         25    1    1    2    0    0 -0.16607037426E+03  0.26414800153E+02 -0.68673657026E+02  0.22049531071E+03  0.12500000000E+03 0.  0.
         25    1    1    2    0    0  0.81336451870E+02  0.70004139101E+02 -0.57544140711E+01  0.16484632594E+03  0.12500000000E+03 0.  0.
         25    1    1    2    0    0  0.84733922392E+02 -0.96418939254E+02  0.47205078601E+02  0.18528294281E+03  0.12500000000E+03 0.  0.
</event>
<event>
 5    0  0.5663008E-005  0.5198427E+03  0.7546771E-02  0.1008726E+00
         21   -1    0    0  502  501  0.00000000000E+00  0.00000000000E+00  0.16367836890E+03  0.16367836890E+03  0.00000000000E+00 0.  1.
         21   -1    0    0  501  502 -0.00000000000E+00 -0.00000000000E+00 -0.16510207913E+04  0.16510207913E+04  0.00000000000E+00 0.  1.
         25    1    1    2    0    0  0.26066122949E+03 -0.17277286336E+03 -0.47681600625E+03  0.58375786306E+03  0.12500000000E+03 0.  0.
         25    1    1    2    0    0  0.14082017405E+03  0.20743459943E+03 -0.37434026402E+03  0.46756290243E+03  0.12500000000E+03 0.  0.
         25    1    1    2    0    0 -0.40148140354E+03 -0.34661736062E+02 -0.63618615215E+03  0.76337839472E+03  0.12500000000E+03 0.  0.
</event>
<event>
 5    0  0.5910097E-005  0.3055260E+03  0.7546771E-02  0.1082510E+00
         21   -1    0    0  502  501  0.00000000000E+00  0.00000000000E+00  0.42666409889E+03  0.42666409889E+03  0.00000000000E+00 0. -1.
         21   -1    0    0  501  502 -0.00000000000E+00 -0.00000000000E+00 -0.21878132698E+03  0.21878132698E+03  0.00000000000E+00 0. -1.
         25    1    1    2    0    0 -0.16129954911E+03  0.38916177882E+02 -0.76950191456E+02  0.22153632978E+03  0.12500000000E+03 0.  0.
         25    1    1    2    0    0  0.13452439230E+03 -0.20976683898E+02  0.16437381122E+03  0.24734709056E+03  0.12500000000E+03 0.  0.
         25    1    1    2    0    0  0.26775156816E+02 -0.17939493983E+02  0.12045915213E+03  0.17656200554E+03  0.12500000000E+03 0.  0.
</event>
<event>
 5    0  0.5663008E-005  0.2478388E+03  0.7546771E-02  0.1114678E+00
         21   -1    0    0  502  501  0.00000000000E+00  0.00000000000E+00  0.76762368097E+03  0.76762368097E+03  0.00000000000E+00 0.  1.
         21   -1    0    0  501  502 -0.00000000000E+00 -0.00000000000E+00 -0.80018483325E+02  0.80018483325E+02  0.00000000000E+00 0.  1.
         25    1    1    2    0    0  0.49029687298E+02  0.59591256665E+02  0.21712846393E+03  0.26215414922E+03  0.12500000000E+03 0.  0.
         25    1    1    2    0    0 -0.77733640244E+02 -0.36609045978E+02  0.41861733150E+03  0.44525072859E+03  0.12500000000E+03 0.  0.
         25    1    1    2    0    0  0.28703952946E+02 -0.22982210688E+02  0.51859402218E+02  0.14023728649E+03  0.12500000000E+03 0.  0.
</event>
<event>
 5    0  0.5663008E-005  0.2686688E+03  0.7546771E-02  0.1102044E+00
         21   -1    0    0  502  501  0.00000000000E+00  0.00000000000E+00  0.74604995514E+02  0.74604995514E+02  0.00000000000E+00 0. -1.
         21   -1    0    0  501  502 -0.00000000000E+00 -0.00000000000E+00 -0.96753465066E+03  0.96753465066E+03  0.00000000000E+00 0. -1.
         25    1    1    2    0    0 -0.91524753455E+02  0.98012505338E+02 -0.37283309795E+03  0.41546690678E+03  0.12500000000E+03 0.  0.
         25    1    1    2    0    0  0.87986579416E+02  0.42304223320E+02 -0.27947574600E+03  0.32134557422E+03  0.12500000000E+03 0.  0.
         25    1    1    2    0    0  0.35381740395E+01 -0.14031672866E+03 -0.24062081119E+03  0.30532716518E+03  0.12500000000E+03 0.  0.
</event>
<event>
 5    0  0.5663008E-005  0.3460820E+03  0.7546771E-02  0.1064235E+00
         21   -1    0    0  502  501  0.00000000000E+00  0.00000000000E+00  0.21962358673E+03  0.21962358673E+03  0.00000000000E+00 0.  1.
         21   -1    0    0  501  502 -0.00000000000E+00 -0.00000000000E+00 -0.54535476993E+03  0.54535476993E+03  0.00000000000E+00 0.  1.
         25    1    1    2    0    0  0.96570319821E+02  0.14477603074E+03 -0.41836076814E+02  0.21831441334E+03  0.12500000000E+03 0.  0.
         25    1    1    2    0    0 -0.72810142000E+02 -0.78790677869E+01 -0.32453217853E+03  0.35540052249E+03  0.12500000000E+03 0.  0.
         25    1    1    2    0    0 -0.23760177821E+02 -0.13689696295E+03  0.40637072145E+02  0.19126342083E+03  0.12500000000E+03 0.  0.
</event>
<event>
 5    0  0.5663008E-005  0.3475626E+03  0.7546771E-02  0.1063620E+00
         21   -1    0    0  502  501  0.00000000000E+00  0.00000000000E+00  0.13240233573E+04  0.13240233573E+04  0.00000000000E+00 0. -1.
         21   -1    0    0  501  502 -0.00000000000E+00 -0.00000000000E+00 -0.91236899084E+02  0.91236899084E+02  0.00000000000E+00 0. -1.
         25    1    1    2    0    0 -0.10678818603E+03 -0.14025665756E+03  0.58851376154E+03  0.62693627601E+03  0.12500000000E+03 0.  0.
         25    1    1    2    0    0 -0.10895087319E+03  0.61223465602E+02  0.36584240574E+03  0.40630563785E+03  0.12500000000E+03 0.  0.
         25    1    1    2    0    0  0.21573905922E+03  0.79033191955E+02  0.27843029090E+03  0.38201834249E+03  0.12500000000E+03 0.  0.
</event>
<event>
 5    0  0.5663008E-005  0.2881434E+03  0.7546771E-02  0.1091323E+00
         21   -1    0    0  502  501  0.00000000000E+00  0.00000000000E+00  0.11778383981E+03  0.11778383981E+03  0.00000000000E+00 0. -1.
         21   -1    0    0  501  502 -0.00000000000E+00 -0.00000000000E+00 -0.70490651692E+03  0.70490651692E+03  0.00000000000E+00 0. -1.
         25    1    1    2    0    0  0.12745308612E+03  0.33088638825E+02 -0.33016656595E+03  0.37679451755E+03  0.12500000000E+03 0.  0.
         25    1    1    2    0    0 -0.80625504154E+02 -0.12847657821E+03 -0.17179797867E+03  0.26104836438E+03  0.12500000000E+03 0.  0.
         25    1    1    2    0    0 -0.46827581967E+02  0.95387939387E+02 -0.85158132491E+02  0.18484747481E+03  0.12500000000E+03 0.  0.
</event>
<event>
 5    0  0.5663008E-005  0.2743568E+03  0.7546771E-02  0.1098812E+00
         21   -1    0    0  502  501  0.00000000000E+00  0.00000000000E+00  0.76629273775E+02  0.76629273775E+02  0.00000000000E+00 0.  1.
         21   -1    0    0  501  502 -0.00000000000E+00 -0.00000000000E+00 -0.98228342797E+03  0.98228342797E+03  0.00000000000E+00 0.  1.
         25    1    1    2    0    0  0.10012203321E+02 -0.34687215870E+02 -0.11100975226E+03  0.17103102718E+03  0.12500000000E+03 0.  0.
         25    1    1    2    0    0  0.75561794917E+02  0.13506043477E+03 -0.29138879856E+03  0.35282196334E+03  0.12500000000E+03 0.  0.
         25    1    1    2    0    0 -0.85573998238E+02 -0.10037321890E+03 -0.50325560337E+03  0.53505971122E+03  0.12500000000E+03 0.  0.
</event>
<event>
 5    0  0.5663008E-005  0.2653334E+03  0.7546771E-02  0.1103980E+00
         21   -1    0    0  502  501  0.00000000000E+00  0.00000000000E+00  0.82104762655E+02  0.82104762655E+02  0.00000000000E+00 0.  1.
         21   -1    0    0  501  502 -0.00000000000E+00 -0.00000000000E+00 -0.85746343718E+03  0.85746343718E+03  0.00000000000E+00 0.  1.
         25    1    1    2    0    0  0.34211877847E+02  0.66754084827E+02 -0.17489077081E+03  0.22768035081E+03  0.12500000000E+03 0.  0.
         25    1    1    2    0    0  0.85461126729E+02 -0.10410202507E+03 -0.18729199499E+03  0.26238164416E+03  0.12500000000E+03 0.  0.
         25    1    1    2    0    0 -0.11967300458E+03  0.37347940247E+02 -0.41317590873E+03  0.44950620487E+03  0.12500000000E+03 0.  0.
</event>
<event>
 5    0  0.5663008E-005  0.2382513E+03  0.7546771E-02  0.1120963E+00
         21   -1    0    0  502  501  0.00000000000E+00  0.00000000000E+00  0.10339174291E+04  0.10339174291E+04  0.00000000000E+00 0.  1.
         21   -1    0    0  501  502 -0.00000000000E+00 -0.00000000000E+00 -0.54901571277E+02  0.54901571277E+02  0.00000000000E+00 0.  1.
         25    1    1    2    0    0 -0.10186913946E+03 -0.21171106950E+01  0.26577866105E+03  0.31087795097E+03  0.12500000000E+03 0.  0.
         25    1    1    2    0    0  0.28959485859E+02 -0.67356975641E+02  0.40966336410E+03  0.43453962521E+03  0.12500000000E+03 0.  0.
         25    1    1    2    0    0  0.72909653599E+02  0.69474086336E+02  0.30357383271E+03  0.34340142423E+03  0.12500000000E+03 0.  0.
</event>
<event>
 5    0  0.5663008E-005  0.4073549E+03  0.7546771E-02  0.1041262E+00
         21   -1    0    0  502  501  0.00000000000E+00  0.00000000000E+00  0.24430707312E+03  0.24430707312E+03  0.00000000000E+00 0. -1.
         21   -1    0    0  501  502 -0.00000000000E+00 -0.00000000000E+00 -0.67921917612E+03  0.67921917612E+03  0.00000000000E+00 0. -1.
         25    1    1    2    0    0  0.13500116629E+03 -0.28054400169E+03 -0.25251159902E+03  0.41990160684E+03  0.12500000000E+03 0.  0.
         25    1    1    2    0    0 -0.10919918589E+03  0.17600622948E+03  0.19710700119E+02  0.24272652660E+03  0.12500000000E+03 0.  0.
         25    1    1    2    0    0 -0.25801980398E+02  0.10453777221E+03 -0.20211120410E+03  0.26089811581E+03  0.12500000000E+03 0.  0.
</event>
<event>
 5    0  0.5663008E-005  0.3070133E+03  0.7546771E-02  0.1081786E+00
         21   -1    0    0  502  501  0.00000000000E+00  0.00000000000E+00  0.43697497742E+02  0.43697497742E+02  0.00000000000E+00 0.  1.
         21   -1    0    0  501  502 -0.00000000000E+00 -0.00000000000E+00 -0.21570387320E+04  0.21570387320E+04  0.00000000000E+00 0.  1.
         25    1    1    2    0    0 -0.13223707897E+02 -0.13935175281E+03 -0.70043038170E+03  0.72513550255E+03  0.12500000000E+03 0.  0.
         25    1    1    2    0    0  0.10854585979E+03  0.38776415078E+01 -0.29240269342E+03  0.33603805574E+03  0.12500000000E+03 0.  0.
         25    1    1    2    0    0 -0.95322151893E+02  0.13547411130E+03 -0.11205081592E+04  0.11395626715E+04  0.12500000000E+03 0.  0.
</event>
<event>
 5    0  0.5663008E-005  0.2066238E+03  0.7546771E-02  0.1144268E+00
         21   -1    0    0  502  501  0.00000000000E+00  0.00000000000E+00  0.48009891468E+03  0.48009891468E+03  0.00000000000E+00 0.  1.
         21   -1    0    0  501  502 -0.00000000000E+00 -0.00000000000E+00 -0.88926226748E+02  0.88926226748E+02  0.00000000000E+00 0.  1.
         25    1    1    2    0    0 -0.61735564319E+02  0.19740144096E+02  0.13469178100E+03  0.19485335271E+03  0.12500000000E+03 0.  0.
         25    1    1    2    0    0 -0.71222075380E+01 -0.28653760212E+02  0.10535686302E+03  0.16612294363E+03  0.12500000000E+03 0.  0.
         25    1    1    2    0    0  0.68857771857E+02  0.89136161164E+01  0.15112404391E+03  0.20804884509E+03  0.12500000000E+03 0.  0.
</event>
<event>
 5    0  0.5663008E-005  0.3729855E+03  0.7546771E-02  0.1053557E+00
         21   -1    0    0  502  501  0.00000000000E+00  0.00000000000E+00  0.21521781785E+04  0.21521781785E+04  0.00000000000E+00 0.  1.
         21   -1    0    0  501  502 -0.00000000000E+00 -0.00000000000E+00 -0.64640629390E+02  0.64640629390E+02  0.00000000000E+00 0.  1.
         25    1    1    2    0    0 -0.57229947805E+02 -0.53477147611E+01  0.72152761977E+03  0.73452771974E+03  0.12500000000E+03 0.  0.
         25    1    1    2    0    0  0.50408807334E+02 -0.12635941365E+03  0.11384467478E+03  0.21701004412E+03  0.12500000000E+03 0.  0.
         25    1    1    2    0    0  0.68211404709E+01  0.13170712841E+03  0.12521652546E+04  0.12652810440E+04  0.12500000000E+03 0.  0.
</event>
<event>
 5    0  0.6070960E-005  0.4977994E+03  0.7546771E-02  0.1014355E+00
         21   -1    0    0  502  501  0.00000000000E+00  0.00000000000E+00  0.87444634481E+03  0.87444634481E+03  0.00000000000E+00 0. -1.
         21   -1    0    0  501  502 -0.00000000000E+00 -0.00000000000E+00 -0.28338415839E+03  0.28338415839E+03  0.00000000000E+00 0. -1.
         25    1    1    2    0    0 -0.26586853566E+03  0.11497416536E+03  0.48874201061E+02  0.31924727796E+03  0.12500000000E+03 0.  0.
         25    1    1    2    0    0  0.12005856196E+03  0.94367085053E+02 -0.30133295705E+02  0.19963020952E+03  0.12500000000E+03 0.  0.
         25    1    1    2    0    0  0.14580997369E+03 -0.20934125041E+03  0.57232128107E+03  0.63895301573E+03  0.12500000000E+03 0.  0.
</event>
<event>
 5    0  0.5663008E-005  0.2511440E+03  0.7546771E-02  0.1112584E+00
         21   -1    0    0  502  501  0.00000000000E+00  0.00000000000E+00  0.69704851828E+03  0.69704851828E+03  0.00000000000E+00 0.  1.
         21   -1    0    0  501  502 -0.00000000000E+00 -0.00000000000E+00 -0.90486261987E+02  0.90486261987E+02  0.00000000000E+00 0.  1.
         25    1    1    2    0    0 -0.32945809381E+02  0.14385637079E+02  0.23077350742E+03  0.26490334961E+03  0.12500000000E+03 0.  0.
         25    1    1    2    0    0  0.13669400492E+03  0.39475552142E+02  0.16559272772E+03  0.25157408784E+03  0.12500000000E+03 0.  0.
         25    1    1    2    0    0 -0.10374819554E+03 -0.53861189221E+02  0.21019602115E+03  0.27105734281E+03  0.12500000000E+03 0.  0.
</event>
<event>
 5    0  0.5663008E-005  0.2857564E+03  0.7546771E-02  0.1092586E+00
         21   -1    0    0  502  501  0.00000000000E+00  0.00000000000E+00  0.18721768959E+04  0.18721768959E+04  0.00000000000E+00 0.  1.
         21   -1    0    0  501  502 -0.00000000000E+00 -0.00000000000E+00 -0.43615920062E+02  0.43615920062E+02  0.00000000000E+00 0.  1.
         25    1    1    2    0    0 -0.13954281807E+03 -0.33148018920E+02  0.47632364643E+03  0.51291344824E+03  0.12500000000E+03 0.  0.
         25    1    1    2    0    0  0.10996496253E+03  0.74252621383E+02  0.38147296901E+03  0.42279116695E+03  0.12500000000E+03 0.  0.
         25    1    1    2    0    0  0.29577855536E+02 -0.41104602463E+02  0.97076436040E+03  0.98008820078E+03  0.12500000000E+03 0.  0.
</event>
<event>
 5    0  0.5663008E-005  0.2874636E+03  0.7546771E-02  0.1091681E+00
         21   -1    0    0  502  501  0.00000000000E+00  0.00000000000E+00  0.80968563478E+03  0.80968563478E+03  0.00000000000E+00 0.  1.
         21   -1    0    0  501  502 -0.00000000000E+00 -0.00000000000E+00 -0.10205852903E+03  0.10205852903E+03  0.00000000000E+00 0.  1.
         25    1    1    2    0    0 -0.16301894813E+01  0.68104179522E+02  0.10595819821E+02  0.14275191131E+03  0.12500000000E+03 0.  0.
         25    1    1    2    0    0 -0.68482135625E+02 -0.42698073602E+02  0.18910229959E+03  0.24061921806E+03  0.12500000000E+03 0.  0.
         25    1    1    2    0    0  0.70112325106E+02 -0.25406105921E+02  0.50792898634E+03  0.52837303443E+03  0.12500000000E+03 0.  0.
</event>
<event>
 5    0  0.5663008E-005  0.2533674E+03  0.7546771E-02  0.1111195E+00
         21   -1    0    0  502  501  0.00000000000E+00  0.00000000000E+00  0.42481798443E+03  0.42481798443E+03  0.00000000000E+00 0.  1.
         21   -1    0    0  501  502 -0.00000000000E+00 -0.00000000000E+00 -0.15111187575E+03  0.15111187575E+03  0.00000000000E+00 0.  1.
         25    1    1    2    0    0 -0.12033758227E+03  0.79455554719E+02  0.52341985323E+02  0.19788633684E+03  0.12500000000E+03 0.  0.
         25    1    1    2    0    0  0.69706095641E+02 -0.30130347106E+01  0.15011750788E+03  0.20743260187E+03  0.12500000000E+03 0.  0.
         25    1    1    2    0    0  0.50631486629E+02 -0.76442520009E+02  0.71246615481E+02  0.17061092146E+03  0.12500000000E+03 0.  0.
</event>
<event>
 5    0  0.5663008E-005  0.2121982E+03  0.7546771E-02  0.1139837E+00
         21   -1    0    0  502  501  0.00000000000E+00  0.00000000000E+00  0.25895760643E+04  0.25895760643E+04  0.00000000000E+00 0. -1.
         21   -1    0    0  501  502 -0.00000000000E+00 -0.00000000000E+00 -0.17388210971E+02  0.17388210971E+02  0.00000000000E+00 0. -1.
         25    1    1    2    0    0  0.22526115071E+02 -0.20480420979E+02  0.10367838178E+04  0.10447356404E+04  0.12500000000E+03 0.  0.
         25    1    1    2    0    0  0.58544370207E+02  0.46777110400E+01  0.69951282330E+03  0.71301648945E+03  0.12500000000E+03 0.  0.
         25    1    1    2    0    0 -0.81070485278E+02  0.15802709939E+02  0.83589121217E+03  0.84921214534E+03  0.12500000000E+03 0.  0.
</event>
<event>
 5    0  0.5663008E-005  0.4408167E+03  0.7546771E-02  0.1030497E+00
         21   -1    0    0  502  501  0.00000000000E+00  0.00000000000E+00  0.29161314989E+03  0.29161314989E+03  0.00000000000E+00 0. -1.
         21   -1    0    0  501  502 -0.00000000000E+00 -0.00000000000E+00 -0.66636003073E+03  0.66636003073E+03  0.00000000000E+00 0. -1.
         25    1    1    2    0    0  0.20484822241E+03 -0.14227127871E+03 -0.33944026047E+03  0.43937296389E+03  0.12500000000E+03 0.  0.
         25    1    1    2    0    0  0.11697405995E+02 -0.10052956846E+03  0.31076488557E+02  0.16381016935E+03  0.12500000000E+03 0.  0.
         25    1    1    2    0    0 -0.21654562840E+03  0.24280084717E+03 -0.66383108916E+02  0.35479004738E+03  0.12500000000E+03 0.  0.
</event>
<event>
 5    0  0.5663008E-005  0.2980650E+03  0.7546771E-02  0.1086212E+00
         21   -1    0    0  502  501  0.00000000000E+00  0.00000000000E+00  0.31700977364E+02  0.31700977364E+02  0.00000000000E+00 0.  1.
         21   -1    0    0  501  502 -0.00000000000E+00 -0.00000000000E+00 -0.28025236243E+04  0.28025236243E+04  0.00000000000E+00 0.  1.
         25    1    1    2    0    0 -0.20782003847E+03  0.58668381856E+02 -0.12224038575E+04  0.12476086478E+04  0.12500000000E+03 0.  0.
         25    1    1    2    0    0  0.78510644148E+02  0.18803345238E+02 -0.74053815614E+03  0.75534048464E+03  0.12500000000E+03 0.  0.
         25    1    1    2    0    0  0.12930939432E+03 -0.77471727094E+02 -0.80788063333E+03  0.83127546919E+03  0.12500000000E+03 0.  0.
</event>
<event>
 5    0  0.5663008E-005  0.3706055E+03  0.7546771E-02  0.1054462E+00
         21   -1    0    0  502  501  0.00000000000E+00  0.00000000000E+00  0.16205897636E+03  0.16205897636E+03  0.00000000000E+00 0.  1.
         21   -1    0    0  501  502 -0.00000000000E+00 -0.00000000000E+00 -0.84752123858E+03  0.84752123858E+03  0.00000000000E+00 0.  1.
         25    1    1    2    0    0  0.16377360137E+03  0.52051509830E+02 -0.42111827504E+03  0.47169561558E+03  0.12500000000E+03 0.  0.
         25    1    1    2    0    0 -0.20311351717E+03  0.58062774226E+02 -0.29420519214E+02  0.24721843289E+03  0.12500000000E+03 0.  0.
         25    1    1    2    0    0  0.39339915804E+02 -0.11011428406E+03 -0.23492346797E+03  0.29066616647E+03  0.12500000000E+03 0.  0.
</event>
<event>
 5    0  0.5663008E-005  0.3013814E+03  0.7546771E-02  0.1084552E+00
         21   -1    0    0  502  501  0.00000000000E+00  0.00000000000E+00  0.19196639662E+03  0.19196639662E+03  0.00000000000E+00 0.  1.
         21   -1    0    0  501  502 -0.00000000000E+00 -0.00000000000E+00 -0.47315961426E+03  0.47315961426E+03  0.00000000000E+00 0.  1.
         25    1    1    2    0    0 -0.12230758092E+03 -0.55583353315E+02 -0.83299529026E+01  0.18369279145E+03  0.12500000000E+03 0.  0.
         25    1    1    2    0    0  0.36729727159E+02 -0.65858397233E+02 -0.24512882355E+03  0.28530604880E+03  0.12500000000E+03 0.  0.
         25    1    1    2    0    0  0.85577853764E+02  0.12144175055E+03 -0.27734441184E+02  0.19612717063E+03  0.12500000000E+03 0.  0.
</event>
<event>
 5    0  0.5663008E-005  0.2786751E+03  0.7546771E-02  0.1096415E+00
         21   -1    0    0  502  501  0.00000000000E+00  0.00000000000E+00  0.69169293958E+03  0.69169293958E+03  0.00000000000E+00 0.  1.
         21   -1    0    0  501  502 -0.00000000000E+00 -0.00000000000E+00 -0.11227497002E+03  0.11227497002E+03  0.00000000000E+00 0.  1.
         25    1    1    2    0    0  0.18438717346E+03 -0.23169937929E+02  0.25234317362E+03  0.33739821137E+03  0.12500000000E+03 0.  0.
         25    1    1    2    0    0 -0.52850624303E+02 -0.35492591195E+02  0.16248696100E+03  0.21466235118E+03  0.12500000000E+03 0.  0.
         25    1    1    2    0    0 -0.13153654916E+03  0.58662529124E+02  0.16458783494E+03  0.25190734705E+03  0.12500000000E+03 0.  0.
</event>
<event>
 5    0  0.5663008E-005  0.4715811E+03  0.7546771E-02  0.1021475E+00
         21   -1    0    0  502  501  0.00000000000E+00  0.00000000000E+00  0.42575814170E+03  0.42575814170E+03  0.00000000000E+00 0.  1.
         21   -1    0    0  501  502 -0.00000000000E+00 -0.00000000000E+00 -0.52233577384E+03  0.52233577384E+03  0.00000000000E+00 0.  1.
         25    1    1    2    0    0  0.33009890767E+02 -0.15539470723E+02 -0.15198945631E+03  0.20014225658E+03  0.12500000000E+03 0.  0.
         25    1    1    2    0    0 -0.18617004176E+03 -0.23005399420E+03 -0.16704343800E+03  0.36209478714E+03  0.12500000000E+03 0.  0.
         25    1    1    2    0    0  0.15316015099E+03  0.24559346492E+03  0.22245526217E+03  0.38585687182E+03  0.12500000000E+03 0.  0.
</event>
<event>
 5    0  0.5663008E-005  0.2911701E+03  0.7546771E-02  0.1089740E+00
         21   -1    0    0  502  501  0.00000000000E+00  0.00000000000E+00  0.39649231020E+03  0.39649231020E+03  0.00000000000E+00 0. -1.
         21   -1    0    0  501  502 -0.00000000000E+00 -0.00000000000E+00 -0.21382507954E+03  0.21382507954E+03  0.00000000000E+00 0. -1.
         25    1    1    2    0    0  0.34612397723E+01  0.67872581877E+02  0.15651321243E+03  0.21151844652E+03  0.12500000000E+03 0.  0.
         25    1    1    2    0    0 -0.22196829324E+02  0.13592588214E+02 -0.12985793625E+03  0.18211408867E+03  0.12500000000E+03 0.  0.
         25    1    1    2    0    0  0.18735589552E+02 -0.81465170091E+02  0.15601195448E+03  0.21668485455E+03  0.12500000000E+03 0.  0.
</event>
<event>
 5    0  0.5663008E-005  0.2741315E+03  0.7546771E-02  0.1098938E+00
         21   -1    0    0  502  501  0.00000000000E+00  0.00000000000E+00  0.15135286642E+03  0.15135286642E+03  0.00000000000E+00 0.  1.
         21   -1    0    0  501  502 -0.00000000000E+00 -0.00000000000E+00 -0.49650908764E+03  0.49650908764E+03  0.00000000000E+00 0.  1.
         25    1    1    2    0    0  0.30993459474E+02 -0.14348923290E+03 -0.82046412818E+02  0.20953846507E+03  0.12500000000E+03 0.  0.
         25    1    1    2    0    0 -0.52101714102E+02  0.57489092028E+02 -0.16547675080E+02  0.14804867397E+03  0.12500000000E+03 0.  0.
         25    1    1    2    0    0  0.21108254628E+02  0.86000140869E+02 -0.24656213332E+03  0.29027481501E+03  0.12500000000E+03 0.  0.
</event>
<event>
 5    0  0.6132709E-005  0.3572104E+03  0.7546771E-02  0.1059694E+00
         21   -1    0    0  502  501  0.00000000000E+00  0.00000000000E+00  0.38875211797E+03  0.38875211797E+03  0.00000000000E+00 0.  1.
         21   -1    0    0  501  502 -0.00000000000E+00 -0.00000000000E+00 -0.32822777324E+03  0.32822777324E+03  0.00000000000E+00 0.  1.
         25    1    1    2    0    0  0.58535744234E+02 -0.19523526197E+03 -0.15377288203E+03  0.28427863113E+03  0.12500000000E+03 0.  0.
         25    1    1    2    0    0  0.33527785921E+02  0.24292484971E+02  0.13490910180E+03  0.18851976821E+03  0.12500000000E+03 0.  0.
         25    1    1    2    0    0 -0.92063530155E+02  0.17094277700E+03  0.79388124953E+02  0.24418149188E+03  0.12500000000E+03 0.  0.
</event>
<event>
 5    0  0.5663008E-005  0.3301696E+03  0.7546771E-02  0.1071062E+00
         21   -1    0    0  502  501  0.00000000000E+00  0.00000000000E+00  0.19283017470E+03  0.19283017470E+03  0.00000000000E+00 0.  1.
         21   -1    0    0  501  502 -0.00000000000E+00 -0.00000000000E+00 -0.56532626730E+03  0.56532626730E+03  0.00000000000E+00 0.  1.
         25    1    1    2    0    0  0.10004361726E+03  0.20615963562E+03 -0.32155171400E+03  0.41416304216E+03  0.12500000000E+03 0.  0.
         25    1    1    2    0    0 -0.57034712913E+02 -0.11744456368E+03 -0.20546441566E+02  0.18191575049E+03  0.12500000000E+03 0.  0.
         25    1    1    2    0    0 -0.43008904345E+02 -0.88715071936E+02 -0.30397937024E+02  0.16207764934E+03  0.12500000000E+03 0.  0.
</event>
<event>
 5    0  0.5663008E-005  0.2699753E+03  0.7546771E-02  0.1101294E+00
         21   -1    0    0  502  501  0.00000000000E+00  0.00000000000E+00  0.68012071622E+03  0.68012071622E+03  0.00000000000E+00 0.  1.
         21   -1    0    0  501  502 -0.00000000000E+00 -0.00000000000E+00 -0.10716727219E+03  0.10716727219E+03  0.00000000000E+00 0.  1.
         25    1    1    2    0    0 -0.16042787653E+03  0.37788127280E+02  0.37134106844E+03  0.42506968281E+03  0.12500000000E+03 0.  0.
         25    1    1    2    0    0  0.78515177730E+02 -0.31988003983E+02  0.92910988509E+02  0.17732827558E+03  0.12500000000E+03 0.  0.
         25    1    1    2    0    0  0.81912698795E+02 -0.58001232973E+01  0.10870138708E+03  0.18489003004E+03  0.12500000000E+03 0.  0.
</event>
<event>
 5    0  0.5663008E-005  0.2584969E+03  0.7546771E-02  0.1108050E+00
         21   -1    0    0  502  501  0.00000000000E+00  0.00000000000E+00  0.10485429052E+04  0.10485429052E+04  0.00000000000E+00 0.  1.
         21   -1    0    0  501  502 -0.00000000000E+00 -0.00000000000E+00 -0.63727157282E+02  0.63727157282E+02  0.00000000000E+00 0.  1.
         25    1    1    2    0    0 -0.23074584405E+02  0.31690126748E+02  0.86973643318E+02  0.15724539806E+03  0.12500000000E+03 0.  0.
         25    1    1    2    0    0 -0.70454352056E+02 -0.77067884529E+02  0.45757611729E+03  0.48569967847E+03  0.12500000000E+03 0.  0.
         25    1    1    2    0    0  0.93528936461E+02  0.45377757781E+02  0.44026598727E+03  0.46932498592E+03  0.12500000000E+03 0.  0.
</event>
<event>
 5    0  0.5663008E-005  0.3111626E+03  0.7546771E-02  0.1079790E+00
         21   -1    0    0  502  501  0.00000000000E+00  0.00000000000E+00  0.65650439958E+03  0.65650439958E+03  0.00000000000E+00 0.  1.
         21   -1    0    0  501  502 -0.00000000000E+00 -0.00000000000E+00 -0.14748131659E+03  0.14748131659E+03  0.00000000000E+00 0.  1.
         25    1    1    2    0    0  0.82985893266E+02 -0.13780887427E+03  0.29526667694E+03  0.35872741018E+03  0.12500000000E+03 0.  0.
         25    1    1    2    0    0  0.76780410919E+02  0.11205669722E+03  0.12099383894E+03  0.22071801910E+03  0.12500000000E+03 0.  0.
         25    1    1    2    0    0 -0.15976630419E+03  0.25752177044E+02  0.92762567108E+02  0.22454028688E+03  0.12500000000E+03 0.  0.
</event>
<event>
 5    0  0.6344710E-005  0.3380336E+03  0.7546771E-02  0.1067637E+00
         21   -1    0    0  502  501  0.00000000000E+00  0.00000000000E+00  0.74390050126E+03  0.74390050126E+03  0.00000000000E+00 0.  1.
         21   -1    0    0  501  502 -0.00000000000E+00 -0.00000000000E+00 -0.15360479995E+03  0.15360479995E+03  0.00000000000E+00 0.  1.
         25    1    1    2    0    0 -0.69609765015E+01 -0.16380264313E+03  0.31532845665E+03  0.37674500217E+03  0.12500000000E+03 0.  0.
         25    1    1    2    0    0 -0.12328410785E+03 -0.28535256381E+02  0.97593827847E+02  0.20288614378E+03  0.12500000000E+03 0.  0.
         25    1    1    2    0    0  0.13024508435E+03  0.19233789951E+03  0.17737341682E+03  0.31787415526E+03  0.12500000000E+03 0.  0.
</event>
<event>
 5    0  0.5663008E-005  0.2463094E+03  0.7546771E-02  0.1115660E+00
         21   -1    0    0  502  501  0.00000000000E+00  0.00000000000E+00  0.31583679085E+03  0.31583679085E+03  0.00000000000E+00 0. -1.
         21   -1    0    0  501  502 -0.00000000000E+00 -0.00000000000E+00 -0.19208756324E+03  0.19208756324E+03  0.00000000000E+00 0. -1.
         25    1    1    2    0    0  0.58151547316E+02  0.11491611925E+03  0.10580144384E+03  0.20834169635E+03  0.12500000000E+03 0.  0.
         25    1    1    2    0    0 -0.23242076817E+02 -0.38442585657E+02  0.56099867934E+02  0.14418814691E+03  0.12500000000E+03 0.  0.
         25    1    1    2    0    0 -0.34909470499E+02 -0.76473533597E+02 -0.38152084164E+02  0.15539451083E+03  0.12500000000E+03 0.  0.
</event>
<event>
 5    0  0.5901557E-005  0.2855874E+03  0.7546771E-02  0.1092676E+00
         21   -1    0    0  502  501  0.00000000000E+00  0.00000000000E+00  0.78467411271E+03  0.78467411271E+03  0.00000000000E+00 0.  1.
         21   -1    0    0  501  502 -0.00000000000E+00 -0.00000000000E+00 -0.10394144595E+03  0.10394144595E+03  0.00000000000E+00 0.  1.
         25    1    1    2    0    0  0.49167272128E+02 -0.74830367448E+02  0.10697210665E+03  0.18731000011E+03  0.12500000000E+03 0.  0.
         25    1    1    2    0    0 -0.91035104678E+02  0.18384941081E+02  0.52844797720E+03  0.55091529381E+03  0.12500000000E+03 0.  0.
         25    1    1    2    0    0  0.41867832550E+02  0.56445426367E+02  0.45312582912E+02  0.15039026475E+03  0.12500000000E+03 0.  0.
</event>
<event>
 5    0  0.5663008E-005  0.5117945E+03  0.7546771E-02  0.1010745E+00
         21   -1    0    0  502  501  0.00000000000E+00  0.00000000000E+00  0.17858349959E+04  0.17858349959E+04  0.00000000000E+00 0.  1.
         21   -1    0    0  501  502 -0.00000000000E+00 -0.00000000000E+00 -0.14667289971E+03  0.14667289971E+03  0.00000000000E+00 0.  1.
         25    1    1    2    0    0  0.93979290493E+02 -0.33478577139E+03  0.12279219705E+04  0.12823146982E+04  0.12500000000E+03 0.  0.
         25    1    1    2    0    0 -0.75209370562E+02  0.15406134390E+03  0.36899046770E+03  0.42564106047E+03  0.12500000000E+03 0.  0.
         25    1    1    2    0    0 -0.18769919931E+02  0.18072442748E+03  0.42249658024E+02  0.22455213690E+03  0.12500000000E+03 0.  0.
</event>
<event>
 5    0  0.5663008E-005  0.4314572E+03  0.7546771E-02  0.1033401E+00
         21   -1    0    0  502  501  0.00000000000E+00  0.00000000000E+00  0.30784585547E+03  0.30784585547E+03  0.00000000000E+00 0.  1.
         21   -1    0    0  501  502 -0.00000000000E+00 -0.00000000000E+00 -0.60470299011E+03  0.60470299011E+03  0.00000000000E+00 0.  1.
         25    1    1    2    0    0 -0.20669066162E+03  0.23649624308E+03 -0.10148688845E+03  0.35295338378E+03  0.12500000000E+03 0.  0.
         25    1    1    2    0    0 -0.78517575663E+02 -0.41669900795E+02 -0.27911946355E+02  0.15590210733E+03  0.12500000000E+03 0.  0.
         25    1    1    2    0    0  0.28520823729E+03 -0.19482634229E+03 -0.16745829983E+03  0.40369335447E+03  0.12500000000E+03 0.  0.
</event>
<event>
 5    0  0.5663008E-005  0.3296586E+03  0.7546771E-02  0.1071288E+00
         21   -1    0    0  502  501  0.00000000000E+00  0.00000000000E+00  0.58459293254E+02  0.58459293254E+02  0.00000000000E+00 0. -1.
         21   -1    0    0  501  502 -0.00000000000E+00 -0.00000000000E+00 -0.18589825140E+04  0.18589825140E+04  0.00000000000E+00 0. -1.
         25    1    1    2    0    0 -0.81700232860E+02 -0.16550964084E+03 -0.35755215082E+03  0.42135129027E+03  0.12500000000E+03 0.  0.
         25    1    1    2    0    0  0.47492422386E+02  0.21756166128E+03 -0.91715868373E+03  0.95204708801E+03  0.12500000000E+03 0.  0.
         25    1    1    2    0    0  0.34207810474E+02 -0.52052020440E+02 -0.52581238617E+03  0.54404342895E+03  0.12500000000E+03 0.  0.
</event>
<event>
 5    0  0.5663008E-005  0.3236643E+03  0.7546771E-02  0.1073975E+00
         21   -1    0    0  502  501  0.00000000000E+00  0.00000000000E+00  0.55472724983E+02  0.55472724983E+02  0.00000000000E+00 0. -1.
         21   -1    0    0  501  502 -0.00000000000E+00 -0.00000000000E+00 -0.18884696981E+04  0.18884696981E+04  0.00000000000E+00 0. -1.
         25    1    1    2    0    0  0.14960301752E+03 -0.21478068273E+02 -0.66602003539E+03  0.69429824846E+03  0.12500000000E+03 0.  0.
         25    1    1    2    0    0 -0.56251686837E+02 -0.14692229403E+03 -0.37981338494E+03  0.42969014433E+03  0.12500000000E+03 0.  0.
         25    1    1    2    0    0 -0.93351330680E+02  0.16840036230E+03 -0.78716355275E+03  0.81995403027E+03  0.12500000000E+03 0.  0.
</event>
<event>
 5    0  0.5663008E-005  0.2508562E+03  0.7546771E-02  0.1112765E+00
         21   -1    0    0  502  501  0.00000000000E+00  0.00000000000E+00  0.33338529859E+03  0.33338529859E+03  0.00000000000E+00 0. -1.
         21   -1    0    0  501  502 -0.00000000000E+00 -0.00000000000E+00 -0.18875709161E+03  0.18875709161E+03  0.00000000000E+00 0. -1.
         25    1    1    2    0    0  0.74875734445E+02 -0.11067572419E+03  0.51814855587E+02  0.19017168768E+03  0.12500000000E+03 0.  0.
         25    1    1    2    0    0 -0.76202103827E+02  0.91279086962E+01  0.12053874648E+01  0.14668514684E+03  0.12500000000E+03 0.  0.
         25    1    1    2    0    0  0.13263693815E+01  0.10154781550E+03  0.91607963931E+02  0.18528555568E+03  0.12500000000E+03 0.  0.
</event>
<event>
 5    0  0.5663008E-005  0.2292434E+03  0.7546771E-02  0.1127173E+00
         21   -1    0    0  502  501  0.00000000000E+00  0.00000000000E+00  0.80957502342E+02  0.80957502342E+02  0.00000000000E+00 0. -1.
         21   -1    0    0  501  502 -0.00000000000E+00 -0.00000000000E+00 -0.64913706829E+03  0.64913706829E+03  0.00000000000E+00 0. -1.
         25    1    1    2    0    0  0.42720010580E+02  0.82005990560E+02 -0.18580300135E+03  0.24227615876E+03  0.12500000000E+03 0.  0.
         25    1    1    2    0    0  0.17748680941E+02 -0.10174412896E+03 -0.19087936157E+03  0.25045321744E+03  0.12500000000E+03 0.  0.
         25    1    1    2    0    0 -0.60468691521E+02  0.19738138396E+02 -0.19149720303E+03  0.23736519444E+03  0.12500000000E+03 0.  0.
</event>
<event>
 5    0  0.5663008E-005  0.6129535E+03  0.7546771E-02  0.9878890E-01
         21   -1    0    0  502  501  0.00000000000E+00  0.00000000000E+00  0.92183815254E+03  0.92183815254E+03  0.00000000000E+00 0.  1.
         21   -1    0    0  501  502 -0.00000000000E+00 -0.00000000000E+00 -0.40756830667E+03  0.40756830667E+03  0.00000000000E+00 0.  1.
         25    1    1    2    0    0  0.45256206946E+02  0.98160372331E+02 -0.63382790473E+02  0.17699141530E+03  0.12500000000E+03 0.  0.
         25    1    1    2    0    0 -0.64732189230E+02 -0.52221799014E+03  0.22184389204E+03  0.58458668988E+03  0.12500000000E+03 0.  0.
         25    1    1    2    0    0  0.19475982284E+02  0.42405761781E+03  0.35580874430E+03  0.56782835402E+03  0.12500000000E+03 0.  0.
</event>
<event>
 5    0  0.5663008E-005  0.3221429E+03  0.7546771E-02  0.1074667E+00
         21   -1    0    0  502  501  0.00000000000E+00  0.00000000000E+00  0.63755426960E+03  0.63755426960E+03  0.00000000000E+00 0. -1.
         21   -1    0    0  501  502 -0.00000000000E+00 -0.00000000000E+00 -0.16277206774E+03  0.16277206774E+03  0.00000000000E+00 0. -1.
         25    1    1    2    0    0 -0.20356398822E+03  0.95484473782E+02  0.63916803128E+02  0.26507723356E+03  0.12500000000E+03 0.  0.
         25    1    1    2    0    0  0.13181999719E+03 -0.74495999844E+02  0.21494165862E+03  0.29112039135E+03  0.12500000000E+03 0.  0.
         25    1    1    2    0    0  0.71743991030E+02 -0.20988473938E+02  0.19592374012E+03  0.24412871242E+03  0.12500000000E+03 0.  0.
</event>
<event>
 5    0  0.5663008E-005  0.3031369E+03  0.7546771E-02  0.1083683E+00
         21   -1    0    0  502  501  0.00000000000E+00  0.00000000000E+00  0.40818780860E+03  0.40818780860E+03  0.00000000000E+00 0.  1.
         21   -1    0    0  501  502 -0.00000000000E+00 -0.00000000000E+00 -0.22512187788E+03  0.22512187788E+03  0.00000000000E+00 0.  1.
         25    1    1    2    0    0  0.91661082451E+02 -0.46760651372E+02  0.27946305780E+03  0.32297509691E+03  0.12500000000E+03 0.  0.
         25    1    1    2    0    0  0.10073733474E+02  0.46650657717E+02 -0.45260646495E+02  0.14124903572E+03  0.12500000000E+03 0.  0.
         25    1    1    2    0    0 -0.10173481592E+03  0.10999365471E+00 -0.51136480587E+02  0.16908555384E+03  0.12500000000E+03 0.  0.
</event>
<event>
 5    0  0.5663008E-005  0.2125282E+03  0.7546771E-02  0.1139579E+00
         21   -1    0    0  502  501  0.00000000000E+00  0.00000000000E+00  0.10066984716E+04  0.10066984716E+04  0.00000000000E+00 0. -1.
         21   -1    0    0  501  502 -0.00000000000E+00 -0.00000000000E+00 -0.44867669827E+02  0.44867669827E+02  0.00000000000E+00 0. -1.
         25    1    1    2    0    0  0.37276885478E+02  0.38553703549E+02  0.50551906369E+03  0.52349830755E+03  0.12500000000E+03 0.  0.
         25    1    1    2    0    0 -0.47170972057E+02 -0.42806307678E+02  0.23803235494E+03  0.27630034850E+03  0.12500000000E+03 0.  0.
         25    1    1    2    0    0  0.98940865788E+01  0.42526041292E+01  0.21827938313E+03  0.25176748537E+03  0.12500000000E+03 0.  0.
</event>
<event>
 5    0  0.5864475E-005  0.3247473E+03  0.7546771E-02  0.1073485E+00
         21   -1    0    0  502  501  0.00000000000E+00  0.00000000000E+00  0.17364910497E+03  0.17364910497E+03  0.00000000000E+00 0. -1.
         21   -1    0    0  501  502 -0.00000000000E+00 -0.00000000000E+00 -0.60732145864E+03  0.60732145864E+03  0.00000000000E+00 0. -1.
         25    1    1    2    0    0  0.79784828934E+02 -0.21667318528E+02  0.21695729832E+02  0.15142917920E+03  0.12500000000E+03 0.  0.
         25    1    1    2    0    0  0.14916285930E+02  0.62486721880E+02 -0.44555660646E+03  0.46719672041E+03  0.12500000000E+03 0.  0.
         25    1    1    2    0    0 -0.94701114864E+02 -0.40819403351E+02 -0.98114770432E+01  0.16234466400E+03  0.12500000000E+03 0.  0.
</event>
<event>
 5    0  0.5663008E-005  0.3844649E+03  0.7546771E-02  0.1049296E+00
         21   -1    0    0  502  501  0.00000000000E+00  0.00000000000E+00  0.11935511398E+04  0.11935511398E+04  0.00000000000E+00 0.  1.
         21   -1    0    0  501  502 -0.00000000000E+00 -0.00000000000E+00 -0.12384323325E+03  0.12384323325E+03  0.00000000000E+00 0.  1.
         25    1    1    2    0    0  0.94380549533E+02  0.86296967975E+02  0.12673584893E+03  0.21918446618E+03  0.12500000000E+03 0.  0.
         25    1    1    2    0    0  0.16101028844E+03  0.26124226061E+02  0.16912741067E+03  0.26615008775E+03  0.12500000000E+03 0.  0.
         25    1    1    2    0    0 -0.25539083797E+03 -0.11242119404E+03  0.77384464694E+03  0.83205981911E+03  0.12500000000E+03 0.  0.
</event>
<event>
 5    0  0.5663008E-005  0.3700589E+03  0.7546771E-02  0.1054670E+00
         21   -1    0    0  502  501  0.00000000000E+00  0.00000000000E+00  0.31550823506E+03  0.31550823506E+03  0.00000000000E+00 0. -1.
         21   -1    0    0  501  502 -0.00000000000E+00 -0.00000000000E+00 -0.43404114853E+03  0.43404114853E+03  0.00000000000E+00 0. -1.
         25    1    1    2    0    0  0.30462461666E+02 -0.19700590617E+03  0.14159984626E+03  0.27461756153E+03  0.12500000000E+03 0.  0.
         25    1    1    2    0    0  0.80501448641E+01 -0.33482915484E+02 -0.60159057441E+02  0.14293363024E+03  0.12500000000E+03 0.  0.
         25    1    1    2    0    0 -0.38512606530E+02  0.23048882166E+03 -0.19997370228E+03  0.33199819183E+03  0.12500000000E+03 0.  0.
</event>
<event>
 5    0  0.6211771E-005  0.2908273E+03  0.7546771E-02  0.1089918E+00
         21   -1    0    0  502  501  0.00000000000E+00  0.00000000000E+00  0.14481625388E+03  0.14481625388E+03  0.00000000000E+00 0. -1.
         21   -1    0    0  501  502 -0.00000000000E+00 -0.00000000000E+00 -0.58405392304E+03  0.58405392304E+03  0.00000000000E+00 0. -1.
         25    1    1    2    0    0  0.14902752397E+03  0.97955719226E+02 -0.54955140418E+02  0.22460986908E+03  0.12500000000E+03 0.  0.
         25    1    1    2    0    0 -0.11792674541E+03 -0.48670238889E+02 -0.15397591403E+03  0.23581580002E+03  0.12500000000E+03 0.  0.
         25    1    1    2    0    0 -0.31100778564E+02 -0.49285480337E+02 -0.23030661471E+03  0.26844450782E+03  0.12500000000E+03 0.  0.
</event>
<event>
 5    0  0.5663008E-005  0.6590265E+03  0.7546771E-02  0.9789987E-01
         21   -1    0    0  502  501  0.00000000000E+00  0.00000000000E+00  0.17880056181E+04  0.17880056181E+04  0.00000000000E+00 0. -1.
         21   -1    0    0  501  502 -0.00000000000E+00 -0.00000000000E+00 -0.24290524583E+03  0.24290524583E+03  0.00000000000E+00 0. -1.
         25    1    1    2    0    0 -0.72684546714E+02  0.17336146580E+02  0.15504857074E+03  0.21271728796E+03  0.12500000000E+03 0.  0.
         25    1    1    2    0    0 -0.12198404402E+03  0.51816600400E+03  0.43348201513E+03  0.69778777013E+03  0.12500000000E+03 0.  0.
         25    1    1    2    0    0  0.19466859073E+03 -0.53550215058E+03  0.95656978637E+03  0.11204058058E+04  0.12500000000E+03 0.  0.
</event>
<event>
 5    0  0.5663008E-005  0.3771128E+03  0.7546771E-02  0.1052006E+00
         21   -1    0    0  502  501  0.00000000000E+00  0.00000000000E+00  0.83026461723E+03  0.83026461723E+03  0.00000000000E+00 0.  1.
         21   -1    0    0  501  502 -0.00000000000E+00 -0.00000000000E+00 -0.17128762386E+03  0.17128762386E+03  0.00000000000E+00 0.  1.
         25    1    1    2    0    0  0.46027210872E+02 -0.24744472069E+02  0.18459315719E+03  0.22897691308E+03  0.12500000000E+03 0.  0.
         25    1    1    2    0    0 -0.46769607927E+02  0.20679924769E+03 -0.34789456675E+01  0.24615123021E+03  0.12500000000E+03 0.  0.
         25    1    1    2    0    0  0.74239705574E+00 -0.18205477562E+03  0.47786278184E+03  0.52642409781E+03  0.12500000000E+03 0.  0.
</event>
<event>
 5    0  0.5663008E-005  0.2237712E+03  0.7546771E-02  0.1131102E+00
         21   -1    0    0  502  501  0.00000000000E+00  0.00000000000E+00  0.37218691011E+03  0.37218691011E+03  0.00000000000E+00 0.  1.
         21   -1    0    0  501  502 -0.00000000000E+00 -0.00000000000E+00 -0.13453874491E+03  0.13453874491E+03  0.00000000000E+00 0.  1.
         25    1    1    2    0    0 -0.64243530206E+02  0.61938670879E+02  0.14059316806E+03  0.20821880085E+03  0.12500000000E+03 0.  0.
         25    1    1    2    0    0 -0.32905497554E+01  0.39586952487E+01  0.33724513101E+02  0.12957176301E+03  0.12500000000E+03 0.  0.
         25    1    1    2    0    0  0.67534079961E+02 -0.65897366128E+02  0.63330484040E+02  0.16893509117E+03  0.12500000000E+03 0.  0.
</event>
<event>
 5    0  0.5663008E-005  0.5174828E+03  0.7546771E-02  0.1009314E+00
         21   -1    0    0  502  501  0.00000000000E+00  0.00000000000E+00  0.29425720130E+04  0.29425720130E+04  0.00000000000E+00 0.  1.
         21   -1    0    0  501  502 -0.00000000000E+00 -0.00000000000E+00 -0.91004896665E+02  0.91004896665E+02  0.00000000000E+00 0.  1.
         25    1    1    2    0    0  0.18889266603E+03  0.30950352596E+02  0.53108472913E+03  0.57819923307E+03  0.12500000000E+03 0.  0.
         25    1    1    2    0    0  0.14734807160E+03 -0.47982959165E+02  0.18637958956E+04  0.18743996263E+04  0.12500000000E+03 0.  0.
         25    1    1    2    0    0 -0.33624073763E+03  0.17032606570E+02  0.45668649163E+03  0.58097805034E+03  0.12500000000E+03 0.  0.
</event>
<event>
 5    0  0.5663008E-005  0.3070162E+03  0.7546771E-02  0.1081785E+00
         21   -1    0    0  502  501  0.00000000000E+00  0.00000000000E+00  0.19055982758E+04  0.19055982758E+04  0.00000000000E+00 0. -1.
         21   -1    0    0  501  502 -0.00000000000E+00 -0.00000000000E+00 -0.49464222780E+02  0.49464222780E+02  0.00000000000E+00 0. -1.
         25    1    1    2    0    0 -0.57892254193E+02 -0.32963478507E+02  0.27861236876E+03  0.31255072554E+03  0.12500000000E+03 0.  0.
         25    1    1    2    0    0 -0.14188454721E+03 -0.32168194860E+02  0.94733754508E+03  0.96656062501E+03  0.12500000000E+03 0.  0.
         25    1    1    2    0    0  0.19977680140E+03  0.65131673367E+02  0.63018413923E+03  0.67595114808E+03  0.12500000000E+03 0.  0.
</event>
<event>
 5    0  0.5663008E-005  0.2916309E+03  0.7546771E-02  0.1089501E+00
         21   -1    0    0  502  501  0.00000000000E+00  0.00000000000E+00  0.89080326966E+02  0.89080326966E+02  0.00000000000E+00 0.  1.
         21   -1    0    0  501  502 -0.00000000000E+00 -0.00000000000E+00 -0.95474048347E+03  0.95474048347E+03  0.00000000000E+00 0.  1.
         25    1    1    2    0    0 -0.12020863223E+03  0.21184386373E+02 -0.13774142111E+03  0.22247829687E+03  0.12500000000E+03 0.  0.
         25    1    1    2    0    0 -0.47480330902E+02  0.71390389906E+02 -0.27919833398E+03  0.31769116968E+03  0.12500000000E+03 0.  0.
         25    1    1    2    0    0  0.16768896313E+03 -0.92574776279E+02 -0.44872040142E+03  0.50365134390E+03  0.12500000000E+03 0.  0.
</event>
<event>
 5    0  0.5663008E-005  0.3514485E+03  0.7546771E-02  0.1062022E+00
         21   -1    0    0  502  501  0.00000000000E+00  0.00000000000E+00  0.51085535021E+03  0.51085535021E+03  0.00000000000E+00 0. -1.
         21   -1    0    0  501  502 -0.00000000000E+00 -0.00000000000E+00 -0.24178282960E+03  0.24178282960E+03  0.00000000000E+00 0. -1.
         25    1    1    2    0    0 -0.11910720398E+01 -0.71066844230E+02 -0.10243472569E+03  0.17654967581E+03  0.12500000000E+03 0.  0.
         25    1    1    2    0    0  0.11892892448E+03 -0.73298406183E+02  0.27278205582E+03  0.33098609548E+03  0.12500000000E+03 0.  0.
         25    1    1    2    0    0 -0.11773785244E+03  0.14436525041E+03  0.98725190484E+02  0.24510240852E+03  0.12500000000E+03 0.  0.
</event>
<event>
 5    0  0.5663008E-005  0.2880774E+03  0.7546771E-02  0.1091357E+00
         21   -1    0    0  502  501  0.00000000000E+00  0.00000000000E+00  0.17798446072E+03  0.17798446072E+03  0.00000000000E+00 0. -1.
         21   -1    0    0  501  502 -0.00000000000E+00 -0.00000000000E+00 -0.46626859415E+03  0.46626859415E+03  0.00000000000E+00 0. -1.
         25    1    1    2    0    0 -0.38613012727E+02 -0.57053712940E+02 -0.19758684349E+03  0.24374505458E+03  0.12500000000E+03 0.  0.
         25    1    1    2    0    0  0.71842546141E+02  0.16673295398E+03 -0.55673944673E+02  0.22734515058E+03  0.12500000000E+03 0.  0.
         25    1    1    2    0    0 -0.33229533414E+02 -0.10967924104E+03 -0.35023345263E+02  0.17316284971E+03  0.12500000000E+03 0.  0.
</event>
<event>
 5    0  0.5663008E-005  0.2436631E+03  0.7546771E-02  0.1117376E+00
         21   -1    0    0  502  501  0.00000000000E+00  0.00000000000E+00  0.13868123539E+03  0.13868123539E+03  0.00000000000E+00 0. -1.
         21   -1    0    0  501  502 -0.00000000000E+00 -0.00000000000E+00 -0.42811652952E+03  0.42811652952E+03  0.00000000000E+00 0. -1.
         25    1    1    2    0    0 -0.36114317994E+02  0.17908029329E+02 -0.12308213162E+03  0.17999764611E+03  0.12500000000E+03 0.  0.
         25    1    1    2    0    0 -0.29855322064E+02  0.96472750667E+02 -0.11581915797E+03  0.19808434877E+03  0.12500000000E+03 0.  0.
         25    1    1    2    0    0  0.65969640058E+02 -0.11438078000E+03 -0.50534004542E+02  0.18871577003E+03  0.12500000000E+03 0.  0.
</event>
<event>
 5    0  0.6352140E-005  0.2769113E+03  0.7546771E-02  0.1097388E+00
         21   -1    0    0  502  501  0.00000000000E+00  0.00000000000E+00  0.44585674443E+03  0.44585674443E+03  0.00000000000E+00 0. -1.
         21   -1    0    0  501  502 -0.00000000000E+00 -0.00000000000E+00 -0.17198322491E+03  0.17198322491E+03  0.00000000000E+00 0. -1.
         25    1    1    2    0    0  0.21205505407E+02  0.99521298881E+02  0.32525549226E+02  0.16442954036E+03  0.12500000000E+03 0.  0.
         25    1    1    2    0    0 -0.63667801577E+02 -0.13928373274E+03  0.24584302215E+03  0.31546368841E+03  0.12500000000E+03 0.  0.
         25    1    1    2    0    0  0.42462296170E+02  0.39762433861E+02 -0.44950518520E+01  0.13794674057E+03  0.12500000000E+03 0.  0.
</event>
<event>
 5    0  0.5663008E-005  0.2419117E+03  0.7546771E-02  0.1118526E+00
         21   -1    0    0  502  501  0.00000000000E+00  0.00000000000E+00  0.12166870025E+03  0.12166870025E+03  0.00000000000E+00 0. -1.
         21   -1    0    0  501  502 -0.00000000000E+00 -0.00000000000E+00 -0.48098871373E+03  0.48098871373E+03  0.00000000000E+00 0. -1.
         25    1    1    2    0    0 -0.72966899798E+02  0.91150486067E+02 -0.16354845543E+03  0.23665518555E+03  0.12500000000E+03 0.  0.
         25    1    1    2    0    0  0.10690957578E+03 -0.35847494504E+02 -0.11018640049E+03  0.20119826815E+03  0.12500000000E+03 0.  0.
         25    1    1    2    0    0 -0.33942675980E+02 -0.55302991562E+02 -0.85585157551E+02  0.16480396027E+03  0.12500000000E+03 0.  0.
</event>
<event>
 5    0  0.5663008E-005  0.3023134E+03  0.7546771E-02  0.1084090E+00
         21   -1    0    0  502  501  0.00000000000E+00  0.00000000000E+00  0.90274899897E+02  0.90274899897E+02  0.00000000000E+00 0. -1.
         21   -1    0    0  501  502 -0.00000000000E+00 -0.00000000000E+00 -0.10123899322E+04  0.10123899322E+04  0.00000000000E+00 0. -1.
         25    1    1    2    0    0  0.82777885825E+02 -0.16741959150E+03 -0.48288669057E+03  0.53262186768E+03  0.12500000000E+03 0.  0.
         25    1    1    2    0    0 -0.10410629508E+03  0.85837775107E+02 -0.12762019354E+03  0.22387085141E+03  0.12500000000E+03 0.  0.
         25    1    1    2    0    0  0.21328409251E+02  0.81581816396E+02 -0.31160814820E+03  0.34617211302E+03  0.12500000000E+03 0.  0.
</event>
<event>
 5    0  0.6720060E-005  0.2664659E+03  0.7546771E-02  0.1103319E+00
         21   -1    0    0  502  501  0.00000000000E+00  0.00000000000E+00  0.42756456212E+03  0.42756456212E+03  0.00000000000E+00 0.  1.
         21   -1    0    0  501  502 -0.00000000000E+00 -0.00000000000E+00 -0.16606630078E+03  0.16606630078E+03  0.00000000000E+00 0.  1.
         25    1    1    2    0    0  0.10009514359E+03 -0.14472620608E+03  0.57545247525E+02  0.22338569338E+03  0.12500000000E+03 0.  0.
         25    1    1    2    0    0 -0.27818709365E+02  0.63699789854E+02  0.85069296097E+02  0.16641312736E+03  0.12500000000E+03 0.  0.
         25    1    1    2    0    0 -0.72276434221E+02  0.81026416225E+02  0.11888371772E+03  0.20383204216E+03  0.12500000000E+03 0.  0.
</event>
<event>
 5    0  0.5663008E-005  0.3750005E+03  0.7546771E-02  0.1052797E+00
         21   -1    0    0  502  501  0.00000000000E+00  0.00000000000E+00  0.41540285584E+03  0.41540285584E+03  0.00000000000E+00 0.  1.
         21   -1    0    0  501  502 -0.00000000000E+00 -0.00000000000E+00 -0.33852774797E+03  0.33852774797E+03  0.00000000000E+00 0.  1.
         25    1    1    2    0    0  0.57274171196E+02 -0.74631018190E+02 -0.25861982794E+03  0.30225706769E+03  0.12500000000E+03 0.  0.
         25    1    1    2    0    0 -0.56973331915E+02 -0.28455624227E+02  0.14995548399E+03  0.20534685358E+03  0.12500000000E+03 0.  0.
         25    1    1    2    0    0 -0.30083928112E+00  0.10308664242E+03  0.18553945182E+03  0.24632668254E+03  0.12500000000E+03 0.  0.
</event>
<event>
 5    0  0.5663008E-005  0.5595383E+03  0.7546771E-02  0.9993100E-01
         21   -1    0    0  502  501  0.00000000000E+00  0.00000000000E+00  0.11602012362E+04  0.11602012362E+04  0.00000000000E+00 0.  1.
         21   -1    0    0  501  502 -0.00000000000E+00 -0.00000000000E+00 -0.26985242346E+03  0.26985242346E+03  0.00000000000E+00 0.  1.
         25    1    1    2    0    0  0.48525968503E+03  0.45331434565E+02  0.31185894607E+03  0.59195684228E+03  0.12500000000E+03 0.  0.
         25    1    1    2    0    0 -0.94090397429E+02 -0.10773347203E+03  0.20533947349E+03  0.27972987552E+03  0.12500000000E+03 0.  0.
         25    1    1    2    0    0 -0.39116928760E+03  0.62402037468E+02  0.37315039320E+03  0.55836694188E+03  0.12500000000E+03 0.  0.
</event>
<event>
 5    0  0.5663008E-005  0.2448618E+03  0.7546771E-02  0.1116596E+00
         21   -1    0    0  502  501  0.00000000000E+00  0.00000000000E+00  0.25627496873E+03  0.25627496873E+03  0.00000000000E+00 0. -1.
         21   -1    0    0  501  502 -0.00000000000E+00 -0.00000000000E+00 -0.23395695395E+03  0.23395695395E+03  0.00000000000E+00 0. -1.
         25    1    1    2    0    0  0.12411689416E+02 -0.14571570587E+03  0.46537353202E+02  0.19793393396E+03  0.12500000000E+03 0.  0.
         25    1    1    2    0    0  0.10008660935E+01  0.85816294688E+02 -0.48906201648E+01  0.15170483292E+03  0.12500000000E+03 0.  0.
         25    1    1    2    0    0 -0.13412555509E+02  0.59899411183E+02 -0.19328718255E+02  0.14059315579E+03  0.12500000000E+03 0.  0.
</event>
<event>
 5    0  0.5663008E-005  0.2685631E+03  0.7546771E-02  0.1102105E+00
         21   -1    0    0  502  501  0.00000000000E+00  0.00000000000E+00  0.87397294979E+02  0.87397294979E+02  0.00000000000E+00 0. -1.
         21   -1    0    0  501  502 -0.00000000000E+00 -0.00000000000E+00 -0.82526714955E+03  0.82526714955E+03  0.00000000000E+00 0. -1.
         25    1    1    2    0    0 -0.15027966186E+03  0.78211912016E+02 -0.42922488892E+03  0.47807958042E+03  0.12500000000E+03 0.  0.
         25    1    1    2    0    0  0.97595259702E+02 -0.28414461154E+02 -0.17279554990E+03  0.23625308122E+03  0.12500000000E+03 0.  0.
         25    1    1    2    0    0  0.52684402159E+02 -0.49797450862E+02 -0.13584941575E+03  0.19833178288E+03  0.12500000000E+03 0.  0.
</event>
<event>
 5    0  0.5663008E-005  0.2502314E+03  0.7546771E-02  0.1113159E+00
         21   -1    0    0  502  501  0.00000000000E+00  0.00000000000E+00  0.12592598402E+03  0.12592598402E+03  0.00000000000E+00 0. -1.
         21   -1    0    0  501  502 -0.00000000000E+00 -0.00000000000E+00 -0.49724236665E+03  0.49724236665E+03  0.00000000000E+00 0. -1.
         25    1    1    2    0    0 -0.81825809908E+02 -0.42382346798E+01 -0.22549332313E+03  0.27052849125E+03  0.12500000000E+03 0.  0.
         25    1    1    2    0    0 -0.88009722330E+01 -0.58279157616E+02 -0.12205212845E+03  0.18437906439E+03  0.12500000000E+03 0.  0.
         25    1    1    2    0    0  0.90626782141E+02  0.62517392296E+02 -0.23770931046E+02  0.16826079503E+03  0.12500000000E+03 0.  0.
</event>
<event>
 5    0  0.5663008E-005  0.3044938E+03  0.7546771E-02  0.1083016E+00
         21   -1    0    0  502  501  0.00000000000E+00  0.00000000000E+00  0.10788485886E+03  0.10788485886E+03  0.00000000000E+00 0. -1.
         21   -1    0    0  501  502 -0.00000000000E+00 -0.00000000000E+00 -0.85940227497E+03  0.85940227497E+03  0.00000000000E+00 0. -1.
         25    1    1    2    0    0 -0.50446847259E+02 -0.51266759386E+02 -0.25631696680E+03  0.29410296239E+03  0.12500000000E+03 0.  0.
         25    1    1    2    0    0  0.24920997522E+02  0.16912534331E+03 -0.85861171671E+02  0.22852041193E+03  0.12500000000E+03 0.  0.
         25    1    1    2    0    0  0.25525849738E+02 -0.11785858393E+03 -0.40933927764E+03  0.44466375951E+03  0.12500000000E+03 0.  0.
</event>
<event>
 5    0  0.5663008E-005  0.4126658E+03  0.7546771E-02  0.1039480E+00
         21   -1    0    0  502  501  0.00000000000E+00  0.00000000000E+00  0.24248496190E+03  0.24248496190E+03  0.00000000000E+00 0.  1.
         21   -1    0    0  501  502 -0.00000000000E+00 -0.00000000000E+00 -0.70228303459E+03  0.70228303459E+03  0.00000000000E+00 0.  1.
         25    1    1    2    0    0 -0.94148036173E+02 -0.21406247817E+03 -0.77875881841E+02  0.27636253409E+03  0.12500000000E+03 0.  0.
         25    1    1    2    0    0  0.58485593923E+02  0.31748069088E+03 -0.36236941905E+03  0.50114982754E+03  0.12500000000E+03 0.  0.
         25    1    1    2    0    0  0.35662442251E+02 -0.10341821271E+03 -0.19552771794E+02  0.16725563486E+03  0.12500000000E+03 0.  0.
</event>
<event>
 5    0  0.5663008E-005  0.6912144E+03  0.7546771E-02  0.9732376E-01
         21   -1    0    0  502  501  0.00000000000E+00  0.00000000000E+00  0.41203453287E+03  0.41203453287E+03  0.00000000000E+00 0. -1.
         21   -1    0    0  501  502 -0.00000000000E+00 -0.00000000000E+00 -0.11595565744E+04  0.11595565744E+04  0.00000000000E+00 0. -1.
         25    1    1    2    0    0  0.13035067198E+03  0.51314896829E+03 -0.54258636858E+03  0.76833464630E+03  0.12500000000E+03 0.  0.
         25    1    1    2    0    0  0.39308241113E+02 -0.47119504606E+03  0.23506691443E+02  0.48964014724E+03  0.12500000000E+03 0.  0.
         25    1    1    2    0    0 -0.16965891309E+03 -0.41953922231E+02 -0.22844236439E+03  0.31361631372E+03  0.12500000000E+03 0.  0.
</event>
<event>
 5    0  0.5663008E-005  0.4386331E+03  0.7546771E-02  0.1031167E+00
         21   -1    0    0  502  501  0.00000000000E+00  0.00000000000E+00  0.17536926998E+04  0.17536926998E+04  0.00000000000E+00 0. -1.
         21   -1    0    0  501  502 -0.00000000000E+00 -0.00000000000E+00 -0.10971079497E+03  0.10971079497E+03  0.00000000000E+00 0. -1.
         25    1    1    2    0    0 -0.46189526281E+01  0.26621836533E+03  0.89174399063E+03  0.93900260787E+03  0.12500000000E+03 0.  0.
         25    1    1    2    0    0 -0.25119482464E+02 -0.35721959245E+03  0.54987137264E+03  0.66799726951E+03  0.12500000000E+03 0.  0.
         25    1    1    2    0    0  0.29738435092E+02  0.91001227119E+02  0.20236654152E+03  0.25640361734E+03  0.12500000000E+03 0.  0.
</event>
<event>
 5    0  0.5663008E-005  0.3218642E+03  0.7546771E-02  0.1074795E+00
         21   -1    0    0  502  501  0.00000000000E+00  0.00000000000E+00  0.79625448716E+03  0.79625448716E+03  0.00000000000E+00 0. -1.
         21   -1    0    0  501  502 -0.00000000000E+00 -0.00000000000E+00 -0.13010485725E+03  0.13010485725E+03  0.00000000000E+00 0. -1.
         25    1    1    2    0    0  0.90300182631E+02  0.16770796626E+03  0.25722749837E+03  0.34361471279E+03  0.12500000000E+03 0.  0.
         25    1    1    2    0    0 -0.15393707634E+02 -0.22558813786E+03  0.25200313140E+03  0.36091211176E+03  0.12500000000E+03 0.  0.
         25    1    1    2    0    0 -0.74906474997E+02  0.57880171603E+02  0.15691900014E+03  0.22183251986E+03  0.12500000000E+03 0.  0.
</event>
<event>
 5    0  0.5663008E-005  0.3687504E+03  0.7546771E-02  0.1055172E+00
         21   -1    0    0  502  501  0.00000000000E+00  0.00000000000E+00  0.11630526620E+03  0.11630526620E+03  0.00000000000E+00 0.  1.
         21   -1    0    0  501  502 -0.00000000000E+00 -0.00000000000E+00 -0.11691377433E+04  0.11691377433E+04  0.00000000000E+00 0.  1.
         25    1    1    2    0    0 -0.20694671761E+03 -0.65263344022E+01 -0.52259515067E+03  0.57584740034E+03  0.12500000000E+03 0.  0.
         25    1    1    2    0    0 -0.82100944828E+02  0.17751097918E+02 -0.12157594054E+03  0.19354941472E+03  0.12500000000E+03 0.  0.
         25    1    1    2    0    0  0.28904766244E+03 -0.11224763516E+02 -0.40866138587E+03  0.51604619442E+03  0.12500000000E+03 0.  0.
</event>
<event>
 5    0  0.5663008E-005  0.3210725E+03  0.7546771E-02  0.1075157E+00
         21   -1    0    0  502  501  0.00000000000E+00  0.00000000000E+00  0.27831115648E+04  0.27831115648E+04  0.00000000000E+00 0.  1.
         21   -1    0    0  501  502 -0.00000000000E+00 -0.00000000000E+00 -0.37040394224E+02  0.37040394224E+02  0.00000000000E+00 0.  1.
         25    1    1    2    0    0  0.53559514589E+02  0.20744723279E+03  0.99284833190E+03  0.10233649330E+04  0.12500000000E+03 0.  0.
         25    1    1    2    0    0 -0.65732979080E+01  0.18284541206E+02  0.45043883670E+03  0.46786502145E+03  0.12500000000E+03 0.  0.
         25    1    1    2    0    0 -0.46986216681E+02 -0.22573177400E+03  0.13027840020E+04  0.13289220046E+04  0.12500000000E+03 0.  0.
</event>
<event>
 5    0  0.5663008E-005  0.2705316E+03  0.7546771E-02  0.1100976E+00
         21   -1    0    0  502  501  0.00000000000E+00  0.00000000000E+00  0.39984576039E+02  0.39984576039E+02  0.00000000000E+00 0. -1.
         21   -1    0    0  501  502 -0.00000000000E+00 -0.00000000000E+00 -0.18303892752E+04  0.18303892752E+04  0.00000000000E+00 0. -1.
         25    1    1    2    0    0  0.10650235407E+02 -0.25495264926E+02 -0.14527983345E+03  0.19363539463E+03  0.12500000000E+03 0.  0.
         25    1    1    2    0    0 -0.22884856046E+02 -0.69876302746E+02 -0.10914380115E+04  0.11010305842E+04  0.12500000000E+03 0.  0.
         25    1    1    2    0    0  0.12234620640E+02  0.95371567672E+02 -0.55368685421E+03  0.57570787244E+03  0.12500000000E+03 0.  0.
</event>
<event>
 5    0  0.5663008E-005  0.6208545E+03  0.7546771E-02  0.9863060E-01
         21   -1    0    0  502  501  0.00000000000E+00  0.00000000000E+00  0.61074598863E+03  0.61074598863E+03  0.00000000000E+00 0.  1.
         21   -1    0    0  501  502 -0.00000000000E+00 -0.00000000000E+00 -0.63113038607E+03  0.63113038607E+03  0.00000000000E+00 0.  1.
         25    1    1    2    0    0 -0.14563388356E+03 -0.15888502470E+03 -0.88991879531E+02  0.26457179316E+03  0.12500000000E+03 0.  0.
         25    1    1    2    0    0 -0.38333616225E+03  0.44393818615E+02  0.11002945186E+03  0.42029621066E+03  0.12500000000E+03 0.  0.
         25    1    1    2    0    0  0.52897004581E+03  0.11449120608E+03 -0.41421969773E+02  0.55700837087E+03  0.12500000000E+03 0.  0.
</event>
<event>
 5    0  0.5663008E-005  0.3419660E+03  0.7546771E-02  0.1065962E+00
         21   -1    0    0  502  501  0.00000000000E+00  0.00000000000E+00  0.95766133591E+02  0.95766133591E+02  0.00000000000E+00 0. -1.
         21   -1    0    0  501  502 -0.00000000000E+00 -0.00000000000E+00 -0.12211076283E+04  0.12211076283E+04  0.00000000000E+00 0. -1.
         25    1    1    2    0    0 -0.17627694371E+03 -0.15934434651E+03 -0.48846986777E+03  0.55739751827E+03  0.12500000000E+03 0.  0.
         25    1    1    2    0    0  0.28086450945E+02  0.75562817090E+02 -0.46175983172E+03  0.48512444820E+03  0.12500000000E+03 0.  0.
         25    1    1    2    0    0  0.14819049276E+03  0.83781529423E+02 -0.17511179517E+03  0.27435179537E+03  0.12500000000E+03 0.  0.
</event>
<event>
 5    0  0.5663008E-005  0.2640746E+03  0.7546771E-02  0.1104720E+00
         21   -1    0    0  502  501  0.00000000000E+00  0.00000000000E+00  0.90608585484E+02  0.90608585484E+02  0.00000000000E+00 0. -1.
         21   -1    0    0  501  502 -0.00000000000E+00 -0.00000000000E+00 -0.76963313069E+03  0.76963313069E+03  0.00000000000E+00 0. -1.
         25    1    1    2    0    0 -0.44649597594E+02  0.75719110898E+02 -0.24335730363E+03  0.28735822165E+03  0.12500000000E+03 0.  0.
         25    1    1    2    0    0 -0.29624585407E+01 -0.51749052156E+02 -0.21532442899E+02  0.13702330698E+03  0.12500000000E+03 0.  0.
         25    1    1    2    0    0  0.47612056135E+02 -0.23970058742E+02 -0.41413479867E+03  0.43586018753E+03  0.12500000000E+03 0.  0.
</event>
<event>
 5    0  0.5663008E-005  0.3376085E+03  0.7546771E-02  0.1067819E+00
         21   -1    0    0  502  501  0.00000000000E+00  0.00000000000E+00  0.95038782327E+02  0.95038782327E+02  0.00000000000E+00 0. -1.
         21   -1    0    0  501  502 -0.00000000000E+00 -0.00000000000E+00 -0.11992945580E+04  0.11992945580E+04  0.00000000000E+00 0. -1.
         25    1    1    2    0    0 -0.16028084260E+03 -0.27317022761E+02 -0.44538152098E+03  0.49033240508E+03  0.12500000000E+03 0.  0.
         25    1    1    2    0    0  0.19881421837E+03  0.11854349335E+03 -0.24115777996E+03  0.35687774949E+03  0.12500000000E+03 0.  0.
         25    1    1    2    0    0 -0.38533375769E+02 -0.91226470587E+02 -0.41771647472E+03  0.44712318575E+03  0.12500000000E+03 0.  0.
</event>
<event>
 5    0  0.5663008E-005  0.5371589E+03  0.7546771E-02  0.1004511E+00
         21   -1    0    0  502  501  0.00000000000E+00  0.00000000000E+00  0.15324619557E+03  0.15324619557E+03  0.00000000000E+00 0.  1.
         21   -1    0    0  501  502 -0.00000000000E+00 -0.00000000000E+00 -0.18828504979E+04  0.18828504979E+04  0.00000000000E+00 0.  1.
         25    1    1    2    0    0 -0.11140796675E+03  0.94817148514E+02 -0.11791610526E+03  0.22567949527E+03  0.12500000000E+03 0.  0.
         25    1    1    2    0    0  0.10867206777E+03 -0.31164925836E+03 -0.14916323414E+04  0.15328166623E+04  0.12500000000E+03 0.  0.
         25    1    1    2    0    0  0.27358989879E+01  0.21683210985E+03 -0.12005585567E+03  0.27760053582E+03  0.12500000000E+03 0.  0.
</event>
<event>
 5    0  0.5663008E-005  0.3622582E+03  0.7546771E-02  0.1057693E+00
         21   -1    0    0  502  501  0.00000000000E+00  0.00000000000E+00  0.10601662364E+03  0.10601662364E+03  0.00000000000E+00 0. -1.
         21   -1    0    0  501  502 -0.00000000000E+00 -0.00000000000E+00 -0.12378340778E+04  0.12378340778E+04  0.00000000000E+00 0. -1.
         25    1    1    2    0    0 -0.17391883135E+03  0.67127424000E+02 -0.69013155075E+03  0.72571372337E+03  0.12500000000E+03 0.  0.
         25    1    1    2    0    0  0.75354005246E+02 -0.15668239535E+03 -0.35817518282E+03  0.41730331979E+03  0.12500000000E+03 0.  0.
         25    1    1    2    0    0  0.98564826106E+02  0.89554971350E+02 -0.83510720585E+02  0.20083365826E+03  0.12500000000E+03 0.  0.
</event>
<event>
 5    0  0.5663008E-005  0.2638283E+03  0.7546771E-02  0.1104865E+00
         21   -1    0    0  502  501  0.00000000000E+00  0.00000000000E+00  0.18602377561E+04  0.18602377561E+04  0.00000000000E+00 0.  1.
         21   -1    0    0  501  502 -0.00000000000E+00 -0.00000000000E+00 -0.37417472116E+02  0.37417472116E+02  0.00000000000E+00 0.  1.
         25    1    1    2    0    0 -0.14353278236E+03  0.69262105547E+02  0.61427782425E+03  0.64680842932E+03  0.12500000000E+03 0.  0.
         25    1    1    2    0    0  0.93425503219E+02  0.25178118957E+02  0.59214520300E+03  0.61288106820E+03  0.12500000000E+03 0.  0.
         25    1    1    2    0    0  0.50107279145E+02 -0.94440224504E+02  0.61639725679E+03  0.63796573075E+03  0.12500000000E+03 0.  0.
</event>
<event>
 5    0  0.5689879E-005  0.2548117E+03  0.7546771E-02  0.1110301E+00
         21   -1    0    0  502  501  0.00000000000E+00  0.00000000000E+00  0.18947089424E+03  0.18947089424E+03  0.00000000000E+00 0.  1.
         21   -1    0    0  501  502 -0.00000000000E+00 -0.00000000000E+00 -0.34268599267E+03  0.34268599267E+03  0.00000000000E+00 0.  1.
         25    1    1    2    0    0 -0.32368118550E+02 -0.10661547759E+03 -0.39286277457E+02  0.17199699636E+03  0.12500000000E+03 0.  0.
         25    1    1    2    0    0  0.27126097281E+02 -0.59923077454E+01  0.37833429542E+02  0.13352191317E+03  0.12500000000E+03 0.  0.
         25    1    1    2    0    0  0.52420212682E+01  0.11260778534E+03 -0.15176225051E+03  0.22663797737E+03  0.12500000000E+03 0.  0.
</event>
<event>
 5    0  0.5663008E-005  0.3915968E+03  0.7546771E-02  0.1046729E+00
         21   -1    0    0  502  501  0.00000000000E+00  0.00000000000E+00  0.21647840806E+03  0.21647840806E+03  0.00000000000E+00 0. -1.
         21   -1    0    0  501  502 -0.00000000000E+00 -0.00000000000E+00 -0.70837589037E+03  0.70837589037E+03  0.00000000000E+00 0. -1.
         25    1    1    2    0    0 -0.46652625284E+02 -0.17826508839E+03 -0.17964258993E+02  0.22338895180E+03  0.12500000000E+03 0.  0.
         25    1    1    2    0    0 -0.15101370308E+01 -0.13010864709E+03 -0.15091242820E+03  0.23522351401E+03  0.12500000000E+03 0.  0.
         25    1    1    2    0    0  0.48162762315E+02  0.30837373548E+03 -0.32302079511E+03  0.46624183262E+03  0.12500000000E+03 0.  0.
</event>
<event>
 5    0  0.5663008E-005  0.2513972E+03  0.7546771E-02  0.1112425E+00
         21   -1    0    0  502  501  0.00000000000E+00  0.00000000000E+00  0.39971905752E+03  0.39971905752E+03  0.00000000000E+00 0. -1.
         21   -1    0    0  501  502 -0.00000000000E+00 -0.00000000000E+00 -0.15811237119E+03  0.15811237119E+03  0.00000000000E+00 0. -1.
         25    1    1    2    0    0 -0.15933092648E-01 -0.98778339497E+02  0.15045904278E+03  0.21913485383E+03  0.12500000000E+03 0.  0.
         25    1    1    2    0    0  0.75800479826E+02  0.88951357037E+01  0.46604840900E+01  0.14653175865E+03  0.12500000000E+03 0.  0.
         25    1    1    2    0    0 -0.75784546734E+02  0.89883203794E+02  0.86487159456E+02  0.19216481624E+03  0.12500000000E+03 0.  0.
</event>
<event>
 5    0  0.5663008E-005  0.2857128E+03  0.7546771E-02  0.1092609E+00
         21   -1    0    0  502  501  0.00000000000E+00  0.00000000000E+00  0.13205304632E+04  0.13205304632E+04  0.00000000000E+00 0. -1.
         21   -1    0    0  501  502 -0.00000000000E+00 -0.00000000000E+00 -0.61817429705E+02  0.61817429705E+02  0.00000000000E+00 0. -1.
         25    1    1    2    0    0 -0.14741933352E+03  0.35155056668E+02  0.19278730313E+03  0.27524585764E+03  0.12500000000E+03 0.  0.
         25    1    1    2    0    0  0.72458034163E+02  0.62000961387E+01  0.59905029575E+03  0.61625876444E+03  0.12500000000E+03 0.  0.
         25    1    1    2    0    0  0.74961299352E+02 -0.41355152806E+02  0.46687543463E+03  0.49084327083E+03  0.12500000000E+03 0.  0.
</event>
<event>
 5    0  0.5663008E-005  0.3347938E+03  0.7546771E-02  0.1069035E+00
         21   -1    0    0  502  501  0.00000000000E+00  0.00000000000E+00  0.10299031145E+04  0.10299031145E+04  0.00000000000E+00 0. -1.
         21   -1    0    0  501  502 -0.00000000000E+00 -0.00000000000E+00 -0.10883245082E+03  0.10883245082E+03  0.00000000000E+00 0. -1.
         25    1    1    2    0    0  0.10356011537E+03  0.13769044283E+03  0.85413144168E+02  0.22935509748E+03  0.12500000000E+03 0.  0.
         25    1    1    2    0    0  0.45727126267E+02 -0.31242246984E+02  0.31116171679E+03  0.33987300874E+03  0.12500000000E+03 0.  0.
         25    1    1    2    0    0 -0.14928724163E+03 -0.10644819585E+03  0.52449580276E+03  0.56950745915E+03  0.12500000000E+03 0.  0.
</event>
<event>
 5    0  0.5663008E-005  0.4721358E+03  0.7546771E-02  0.1021319E+00
         21   -1    0    0  502  501  0.00000000000E+00  0.00000000000E+00  0.52991370744E+03  0.52991370744E+03  0.00000000000E+00 0.  1.
         21   -1    0    0  501  502 -0.00000000000E+00 -0.00000000000E+00 -0.42065761295E+03  0.42065761295E+03  0.00000000000E+00 0.  1.
         25    1    1    2    0    0  0.13574757970E+03  0.19892974127E+02  0.14373884729E+03  0.23475304478E+03  0.12500000000E+03 0.  0.
         25    1    1    2    0    0 -0.37037851813E+02 -0.32785373595E+03 -0.91390205079E+02  0.36446816628E+03  0.12500000000E+03 0.  0.
         25    1    1    2    0    0 -0.98709727886E+02  0.30796076183E+03  0.56907452270E+02  0.35135010933E+03  0.12500000000E+03 0.  0.
</event>
<event>
 5    0  0.5663008E-005  0.3094356E+03  0.7546771E-02  0.1080617E+00
         21   -1    0    0  502  501  0.00000000000E+00  0.00000000000E+00  0.24884797921E+03  0.24884797921E+03  0.00000000000E+00 0.  1.
         21   -1    0    0  501  502 -0.00000000000E+00 -0.00000000000E+00 -0.38477470281E+03  0.38477470281E+03  0.00000000000E+00 0.  1.
         25    1    1    2    0    0  0.50384571435E+02 -0.48997623705E+02  0.35450912549E+02  0.14771980019E+03  0.12500000000E+03 0.  0.
         25    1    1    2    0    0  0.61324290946E+02  0.81312921366E+02  0.81596167494E+02  0.18070803632E+03  0.12500000000E+03 0.  0.
         25    1    1    2    0    0 -0.11170886238E+03 -0.32315297662E+02 -0.25297380364E+03  0.30519484551E+03  0.12500000000E+03 0.  0.
</event>
<event>
 5    0  0.5663008E-005  0.3218896E+03  0.7546771E-02  0.1074783E+00
         21   -1    0    0  502  501  0.00000000000E+00  0.00000000000E+00  0.59641723632E+02  0.59641723632E+02  0.00000000000E+00 0.  1.
         21   -1    0    0  501  502 -0.00000000000E+00 -0.00000000000E+00 -0.17372557440E+04  0.17372557440E+04  0.00000000000E+00 0. -1.
         25    1    1    2    0    0 -0.82292312336E+02  0.17340320212E+03 -0.55933250441E+03  0.60441587145E+03  0.12500000000E+03 0.  0.
         25    1    1    2    0    0 -0.12920400614E+02  0.54108029533E+02 -0.33694739897E+03  0.36366628285E+03  0.12500000000E+03 0.  0.
         25    1    1    2    0    0  0.95212712949E+02 -0.22751123165E+03 -0.78133411698E+03  0.82881531331E+03  0.12500000000E+03 0.  0.
</event>
<event>
 5    0  0.5663008E-005  0.3180927E+03  0.7546771E-02  0.1076530E+00
         21   -1    0    0  502  501  0.00000000000E+00  0.00000000000E+00  0.92050212251E+02  0.92050212251E+02  0.00000000000E+00 0.  1.
         21   -1    0    0  501  502 -0.00000000000E+00 -0.00000000000E+00 -0.10992149716E+04  0.10992149716E+04  0.00000000000E+00 0.  1.
         25    1    1    2    0    0 -0.10840381565E+03 -0.10195036102E+03 -0.10442944825E+03  0.22062586662E+03  0.12500000000E+03 0.  0.
         25    1    1    2    0    0 -0.24209778598E+02  0.60186849881E+02 -0.20804392448E+03  0.25122867032E+03  0.12500000000E+03 0.  0.
         25    1    1    2    0    0  0.13261359425E+03  0.41763511139E+02 -0.69469138659E+03  0.71941064688E+03  0.12500000000E+03 0.  0.
</event>
<event>
 5    0  0.5663008E-005  0.5522496E+03  0.7546771E-02  0.1000975E+00
         21   -1    0    0  502  501  0.00000000000E+00  0.00000000000E+00  0.43721209445E+03  0.43721209445E+03  0.00000000000E+00 0.  1.
         21   -1    0    0  501  502 -0.00000000000E+00 -0.00000000000E+00 -0.69755520430E+03  0.69755520430E+03  0.00000000000E+00 0.  1.
         25    1    1    2    0    0 -0.44180732385E+02  0.24770747410E+03 -0.32872145812E+03  0.43242771288E+03  0.12500000000E+03 0.  0.
         25    1    1    2    0    0  0.73686043016E+02 -0.27804865322E+03  0.30112005758E+03  0.43478612624E+03  0.12500000000E+03 0.  0.
         25    1    1    2    0    0 -0.29505310631E+02  0.30341179119E+02 -0.23274170932E+03  0.26755345963E+03  0.12500000000E+03 0.  0.
</event>
<event>
 5    0  0.5663008E-005  0.4180379E+03  0.7546771E-02  0.1037707E+00
         21   -1    0    0  502  501  0.00000000000E+00  0.00000000000E+00  0.17689205888E+04  0.17689205888E+04  0.00000000000E+00 0. -1.
         21   -1    0    0  501  502 -0.00000000000E+00 -0.00000000000E+00 -0.98792254629E+02  0.98792254629E+02  0.00000000000E+00 0.  1.
         25    1    1    2    0    0 -0.96290704596E+02  0.36695032910E+02  0.35313043343E+03  0.38851580179E+03  0.12500000000E+03 0.  0.
         25    1    1    2    0    0 -0.18145747457E+03  0.10490466523E+03  0.20867367455E+03  0.32109423276E+03  0.12500000000E+03 0.  0.
         25    1    1    2    0    0  0.27774817916E+03 -0.14159969814E+03  0.11083242262E+04  0.11581028089E+04  0.12500000000E+03 0.  0.
</event>
<event>
 5    0  0.5663008E-005  0.3732056E+03  0.7546771E-02  0.1053474E+00
         21   -1    0    0  502  501  0.00000000000E+00  0.00000000000E+00  0.27833053270E+03  0.27833053270E+03  0.00000000000E+00 0. -1.
         21   -1    0    0  501  502 -0.00000000000E+00 -0.00000000000E+00 -0.50042085188E+03  0.50042085188E+03  0.00000000000E+00 0. -1.
         25    1    1    2    0    0 -0.16258200449E+03  0.87762264578E+02 -0.81524917730E+02  0.23750039048E+03  0.12500000000E+03 0.  0.
         25    1    1    2    0    0 -0.26741483442E+02 -0.99759490600E+01  0.12800932321E+03  0.18117950580E+03  0.12500000000E+03 0.  0.
         25    1    1    2    0    0  0.18932348793E+03 -0.77786315518E+02 -0.26857472465E+03  0.36007148830E+03  0.12500000000E+03 0.  0.
</event>
<event>
 5    0  0.5663008E-005  0.2254315E+03  0.7546771E-02  0.1129897E+00
         21   -1    0    0  502  501  0.00000000000E+00  0.00000000000E+00  0.51146673095E+02  0.51146673095E+02  0.00000000000E+00 0.  1.
         21   -1    0    0  501  502 -0.00000000000E+00 -0.00000000000E+00 -0.99360089716E+03  0.99360089716E+03  0.00000000000E+00 0.  1.
         25    1    1    2    0    0  0.20214558983E+02  0.39740425495E+02 -0.19551715376E+03  0.23630464919E+03  0.12500000000E+03 0.  0.
         25    1    1    2    0    0  0.20709046755E+02  0.63834286531E+02 -0.34551428260E+03  0.37350876862E+03  0.12500000000E+03 0.  0.
         25    1    1    2    0    0 -0.40923605738E+02 -0.10357471203E+03 -0.40142278770E+03  0.43493415245E+03  0.12500000000E+03 0.  0.
</event>
<event>
 5    0  0.5663008E-005  0.4327924E+03  0.7546771E-02  0.1032981E+00
         21   -1    0    0  502  501  0.00000000000E+00  0.00000000000E+00  0.21172231779E+04  0.21172231779E+04  0.00000000000E+00 0. -1.
         21   -1    0    0  501  502 -0.00000000000E+00 -0.00000000000E+00 -0.88469306686E+02  0.88469306686E+02  0.00000000000E+00 0. -1.
         25    1    1    2    0    0  0.70736451063E+01  0.13483324251E+03  0.40420730060E+03  0.44411550479E+03  0.12500000000E+03 0.  0.
         25    1    1    2    0    0 -0.45853048791E+02 -0.33625052619E+03  0.13461235384E+04  0.13938581345E+04  0.12500000000E+03 0.  0.
         25    1    1    2    0    0  0.38779403684E+02  0.20141728368E+03  0.27842303217E+03  0.36771884525E+03  0.12500000000E+03 0.  0.
</event>
<event>
 5    0  0.6573705E-005  0.2905832E+03  0.7546771E-02  0.1090045E+00
         21   -1    0    0  502  501  0.00000000000E+00  0.00000000000E+00  0.23285966878E+03  0.23285966878E+03  0.00000000000E+00 0. -1.
         21   -1    0    0  501  502 -0.00000000000E+00 -0.00000000000E+00 -0.36261570145E+03  0.36261570145E+03  0.00000000000E+00 0. -1.
         25    1    1    2    0    0 -0.12734556189E+03 -0.40296357016E+02 -0.84216931304E+02  0.20139061557E+03  0.12500000000E+03 0.  0.
         25    1    1    2    0    0  0.30761007020E+02  0.22685481516E+02 -0.15374704727E+03  0.20180194540E+03  0.12500000000E+03 0.  0.
         25    1    1    2    0    0  0.96584554872E+02  0.17610875500E+02  0.10820794590E+03  0.19228280925E+03  0.12500000000E+03 0.  0.
</event>
<event>
 5    0  0.5663008E-005  0.4218672E+03  0.7546771E-02  0.1036460E+00
         21   -1    0    0  502  501  0.00000000000E+00  0.00000000000E+00  0.17084619568E+03  0.17084619568E+03  0.00000000000E+00 0. -1.
         21   -1    0    0  501  502 -0.00000000000E+00 -0.00000000000E+00 -0.10417085731E+04  0.10417085731E+04  0.00000000000E+00 0. -1.
         25    1    1    2    0    0  0.31212685014E+03 -0.10212302823E+03 -0.21597316382E+03  0.41245810813E+03  0.12500000000E+03 0.  0.
         25    1    1    2    0    0 -0.13851797273E+03  0.14326049789E+03 -0.40697178990E+03  0.47006577923E+03  0.12500000000E+03 0.  0.
         25    1    1    2    0    0 -0.17360887742E+03 -0.41137469660E+02 -0.24791742374E+03  0.33003088147E+03  0.12500000000E+03 0.  0.
</event>
<event>
 5    0  0.5663008E-005  0.2786225E+03  0.7546771E-02  0.1096444E+00
         21   -1    0    0  502  501  0.00000000000E+00  0.00000000000E+00  0.11840439661E+03  0.11840439661E+03  0.00000000000E+00 0. -1.
         21   -1    0    0  501  502 -0.00000000000E+00 -0.00000000000E+00 -0.65563867504E+03  0.65563867504E+03  0.00000000000E+00 0. -1.
         25    1    1    2    0    0 -0.48485529593E+01  0.75995565408E+02 -0.66168312841E+02  0.16063025883E+03  0.12500000000E+03 0.  0.
         25    1    1    2    0    0  0.75856255381E+02  0.37053414512E+02 -0.57880969633E+02  0.16156216653E+03  0.12500000000E+03 0.  0.
         25    1    1    2    0    0 -0.71007702421E+02 -0.11304897992E+03 -0.41318499596E+03  0.45185064629E+03  0.12500000000E+03 0.  0.
</event>
<event>
 5    0  0.5663008E-005  0.2586594E+03  0.7546771E-02  0.1107951E+00
         21   -1    0    0  502  501  0.00000000000E+00  0.00000000000E+00  0.11795727453E+03  0.11795727453E+03  0.00000000000E+00 0.  1.
         21   -1    0    0  501  502 -0.00000000000E+00 -0.00000000000E+00 -0.56719437973E+03  0.56719437973E+03  0.00000000000E+00 0.  1.
         25    1    1    2    0    0  0.88706700732E+02  0.42690559339E+02 -0.38600479600E+02  0.16372647812E+03  0.12500000000E+03 0.  0.
         25    1    1    2    0    0  0.28987019302E+02 -0.27002539605E+02 -0.26529502782E+03  0.29593214800E+03  0.12500000000E+03 0.  0.
         25    1    1    2    0    0 -0.11769372003E+03 -0.15688019734E+02 -0.14534159778E+03  0.22549302815E+03  0.12500000000E+03 0.  0.
</event>
<event>
 5    0  0.5663008E-005  0.3244728E+03  0.7546771E-02  0.1073609E+00
         21   -1    0    0  502  501  0.00000000000E+00  0.00000000000E+00  0.45652357239E+03  0.45652357239E+03  0.00000000000E+00 0. -1.
         21   -1    0    0  501  502 -0.00000000000E+00 -0.00000000000E+00 -0.23061808869E+03  0.23061808869E+03  0.00000000000E+00 0. -1.
         25    1    1    2    0    0 -0.18936822092E+03  0.56753896223E+02  0.10590784546E+03  0.25675435646E+03  0.12500000000E+03 0.  0.
         25    1    1    2    0    0  0.50990251045E+02  0.16064059904E+02  0.17611117901E+03  0.22248192532E+03  0.12500000000E+03 0.  0.
         25    1    1    2    0    0  0.13837796988E+03 -0.72817956127E+02 -0.56113540766E+02  0.20790537929E+03  0.12500000000E+03 0.  0.
</event>
<event>
 5    0  0.7056878E-005  0.3714947E+03  0.7546771E-02  0.1054123E+00
         21   -1    0    0  502  501  0.00000000000E+00  0.00000000000E+00  0.94652155275E+03  0.94652155275E+03  0.00000000000E+00 0.  1.
         21   -1    0    0  501  502 -0.00000000000E+00 -0.00000000000E+00 -0.14580579086E+03  0.14580579086E+03  0.00000000000E+00 0.  1.
         25    1    1    2    0    0 -0.20768619539E+03 -0.11325162847E+03  0.40197538868E+03  0.48287545000E+03  0.12500000000E+03 0.  0.
         25    1    1    2    0    0  0.94085738216E+02  0.37408696327E+02  0.39250823628E+03  0.42419247076E+03  0.12500000000E+03 0.  0.
         25    1    1    2    0    0  0.11360045717E+03  0.75842932143E+02  0.62321369255E+01  0.18525942285E+03  0.12500000000E+03 0.  0.
</event>
<event>
 5    0  0.5663008E-005  0.3979907E+03  0.7546771E-02  0.1044478E+00
         21   -1    0    0  502  501  0.00000000000E+00  0.00000000000E+00  0.49746119654E+03  0.49746119654E+03  0.00000000000E+00 0.  1.
         21   -1    0    0  501  502 -0.00000000000E+00 -0.00000000000E+00 -0.31840997200E+03  0.31840997200E+03  0.00000000000E+00 0.  1.
         25    1    1    2    0    0  0.76285786658E+02  0.27873745920E+02 -0.34251290956E+02  0.15295299242E+03  0.12500000000E+03 0.  0.
         25    1    1    2    0    0 -0.25357998098E+03 -0.15586516364E+03 -0.14709644277E+02  0.32316888715E+03  0.12500000000E+03 0.  0.
         25    1    1    2    0    0  0.17729419432E+03  0.12799141772E+03  0.22801215977E+03  0.33974928897E+03  0.12500000000E+03 0.  0.
</event>
<event>
 5    0  0.5663008E-005  0.3194330E+03  0.7546771E-02  0.1075911E+00
         21   -1    0    0  502  501  0.00000000000E+00  0.00000000000E+00  0.13697023290E+03  0.13697023290E+03  0.00000000000E+00 0.  1.
         21   -1    0    0  501  502 -0.00000000000E+00 -0.00000000000E+00 -0.74496086904E+03  0.74496086904E+03  0.00000000000E+00 0.  1.
         25    1    1    2    0    0  0.83924112746E+02  0.11069979997E+03 -0.10369475068E+03  0.21371781333E+03  0.12500000000E+03 0.  0.
         25    1    1    2    0    0  0.96843256820E+02 -0.76057320520E+02 -0.88241655183E+02  0.19640499511E+03  0.12500000000E+03 0.  0.
         25    1    1    2    0    0 -0.18076736957E+03 -0.34642479452E+02 -0.41605423027E+03  0.47180829350E+03  0.12500000000E+03 0.  0.
</event>
<event>
 5    0  0.5663008E-005  0.4902589E+03  0.7546771E-02  0.1016353E+00
         21   -1    0    0  502  501  0.00000000000E+00  0.00000000000E+00  0.70552239907E+03  0.70552239907E+03  0.00000000000E+00 0. -1.
         21   -1    0    0  501  502 -0.00000000000E+00 -0.00000000000E+00 -0.34067497914E+03  0.34067497914E+03  0.00000000000E+00 0. -1.
         25    1    1    2    0    0  0.18083840954E+03  0.14283500984E+02 -0.19932447373E+03  0.29708886650E+03  0.12500000000E+03 0.  0.
         25    1    1    2    0    0 -0.18243647000E+03  0.76261107204E+02  0.54560419306E+03  0.59363941711E+03  0.12500000000E+03 0.  0.
         25    1    1    2    0    0  0.15980604555E+01 -0.90544608189E+02  0.18567700604E+02  0.15546909460E+03  0.12500000000E+03 0.  0.
</event>
<event>
 5    0  0.6275700E-005  0.2937766E+03  0.7546771E-02  0.1088394E+00
         21   -1    0    0  502  501  0.00000000000E+00  0.00000000000E+00  0.52689592349E+03  0.52689592349E+03  0.00000000000E+00 0. -1.
         21   -1    0    0  501  502 -0.00000000000E+00 -0.00000000000E+00 -0.16379831781E+03  0.16379831781E+03  0.00000000000E+00 0. -1.
         25    1    1    2    0    0  0.92689373259E+02 -0.65020789573E+02 -0.60399127333E+02  0.17914261797E+03  0.12500000000E+03 0.  0.
         25    1    1    2    0    0 -0.80817681341E+02  0.51645597353E+02  0.19723109329E+03  0.25243587207E+03  0.12500000000E+03 0.  0.
         25    1    1    2    0    0 -0.11871691918E+02  0.13375192220E+02  0.22626563972E+03  0.25911575126E+03  0.12500000000E+03 0.  0.
</event>
<event>
 5    0  0.5663008E-005  0.3707658E+03  0.7546771E-02  0.1054401E+00
         21   -1    0    0  502  501  0.00000000000E+00  0.00000000000E+00  0.36482480236E+03  0.36482480236E+03  0.00000000000E+00 0. -1.
         21   -1    0    0  501  502 -0.00000000000E+00 -0.00000000000E+00 -0.37680362070E+03  0.37680362070E+03  0.00000000000E+00 0. -1.
         25    1    1    2    0    0 -0.19301369598E+03  0.58253903100E+02  0.22026351366E+03  0.32371101234E+03  0.12500000000E+03 0.  0.
         25    1    1    2    0    0  0.79858935997E+02 -0.91892247473E+02 -0.10094134589E+03  0.20158320891E+03  0.12500000000E+03 0.  0.
         25    1    1    2    0    0  0.11315475998E+03  0.33638344373E+02 -0.13130098610E+03  0.21633420181E+03  0.12500000000E+03 0.  0.
</event>
<event>
 5    0  0.5663008E-005  0.2503288E+03  0.7546771E-02  0.1113097E+00
         21   -1    0    0  502  501  0.00000000000E+00  0.00000000000E+00  0.44304124284E+02  0.44304124284E+02  0.00000000000E+00 0. -1.
         21   -1    0    0  501  502 -0.00000000000E+00 -0.00000000000E+00 -0.14144172336E+04  0.14144172336E+04  0.00000000000E+00 0. -1.
         25    1    1    2    0    0 -0.19962547825E+02  0.50016832241E+02 -0.70926746315E+03  0.72220877944E+03  0.12500000000E+03 0.  0.
         25    1    1    2    0    0 -0.17951964471E+02 -0.32938920026E+02 -0.54714806577E+03  0.56249733453E+03  0.12500000000E+03 0.  0.
         25    1    1    2    0    0  0.37914512296E+02 -0.17077912215E+02 -0.11369758043E+03  0.17401524394E+03  0.12500000000E+03 0.  0.
</event>
<event>
 5    0  0.5663008E-005  0.2762261E+03  0.7546771E-02  0.1097768E+00
         21   -1    0    0  502  501  0.00000000000E+00  0.00000000000E+00  0.54481590541E+03  0.54481590541E+03  0.00000000000E+00 0.  1.
         21   -1    0    0  501  502 -0.00000000000E+00 -0.00000000000E+00 -0.14004889468E+03  0.14004889468E+03  0.00000000000E+00 0.  1.
         25    1    1    2    0    0  0.71796527574E+02 -0.14619515588E+03  0.28499354224E+03  0.35124647200E+03  0.12500000000E+03 0.  0.
         25    1    1    2    0    0 -0.77765177005E+02  0.94950877675E+02  0.54508071016E+02  0.18346449720E+03  0.12500000000E+03 0.  0.
         25    1    1    2    0    0  0.59686494311E+01  0.51244278204E+02  0.65265397468E+02  0.15015383089E+03  0.12500000000E+03 0.  0.
</event>
<event>
 5    0  0.5663008E-005  0.3158529E+03  0.7546771E-02  0.1077574E+00
         21   -1    0    0  502  501  0.00000000000E+00  0.00000000000E+00  0.66484690590E+02  0.66484690590E+02  0.00000000000E+00 0. -1.
         21   -1    0    0  501  502 -0.00000000000E+00 -0.00000000000E+00 -0.15005415984E+04  0.15005415984E+04  0.00000000000E+00 0. -1.
         25    1    1    2    0    0 -0.88074154285E+02 -0.34284167671E+02 -0.13869153539E+03  0.20926729987E+03  0.12500000000E+03 0.  0.
         25    1    1    2    0    0  0.80155788091E+02 -0.85560304481E+02 -0.28444598138E+03  0.33208437541E+03  0.12500000000E+03 0.  0.
         25    1    1    2    0    0  0.79183661947E+01  0.11984447215E+03 -0.10109193910E+04  0.10256746137E+04  0.12500000000E+03 0.  0.
</event>
<event>
 5    0  0.7838730E-005  0.6530552E+03  0.7546771E-02  0.9801063E-01
         21   -1    0    0  502  501  0.00000000000E+00  0.00000000000E+00  0.75852297192E+03  0.75852297192E+03  0.00000000000E+00 0.  1.
         21   -1    0    0  501  502 -0.00000000000E+00 -0.00000000000E+00 -0.56225206507E+03  0.56225206507E+03  0.00000000000E+00 0.  1.
         25    1    1    2    0    0  0.21752202466E+03 -0.31725814581E+03  0.31749666035E+03  0.51419616066E+03  0.12500000000E+03 0.  0.
         25    1    1    2    0    0  0.14417753623E+03  0.15718862747E+03 -0.26981481497E+03  0.36595144615E+03  0.12500000000E+03 0.  0.
         25    1    1    2    0    0 -0.36169956088E+03  0.16006951834E+03  0.14858906147E+03  0.44062743019E+03  0.12500000000E+03 0.  0.
</event>
<event>
 5    0  0.5663008E-005  0.5038872E+03  0.7546771E-02  0.1012769E+00
         21   -1    0    0  502  501  0.00000000000E+00  0.00000000000E+00  0.29075663492E+03  0.29075663492E+03  0.00000000000E+00 0. -1.
         21   -1    0    0  501  502 -0.00000000000E+00 -0.00000000000E+00 -0.87324695151E+03  0.87324695151E+03  0.00000000000E+00 0. -1.
         25    1    1    2    0    0  0.20474112532E+03 -0.16818433737E+03 -0.52194873706E+03  0.59854856432E+03  0.12500000000E+03 0.  0.
         25    1    1    2    0    0 -0.10353535769E+03  0.30756518584E+03 -0.16735088134E+02  0.34816802985E+03  0.12500000000E+03 0.  0.
         25    1    1    2    0    0 -0.10120576762E+03 -0.13938084847E+03 -0.43806491393E+02  0.21728699227E+03  0.12500000000E+03 0.  0.
</event>
<event>
 5    0  0.5663008E-005  0.2481363E+03  0.7546771E-02  0.1114488E+00
         21   -1    0    0  502  501  0.00000000000E+00  0.00000000000E+00  0.74031895703E+02  0.74031895703E+02  0.00000000000E+00 0. -1.
         21   -1    0    0  501  502 -0.00000000000E+00 -0.00000000000E+00 -0.83169065308E+03  0.83169065308E+03  0.00000000000E+00 0. -1.
         25    1    1    2    0    0  0.80771595413E+01 -0.79300021861E+02 -0.17968163163E+03  0.23294682380E+03  0.12500000000E+03 0.  0.
         25    1    1    2    0    0 -0.10751331141E+03  0.75293657606E+02 -0.26041556131E+03  0.31728459083E+03  0.12500000000E+03 0.  0.
         25    1    1    2    0    0  0.99436151870E+02  0.40063642544E+01 -0.31756156444E+03  0.35549113415E+03  0.12500000000E+03 0.  0.
</event>
<event>
 5    0  0.5663008E-005  0.3660442E+03  0.7546771E-02  0.1056216E+00
         21   -1    0    0  502  501  0.00000000000E+00  0.00000000000E+00  0.20634843926E+03  0.20634843926E+03  0.00000000000E+00 0. -1.
         21   -1    0    0  501  502 -0.00000000000E+00 -0.00000000000E+00 -0.64933046798E+03  0.64933046798E+03  0.00000000000E+00 0. -1.
         25    1    1    2    0    0  0.14542962303E+03  0.25592097318E+02 -0.12970411162E+03  0.23292249198E+03  0.12500000000E+03 0.  0.
         25    1    1    2    0    0 -0.70108686751E+02 -0.14551204032E+03 -0.37248576379E+03  0.42480539787E+03  0.12500000000E+03 0.  0.
         25    1    1    2    0    0 -0.75320936282E+02  0.11991994300E+03  0.59207846691E+02  0.19795101738E+03  0.12500000000E+03 0.  0.
</event>
<event>
 5    0  0.5663008E-005  0.2668570E+03  0.7546771E-02  0.1103092E+00
         21   -1    0    0  502  501  0.00000000000E+00  0.00000000000E+00  0.86612958180E+02  0.86612958180E+02  0.00000000000E+00 0.  1.
         21   -1    0    0  501  502 -0.00000000000E+00 -0.00000000000E+00 -0.82219380834E+03  0.82219380834E+03  0.00000000000E+00 0.  1.
         25    1    1    2    0    0 -0.49768271989E+02  0.24206220694E+02 -0.64089154518E+02  0.15098093172E+03  0.12500000000E+03 0.  0.
         25    1    1    2    0    0  0.11205993512E+02 -0.55565100868E+02 -0.97691919023E+02  0.16846888665E+03  0.12500000000E+03 0.  0.
         25    1    1    2    0    0  0.38562278478E+02  0.31358880174E+02 -0.57379977662E+03  0.58935694816E+03  0.12500000000E+03 0.  0.
</event>
<event>
 5    0  0.5663008E-005  0.3025760E+03  0.7546771E-02  0.1083960E+00
         21   -1    0    0  502  501  0.00000000000E+00  0.00000000000E+00  0.75574628748E+02  0.75574628748E+02  0.00000000000E+00 0. -1.
         21   -1    0    0  501  502 -0.00000000000E+00 -0.00000000000E+00 -0.12114152205E+04  0.12114152205E+04  0.00000000000E+00 0. -1.
         25    1    1    2    0    0 -0.46111837486E+02 -0.12041365657E+03 -0.28085453500E+03  0.33336169558E+03  0.12500000000E+03 0.  0.
         25    1    1    2    0    0  0.16536100697E+03  0.26410981897E+02 -0.57227814902E+03  0.60923647497E+03  0.12500000000E+03 0.  0.
         25    1    1    2    0    0 -0.11924916949E+03  0.94002674673E+02 -0.28270790775E+03  0.34439167873E+03  0.12500000000E+03 0.  0.
</event>
<event>
 5    0  0.5663008E-005  0.3944784E+03  0.7546771E-02  0.1045709E+00
         21   -1    0    0  502  501  0.00000000000E+00  0.00000000000E+00  0.21734444183E+04  0.21734444183E+04  0.00000000000E+00 0. -1.
         21   -1    0    0  501  502 -0.00000000000E+00 -0.00000000000E+00 -0.71597509111E+02  0.71597509111E+02  0.00000000000E+00 0. -1.
         25    1    1    2    0    0  0.11339316488E+02  0.30259834540E+02  0.69957985562E+03  0.71139385158E+03  0.12500000000E+03 0.  0.
         25    1    1    2    0    0  0.75391361405E+02 -0.25112158948E+03  0.10585536903E+04  0.10976824792E+04  0.12500000000E+03 0.  0.
         25    1    1    2    0    0 -0.86730677893E+02  0.22086175494E+03  0.34371336332E+03  0.43596559659E+03  0.12500000000E+03 0.  0.
</event>
<event>
 5    0  0.5663008E-005  0.2911819E+03  0.7546771E-02  0.1089734E+00
         21   -1    0    0  502  501  0.00000000000E+00  0.00000000000E+00  0.89700663089E+02  0.89700663089E+02  0.00000000000E+00 0. -1.
         21   -1    0    0  501  502 -0.00000000000E+00 -0.00000000000E+00 -0.94522018904E+03  0.94522018904E+03  0.00000000000E+00 0. -1.
         25    1    1    2    0    0  0.76124372953E+02  0.10386610817E+03 -0.45672277296E+03  0.49071761730E+03  0.12500000000E+03 0.  0.
         25    1    1    2    0    0  0.67764460336E+02 -0.52330673320E+02 -0.26641893433E+03  0.30648747124E+03  0.12500000000E+03 0.  0.
         25    1    1    2    0    0 -0.14388883329E+03 -0.51535434848E+02 -0.13237781866E+03  0.23771576360E+03  0.12500000000E+03 0.  0.
</event>
<event>
 5    0  0.5663008E-005  0.3527739E+03  0.7546771E-02  0.1061482E+00
         21   -1    0    0  502  501  0.00000000000E+00  0.00000000000E+00  0.13576242140E+04  0.13576242140E+04  0.00000000000E+00 0. -1.
         21   -1    0    0  501  502 -0.00000000000E+00 -0.00000000000E+00 -0.91667056441E+02  0.91667056441E+02  0.00000000000E+00 0. -1.
         25    1    1    2    0    0  0.12774898833E+03 -0.13824585047E+03  0.77236363902E+03  0.80473741685E+03  0.12500000000E+03 0.  0.
         25    1    1    2    0    0 -0.56033416018E+02  0.64473880005E+02  0.31123135803E+02  0.15456479061E+03  0.12500000000E+03 0.  0.
         25    1    1    2    0    0 -0.71715572313E+02  0.73771970467E+02  0.46247038275E+03  0.48998906300E+03  0.12500000000E+03 0.  0.
</event>
<event>
 5    0  0.5663008E-005  0.3182170E+03  0.7546771E-02  0.1076473E+00
         21   -1    0    0  502  501  0.00000000000E+00  0.00000000000E+00  0.28480762538E+03  0.28480762538E+03  0.00000000000E+00 0. -1.
         21   -1    0    0  501  502 -0.00000000000E+00 -0.00000000000E+00 -0.35554552329E+03  0.35554552329E+03  0.00000000000E+00 0. -1.
         25    1    1    2    0    0 -0.19184312395E+01  0.56674988785E+02 -0.21985337358E+03  0.25918379696E+03  0.12500000000E+03 0.  0.
         25    1    1    2    0    0  0.28498428089E+02 -0.13533482404E+03  0.28384651862E+02  0.18856925376E+03  0.12500000000E+03 0.  0.
         25    1    1    2    0    0 -0.26579996850E+02  0.78659835251E+02  0.12073082380E+03  0.19260009795E+03  0.12500000000E+03 0.  0.
</event>
<event>
 5    0  0.5663008E-005  0.3739023E+03  0.7546771E-02  0.1053211E+00
         21   -1    0    0  502  501  0.00000000000E+00  0.00000000000E+00  0.70119141070E+02  0.70119141070E+02  0.00000000000E+00 0.  1.
         21   -1    0    0  501  502 -0.00000000000E+00 -0.00000000000E+00 -0.19937907320E+04  0.19937907320E+04  0.00000000000E+00 0.  1.
         25    1    1    2    0    0  0.26463041933E+03  0.94282902738E+02 -0.53276412500E+03  0.61512692793E+03  0.12500000000E+03 0.  0.
         25    1    1    2    0    0 -0.16759835498E+03 -0.26407899856E+02 -0.99469536535E+03  0.10167745353E+04  0.12500000000E+03 0.  0.
         25    1    1    2    0    0 -0.97032064349E+02 -0.67875002882E+02 -0.39621210053E+03  0.43200840980E+03  0.12500000000E+03 0.  0.
</event>
<event>
 5    0  0.5663008E-005  0.3753723E+03  0.7546771E-02  0.1052658E+00
         21   -1    0    0  502  501  0.00000000000E+00  0.00000000000E+00  0.25451069175E+03  0.25451069175E+03  0.00000000000E+00 0.  1.
         21   -1    0    0  501  502 -0.00000000000E+00 -0.00000000000E+00 -0.55362857740E+03  0.55362857740E+03  0.00000000000E+00 0.  1.
         25    1    1    2    0    0 -0.21346036169E+03 -0.85178509433E+02 -0.28706145709E+03  0.38839410993E+03  0.12500000000E+03 0.  0.
         25    1    1    2    0    0  0.50423585487E+01  0.97421124325E+02  0.54168200339E+02  0.16755743723E+03  0.12500000000E+03 0.  0.
         25    1    1    2    0    0  0.20841800314E+03 -0.12242614892E+02 -0.66224628904E+02  0.25218772199E+03  0.12500000000E+03 0.  0.
</event>
<event>
 5    0  0.5663008E-005  0.2548441E+03  0.7546771E-02  0.1110281E+00
         21   -1    0    0  502  501  0.00000000000E+00  0.00000000000E+00  0.11955445528E+03  0.11955445528E+03  0.00000000000E+00 0.  1.
         21   -1    0    0  501  502 -0.00000000000E+00 -0.00000000000E+00 -0.54322951774E+03  0.54322951774E+03  0.00000000000E+00 0.  1.
         25    1    1    2    0    0  0.67657807056E+01 -0.21101998693E+02 -0.25744903370E+02  0.12953327830E+03  0.12500000000E+03 0.  0.
         25    1    1    2    0    0 -0.12061195144E+03 -0.17247087587E+02 -0.25249789692E+03  0.30696073496E+03  0.12500000000E+03 0.  0.
         25    1    1    2    0    0  0.11384617074E+03  0.38349086280E+02 -0.14543226216E+03  0.22628995976E+03  0.12500000000E+03 0.  0.
</event>
<event>
 5    0  0.5663008E-005  0.3589488E+03  0.7546771E-02  0.1059001E+00
         21   -1    0    0  502  501  0.00000000000E+00  0.00000000000E+00  0.18082721933E+04  0.18082721933E+04  0.00000000000E+00 0. -1.
         21   -1    0    0  501  502 -0.00000000000E+00 -0.00000000000E+00 -0.71252673230E+02  0.71252673230E+02  0.00000000000E+00 0. -1.
         25    1    1    2    0    0  0.17111489418E+03 -0.18508933535E+03  0.43649929403E+03  0.51932167562E+03  0.12500000000E+03 0.  0.
         25    1    1    2    0    0 -0.10249256777E+03  0.52198237572E+02  0.33961328322E+03  0.37972564385E+03  0.12500000000E+03 0.  0.
         25    1    1    2    0    0 -0.68622326413E+02  0.13289109778E+03  0.96090694283E+03  0.98047754708E+03  0.12500000000E+03 0.  0.
</event>
<event>
 5    0  0.5663008E-005  0.2555839E+03  0.7546771E-02  0.1109826E+00
         21   -1    0    0  502  501  0.00000000000E+00  0.00000000000E+00  0.53316333611E+03  0.53316333611E+03  0.00000000000E+00 0.  1.
         21   -1    0    0  501  502 -0.00000000000E+00 -0.00000000000E+00 -0.12251992971E+03  0.12251992971E+03  0.00000000000E+00 0.  1.
         25    1    1    2    0    0 -0.32183139523E+02 -0.53662894191E+02 -0.23891751013E+02  0.14181423218E+03  0.12500000000E+03 0.  0.
         25    1    1    2    0    0  0.59902231774E+02  0.19545810229E+02  0.25263235207E+03  0.28882247382E+03  0.12500000000E+03 0.  0.
         25    1    1    2    0    0 -0.27719092252E+02  0.34117083962E+02  0.18190280535E+03  0.22504655982E+03  0.12500000000E+03 0.  0.
</event>
<event>
 5    0  0.5663008E-005  0.3766820E+03  0.7546771E-02  0.1052167E+00
         21   -1    0    0  502  501  0.00000000000E+00  0.00000000000E+00  0.14734544185E+03  0.14734544185E+03  0.00000000000E+00 0.  1.
         21   -1    0    0  501  502 -0.00000000000E+00 -0.00000000000E+00 -0.96297068695E+03  0.96297068695E+03  0.00000000000E+00 0.  1.
         25    1    1    2    0    0  0.70909223409E+02  0.10044930073E+03 -0.27351617877E+03  0.32489118183E+03  0.12500000000E+03 0.  0.
         25    1    1    2    0    0 -0.16779185372E+03 -0.26346426603E+03 -0.27290051734E+03  0.43320574560E+03  0.12500000000E+03 0.  0.
         25    1    1    2    0    0  0.96882630316E+02  0.16301496531E+03 -0.26920854898E+03  0.35221920137E+03  0.12500000000E+03 0.  0.
</event>
<event>
 5    0  0.5663008E-005  0.4959500E+03  0.7546771E-02  0.1014841E+00
         21   -1    0    0  502  501  0.00000000000E+00  0.00000000000E+00  0.97694977944E+03  0.97694977944E+03  0.00000000000E+00 0. -1.
         21   -1    0    0  501  502 -0.00000000000E+00 -0.00000000000E+00 -0.25176975294E+03  0.25176975294E+03  0.00000000000E+00 0. -1.
         25    1    1    2    0    0  0.33397229542E+03 -0.10604257650E+03  0.67100992548E+03  0.76724301381E+03  0.12500000000E+03 0.  0.
         25    1    1    2    0    0 -0.24952615881E+03  0.35257553052E+02 -0.13500083078E+02  0.28162679422E+03  0.12500000000E+03 0.  0.
         25    1    1    2    0    0 -0.84446136610E+02  0.70785023451E+02  0.67670184097E+02  0.17984972435E+03  0.12500000000E+03 0.  0.
</event>
<event>
 5    0  0.5663008E-005  0.2764902E+03  0.7546771E-02  0.1097621E+00
         21   -1    0    0  502  501  0.00000000000E+00  0.00000000000E+00  0.71029329024E+02  0.71029329024E+02  0.00000000000E+00 0.  1.
         21   -1    0    0  501  502 -0.00000000000E+00 -0.00000000000E+00 -0.10762716059E+04  0.10762716059E+04  0.00000000000E+00 0.  1.
         25    1    1    2    0    0  0.13721473763E+03 -0.58530380692E+02 -0.31005153253E+03  0.36607464062E+03  0.12500000000E+03 0.  0.
         25    1    1    2    0    0  0.31153960819E+01  0.15310280328E+02 -0.46078536616E+03  0.47769473939E+03  0.12500000000E+03 0.  0.
         25    1    1    2    0    0 -0.14033013371E+03  0.43220100364E+02 -0.23440537820E+03  0.30353155492E+03  0.12500000000E+03 0.  0.
</event>
<event>
 5    0  0.5663008E-005  0.3126969E+03  0.7546771E-02  0.1079060E+00
         21   -1    0    0  502  501  0.00000000000E+00  0.00000000000E+00  0.17780064993E+04  0.17780064993E+04  0.00000000000E+00 0.  1.
         21   -1    0    0  501  502 -0.00000000000E+00 -0.00000000000E+00 -0.54993824002E+02  0.54993824002E+02  0.00000000000E+00 0.  1.
         25    1    1    2    0    0 -0.89940703717E+02 -0.17892360695E+03  0.10033989019E+04  0.10307945206E+04  0.12500000000E+03 0.  0.
         25    1    1    2    0    0  0.11105468278E+02  0.60889724446E+02  0.46213359081E+03  0.48272491724E+03  0.12500000000E+03 0.  0.
         25    1    1    2    0    0  0.78835235439E+02  0.11803388250E+03  0.25748018256E+03  0.31948088547E+03  0.12500000000E+03 0.  0.
</event>
<event>
 5    0  0.5663008E-005  0.2906781E+03  0.7546771E-02  0.1089996E+00
         21   -1    0    0  502  501  0.00000000000E+00  0.00000000000E+00  0.20527653074E+03  0.20527653074E+03  0.00000000000E+00 0.  1.
         21   -1    0    0  501  502 -0.00000000000E+00 -0.00000000000E+00 -0.41160950032E+03  0.41160950032E+03  0.00000000000E+00 0.  1.
         25    1    1    2    0    0 -0.62454427523E+02 -0.13489669480E+03 -0.17884857108E+03  0.26402553884E+03  0.12500000000E+03 0.  0.
         25    1    1    2    0    0  0.68911077308E+02  0.31632227556E+02 -0.97924821555E+02  0.17596478361E+03  0.12500000000E+03 0.  0.
         25    1    1    2    0    0 -0.64566497851E+01  0.10326446724E+03  0.70440423058E+02  0.17689570860E+03  0.12500000000E+03 0.  0.
</event>
<event>
 5    0  0.5663008E-005  0.2449703E+03  0.7546771E-02  0.1116525E+00
         21   -1    0    0  502  501  0.00000000000E+00  0.00000000000E+00  0.20773145007E+04  0.20773145007E+04  0.00000000000E+00 0. -1.
         21   -1    0    0  501  502 -0.00000000000E+00 -0.00000000000E+00 -0.28888467672E+02  0.28888467672E+02  0.00000000000E+00 0. -1.
         25    1    1    2    0    0  0.12102583317E+03 -0.49460997288E+02  0.78841142959E+03  0.80889506418E+03  0.12500000000E+03 0.  0.
         25    1    1    2    0    0 -0.14050272227E+02  0.37017221939E+02  0.38071375218E+03  0.40266070825E+03  0.12500000000E+03 0.  0.
         25    1    1    2    0    0 -0.10697556095E+03  0.12443775349E+02  0.87930085130E+03  0.89464719599E+03  0.12500000000E+03 0.  0.
</event>
<event>
 5    0  0.5663008E-005  0.1976176E+03  0.7546771E-02  0.1151765E+00
         21   -1    0    0  502  501  0.00000000000E+00  0.00000000000E+00  0.24747719937E+04  0.24747719937E+04  0.00000000000E+00 0.  1.
         21   -1    0    0  501  502 -0.00000000000E+00 -0.00000000000E+00 -0.15780328743E+02  0.15780328743E+02  0.00000000000E+00 0.  1.
         25    1    1    2    0    0 -0.74282775730E+01 -0.41517696988E+02  0.74276814628E+03  0.75439274758E+03  0.12500000000E+03 0.  0.
         25    1    1    2    0    0  0.78966631930E+01  0.30012775563E+02  0.10815108448E+04  0.10891528045E+04  0.12500000000E+03 0.  0.
         25    1    1    2    0    0 -0.46838562000E+00  0.11504921425E+02  0.63471267387E+03  0.64700677043E+03  0.12500000000E+03 0.  0.
</event>
<event>
 5    0  0.5663008E-005  0.4156272E+03  0.7546771E-02  0.1038499E+00
         21   -1    0    0  502  501  0.00000000000E+00  0.00000000000E+00  0.18173382446E+04  0.18173382446E+04  0.00000000000E+00 0. -1.
         21   -1    0    0  501  502 -0.00000000000E+00 -0.00000000000E+00 -0.95054394516E+02  0.95054394516E+02  0.00000000000E+00 0. -1.
         25    1    1    2    0    0  0.10746139932E+03  0.13018323289E+03  0.59989304415E+02  0.21844757521E+03  0.12500000000E+03 0.  0.
         25    1    1    2    0    0  0.69495768094E+01 -0.59766955918E+02  0.59231199288E+03  0.60834109063E+03  0.12500000000E+03 0.  0.
         25    1    1    2    0    0 -0.11441097613E+03 -0.70416276976E+02  0.10699825528E+04  0.10856039733E+04  0.12500000000E+03 0.  0.
</event>
<event>
 5    0  0.5663008E-005  0.2340233E+03  0.7546771E-02  0.1123840E+00
         21   -1    0    0  502  501  0.00000000000E+00  0.00000000000E+00  0.24686282768E+02  0.24686282768E+02  0.00000000000E+00 0. -1.
         21   -1    0    0  501  502 -0.00000000000E+00 -0.00000000000E+00 -0.22185151191E+04  0.22185151191E+04  0.00000000000E+00 0. -1.
         25    1    1    2    0    0  0.48938437574E+02  0.11414570528E+03 -0.89969944135E+03  0.91679239606E+03  0.12500000000E+03 0.  0.
         25    1    1    2    0    0 -0.56124627042E+02 -0.73195603316E+02 -0.80492224224E+03  0.81977581458E+03  0.12500000000E+03 0.  0.
         25    1    1    2    0    0  0.71861894684E+01 -0.40950101960E+02 -0.48920715278E+03  0.50663319127E+03  0.12500000000E+03 0.  0.
</event>
<event>
 5    0  0.5663008E-005  0.4258786E+03  0.7546771E-02  0.1035170E+00
         21   -1    0    0  502  501  0.00000000000E+00  0.00000000000E+00  0.13624913635E+04  0.13624913635E+04  0.00000000000E+00 0. -1.
         21   -1    0    0  501  502 -0.00000000000E+00 -0.00000000000E+00 -0.13311834393E+03  0.13311834393E+03  0.00000000000E+00 0. -1.
         25    1    1    2    0    0  0.23056109697E+03  0.48789699297E+02  0.19550220945E+03  0.33073398388E+03  0.12500000000E+03 0.  0.
         25    1    1    2    0    0 -0.33379411306E+03  0.15453486783E+02  0.61220762053E+03  0.70857638318E+03  0.12500000000E+03 0.  0.
         25    1    1    2    0    0  0.10323301609E+03 -0.64243186079E+02  0.42166318963E+03  0.45629934041E+03  0.12500000000E+03 0.  0.
</event>
<event>
 5    0  0.5663008E-005  0.2824286E+03  0.7546771E-02  0.1094370E+00
         21   -1    0    0  502  501  0.00000000000E+00  0.00000000000E+00  0.83664363664E+03  0.83664363664E+03  0.00000000000E+00 0.  1.
         21   -1    0    0  501  502 -0.00000000000E+00 -0.00000000000E+00 -0.95340402755E+02  0.95340402755E+02  0.00000000000E+00 0.  1.
         25    1    1    2    0    0 -0.20696824355E+02  0.92572126480E+02  0.70618459922E+02  0.17207534402E+03  0.12500000000E+03 0.  0.
         25    1    1    2    0    0  0.34274904563E+02 -0.30078406438E+02  0.57451555621E+03  0.58972248045E+03  0.12500000000E+03 0.  0.
         25    1    1    2    0    0 -0.13578080208E+02 -0.62493720042E+02  0.96169217750E+02  0.17018621492E+03  0.12500000000E+03 0.  0.
</event>
<event>
 5    0  0.5663008E-005  0.3589537E+03  0.7546771E-02  0.1058999E+00
         21   -1    0    0  502  501  0.00000000000E+00  0.00000000000E+00  0.55506873535E+03  0.55506873535E+03  0.00000000000E+00 0.  1.
         21   -1    0    0  501  502 -0.00000000000E+00 -0.00000000000E+00 -0.23212936988E+03  0.23212936988E+03  0.00000000000E+00 0.  1.
         25    1    1    2    0    0  0.16244250735E+01  0.22607670968E+03  0.33116751088E+03  0.42001218753E+03  0.12500000000E+03 0.  0.
         25    1    1    2    0    0  0.22612930965E+02 -0.13145475434E+03 -0.71647380359E+02  0.19634165172E+03  0.12500000000E+03 0.  0.
         25    1    1    2    0    0 -0.24237356038E+02 -0.94621955334E+02  0.63419234953E+02  0.17084426599E+03  0.12500000000E+03 0.  0.
</event>
<event>
 5    0  0.5663008E-005  0.4286176E+03  0.7546771E-02  0.1034298E+00
         21   -1    0    0  502  501  0.00000000000E+00  0.00000000000E+00  0.36226793628E+03  0.36226793628E+03  0.00000000000E+00 0.  1.
         21   -1    0    0  501  502 -0.00000000000E+00 -0.00000000000E+00 -0.50711927358E+03  0.50711927358E+03  0.00000000000E+00 0.  1.
         25    1    1    2    0    0 -0.89615359212E+02 -0.63456080209E+02 -0.11614182113E+03  0.20290763746E+03  0.12500000000E+03 0.  0.
         25    1    1    2    0    0  0.21410039487E+02 -0.24125020192E+03 -0.14734593509E+03  0.30983200982E+03  0.12500000000E+03 0.  0.
         25    1    1    2    0    0  0.68205319726E+02  0.30470628213E+03  0.11863641892E+03  0.35664756259E+03  0.12500000000E+03 0.  0.
</event>
<event>
 5    0  0.5663008E-005  0.2883402E+03  0.7546771E-02  0.1091219E+00
         21   -1    0    0  502  501  0.00000000000E+00  0.00000000000E+00  0.94451351336E+03  0.94451351336E+03  0.00000000000E+00 0.  1.
         21   -1    0    0  501  502 -0.00000000000E+00 -0.00000000000E+00 -0.88024249962E+02  0.88024249962E+02  0.00000000000E+00 0.  1.
         25    1    1    2    0    0  0.31766451390E+02 -0.17762661974E+03  0.38959634839E+03  0.44718076675E+03  0.12500000000E+03 0.  0.
         25    1    1    2    0    0 -0.88257652931E+02  0.40707144196E+02  0.23096260106E+03  0.28002715579E+03  0.12500000000E+03 0.  0.
         25    1    1    2    0    0  0.56491201541E+02  0.13691947554E+03  0.23593031395E+03  0.30532984079E+03  0.12500000000E+03 0.  0.
</event>
<event>
 5    0  0.5663008E-005  0.3359164E+03  0.7546771E-02  0.1068549E+00
         21   -1    0    0  502  501  0.00000000000E+00  0.00000000000E+00  0.92637928564E+03  0.92637928564E+03  0.00000000000E+00 0. -1.
         21   -1    0    0  501  502 -0.00000000000E+00 -0.00000000000E+00 -0.12180736207E+03  0.12180736207E+03  0.00000000000E+00 0. -1.
         25    1    1    2    0    0  0.25143595927E+02  0.11801159255E+03  0.17846298829E+02  0.17464943966E+03  0.12500000000E+03 0.  0.
         25    1    1    2    0    0  0.35976194329E+02 -0.37174544031E+02  0.64522047504E+03  0.65925010026E+03  0.12500000000E+03 0.  0.
         25    1    1    2    0    0 -0.61119790256E+02 -0.80837048521E+02  0.14150514969E+03  0.21428710779E+03  0.12500000000E+03 0.  0.
</event>
<event>
 5    0  0.5663008E-005  0.4558046E+03  0.7546771E-02  0.1026005E+00
         21   -1    0    0  502  501  0.00000000000E+00  0.00000000000E+00  0.31647080383E+04  0.31647080383E+04  0.00000000000E+00 0.  1.
         21   -1    0    0  501  502 -0.00000000000E+00 -0.00000000000E+00 -0.65648342850E+02  0.65648342850E+02  0.00000000000E+00 0.  1.
         25    1    1    2    0    0  0.21026417214E+03 -0.17241146270E+03  0.38696943088E+03  0.48919022373E+03  0.12500000000E+03 0.  0.
         25    1    1    2    0    0 -0.17510925491E+03  0.89314431644E+02  0.13021289374E+04  0.13228019839E+04  0.12500000000E+03 0.  0.
         25    1    1    2    0    0 -0.35154917224E+02  0.83097031053E+02  0.14099613272E+04  0.14183641736E+04  0.12500000000E+03 0.  0.
</event>
<event>
 5    0  0.5663008E-005  0.2405067E+03  0.7546771E-02  0.1119456E+00
         21   -1    0    0  502  501  0.00000000000E+00  0.00000000000E+00  0.32508355525E+03  0.32508355525E+03  0.00000000000E+00 0.  1.
         21   -1    0    0  501  502 -0.00000000000E+00 -0.00000000000E+00 -0.17793422209E+03  0.17793422209E+03  0.00000000000E+00 0.  1.
         25    1    1    2    0    0 -0.68410444307E+02 -0.70079828458E+01  0.16862127206E+03  0.22087832421E+03  0.12500000000E+03 0.  0.
         25    1    1    2    0    0  0.95521074382E+00  0.37207988839E+02 -0.38355780335E+02  0.13594672760E+03  0.12500000000E+03 0.  0.
         25    1    1    2    0    0  0.67455233563E+02 -0.30200005993E+02  0.16883841443E+02  0.14619272553E+03  0.12500000000E+03 0.  0.
</event>
<event>
 5    0  0.5663008E-005  0.3507004E+03  0.7546771E-02  0.1062328E+00
         21   -1    0    0  502  501  0.00000000000E+00  0.00000000000E+00  0.39739911608E+03  0.39739911608E+03  0.00000000000E+00 0.  1.
         21   -1    0    0  501  502 -0.00000000000E+00 -0.00000000000E+00 -0.30948936394E+03  0.30948936394E+03  0.00000000000E+00 0.  1.
         25    1    1    2    0    0 -0.85629362040E+02 -0.15711573016E+02  0.58779580882E+02  0.16327669858E+03  0.12500000000E+03 0.  0.
         25    1    1    2    0    0 -0.98176793281E+02 -0.12946195388E+03  0.14788428757E+03  0.25277231405E+03  0.12500000000E+03 0.  0.
         25    1    1    2    0    0  0.18380615532E+03  0.14517352690E+03 -0.11875411632E+03  0.29083946738E+03  0.12500000000E+03 0.  0.
</event>
<event>
 5    0  0.5663008E-005  0.2592332E+03  0.7546771E-02  0.1107605E+00
         21   -1    0    0  502  501  0.00000000000E+00  0.00000000000E+00  0.48218793473E+03  0.48218793473E+03  0.00000000000E+00 0.  1.
         21   -1    0    0  501  502 -0.00000000000E+00 -0.00000000000E+00 -0.13936857699E+03  0.13936857699E+03  0.00000000000E+00 0.  1.
         25    1    1    2    0    0  0.58532421878E+02  0.17743921713E+01  0.32715487679E+03  0.35508380178E+03  0.12500000000E+03 0.  0.
         25    1    1    2    0    0  0.49418909424E+01  0.23933035383E+01  0.16585907323E+02  0.12621506451E+03  0.12500000000E+03 0.  0.
         25    1    1    2    0    0 -0.63474312820E+02 -0.41676957096E+01 -0.92142637950E+00  0.14025764543E+03  0.12500000000E+03 0.  0.
</event>
<event>
 5    0  0.5663008E-005  0.3419575E+03  0.7546771E-02  0.1065965E+00
         21   -1    0    0  502  501  0.00000000000E+00  0.00000000000E+00  0.15126681180E+03  0.15126681180E+03  0.00000000000E+00 0. -1.
         21   -1    0    0  501  502 -0.00000000000E+00 -0.00000000000E+00 -0.77303740395E+03  0.77303740395E+03  0.00000000000E+00 0. -1.
         25    1    1    2    0    0  0.74390359520E+01 -0.10986688676E+03 -0.32830959015E+03  0.36815521054E+03  0.12500000000E+03 0.  0.
         25    1    1    2    0    0 -0.57529998930E+02  0.12652965751E+02  0.71198715691E+02  0.15544791872E+03  0.12500000000E+03 0.  0.
         25    1    1    2    0    0  0.50090962978E+02  0.97213921014E+02 -0.36465971768E+03  0.40070108649E+03  0.12500000000E+03 0.  0.
</event>
<event>
 5    0  0.6512216E-005  0.3166930E+03  0.7546771E-02  0.1077181E+00
         21   -1    0    0  502  501  0.00000000000E+00  0.00000000000E+00  0.24172646119E+03  0.24172646119E+03  0.00000000000E+00 0.  1.
         21   -1    0    0  501  502 -0.00000000000E+00 -0.00000000000E+00 -0.41490897848E+03  0.41490897848E+03  0.00000000000E+00 0.  1.
         25    1    1    2    0    0  0.32645290377E+02 -0.98517075972E+01 -0.17824297963E+03  0.22035954918E+03  0.12500000000E+03 0.  0.
         25    1    1    2    0    0  0.96100635082E+02 -0.13100150044E+03  0.28450213929E+02  0.20695685505E+03  0.12500000000E+03 0.  0.
         25    1    1    2    0    0 -0.12874592546E+03  0.14085320804E+03 -0.23389751595E+02  0.22931903544E+03  0.12500000000E+03 0.  0.
</event>
<event>
 5    0  0.5663008E-005  0.3634181E+03  0.7546771E-02  0.1057239E+00
         21   -1    0    0  502  501  0.00000000000E+00  0.00000000000E+00  0.11448647915E+03  0.11448647915E+03  0.00000000000E+00 0.  1.
         21   -1    0    0  501  502 -0.00000000000E+00 -0.00000000000E+00 -0.11536098834E+04  0.11536098834E+04  0.00000000000E+00 0.  1.
         25    1    1    2    0    0 -0.10010533840E+03 -0.58984655208E+02 -0.11012087307E+03  0.20310557602E+03  0.12500000000E+03 0.  0.
         25    1    1    2    0    0 -0.11010190989E+03  0.83205521567E+02 -0.71585407950E+03  0.73967401774E+03  0.12500000000E+03 0.  0.
         25    1    1    2    0    0  0.21020724829E+03 -0.24220866359E+02 -0.21314845167E+03  0.32531676878E+03  0.12500000000E+03 0.  0.
</event>
<event>
 5    0  0.5663008E-005  0.5553981E+03  0.7546771E-02  0.1000252E+00
         21   -1    0    0  502  501  0.00000000000E+00  0.00000000000E+00  0.36917880749E+03  0.36917880749E+03  0.00000000000E+00 0. -1.
         21   -1    0    0  501  502 -0.00000000000E+00 -0.00000000000E+00 -0.83554928870E+03  0.83554928870E+03  0.00000000000E+00 0. -1.
         25    1    1    2    0    0  0.11293837768E+03 -0.22296826896E+02 -0.12164011522E+02  0.17036780452E+03  0.12500000000E+03 0.  0.
         25    1    1    2    0    0 -0.33757580009E+03  0.27271115790E+03 -0.49862671513E+03  0.67274244514E+03  0.12500000000E+03 0.  0.
         25    1    1    2    0    0  0.22463742241E+03 -0.25041433101E+03  0.44420245445E+02  0.36161784653E+03  0.12500000000E+03 0.  0.
</event>
<event>
 5    0  0.5663008E-005  0.2503501E+03  0.7546771E-02  0.1113084E+00
         21   -1    0    0  502  501  0.00000000000E+00  0.00000000000E+00  0.81194938074E+02  0.81194938074E+02  0.00000000000E+00 0.  1.
         21   -1    0    0  501  502 -0.00000000000E+00 -0.00000000000E+00 -0.77190982313E+03  0.77190982313E+03  0.00000000000E+00 0.  1.
         25    1    1    2    0    0  0.80954564889E+02  0.88591338543E+01 -0.29463480576E+03  0.33025262239E+03  0.12500000000E+03 0.  0.
         25    1    1    2    0    0 -0.63729942727E+02  0.46170315324E+02 -0.34627047825E+03  0.37645909170E+03  0.12500000000E+03 0.  0.
         25    1    1    2    0    0 -0.17224622162E+02 -0.55029449178E+02 -0.49809601037E+02  0.14639304711E+03  0.12500000000E+03 0.  0.
</event>
<event>
 5    0  0.5663008E-005  0.6162465E+03  0.7546771E-02  0.9872261E-01
         21   -1    0    0  502  501  0.00000000000E+00  0.00000000000E+00  0.56444541953E+03  0.56444541953E+03  0.00000000000E+00 0.  1.
         21   -1    0    0  501  502 -0.00000000000E+00 -0.00000000000E+00 -0.67280159497E+03  0.67280159497E+03  0.00000000000E+00 0.  1.
         25    1    1    2    0    0 -0.28664545310E+02 -0.55851166515E+03  0.67038353038E+02  0.57695413773E+03  0.12500000000E+03 0.  0.
         25    1    1    2    0    0  0.67116611222E+02  0.15407846746E+03 -0.33074410889E+02  0.21204652860E+03  0.12500000000E+03 0.  0.
         25    1    1    2    0    0 -0.38452065912E+02  0.40443319769E+03 -0.14232011759E+03  0.44824634816E+03  0.12500000000E+03 0.  0.
</event>
<event>
 5    0  0.5663008E-005  0.2952160E+03  0.7546771E-02  0.1087657E+00
         21   -1    0    0  502  501  0.00000000000E+00  0.00000000000E+00  0.27337104968E+03  0.27337104968E+03  0.00000000000E+00 0. -1.
         21   -1    0    0  501  502 -0.00000000000E+00 -0.00000000000E+00 -0.31880665583E+03  0.31880665583E+03  0.00000000000E+00 0. -1.
         25    1    1    2    0    0 -0.38498482388E+01  0.75666803615E+02 -0.10878198731E+03  0.18220539856E+03  0.12500000000E+03 0.  0.
         25    1    1    2    0    0 -0.15162532527E+03 -0.17812679762E+02  0.33027754816E+02  0.20005840001E+03  0.12500000000E+03 0.  0.
         25    1    1    2    0    0  0.15547517351E+03 -0.57854123853E+02  0.30318626345E+02  0.20991390694E+03  0.12500000000E+03 0.  0.
</event>
<event>
 5    0  0.5663008E-005  0.3603780E+03  0.7546771E-02  0.1058434E+00
         21   -1    0    0  502  501  0.00000000000E+00  0.00000000000E+00  0.47087996835E+03  0.47087996835E+03  0.00000000000E+00 0. -1.
         21   -1    0    0  501  502 -0.00000000000E+00 -0.00000000000E+00 -0.27580768798E+03  0.27580768798E+03  0.00000000000E+00 0. -1.
         25    1    1    2    0    0  0.15245412873E+03 -0.89471661019E+02  0.16136642080E+03  0.27002140888E+03  0.12500000000E+03 0.  0.
         25    1    1    2    0    0 -0.17206377471E+03  0.12274382541E+03 -0.12125619866E+03  0.27386137909E+03  0.12500000000E+03 0.  0.
         25    1    1    2    0    0  0.19609645982E+02 -0.33272164387E+02  0.15496205824E+03  0.20280486836E+03  0.12500000000E+03 0.  0.
</event>
<event>
 5    0  0.5663008E-005  0.2836247E+03  0.7546771E-02  0.1093726E+00
         21   -1    0    0  502  501  0.00000000000E+00  0.00000000000E+00  0.82204932321E+02  0.82204932321E+02  0.00000000000E+00 0. -1.
         21   -1    0    0  501  502 -0.00000000000E+00 -0.00000000000E+00 -0.97856596908E+03  0.97856596908E+03  0.00000000000E+00 0. -1.
         25    1    1    2    0    0 -0.36727641197E+02  0.22435546332E+02 -0.53820487431E+03  0.55420371714E+03  0.12500000000E+03 0.  0.
         25    1    1    2    0    0  0.17204697217E+02  0.10713904916E+03 -0.23545666984E+03  0.28781872912E+03  0.12500000000E+03 0.  0.
         25    1    1    2    0    0  0.19522943981E+02 -0.12957459549E+03 -0.12269949262E+03  0.21874845514E+03  0.12500000000E+03 0.  0.
</event>
<event>
 5    0  0.5663008E-005  0.2898785E+03  0.7546771E-02  0.1090413E+00
         21   -1    0    0  502  501  0.00000000000E+00  0.00000000000E+00  0.43150562670E+03  0.43150562670E+03  0.00000000000E+00 0.  1.
         21   -1    0    0  501  502 -0.00000000000E+00 -0.00000000000E+00 -0.19473565720E+03  0.19473565720E+03  0.00000000000E+00 0.  1.
         25    1    1    2    0    0  0.44033276256E+02 -0.10146980092E+03  0.31113728331E+02  0.16978843897E+03  0.12500000000E+03 0.  0.
         25    1    1    2    0    0 -0.11495947563E+03 -0.70015608835E+02  0.88867876940E+02  0.20405971202E+03  0.12500000000E+03 0.  0.
         25    1    1    2    0    0  0.70926199374E+02  0.17148540976E+03  0.11678836423E+03  0.25239313291E+03  0.12500000000E+03 0.  0.
</event>
<event>
 5    0  0.5766228E-005  0.3391472E+03  0.7546771E-02  0.1067160E+00
         21   -1    0    0  502  501  0.00000000000E+00  0.00000000000E+00  0.62756507045E+03  0.62756507045E+03  0.00000000000E+00 0. -1.
         21   -1    0    0  501  502 -0.00000000000E+00 -0.00000000000E+00 -0.18328114226E+03  0.18328114226E+03  0.00000000000E+00 0. -1.
         25    1    1    2    0    0 -0.11527405503E+03 -0.14479960182E+02 -0.17966862282E+02  0.17159715950E+03  0.12500000000E+03 0.  0.
         25    1    1    2    0    0  0.32617533085E+02  0.68283035869E+02  0.45716050001E+03  0.47994499604E+03  0.12500000000E+03 0.  0.
         25    1    1    2    0    0  0.82656521942E+02 -0.53803075687E+02  0.50902904690E+01  0.15930405717E+03  0.12500000000E+03 0.  0.
</event>
<event>
 5    0  0.6140921E-005  0.3255117E+03  0.7546771E-02  0.1073140E+00
         21   -1    0    0  502  501  0.00000000000E+00  0.00000000000E+00  0.15619878058E+03  0.15619878058E+03  0.00000000000E+00 0. -1.
         21   -1    0    0  501  502 -0.00000000000E+00 -0.00000000000E+00 -0.67835270597E+03  0.67835270597E+03  0.00000000000E+00 0. -1.
         25    1    1    2    0    0 -0.15241748897E+03  0.99937823177E+02 -0.38125842719E+03  0.44068316027E+03  0.12500000000E+03 0.  0.
         25    1    1    2    0    0  0.91818743056E+02  0.12255252543E+02  0.15693396598E+02  0.15637185005E+03  0.12500000000E+03 0.  0.
         25    1    1    2    0    0  0.60598745915E+02 -0.11219307572E+03 -0.15658889480E+03  0.23749647623E+03  0.12500000000E+03 0.  0.
</event>
<event>
 5    0  0.5663008E-005  0.2447985E+03  0.7546771E-02  0.1116637E+00
         21   -1    0    0  502  501  0.00000000000E+00  0.00000000000E+00  0.26026185004E+03  0.26026185004E+03  0.00000000000E+00 0.  1.
         21   -1    0    0  501  502 -0.00000000000E+00 -0.00000000000E+00 -0.23025389749E+03  0.23025389749E+03  0.00000000000E+00 0.  1.
         25    1    1    2    0    0 -0.46662097376E+02 -0.10293045828E+03  0.45060296020E+00  0.16851478753E+03  0.12500000000E+03 0.  0.
         25    1    1    2    0    0  0.10104777639E+03  0.72812973938E+02 -0.10475093638E+02  0.17676852059E+03  0.12500000000E+03 0.  0.
         25    1    1    2    0    0 -0.54385679010E+02  0.30117484338E+02  0.40032443227E+02  0.14523243940E+03  0.12500000000E+03 0.  0.
</event>
<event>
 5    0  0.5663008E-005  0.2801896E+03  0.7546771E-02  0.1095585E+00
         21   -1    0    0  502  501  0.00000000000E+00  0.00000000000E+00  0.13461407869E+03  0.13461407869E+03  0.00000000000E+00 0. -1.
         21   -1    0    0  501  502 -0.00000000000E+00 -0.00000000000E+00 -0.58319464692E+03  0.58319464692E+03  0.00000000000E+00 0. -1.
         25    1    1    2    0    0  0.53487739773E+02  0.94158460802E+02 -0.21901341884E+03  0.27444240139E+03  0.12500000000E+03 0.  0.
         25    1    1    2    0    0 -0.12195101390E+02 -0.11832943299E+02 -0.25644287432E+03  0.28579133443E+03  0.12500000000E+03 0.  0.
         25    1    1    2    0    0 -0.41292638382E+02 -0.82325517503E+02  0.26875724942E+02  0.15757498979E+03  0.12500000000E+03 0.  0.
</event>
<event>
 5    0  0.5663008E-005  0.3150748E+03  0.7546771E-02  0.1077939E+00
         21   -1    0    0  502  501  0.00000000000E+00  0.00000000000E+00  0.80103342167E+02  0.80103342167E+02  0.00000000000E+00 0. -1.
         21   -1    0    0  501  502 -0.00000000000E+00 -0.00000000000E+00 -0.12393009297E+04  0.12393009297E+04  0.00000000000E+00 0. -1.
         25    1    1    2    0    0  0.13962191022E+03  0.57128739326E+02 -0.12346175403E+03  0.23157239771E+03  0.12500000000E+03 0.  0.
         25    1    1    2    0    0 -0.86095236955E+02  0.12447152905E+01 -0.75887640240E+03  0.77390718647E+03  0.12500000000E+03 0.  0.
         25    1    1    2    0    0 -0.53526673266E+02 -0.58373454616E+02 -0.27685943109E+03  0.31392468769E+03  0.12500000000E+03 0.  0.
</event>
<event>
 5    0  0.5663008E-005  0.2323141E+03  0.7546771E-02  0.1125021E+00
         21   -1    0    0  502  501  0.00000000000E+00  0.00000000000E+00  0.62115753994E+03  0.62115753994E+03  0.00000000000E+00 0.  1.
         21   -1    0    0  501  502 -0.00000000000E+00 -0.00000000000E+00 -0.86885951662E+02  0.86885951662E+02  0.00000000000E+00 0.  1.
         25    1    1    2    0    0  0.89847578645E+02 -0.54557229671E+02  0.11384989747E+03  0.19908761351E+03  0.12500000000E+03 0.  0.
         25    1    1    2    0    0 -0.54913182265E+02  0.86205362292E+01  0.28351023485E+03  0.31479012770E+03  0.12500000000E+03 0.  0.
         25    1    1    2    0    0 -0.34934396380E+02  0.45936693442E+02  0.13691145595E+03  0.19416575039E+03  0.12500000000E+03 0.  0.
</event>
<event>
 5    0  0.6723157E-005  0.2964387E+03  0.7546771E-02  0.1087035E+00
         21   -1    0    0  502  501  0.00000000000E+00  0.00000000000E+00  0.28900483721E+03  0.28900483721E+03  0.00000000000E+00 0. -1.
         21   -1    0    0  501  502 -0.00000000000E+00 -0.00000000000E+00 -0.30406368575E+03  0.30406368575E+03  0.00000000000E+00 0. -1.
         25    1    1    2    0    0  0.78819954285E+02 -0.10423763130E+03 -0.16078343525E+02  0.18155324867E+03  0.12500000000E+03 0.  0.
         25    1    1    2    0    0  0.14217863451E+02 -0.61362626933E+02  0.91021088480E+02  0.16696514059E+03  0.12500000000E+03 0.  0.
         25    1    1    2    0    0 -0.93037817736E+02  0.16560025823E+03 -0.90001593496E+02  0.24455013369E+03  0.12500000000E+03 0.  0.
</event>
<event>
 5    0  0.5663008E-005  0.2355676E+03  0.7546771E-02  0.1122781E+00
         21   -1    0    0  502  501  0.00000000000E+00  0.00000000000E+00  0.72515376782E+03  0.72515376782E+03  0.00000000000E+00 0.  1.
         21   -1    0    0  501  502 -0.00000000000E+00 -0.00000000000E+00 -0.76524594447E+02  0.76524594447E+02  0.00000000000E+00 0.  1.
         25    1    1    2    0    0  0.50910630937E+01  0.10398782321E+03  0.35063697054E+03  0.38653676592E+03  0.12500000000E+03 0.  0.
         25    1    1    2    0    0 -0.52055028288E+02 -0.42560557903E+02  0.15234116794E+03  0.20821613412E+03  0.12500000000E+03 0.  0.
         25    1    1    2    0    0  0.46963965195E+02 -0.61427265311E+02  0.14565103489E+03  0.20692546222E+03  0.12500000000E+03 0.  0.
</event>
<event>
 5    0  0.5663008E-005  0.3939958E+03  0.7546771E-02  0.1045879E+00
         21   -1    0    0  502  501  0.00000000000E+00  0.00000000000E+00  0.44159279877E+03  0.44159279877E+03  0.00000000000E+00 0. -1.
         21   -1    0    0  501  502 -0.00000000000E+00 -0.00000000000E+00 -0.35152899797E+03  0.35152899797E+03  0.00000000000E+00 0. -1.
         25    1    1    2    0    0  0.58594231110E+02 -0.42661873770E+02 -0.12505593308E+03  0.19109501770E+03  0.12500000000E+03 0.  0.
         25    1    1    2    0    0 -0.89942803191E+02 -0.15084650507E+03 -0.76797874709E+02  0.22883900344E+03  0.12500000000E+03 0.  0.
         25    1    1    2    0    0  0.31348572081E+02  0.19350837884E+03  0.29191760859E+03  0.37318777560E+03  0.12500000000E+03 0.  0.
</event>
<event>
 5    0  0.5663008E-005  0.3000569E+03  0.7546771E-02  0.1085212E+00
         21   -1    0    0  502  501  0.00000000000E+00  0.00000000000E+00  0.70940417396E+03  0.70940417396E+03  0.00000000000E+00 0.  1.
         21   -1    0    0  501  502 -0.00000000000E+00 -0.00000000000E+00 -0.12691516656E+03  0.12691516656E+03  0.00000000000E+00 0.  1.
         25    1    1    2    0    0 -0.35514394602E+02 -0.28386161036E+02 -0.17414427054E+02  0.13414659381E+03  0.12500000000E+03 0.  0.
         25    1    1    2    0    0  0.27962700558E+02 -0.58773851342E+02  0.50076612661E+03  0.52021917668E+03  0.12500000000E+03 0.  0.
         25    1    1    2    0    0  0.75516940438E+01  0.87160012378E+02  0.99137307835E+02  0.18195357003E+03  0.12500000000E+03 0.  0.
</event>
<event>
 5    0  0.6203072E-005  0.2477662E+03  0.7546771E-02  0.1114725E+00
         21   -1    0    0  502  501  0.00000000000E+00  0.00000000000E+00  0.44140465675E+03  0.44140465675E+03  0.00000000000E+00 0. -1.
         21   -1    0    0  501  502 -0.00000000000E+00 -0.00000000000E+00 -0.13907435171E+03  0.13907435171E+03  0.00000000000E+00 0. -1.
         25    1    1    2    0    0  0.89350190820E+01 -0.52244685605E+02  0.48100254558E+02  0.14404157812E+03  0.12500000000E+03 0.  0.
         25    1    1    2    0    0 -0.87363120581E+02 -0.64585593065E+02  0.13466102724E+03  0.21345305322E+03  0.12500000000E+03 0.  0.
         25    1    1    2    0    0  0.78428101499E+02  0.11683027867E+03  0.11956902324E+03  0.22298437711E+03  0.12500000000E+03 0.  0.
</event>
<event>
 5    0  0.5663008E-005  0.3117417E+03  0.7546771E-02  0.1079514E+00
         21   -1    0    0  502  501  0.00000000000E+00  0.00000000000E+00  0.80820729487E+02  0.80820729487E+02  0.00000000000E+00 0. -1.
         21   -1    0    0  501  502 -0.00000000000E+00 -0.00000000000E+00 -0.12024498974E+04  0.12024498974E+04  0.00000000000E+00 0. -1.
         25    1    1    2    0    0 -0.78080359488E+02  0.10063506322E+03 -0.32938607745E+03  0.37462534152E+03  0.12500000000E+03 0.  0.
         25    1    1    2    0    0 -0.47603259520E+02 -0.13877349522E+03 -0.15870845929E+03  0.24967484524E+03  0.12500000000E+03 0.  0.
         25    1    1    2    0    0  0.12568361901E+03  0.38138432004E+02 -0.63353463119E+03  0.65897044016E+03  0.12500000000E+03 0.  0.
</event>
<event>
 5    0  0.5663008E-005  0.4354095E+03  0.7546771E-02  0.1032165E+00
         21   -1    0    0  502  501  0.00000000000E+00  0.00000000000E+00  0.13183967360E+03  0.13183967360E+03  0.00000000000E+00 0. -1.
         21   -1    0    0  501  502 -0.00000000000E+00 -0.00000000000E+00 -0.14379695882E+04  0.14379695882E+04  0.00000000000E+00 0. -1.
         25    1    1    2    0    0  0.60126044266E+02  0.76426782807E+02 -0.28684308687E+02  0.16094714628E+03  0.12500000000E+03 0.  0.
         25    1    1    2    0    0 -0.10350471848E+03 -0.17215253901E+03 -0.17472660499E+03  0.29411581040E+03  0.12500000000E+03 0.  0.
         25    1    1    2    0    0  0.43378674216E+02  0.95725756207E+02 -0.11027190009E+04  0.11147463051E+04  0.12500000000E+03 0.  0.
</event>
<event>
 5    0  0.5663008E-005  0.3539519E+03  0.7546771E-02  0.1061005E+00
         21   -1    0    0  502  501  0.00000000000E+00  0.00000000000E+00  0.61337358589E+03  0.61337358589E+03  0.00000000000E+00 0. -1.
         21   -1    0    0  501  502 -0.00000000000E+00 -0.00000000000E+00 -0.20425058643E+03  0.20425058643E+03  0.00000000000E+00 0. -1.
         25    1    1    2    0    0  0.17466838019E+03 -0.66957678992E+01  0.27742113446E+03  0.35091503557E+03  0.12500000000E+03 0.  0.
         25    1    1    2    0    0 -0.18067565410E+03  0.13814677986E+03  0.11681922254E+03  0.28460491128E+03  0.12500000000E+03 0.  0.
         25    1    1    2    0    0  0.60072739047E+01 -0.13145101197E+03  0.14882642453E+02  0.18210422547E+03  0.12500000000E+03 0.  0.
</event>
<event>
 5    0  0.5663008E-005  0.3570684E+03  0.7546771E-02  0.1059751E+00
         21   -1    0    0  502  501  0.00000000000E+00  0.00000000000E+00  0.13022930569E+04  0.13022930569E+04  0.00000000000E+00 0. -1.
         21   -1    0    0  501  502 -0.00000000000E+00 -0.00000000000E+00 -0.97902596102E+02  0.97902596102E+02  0.00000000000E+00 0. -1.
         25    1    1    2    0    0  0.91121468904E+02 -0.49712723633E+02  0.84610078549E+03  0.86156022203E+03  0.12500000000E+03 0.  0.
         25    1    1    2    0    0  0.15228621190E+02 -0.28246978288E+02 -0.84754461844E+01  0.12933149606E+03  0.12500000000E+03 0.  0.
         25    1    1    2    0    0 -0.10635009009E+03  0.77959701922E+02  0.36676512151E+03  0.40930393492E+03  0.12500000000E+03 0.  0.
</event>
<event>
 5    0  0.5663008E-005  0.3246013E+03  0.7546771E-02  0.1073551E+00
         21   -1    0    0  502  501  0.00000000000E+00  0.00000000000E+00  0.26666335622E+03  0.26666335622E+03  0.00000000000E+00 0.  1.
         21   -1    0    0  501  502 -0.00000000000E+00 -0.00000000000E+00 -0.39512732499E+03  0.39512732499E+03  0.00000000000E+00 0.  1.
         25    1    1    2    0    0  0.44235246389E+02 -0.13483710223E+03 -0.98624176857E+02  0.21328274525E+03  0.12500000000E+03 0.  0.
         25    1    1    2    0    0 -0.78094919981E+02 -0.20690249429E+02 -0.15149344547E+03  0.21237270768E+03  0.12500000000E+03 0.  0.
         25    1    1    2    0    0  0.33859673591E+02  0.15552735166E+03  0.12165365355E+03  0.23613522828E+03  0.12500000000E+03 0.  0.
</event>
<event>
 5    0  0.5663008E-005  0.2106304E+03  0.7546771E-02  0.1141068E+00
         21   -1    0    0  502  501  0.00000000000E+00  0.00000000000E+00  0.91077291390E+02  0.91077291390E+02  0.00000000000E+00 0.  1.
         21   -1    0    0  501  502 -0.00000000000E+00 -0.00000000000E+00 -0.48711559831E+03  0.48711559831E+03  0.00000000000E+00 0.  1.
         25    1    1    2    0    0 -0.35908632656E+02  0.20739605271E+01 -0.20560049417E+03  0.24329055554E+03  0.12500000000E+03 0.  0.
         25    1    1    2    0    0  0.66185994558E+02  0.25976129084E+02 -0.96489998904E+02  0.17317813097E+03  0.12500000000E+03 0.  0.
         25    1    1    2    0    0 -0.30277361903E+02 -0.28050089612E+02 -0.93947813843E+02  0.16172420319E+03  0.12500000000E+03 0.  0.
</event>
<event>
 5    0  0.5663008E-005  0.2326405E+03  0.7546771E-02  0.1124795E+00
         21   -1    0    0  502  501  0.00000000000E+00  0.00000000000E+00  0.63675201067E+02  0.63675201067E+02  0.00000000000E+00 0. -1.
         21   -1    0    0  501  502 -0.00000000000E+00 -0.00000000000E+00 -0.84996327116E+03  0.84996327116E+03  0.00000000000E+00 0. -1.
         25    1    1    2    0    0 -0.64139326326E+02 -0.82109857634E+02 -0.24578475241E+03  0.29477283868E+03  0.12500000000E+03 0.  0.
         25    1    1    2    0    0  0.48034262170E+02  0.21094482059E+02 -0.14128667560E+03  0.19580396375E+03  0.12500000000E+03 0.  0.
         25    1    1    2    0    0  0.16105064157E+02  0.61015375575E+02 -0.39921664208E+03  0.42306166981E+03  0.12500000000E+03 0.  0.
</event>
<event>
 5    0  0.5663008E-005  0.5033095E+03  0.7546771E-02  0.1012919E+00
         21   -1    0    0  502  501  0.00000000000E+00  0.00000000000E+00  0.33494252814E+03  0.33494252814E+03  0.00000000000E+00 0.  1.
         21   -1    0    0  501  502 -0.00000000000E+00 -0.00000000000E+00 -0.75631021660E+03  0.75631021660E+03  0.00000000000E+00 0.  1.
         25    1    1    2    0    0 -0.15789134276E+03  0.85438390382E+01  0.73276395578E+02  0.21446935318E+03  0.12500000000E+03 0.  0.
         25    1    1    2    0    0 -0.18345788169E+03  0.20335254104E+03 -0.23952852614E+03  0.38471803329E+03  0.12500000000E+03 0.  0.
         25    1    1    2    0    0  0.34134922445E+03 -0.21189638008E+03 -0.25511555791E+03  0.49206535827E+03  0.12500000000E+03 0.  0.
</event>
<event>
 5    0  0.5663008E-005  0.4216917E+03  0.7546771E-02  0.1036517E+00
         21   -1    0    0  502  501  0.00000000000E+00  0.00000000000E+00  0.10294473880E+04  0.10294473880E+04  0.00000000000E+00 0. -1.
         21   -1    0    0  501  502 -0.00000000000E+00 -0.00000000000E+00 -0.17273719790E+03  0.17273719790E+03  0.00000000000E+00 0. -1.
         25    1    1    2    0    0  0.17422328972E+03 -0.22571044681E+03  0.34332937039E+03  0.46346414862E+03  0.12500000000E+03 0.  0.
         25    1    1    2    0    0 -0.21809912372E+03 -0.19838566115E+02  0.24570764248E+03  0.35207675590E+03  0.12500000000E+03 0.  0.
         25    1    1    2    0    0  0.43875833992E+02  0.24554901293E+03  0.26767317727E+03  0.38664368143E+03  0.12500000000E+03 0.  0.
</event>
<event>
 5    0  0.5663008E-005  0.4523347E+03  0.7546771E-02  0.1027028E+00
         21   -1    0    0  502  501  0.00000000000E+00  0.00000000000E+00  0.20818506293E+04  0.20818506293E+04  0.00000000000E+00 0. -1.
         21   -1    0    0  501  502 -0.00000000000E+00 -0.00000000000E+00 -0.98281170204E+02  0.98281170204E+02  0.00000000000E+00 0. -1.
         25    1    1    2    0    0  0.16307790092E+03  0.14233843241E+03  0.14085516067E+04  0.14305583734E+04  0.12500000000E+03 0.  0.
         25    1    1    2    0    0 -0.11112517909E+03  0.61852136580E+02  0.76359091297E+02  0.19398505883E+03  0.12500000000E+03 0.  0.
         25    1    1    2    0    0 -0.51952721827E+02 -0.20419056899E+03  0.49865876112E+03  0.55558836724E+03  0.12500000000E+03 0.  0.
</event>
<event>
 5    0  0.5665398E-005  0.2935063E+03  0.7546771E-02  0.1088533E+00
         21   -1    0    0  502  501  0.00000000000E+00  0.00000000000E+00  0.52208964696E+03  0.52208964696E+03  0.00000000000E+00 0. -1.
         21   -1    0    0  501  502 -0.00000000000E+00 -0.00000000000E+00 -0.16500224522E+03  0.16500224522E+03  0.00000000000E+00 0. -1.
         25    1    1    2    0    0 -0.56493533129E+02  0.97635820070E+02 -0.14010624138E+02  0.16895434364E+03  0.12500000000E+03 0.  0.
         25    1    1    2    0    0  0.37507465042E+02 -0.30007888201E+02  0.34803769500E+03  0.37291087464E+03  0.12500000000E+03 0.  0.
         25    1    1    2    0    0  0.18986068087E+02 -0.67627931869E+02  0.23060330874E+02  0.14522667389E+03  0.12500000000E+03 0.  0.
</event>
<event>
 5    0  0.5663008E-005  0.3770339E+03  0.7546771E-02  0.1052036E+00
         21   -1    0    0  502  501  0.00000000000E+00  0.00000000000E+00  0.18140034206E+03  0.18140034206E+03  0.00000000000E+00 0.  1.
         21   -1    0    0  501  502 -0.00000000000E+00 -0.00000000000E+00 -0.78365091417E+03  0.78365091417E+03  0.00000000000E+00 0.  1.
         25    1    1    2    0    0  0.13994935089E+03 -0.14433591614E+03 -0.32909911796E+03  0.40540092124E+03  0.12500000000E+03 0.  0.
         25    1    1    2    0    0 -0.20313491221E+03 -0.23760182714E+02 -0.23847698370E+03  0.33811922542E+03  0.12500000000E+03 0.  0.
         25    1    1    2    0    0  0.63185561322E+02  0.16809609885E+03 -0.34674470459E+02  0.22153110958E+03  0.12500000000E+03 0.  0.
</event>
<event>
 5    0  0.5663008E-005  0.4774022E+03  0.7546771E-02  0.1019852E+00
         21   -1    0    0  502  501  0.00000000000E+00  0.00000000000E+00  0.88268741851E+03  0.88268741851E+03  0.00000000000E+00 0.  1.
         21   -1    0    0  501  502 -0.00000000000E+00 -0.00000000000E+00 -0.25820341475E+03  0.25820341475E+03  0.00000000000E+00 0.  1.
         25    1    1    2    0    0 -0.33537955411E+02 -0.45961676418E+02 -0.38643870278E+02  0.14267311892E+03  0.12500000000E+03 0.  0.
         25    1    1    2    0    0 -0.14308656908E+03  0.18319127426E+03 -0.23857913435E+02  0.26500379101E+03  0.12500000000E+03 0.  0.
         25    1    1    2    0    0  0.17662452449E+03 -0.13722959784E+03  0.68698578747E+03  0.73321392333E+03  0.12500000000E+03 0.  0.
</event>
<event>
 5    0  0.5663008E-005  0.2587799E+03  0.7546771E-02  0.1107878E+00
         21   -1    0    0  502  501  0.00000000000E+00  0.00000000000E+00  0.17667636399E+04  0.17667636399E+04  0.00000000000E+00 0.  1.
         21   -1    0    0  501  502 -0.00000000000E+00 -0.00000000000E+00 -0.37903796089E+02  0.37903796089E+02  0.00000000000E+00 0.  1.
         25    1    1    2    0    0  0.19567532429E+02  0.10715641788E+03  0.25249734684E+03  0.30206836375E+03  0.12500000000E+03 0.  0.
         25    1    1    2    0    0  0.78715448180E+01 -0.77839790862E+02  0.72368611174E+03  0.73855777201E+03  0.12500000000E+03 0.  0.
         25    1    1    2    0    0 -0.27439077247E+02 -0.29316627021E+02  0.75267638524E+03  0.76404130024E+03  0.12500000000E+03 0.  0.
</event>
<event>
 5    0  0.5663008E-005  0.2584693E+03  0.7546771E-02  0.1108066E+00
         21   -1    0    0  502  501  0.00000000000E+00  0.00000000000E+00  0.42931166749E+03  0.42931166749E+03  0.00000000000E+00 0. -1.
         21   -1    0    0  501  502 -0.00000000000E+00 -0.00000000000E+00 -0.15561281021E+03  0.15561281021E+03  0.00000000000E+00 0. -1.
         25    1    1    2    0    0  0.71093559125E+02 -0.13508140930E+03  0.12682013454E+03  0.23454131365E+03  0.12500000000E+03 0.  0.
         25    1    1    2    0    0 -0.13338609922E+02  0.41447133519E+02  0.12567028018E+03  0.18252069119E+03  0.12500000000E+03 0.  0.
         25    1    1    2    0    0 -0.57754949203E+02  0.93634275780E+02  0.21208442565E+02  0.16786247286E+03  0.12500000000E+03 0.  0.
</event>
<event>
 5    0  0.5663008E-005  0.2887501E+03  0.7546771E-02  0.1091004E+00
         21   -1    0    0  502  501  0.00000000000E+00  0.00000000000E+00  0.11960013129E+03  0.11960013129E+03  0.00000000000E+00 0. -1.
         21   -1    0    0  501  502 -0.00000000000E+00 -0.00000000000E+00 -0.69712837336E+03  0.69712837336E+03  0.00000000000E+00 0. -1.
         25    1    1    2    0    0  0.15594608208E+03 -0.11172729619E+03 -0.23800936896E+03  0.33026599725E+03  0.12500000000E+03 0.  0.
         25    1    1    2    0    0 -0.14319810400E+03  0.68693236800E+02 -0.13660465232E+03  0.24394730744E+03  0.12500000000E+03 0.  0.
         25    1    1    2    0    0 -0.12747978078E+02  0.43034059390E+02 -0.20291422079E+03  0.24251519996E+03  0.12500000000E+03 0.  0.
</event>
<event>
 5    0  0.5663008E-005  0.4293083E+03  0.7546771E-02  0.1034079E+00
         21   -1    0    0  502  501  0.00000000000E+00  0.00000000000E+00  0.19166250263E+03  0.19166250263E+03  0.00000000000E+00 0.  1.
         21   -1    0    0  501  502 -0.00000000000E+00 -0.00000000000E+00 -0.96161538734E+03  0.96161538734E+03  0.00000000000E+00 0.  1.
         25    1    1    2    0    0  0.14130653989E+03 -0.16539912797E+03 -0.36312433865E+03  0.44137137999E+03  0.12500000000E+03 0.  0.
         25    1    1    2    0    0 -0.85834925848E+02 -0.15656485170E+03 -0.24050736663E+03  0.32457507712E+03  0.12500000000E+03 0.  0.
         25    1    1    2    0    0 -0.55471614044E+02  0.32196397966E+03 -0.16632117943E+03  0.38733143287E+03  0.12500000000E+03 0.  0.
</event>
<event>
 5    0  0.5663008E-005  0.3855077E+03  0.7546771E-02  0.1048917E+00
         21   -1    0    0  502  501  0.00000000000E+00  0.00000000000E+00  0.26808401480E+03  0.26808401480E+03  0.00000000000E+00 0.  1.
         21   -1    0    0  501  502 -0.00000000000E+00 -0.00000000000E+00 -0.55436430342E+03  0.55436430342E+03  0.00000000000E+00 0.  1.
         25    1    1    2    0    0  0.73042938840E+02  0.18918977719E+03 -0.23424386698E+02  0.23937782813E+03  0.12500000000E+03 0.  0.
         25    1    1    2    0    0  0.15245917036E+03 -0.94912642435E+02 -0.25736211906E+02  0.22031695560E+03  0.12500000000E+03 0.  0.
         25    1    1    2    0    0 -0.22550210920E+03 -0.94277134757E+02 -0.23711969002E+03  0.36275353449E+03  0.12500000000E+03 0.  0.
</event>
<event>
 5    0  0.5663008E-005  0.3451858E+03  0.7546771E-02  0.1064609E+00
         21   -1    0    0  502  501  0.00000000000E+00  0.00000000000E+00  0.27286624301E+03  0.27286624301E+03  0.00000000000E+00 0.  1.
         21   -1    0    0  501  502 -0.00000000000E+00 -0.00000000000E+00 -0.43667266331E+03  0.43667266331E+03  0.00000000000E+00 0.  1.
         25    1    1    2    0    0  0.77725188342E+02 -0.13259665761E+03 -0.25913921656E+02  0.19979892354E+03  0.12500000000E+03 0.  0.
         25    1    1    2    0    0 -0.70566068806E+02  0.13686906403E+03  0.11374757711E+03  0.22863993976E+03  0.12500000000E+03 0.  0.
         25    1    1    2    0    0 -0.71591195361E+01 -0.42724064206E+01 -0.25164007576E+03  0.28110004301E+03  0.12500000000E+03 0.  0.
</event>
<event>
 5    0  0.5663008E-005  0.3015057E+03  0.7546771E-02  0.1084490E+00
         21   -1    0    0  502  501  0.00000000000E+00  0.00000000000E+00  0.43721922514E+03  0.43721922514E+03  0.00000000000E+00 0. -1.
         21   -1    0    0  501  502 -0.00000000000E+00 -0.00000000000E+00 -0.20791783156E+03  0.20791783156E+03  0.00000000000E+00 0. -1.
         25    1    1    2    0    0  0.26293771322E+02  0.89871981602E+02 -0.69730584931E+02  0.17104294771E+03  0.12500000000E+03 0.  0.
         25    1    1    2    0    0 -0.86956570474E+02 -0.15193163303E+03  0.16153135959E+03  0.26900194497E+03  0.12500000000E+03 0.  0.
         25    1    1    2    0    0  0.60662799153E+02  0.62059651429E+02  0.13750061892E+03  0.20509216401E+03  0.12500000000E+03 0.  0.
</event>
<event>
 5    0  0.5663008E-005  0.2771731E+03  0.7546771E-02  0.1097243E+00
         21   -1    0    0  502  501  0.00000000000E+00  0.00000000000E+00  0.69038916553E+02  0.69038916553E+02  0.00000000000E+00 0.  1.
         21   -1    0    0  501  502 -0.00000000000E+00 -0.00000000000E+00 -0.11127771083E+04  0.11127771083E+04  0.00000000000E+00 0.  1.
         25    1    1    2    0    0  0.16135911927E+02  0.50686514576E+02 -0.35371185106E+03  0.37890178674E+03  0.12500000000E+03 0.  0.
         25    1    1    2    0    0  0.59288304158E+02  0.10512565380E+03 -0.18092365801E+03  0.25084831298E+03  0.12500000000E+03 0.  0.
         25    1    1    2    0    0 -0.75424216085E+02 -0.15581216837E+03 -0.50910268267E+03  0.55206592513E+03  0.12500000000E+03 0.  0.
</event>
<event>
 5    0  0.5663008E-005  0.3152584E+03  0.7546771E-02  0.1077852E+00
         21   -1    0    0  502  501  0.00000000000E+00  0.00000000000E+00  0.22474109950E+03  0.22474109950E+03  0.00000000000E+00 0. -1.
         21   -1    0    0  501  502 -0.00000000000E+00 -0.00000000000E+00 -0.44223255224E+03  0.44223255224E+03  0.00000000000E+00 0. -1.
         25    1    1    2    0    0 -0.79647850732E+02 -0.11956250119E+03 -0.35533589966E+02  0.19371785626E+03  0.12500000000E+03 0.  0.
         25    1    1    2    0    0 -0.14897435388E+02 -0.37693421018E+02  0.60358863258E+02  0.14460608543E+03  0.12500000000E+03 0.  0.
         25    1    1    2    0    0  0.94545286121E+02  0.15725592221E+03 -0.24231672604E+03  0.32864971005E+03  0.12500000000E+03 0.  0.
</event>
<event>
 5    0  0.5663008E-005  0.3560466E+03  0.7546771E-02  0.1060160E+00
         21   -1    0    0  502  501  0.00000000000E+00  0.00000000000E+00  0.56610638272E+03  0.56610638272E+03  0.00000000000E+00 0. -1.
         21   -1    0    0  501  502 -0.00000000000E+00 -0.00000000000E+00 -0.22393179157E+03  0.22393179157E+03  0.00000000000E+00 0. -1.
         25    1    1    2    0    0  0.71705407443E+02  0.35925863981E+02 -0.88606239647E+02  0.17294044889E+03  0.12500000000E+03 0.  0.
         25    1    1    2    0    0 -0.23446148376E+02 -0.44600234593E+02  0.46029445800E+03  0.47961952720E+03  0.12500000000E+03 0.  0.
         25    1    1    2    0    0 -0.48259259067E+02  0.86743706120E+01 -0.29513627206E+02  0.13747819821E+03  0.12500000000E+03 0.  0.
</event>
<event>
 5    0  0.5663008E-005  0.3473430E+03  0.7546771E-02  0.1063711E+00
         21   -1    0    0  502  501  0.00000000000E+00  0.00000000000E+00  0.58663805307E+03  0.58663805307E+03  0.00000000000E+00 0. -1.
         21   -1    0    0  501  502 -0.00000000000E+00 -0.00000000000E+00 -0.20565854912E+03  0.20565854912E+03  0.00000000000E+00 0. -1.
         25    1    1    2    0    0  0.48315725640E+02 -0.75123558234E+02  0.60204484525E+02  0.16500769165E+03  0.12500000000E+03 0.  0.
         25    1    1    2    0    0 -0.19557707041E+03 -0.97592925528E+02  0.25835512663E+03  0.36075911775E+03  0.12500000000E+03 0.  0.
         25    1    1    2    0    0  0.14726134477E+03  0.17271648376E+03  0.62419892794E+02  0.26652979279E+03  0.12500000000E+03 0.  0.
</event>
<event>
 5    0  0.5663008E-005  0.2777807E+03  0.7546771E-02  0.1096907E+00
         21   -1    0    0  502  501  0.00000000000E+00  0.00000000000E+00  0.32836539826E+03  0.32836539826E+03  0.00000000000E+00 0.  1.
         21   -1    0    0  501  502 -0.00000000000E+00 -0.00000000000E+00 -0.23498859371E+03  0.23498859371E+03  0.00000000000E+00 0.  1.
         25    1    1    2    0    0  0.94149770495E+02  0.11495516053E+02  0.10224516185E+03  0.18728427402E+03  0.12500000000E+03 0.  0.
         25    1    1    2    0    0 -0.17884841613E+03  0.18174476664E+02  0.18644456405E+02  0.21974913722E+03  0.12500000000E+03 0.  0.
         25    1    1    2    0    0  0.84698645639E+02 -0.29669992717E+02 -0.27512813699E+02  0.15632058073E+03  0.12500000000E+03 0.  0.
</event>
<event>
 5    0  0.5663008E-005  0.4285429E+03  0.7546771E-02  0.1034321E+00
         21   -1    0    0  502  501  0.00000000000E+00  0.00000000000E+00  0.32570288129E+03  0.32570288129E+03  0.00000000000E+00 0.  1.
         21   -1    0    0  501  502 -0.00000000000E+00 -0.00000000000E+00 -0.56385455620E+03  0.56385455620E+03  0.00000000000E+00 0.  1.
         25    1    1    2    0    0  0.44336165057E+01 -0.56781895598E+02  0.13369674743E+03  0.19168636075E+03  0.12500000000E+03 0.  0.
         25    1    1    2    0    0 -0.94144944402E+02 -0.20521804670E+03 -0.65190911465E+02  0.26618146477E+03  0.12500000000E+03 0.  0.
         25    1    1    2    0    0  0.89711327897E+02  0.26199994230E+03 -0.30665751087E+03  0.43168961198E+03  0.12500000000E+03 0.  0.
</event>
<event>
 5    0  0.5663008E-005  0.3754752E+03  0.7546771E-02  0.1052619E+00
         21   -1    0    0  502  501  0.00000000000E+00  0.00000000000E+00  0.38118996191E+03  0.38118996191E+03  0.00000000000E+00 0.  1.
         21   -1    0    0  501  502 -0.00000000000E+00 -0.00000000000E+00 -0.36984605866E+03  0.36984605866E+03  0.00000000000E+00 0.  1.
         25    1    1    2    0    0  0.10793861546E+03 -0.17148014765E+03  0.15853502407E+03  0.28603241006E+03  0.12500000000E+03 0.  0.
         25    1    1    2    0    0 -0.11825385442E+03  0.23875844859E+03 -0.67736363338E+02  0.30199798969E+03  0.12500000000E+03 0.  0.
         25    1    1    2    0    0  0.10315238957E+02 -0.67278300944E+02 -0.79454757486E+02  0.16300562082E+03  0.12500000000E+03 0.  0.
</event>
<event>
 5    0  0.5663008E-005  0.3279177E+03  0.7546771E-02  0.1072062E+00
         21   -1    0    0  502  501  0.00000000000E+00  0.00000000000E+00  0.48571637833E+03  0.48571637833E+03  0.00000000000E+00 0.  1.
         21   -1    0    0  501  502 -0.00000000000E+00 -0.00000000000E+00 -0.22138441225E+03  0.22138441225E+03  0.00000000000E+00 0.  1.
         25    1    1    2    0    0 -0.86511293984E+00  0.17933642270E+03  0.16317911901E+03  0.27279062632E+03  0.12500000000E+03 0.  0.
         25    1    1    2    0    0  0.76596119901E+02 -0.14688713728E+02 -0.62446076550E+02  0.16002261206E+03  0.12500000000E+03 0.  0.
         25    1    1    2    0    0 -0.75731006961E+02 -0.16464770897E+03  0.16359892361E+03  0.27428755220E+03  0.12500000000E+03 0.  0.
</event>
<event>
 5    0  0.5831154E-005  0.2862816E+03  0.7546771E-02  0.1092307E+00
         21   -1    0    0  502  501  0.00000000000E+00  0.00000000000E+00  0.24638104495E+03  0.24638104495E+03  0.00000000000E+00 0.  1.
         21   -1    0    0  501  502 -0.00000000000E+00 -0.00000000000E+00 -0.33264393202E+03  0.33264393202E+03  0.00000000000E+00 0.  1.
         25    1    1    2    0    0  0.54944704641E+02 -0.38389957574E+02 -0.10813682707E+02  0.14224853301E+03  0.12500000000E+03 0.  0.
         25    1    1    2    0    0 -0.16163653521E+03  0.88749409634E+02 -0.12813981499E+03  0.25699735293E+03  0.12500000000E+03 0.  0.
         25    1    1    2    0    0  0.10669183057E+03 -0.50359452059E+02  0.52690610631E+02  0.17977909103E+03  0.12500000000E+03 0.  0.
</event>
<event>
 5    0  0.5663008E-005  0.3301260E+03  0.7546771E-02  0.1071081E+00
         21   -1    0    0  502  501  0.00000000000E+00  0.00000000000E+00  0.15697241022E+04  0.15697241022E+04  0.00000000000E+00 0. -1.
         21   -1    0    0  501  502 -0.00000000000E+00 -0.00000000000E+00 -0.69428244591E+02  0.69428244591E+02  0.00000000000E+00 0. -1.
         25    1    1    2    0    0 -0.19372091916E+03  0.72165308210E+02  0.56115891169E+03  0.61095003920E+03  0.12500000000E+03 0.  0.
         25    1    1    2    0    0 -0.16986015114E+02 -0.11110581720E+03  0.32615592783E+03  0.36692739961E+03  0.12500000000E+03 0.  0.
         25    1    1    2    0    0  0.21070693427E+03  0.38940508993E+02  0.61298101811E+03  0.66127490800E+03  0.12500000000E+03 0.  0.
</event>
<event>
 5    0  0.5663008E-005  0.3058524E+03  0.7546771E-02  0.1082351E+00
         21   -1    0    0  502  501  0.00000000000E+00  0.00000000000E+00  0.27685399791E+03  0.27685399791E+03  0.00000000000E+00 0. -1.
         21   -1    0    0  501  502 -0.00000000000E+00 -0.00000000000E+00 -0.33788811988E+03  0.33788811988E+03  0.00000000000E+00 0. -1.
         25    1    1    2    0    0 -0.13838206701E+03 -0.28359275948E+02 -0.20360885697E+03  0.27755253852E+03  0.12500000000E+03 0.  0.
         25    1    1    2    0    0  0.10686926836E+03 -0.19904465201E+01  0.11818176374E+03  0.20252637280E+03  0.12500000000E+03 0.  0.
         25    1    1    2    0    0  0.31512798655E+02  0.30349722468E+02  0.24392971256E+02  0.13466320648E+03  0.12500000000E+03 0.  0.
</event>
<event>
 5    0  0.5663008E-005  0.2913436E+03  0.7546771E-02  0.1089650E+00
         21   -1    0    0  502  501  0.00000000000E+00  0.00000000000E+00  0.44172407240E+02  0.44172407240E+02  0.00000000000E+00 0. -1.
         21   -1    0    0  501  502 -0.00000000000E+00 -0.00000000000E+00 -0.19215860739E+04  0.19215860739E+04  0.00000000000E+00 0. -1.
         25    1    1    2    0    0 -0.62327528234E+01 -0.48209656090E+02 -0.20916969829E+03  0.24847531232E+03  0.12500000000E+03 0.  0.
         25    1    1    2    0    0 -0.26882118075E+02  0.14384690484E+03 -0.13167368704E+04  0.13307274576E+04  0.12500000000E+03 0.  0.
         25    1    1    2    0    0  0.33114870898E+02 -0.95637248750E+02 -0.35150709794E+03  0.38655571129E+03  0.12500000000E+03 0.  0.
</event>
<event>
 5    0  0.5663008E-005  0.2645094E+03  0.7546771E-02  0.1104464E+00
         21   -1    0    0  502  501  0.00000000000E+00  0.00000000000E+00  0.29251972862E+03  0.29251972862E+03  0.00000000000E+00 0.  1.
         21   -1    0    0  501  502 -0.00000000000E+00 -0.00000000000E+00 -0.23918127578E+03  0.23918127578E+03  0.00000000000E+00 0.  1.
         25    1    1    2    0    0 -0.10231415951E+03  0.13443933001E+02  0.22117365009E+02  0.16359432877E+03  0.12500000000E+03 0.  0.
         25    1    1    2    0    0 -0.45761116744E+02  0.72386318409E+02 -0.11306415912E+02  0.15194306150E+03  0.12500000000E+03 0.  0.
         25    1    1    2    0    0  0.14807527625E+03 -0.85830251410E+02  0.42527503743E+02  0.21616361412E+03  0.12500000000E+03 0.  0.
</event>
<event>
 5    0  0.5663008E-005  0.2543703E+03  0.7546771E-02  0.1110574E+00
         21   -1    0    0  502  501  0.00000000000E+00  0.00000000000E+00  0.69608749173E+02  0.69608749173E+02  0.00000000000E+00 0.  1.
         21   -1    0    0  501  502 -0.00000000000E+00 -0.00000000000E+00 -0.92954200595E+03  0.92954200595E+03  0.00000000000E+00 0.  1.
         25    1    1    2    0    0 -0.11593327720E+03  0.21593353394E+02 -0.16968943270E+03  0.24150838752E+03  0.12500000000E+03 0.  0.
         25    1    1    2    0    0  0.12062378954E+03  0.29514265704E+02 -0.42127768135E+03  0.45664107928E+03  0.12500000000E+03 0.  0.
         25    1    1    2    0    0 -0.46905123350E+01 -0.51107619098E+02 -0.26896614273E+03  0.30100128832E+03  0.12500000000E+03 0.  0.
</event>
<event>
 5    0  0.5663008E-005  0.2397842E+03  0.7546771E-02  0.1119937E+00
         21   -1    0    0  502  501  0.00000000000E+00  0.00000000000E+00  0.94840914768E+02  0.94840914768E+02  0.00000000000E+00 0.  1.
         21   -1    0    0  501  502 -0.00000000000E+00 -0.00000000000E+00 -0.60624101588E+03  0.60624101588E+03  0.00000000000E+00 0.  1.
         25    1    1    2    0    0 -0.35434020678E+02 -0.12770998909E+02 -0.16237063679E+03  0.20834560693E+03  0.12500000000E+03 0.  0.
         25    1    1    2    0    0  0.56201512846E+02  0.86910670812E+02 -0.29425757066E+03  0.33604254588E+03  0.12500000000E+03 0.  0.
         25    1    1    2    0    0 -0.20767492168E+02 -0.74139671903E+02 -0.54771893666E+02  0.15669377785E+03  0.12500000000E+03 0.  0.
</event>
<event>
 5    0  0.5663008E-005  0.2542367E+03  0.7546771E-02  0.1110656E+00
         21   -1    0    0  502  501  0.00000000000E+00  0.00000000000E+00  0.18940876567E+03  0.18940876567E+03  0.00000000000E+00 0.  1.
         21   -1    0    0  501  502 -0.00000000000E+00 -0.00000000000E+00 -0.34125305888E+03  0.34125305888E+03  0.00000000000E+00 0.  1.
         25    1    1    2    0    0  0.60474631503E+02 -0.11762292562E+01 -0.15857925770E+03  0.21078649279E+03  0.12500000000E+03 0.  0.
         25    1    1    2    0    0  0.57600789455E+02 -0.34082622781E+02  0.22809034007E+02  0.14361311971E+03  0.12500000000E+03 0.  0.
         25    1    1    2    0    0 -0.11807542096E+03  0.35258852037E+02 -0.16074069520E+02  0.17626221204E+03  0.12500000000E+03 0.  0.
</event>
<event>
 5    0  0.5663008E-005  0.3310410E+03  0.7546771E-02  0.1070677E+00
         21   -1    0    0  502  501  0.00000000000E+00  0.00000000000E+00  0.15039367712E+03  0.15039367712E+03  0.00000000000E+00 0. -1.
         21   -1    0    0  501  502 -0.00000000000E+00 -0.00000000000E+00 -0.72867501819E+03  0.72867501819E+03  0.00000000000E+00 0. -1.
         25    1    1    2    0    0  0.22100934889E+03 -0.41087637273E+02 -0.33160638605E+03  0.41966787047E+03  0.12500000000E+03 0.  0.
         25    1    1    2    0    0 -0.31732971713E+02  0.18081872139E+02 -0.17941635994E+03  0.22169611139E+03  0.12500000000E+03 0.  0.
         25    1    1    2    0    0 -0.18927637718E+03  0.23005765134E+02 -0.67258595084E+02  0.23770471346E+03  0.12500000000E+03 0.  0.
</event>
<event>
 5    0  0.5663008E-005  0.5616189E+03  0.7546771E-02  0.9988398E-01
         21   -1    0    0  502  501  0.00000000000E+00  0.00000000000E+00  0.34678212504E+03  0.34678212504E+03  0.00000000000E+00 0.  1.
         21   -1    0    0  501  502 -0.00000000000E+00 -0.00000000000E+00 -0.90955031267E+03  0.90955031267E+03  0.00000000000E+00 0. -1.
         25    1    1    2    0    0  0.11969022301E+03  0.11129480263E+03 -0.41960096425E+03  0.46733526699E+03  0.12500000000E+03 0.  0.
         25    1    1    2    0    0 -0.41878393203E+03 -0.38496049578E+02 -0.37372413254E+02  0.44032218299E+03  0.12500000000E+03 0.  0.
         25    1    1    2    0    0  0.29909370902E+03 -0.72798753055E+02 -0.10579481012E+03  0.34867498773E+03  0.12500000000E+03 0.  0.
</event>
<event>
 5    0  0.5663008E-005  0.3432665E+03  0.7546771E-02  0.1065413E+00
         21   -1    0    0  502  501  0.00000000000E+00  0.00000000000E+00  0.41135193562E+03  0.41135193562E+03  0.00000000000E+00 0.  1.
         21   -1    0    0  501  502 -0.00000000000E+00 -0.00000000000E+00 -0.28645028016E+03  0.28645028016E+03  0.00000000000E+00 0.  1.
         25    1    1    2    0    0 -0.10905058188E+03  0.13763090843E+01  0.10916517474E+03  0.19858489120E+03  0.12500000000E+03 0.  0.
         25    1    1    2    0    0 -0.10355627387E+03 -0.12613658318E+03  0.70749793576E+02  0.21740485911E+03  0.12500000000E+03 0.  0.
         25    1    1    2    0    0  0.21260685575E+03  0.12476027410E+03 -0.55013312862E+02  0.28181246547E+03  0.12500000000E+03 0.  0.
</event>
<event>
 5    0  0.5663008E-005  0.2504375E+03  0.7546771E-02  0.1113029E+00
         21   -1    0    0  502  501  0.00000000000E+00  0.00000000000E+00  0.48251424336E+03  0.48251424336E+03  0.00000000000E+00 0.  1.
         21   -1    0    0  501  502 -0.00000000000E+00 -0.00000000000E+00 -0.12998358236E+03  0.12998358236E+03  0.00000000000E+00 0.  1.
         25    1    1    2    0    0  0.34772818822E+01 -0.12974635214E+02  0.43453492520E+02  0.13301743743E+03  0.12500000000E+03 0.  0.
         25    1    1    2    0    0  0.30196764266E+01 -0.48957075609E+02  0.31213695791E+03  0.33979463531E+03  0.12500000000E+03 0.  0.
         25    1    1    2    0    0 -0.64969583087E+01  0.61931710823E+02 -0.30597894318E+01  0.13968575297E+03  0.12500000000E+03 0.  0.
</event>
<event>
 5    0  0.6473617E-005  0.4620975E+03  0.7546771E-02  0.1024175E+00
         21   -1    0    0  502  501  0.00000000000E+00  0.00000000000E+00  0.10338164506E+04  0.10338164506E+04  0.00000000000E+00 0.  1.
         21   -1    0    0  501  502 -0.00000000000E+00 -0.00000000000E+00 -0.20654933653E+03  0.20654933653E+03  0.00000000000E+00 0.  1.
         25    1    1    2    0    0  0.65999167524E+02 -0.16919794709E+03 -0.26801014694E+02  0.22209711795E+03  0.12500000000E+03 0.  0.
         25    1    1    2    0    0  0.14697444121E+03 -0.67244547485E+01  0.57367722553E+03  0.60529105706E+03  0.12500000000E+03 0.  0.
         25    1    1    2    0    0 -0.21297360874E+03  0.17592240184E+03  0.28039090319E+03  0.41297761208E+03  0.12500000000E+03 0.  0.
</event>
<event>
 5    0  0.5663008E-005  0.2827576E+03  0.7546771E-02  0.1094192E+00
         21   -1    0    0  502  501  0.00000000000E+00  0.00000000000E+00  0.30126704745E+03  0.30126704745E+03  0.00000000000E+00 0.  1.
         21   -1    0    0  501  502 -0.00000000000E+00 -0.00000000000E+00 -0.26538528707E+03  0.26538528707E+03  0.00000000000E+00 0.  1.
         25    1    1    2    0    0 -0.11228443164E+02 -0.40222548845E+02  0.15346473438E+03  0.20228780505E+03  0.12500000000E+03 0.  0.
         25    1    1    2    0    0 -0.57328923926E+02  0.40699799613E+02 -0.16072977696E+03  0.21541156053E+03  0.12500000000E+03 0.  0.
         25    1    1    2    0    0  0.68557367090E+02 -0.47725076809E+00  0.43146802956E+02  0.14895296894E+03  0.12500000000E+03 0.  0.
</event>
<event>
 5    0  0.5663008E-005  0.3289587E+03  0.7546771E-02  0.1071599E+00
         21   -1    0    0  502  501  0.00000000000E+00  0.00000000000E+00  0.41717991391E+02  0.41717991391E+02  0.00000000000E+00 0.  1.
         21   -1    0    0  501  502 -0.00000000000E+00 -0.00000000000E+00 -0.25939363159E+04  0.25939363159E+04  0.00000000000E+00 0.  1.
         25    1    1    2    0    0  0.12489916071E+03  0.95235283396E+02 -0.12608661333E+04  0.12767450669E+04  0.12500000000E+03 0.  0.
         25    1    1    2    0    0  0.34325481735E+02 -0.38088878800E+02 -0.93807685070E+03  0.94775639233E+03  0.12500000000E+03 0.  0.
         25    1    1    2    0    0 -0.15922464245E+03 -0.57146404596E+02 -0.35327534050E+03  0.41115284813E+03  0.12500000000E+03 0.  0.
</event>
<event>
 5    0  0.5663008E-005  0.4738588E+03  0.7546771E-02  0.1020837E+00
         21   -1    0    0  502  501  0.00000000000E+00  0.00000000000E+00  0.10777718178E+03  0.10777718178E+03  0.00000000000E+00 0. -1.
         21   -1    0    0  501  502 -0.00000000000E+00 -0.00000000000E+00 -0.20833927343E+04  0.20833927343E+04  0.00000000000E+00 0. -1.
         25    1    1    2    0    0  0.13126493993E+03 -0.90060622997E+01 -0.18092210276E+04  0.18183006683E+04  0.12500000000E+03 0.  0.
         25    1    1    2    0    0 -0.51723601399E+02  0.36753232895E+02 -0.17216956556E+03  0.22202137369E+03  0.12500000000E+03 0.  0.
         25    1    1    2    0    0 -0.79541338532E+02 -0.27747170595E+02  0.57750406864E+01  0.15084787405E+03  0.12500000000E+03 0.  0.
</event>
<event>
 5    0  0.6064969E-005  0.2819273E+03  0.7546771E-02  0.1094641E+00
         21   -1    0    0  502  501  0.00000000000E+00  0.00000000000E+00  0.17034094618E+03  0.17034094618E+03  0.00000000000E+00 0. -1.
         21   -1    0    0  501  502 -0.00000000000E+00 -0.00000000000E+00 -0.46661109179E+03  0.46661109179E+03  0.00000000000E+00 0. -1.
         25    1    1    2    0    0 -0.12294918404E+03  0.15240330993E+02 -0.23431683244E+03  0.29304973556E+03  0.12500000000E+03 0.  0.
         25    1    1    2    0    0  0.14120531915E+03 -0.13321211439E+02 -0.97419409805E+02  0.21267801541E+03  0.12500000000E+03 0.  0.
         25    1    1    2    0    0 -0.18256135107E+02 -0.19191195532E+01  0.35466096640E+02  0.13122428700E+03  0.12500000000E+03 0.  0.
</event>
<event>
 5    0  0.5663008E-005  0.2447911E+03  0.7546771E-02  0.1116642E+00
         21   -1    0    0  502  501  0.00000000000E+00  0.00000000000E+00  0.20388446098E+04  0.20388446098E+04  0.00000000000E+00 0. -1.
         21   -1    0    0  501  502 -0.00000000000E+00 -0.00000000000E+00 -0.29390511628E+02  0.29390511628E+02  0.00000000000E+00 0. -1.
         25    1    1    2    0    0 -0.92470470730E+02  0.19532186331E+01  0.53833861556E+03  0.56034638218E+03  0.12500000000E+03 0.  0.
         25    1    1    2    0    0 -0.34814444337E+02  0.26772759078E+01  0.90643625684E+03  0.91568056715E+03  0.12500000000E+03 0.  0.
         25    1    1    2    0    0  0.12728491507E+03 -0.46304945409E+01  0.56467922581E+03  0.59220817214E+03  0.12500000000E+03 0.  0.
</event>
<event>
 5    0  0.5663008E-005  0.2493784E+03  0.7546771E-02  0.1113698E+00
         21   -1    0    0  502  501  0.00000000000E+00  0.00000000000E+00  0.41046731046E+03  0.41046731046E+03  0.00000000000E+00 0.  1.
         21   -1    0    0  501  502 -0.00000000000E+00 -0.00000000000E+00 -0.15150925529E+03  0.15150925529E+03  0.00000000000E+00 0.  1.
         25    1    1    2    0    0 -0.15623278836E+02 -0.12826999028E+03  0.16455311037E+03  0.24372115908E+03  0.12500000000E+03 0.  0.
         25    1    1    2    0    0 -0.82027253277E+01  0.93481684959E+02  0.46371410439E+00  0.15630523074E+03  0.12500000000E+03 0.  0.
         25    1    1    2    0    0  0.23826004163E+02  0.34788305325E+02  0.93941230698E+02  0.16195017594E+03  0.12500000000E+03 0.  0.
</event>
<event>
 5    0  0.5663008E-005  0.2977554E+03  0.7546771E-02  0.1086368E+00
         21   -1    0    0  502  501  0.00000000000E+00  0.00000000000E+00  0.28220711256E+04  0.28220711256E+04  0.00000000000E+00 0.  1.
         21   -1    0    0  501  502 -0.00000000000E+00 -0.00000000000E+00 -0.31416037748E+02  0.31416037748E+02  0.00000000000E+00 0.  1.
         25    1    1    2    0    0 -0.25217450177E+02  0.49050928196E+02  0.13802748818E+04  0.13870204262E+04  0.12500000000E+03 0.  0.
         25    1    1    2    0    0 -0.11351300447E+03 -0.11064775607E+03  0.80635684794E+03  0.83124274092E+03  0.12500000000E+03 0.  0.
         25    1    1    2    0    0  0.13873045465E+03  0.61596827869E+02  0.60402335809E+03  0.63522399622E+03  0.12500000000E+03 0.  0.
</event>
<event>
 5    0  0.5663008E-005  0.2487167E+03  0.7546771E-02  0.1114118E+00
         21   -1    0    0  502  501  0.00000000000E+00  0.00000000000E+00  0.28854877784E+03  0.28854877784E+03  0.00000000000E+00 0. -1.
         21   -1    0    0  501  502 -0.00000000000E+00 -0.00000000000E+00 -0.21438323323E+03  0.21438323323E+03  0.00000000000E+00 0. -1.
         25    1    1    2    0    0  0.12501060507E+03 -0.27055562593E+02  0.10396600630E+03  0.20686610480E+03  0.12500000000E+03 0.  0.
         25    1    1    2    0    0 -0.20051854122E+02  0.62503477742E+01  0.87968402070E+01  0.12705718436E+03  0.12500000000E+03 0.  0.
         25    1    1    2    0    0 -0.10495875095E+03  0.20805214819E+02 -0.38597301908E+02  0.16900872190E+03  0.12500000000E+03 0.  0.
</event>
<event>
 5    0  0.5663008E-005  0.3990083E+03  0.7546771E-02  0.1044124E+00
         21   -1    0    0  502  501  0.00000000000E+00  0.00000000000E+00  0.15229273525E+03  0.15229273525E+03  0.00000000000E+00 0.  1.
         21   -1    0    0  501  502 -0.00000000000E+00 -0.00000000000E+00 -0.10454054106E+04  0.10454054106E+04  0.00000000000E+00 0. -1.
         25    1    1    2    0    0  0.20717781009E+03  0.90807149371E+02 -0.44660793729E+03  0.51599634982E+03  0.12500000000E+03 0.  0.
         25    1    1    2    0    0  0.60928557650E+02  0.79105236014E+02 -0.72993948719E+02  0.17584949261E+03  0.12500000000E+03 0.  0.
         25    1    1    2    0    0 -0.26810636774E+03 -0.16991238539E+03 -0.37351078939E+03  0.50585230347E+03  0.12500000000E+03 0.  0.
</event>
<event>
 5    0  0.5663008E-005  0.2669513E+03  0.7546771E-02  0.1103037E+00
         21   -1    0    0  502  501  0.00000000000E+00  0.00000000000E+00  0.28721948540E+03  0.28721948540E+03  0.00000000000E+00 0.  1.
         21   -1    0    0  501  502 -0.00000000000E+00 -0.00000000000E+00 -0.24811330532E+03  0.24811330532E+03  0.00000000000E+00 0.  1.
         25    1    1    2    0    0  0.57226625868E+02 -0.64752366823E+02 -0.62060351996E+02  0.16414701644E+03  0.12500000000E+03 0.  0.
         25    1    1    2    0    0 -0.57776731843E+02 -0.31273308275E+02 -0.52875597213E+02  0.15078792834E+03  0.12500000000E+03 0.  0.
         25    1    1    2    0    0  0.55010597497E+00  0.96025675099E+02  0.15404212930E+03  0.22039784593E+03  0.12500000000E+03 0.  0.
</event>
<event>
 5    0  0.5663008E-005  0.3915463E+03  0.7546771E-02  0.1046747E+00
         21   -1    0    0  502  501  0.00000000000E+00  0.00000000000E+00  0.41766995084E+03  0.41766995084E+03  0.00000000000E+00 0. -1.
         21   -1    0    0  501  502 -0.00000000000E+00 -0.00000000000E+00 -0.36705662745E+03  0.36705662745E+03  0.00000000000E+00 0. -1.
         25    1    1    2    0    0  0.50745579646E+02  0.54326034823E+02  0.16633781070E+02  0.14638345052E+03  0.12500000000E+03 0.  0.
         25    1    1    2    0    0  0.18594038867E+03 -0.70938087477E+02 -0.17937511769E+03  0.29564585781E+03  0.12500000000E+03 0.  0.
         25    1    1    2    0    0 -0.23668596831E+03  0.16612052654E+02  0.21335466001E+03  0.34269726996E+03  0.12500000000E+03 0.  0.
</event>
<event>
 5    0  0.5663008E-005  0.2356119E+03  0.7546771E-02  0.1122751E+00
         21   -1    0    0  502  501  0.00000000000E+00  0.00000000000E+00  0.33996521599E+03  0.33996521599E+03  0.00000000000E+00 0. -1.
         21   -1    0    0  501  502 -0.00000000000E+00 -0.00000000000E+00 -0.16329010315E+03  0.16329010315E+03  0.00000000000E+00 0. -1.
         25    1    1    2    0    0 -0.41999503758E+02  0.21930037432E+02  0.18187464216E+03  0.22571723532E+03  0.12500000000E+03 0.  0.
         25    1    1    2    0    0  0.67019732536E+02  0.18358519481E+02  0.76957994397E+01  0.14322327016E+03  0.12500000000E+03 0.  0.
         25    1    1    2    0    0 -0.25020228779E+02 -0.40288556913E+02 -0.12895328761E+02  0.13431481367E+03  0.12500000000E+03 0.  0.
</event>
<event>
 5    0  0.5663008E-005  0.2873192E+03  0.7546771E-02  0.1091757E+00
         21   -1    0    0  502  501  0.00000000000E+00  0.00000000000E+00  0.42294544071E+03  0.42294544071E+03  0.00000000000E+00 0.  1.
         21   -1    0    0  501  502 -0.00000000000E+00 -0.00000000000E+00 -0.19518426936E+03  0.19518426936E+03  0.00000000000E+00 0.  1.
         25    1    1    2    0    0 -0.84660874015E+02  0.17441618528E+03  0.40951303703E+02  0.23428717112E+03  0.12500000000E+03 0.  0.
         25    1    1    2    0    0  0.67728181891E+02 -0.14601893261E+03  0.13551640054E+03  0.24474135352E+03  0.12500000000E+03 0.  0.
         25    1    1    2    0    0  0.16932692124E+02 -0.28397252665E+02  0.51293467103E+02  0.13910118543E+03  0.12500000000E+03 0.  0.
</event>
<event>
 5    0  0.5663008E-005  0.3238272E+03  0.7546771E-02  0.1073901E+00
         21   -1    0    0  502  501  0.00000000000E+00  0.00000000000E+00  0.90301944330E+02  0.90301944330E+02  0.00000000000E+00 0. -1.
         21   -1    0    0  501  502 -0.00000000000E+00 -0.00000000000E+00 -0.11612601689E+04  0.11612601689E+04  0.00000000000E+00 0. -1.
         25    1    1    2    0    0  0.51810174807E+02  0.46407355732E+02 -0.35004865906E+03  0.37814944214E+03  0.12500000000E+03 0.  0.
         25    1    1    2    0    0 -0.16772808528E+03 -0.80912251546E+02 -0.13398754521E+03  0.26126072286E+03  0.12500000000E+03 0.  0.
         25    1    1    2    0    0  0.11591791047E+03  0.34504895814E+02 -0.58692202027E+03  0.61215194820E+03  0.12500000000E+03 0.  0.
</event>
<event>
 5    0  0.5663008E-005  0.3084776E+03  0.7546771E-02  0.1081078E+00
         21   -1    0    0  502  501  0.00000000000E+00  0.00000000000E+00  0.58381303798E+02  0.58381303798E+02  0.00000000000E+00 0. -1.
         21   -1    0    0  501  502 -0.00000000000E+00 -0.00000000000E+00 -0.16299471316E+04  0.16299471316E+04  0.00000000000E+00 0. -1.
         25    1    1    2    0    0  0.31556905879E+02 -0.89083262491E+02 -0.13862086674E+03  0.20921857150E+03  0.12500000000E+03 0.  0.
         25    1    1    2    0    0  0.66934122055E+01  0.48213385240E+01 -0.19726110595E+03  0.23367710841E+03  0.12500000000E+03 0.  0.
         25    1    1    2    0    0 -0.38250318084E+02  0.84261923967E+02 -0.12356838551E+04  0.12454327555E+04  0.12500000000E+03 0.  0.
</event>
<event>
 5    0  0.5663008E-005  0.3194491E+03  0.7546771E-02  0.1075903E+00
         21   -1    0    0  502  501  0.00000000000E+00  0.00000000000E+00  0.36692917071E+03  0.36692917071E+03  0.00000000000E+00 0.  1.
         21   -1    0    0  501  502 -0.00000000000E+00 -0.00000000000E+00 -0.27811288026E+03  0.27811288026E+03  0.00000000000E+00 0.  1.
         25    1    1    2    0    0 -0.30542208609E+02 -0.12084436538E+03 -0.14397114379E+03  0.22779130228E+03  0.12500000000E+03 0.  0.
         25    1    1    2    0    0 -0.81417931296E+02  0.86843082104E+02  0.92116359174E+02  0.19565537067E+03  0.12500000000E+03 0.  0.
         25    1    1    2    0    0  0.11196013990E+03  0.34001283275E+02  0.14067107508E+03  0.22159537801E+03  0.12500000000E+03 0.  0.
</event>
<event>
 5    0  0.5663008E-005  0.3119245E+03  0.7546771E-02  0.1079427E+00
         21   -1    0    0  502  501  0.00000000000E+00  0.00000000000E+00  0.29459703966E+03  0.29459703966E+03  0.00000000000E+00 0.  1.
         21   -1    0    0  501  502 -0.00000000000E+00 -0.00000000000E+00 -0.33027107881E+03  0.33027107881E+03  0.00000000000E+00 0.  1.
         25    1    1    2    0    0 -0.29218234851E+02  0.62651861209E+02  0.10750100356E+03  0.17877479332E+03  0.12500000000E+03 0.  0.
         25    1    1    2    0    0 -0.12722918615E+02  0.10979555575E+03 -0.15628735676E+03  0.22862124705E+03  0.12500000000E+03 0.  0.
         25    1    1    2    0    0  0.41941153466E+02 -0.17244741696E+03  0.13112314044E+02  0.21747207809E+03  0.12500000000E+03 0.  0.
</event>
<event>
 5    0  0.5663008E-005  0.3653163E+03  0.7546771E-02  0.1056498E+00
         21   -1    0    0  502  501  0.00000000000E+00  0.00000000000E+00  0.46965147667E+03  0.46965147667E+03  0.00000000000E+00 0. -1.
         21   -1    0    0  501  502 -0.00000000000E+00 -0.00000000000E+00 -0.28415960708E+03  0.28415960708E+03  0.00000000000E+00 0. -1.
         25    1    1    2    0    0 -0.13255647563E+03  0.43417505466E+02  0.66825160039E+02  0.19886402648E+03  0.12500000000E+03 0.  0.
         25    1    1    2    0    0 -0.33014926031E+02 -0.22408991340E+03  0.92268106658E+01  0.25887527627E+03  0.12500000000E+03 0.  0.
         25    1    1    2    0    0  0.16557140166E+03  0.18067240793E+03  0.10943989889E+03  0.29607178100E+03  0.12500000000E+03 0.  0.
</event>
<event>
 5    0  0.5663008E-005  0.2594780E+03  0.7546771E-02  0.1107457E+00
         21   -1    0    0  502  501  0.00000000000E+00  0.00000000000E+00  0.16404166381E+04  0.16404166381E+04  0.00000000000E+00 0.  1.
         21   -1    0    0  501  502 -0.00000000000E+00 -0.00000000000E+00 -0.41043744877E+02  0.41043744877E+02  0.00000000000E+00 0.  1.
         25    1    1    2    0    0 -0.57469131623E+00  0.70366917781E+02  0.54920108043E+03  0.56762545761E+03  0.12500000000E+03 0.  0.
         25    1    1    2    0    0 -0.52840977310E+02  0.34586845681E+02  0.78849766807E+03  0.80083830536E+03  0.12500000000E+03 0.  0.
         25    1    1    2    0    0  0.53415668627E+02 -0.10495376346E+03  0.26167414475E+03  0.31299662003E+03  0.12500000000E+03 0.  0.
</event>
<event>
 5    0  0.5663008E-005  0.2385710E+03  0.7546771E-02  0.1120748E+00
         21   -1    0    0  502  501  0.00000000000E+00  0.00000000000E+00  0.60457994694E+03  0.60457994694E+03  0.00000000000E+00 0. -1.
         21   -1    0    0  501  502 -0.00000000000E+00 -0.00000000000E+00 -0.94141633463E+02  0.94141633463E+02  0.00000000000E+00 0. -1.
         25    1    1    2    0    0  0.64454912791E+02  0.62503720216E+02  0.18546336662E+03  0.24100375761E+03  0.12500000000E+03 0.  0.
         25    1    1    2    0    0  0.47905130377E+02 -0.73614254262E+02  0.13560953642E+03  0.20427654372E+03  0.12500000000E+03 0.  0.
         25    1    1    2    0    0 -0.11236004317E+03  0.11110534046E+02  0.18936541044E+03  0.25344127907E+03  0.12500000000E+03 0.  0.
</event>
<event>
 5    0  0.5663008E-005  0.3621185E+03  0.7546771E-02  0.1057748E+00
         21   -1    0    0  502  501  0.00000000000E+00  0.00000000000E+00  0.51400601127E+02  0.51400601127E+02  0.00000000000E+00 0. -1.
         21   -1    0    0  501  502 -0.00000000000E+00 -0.00000000000E+00 -0.25511336041E+04  0.25511336041E+04  0.00000000000E+00 0. -1.
         25    1    1    2    0    0  0.10565394218E+02 -0.11949426894E+03 -0.12889444099E+04  0.13005357357E+04  0.12500000000E+03 0.  0.
         25    1    1    2    0    0  0.55924497717E+02  0.30615997180E+02 -0.85407207483E+02  0.16426892530E+03  0.12500000000E+03 0.  0.
         25    1    1    2    0    0 -0.66489891934E+02  0.88878271758E+02 -0.11253813856E+04  0.11377295443E+04  0.12500000000E+03 0.  0.
</event>
<event>
 5    0  0.5663008E-005  0.2575198E+03  0.7546771E-02  0.1108643E+00
         21   -1    0    0  502  501  0.00000000000E+00  0.00000000000E+00  0.41482517469E+03  0.41482517469E+03  0.00000000000E+00 0. -1.
         21   -1    0    0  501  502 -0.00000000000E+00 -0.00000000000E+00 -0.15986600348E+03  0.15986600348E+03  0.00000000000E+00 0. -1.
         25    1    1    2    0    0  0.73451695828E+02  0.40038434467E+02  0.72477356912E+01  0.15058471877E+03  0.12500000000E+03 0.  0.
         25    1    1    2    0    0  0.45381331872E+02 -0.10604259520E+02  0.16894963795E+02  0.13447064886E+03  0.12500000000E+03 0.  0.
         25    1    1    2    0    0 -0.11883302770E+03 -0.29434174947E+02  0.23081647172E+03  0.28963581054E+03  0.12500000000E+03 0.  0.
</event>
<event>
 5    0  0.5663008E-005  0.2132515E+03  0.7546771E-02  0.1139017E+00
         21   -1    0    0  502  501  0.00000000000E+00  0.00000000000E+00  0.97415150488E+03  0.97415150488E+03  0.00000000000E+00 0. -1.
         21   -1    0    0  501  502 -0.00000000000E+00 -0.00000000000E+00 -0.46682898944E+02  0.46682898944E+02  0.00000000000E+00 0. -1.
         25    1    1    2    0    0 -0.36998830371E+02  0.16806791453E+02  0.16055440439E+03  0.20749481549E+03  0.12500000000E+03 0.  0.
         25    1    1    2    0    0  0.31033136505E+02 -0.40737817326E+02  0.29374570523E+03  0.32331743637E+03  0.12500000000E+03 0.  0.
         25    1    1    2    0    0  0.59656938662E+01  0.23931025873E+02  0.47316849631E+03  0.49002215196E+03  0.12500000000E+03 0.  0.
</event>
<event>
 5    0  0.5663008E-005  0.3004336E+03  0.7546771E-02  0.1085024E+00
         21   -1    0    0  502  501  0.00000000000E+00  0.00000000000E+00  0.31528703384E+03  0.31528703384E+03  0.00000000000E+00 0. -1.
         21   -1    0    0  501  502 -0.00000000000E+00 -0.00000000000E+00 -0.28627999685E+03  0.28627999685E+03  0.00000000000E+00 0. -1.
         25    1    1    2    0    0 -0.63063319540E+02 -0.45490712032E+02 -0.18429700379E+03  0.23587448518E+03  0.12500000000E+03 0.  0.
         25    1    1    2    0    0  0.63197654557E+02 -0.34783917363E+02  0.13564695326E+03  0.19806302122E+03  0.12500000000E+03 0.  0.
         25    1    1    2    0    0 -0.13433501675E+00  0.80274629395E+02  0.77657087526E+02  0.16762952429E+03  0.12500000000E+03 0.  0.
</event>
<event>
 5    0  0.5663008E-005  0.3539634E+03  0.7546771E-02  0.1061000E+00
         21   -1    0    0  502  501  0.00000000000E+00  0.00000000000E+00  0.15058947277E+04  0.15058947277E+04  0.00000000000E+00 0.  1.
         21   -1    0    0  501  502 -0.00000000000E+00 -0.00000000000E+00 -0.83199776281E+02  0.83199776281E+02  0.00000000000E+00 0.  1.
         25    1    1    2    0    0 -0.99954119836E+02 -0.17572392470E+03  0.53270997079E+03  0.58333064103E+03  0.12500000000E+03 0.  0.
         25    1    1    2    0    0  0.14534247292E+03  0.22997357232E+03  0.73916626979E+03  0.79749862245E+03  0.12500000000E+03 0.  0.
         25    1    1    2    0    0 -0.45388353088E+02 -0.54249647623E+02  0.15081871082E+03  0.20826524049E+03  0.12500000000E+03 0.  0.
</event>
<event>
 5    0  0.5663008E-005  0.2514597E+03  0.7546771E-02  0.1112386E+00
         21   -1    0    0  502  501  0.00000000000E+00  0.00000000000E+00  0.45018847882E+03  0.45018847882E+03  0.00000000000E+00 0.  1.
         21   -1    0    0  501  502 -0.00000000000E+00 -0.00000000000E+00 -0.14045673185E+03  0.14045673185E+03  0.00000000000E+00 0.  1.
         25    1    1    2    0    0 -0.47877525143E+02  0.46751507194E+02  0.55969423270E+02  0.15243207399E+03  0.12500000000E+03 0.  0.
         25    1    1    2    0    0 -0.97777579289E+01 -0.15965983816E+02  0.26812957863E+03  0.29642703676E+03  0.12500000000E+03 0.  0.
         25    1    1    2    0    0  0.57655283072E+02 -0.30785523379E+02 -0.14367254934E+02  0.14178609992E+03  0.12500000000E+03 0.  0.
</event>
<event>
 5    0  0.5663008E-005  0.3829620E+03  0.7546771E-02  0.1049844E+00
         21   -1    0    0  502  501  0.00000000000E+00  0.00000000000E+00  0.16389400397E+03  0.16389400397E+03  0.00000000000E+00 0.  1.
         21   -1    0    0  501  502 -0.00000000000E+00 -0.00000000000E+00 -0.89484582513E+03  0.89484582513E+03  0.00000000000E+00 0.  1.
         25    1    1    2    0    0  0.23228762385E+03 -0.46275989116E+02 -0.67344120274E+02  0.27615075212E+03  0.12500000000E+03 0.  0.
         25    1    1    2    0    0 -0.14636045877E+03  0.67020790902E+02 -0.56461908445E+03  0.60027733660E+03  0.12500000000E+03 0.  0.
         25    1    1    2    0    0 -0.85927165082E+02 -0.20744801786E+02 -0.98988616432E+02  0.18231174039E+03  0.12500000000E+03 0.  0.
</event>
<event>
 5    0  0.5663008E-005  0.2345975E+03  0.7546771E-02  0.1123445E+00
         21   -1    0    0  502  501  0.00000000000E+00  0.00000000000E+00  0.76204869645E+03  0.76204869645E+03  0.00000000000E+00 0.  1.
         21   -1    0    0  501  502 -0.00000000000E+00 -0.00000000000E+00 -0.72221061432E+02  0.72221061432E+02  0.00000000000E+00 0.  1.
         25    1    1    2    0    0 -0.94219366534E+01  0.45218708782E+02  0.23129490916E+03  0.26693789449E+03  0.12500000000E+03 0.  0.
         25    1    1    2    0    0  0.15893952862E+01  0.66298146399E+02  0.10552959336E+03  0.17652043924E+03  0.12500000000E+03 0.  0.
         25    1    1    2    0    0  0.78325413672E+01 -0.11151685518E+03  0.35300313250E+03  0.39081142416E+03  0.12500000000E+03 0.  0.
</event>
<event>
 5    0  0.5663008E-005  0.3499896E+03  0.7546771E-02  0.1062619E+00
         21   -1    0    0  502  501  0.00000000000E+00  0.00000000000E+00  0.80075600097E+02  0.80075600097E+02  0.00000000000E+00 0.  1.
         21   -1    0    0  501  502 -0.00000000000E+00 -0.00000000000E+00 -0.15297135493E+04  0.15297135493E+04  0.00000000000E+00 0.  1.
         25    1    1    2    0    0 -0.18349856081E+03  0.11455393064E+01 -0.29741253502E+03  0.37114990242E+03  0.12500000000E+03 0.  0.
         25    1    1    2    0    0 -0.61256141989E+02  0.67711497515E+02 -0.26087834487E+03  0.30334744543E+03  0.12500000000E+03 0.  0.
         25    1    1    2    0    0  0.24475470280E+03 -0.68857036822E+02 -0.89134706928E+03  0.93529180151E+03  0.12500000000E+03 0.  0.
</event>
<event>
 5    0  0.5663008E-005  0.3929042E+03  0.7546771E-02  0.1046265E+00
         21   -1    0    0  502  501  0.00000000000E+00  0.00000000000E+00  0.50521817406E+03  0.50521817406E+03  0.00000000000E+00 0.  1.
         21   -1    0    0  501  502 -0.00000000000E+00 -0.00000000000E+00 -0.30555855787E+03  0.30555855787E+03  0.00000000000E+00 0.  1.
         25    1    1    2    0    0 -0.19155464403E+03  0.10435081524E+03  0.24827955773E+03  0.35334121339E+03  0.12500000000E+03 0.  0.
         25    1    1    2    0    0 -0.33727055062E+02 -0.64618453508E+02 -0.11908000104E+03  0.18739825353E+03  0.12500000000E+03 0.  0.
         25    1    1    2    0    0  0.22528169909E+03 -0.39732361733E+02  0.70460059492E+02  0.27003726501E+03  0.12500000000E+03 0.  0.
</event>
<event>
 5    0  0.5663008E-005  0.3938542E+03  0.7546771E-02  0.1045929E+00
         21   -1    0    0  502  501  0.00000000000E+00  0.00000000000E+00  0.13882349665E+03  0.13882349665E+03  0.00000000000E+00 0. -1.
         21   -1    0    0  501  502 -0.00000000000E+00 -0.00000000000E+00 -0.11173979799E+04  0.11173979799E+04  0.00000000000E+00 0. -1.
         25    1    1    2    0    0  0.10467799055E+03 -0.13221493874E+03 -0.16535065843E+03  0.26721547854E+03  0.12500000000E+03 0.  0.
         25    1    1    2    0    0  0.26518712138E+02  0.21718553940E+03 -0.72996545288E+03  0.77223530288E+03  0.12500000000E+03 0.  0.
         25    1    1    2    0    0 -0.13119670268E+03 -0.84970600655E+02 -0.83258371950E+02  0.21677069514E+03  0.12500000000E+03 0.  0.
</event>
<event>
 5    0  0.5663008E-005  0.2911058E+03  0.7546771E-02  0.1089773E+00
         21   -1    0    0  502  501  0.00000000000E+00  0.00000000000E+00  0.32812965390E+03  0.32812965390E+03  0.00000000000E+00 0.  1.
         21   -1    0    0  501  502 -0.00000000000E+00 -0.00000000000E+00 -0.25825941880E+03  0.25825941880E+03  0.00000000000E+00 0.  1.
         25    1    1    2    0    0  0.80718071449E+02  0.16168148663E+03  0.13492492134E+03  0.25784887934E+03  0.12500000000E+03 0.  0.
         25    1    1    2    0    0 -0.57158310647E+02 -0.12901115904E+03 -0.57109494505E+02  0.19697067293E+03  0.12500000000E+03 0.  0.
         25    1    1    2    0    0 -0.23559760802E+02 -0.32670327586E+02 -0.79451917372E+01  0.13156952043E+03  0.12500000000E+03 0.  0.
</event>
<event>
 5    0  0.5663008E-005  0.2494894E+03  0.7546771E-02  0.1113628E+00
         21   -1    0    0  502  501  0.00000000000E+00  0.00000000000E+00  0.35885089954E+03  0.35885089954E+03  0.00000000000E+00 0. -1.
         21   -1    0    0  501  502 -0.00000000000E+00 -0.00000000000E+00 -0.17345633679E+03  0.17345633679E+03  0.00000000000E+00 0. -1.
         25    1    1    2    0    0 -0.38377119141E+02  0.59153749362E+02 -0.20910597690E+02  0.14503179801E+03  0.12500000000E+03 0.  0.
         25    1    1    2    0    0  0.81717868912E+02 -0.63565215290E+02  0.27212984682E+02  0.16457184823E+03  0.12500000000E+03 0.  0.
         25    1    1    2    0    0 -0.43340749771E+02  0.44114659278E+01  0.17909217576E+03  0.22270359009E+03  0.12500000000E+03 0.  0.
</event>
<event>
 5    0  0.5663008E-005  0.2783830E+03  0.7546771E-02  0.1096575E+00
         21   -1    0    0  502  501  0.00000000000E+00  0.00000000000E+00  0.44438570990E+03  0.44438570990E+03  0.00000000000E+00 0.  1.
         21   -1    0    0  501  502 -0.00000000000E+00 -0.00000000000E+00 -0.17439151720E+03  0.17439151720E+03  0.00000000000E+00 0.  1.
         25    1    1    2    0    0 -0.12628764318E+03 -0.50021863830E+02  0.36424295288E+02  0.18815548083E+03  0.12500000000E+03 0.  0.
         25    1    1    2    0    0  0.20171393648E+02  0.33214555630E+02 -0.15642702096E+02  0.13183241618E+03  0.12500000000E+03 0.  0.
         25    1    1    2    0    0  0.10611624953E+03  0.16807308200E+02  0.24921259950E+03  0.29878933008E+03  0.12500000000E+03 0.  0.
</event>
<event>
 5    0  0.5663008E-005  0.5131917E+03  0.7546771E-02  0.1010392E+00
         21   -1    0    0  502  501  0.00000000000E+00  0.00000000000E+00  0.69192913150E+03  0.69192913150E+03  0.00000000000E+00 0. -1.
         21   -1    0    0  501  502 -0.00000000000E+00 -0.00000000000E+00 -0.38062527501E+03  0.38062527501E+03  0.00000000000E+00 0. -1.
         25    1    1    2    0    0 -0.11519604316E+03 -0.28295266174E+02 -0.95119099328E+02  0.19683341562E+03  0.12500000000E+03 0.  0.
         25    1    1    2    0    0 -0.14486924212E+03  0.31311049401E+03  0.23355603769E+03  0.43496977081E+03  0.12500000000E+03 0.  0.
         25    1    1    2    0    0  0.26006528528E+03 -0.28481522784E+03  0.17286691813E+03  0.44075122008E+03  0.12500000000E+03 0.  0.
</event>
<event>
 5    0  0.6331119E-005  0.3877937E+03  0.7546771E-02  0.1048090E+00
         21   -1    0    0  502  501  0.00000000000E+00  0.00000000000E+00  0.68672319354E+03  0.68672319354E+03  0.00000000000E+00 0.  1.
         21   -1    0    0  501  502 -0.00000000000E+00 -0.00000000000E+00 -0.21898776018E+03  0.21898776018E+03  0.00000000000E+00 0.  1.
         25    1    1    2    0    0  0.88255453851E+02  0.17097808665E+03 -0.46721724490E+02  0.23415902884E+03  0.12500000000E+03 0.  0.
         25    1    1    2    0    0 -0.15566200717E+03 -0.21273358770E+02  0.14253205797E+03  0.24621860981E+03  0.12500000000E+03 0.  0.
         25    1    1    2    0    0  0.67406553322E+02 -0.14970472788E+03  0.37192509988E+03  0.42533331506E+03  0.12500000000E+03 0.  0.
</event>
<event>
 5    0  0.5663008E-005  0.3120662E+03  0.7546771E-02  0.1079360E+00
         21   -1    0    0  502  501  0.00000000000E+00  0.00000000000E+00  0.11203788021E+03  0.11203788021E+03  0.00000000000E+00 0. -1.
         21   -1    0    0  501  502 -0.00000000000E+00 -0.00000000000E+00 -0.86921769882E+03  0.86921769882E+03  0.00000000000E+00 0. -1.
         25    1    1    2    0    0 -0.28760374624E+02  0.15454356167E+03 -0.15875245293E+03  0.25600432206E+03  0.12500000000E+03 0.  0.
         25    1    1    2    0    0 -0.10432890036E+03 -0.11243199819E+03 -0.18298784943E+03  0.26950886201E+03  0.12500000000E+03 0.  0.
         25    1    1    2    0    0  0.13308927498E+03 -0.42111563477E+02 -0.41543951625E+03  0.45574239495E+03  0.12500000000E+03 0.  0.
</event>
<event>
 5    0  0.5663008E-005  0.2900173E+03  0.7546771E-02  0.1090340E+00
         21   -1    0    0  502  501  0.00000000000E+00  0.00000000000E+00  0.12840630689E+04  0.12840630689E+04  0.00000000000E+00 0. -1.
         21   -1    0    0  501  502 -0.00000000000E+00 -0.00000000000E+00 -0.65503034383E+02  0.65503034383E+02  0.00000000000E+00 0. -1.
         25    1    1    2    0    0 -0.23255256030E+02 -0.82713295946E+02  0.38143628956E+03  0.41048865910E+03  0.12500000000E+03 0.  0.
         25    1    1    2    0    0 -0.13258726935E+02 -0.95141191562E+02  0.57683769587E+03  0.59799194606E+03  0.12500000000E+03 0.  0.
         25    1    1    2    0    0  0.36513982964E+02  0.17785448751E+03  0.26028604907E+03  0.34108549811E+03  0.12500000000E+03 0.  0.
</event>
<event>
 5    0  0.5663008E-005  0.3440433E+03  0.7546771E-02  0.1065087E+00
         21   -1    0    0  502  501  0.00000000000E+00  0.00000000000E+00  0.88647125630E+02  0.88647125630E+02  0.00000000000E+00 0. -1.
         21   -1    0    0  501  502 -0.00000000000E+00 -0.00000000000E+00 -0.13352470909E+04  0.13352470909E+04  0.00000000000E+00 0. -1.
         25    1    1    2    0    0  0.63546380527E+02  0.63222316627E-01  0.17349770497E+01  0.14023607460E+03  0.12500000000E+03 0.  0.
         25    1    1    2    0    0  0.70873815054E+01  0.11034535034E+02 -0.31282636223E+03  0.33713102030E+03  0.12500000000E+03 0.  0.
         25    1    1    2    0    0 -0.70633762033E+02 -0.11097757351E+02 -0.93550858009E+03  0.94652712163E+03  0.12500000000E+03 0.  0.
</event>
<event>
 5    0  0.5663008E-005  0.6630818E+03  0.7546771E-02  0.9782537E-01
         21   -1    0    0  502  501  0.00000000000E+00  0.00000000000E+00  0.91417885312E+03  0.91417885312E+03  0.00000000000E+00 0. -1.
         21   -1    0    0  501  502 -0.00000000000E+00 -0.00000000000E+00 -0.48095344310E+03  0.48095344310E+03  0.00000000000E+00 0. -1.
         25    1    1    2    0    0  0.44300357782E+02 -0.39403066908E+03  0.47491689956E+02  0.41845328352E+03  0.12500000000E+03 0.  0.
         25    1    1    2    0    0  0.30606659217E+03  0.41857297197E+02 -0.35879645251E+01  0.33326665849E+03  0.12500000000E+03 0.  0.
         25    1    1    2    0    0 -0.35036694995E+03  0.35217337188E+03  0.38932168459E+03  0.64341235422E+03  0.12500000000E+03 0.  0.
</event>
<event>
 5    0  0.5663008E-005  0.3825503E+03  0.7546771E-02  0.1049995E+00
         21   -1    0    0  502  501  0.00000000000E+00  0.00000000000E+00  0.95599059480E+03  0.95599059480E+03  0.00000000000E+00 0. -1.
         21   -1    0    0  501  502 -0.00000000000E+00 -0.00000000000E+00 -0.15308180961E+03  0.15308180961E+03  0.00000000000E+00 0. -1.
         25    1    1    2    0    0  0.42773076342E+02 -0.57622952626E+01  0.29925851524E+01  0.13227507578E+03  0.12500000000E+03 0.  0.
         25    1    1    2    0    0 -0.17264091912E+03 -0.18101419519E+03  0.54726963827E+03  0.61457308986E+03  0.12500000000E+03 0.  0.
         25    1    1    2    0    0  0.12986784278E+03  0.18677649045E+03  0.25264656177E+03  0.36222423876E+03  0.12500000000E+03 0.  0.
</event>
<event>
 5    0  0.5663008E-005  0.2962308E+03  0.7546771E-02  0.1087140E+00
         21   -1    0    0  502  501  0.00000000000E+00  0.00000000000E+00  0.60165204117E+02  0.60165204117E+02  0.00000000000E+00 0.  1.
         21   -1    0    0  501  502 -0.00000000000E+00 -0.00000000000E+00 -0.14585292806E+04  0.14585292806E+04  0.00000000000E+00 0.  1.
         25    1    1    2    0    0 -0.16592494429E+03 -0.75021948841E+02 -0.56978094992E+03  0.61109304597E+03  0.12500000000E+03 0.  0.
         25    1    1    2    0    0  0.95310504996E+02 -0.40227811859E+02 -0.55196114753E+03  0.57531598065E+03  0.12500000000E+03 0.  0.
         25    1    1    2    0    0  0.70614439299E+02  0.11524976070E+03 -0.27662197907E+03  0.33228545813E+03  0.12500000000E+03 0.  0.
</event>
<event>
 5    0  0.5663008E-005  0.2968431E+03  0.7546771E-02  0.1086829E+00
         21   -1    0    0  502  501  0.00000000000E+00  0.00000000000E+00  0.30381148768E+03  0.30381148768E+03  0.00000000000E+00 0.  1.
         21   -1    0    0  501  502 -0.00000000000E+00 -0.00000000000E+00 -0.29003445771E+03  0.29003445771E+03  0.00000000000E+00 0.  1.
         25    1    1    2    0    0  0.76439981526E+02 -0.10891629835E+03  0.51356393224E+02  0.18965313060E+03  0.12500000000E+03 0.  0.
         25    1    1    2    0    0  0.65041098538E+02  0.13192485222E+03 -0.80635143296E+02  0.20919258464E+03  0.12500000000E+03 0.  0.
         25    1    1    2    0    0 -0.14148108006E+03 -0.23008553878E+02  0.43055780042E+02  0.19500023016E+03  0.12500000000E+03 0.  0.
</event>
<event>
 5    0  0.5663008E-005  0.5282884E+03  0.7546771E-02  0.1006648E+00
         21   -1    0    0  502  501  0.00000000000E+00  0.00000000000E+00  0.26345875986E+03  0.26345875986E+03  0.00000000000E+00 0. -1.
         21   -1    0    0  501  502 -0.00000000000E+00 -0.00000000000E+00 -0.10593255750E+04  0.10593255750E+04  0.00000000000E+00 0. -1.
         25    1    1    2    0    0 -0.40352370530E+03 -0.63191829107E+02 -0.46860911538E+03  0.63406946861E+03  0.12500000000E+03 0.  0.
         25    1    1    2    0    0 -0.60417296782E+00 -0.91591223050E+02 -0.70731876685E+02  0.17034469626E+03  0.12500000000E+03 0.  0.
         25    1    1    2    0    0  0.40412787827E+03  0.15478305216E+03 -0.25652582309E+03  0.51837017000E+03  0.12500000000E+03 0.  0.
</event>
<event>
 5    0  0.5663008E-005  0.5615881E+03  0.7546771E-02  0.9988468E-01
         21   -1    0    0  502  501  0.00000000000E+00  0.00000000000E+00  0.26256395340E+04  0.26256395340E+04  0.00000000000E+00 0. -1.
         21   -1    0    0  501  502 -0.00000000000E+00 -0.00000000000E+00 -0.12011593957E+03  0.12011593957E+03  0.00000000000E+00 0. -1.
         25    1    1    2    0    0  0.17311964099E+03 -0.37510580382E+03  0.58740338634E+03  0.72893244710E+03  0.12500000000E+03 0.  0.
         25    1    1    2    0    0 -0.27019298936E+03  0.20352588265E+03  0.84723931920E+03  0.92079666616E+03  0.12500000000E+03 0.  0.
         25    1    1    2    0    0  0.97073348376E+02  0.17157992117E+03  0.10708808889E+04  0.10960263603E+04  0.12500000000E+03 0.  0.
</event>
<event>
 5    0  0.5663008E-005  0.2494785E+03  0.7546771E-02  0.1113635E+00
         21   -1    0    0  502  501  0.00000000000E+00  0.00000000000E+00  0.29772892553E+03  0.29772892553E+03  0.00000000000E+00 0.  1.
         21   -1    0    0  501  502 -0.00000000000E+00 -0.00000000000E+00 -0.20904758692E+03  0.20904758692E+03  0.00000000000E+00 0.  1.
         25    1    1    2    0    0 -0.16698238346E+02  0.53144455776E+02 -0.13599547954E+02  0.13752495064E+03  0.12500000000E+03 0.  0.
         25    1    1    2    0    0 -0.23734398714E+02 -0.14608059143E+03  0.50398309175E+02  0.20016955423E+03  0.12500000000E+03 0.  0.
         25    1    1    2    0    0  0.40432637059E+02  0.92936135652E+02  0.51882577386E+02  0.16908200758E+03  0.12500000000E+03 0.  0.
</event>
<event>
 5    0  0.5788319E-005  0.2817303E+03  0.7546771E-02  0.1094748E+00
         21   -1    0    0  502  501  0.00000000000E+00  0.00000000000E+00  0.10944713526E+03  0.10944713526E+03  0.00000000000E+00 0. -1.
         21   -1    0    0  501  502 -0.00000000000E+00 -0.00000000000E+00 -0.72520837818E+03  0.72520837818E+03  0.00000000000E+00 0. -1.
         25    1    1    2    0    0 -0.47294895859E+02  0.13105650716E+03 -0.12877891092E+03  0.22720392413E+03  0.12500000000E+03 0.  0.
         25    1    1    2    0    0 -0.46808187210E+02  0.25575723348E+02 -0.13449030018E+03  0.19120084952E+03  0.12500000000E+03 0.  0.
         25    1    1    2    0    0  0.94103083069E+02 -0.15663223050E+03 -0.35249203183E+03  0.41625073979E+03  0.12500000000E+03 0.  0.
</event>
<event>
 5    0  0.5734866E-005  0.6082881E+03  0.7546771E-02  0.9888359E-01
         21   -1    0    0  502  501  0.00000000000E+00  0.00000000000E+00  0.64706940262E+03  0.64706940262E+03  0.00000000000E+00 0.  1.
         21   -1    0    0  501  502 -0.00000000000E+00 -0.00000000000E+00 -0.57183110327E+03  0.57183110327E+03  0.00000000000E+00 0.  1.
         25    1    1    2    0    0  0.13371810657E+03  0.25314214778E+00 -0.22654643176E+03  0.29125398168E+03  0.12500000000E+03 0.  0.
         25    1    1    2    0    0 -0.24114110646E+03  0.37010403776E+03  0.23859214134E+03  0.51737533948E+03  0.12500000000E+03 0.  0.
         25    1    1    2    0    0  0.10742299989E+03 -0.37035717991E+03  0.63192589767E+02  0.41027118473E+03  0.12500000000E+03 0.  0.
</event>
<event>
 5    0  0.5663008E-005  0.6154144E+03  0.7546771E-02  0.9873932E-01
         21   -1    0    0  502  501  0.00000000000E+00  0.00000000000E+00  0.77942715765E+03  0.77942715765E+03  0.00000000000E+00 0.  1.
         21   -1    0    0  501  502 -0.00000000000E+00 -0.00000000000E+00 -0.48591439117E+03  0.48591439117E+03  0.00000000000E+00 0.  1.
         25    1    1    2    0    0 -0.37186909697E+03  0.31144061720E+03 -0.11968955454E+03  0.51500725508E+03  0.12500000000E+03 0.  0.
         25    1    1    2    0    0  0.23286826328E+03 -0.15936180392E+03  0.40502559782E+03  0.50920972838E+03  0.12500000000E+03 0.  0.
         25    1    1    2    0    0  0.13900083369E+03 -0.15207881329E+03  0.81767231958E+01  0.24112456536E+03  0.12500000000E+03 0.  0.
</event>
<event>
 5    0  0.5663008E-005  0.5298979E+03  0.7546771E-02  0.1006257E+00
         21   -1    0    0  502  501  0.00000000000E+00  0.00000000000E+00  0.31024410681E+03  0.31024410681E+03  0.00000000000E+00 0.  1.
         21   -1    0    0  501  502 -0.00000000000E+00 -0.00000000000E+00 -0.90506713546E+03  0.90506713546E+03  0.00000000000E+00 0.  1.
         25    1    1    2    0    0  0.10115141526E+03 -0.41561604358E+02 -0.59363356107E+02  0.17637455546E+03  0.12500000000E+03 0.  0.
         25    1    1    2    0    0 -0.45755573590E+01 -0.39569409736E+03 -0.33199124610E+03  0.53144890807E+03  0.12500000000E+03 0.  0.
         25    1    1    2    0    0 -0.96575857900E+02  0.43725570171E+03 -0.20346842644E+03  0.50748777874E+03  0.12500000000E+03 0.  0.
</event>
<event>
 5    0  0.5663008E-005  0.3435310E+03  0.7546771E-02  0.1065302E+00
         21   -1    0    0  502  501  0.00000000000E+00  0.00000000000E+00  0.96334534320E+03  0.96334534320E+03  0.00000000000E+00 0.  1.
         21   -1    0    0  501  502 -0.00000000000E+00 -0.00000000000E+00 -0.12250386192E+03  0.12250386192E+03  0.00000000000E+00 0.  1.
         25    1    1    2    0    0  0.19466402923E+03  0.26703206221E+02  0.14488867611E+03  0.27427153327E+03  0.12500000000E+03 0.  0.
         25    1    1    2    0    0 -0.23595476584E+03  0.22845663459E+02  0.53099549739E+03  0.59479222768E+03  0.12500000000E+03 0.  0.
         25    1    1    2    0    0  0.41290736603E+02 -0.49548869680E+02  0.16495730777E+03  0.21678544417E+03  0.12500000000E+03 0.  0.
</event>
<event>
 5    0  0.5663008E-005  0.2995050E+03  0.7546771E-02  0.1085488E+00
         21   -1    0    0  502  501  0.00000000000E+00  0.00000000000E+00  0.25802618429E+03  0.25802618429E+03  0.00000000000E+00 0.  1.
         21   -1    0    0  501  502 -0.00000000000E+00 -0.00000000000E+00 -0.34765179560E+03  0.34765179560E+03  0.00000000000E+00 0.  1.
         25    1    1    2    0    0  0.18185447701E+03  0.70441820450E+02 -0.15628512962E+03  0.27943361039E+03  0.12500000000E+03 0.  0.
         25    1    1    2    0    0 -0.89199518703E+02 -0.43895876617E+02  0.16207877646E+02  0.16053378902E+03  0.12500000000E+03 0.  0.
         25    1    1    2    0    0 -0.92654958306E+02 -0.26545943834E+02  0.50451640667E+02  0.16571058047E+03  0.12500000000E+03 0.  0.
</event>
<event>
 5    0  0.5663008E-005  0.2844423E+03  0.7546771E-02  0.1093287E+00
         21   -1    0    0  502  501  0.00000000000E+00  0.00000000000E+00  0.33648497075E+03  0.33648497075E+03  0.00000000000E+00 0. -1.
         21   -1    0    0  501  502 -0.00000000000E+00 -0.00000000000E+00 -0.24044887901E+03  0.24044887901E+03  0.00000000000E+00 0.  1.
         25    1    1    2    0    0 -0.11864189819E+02 -0.17875908804E+03  0.88777125923E+02  0.23580065446E+03  0.12500000000E+03 0.  0.
         25    1    1    2    0    0  0.44243109719E+02  0.14765606148E+03 -0.35490280945E+02  0.20160437815E+03  0.12500000000E+03 0.  0.
         25    1    1    2    0    0 -0.32378919900E+02  0.31103026558E+02  0.42749246758E+02  0.13952881714E+03  0.12500000000E+03 0.  0.
</event>
<event>
 5    0  0.5663008E-005  0.5796593E+03  0.7546771E-02  0.9948529E-01
         21   -1    0    0  502  501  0.00000000000E+00  0.00000000000E+00  0.59370436112E+03  0.59370436112E+03  0.00000000000E+00 0.  1.
         21   -1    0    0  501  502 -0.00000000000E+00 -0.00000000000E+00 -0.56594643181E+03  0.56594643181E+03  0.00000000000E+00 0.  1.
         25    1    1    2    0    0  0.22903497360E+03  0.26577090511E+03 -0.19753091470E+03  0.42158588140E+03  0.12500000000E+03 0.  0.
         25    1    1    2    0    0 -0.38444042959E+03 -0.18453455251E+03  0.26741263139E+03  0.51863470806E+03  0.12500000000E+03 0.  0.
         25    1    1    2    0    0  0.15540545600E+03 -0.81236352591E+02 -0.42123787371E+02  0.21943020348E+03  0.12500000000E+03 0.  0.
</event>
<event>
 5    0  0.5792159E-005  0.4310483E+03  0.7546771E-02  0.1033529E+00
         21   -1    0    0  502  501  0.00000000000E+00  0.00000000000E+00  0.14925086258E+03  0.14925086258E+03  0.00000000000E+00 0.  1.
         21   -1    0    0  501  502 -0.00000000000E+00 -0.00000000000E+00 -0.12449017382E+04  0.12449017382E+04  0.00000000000E+00 0.  1.
         25    1    1    2    0    0  0.31695576238E+02  0.42742226919E+02 -0.80773419535E+03  0.81907938434E+03  0.12500000000E+03 0.  0.
         25    1    1    2    0    0  0.88166059890E+02  0.16656372262E+03 -0.13075438848E+03  0.26122487997E+03  0.12500000000E+03 0.  0.
         25    1    1    2    0    0 -0.11986163613E+03 -0.20930594954E+03 -0.15716229174E+03  0.31384833642E+03  0.12500000000E+03 0.  0.
</event>
<event>
 5    0  0.5663008E-005  0.4092175E+03  0.7546771E-02  0.1040634E+00
         21   -1    0    0  502  501  0.00000000000E+00  0.00000000000E+00  0.11627384096E+03  0.11627384096E+03  0.00000000000E+00 0. -1.
         21   -1    0    0  501  502 -0.00000000000E+00 -0.00000000000E+00 -0.14402120851E+04  0.14402120851E+04  0.00000000000E+00 0. -1.
         25    1    1    2    0    0  0.12786013907E+03  0.11653037236E+03 -0.10744393257E+04  0.10954325208E+04  0.12500000000E+03 0.  0.
         25    1    1    2    0    0  0.39212706405E+02  0.27731346561E+02 -0.80546471097E+02  0.15626707245E+03  0.12500000000E+03 0.  0.
         25    1    1    2    0    0 -0.16707284547E+03 -0.14426171892E+03 -0.16895244729E+03  0.30478633284E+03  0.12500000000E+03 0.  0.
</event>
<event>
 5    0  0.5663008E-005  0.3616794E+03  0.7546771E-02  0.1057921E+00
         21   -1    0    0  502  501  0.00000000000E+00  0.00000000000E+00  0.80088165314E+03  0.80088165314E+03  0.00000000000E+00 0. -1.
         21   -1    0    0  501  502 -0.00000000000E+00 -0.00000000000E+00 -0.16333497122E+03  0.16333497122E+03  0.00000000000E+00 0. -1.
         25    1    1    2    0    0 -0.59619913829E+02 -0.42827131229E+02  0.33744912719E+03  0.36726776435E+03  0.12500000000E+03 0.  0.
         25    1    1    2    0    0 -0.29374496163E+02 -0.11727567364E+03 -0.51404360842E+02  0.18133905527E+03  0.12500000000E+03 0.  0.
         25    1    1    2    0    0  0.88994409992E+02  0.16010280486E+03  0.35150191558E+03  0.41560980474E+03  0.12500000000E+03 0.  0.
</event>
<event>
 5    0  0.5663008E-005  0.3044884E+03  0.7546771E-02  0.1083018E+00
         21   -1    0    0  502  501  0.00000000000E+00  0.00000000000E+00  0.94446122920E+02  0.94446122920E+02  0.00000000000E+00 0. -1.
         21   -1    0    0  501  502 -0.00000000000E+00 -0.00000000000E+00 -0.98165134075E+03  0.98165134075E+03  0.00000000000E+00 0. -1.
         25    1    1    2    0    0 -0.49844030392E+02 -0.21059959102E+02 -0.25932136844E+03  0.29291726028E+03  0.12500000000E+03 0.  0.
         25    1    1    2    0    0 -0.20905147604E+02 -0.59745466063E+01 -0.62421520562E+03  0.63697907605E+03  0.12500000000E+03 0.  0.
         25    1    1    2    0    0  0.70749177996E+02  0.27034505709E+02 -0.36686437704E+01  0.14620112733E+03  0.12500000000E+03 0.  0.
</event>
<event>
 5    0  0.5663008E-005  0.5342250E+03  0.7546771E-02  0.1005213E+00
         21   -1    0    0  502  501  0.00000000000E+00  0.00000000000E+00  0.50229178083E+03  0.50229178083E+03  0.00000000000E+00 0.  1.
         21   -1    0    0  501  502 -0.00000000000E+00 -0.00000000000E+00 -0.56818839399E+03  0.56818839399E+03  0.00000000000E+00 0.  1.
         25    1    1    2    0    0  0.29773485053E+03 -0.20830009792E+03  0.56460185338E+02  0.38839120039E+03  0.12500000000E+03 0.  0.
         25    1    1    2    0    0 -0.41643224488E+03  0.17632702809E+03 -0.17226259479E+03  0.49980639949E+03  0.12500000000E+03 0.  0.
         25    1    1    2    0    0  0.11869739435E+03  0.31973069824E+02  0.49905796295E+02  0.18228257493E+03  0.12500000000E+03 0.  0.
</event>
<event>
 5    0  0.5663008E-005  0.2763651E+03  0.7546771E-02  0.1097691E+00
         21   -1    0    0  502  501  0.00000000000E+00  0.00000000000E+00  0.20987302010E+03  0.20987302010E+03  0.00000000000E+00 0.  1.
         21   -1    0    0  501  502 -0.00000000000E+00 -0.00000000000E+00 -0.36392330259E+03  0.36392330259E+03  0.00000000000E+00 0.  1.
         25    1    1    2    0    0 -0.12084857948E+03  0.10306031793E+03 -0.79953602679E+01  0.20227390855E+03  0.12500000000E+03 0.  0.
         25    1    1    2    0    0  0.11481547681E+03 -0.77771684346E+02 -0.13046779901E+02  0.18715300443E+03  0.12500000000E+03 0.  0.
         25    1    1    2    0    0  0.60331026713E+01 -0.25288633581E+02 -0.13300814232E+03  0.18436940972E+03  0.12500000000E+03 0.  0.
</event>
<event>
 5    0  0.5663008E-005  0.3548571E+03  0.7546771E-02  0.1060639E+00
         21   -1    0    0  502  501  0.00000000000E+00  0.00000000000E+00  0.40634826396E+03  0.40634826396E+03  0.00000000000E+00 0.  1.
         21   -1    0    0  501  502 -0.00000000000E+00 -0.00000000000E+00 -0.30989070967E+03  0.30989070967E+03  0.00000000000E+00 0.  1.
         25    1    1    2    0    0 -0.65505629093E+02  0.43512867568E+02  0.80931173528E+02  0.16840193566E+03  0.12500000000E+03 0.  0.
         25    1    1    2    0    0 -0.93604592693E+02 -0.22393960398E+03 -0.23152427308E+02  0.27399233729E+03  0.12500000000E+03 0.  0.
         25    1    1    2    0    0  0.15911022179E+03  0.18042673642E+03  0.38678808067E+02  0.27384470067E+03  0.12500000000E+03 0.  0.
</event>
<event>
 5    0  0.5663008E-005  0.3698088E+03  0.7546771E-02  0.1054766E+00
         21   -1    0    0  502  501  0.00000000000E+00  0.00000000000E+00  0.46919161284E+03  0.46919161284E+03  0.00000000000E+00 0. -1.
         21   -1    0    0  501  502 -0.00000000000E+00 -0.00000000000E+00 -0.29147690147E+03  0.29147690147E+03  0.00000000000E+00 0. -1.
         25    1    1    2    0    0  0.78145579254E+02  0.43831116564E+02  0.12723240955E+03  0.19960206506E+03  0.12500000000E+03 0.  0.
         25    1    1    2    0    0 -0.16465016519E+03 -0.22852023887E+03 -0.27746620173E+02  0.30939626921E+03  0.12500000000E+03 0.  0.
         25    1    1    2    0    0  0.86504585937E+02  0.18468912231E+03  0.78228921990E+02  0.25167018004E+03  0.12500000000E+03 0.  0.
</event>
<event>
 5    0  0.5663008E-005  0.2815408E+03  0.7546771E-02  0.1094850E+00
         21   -1    0    0  502  501  0.00000000000E+00  0.00000000000E+00  0.68942764502E+03  0.68942764502E+03  0.00000000000E+00 0. -1.
         21   -1    0    0  501  502 -0.00000000000E+00 -0.00000000000E+00 -0.11497253987E+03  0.11497253987E+03  0.00000000000E+00 0. -1.
         25    1    1    2    0    0  0.74913548821E+02  0.10699556697E+03  0.66608621844E+02  0.19267018361E+03  0.12500000000E+03 0.  0.
         25    1    1    2    0    0 -0.24916347733E+02 -0.10513415011E+03  0.41904522373E+03  0.45044190906E+03  0.12500000000E+03 0.  0.
         25    1    1    2    0    0 -0.49997201088E+02 -0.18614168602E+01  0.88801259573E+02  0.16128809222E+03  0.12500000000E+03 0.  0.
</event>
<event>
 5    0  0.5663008E-005  0.3476378E+03  0.7546771E-02  0.1063589E+00
         21   -1    0    0  502  501  0.00000000000E+00  0.00000000000E+00  0.89705157664E+03  0.89705157664E+03  0.00000000000E+00 0.  1.
         21   -1    0    0  501  502 -0.00000000000E+00 -0.00000000000E+00 -0.13472142070E+03  0.13472142070E+03  0.00000000000E+00 0.  1.
         25    1    1    2    0    0  0.25525179104E+02  0.29865398311E+02  0.29107917645E+03  0.31921084528E+03  0.12500000000E+03 0.  0.
         25    1    1    2    0    0  0.87333225882E+02  0.54638140671E+02  0.49668589203E+03  0.52243113815E+03  0.12500000000E+03 0.  0.
         25    1    1    2    0    0 -0.11285840499E+03 -0.84503538982E+02 -0.25434912540E+02  0.19013101391E+03  0.12500000000E+03 0.  0.
</event>
<event>
 5    0  0.5663008E-005  0.3065908E+03  0.7546771E-02  0.1081992E+00
         21   -1    0    0  502  501  0.00000000000E+00  0.00000000000E+00  0.14572143413E+03  0.14572143413E+03  0.00000000000E+00 0. -1.
         21   -1    0    0  501  502 -0.00000000000E+00 -0.00000000000E+00 -0.64505203841E+03  0.64505203841E+03  0.00000000000E+00 0. -1.
         25    1    1    2    0    0  0.82974968047E+02  0.13142243392E+03 -0.25566421156E+02  0.20108541307E+03  0.12500000000E+03 0.  0.
         25    1    1    2    0    0 -0.53744662062E+02 -0.27213470769E+02 -0.36829923053E+03  0.39357132124E+03  0.12500000000E+03 0.  0.
         25    1    1    2    0    0 -0.29230305986E+02 -0.10420896315E+03 -0.10546495259E+03  0.19611673823E+03  0.12500000000E+03 0.  0.
</event>
<event>
 5    0  0.5663008E-005  0.2228639E+03  0.7546771E-02  0.1131766E+00
         21   -1    0    0  502  501  0.00000000000E+00  0.00000000000E+00  0.28463097230E+02  0.28463097230E+02  0.00000000000E+00 0.  1.
         21   -1    0    0  501  502 -0.00000000000E+00 -0.00000000000E+00 -0.17450070835E+04  0.17450070835E+04  0.00000000000E+00 0.  1.
         25    1    1    2    0    0  0.15751146982E+02 -0.30180453377E+02 -0.50669714586E+03  0.52299708988E+03  0.12500000000E+03 0.  0.
         25    1    1    2    0    0  0.21241323696E+02  0.32739705190E+01 -0.23923847139E+03  0.27078027791E+03  0.12500000000E+03 0.  0.
         25    1    1    2    0    0 -0.36992470677E+02  0.26906482858E+02 -0.97060836902E+03  0.97969281293E+03  0.12500000000E+03 0.  0.
</event>
<event>
 5    0  0.5663008E-005  0.2594057E+03  0.7546771E-02  0.1107501E+00
         21   -1    0    0  502  501  0.00000000000E+00  0.00000000000E+00  0.63206792041E+03  0.63206792041E+03  0.00000000000E+00 0.  1.
         21   -1    0    0  501  502 -0.00000000000E+00 -0.00000000000E+00 -0.10646216036E+03  0.10646216036E+03  0.00000000000E+00 0.  1.
         25    1    1    2    0    0 -0.52855856698E+02  0.11744789535E+01  0.20275045128E+03  0.24398333239E+03  0.12500000000E+03 0.  0.
         25    1    1    2    0    0  0.14480607500E+03  0.43529279785E+02  0.24892099729E+03  0.31693889071E+03  0.12500000000E+03 0.  0.
         25    1    1    2    0    0 -0.91950218299E+02 -0.44703758738E+02  0.73934311486E+02  0.17760785767E+03  0.12500000000E+03 0.  0.
</event>
<event>
 5    0  0.5663008E-005  0.5410721E+03  0.7546771E-02  0.1003582E+00
         21   -1    0    0  502  501  0.00000000000E+00  0.00000000000E+00  0.56968386475E+03  0.56968386475E+03  0.00000000000E+00 0. -1.
         21   -1    0    0  501  502 -0.00000000000E+00 -0.00000000000E+00 -0.51389726989E+03  0.51389726989E+03  0.00000000000E+00 0. -1.
         25    1    1    2    0    0  0.19720182316E+03  0.10443835349E+03 -0.50720569896E+02  0.26075564222E+03  0.12500000000E+03 0.  0.
         25    1    1    2    0    0 -0.41110374171E+03  0.12103941304E+03 -0.57046173915E+02  0.45004010034E+03  0.12500000000E+03 0.  0.
         25    1    1    2    0    0  0.21390191856E+03 -0.22547776653E+03  0.16355333867E+03  0.37278539208E+03  0.12500000000E+03 0.  0.
</event>
<event>
 5    0  0.5663008E-005  0.2698910E+03  0.7546771E-02  0.1101342E+00
         21   -1    0    0  502  501  0.00000000000E+00  0.00000000000E+00  0.22025471987E+03  0.22025471987E+03  0.00000000000E+00 0.  1.
         21   -1    0    0  501  502 -0.00000000000E+00 -0.00000000000E+00 -0.33071332696E+03  0.33071332696E+03  0.00000000000E+00 0.  1.
         25    1    1    2    0    0 -0.17227777099E+02 -0.13303541302E+03  0.20990056665E+02  0.18455568238E+03  0.12500000000E+03 0.  0.
         25    1    1    2    0    0  0.34965806986E+02 -0.32499508057E+02 -0.53842039180E+02  0.14423172628E+03  0.12500000000E+03 0.  0.
         25    1    1    2    0    0 -0.17738029886E+02  0.16553492107E+03 -0.77606624581E+02  0.22218063817E+03  0.12500000000E+03 0.  0.
</event>
<event>
 5    0  0.5663008E-005  0.3863829E+03  0.7546771E-02  0.1048600E+00
         21   -1    0    0  502  501  0.00000000000E+00  0.00000000000E+00  0.66802197380E+02  0.66802197380E+02  0.00000000000E+00 0. -1.
         21   -1    0    0  501  502 -0.00000000000E+00 -0.00000000000E+00 -0.22348328750E+04  0.22348328750E+04  0.00000000000E+00 0. -1.
         25    1    1    2    0    0  0.29392139588E+01 -0.99584979328E+02 -0.18127787514E+04  0.18198125202E+04  0.12500000000E+03 0.  0.
         25    1    1    2    0    0 -0.70763229694E+02  0.16598925617E+02 -0.92209184401E+02  0.17149487659E+03  0.12500000000E+03 0.  0.
         25    1    1    2    0    0  0.67824015736E+02  0.82986053712E+02 -0.26304274178E+03  0.31032767557E+03  0.12500000000E+03 0.  0.
</event>
<event>
 5    0  0.5663008E-005  0.2686413E+03  0.7546771E-02  0.1102060E+00
         21   -1    0    0  502  501  0.00000000000E+00  0.00000000000E+00  0.11511910534E+03  0.11511910534E+03  0.00000000000E+00 0.  1.
         21   -1    0    0  501  502 -0.00000000000E+00 -0.00000000000E+00 -0.62689962483E+03  0.62689962483E+03  0.00000000000E+00 0.  1.
         25    1    1    2    0    0 -0.13253220732E+03  0.95461348591E+02 -0.24024616972E+03  0.31626077392E+03  0.12500000000E+03 0.  0.
         25    1    1    2    0    0  0.38712756914E+02  0.12859174149E+02 -0.71134783886E+02  0.14949646613E+03  0.12500000000E+03 0.  0.
         25    1    1    2    0    0  0.93819450410E+02 -0.10832052274E+03 -0.20039956588E+03  0.27626149012E+03  0.12500000000E+03 0.  0.
</event>
<event>
 5    0  0.5663008E-005  0.2045700E+03  0.7546771E-02  0.1145940E+00
         21   -1    0    0  502  501  0.00000000000E+00  0.00000000000E+00  0.58526986402E+02  0.58526986402E+02  0.00000000000E+00 0. -1.
         21   -1    0    0  501  502 -0.00000000000E+00 -0.00000000000E+00 -0.71503582175E+03  0.71503582175E+03  0.00000000000E+00 0. -1.
         25    1    1    2    0    0 -0.14249410155E+02 -0.18779293748E+02 -0.21428516052E+03  0.24919638357E+03  0.12500000000E+03 0.  0.
         25    1    1    2    0    0  0.46325248632E+02 -0.34129938653E+02 -0.26732933602E+03  0.30066734985E+03  0.12500000000E+03 0.  0.
         25    1    1    2    0    0 -0.32075838477E+02  0.52909232401E+02 -0.17489433881E+03  0.22369907473E+03  0.12500000000E+03 0.  0.
</event>
<event>
 5    0  0.6279432E-005  0.4303149E+03  0.7546771E-02  0.1033761E+00
         21   -1    0    0  502  501  0.00000000000E+00  0.00000000000E+00  0.79214413067E+03  0.79214413067E+03  0.00000000000E+00 0. -1.
         21   -1    0    0  501  502 -0.00000000000E+00 -0.00000000000E+00 -0.23375906801E+03  0.23375906801E+03  0.00000000000E+00 0. -1.
         25    1    1    2    0    0  0.58048339766E+02 -0.14439796632E+03  0.36805440864E+03  0.41869968969E+03  0.12500000000E+03 0.  0.
         25    1    1    2    0    0 -0.22941762136E+03 -0.55478931851E+02  0.15936665098E+02  0.26756183241E+03  0.12500000000E+03 0.  0.
         25    1    1    2    0    0  0.17136928159E+03  0.19987689818E+03  0.17439398892E+03  0.33964167658E+03  0.12500000000E+03 0.  0.
</event>
<event>
 5    0  0.5663008E-005  0.2968983E+03  0.7546771E-02  0.1086801E+00
         21   -1    0    0  502  501  0.00000000000E+00  0.00000000000E+00  0.20712876893E+04  0.20712876893E+04  0.00000000000E+00 0.  1.
         21   -1    0    0  501  502 -0.00000000000E+00 -0.00000000000E+00 -0.42557386595E+02  0.42557386595E+02  0.00000000000E+00 0.  1.
         25    1    1    2    0    0  0.37005459484E+02  0.41933981998E+01  0.16146182263E+03  0.20756181919E+03  0.12500000000E+03 0.  0.
         25    1    1    2    0    0  0.74771452565E+02 -0.11249598562E+03  0.90879597005E+03  0.92724389029E+03  0.12500000000E+03 0.  0.
         25    1    1    2    0    0 -0.11177691205E+03  0.10830258742E+03  0.95847250998E+03  0.97903936637E+03  0.12500000000E+03 0.  0.
</event>
<event>
 5    0  0.5663008E-005  0.2532427E+03  0.7546771E-02  0.1111272E+00
         21   -1    0    0  502  501  0.00000000000E+00  0.00000000000E+00  0.30980369125E+03  0.30980369125E+03  0.00000000000E+00 0.  1.
         21   -1    0    0  501  502 -0.00000000000E+00 -0.00000000000E+00 -0.20700811168E+03  0.20700811168E+03  0.00000000000E+00 0.  1.
         25    1    1    2    0    0 -0.15510146213E+02  0.14082479087E+02  0.71679617961E+02  0.14560854537E+03  0.12500000000E+03 0.  0.
         25    1    1    2    0    0 -0.86775199346E+02  0.80823051386E+02  0.58322056782E+02  0.18190316975E+03  0.12500000000E+03 0.  0.
         25    1    1    2    0    0  0.10228534556E+03 -0.94905530473E+02 -0.27206095173E+02  0.18930008781E+03  0.12500000000E+03 0.  0.
</event>
<event>
 5    0  0.5663008E-005  0.2976592E+03  0.7546771E-02  0.1086417E+00
         21   -1    0    0  502  501  0.00000000000E+00  0.00000000000E+00  0.38009739856E+03  0.38009739856E+03  0.00000000000E+00 0.  1.
         21   -1    0    0  501  502 -0.00000000000E+00 -0.00000000000E+00 -0.23310077732E+03  0.23310077732E+03  0.00000000000E+00 0.  1.
         25    1    1    2    0    0 -0.84722157924E+02 -0.63982984123E+02 -0.56533349999E+00  0.16400300577E+03  0.12500000000E+03 0.  0.
         25    1    1    2    0    0 -0.37167250149E+02  0.15422752869E+03 -0.23926104053E+01  0.20198579077E+03  0.12500000000E+03 0.  0.
         25    1    1    2    0    0  0.12188940807E+03 -0.90244544567E+02  0.14995456515E+03  0.24720937934E+03  0.12500000000E+03 0.  0.
</event>
<event>
 5    0  0.5663008E-005  0.2565020E+03  0.7546771E-02  0.1109263E+00
         21   -1    0    0  502  501  0.00000000000E+00  0.00000000000E+00  0.69155308835E+03  0.69155308835E+03  0.00000000000E+00 0. -1.
         21   -1    0    0  501  502 -0.00000000000E+00 -0.00000000000E+00 -0.95138422881E+02  0.95138422881E+02  0.00000000000E+00 0. -1.
         25    1    1    2    0    0  0.99459714979E+02  0.87730980404E+02  0.12845142689E+03  0.22296575723E+03  0.12500000000E+03 0.  0.
         25    1    1    2    0    0 -0.70213005095E+02  0.22300538383E+02  0.20749500081E+03  0.25319232899E+03  0.12500000000E+03 0.  0.
         25    1    1    2    0    0 -0.29246709884E+02 -0.11003151879E+03  0.26046823776E+03  0.31053342501E+03  0.12500000000E+03 0.  0.
</event>
<event>
 5    0  0.5663008E-005  0.2591294E+03  0.7546771E-02  0.1107667E+00
         21   -1    0    0  502  501  0.00000000000E+00  0.00000000000E+00  0.12377947302E+03  0.12377947302E+03  0.00000000000E+00 0. -1.
         21   -1    0    0  501  502 -0.00000000000E+00 -0.00000000000E+00 -0.54248113368E+03  0.54248113368E+03  0.00000000000E+00 0. -1.
         25    1    1    2    0    0  0.12112949282E+03 -0.83996238910E+02 -0.11307543657E+03  0.22391689650E+03  0.12500000000E+03 0.  0.
         25    1    1    2    0    0 -0.13211725151E+03  0.59101901262E+02 -0.19643623528E+03  0.27415360186E+03  0.12500000000E+03 0.  0.
         25    1    1    2    0    0  0.10987758690E+02  0.24894337648E+02 -0.10918998881E+03  0.16819010834E+03  0.12500000000E+03 0.  0.
</event>
<event>
 5    0  0.5663008E-005  0.3711945E+03  0.7546771E-02  0.1054237E+00
         21   -1    0    0  502  501  0.00000000000E+00  0.00000000000E+00  0.11542942453E+04  0.11542942453E+04  0.00000000000E+00 0.  1.
         21   -1    0    0  501  502 -0.00000000000E+00 -0.00000000000E+00 -0.11936760506E+03  0.11936760506E+03  0.00000000000E+00 0.  1.
         25    1    1    2    0    0 -0.96465548139E+02  0.49369060588E+02  0.14693281128E+03  0.22126264292E+03  0.12500000000E+03 0.  0.
         25    1    1    2    0    0 -0.89280488935E+02  0.17943386608E+03  0.46888104004E+03  0.52501614043E+03  0.12500000000E+03 0.  0.
         25    1    1    2    0    0  0.18574603707E+03 -0.22880292667E+03  0.41911278894E+03  0.52738306703E+03  0.12500000000E+03 0.  0.
</event>
<event>
 5    0  0.5663008E-005  0.3061279E+03  0.7546771E-02  0.1082217E+00
         21   -1    0    0  502  501  0.00000000000E+00  0.00000000000E+00  0.49721171289E+03  0.49721171289E+03  0.00000000000E+00 0.  1.
         21   -1    0    0  501  502 -0.00000000000E+00 -0.00000000000E+00 -0.18847959696E+03  0.18847959696E+03  0.00000000000E+00 0.  1.
         25    1    1    2    0    0  0.12455141509E+03 -0.20748094043E+01  0.21721636039E+03  0.27986658796E+03  0.12500000000E+03 0.  0.
         25    1    1    2    0    0 -0.10310431127E+03 -0.86520113140E+02  0.15328434147E+03  0.23924322001E+03  0.12500000000E+03 0.  0.
         25    1    1    2    0    0 -0.21447103818E+02  0.88594922544E+02 -0.61768585928E+02  0.16658150189E+03  0.12500000000E+03 0.  0.
</event>
<event>
 5    0  0.5663008E-005  0.2450023E+03  0.7546771E-02  0.1116505E+00
         21   -1    0    0  502  501  0.00000000000E+00  0.00000000000E+00  0.13227550297E+04  0.13227550297E+04  0.00000000000E+00 0.  1.
         21   -1    0    0  501  502 -0.00000000000E+00 -0.00000000000E+00 -0.45379611712E+02  0.45379611712E+02  0.00000000000E+00 0.  1.
         25    1    1    2    0    0 -0.61066842203E+02 -0.11581416268E+03  0.43728730068E+03  0.47327292637E+03  0.12500000000E+03 0.  0.
         25    1    1    2    0    0  0.84153545716E+02  0.43372674456E+02  0.51555158577E+03  0.53887052780E+03  0.12500000000E+03 0.  0.
         25    1    1    2    0    0 -0.23086703513E+02  0.72441488222E+02  0.32453653158E+03  0.35599118729E+03  0.12500000000E+03 0.  0.
</event>
<event>
 5    0  0.5663008E-005  0.2382737E+03  0.7546771E-02  0.1120948E+00
         21   -1    0    0  502  501  0.00000000000E+00  0.00000000000E+00  0.41509623570E+02  0.41509623570E+02  0.00000000000E+00 0. -1.
         21   -1    0    0  501  502 -0.00000000000E+00 -0.00000000000E+00 -0.13677401023E+04  0.13677401023E+04  0.00000000000E+00 0. -1.
         25    1    1    2    0    0  0.63419666949E+02  0.24070668909E+02 -0.18353997267E+03  0.23219253396E+03  0.12500000000E+03 0.  0.
         25    1    1    2    0    0 -0.58570685406E+02  0.14656440795E+02 -0.41289432942E+03  0.43560539909E+03  0.12500000000E+03 0.  0.
         25    1    1    2    0    0 -0.48489815430E+01 -0.38727109704E+02 -0.72979617664E+03  0.74145179283E+03  0.12500000000E+03 0.  0.
</event>
<event>
 5    0  0.5663008E-005  0.3380958E+03  0.7546771E-02  0.1067610E+00
         21   -1    0    0  502  501  0.00000000000E+00  0.00000000000E+00  0.33292749028E+03  0.33292749028E+03  0.00000000000E+00 0.  1.
         21   -1    0    0  501  502 -0.00000000000E+00 -0.00000000000E+00 -0.34334425101E+03  0.34334425101E+03  0.00000000000E+00 0.  1.
         25    1    1    2    0    0  0.52092070433E+02 -0.90139253132E+02  0.17735733044E+02  0.16364053588E+03  0.12500000000E+03 0.  0.
         25    1    1    2    0    0 -0.24027437547E+03  0.45827344697E+02  0.26633787460E+02  0.27598239013E+03  0.12500000000E+03 0.  0.
         25    1    1    2    0    0  0.18818230504E+03  0.44311908435E+02 -0.54786281242E+02  0.23664881527E+03  0.12500000000E+03 0.  0.
</event>
<event>
 5    0  0.5663008E-005  0.2685882E+03  0.7546771E-02  0.1102090E+00
         21   -1    0    0  502  501  0.00000000000E+00  0.00000000000E+00  0.97625043229E+02  0.97625043229E+02  0.00000000000E+00 0. -1.
         21   -1    0    0  501  502 -0.00000000000E+00 -0.00000000000E+00 -0.73894610203E+03  0.73894610203E+03  0.00000000000E+00 0. -1.
         25    1    1    2    0    0 -0.78735352537E+02 -0.48705426942E+02 -0.16115806077E+03  0.22398302370E+03  0.12500000000E+03 0.  0.
         25    1    1    2    0    0  0.23294335690E+02  0.52629162730E+02 -0.45257513763E+03  0.47303457595E+03  0.12500000000E+03 0.  0.
         25    1    1    2    0    0  0.55441016847E+02 -0.39237357886E+01 -0.27587860401E+02  0.13955354561E+03  0.12500000000E+03 0.  0.
</event>
<event>
 5    0  0.5663008E-005  0.3196302E+03  0.7546771E-02  0.1075820E+00
         21   -1    0    0  502  501  0.00000000000E+00  0.00000000000E+00  0.12951221269E+03  0.12951221269E+03  0.00000000000E+00 0. -1.
         21   -1    0    0  501  502 -0.00000000000E+00 -0.00000000000E+00 -0.78883279796E+03  0.78883279796E+03  0.00000000000E+00 0. -1.
         25    1    1    2    0    0 -0.52505704183E+02 -0.19337119756E+02 -0.35854010489E+03  0.38380565393E+03  0.12500000000E+03 0.  0.
         25    1    1    2    0    0  0.10624098777E+01  0.11381262343E+03 -0.32646160090E+03  0.36763653087E+03  0.12500000000E+03 0.  0.
         25    1    1    2    0    0  0.51443294305E+02 -0.94475503676E+02  0.25681120535E+02  0.16690282585E+03  0.12500000000E+03 0.  0.
</event>
<event>
 5    0  0.5663008E-005  0.4483918E+03  0.7546771E-02  0.1028203E+00
         21   -1    0    0  502  501  0.00000000000E+00  0.00000000000E+00  0.43641672871E+03  0.43641672871E+03  0.00000000000E+00 0.  1.
         21   -1    0    0  501  502 -0.00000000000E+00 -0.00000000000E+00 -0.46069555464E+03  0.46069555464E+03  0.00000000000E+00 0.  1.
         25    1    1    2    0    0  0.32038895362E+03  0.75132342639E+02 -0.89372009337E+01  0.35213466753E+03  0.12500000000E+03 0.  0.
         25    1    1    2    0    0 -0.71030958051E+02  0.57216481690E+02  0.13152648195E+03  0.20308455931E+03  0.12500000000E+03 0.  0.
         25    1    1    2    0    0 -0.24935799557E+03 -0.13234882433E+03 -0.14686810694E+03  0.34189305651E+03  0.12500000000E+03 0.  0.
</event>
<event>
 5    0  0.5663008E-005  0.2862849E+03  0.7546771E-02  0.1092305E+00
         21   -1    0    0  502  501  0.00000000000E+00  0.00000000000E+00  0.54932825412E+03  0.54932825412E+03  0.00000000000E+00 0.  1.
         21   -1    0    0  501  502 -0.00000000000E+00 -0.00000000000E+00 -0.14919871205E+03  0.14919871205E+03  0.00000000000E+00 0.  1.
         25    1    1    2    0    0 -0.69684258339E+02  0.51832607539E+02  0.31957982263E+03  0.35397567444E+03  0.12500000000E+03 0.  0.
         25    1    1    2    0    0  0.10349596477E+03 -0.36486621884E+02 -0.35395686528E+02  0.17006040964E+03  0.12500000000E+03 0.  0.
         25    1    1    2    0    0 -0.33811706433E+02 -0.15345985655E+02  0.11594540597E+03  0.17449088209E+03  0.12500000000E+03 0.  0.
</event>
<event>
 5    0  0.5663008E-005  0.3827128E+03  0.7546771E-02  0.1049936E+00
         21   -1    0    0  502  501  0.00000000000E+00  0.00000000000E+00  0.30975810242E+03  0.30975810242E+03  0.00000000000E+00 0.  1.
         21   -1    0    0  501  502 -0.00000000000E+00 -0.00000000000E+00 -0.47284978165E+03  0.47284978165E+03  0.00000000000E+00 0.  1.
         25    1    1    2    0    0 -0.13739568476E+03 -0.45253334954E+02 -0.25977706217E+01  0.19119933820E+03  0.12500000000E+03 0.  0.
         25    1    1    2    0    0 -0.11607243284E+03  0.49919897641E+02  0.10263051922E+03  0.20523846940E+03  0.12500000000E+03 0.  0.
         25    1    1    2    0    0  0.25346811760E+03 -0.46665626870E+01 -0.26312442783E+03  0.38617007648E+03  0.12500000000E+03 0.  0.
</event>
<event>
 5    0  0.5663008E-005  0.3217515E+03  0.7546771E-02  0.1074846E+00
         21   -1    0    0  502  501  0.00000000000E+00  0.00000000000E+00  0.70718617286E+02  0.70718617286E+02  0.00000000000E+00 0.  1.
         21   -1    0    0  501  502 -0.00000000000E+00 -0.00000000000E+00 -0.14638860779E+04  0.14638860779E+04  0.00000000000E+00 0.  1.
         25    1    1    2    0    0  0.14101154023E+02  0.29733595360E+02 -0.38273383075E+03  0.40397167529E+03  0.12500000000E+03 0.  0.
         25    1    1    2    0    0  0.10171765147E+03  0.14854875763E+03 -0.25650458352E+03  0.33739119043E+03  0.12500000000E+03 0.  0.
         25    1    1    2    0    0 -0.11581880550E+03 -0.17828235299E+03 -0.75392904638E+03  0.79324182950E+03  0.12500000000E+03 0.  0.
</event>
<event>
 5    0  0.5663008E-005  0.2107490E+03  0.7546771E-02  0.1140974E+00
         21   -1    0    0  502  501  0.00000000000E+00  0.00000000000E+00  0.62799120249E+02  0.62799120249E+02  0.00000000000E+00 0.  1.
         21   -1    0    0  501  502 -0.00000000000E+00 -0.00000000000E+00 -0.70725729870E+03  0.70725729870E+03  0.00000000000E+00 0.  1.
         25    1    1    2    0    0  0.21366451512E+02  0.36977494994E+01 -0.99238972295E+02  0.16107008482E+03  0.12500000000E+03 0.  0.
         25    1    1    2    0    0 -0.12063797041E+02 -0.51914287283E+02 -0.30166608674E+03  0.33085957189E+03  0.12500000000E+03 0.  0.
         25    1    1    2    0    0 -0.93026544712E+01  0.48216537783E+02 -0.24355311942E+03  0.27812676225E+03  0.12500000000E+03 0.  0.
</event>
<event>
 5    0  0.5663008E-005  0.2612562E+03  0.7546771E-02  0.1106391E+00
         21   -1    0    0  502  501  0.00000000000E+00  0.00000000000E+00  0.35484545444E+02  0.35484545444E+02  0.00000000000E+00 0.  1.
         21   -1    0    0  501  502 -0.00000000000E+00 -0.00000000000E+00 -0.19235081057E+04  0.19235081057E+04  0.00000000000E+00 0.  1.
         25    1    1    2    0    0  0.38677784415E+02 -0.86477292038E+02 -0.25921755426E+03  0.30297365147E+03  0.12500000000E+03 0.  0.
         25    1    1    2    0    0 -0.51322089417E+02  0.10562524440E+03 -0.89381978984E+03  0.91012607139E+03  0.12500000000E+03 0.  0.
         25    1    1    2    0    0  0.12644305002E+02 -0.19147952366E+02 -0.73498621615E+03  0.74589292828E+03  0.12500000000E+03 0.  0.
</event>
<event>
 5    0  0.5663008E-005  0.4309068E+03  0.7546771E-02  0.1033574E+00
         21   -1    0    0  502  501  0.00000000000E+00  0.00000000000E+00  0.30328321336E+03  0.30328321336E+03  0.00000000000E+00 0. -1.
         21   -1    0    0  501  502 -0.00000000000E+00 -0.00000000000E+00 -0.61223531739E+03  0.61223531739E+03  0.00000000000E+00 0. -1.
         25    1    1    2    0    0 -0.94494402155E+02  0.37888402480E+02 -0.43487258157E+03  0.46379293362E+03  0.12500000000E+03 0.  0.
         25    1    1    2    0    0 -0.58488997323E+02 -0.13217988970E+03  0.13280485542E+03  0.23271144293E+03  0.12500000000E+03 0.  0.
         25    1    1    2    0    0  0.15298339948E+03  0.94291487217E+02 -0.68843778890E+01  0.21901415419E+03  0.12500000000E+03 0.  0.
</event>
<event>
 5    0  0.5663008E-005  0.3078124E+03  0.7546771E-02  0.1081399E+00
         21   -1    0    0  502  501  0.00000000000E+00  0.00000000000E+00  0.65676690299E+03  0.65676690299E+03  0.00000000000E+00 0. -1.
         21   -1    0    0  501  502 -0.00000000000E+00 -0.00000000000E+00 -0.14426501678E+03  0.14426501678E+03  0.00000000000E+00 0. -1.
         25    1    1    2    0    0  0.12785539206E+03  0.23303452536E+02  0.62058704041E+02  0.19069959341E+03  0.12500000000E+03 0.  0.
         25    1    1    2    0    0  0.19592531892E+02 -0.19417656478E+02  0.89025838524E+01  0.12831667346E+03  0.12500000000E+03 0.  0.
         25    1    1    2    0    0 -0.14744792395E+03 -0.38857960577E+01  0.44154059831E+03  0.48201565291E+03  0.12500000000E+03 0.  0.
</event>
<event>
 5    0  0.5663008E-005  0.3220825E+03  0.7546771E-02  0.1074695E+00
         21   -1    0    0  502  501  0.00000000000E+00  0.00000000000E+00  0.33376184977E+03  0.33376184977E+03  0.00000000000E+00 0.  1.
         21   -1    0    0  501  502 -0.00000000000E+00 -0.00000000000E+00 -0.31081187164E+03  0.31081187164E+03  0.00000000000E+00 0.  1.
         25    1    1    2    0    0  0.76496206852E+02  0.51567398595E+02 -0.13457936453E+03  0.20554189747E+03  0.12500000000E+03 0.  0.
         25    1    1    2    0    0  0.93315874615E+02  0.72381594956E+01 -0.19675429755E+02  0.15739239481E+03  0.12500000000E+03 0.  0.
         25    1    1    2    0    0 -0.16981208147E+03 -0.58805558091E+02  0.17720477241E+03  0.28163942913E+03  0.12500000000E+03 0.  0.
</event>
<event>
 5    0  0.5663008E-005  0.3364401E+03  0.7546771E-02  0.1068322E+00
         21   -1    0    0  502  501  0.00000000000E+00  0.00000000000E+00  0.28994125586E+03  0.28994125586E+03  0.00000000000E+00 0.  1.
         21   -1    0    0  501  502 -0.00000000000E+00 -0.00000000000E+00 -0.39039606989E+03  0.39039606989E+03  0.00000000000E+00 0.  1.
         25    1    1    2    0    0 -0.60890668533E+02  0.17883649896E+03 -0.17072461506E+03  0.28365835271E+03  0.12500000000E+03 0.  0.
         25    1    1    2    0    0 -0.15746162086E+01 -0.13143877980E+03  0.14411535933E+03  0.23167405777E+03  0.12500000000E+03 0.  0.
         25    1    1    2    0    0  0.62465284741E+02 -0.47397719164E+02 -0.73845558303E+02  0.16500491526E+03  0.12500000000E+03 0.  0.
</event>
<event>
 5    0  0.5663008E-005  0.4455881E+03  0.7546771E-02  0.1029046E+00
         21   -1    0    0  502  501  0.00000000000E+00  0.00000000000E+00  0.41556044784E+03  0.41556044784E+03  0.00000000000E+00 0.  1.
         21   -1    0    0  501  502 -0.00000000000E+00 -0.00000000000E+00 -0.47778548540E+03  0.47778548540E+03  0.00000000000E+00 0.  1.
         25    1    1    2    0    0  0.11115901946E+03  0.25947981629E+03  0.24761081400E+03  0.39575524997E+03  0.12500000000E+03 0.  0.
         25    1    1    2    0    0 -0.98483931808E+02 -0.15948532708E+03 -0.21317441314E+03  0.31016606003E+03  0.12500000000E+03 0.  0.
         25    1    1    2    0    0 -0.12675087654E+02 -0.99994489208E+02 -0.96661438422E+02  0.18742462324E+03  0.12500000000E+03 0.  0.
</event>
<event>
 5    0  0.5992142E-005  0.3259586E+03  0.7546771E-02  0.1072939E+00
         21   -1    0    0  502  501  0.00000000000E+00  0.00000000000E+00  0.45817567333E+03  0.45817567333E+03  0.00000000000E+00 0.  1.
         21   -1    0    0  501  502 -0.00000000000E+00 -0.00000000000E+00 -0.23189573907E+03  0.23189573907E+03  0.00000000000E+00 0.  1.
         25    1    1    2    0    0  0.62025780067E+02 -0.18116782373E+03  0.77205076147E+02  0.24135990042E+03  0.12500000000E+03 0.  0.
         25    1    1    2    0    0 -0.70720948598E+02 -0.13292411714E+02 -0.40291533066E+02  0.14975496124E+03  0.12500000000E+03 0.  0.
         25    1    1    2    0    0  0.86951685306E+01  0.19446023544E+03  0.18936639118E+03  0.29895655074E+03  0.12500000000E+03 0.  0.
</event>
<event>
 5    0  0.5663008E-005  0.3211413E+03  0.7546771E-02  0.1075125E+00
         21   -1    0    0  502  501  0.00000000000E+00  0.00000000000E+00  0.35668542318E+03  0.35668542318E+03  0.00000000000E+00 0.  1.
         21   -1    0    0  501  502 -0.00000000000E+00 -0.00000000000E+00 -0.28913926722E+03  0.28913926722E+03  0.00000000000E+00 0.  1.
         25    1    1    2    0    0  0.63827816830E+01  0.63215889282E+02 -0.20568260997E+03  0.24893236954E+03  0.12500000000E+03 0.  0.
         25    1    1    2    0    0  0.10260220076E+02  0.48757339232E+01  0.57884684696E+02  0.13821968608E+03  0.12500000000E+03 0.  0.
         25    1    1    2    0    0 -0.16643001759E+02 -0.68091623205E+02  0.21534408124E+03  0.25867263478E+03  0.12500000000E+03 0.  0.
</event>
<event>
 5    0  0.5663008E-005  0.3283797E+03  0.7546771E-02  0.1071856E+00
         21   -1    0    0  502  501  0.00000000000E+00  0.00000000000E+00  0.30833637642E+03  0.30833637642E+03  0.00000000000E+00 0.  1.
         21   -1    0    0  501  502 -0.00000000000E+00 -0.00000000000E+00 -0.34972582843E+03  0.34972582843E+03  0.00000000000E+00 0.  1.
         25    1    1    2    0    0  0.25002152493E+01 -0.21865508342E+02 -0.18058696227E+03  0.22072834542E+03  0.12500000000E+03 0.  0.
         25    1    1    2    0    0 -0.11178180057E+03 -0.73141568074E+02  0.16240920817E+03  0.24463566955E+03  0.12500000000E+03 0.  0.
         25    1    1    2    0    0  0.10928158532E+03  0.95007076416E+02 -0.23211697909E+02  0.19269818987E+03  0.12500000000E+03 0.  0.
</event>
<event>
 5    0  0.5663008E-005  0.3064426E+03  0.7546771E-02  0.1082064E+00
         21   -1    0    0  502  501  0.00000000000E+00  0.00000000000E+00  0.57640245747E+03  0.57640245747E+03  0.00000000000E+00 0. -1.
         21   -1    0    0  501  502 -0.00000000000E+00 -0.00000000000E+00 -0.16291924916E+03  0.16291924916E+03  0.00000000000E+00 0. -1.
         25    1    1    2    0    0 -0.47077821497E+02  0.79124212471E+02  0.54915772342E+02  0.16467454062E+03  0.12500000000E+03 0.  0.
         25    1    1    2    0    0 -0.75930488480E+02 -0.12759050819E+03  0.34033534043E+03  0.39178810702E+03  0.12500000000E+03 0.  0.
         25    1    1    2    0    0  0.12300830998E+03  0.48466295722E+02  0.18232095545E+02  0.18285905898E+03  0.12500000000E+03 0.  0.
</event>
<event>
 5    0  0.5663008E-005  0.3038232E+03  0.7546771E-02  0.1083345E+00
         21   -1    0    0  502  501  0.00000000000E+00  0.00000000000E+00  0.40733887693E+03  0.40733887693E+03  0.00000000000E+00 0. -1.
         21   -1    0    0  501  502 -0.00000000000E+00 -0.00000000000E+00 -0.22661366373E+03  0.22661366373E+03  0.00000000000E+00 0. -1.
         25    1    1    2    0    0 -0.87249316824E+02 -0.10865905277E+03  0.14503216108E+03  0.23680912310E+03  0.12500000000E+03 0.  0.
         25    1    1    2    0    0 -0.48287731187E+01  0.11895046889E+03 -0.92230634564E+02  0.19571413095E+03  0.12500000000E+03 0.  0.
         25    1    1    2    0    0  0.92078089943E+02 -0.10291416129E+02  0.12792368668E+03  0.20142928662E+03  0.12500000000E+03 0.  0.
</event>
<event>
 5    0  0.5663008E-005  0.2574799E+03  0.7546771E-02  0.1108667E+00
         21   -1    0    0  502  501  0.00000000000E+00  0.00000000000E+00  0.14597638313E+03  0.14597638313E+03  0.00000000000E+00 0.  1.
         21   -1    0    0  501  502 -0.00000000000E+00 -0.00000000000E+00 -0.45415488255E+03  0.45415488255E+03  0.00000000000E+00 0.  1.
         25    1    1    2    0    0  0.10668218642E+02 -0.64622591637E+02 -0.10070322345E+03  0.17336674841E+03  0.12500000000E+03 0.  0.
         25    1    1    2    0    0  0.41867741683E+02 -0.64712350619E+02  0.46195451940E+00  0.14685302012E+03  0.12500000000E+03 0.  0.
         25    1    1    2    0    0 -0.52535960324E+02  0.12933494226E+03 -0.20793723049E+03  0.27991149715E+03  0.12500000000E+03 0.  0.
</event>
<event>
 5    0  0.5663008E-005  0.3905471E+03  0.7546771E-02  0.1047103E+00
         21   -1    0    0  502  501  0.00000000000E+00  0.00000000000E+00  0.10893731597E+04  0.10893731597E+04  0.00000000000E+00 0.  1.
         21   -1    0    0  501  502 -0.00000000000E+00 -0.00000000000E+00 -0.14001356832E+03  0.14001356832E+03  0.00000000000E+00 0.  1.
         25    1    1    2    0    0  0.14535063620E+03 -0.11931989859E+03  0.16634423931E+03  0.28046292374E+03  0.12500000000E+03 0.  0.
         25    1    1    2    0    0  0.11319109206E+03  0.17513004606E+03  0.33772906308E+03  0.41613540633E+03  0.12500000000E+03 0.  0.
         25    1    1    2    0    0 -0.25854172826E+03 -0.55810147472E+02  0.44528628894E+03  0.53278839790E+03  0.12500000000E+03 0.  0.
</event>
<event>
 5    0  0.5663008E-005  0.2498993E+03  0.7546771E-02  0.1113368E+00
         21   -1    0    0  502  501  0.00000000000E+00  0.00000000000E+00  0.23250555731E+03  0.23250555731E+03  0.00000000000E+00 0. -1.
         21   -1    0    0  501  502 -0.00000000000E+00 -0.00000000000E+00 -0.26859423555E+03  0.26859423555E+03  0.00000000000E+00 0. -1.
         25    1    1    2    0    0  0.99186817390E+02  0.37677274483E+02  0.79830686450E+01  0.16415337688E+03  0.12500000000E+03 0.  0.
         25    1    1    2    0    0 -0.11135525738E+02  0.67611895056E+02  0.11906513978E+02  0.14304591347E+03  0.12500000000E+03 0.  0.
         25    1    1    2    0    0 -0.88051291652E+02 -0.10528916954E+03 -0.55978260857E+02  0.19390050251E+03  0.12500000000E+03 0.  0.
</event>
<event>
 5    0  0.5663008E-005  0.3708655E+03  0.7546771E-02  0.1054363E+00
         21   -1    0    0  502  501  0.00000000000E+00  0.00000000000E+00  0.12494652413E+03  0.12494652413E+03  0.00000000000E+00 0. -1.
         21   -1    0    0  501  502 -0.00000000000E+00 -0.00000000000E+00 -0.11008007180E+04  0.11008007180E+04  0.00000000000E+00 0.  1.
         25    1    1    2    0    0  0.14691985884E+02 -0.28203602428E+02 -0.42211713583E+03  0.44138325070E+03  0.12500000000E+03 0.  0.
         25    1    1    2    0    0  0.21378064389E+03 -0.73494726970E+02 -0.36451587098E+03  0.44676667153E+03  0.12500000000E+03 0.  0.
         25    1    1    2    0    0 -0.22847262977E+03  0.10169832940E+03 -0.18922118703E+03  0.33759731986E+03  0.12500000000E+03 0.  0.
</event>
<event>
 5    0  0.5663008E-005  0.5005308E+03  0.7546771E-02  0.1013640E+00
         21   -1    0    0  502  501  0.00000000000E+00  0.00000000000E+00  0.30269810953E+03  0.30269810953E+03  0.00000000000E+00 0.  1.
         21   -1    0    0  501  502 -0.00000000000E+00 -0.00000000000E+00 -0.82765973762E+03  0.82765973762E+03  0.00000000000E+00 0.  1.
         25    1    1    2    0    0  0.13070424743E+03 -0.18134286272E+03 -0.36516438381E+03  0.44602562859E+03  0.12500000000E+03 0.  0.
         25    1    1    2    0    0  0.12995789264E+02 -0.16629260406E+03 -0.19622538235E+03  0.28627176141E+03  0.12500000000E+03 0.  0.
         25    1    1    2    0    0 -0.14370003669E+03  0.34763546677E+03  0.36428138071E+02  0.39806045715E+03  0.12500000000E+03 0.  0.
</event>
<event>
 5    0  0.5663008E-005  0.2365153E+03  0.7546771E-02  0.1122136E+00
         21   -1    0    0  502  501  0.00000000000E+00  0.00000000000E+00  0.10661843490E+03  0.10661843490E+03  0.00000000000E+00 0. -1.
         21   -1    0    0  501  502 -0.00000000000E+00 -0.00000000000E+00 -0.52466975485E+03  0.52466975485E+03  0.00000000000E+00 0. -1.
         25    1    1    2    0    0  0.97049962397E+02  0.31419335480E+02 -0.15931549548E+03  0.22674279910E+03  0.12500000000E+03 0.  0.
         25    1    1    2    0    0 -0.11239816142E+03  0.15686603815E+02 -0.98871446696E+02  0.19565270047E+03  0.12500000000E+03 0.  0.
         25    1    1    2    0    0  0.15348199020E+02 -0.47105939294E+02 -0.15986437778E+03  0.20889269018E+03  0.12500000000E+03 0.  0.
</event>
<event>
 5    0  0.5663008E-005  0.3245305E+03  0.7546771E-02  0.1073583E+00
         21   -1    0    0  502  501  0.00000000000E+00  0.00000000000E+00  0.80095051224E+03  0.80095051224E+03  0.00000000000E+00 0. -1.
         21   -1    0    0  501  502 -0.00000000000E+00 -0.00000000000E+00 -0.13149385807E+03  0.13149385807E+03  0.00000000000E+00 0. -1.
         25    1    1    2    0    0 -0.22018938582E+03 -0.68891875184E+01  0.26836646303E+03  0.36902084631E+03  0.12500000000E+03 0.  0.
         25    1    1    2    0    0  0.17598138160E+02 -0.54327333849E+02  0.79869736606E+02  0.15895071090E+03  0.12500000000E+03 0.  0.
         25    1    1    2    0    0  0.20259124766E+03  0.61216521368E+02  0.32122045454E+03  0.40447281310E+03  0.12500000000E+03 0.  0.
</event>
<event>
 5    0  0.5663008E-005  0.3237583E+03  0.7546771E-02  0.1073933E+00
         21   -1    0    0  502  501  0.00000000000E+00  0.00000000000E+00  0.20295618577E+03  0.20295618577E+03  0.00000000000E+00 0. -1.
         21   -1    0    0  501  502 -0.00000000000E+00 -0.00000000000E+00 -0.51646336354E+03  0.51646336354E+03  0.00000000000E+00 0. -1.
         25    1    1    2    0    0  0.26034700621E+02 -0.24713917051E+02 -0.65922221577E+01  0.13021920260E+03  0.12500000000E+03 0.  0.
         25    1    1    2    0    0 -0.16987490015E+03 -0.64856306458E+00 -0.33403942381E+03  0.39505093215E+03  0.12500000000E+03 0.  0.
         25    1    1    2    0    0  0.14384019953E+03  0.25362480116E+02  0.27124468201E+02  0.19414941456E+03  0.12500000000E+03 0.  0.
</event>
<event>
 5    0  0.5663008E-005  0.3704719E+03  0.7546771E-02  0.1054513E+00
         21   -1    0    0  502  501  0.00000000000E+00  0.00000000000E+00  0.53664013154E+03  0.53664013154E+03  0.00000000000E+00 0.  1.
         21   -1    0    0  501  502 -0.00000000000E+00 -0.00000000000E+00 -0.25575694537E+03  0.25575694537E+03  0.00000000000E+00 0.  1.
         25    1    1    2    0    0 -0.18875961711E+03 -0.30352706394E+02  0.20075338650E+03  0.30410261760E+03  0.12500000000E+03 0.  0.
         25    1    1    2    0    0  0.14524335555E+03 -0.96929275321E+02  0.17915704977E+03  0.27966616747E+03  0.12500000000E+03 0.  0.
         25    1    1    2    0    0  0.43516261565E+02  0.12728198172E+03 -0.99027250107E+02  0.20862829183E+03  0.12500000000E+03 0.  0.
</event>
<event>
 5    0  0.5663008E-005  0.2400582E+03  0.7546771E-02  0.1119754E+00
         21   -1    0    0  502  501  0.00000000000E+00  0.00000000000E+00  0.18291868892E+04  0.18291868892E+04  0.00000000000E+00 0. -1.
         21   -1    0    0  501  502 -0.00000000000E+00 -0.00000000000E+00 -0.31504663021E+02  0.31504663021E+02  0.00000000000E+00 0. -1.
         25    1    1    2    0    0 -0.11339509723E+02  0.50563915072E+02  0.57361284313E+03  0.58935726668E+03  0.12500000000E+03 0.  0.
         25    1    1    2    0    0  0.95256587559E+02 -0.89169223413E+02  0.52598871114E+03  0.55616013172E+03  0.12500000000E+03 0.  0.
         25    1    1    2    0    0 -0.83917077836E+02  0.38605308341E+02  0.69808067194E+03  0.71517415384E+03  0.12500000000E+03 0.  0.
</event>
<event>
 5    0  0.5663008E-005  0.4105804E+03  0.7546771E-02  0.1040176E+00
         21   -1    0    0  502  501  0.00000000000E+00  0.00000000000E+00  0.22768575471E+03  0.22768575471E+03  0.00000000000E+00 0.  1.
         21   -1    0    0  501  502 -0.00000000000E+00 -0.00000000000E+00 -0.74038991366E+03  0.74038991366E+03  0.00000000000E+00 0.  1.
         25    1    1    2    0    0  0.12361376782E+02 -0.19859914585E+03 -0.15220778136E+03  0.27997612947E+03  0.12500000000E+03 0.  0.
         25    1    1    2    0    0  0.21969261115E+02  0.14524187616E+03 -0.47141270676E+03  0.50934545362E+03  0.12500000000E+03 0.  0.
         25    1    1    2    0    0 -0.34330637897E+02  0.53357269688E+02  0.11091632918E+03  0.17875408528E+03  0.12500000000E+03 0.  0.
</event>
<event>
 5    0  0.5663008E-005  0.2407630E+03  0.7546771E-02  0.1119286E+00
         21   -1    0    0  502  501  0.00000000000E+00  0.00000000000E+00  0.27205277801E+03  0.27205277801E+03  0.00000000000E+00 0.  1.
         21   -1    0    0  501  502 -0.00000000000E+00 -0.00000000000E+00 -0.21307195809E+03  0.21307195809E+03  0.00000000000E+00 0.  1.
         25    1    1    2    0    0  0.46612363529E+02  0.17093471583E+02 -0.25713525398E+02  0.13693459969E+03  0.12500000000E+03 0.  0.
         25    1    1    2    0    0  0.52802295451E+02 -0.27381973047E+02  0.12125154498E+03  0.18402388979E+03  0.12500000000E+03 0.  0.
         25    1    1    2    0    0 -0.99414658980E+02  0.10288501463E+02 -0.36557199664E+02  0.16416624662E+03  0.12500000000E+03 0.  0.
</event>
<event>
 5    0  0.5663008E-005  0.2616837E+03  0.7546771E-02  0.1106136E+00
         21   -1    0    0  502  501  0.00000000000E+00  0.00000000000E+00  0.17906579326E+04  0.17906579326E+04  0.00000000000E+00 0. -1.
         21   -1    0    0  501  502 -0.00000000000E+00 -0.00000000000E+00 -0.38242011748E+02  0.38242011748E+02  0.00000000000E+00 0. -1.
         25    1    1    2    0    0 -0.21050183759E+02 -0.20201549553E+01  0.14305955440E+03  0.19114975115E+03  0.12500000000E+03 0.  0.
         25    1    1    2    0    0  0.52264480794E+02 -0.15008756972E+02  0.12129185920E+04  0.12205545255E+04  0.12500000000E+03 0.  0.
         25    1    1    2    0    0 -0.31214297035E+02  0.17028911927E+02  0.39643777444E+03  0.41719566774E+03  0.12500000000E+03 0.  0.
</event>
<event>
 5    0  0.5663008E-005  0.2822617E+03  0.7546771E-02  0.1094460E+00
         21   -1    0    0  502  501  0.00000000000E+00  0.00000000000E+00  0.95383895330E+02  0.95383895330E+02  0.00000000000E+00 0.  1.
         21   -1    0    0  501  502 -0.00000000000E+00 -0.00000000000E+00 -0.83527379007E+03  0.83527379007E+03  0.00000000000E+00 0.  1.
         25    1    1    2    0    0  0.12911175604E+03  0.16467210035E+02 -0.22201787805E+03  0.28610828847E+03  0.12500000000E+03 0.  0.
         25    1    1    2    0    0 -0.98396196515E+02 -0.20725741195E+01 -0.62190135245E+02  0.17081779759E+03  0.12500000000E+03 0.  0.
         25    1    1    2    0    0 -0.30715559525E+02 -0.14394635916E+02 -0.45568188144E+03  0.47373159934E+03  0.12500000000E+03 0.  0.
</event>
<event>
 5    0  0.5663008E-005  0.2947081E+03  0.7546771E-02  0.1087916E+00
         21   -1    0    0  502  501  0.00000000000E+00  0.00000000000E+00  0.42642028983E+03  0.42642028983E+03  0.00000000000E+00 0.  1.
         21   -1    0    0  501  502 -0.00000000000E+00 -0.00000000000E+00 -0.20367903737E+03  0.20367903737E+03  0.00000000000E+00 0.  1.
         25    1    1    2    0    0  0.58979528422E+02 -0.32371642142E+02  0.26147450980E+01  0.14198008621E+03  0.12500000000E+03 0.  0.
         25    1    1    2    0    0 -0.62775128192E+01 -0.67489943713E+02 -0.65473289164E+02  0.15654408728E+03  0.12500000000E+03 0.  0.
         25    1    1    2    0    0 -0.52702015603E+02  0.99861585854E+02  0.28559979653E+03  0.33157515370E+03  0.12500000000E+03 0.  0.
</event>
<event>
 5    0  0.5663008E-005  0.2332241E+03  0.7546771E-02  0.1124391E+00
         21   -1    0    0  502  501  0.00000000000E+00  0.00000000000E+00  0.23660120650E+03  0.23660120650E+03  0.00000000000E+00 0. -1.
         21   -1    0    0  501  502 -0.00000000000E+00 -0.00000000000E+00 -0.22989521264E+03  0.22989521264E+03  0.00000000000E+00 0. -1.
         25    1    1    2    0    0  0.50896890220E+02 -0.82410290321E+01 -0.45979558569E+02  0.14281991388E+03  0.12500000000E+03 0.  0.
         25    1    1    2    0    0 -0.20442933368E+02 -0.49869278155E+01 -0.70516987208E+02  0.14505319182E+03  0.12500000000E+03 0.  0.
         25    1    1    2    0    0 -0.30453956852E+02  0.13227956848E+02  0.12320253964E+03  0.17862331344E+03  0.12500000000E+03 0.  0.
</event>
<event>
 5    0  0.5663008E-005  0.5225886E+03  0.7546771E-02  0.1008046E+00
         21   -1    0    0  502  501  0.00000000000E+00  0.00000000000E+00  0.13432825615E+04  0.13432825615E+04  0.00000000000E+00 0.  1.
         21   -1    0    0  501  502 -0.00000000000E+00 -0.00000000000E+00 -0.20330710893E+03  0.20330710893E+03  0.00000000000E+00 0.  1.
         25    1    1    2    0    0 -0.24451250551E+02 -0.17846495850E+03 -0.91678084620E+02  0.23764990273E+03  0.12500000000E+03 0.  0.
         25    1    1    2    0    0  0.75726856411E+02  0.21669481540E+03  0.50273430981E+03  0.56661978968E+03  0.12500000000E+03 0.  0.
         25    1    1    2    0    0 -0.51275605860E+02 -0.38229856892E+02  0.72891922743E+03  0.74231997807E+03  0.12500000000E+03 0.  0.
</event>
<event>
 5    0  0.5663008E-005  0.3228482E+03  0.7546771E-02  0.1074346E+00
         21   -1    0    0  502  501  0.00000000000E+00  0.00000000000E+00  0.19172300851E+03  0.19172300851E+03  0.00000000000E+00 0.  1.
         21   -1    0    0  501  502 -0.00000000000E+00 -0.00000000000E+00 -0.54365406219E+03  0.54365406219E+03  0.00000000000E+00 0.  1.
         25    1    1    2    0    0  0.15609592443E+03  0.16032751748E+03 -0.22878228810E+03  0.34356540256E+03  0.12500000000E+03 0.  0.
         25    1    1    2    0    0 -0.71002886791E+02 -0.16729767569E+03 -0.73605638077E+02  0.23253539985E+03  0.12500000000E+03 0.  0.
         25    1    1    2    0    0 -0.85093037636E+02  0.69701582101E+01 -0.49543127497E+02  0.15927626829E+03  0.12500000000E+03 0.  0.
</event>
<event>
 5    0  0.5663008E-005  0.3771021E+03  0.7546771E-02  0.1052010E+00
         21   -1    0    0  502  501  0.00000000000E+00  0.00000000000E+00  0.53149731949E+03  0.53149731949E+03  0.00000000000E+00 0. -1.
         21   -1    0    0  501  502 -0.00000000000E+00 -0.00000000000E+00 -0.26755736513E+03  0.26755736513E+03  0.00000000000E+00 0. -1.
         25    1    1    2    0    0 -0.28054293361E+01  0.18306961262E+03  0.20088889311E+01  0.22170112569E+03  0.12500000000E+03 0.  0.
         25    1    1    2    0    0  0.98493132340E+02 -0.26892052785E+03  0.24532775619E+03  0.39727805801E+03  0.12500000000E+03 0.  0.
         25    1    1    2    0    0 -0.95687703004E+02  0.85850915231E+02  0.16603309242E+02  0.18007550092E+03  0.12500000000E+03 0.  0.
</event>
<event>
 5    0  0.5663008E-005  0.2662523E+03  0.7546771E-02  0.1103444E+00
         21   -1    0    0  502  501  0.00000000000E+00  0.00000000000E+00  0.27215434175E+03  0.27215434175E+03  0.00000000000E+00 0. -1.
         21   -1    0    0  501  502 -0.00000000000E+00 -0.00000000000E+00 -0.26047822217E+03  0.26047822217E+03  0.00000000000E+00 0. -1.
         25    1    1    2    0    0 -0.27743855820E+02 -0.56871644774E+02  0.44637544355E+02  0.14704290490E+03  0.12500000000E+03 0.  0.
         25    1    1    2    0    0  0.76845838464E+02  0.15352369956E+03  0.16185474611E+02  0.21298304816E+03  0.12500000000E+03 0.  0.
         25    1    1    2    0    0 -0.49101982644E+02 -0.96652054783E+02 -0.49146899384E+02  0.17260661086E+03  0.12500000000E+03 0.  0.
</event>
<event>
 5    0  0.5663008E-005  0.2494364E+03  0.7546771E-02  0.1113662E+00
         21   -1    0    0  502  501  0.00000000000E+00  0.00000000000E+00  0.46508878042E+02  0.46508878042E+02  0.00000000000E+00 0.  1.
         21   -1    0    0  501  502 -0.00000000000E+00 -0.00000000000E+00 -0.13377775392E+04  0.13377775392E+04  0.00000000000E+00 0.  1.
         25    1    1    2    0    0 -0.44256644676E+02  0.54868864302E+02 -0.32035685128E+03  0.35103098870E+03  0.12500000000E+03 0.  0.
         25    1    1    2    0    0  0.11538688657E+03 -0.85128968478E+01 -0.72407741268E+03  0.74384118100E+03  0.12500000000E+03 0.  0.
         25    1    1    2    0    0 -0.71130241898E+02 -0.46355967454E+02 -0.24683439715E+03  0.28941424749E+03  0.12500000000E+03 0.  0.
</event>
<event>
 5    0  0.6085565E-005  0.2835936E+03  0.7546771E-02  0.1093742E+00
         21   -1    0    0  502  501  0.00000000000E+00  0.00000000000E+00  0.24240964374E+03  0.24240964374E+03  0.00000000000E+00 0.  1.
         21   -1    0    0  501  502 -0.00000000000E+00 -0.00000000000E+00 -0.33177450204E+03  0.33177450204E+03  0.00000000000E+00 0.  1.
         25    1    1    2    0    0 -0.23291414264E+02 -0.16609228708E+03  0.64300094867E+02  0.21883473217E+03  0.12500000000E+03 0.  0.
         25    1    1    2    0    0  0.25875498081E+02  0.93337924586E+02 -0.21834097785E+02  0.15963469984E+03  0.12500000000E+03 0.  0.
         25    1    1    2    0    0 -0.25840838169E+01  0.72754362494E+02 -0.13183085539E+03  0.19571471376E+03  0.12500000000E+03 0.  0.
</event>
<event>
 5    0  0.5663008E-005  0.5943470E+03  0.7546771E-02  0.9917204E-01
         21   -1    0    0  502  501  0.00000000000E+00  0.00000000000E+00  0.30645553776E+03  0.30645553776E+03  0.00000000000E+00 0.  1.
         21   -1    0    0  501  502 -0.00000000000E+00 -0.00000000000E+00 -0.11526902325E+04  0.11526902325E+04  0.00000000000E+00 0.  1.
         25    1    1    2    0    0 -0.22606981311E+03 -0.19423210081E+03 -0.23563964648E+03  0.39998089002E+03  0.12500000000E+03 0.  0.
         25    1    1    2    0    0 -0.11245098058E+03 -0.23719331420E+03 -0.12647833310E+03  0.31706097218E+03  0.12500000000E+03 0.  0.
         25    1    1    2    0    0  0.33852079370E+03  0.43142541501E+03 -0.48411671516E+03  0.74210390807E+03  0.12500000000E+03 0.  0.
</event>
<event>
 5    0  0.5663008E-005  0.3154092E+03  0.7546771E-02  0.1077782E+00
         21   -1    0    0  502  501  0.00000000000E+00  0.00000000000E+00  0.11695455478E+03  0.11695455478E+03  0.00000000000E+00 0.  1.
         21   -1    0    0  501  502 -0.00000000000E+00 -0.00000000000E+00 -0.85061228272E+03  0.85061228272E+03  0.00000000000E+00 0.  1.
         25    1    1    2    0    0 -0.77804830886E+02  0.23172041458E+02 -0.20269747315E+03  0.25159849132E+03  0.12500000000E+03 0.  0.
         25    1    1    2    0    0 -0.10315754500E+03 -0.98904181233E+02 -0.41432014407E+03  0.45575179423E+03  0.12500000000E+03 0.  0.
         25    1    1    2    0    0  0.18096237589E+03  0.75732139775E+02 -0.11664011071E+03  0.26021655195E+03  0.12500000000E+03 0.  0.
</event>
<event>
 5    0  0.6693183E-005  0.2774871E+03  0.7546771E-02  0.1097069E+00
         21   -1    0    0  502  501  0.00000000000E+00  0.00000000000E+00  0.54515632807E+03  0.54515632807E+03  0.00000000000E+00 0. -1.
         21   -1    0    0  501  502 -0.00000000000E+00 -0.00000000000E+00 -0.14124218241E+03  0.14124218241E+03  0.00000000000E+00 0. -1.
         25    1    1    2    0    0 -0.89581444887E+02 -0.55209628593E+01  0.24205024607E+03  0.28682509988E+03  0.12500000000E+03 0.  0.
         25    1    1    2    0    0 -0.38587287341E+00  0.12009354245E+03  0.79135511745E+02  0.19055192745E+03  0.12500000000E+03 0.  0.
         25    1    1    2    0    0  0.89967317761E+02 -0.11457257959E+03  0.82728387848E+02  0.20902148314E+03  0.12500000000E+03 0.  0.
</event>
<event>
 5    0  0.5663008E-005  0.2927295E+03  0.7546771E-02  0.1088933E+00
         21   -1    0    0  502  501  0.00000000000E+00  0.00000000000E+00  0.27722771353E+03  0.27722771353E+03  0.00000000000E+00 0. -1.
         21   -1    0    0  501  502 -0.00000000000E+00 -0.00000000000E+00 -0.30909819931E+03  0.30909819931E+03  0.00000000000E+00 0. -1.
         25    1    1    2    0    0  0.87366683662E+02  0.19205530103E+02  0.94080473883E+01  0.15399773101E+03  0.12500000000E+03 0.  0.
         25    1    1    2    0    0 -0.10573576747E+03  0.38472064711E+02  0.12945809045E+03  0.21223701248E+03  0.12500000000E+03 0.  0.
         25    1    1    2    0    0  0.18369083806E+02 -0.57677594813E+02 -0.17073662362E+03  0.22009116935E+03  0.12500000000E+03 0.  0.
</event>
<event>
 5    0  0.6492826E-005  0.3495111E+03  0.7546771E-02  0.1062816E+00
         21   -1    0    0  502  501  0.00000000000E+00  0.00000000000E+00  0.20849214467E+03  0.20849214467E+03  0.00000000000E+00 0.  1.
         21   -1    0    0  501  502 -0.00000000000E+00 -0.00000000000E+00 -0.58591195915E+03  0.58591195915E+03  0.00000000000E+00 0.  1.
         25    1    1    2    0    0 -0.17033323914E+03 -0.38757420325E+02 -0.77427867437E+02  0.22833226807E+03  0.12500000000E+03 0.  0.
         25    1    1    2    0    0 -0.18071096642E+01 -0.76563551193E+02 -0.28874462484E+03  0.32382665331E+03  0.12500000000E+03 0.  0.
         25    1    1    2    0    0  0.17214034880E+03  0.11532097152E+03 -0.11247322194E+02  0.24224518244E+03  0.12500000000E+03 0.  0.
</event>
<event>
 5    0  0.5663008E-005  0.2438135E+03  0.7546771E-02  0.1117278E+00
         21   -1    0    0  502  501  0.00000000000E+00  0.00000000000E+00  0.65534624398E+03  0.65534624398E+03  0.00000000000E+00 0.  1.
         21   -1    0    0  501  502 -0.00000000000E+00 -0.00000000000E+00 -0.90707833775E+02  0.90707833775E+02  0.00000000000E+00 0.  1.
         25    1    1    2    0    0  0.26744327915E+02 -0.65509076769E+01  0.11705066157E+03  0.17344748727E+03  0.12500000000E+03 0.  0.
         25    1    1    2    0    0 -0.50039757326E+02 -0.72075094991E+02  0.72966133433E+02  0.16925676725E+03  0.12500000000E+03 0.  0.
         25    1    1    2    0    0  0.23295429411E+02  0.78626002668E+02  0.37462161520E+03  0.40334982323E+03  0.12500000000E+03 0.  0.
</event>
<event>
 5    0  0.5663008E-005  0.3364882E+03  0.7546771E-02  0.1068302E+00
         21   -1    0    0  502  501  0.00000000000E+00  0.00000000000E+00  0.30202156769E+03  0.30202156769E+03  0.00000000000E+00 0.  1.
         21   -1    0    0  501  502 -0.00000000000E+00 -0.00000000000E+00 -0.37488809536E+03  0.37488809536E+03  0.00000000000E+00 0.  1.
         25    1    1    2    0    0  0.18026822965E+03 -0.26622621312E+02  0.74335726893E+02  0.23314415901E+03  0.12500000000E+03 0.  0.
         25    1    1    2    0    0  0.19382021023E+02  0.70879335003E+02  0.26974566389E+02  0.14748616919E+03  0.12500000000E+03 0.  0.
         25    1    1    2    0    0 -0.19965025067E+03 -0.44256713692E+02 -0.17417682095E+03  0.29627933485E+03  0.12500000000E+03 0.  0.
</event>
<event>
 5    0  0.5663008E-005  0.2799401E+03  0.7546771E-02  0.1095722E+00
         21   -1    0    0  502  501  0.00000000000E+00  0.00000000000E+00  0.43263652290E+03  0.43263652290E+03  0.00000000000E+00 0.  1.
         21   -1    0    0  501  502 -0.00000000000E+00 -0.00000000000E+00 -0.18113699138E+03  0.18113699138E+03  0.00000000000E+00 0.  1.
         25    1    1    2    0    0  0.39218813911E+02  0.10225109669E+03 -0.52357741897E+02  0.17424045246E+03  0.12500000000E+03 0.  0.
         25    1    1    2    0    0  0.88396237361E+01 -0.91620138132E+02  0.25108824594E+03  0.29519941719E+03  0.12500000000E+03 0.  0.
         25    1    1    2    0    0 -0.48058437647E+02 -0.10630958554E+02  0.52769027471E+02  0.14433364462E+03  0.12500000000E+03 0.  0.
</event>
<event>
 5    0  0.5663008E-005  0.2189352E+03  0.7546771E-02  0.1134679E+00
         21   -1    0    0  502  501  0.00000000000E+00  0.00000000000E+00  0.78801823701E+02  0.78801823701E+02  0.00000000000E+00 0.  1.
         21   -1    0    0  501  502 -0.00000000000E+00 -0.00000000000E+00 -0.60826774483E+03  0.60826774483E+03  0.00000000000E+00 0.  1.
         25    1    1    2    0    0 -0.47535050248E+02 -0.32041539431E+02 -0.23245517783E+03  0.27008637684E+03  0.12500000000E+03 0.  0.
         25    1    1    2    0    0 -0.39338163602E+02  0.28693194199E+02 -0.18234770866E+03  0.22637684811E+03  0.12500000000E+03 0.  0.
         25    1    1    2    0    0  0.86873213850E+02  0.33483452320E+01 -0.11466303463E+03  0.19060634358E+03  0.12500000000E+03 0.  0.
</event>
<event>
 5    0  0.5663008E-005  0.2947681E+03  0.7546771E-02  0.1087886E+00
         21   -1    0    0  502  501  0.00000000000E+00  0.00000000000E+00  0.45142475383E+03  0.45142475383E+03  0.00000000000E+00 0.  1.
         21   -1    0    0  501  502 -0.00000000000E+00 -0.00000000000E+00 -0.19247557544E+03  0.19247557544E+03  0.00000000000E+00 0.  1.
         25    1    1    2    0    0 -0.11145506005E+03 -0.12524661326E+03  0.10036166419E+03  0.23196208350E+03  0.12500000000E+03 0.  0.
         25    1    1    2    0    0  0.16144251298E+03  0.32572530969E+02  0.41491989083E+02  0.21088205217E+03  0.12500000000E+03 0.  0.
         25    1    1    2    0    0 -0.49987452929E+02  0.92674082294E+02  0.11709552512E+03  0.20105619359E+03  0.12500000000E+03 0.  0.
</event>
<event>
 5    0  0.5663008E-005  0.3201474E+03  0.7546771E-02  0.1075582E+00
         21   -1    0    0  502  501  0.00000000000E+00  0.00000000000E+00  0.33429632000E+03  0.33429632000E+03  0.00000000000E+00 0. -1.
         21   -1    0    0  501  502 -0.00000000000E+00 -0.00000000000E+00 -0.30659723109E+03  0.30659723109E+03  0.00000000000E+00 0. -1.
         25    1    1    2    0    0  0.24012835729E+02 -0.17726172710E+03  0.19290584147E+02  0.21907866809E+03  0.12500000000E+03 0.  0.
         25    1    1    2    0    0 -0.82973930111E+02  0.40383910744E+02 -0.11335720651E+03  0.19232885793E+03  0.12500000000E+03 0.  0.
         25    1    1    2    0    0  0.58961094382E+02  0.13687781635E+03  0.12176571127E+03  0.22948602507E+03  0.12500000000E+03 0.  0.
</event>
<event>
 5    0  0.5663008E-005  0.3209246E+03  0.7546771E-02  0.1075225E+00
         21   -1    0    0  502  501  0.00000000000E+00  0.00000000000E+00  0.19651049227E+03  0.19651049227E+03  0.00000000000E+00 0. -1.
         21   -1    0    0  501  502 -0.00000000000E+00 -0.00000000000E+00 -0.52410733003E+03  0.52410733003E+03  0.00000000000E+00 0. -1.
         25    1    1    2    0    0 -0.93257539618E+02  0.10551033981E+03 -0.19330869284E+03  0.26985672352E+03  0.12500000000E+03 0.  0.
         25    1    1    2    0    0  0.14119740756E+02 -0.21289528594E+03 -0.84009272086E+02  0.26116341178E+03  0.12500000000E+03 0.  0.
         25    1    1    2    0    0  0.79137798862E+02  0.10738494613E+03 -0.50278872833E+02  0.18959768700E+03  0.12500000000E+03 0.  0.
</event>
<event>
 5    0  0.5663008E-005  0.3080042E+03  0.7546771E-02  0.1081306E+00
         21   -1    0    0  502  501  0.00000000000E+00  0.00000000000E+00  0.27212049816E+03  0.27212049816E+03  0.00000000000E+00 0. -1.
         21   -1    0    0  501  502 -0.00000000000E+00 -0.00000000000E+00 -0.34861983205E+03  0.34861983205E+03  0.00000000000E+00 0. -1.
         25    1    1    2    0    0  0.12129187848E+03 -0.10050718904E+03  0.21722818643E+02  0.20226293700E+03  0.12500000000E+03 0.  0.
         25    1    1    2    0    0 -0.20248111040E+03  0.49607268534E+02 -0.94890852602E+02  0.26093822079E+03  0.12500000000E+03 0.  0.
         25    1    1    2    0    0  0.81189231929E+02  0.50899920509E+02 -0.33312999271E+01  0.15753917242E+03  0.12500000000E+03 0.  0.
</event>
<event>
 5    0  0.5663008E-005  0.2592596E+03  0.7546771E-02  0.1107589E+00
         21   -1    0    0  502  501  0.00000000000E+00  0.00000000000E+00  0.66628471746E+02  0.66628471746E+02  0.00000000000E+00 0. -1.
         21   -1    0    0  501  502 -0.00000000000E+00 -0.00000000000E+00 -0.10088112159E+04  0.10088112159E+04  0.00000000000E+00 0. -1.
         25    1    1    2    0    0  0.11530434561E+03  0.49849742551E+02 -0.37843057510E+03  0.41786934456E+03  0.12500000000E+03 0.  0.
         25    1    1    2    0    0  0.52524553834E+01 -0.35707889076E+02 -0.10613775504E+03  0.16790730977E+03  0.12500000000E+03 0.  0.
         25    1    1    2    0    0 -0.12055680099E+03 -0.14141853475E+02 -0.45761441396E+03  0.48966303327E+03  0.12500000000E+03 0.  0.
</event>
<event>
 5    0  0.5663008E-005  0.2717751E+03  0.7546771E-02  0.1100268E+00
         21   -1    0    0  502  501  0.00000000000E+00  0.00000000000E+00  0.20860177751E+04  0.20860177751E+04  0.00000000000E+00 0. -1.
         21   -1    0    0  501  502 -0.00000000000E+00 -0.00000000000E+00 -0.35407981952E+02  0.35407981952E+02  0.00000000000E+00 0. -1.
         25    1    1    2    0    0  0.62090449042E+02 -0.13597914853E+02  0.59283366735E+03  0.60919363449E+03  0.12500000000E+03 0.  0.
         25    1    1    2    0    0 -0.15810797009E+03 -0.54055625831E+02  0.10379309992E+04  0.10587000992E+04  0.12500000000E+03 0.  0.
         25    1    1    2    0    0  0.96017521047E+02  0.67653540683E+02  0.41984512656E+03  0.45353202336E+03  0.12500000000E+03 0.  0.
</event>
<event>
 5    0  0.5663008E-005  0.2801685E+03  0.7546771E-02  0.1095597E+00
         21   -1    0    0  502  501  0.00000000000E+00  0.00000000000E+00  0.41864901608E+03  0.41864901608E+03  0.00000000000E+00 0.  1.
         21   -1    0    0  501  502 -0.00000000000E+00 -0.00000000000E+00 -0.18749454508E+03  0.18749454508E+03  0.00000000000E+00 0.  1.
         25    1    1    2    0    0  0.56577664975E+02 -0.12066362224E+03  0.27155630430E+02  0.18472457923E+03  0.12500000000E+03 0.  0.
         25    1    1    2    0    0  0.93459701503E+01  0.13178936763E+03  0.11348092845E+02  0.18223491375E+03  0.12500000000E+03 0.  0.
         25    1    1    2    0    0 -0.65923635125E+02 -0.11125745385E+02  0.19265074772E+03  0.23918406819E+03  0.12500000000E+03 0.  0.
</event>
<event>
 5    0  0.5663008E-005  0.2390597E+03  0.7546771E-02  0.1120421E+00
         21   -1    0    0  502  501  0.00000000000E+00  0.00000000000E+00  0.24992060664E+03  0.24992060664E+03  0.00000000000E+00 0. -1.
         21   -1    0    0  501  502 -0.00000000000E+00 -0.00000000000E+00 -0.22867073586E+03  0.22867073586E+03  0.00000000000E+00 0. -1.
         25    1    1    2    0    0  0.10318353707E+03 -0.24745458837E+02 -0.55556144018E+02  0.17312037775E+03  0.12500000000E+03 0.  0.
         25    1    1    2    0    0 -0.82170715913E+02  0.61084598963E+02  0.23661301283E+02  0.16330404760E+03  0.12500000000E+03 0.  0.
         25    1    1    2    0    0 -0.21012821154E+02 -0.36339140126E+02  0.53144713517E+02  0.14216691715E+03  0.12500000000E+03 0.  0.
</event>
<event>
 5    0  0.5663008E-005  0.3042467E+03  0.7546771E-02  0.1083137E+00
         21   -1    0    0  502  501  0.00000000000E+00  0.00000000000E+00  0.64364888230E+02  0.64364888230E+02  0.00000000000E+00 0. -1.
         21   -1    0    0  501  502 -0.00000000000E+00 -0.00000000000E+00 -0.14381452113E+04  0.14381452113E+04  0.00000000000E+00 0. -1.
         25    1    1    2    0    0 -0.85528968383E+02 -0.48449734578E+02 -0.77812879219E+03  0.79421155774E+03  0.12500000000E+03 0.  0.
         25    1    1    2    0    0  0.34140264309E+01 -0.57052204375E+02 -0.75353391269E+02  0.15674738651E+03  0.12500000000E+03 0.  0.
         25    1    1    2    0    0  0.82114941952E+02  0.10550193895E+03 -0.52029813963E+03  0.55155115531E+03  0.12500000000E+03 0.  0.
</event>
<event>
 5    0  0.5663008E-005  0.3160785E+03  0.7546771E-02  0.1077468E+00
         21   -1    0    0  502  501  0.00000000000E+00  0.00000000000E+00  0.22292168563E+03  0.22292168563E+03  0.00000000000E+00 0. -1.
         21   -1    0    0  501  502 -0.00000000000E+00 -0.00000000000E+00 -0.44816471664E+03  0.44816471664E+03  0.00000000000E+00 0. -1.
         25    1    1    2    0    0 -0.15059118364E+03  0.45692935812E+02 -0.11567321316E+03  0.23188540535E+03  0.12500000000E+03 0.  0.
         25    1    1    2    0    0 -0.18048245118E+02 -0.85996987826E+02  0.62216647049E+02  0.16497615657E+03  0.12500000000E+03 0.  0.
         25    1    1    2    0    0  0.16863942876E+03  0.40304052014E+02 -0.17178646490E+03  0.27422484034E+03  0.12500000000E+03 0.  0.
</event>
<event>
 5    0  0.5663008E-005  0.3297611E+03  0.7546771E-02  0.1071243E+00
         21   -1    0    0  502  501  0.00000000000E+00  0.00000000000E+00  0.14797903564E+04  0.14797903564E+04  0.00000000000E+00 0. -1.
         21   -1    0    0  501  502 -0.00000000000E+00 -0.00000000000E+00 -0.73484979306E+02  0.73484979306E+02  0.00000000000E+00 0.  1.
         25    1    1    2    0    0 -0.58940387222E+02 -0.17162661728E+02  0.15089570097E+03  0.20533640392E+03  0.12500000000E+03 0.  0.
         25    1    1    2    0    0  0.12338937717E+03 -0.15564041987E+03  0.88590031266E+03  0.91645689624E+03  0.12500000000E+03 0.  0.
         25    1    1    2    0    0 -0.64448989950E+02  0.17280308160E+03  0.36950936351E+03  0.43148203559E+03  0.12500000000E+03 0.  0.
</event>
<event>
 5    0  0.5663008E-005  0.2586487E+03  0.7546771E-02  0.1107958E+00
         21   -1    0    0  502  501  0.00000000000E+00  0.00000000000E+00  0.13858683367E+03  0.13858683367E+03  0.00000000000E+00 0.  1.
         21   -1    0    0  501  502 -0.00000000000E+00 -0.00000000000E+00 -0.48272384077E+03  0.48272384077E+03  0.00000000000E+00 0.  1.
         25    1    1    2    0    0 -0.42664929622E+01 -0.72875939489E+02 -0.12932510046E+03  0.19411101753E+03  0.12500000000E+03 0.  0.
         25    1    1    2    0    0  0.35313631756E+02 -0.58426924554E+02  0.25641266236E+01  0.14245115951E+03  0.12500000000E+03 0.  0.
         25    1    1    2    0    0 -0.31047138794E+02  0.13130286404E+03 -0.21737603327E+03  0.28474849740E+03  0.12500000000E+03 0.  0.
</event>
<event>
 5    0  0.5663008E-005  0.2975869E+03  0.7546771E-02  0.1086453E+00
         21   -1    0    0  502  501  0.00000000000E+00  0.00000000000E+00  0.13820427034E+03  0.13820427034E+03  0.00000000000E+00 0. -1.
         21   -1    0    0  501  502 -0.00000000000E+00 -0.00000000000E+00 -0.64077590974E+03  0.64077590974E+03  0.00000000000E+00 0. -1.
         25    1    1    2    0    0  0.56361752277E+01 -0.35258443689E+02 -0.66397054749E+02  0.14597428952E+03  0.12500000000E+03 0.  0.
         25    1    1    2    0    0 -0.98799854700E+02  0.14124974297E+03 -0.75283913295E+02  0.22584412496E+03  0.12500000000E+03 0.  0.
         25    1    1    2    0    0  0.93163679472E+02 -0.10599129928E+03 -0.36089067136E+03  0.40716176560E+03  0.12500000000E+03 0.  0.
</event>
<event>
 5    0  0.5663008E-005  0.3038437E+03  0.7546771E-02  0.1083335E+00
         21   -1    0    0  502  501  0.00000000000E+00  0.00000000000E+00  0.25385048245E+03  0.25385048245E+03  0.00000000000E+00 0.  1.
         21   -1    0    0  501  502 -0.00000000000E+00 -0.00000000000E+00 -0.36368250926E+03  0.36368250926E+03  0.00000000000E+00 0.  1.
         25    1    1    2    0    0 -0.68165978009E+01  0.20593358174E+02 -0.10848385992E+03  0.16692603233E+03  0.12500000000E+03 0.  0.
         25    1    1    2    0    0  0.53003352675E+02 -0.18126226196E+03 -0.59035219355E+02  0.23404170596E+03  0.12500000000E+03 0.  0.
         25    1    1    2    0    0 -0.46186754874E+02  0.16066890378E+03  0.57687052469E+02  0.21656525342E+03  0.12500000000E+03 0.  0.
</event>
<event>
 5    0  0.7249404E-005  0.3336765E+03  0.7546771E-02  0.1069522E+00
         21   -1    0    0  502  501  0.00000000000E+00  0.00000000000E+00  0.70336757246E+03  0.70336757246E+03  0.00000000000E+00 0. -1.
         21   -1    0    0  501  502 -0.00000000000E+00 -0.00000000000E+00 -0.15829564640E+03  0.15829564640E+03  0.00000000000E+00 0. -1.
         25    1    1    2    0    0  0.55802597455E+02 -0.87071469122E+02  0.36045914264E+03  0.39528618004E+03  0.12500000000E+03 0.  0.
         25    1    1    2    0    0 -0.16740352219E+03 -0.45521905566E+02  0.10634340522E+03  0.23880976312E+03  0.12500000000E+03 0.  0.
         25    1    1    2    0    0  0.11160092473E+03  0.13259337469E+03  0.78269378200E+02  0.22756727571E+03  0.12500000000E+03 0.  0.
</event>
<event>
 5    0  0.5663008E-005  0.3564111E+03  0.7546771E-02  0.1060014E+00
         21   -1    0    0  502  501  0.00000000000E+00  0.00000000000E+00  0.10227364976E+04  0.10227364976E+04  0.00000000000E+00 0.  1.
         21   -1    0    0  501  502 -0.00000000000E+00 -0.00000000000E+00 -0.12420488291E+03  0.12420488291E+03  0.00000000000E+00 0.  1.
         25    1    1    2    0    0  0.12685956179E+02  0.17179148475E+03  0.14034035712E+03  0.25493854859E+03  0.12500000000E+03 0.  0.
         25    1    1    2    0    0 -0.65818249997E+02 -0.15987280110E+03  0.13142340400E+03  0.25057626720E+03  0.12500000000E+03 0.  0.
         25    1    1    2    0    0  0.53132293818E+02 -0.11918683654E+02  0.62676785361E+03  0.64142656476E+03  0.12500000000E+03 0.  0.
</event>
<event>
 5    0  0.6393825E-005  0.3607180E+03  0.7546771E-02  0.1058300E+00
         21   -1    0    0  502  501  0.00000000000E+00  0.00000000000E+00  0.66582022978E+03  0.66582022978E+03  0.00000000000E+00 0.  1.
         21   -1    0    0  501  502 -0.00000000000E+00 -0.00000000000E+00 -0.19542429943E+03  0.19542429943E+03  0.00000000000E+00 0.  1.
         25    1    1    2    0    0  0.19927499945E+03  0.63694831282E+01  0.27550953344E+03  0.36232802643E+03  0.12500000000E+03 0.  0.
         25    1    1    2    0    0 -0.83704266424E+02 -0.25984023916E+02 -0.81997746653E+02  0.17329225076E+03  0.12500000000E+03 0.  0.
         25    1    1    2    0    0 -0.11557073303E+03  0.19614540788E+02  0.27688414357E+03  0.32562425202E+03  0.12500000000E+03 0.  0.
</event>
<event>
 5    0  0.5663008E-005  0.2471847E+03  0.7546771E-02  0.1115097E+00
         21   -1    0    0  502  501  0.00000000000E+00  0.00000000000E+00  0.24349778235E+03  0.24349778235E+03  0.00000000000E+00 0. -1.
         21   -1    0    0  501  502 -0.00000000000E+00 -0.00000000000E+00 -0.25092753769E+03  0.25092753769E+03  0.00000000000E+00 0. -1.
         25    1    1    2    0    0  0.94460688095E+02 -0.38181280497E+02 -0.25411702048E+02  0.16325252334E+03  0.12500000000E+03 0.  0.
         25    1    1    2    0    0 -0.11450550841E+02 -0.21798043481E+02 -0.71871049149E+02  0.14627616867E+03  0.12500000000E+03 0.  0.
         25    1    1    2    0    0 -0.83010137254E+02  0.59979323978E+02  0.89852995865E+02  0.18489662803E+03  0.12500000000E+03 0.  0.
</event>
<event>
 5    0  0.5663008E-005  0.6292506E+03  0.7546771E-02  0.9846512E-01
         21   -1    0    0  502  501  0.00000000000E+00  0.00000000000E+00  0.28626591359E+03  0.28626591359E+03  0.00000000000E+00 0.  1.
         21   -1    0    0  501  502 -0.00000000000E+00 -0.00000000000E+00 -0.13831764452E+04  0.13831764452E+04  0.00000000000E+00 0.  1.
         25    1    1    2    0    0 -0.28961722322E+03 -0.98276287052E+01 -0.99280635943E+03  0.10417601382E+04  0.12500000000E+03 0.  0.
         25    1    1    2    0    0  0.10561411285E+02 -0.17911291728E+03  0.68224033565E+02  0.22906876544E+03  0.12500000000E+03 0.  0.
         25    1    1    2    0    0  0.27905581193E+03  0.18894054599E+03 -0.17232820570E+03  0.39861345508E+03  0.12500000000E+03 0.  0.
</event>
<event>
 5    0  0.5663008E-005  0.2413218E+03  0.7546771E-02  0.1118915E+00
         21   -1    0    0  502  501  0.00000000000E+00  0.00000000000E+00  0.34910423004E+02  0.34910423004E+02  0.00000000000E+00 0.  1.
         21   -1    0    0  501  502 -0.00000000000E+00 -0.00000000000E+00 -0.16681618040E+04  0.16681618040E+04  0.00000000000E+00 0.  1.
         25    1    1    2    0    0  0.12717471826E+02  0.12426484347E+03 -0.88724287065E+03  0.90467032500E+03  0.12500000000E+03 0.  0.
         25    1    1    2    0    0 -0.23441690489E+01 -0.47104793078E+02 -0.41850876562E+03  0.43931645037E+03  0.12500000000E+03 0.  0.
         25    1    1    2    0    0 -0.10373302777E+02 -0.77160050391E+02 -0.32749974473E+03  0.35908545165E+03  0.12500000000E+03 0.  0.
</event>
<event>
 5    0  0.5663008E-005  0.3180680E+03  0.7546771E-02  0.1076542E+00
         21   -1    0    0  502  501  0.00000000000E+00  0.00000000000E+00  0.16490969255E+03  0.16490969255E+03  0.00000000000E+00 0. -1.
         21   -1    0    0  501  502 -0.00000000000E+00 -0.00000000000E+00 -0.61347080494E+03  0.61347080494E+03  0.00000000000E+00 0. -1.
         25    1    1    2    0    0 -0.46304690998E+01  0.50895396312E+01  0.39866569916E+01  0.12525269694E+03  0.12500000000E+03 0.  0.
         25    1    1    2    0    0  0.10152956559E+03 -0.11022786747E+03 -0.41631639606E+03  0.45978557729E+03  0.12500000000E+03 0.  0.
         25    1    1    2    0    0 -0.96899096488E+02  0.10513832784E+03 -0.36231373316E+02  0.19334222326E+03  0.12500000000E+03 0.  0.
</event>
<event>
 5    0  0.5663008E-005  0.5504776E+03  0.7546771E-02  0.1001383E+00
         21   -1    0    0  502  501  0.00000000000E+00  0.00000000000E+00  0.21000600868E+03  0.21000600868E+03  0.00000000000E+00 0. -1.
         21   -1    0    0  501  502 -0.00000000000E+00 -0.00000000000E+00 -0.14429374986E+04  0.14429374986E+04  0.00000000000E+00 0. -1.
         25    1    1    2    0    0 -0.20935238952E+02 -0.20454889753E+02 -0.32699824483E+02  0.13248005611E+03  0.12500000000E+03 0.  0.
         25    1    1    2    0    0  0.17955910287E+03  0.12429964720E+03  0.44200104163E+02  0.25548096392E+03  0.12500000000E+03 0.  0.
         25    1    1    2    0    0 -0.15862386392E+03 -0.10384475745E+03 -0.12444317696E+04  0.12649824872E+04  0.12500000000E+03 0.  0.
</event>
<event>
 5    0  0.5663008E-005  0.2175348E+03  0.7546771E-02  0.1135734E+00
         21   -1    0    0  502  501  0.00000000000E+00  0.00000000000E+00  0.12206060446E+04  0.12206060446E+04  0.00000000000E+00 0.  1.
         21   -1    0    0  501  502 -0.00000000000E+00 -0.00000000000E+00 -0.38768781244E+02  0.38768781244E+02  0.00000000000E+00 0.  1.
         25    1    1    2    0    0 -0.39907857273E+02 -0.13698868514E+02  0.19954028051E+03  0.23921040867E+03  0.12500000000E+03 0.  0.
         25    1    1    2    0    0  0.30096835783E+02  0.56855477934E+02  0.56934007346E+03  0.58643966795E+03  0.12500000000E+03 0.  0.
         25    1    1    2    0    0  0.98110214892E+01 -0.43156609420E+02  0.41295690935E+03  0.43372474919E+03  0.12500000000E+03 0.  0.
</event>
<event>
 5    0  0.5663008E-005  0.2158736E+03  0.7546771E-02  0.1136997E+00
         21   -1    0    0  502  501  0.00000000000E+00  0.00000000000E+00  0.54307365072E+02  0.54307365072E+02  0.00000000000E+00 0.  1.
         21   -1    0    0  501  502 -0.00000000000E+00 -0.00000000000E+00 -0.85810445856E+03  0.85810445856E+03  0.00000000000E+00 0.  1.
         25    1    1    2    0    0 -0.98511520307E+01  0.52162654695E+01 -0.47214485984E+03  0.48853866101E+03  0.12500000000E+03 0.  0.
         25    1    1    2    0    0  0.15335210654E+02  0.15676259804E+02 -0.10751637059E+03  0.16633004465E+03  0.12500000000E+03 0.  0.
         25    1    1    2    0    0 -0.54840586231E+01 -0.20892525273E+02 -0.22413586305E+03  0.25754311798E+03  0.12500000000E+03 0.  0.
</event>
<event>
 5    0  0.5663008E-005  0.3044107E+03  0.7546771E-02  0.1083056E+00
         21   -1    0    0  502  501  0.00000000000E+00  0.00000000000E+00  0.41094900385E+02  0.41094900385E+02  0.00000000000E+00 0. -1.
         21   -1    0    0  501  502 -0.00000000000E+00 -0.00000000000E+00 -0.22549232545E+04  0.22549232545E+04  0.00000000000E+00 0. -1.
         25    1    1    2    0    0  0.51799446624E+02 -0.11169894768E+03 -0.48216298431E+03  0.51309451471E+03  0.12500000000E+03 0.  0.
         25    1    1    2    0    0  0.50518823412E+02  0.17163713580E+03 -0.60511132152E+03  0.64326990396E+03  0.12500000000E+03 0.  0.
         25    1    1    2    0    0 -0.10231827004E+03 -0.59938188120E+02 -0.11265540482E+04  0.11396537362E+04  0.12500000000E+03 0.  0.
</event>
<event>
 5    0  0.5663008E-005  0.3079516E+03  0.7546771E-02  0.1081332E+00
         21   -1    0    0  502  501  0.00000000000E+00  0.00000000000E+00  0.17237888336E+04  0.17237888336E+04  0.00000000000E+00 0. -1.
         21   -1    0    0  501  502 -0.00000000000E+00 -0.00000000000E+00 -0.55014960211E+02  0.55014960211E+02  0.00000000000E+00 0. -1.
         25    1    1    2    0    0  0.82622092533E+02  0.24137206560E+02  0.38328380211E+03  0.41223838720E+03  0.12500000000E+03 0.  0.
         25    1    1    2    0    0  0.10226183092E+03  0.95661475982E+02  0.76530895796E+03  0.78799200579E+03  0.12500000000E+03 0.  0.
         25    1    1    2    0    0 -0.18488392346E+03 -0.11979868254E+03  0.52018111328E+03  0.57857340079E+03  0.12500000000E+03 0.  0.
</event>
<event>
 5    0  0.5663008E-005  0.3252858E+03  0.7546771E-02  0.1073242E+00
         21   -1    0    0  502  501  0.00000000000E+00  0.00000000000E+00  0.19965412212E+03  0.19965412212E+03  0.00000000000E+00 0. -1.
         21   -1    0    0  501  502 -0.00000000000E+00 -0.00000000000E+00 -0.52997092975E+03  0.52997092975E+03  0.00000000000E+00 0. -1.
         25    1    1    2    0    0  0.24806708776E+03 -0.17414205641E+02 -0.10548474737E+03  0.29764503442E+03  0.12500000000E+03 0.  0.
         25    1    1    2    0    0 -0.13735203046E+03  0.46680592716E+02 -0.16318315810E+03  0.25159173495E+03  0.12500000000E+03 0.  0.
         25    1    1    2    0    0 -0.11071505730E+03 -0.29266387075E+02 -0.61648902158E+02  0.18038828250E+03  0.12500000000E+03 0.  0.
</event>
<event>
 5    0  0.5663008E-005  0.2518014E+03  0.7546771E-02  0.1112172E+00
         21   -1    0    0  502  501  0.00000000000E+00  0.00000000000E+00  0.28251562442E+03  0.28251562442E+03  0.00000000000E+00 0.  1.
         21   -1    0    0  501  502 -0.00000000000E+00 -0.00000000000E+00 -0.22442632170E+03  0.22442632170E+03  0.00000000000E+00 0.  1.
         25    1    1    2    0    0  0.78069960038E+02 -0.48336141733E+02  0.51046465006E+02  0.16328515807E+03  0.12500000000E+03 0.  0.
         25    1    1    2    0    0 -0.13487986465E+03 -0.79232025892E+01 -0.39281251134E+02  0.18821097661E+03  0.12500000000E+03 0.  0.
         25    1    1    2    0    0  0.56809904612E+02  0.56259344322E+02  0.46324088846E+02  0.15544581144E+03  0.12500000000E+03 0.  0.
</event>
<event>
 5    0  0.5663008E-005  0.4325088E+03  0.7546771E-02  0.1033070E+00
         21   -1    0    0  502  501  0.00000000000E+00  0.00000000000E+00  0.12439392719E+04  0.12439392719E+04  0.00000000000E+00 0. -1.
         21   -1    0    0  501  502 -0.00000000000E+00 -0.00000000000E+00 -0.15038019725E+03  0.15038019725E+03  0.00000000000E+00 0. -1.
         25    1    1    2    0    0 -0.38469658523E+02  0.30445718427E+02  0.25462760348E+02  0.13667555949E+03  0.12500000000E+03 0.  0.
         25    1    1    2    0    0  0.42735853221E+02  0.14929470389E+03  0.10122054091E+04  0.10316491904E+04  0.12500000000E+03 0.  0.
         25    1    1    2    0    0 -0.42661946972E+01 -0.17974042232E+03  0.55890905109E+02  0.22599471920E+03  0.12500000000E+03 0.  0.
</event>
<event>
 5    0  0.5663008E-005  0.2890993E+03  0.7546771E-02  0.1090820E+00
         21   -1    0    0  502  501  0.00000000000E+00  0.00000000000E+00  0.42242696771E+02  0.42242696771E+02  0.00000000000E+00 0.  1.
         21   -1    0    0  501  502 -0.00000000000E+00 -0.00000000000E+00 -0.19785293137E+04  0.19785293137E+04  0.00000000000E+00 0.  1.
         25    1    1    2    0    0  0.62092713666E+02 -0.13780572614E+03 -0.88032358535E+03  0.90190938468E+03  0.12500000000E+03 0.  0.
         25    1    1    2    0    0  0.50639318438E+01  0.74614103454E+02 -0.19175980643E+03  0.24081057120E+03  0.12500000000E+03 0.  0.
         25    1    1    2    0    0 -0.67156645510E+02  0.63191622687E+02 -0.86420322516E+03  0.87805205460E+03  0.12500000000E+03 0.  0.
</event>
<event>
 5    0  0.5663008E-005  0.4267434E+03  0.7546771E-02  0.1034894E+00
         21   -1    0    0  502  501  0.00000000000E+00  0.00000000000E+00  0.14927896108E+04  0.14927896108E+04  0.00000000000E+00 0. -1.
         21   -1    0    0  501  502 -0.00000000000E+00 -0.00000000000E+00 -0.12199303322E+03  0.12199303322E+03  0.00000000000E+00 0. -1.
         25    1    1    2    0    0 -0.50846175847E+01 -0.62694704020E+02  0.13534764635E+03  0.19468041663E+03  0.12500000000E+03 0.  0.
         25    1    1    2    0    0 -0.20810929000E+03  0.12351421781E+03  0.16204234584E+03  0.31693526221E+03  0.12500000000E+03 0.  0.
         25    1    1    2    0    0  0.21319390759E+03 -0.60819513792E+02  0.10734065854E+04  0.11031669652E+04  0.12500000000E+03 0.  0.
</event>
<event>
 5    0  0.5663008E-005  0.3070891E+03  0.7546771E-02  0.1081750E+00
         21   -1    0    0  502  501  0.00000000000E+00  0.00000000000E+00  0.93296963833E+02  0.93296963833E+02  0.00000000000E+00 0. -1.
         21   -1    0    0  501  502 -0.00000000000E+00 -0.00000000000E+00 -0.10107909576E+04  0.10107909576E+04  0.00000000000E+00 0. -1.
         25    1    1    2    0    0 -0.91438623589E+02  0.10740778924E+03 -0.70456792111E+02  0.20121285900E+03  0.12500000000E+03 0.  0.
         25    1    1    2    0    0 -0.83984406527E+01 -0.79616377553E+02 -0.45275737537E+03  0.47646987558E+03  0.12500000000E+03 0.  0.
         25    1    1    2    0    0  0.99837064242E+02 -0.27791411684E+02 -0.39427982626E+03  0.42640518683E+03  0.12500000000E+03 0.  0.
</event>
<event>
 5    0  0.5814896E-005  0.3886505E+03  0.7546771E-02  0.1047782E+00
         21   -1    0    0  502  501  0.00000000000E+00  0.00000000000E+00  0.45673698563E+03  0.45673698563E+03  0.00000000000E+00 0.  1.
         21   -1    0    0  501  502 -0.00000000000E+00 -0.00000000000E+00 -0.33071378518E+03  0.33071378518E+03  0.00000000000E+00 0.  1.
         25    1    1    2    0    0  0.63915464892E+02 -0.31818566624E+02 -0.15487599181E+03  0.21144545555E+03  0.12500000000E+03 0.  0.
         25    1    1    2    0    0  0.21473901613E+02  0.22206404150E+03  0.18024425651E+03  0.31286827737E+03  0.12500000000E+03 0.  0.
         25    1    1    2    0    0 -0.85389366505E+02 -0.19024547487E+03  0.10065493574E+03  0.26313703789E+03  0.12500000000E+03 0.  0.
</event>
<event>
 5    0  0.5663008E-005  0.3431730E+03  0.7546771E-02  0.1065453E+00
         21   -1    0    0  502  501  0.00000000000E+00  0.00000000000E+00  0.84735901656E+02  0.84735901656E+02  0.00000000000E+00 0.  1.
         21   -1    0    0  501  502 -0.00000000000E+00 -0.00000000000E+00 -0.13898206252E+04  0.13898206252E+04  0.00000000000E+00 0.  1.
         25    1    1    2    0    0  0.43336803539E+02 -0.95633840835E+02 -0.41568391580E+03  0.44658932803E+03  0.12500000000E+03 0.  0.
         25    1    1    2    0    0 -0.10619687447E+03  0.22746880099E+03 -0.31251628824E+03  0.41989434622E+03  0.12500000000E+03 0.  0.
         25    1    1    2    0    0  0.62860070928E+02 -0.13183496015E+03 -0.57688451948E+03  0.60807285259E+03  0.12500000000E+03 0.  0.
</event>
<event>
 5    0  0.5663008E-005  0.3391304E+03  0.7546771E-02  0.1067167E+00
         21   -1    0    0  502  501  0.00000000000E+00  0.00000000000E+00  0.32939988268E+03  0.32939988268E+03  0.00000000000E+00 0. -1.
         21   -1    0    0  501  502 -0.00000000000E+00 -0.00000000000E+00 -0.34914832564E+03  0.34914832564E+03  0.00000000000E+00 0. -1.
         25    1    1    2    0    0 -0.15883890159E+03  0.13856062627E+03  0.20327090882E+02  0.24590045635E+03  0.12500000000E+03 0.  0.
         25    1    1    2    0    0  0.10655704079E+03 -0.20534235623E+03  0.32690082051E+02  0.26497835321E+03  0.12500000000E+03 0.  0.
         25    1    1    2    0    0  0.52281860800E+02  0.66781729957E+02 -0.72765615896E+02  0.16766939876E+03  0.12500000000E+03 0.  0.
</event>
<event>
 5    0  0.5663008E-005  0.2784030E+03  0.7546771E-02  0.1096564E+00
         21   -1    0    0  502  501  0.00000000000E+00  0.00000000000E+00  0.22509820789E+04  0.22509820789E+04  0.00000000000E+00 0. -1.
         21   -1    0    0  501  502 -0.00000000000E+00 -0.00000000000E+00 -0.34433073700E+02  0.34433073700E+02  0.00000000000E+00 0. -1.
         25    1    1    2    0    0 -0.48927159661E+02  0.82396294646E+02  0.88043451957E+03  0.89441207482E+03  0.12500000000E+03 0.  0.
         25    1    1    2    0    0 -0.10862424438E+03  0.12197883090E+01  0.48648035136E+03  0.51389575461E+03  0.12500000000E+03 0.  0.
         25    1    1    2    0    0  0.15755140404E+03 -0.83616082955E+02  0.84963413424E+03  0.87710732314E+03  0.12500000000E+03 0.  0.
</event>
<event>
 5    0  0.5663008E-005  0.6326579E+03  0.7546771E-02  0.9839876E-01
         21   -1    0    0  502  501  0.00000000000E+00  0.00000000000E+00  0.18379143182E+04  0.18379143182E+04  0.00000000000E+00 0.  1.
         21   -1    0    0  501  502 -0.00000000000E+00 -0.00000000000E+00 -0.21777732606E+03  0.21777732606E+03  0.00000000000E+00 0.  1.
         25    1    1    2    0    0  0.10530504398E+03  0.19608013477E+03  0.24579636050E+03  0.35436904827E+03  0.12500000000E+03 0.  0.
         25    1    1    2    0    0 -0.23022128149E+03  0.28306669177E+03  0.23216127269E+03  0.45016935366E+03  0.12500000000E+03 0.  0.
         25    1    1    2    0    0  0.12491623751E+03 -0.47914682654E+03  0.11421793589E+04  0.12511532423E+04  0.12500000000E+03 0.  0.
</event>
<event>
 5    0  0.5663008E-005  0.2433370E+03  0.7546771E-02  0.1117590E+00
         21   -1    0    0  502  501  0.00000000000E+00  0.00000000000E+00  0.13843014925E+03  0.13843014925E+03  0.00000000000E+00 0. -1.
         21   -1    0    0  501  502 -0.00000000000E+00 -0.00000000000E+00 -0.42774582208E+03  0.42774582208E+03  0.00000000000E+00 0. -1.
         25    1    1    2    0    0  0.21623837751E+01 -0.37309595815E+02 -0.15679024173E+03  0.20397269853E+03  0.12500000000E+03 0.  0.
         25    1    1    2    0    0  0.10521016411E+03  0.27475165149E+02 -0.10131762776E+03  0.19420176371E+03  0.12500000000E+03 0.  0.
         25    1    1    2    0    0 -0.10737254789E+03  0.98344306655E+01 -0.31207803328E+02  0.16800150909E+03  0.12500000000E+03 0.  0.
</event>
<event>
 5    0  0.5663008E-005  0.2525644E+03  0.7546771E-02  0.1111695E+00
         21   -1    0    0  502  501  0.00000000000E+00  0.00000000000E+00  0.34520332549E+03  0.34520332549E+03  0.00000000000E+00 0.  1.
         21   -1    0    0  501  502 -0.00000000000E+00 -0.00000000000E+00 -0.18478611625E+03  0.18478611625E+03  0.00000000000E+00 0.  1.
         25    1    1    2    0    0  0.43616589404E+02 -0.30422210892E+02 -0.40157227940E+02  0.14165281763E+03  0.12500000000E+03 0.  0.
         25    1    1    2    0    0 -0.56989446014E+02 -0.69814439494E+02  0.35981316611E+02  0.15824508859E+03  0.12500000000E+03 0.  0.
         25    1    1    2    0    0  0.13372856610E+02  0.10023665039E+03  0.16459312057E+03  0.23009153551E+03  0.12500000000E+03 0.  0.
</event>
<event>
 5    0  0.5663008E-005  0.3440292E+03  0.7546771E-02  0.1065093E+00
         21   -1    0    0  502  501  0.00000000000E+00  0.00000000000E+00  0.34488284891E+03  0.34488284891E+03  0.00000000000E+00 0. -1.
         21   -1    0    0  501  502 -0.00000000000E+00 -0.00000000000E+00 -0.34317766924E+03  0.34317766924E+03  0.00000000000E+00 0. -1.
         25    1    1    2    0    0 -0.14096230948E+02  0.14705449806E+03  0.17353342044E+03  0.25992802299E+03  0.12500000000E+03 0.  0.
         25    1    1    2    0    0 -0.38634187022E+02 -0.14507729850E+03 -0.21036353419E+03  0.28708507357E+03  0.12500000000E+03 0.  0.
         25    1    1    2    0    0  0.52730417970E+02 -0.19771995519E+01  0.38535293427E+02  0.14104742159E+03  0.12500000000E+03 0.  0.
</event>
<event>
 5    0  0.5663008E-005  0.3444988E+03  0.7546771E-02  0.1064896E+00
         21   -1    0    0  502  501  0.00000000000E+00  0.00000000000E+00  0.56652459592E+03  0.56652459592E+03  0.00000000000E+00 0.  1.
         21   -1    0    0  501  502 -0.00000000000E+00 -0.00000000000E+00 -0.20948678721E+03  0.20948678721E+03  0.00000000000E+00 0.  1.
         25    1    1    2    0    0  0.18298106492E+02 -0.51817668690E+02  0.15062692678E+03  0.20330608097E+03  0.12500000000E+03 0.  0.
         25    1    1    2    0    0 -0.71556369328E+02  0.25167969728E+03  0.14038920706E+03  0.32217559417E+03  0.12500000000E+03 0.  0.
         25    1    1    2    0    0  0.53258262836E+02 -0.19986202859E+03  0.66021674864E+02  0.25052970799E+03  0.12500000000E+03 0.  0.
</event>
<event>
 5    0  0.6527229E-005  0.3076124E+03  0.7546771E-02  0.1081496E+00
         21   -1    0    0  502  501  0.00000000000E+00  0.00000000000E+00  0.59055584132E+03  0.59055584132E+03  0.00000000000E+00 0.  1.
         21   -1    0    0  501  502 -0.00000000000E+00 -0.00000000000E+00 -0.16023102661E+03  0.16023102661E+03  0.00000000000E+00 0.  1.
         25    1    1    2    0    0  0.54931773709E+02 -0.12964285297E+03  0.14004430205E+03  0.23465330943E+03  0.12500000000E+03 0.  0.
         25    1    1    2    0    0 -0.60692845023E+02  0.12415468846E+03  0.33483365667E+03  0.38319262225E+03  0.12500000000E+03 0.  0.
         25    1    1    2    0    0  0.57610713139E+01  0.54881645055E+01 -0.44553144010E+02  0.13294093626E+03  0.12500000000E+03 0.  0.
</event>
<event>
 5    0  0.5663008E-005  0.2785719E+03  0.7546771E-02  0.1096471E+00
         21   -1    0    0  502  501  0.00000000000E+00  0.00000000000E+00  0.68470634843E+02  0.68470634843E+02  0.00000000000E+00 0.  1.
         21   -1    0    0  501  502 -0.00000000000E+00 -0.00000000000E+00 -0.11333663057E+04  0.11333663057E+04  0.00000000000E+00 0.  1.
         25    1    1    2    0    0 -0.96152379335E+01  0.28990402076E+02 -0.38461298746E+03  0.40556756076E+03  0.12500000000E+03 0.  0.
         25    1    1    2    0    0  0.53110911671E+02 -0.11420402780E+03 -0.11980452882E+03  0.21410617466E+03  0.12500000000E+03 0.  0.
         25    1    1    2    0    0 -0.43495673737E+02  0.85213625720E+02 -0.56047815453E+03  0.58216320508E+03  0.12500000000E+03 0.  0.
</event>
<event>
 5    0  0.6308648E-005  0.6672960E+03  0.7546771E-02  0.9774855E-01
         21   -1    0    0  502  501  0.00000000000E+00  0.00000000000E+00  0.55303804064E+03  0.55303804064E+03  0.00000000000E+00 0.  1.
         21   -1    0    0  501  502 -0.00000000000E+00 -0.00000000000E+00 -0.80515980859E+03  0.80515980859E+03  0.00000000000E+00 0.  1.
         25    1    1    2    0    0  0.21025443217E+03  0.41700633714E+03 -0.74144803338E+01  0.48350924084E+03  0.12500000000E+03 0.  0.
         25    1    1    2    0    0 -0.24095040332E+03  0.33078484546E+02 -0.29692304075E+03  0.40365774503E+03  0.12500000000E+03 0.  0.
         25    1    1    2    0    0  0.30695971144E+02 -0.45008482169E+03  0.52215753126E+02  0.47103086335E+03  0.12500000000E+03 0.  0.
</event>
<event>
 5    0  0.5663008E-005  0.2155052E+03  0.7546771E-02  0.1137279E+00
         21   -1    0    0  502  501  0.00000000000E+00  0.00000000000E+00  0.30908603685E+03  0.30908603685E+03  0.00000000000E+00 0. -1.
         21   -1    0    0  501  502 -0.00000000000E+00 -0.00000000000E+00 -0.15025746755E+03  0.15025746755E+03  0.00000000000E+00 0. -1.
         25    1    1    2    0    0 -0.91710424073E+01  0.65064977334E+01  0.30753456866E+02  0.12921771411E+03  0.12500000000E+03 0.  0.
         25    1    1    2    0    0  0.77950633683E+02 -0.69698130533E+00  0.15177833329E+02  0.14809508331E+03  0.12500000000E+03 0.  0.
         25    1    1    2    0    0 -0.68779591276E+02 -0.58095164280E+01  0.11289727910E+03  0.18203070698E+03  0.12500000000E+03 0.  0.
</event>
<event>
 5    0  0.5663008E-005  0.3732779E+03  0.7546771E-02  0.1053447E+00
         21   -1    0    0  502  501  0.00000000000E+00  0.00000000000E+00  0.12090131350E+04  0.12090131350E+04  0.00000000000E+00 0. -1.
         21   -1    0    0  501  502 -0.00000000000E+00 -0.00000000000E+00 -0.11524801059E+03  0.11524801059E+03  0.00000000000E+00 0. -1.
         25    1    1    2    0    0  0.15864476652E+03 -0.89581031533E+02  0.27084939197E+03  0.34953871930E+03  0.12500000000E+03 0.  0.
         25    1    1    2    0    0  0.13431320559E+03  0.74476951514E+02  0.38591562461E+03  0.43375421937E+03  0.12500000000E+03 0.  0.
         25    1    1    2    0    0 -0.29295797212E+03  0.15104080019E+02  0.43700010783E+03  0.54096820693E+03  0.12500000000E+03 0.  0.
</event>
<event>
 5    0  0.5663008E-005  0.2234962E+03  0.7546771E-02  0.1131303E+00
         21   -1    0    0  502  501  0.00000000000E+00  0.00000000000E+00  0.21355136351E+04  0.21355136351E+04  0.00000000000E+00 0. -1.
         21   -1    0    0  501  502 -0.00000000000E+00 -0.00000000000E+00 -0.23390422812E+02  0.23390422812E+02  0.00000000000E+00 0. -1.
         25    1    1    2    0    0  0.55610816949E+02 -0.22955954720E+02  0.96687716111E+03  0.97677836969E+03  0.12500000000E+03 0.  0.
         25    1    1    2    0    0 -0.31951325394E+02  0.36791609517E+02  0.84736332394E+03  0.85791847659E+03  0.12500000000E+03 0.  0.
         25    1    1    2    0    0 -0.23659491555E+02 -0.13835654797E+02  0.29788272726E+03  0.32420721165E+03  0.12500000000E+03 0.  0.
</event>
<event>
 5    0  0.5663008E-005  0.3036043E+03  0.7546771E-02  0.1083453E+00
         21   -1    0    0  502  501  0.00000000000E+00  0.00000000000E+00  0.47329934645E+03  0.47329934645E+03  0.00000000000E+00 0. -1.
         21   -1    0    0  501  502 -0.00000000000E+00 -0.00000000000E+00 -0.19475107107E+03  0.19475107107E+03  0.00000000000E+00 0. -1.
         25    1    1    2    0    0  0.16585038876E+03  0.79870776907E+02  0.18871655059E+02  0.22330882611E+03  0.12500000000E+03 0.  0.
         25    1    1    2    0    0 -0.13629977727E+03  0.35387851589E+02  0.12834509745E+03  0.22787582883E+03  0.12500000000E+03 0.  0.
         25    1    1    2    0    0 -0.29550611490E+02 -0.11525862850E+03  0.13133152287E+03  0.21686576258E+03  0.12500000000E+03 0.  0.
</event>
<event>
 5    0  0.5663008E-005  0.2218141E+03  0.7546771E-02  0.1132538E+00
         21   -1    0    0  502  501  0.00000000000E+00  0.00000000000E+00  0.14520930379E+04  0.14520930379E+04  0.00000000000E+00 0. -1.
         21   -1    0    0  501  502 -0.00000000000E+00 -0.00000000000E+00 -0.33883147635E+02  0.33883147635E+02  0.00000000000E+00 0. -1.
         25    1    1    2    0    0 -0.21653803594E+01  0.60929421119E+01  0.50218594027E+03  0.51754954490E+03  0.12500000000E+03 0.  0.
         25    1    1    2    0    0 -0.89185133652E+02 -0.11348055960E+02  0.36760949513E+03  0.39855301699E+03  0.12500000000E+03 0.  0.
         25    1    1    2    0    0  0.91350514011E+02  0.52551138482E+01  0.54841445482E+03  0.56987362361E+03  0.12500000000E+03 0.  0.
</event>
<event>
 5    0  0.5663008E-005  0.2430191E+03  0.7546771E-02  0.1117798E+00
         21   -1    0    0  502  501  0.00000000000E+00  0.00000000000E+00  0.28454289736E+03  0.28454289736E+03  0.00000000000E+00 0. -1.
         21   -1    0    0  501  502 -0.00000000000E+00 -0.00000000000E+00 -0.20755500541E+03  0.20755500541E+03  0.00000000000E+00 0. -1.
         25    1    1    2    0    0 -0.36066617977E+02  0.32932988619E+02 -0.25231435707E+02  0.13655404798E+03  0.12500000000E+03 0.  0.
         25    1    1    2    0    0 -0.62332897839E+01 -0.59613227157E+02 -0.54481800473E+02  0.14894917703E+03  0.12500000000E+03 0.  0.
         25    1    1    2    0    0  0.42299907760E+02  0.26680238538E+02  0.15670112813E+03  0.20659467777E+03  0.12500000000E+03 0.  0.
</event>
<event>
 5    0  0.5987895E-005  0.3104810E+03  0.7546771E-02  0.1080116E+00
         21   -1    0    0  502  501  0.00000000000E+00  0.00000000000E+00  0.23542557310E+03  0.23542557310E+03  0.00000000000E+00 0. -1.
         21   -1    0    0  501  502 -0.00000000000E+00 -0.00000000000E+00 -0.40946464867E+03  0.40946464867E+03  0.00000000000E+00 0. -1.
         25    1    1    2    0    0  0.77595734135E+02  0.55205069635E+02  0.42839983554E+02  0.16287713732E+03  0.12500000000E+03 0.  0.
         25    1    1    2    0    0 -0.92160668838E+01 -0.10943420678E+03 -0.27287416093E+03  0.31960301814E+03  0.12500000000E+03 0.  0.
         25    1    1    2    0    0 -0.68379667252E+02  0.54229137142E+02  0.55995101810E+02  0.16241006630E+03  0.12500000000E+03 0.  0.
</event>
<event>
 5    0  0.5663008E-005  0.2390720E+03  0.7546771E-02  0.1120413E+00
         21   -1    0    0  502  501  0.00000000000E+00  0.00000000000E+00  0.93888960872E+03  0.93888960872E+03  0.00000000000E+00 0.  1.
         21   -1    0    0  501  502 -0.00000000000E+00 -0.00000000000E+00 -0.60875545978E+02  0.60875545978E+02  0.00000000000E+00 0.  1.
         25    1    1    2    0    0  0.31677784856E+02 -0.28269181104E+02  0.39527189466E+03  0.41673432708E+03  0.12500000000E+03 0.  0.
         25    1    1    2    0    0  0.81145654309E+02  0.49893802983E+02  0.23066706408E+03  0.27911700636E+03  0.12500000000E+03 0.  0.
         25    1    1    2    0    0 -0.11282343916E+03 -0.21624621880E+02  0.25207510400E+03  0.30391382126E+03  0.12500000000E+03 0.  0.
</event>
<event>
 5    0  0.5663008E-005  0.2332632E+03  0.7546771E-02  0.1124364E+00
         21   -1    0    0  502  501  0.00000000000E+00  0.00000000000E+00  0.38136166080E+03  0.38136166080E+03  0.00000000000E+00 0.  1.
         21   -1    0    0  501  502 -0.00000000000E+00 -0.00000000000E+00 -0.14267744206E+03  0.14267744206E+03  0.00000000000E+00 0.  1.
         25    1    1    2    0    0 -0.46744673293E+02  0.26437878881E+01  0.12337524024E+03  0.18176496912E+03  0.12500000000E+03 0.  0.
         25    1    1    2    0    0  0.10064838494E+03  0.47187960919E+02  0.19266594274E+02  0.16838349890E+03  0.12500000000E+03 0.  0.
         25    1    1    2    0    0 -0.53903711649E+02 -0.49831748807E+02  0.96042384228E+02  0.17389063484E+03  0.12500000000E+03 0.  0.
</event>
<event>
 5    0  0.5663008E-005  0.2431097E+03  0.7546771E-02  0.1117738E+00
         21   -1    0    0  502  501  0.00000000000E+00  0.00000000000E+00  0.61281689351E+03  0.61281689351E+03  0.00000000000E+00 0.  1.
         21   -1    0    0  501  502 -0.00000000000E+00 -0.00000000000E+00 -0.96443698583E+02  0.96443698583E+02  0.00000000000E+00 0.  1.
         25    1    1    2    0    0 -0.97754174410E+02 -0.42754605333E+02  0.17251063558E+03  0.23826194467E+03  0.12500000000E+03 0.  0.
         25    1    1    2    0    0  0.10083762909E+02  0.87674071456E+02  0.11137784047E+03  0.18925762449E+03  0.12500000000E+03 0.  0.
         25    1    1    2    0    0  0.87670411501E+02 -0.44919466123E+02  0.23248471888E+03  0.28174102293E+03  0.12500000000E+03 0.  0.
</event>
<event>
 5    0  0.5663008E-005  0.3365630E+03  0.7546771E-02  0.1068269E+00
         21   -1    0    0  502  501  0.00000000000E+00  0.00000000000E+00  0.34791929710E+03  0.34791929710E+03  0.00000000000E+00 0. -1.
         21   -1    0    0  501  502 -0.00000000000E+00 -0.00000000000E+00 -0.32557729677E+03  0.32557729677E+03  0.00000000000E+00 0. -1.
         25    1    1    2    0    0 -0.12760575068E+03 -0.12094783923E+03 -0.12301824271E+02  0.21607392786E+03  0.12500000000E+03 0.  0.
         25    1    1    2    0    0  0.20604257624E+03 -0.24355943221E+02 -0.20553096110E+02  0.24309295538E+03  0.12500000000E+03 0.  0.
         25    1    1    2    0    0 -0.78436825569E+02  0.14530378246E+03  0.55196920720E+02  0.21432971063E+03  0.12500000000E+03 0.  0.
</event>
<event>
 5    0  0.5663008E-005  0.4959254E+03  0.7546771E-02  0.1014848E+00
         21   -1    0    0  502  501  0.00000000000E+00  0.00000000000E+00  0.99715576482E+02  0.99715576482E+02  0.00000000000E+00 0.  1.
         21   -1    0    0  501  502 -0.00000000000E+00 -0.00000000000E+00 -0.24664353486E+04  0.24664353486E+04  0.00000000000E+00 0.  1.
         25    1    1    2    0    0  0.20734222485E+03 -0.50055985314E+02 -0.27005771366E+03  0.36613190052E+03  0.12500000000E+03 0.  0.
         25    1    1    2    0    0  0.15695294675E+02  0.27164536224E+03 -0.67136148277E+03  0.73511141036E+03  0.12500000000E+03 0.  0.
         25    1    1    2    0    0 -0.22303751952E+03 -0.22158937693E+03 -0.14253005757E+04  0.14649076142E+04  0.12500000000E+03 0.  0.
</event>
<event>
 5    0  0.5663008E-005  0.2658832E+03  0.7546771E-02  0.1103659E+00
         21   -1    0    0  502  501  0.00000000000E+00  0.00000000000E+00  0.57869733390E+03  0.57869733390E+03  0.00000000000E+00 0. -1.
         21   -1    0    0  501  502 -0.00000000000E+00 -0.00000000000E+00 -0.12216032926E+03  0.12216032926E+03  0.00000000000E+00 0. -1.
         25    1    1    2    0    0  0.13930107504E+03 -0.29777271730E+01  0.95575493894E+02  0.21017452605E+03  0.12500000000E+03 0.  0.
         25    1    1    2    0    0 -0.32709668646E+02 -0.75854680765E+02  0.17393702901E+03  0.22957122006E+03  0.12500000000E+03 0.  0.
         25    1    1    2    0    0 -0.10659140639E+03  0.78832407938E+02  0.18702448174E+03  0.26111191705E+03  0.12500000000E+03 0.  0.
</event>
<event>
 5    0  0.5663008E-005  0.2388593E+03  0.7546771E-02  0.1120555E+00
         21   -1    0    0  502  501  0.00000000000E+00  0.00000000000E+00  0.13999482558E+04  0.13999482558E+04  0.00000000000E+00 0.  1.
         21   -1    0    0  501  502 -0.00000000000E+00 -0.00000000000E+00 -0.40754212341E+02  0.40754212341E+02  0.00000000000E+00 0.  1.
         25    1    1    2    0    0  0.26632390233E+02 -0.91735898027E+01  0.20272696943E+03  0.23982631860E+03  0.12500000000E+03 0.  0.
         25    1    1    2    0    0  0.79660932355E+02 -0.22977640469E+02  0.66633691790E+03  0.68301077903E+03  0.12500000000E+03 0.  0.
         25    1    1    2    0    0 -0.10629332259E+03  0.32151230272E+02  0.49013015615E+03  0.51786537054E+03  0.12500000000E+03 0.  0.
</event>
<event>
 5    0  0.5663008E-005  0.4059838E+03  0.7546771E-02  0.1041727E+00
         21   -1    0    0  502  501  0.00000000000E+00  0.00000000000E+00  0.13993397621E+04  0.13993397621E+04  0.00000000000E+00 0. -1.
         21   -1    0    0  501  502 -0.00000000000E+00 -0.00000000000E+00 -0.11778617365E+03  0.11778617365E+03  0.00000000000E+00 0. -1.
         25    1    1    2    0    0 -0.12270317639E+03 -0.11205726639E+03  0.48265150550E+03  0.52553817769E+03  0.12500000000E+03 0.  0.
         25    1    1    2    0    0  0.42875354318E+02  0.31071332283E+03  0.42189542127E+03  0.54037191959E+03  0.12500000000E+03 0.  0.
         25    1    1    2    0    0  0.79827822070E+02 -0.19865605644E+03  0.37700666173E+03  0.45121583851E+03  0.12500000000E+03 0.  0.
</event>
<event>
 5    0  0.5663008E-005  0.6190898E+03  0.7546771E-02  0.9866574E-01
         21   -1    0    0  502  501  0.00000000000E+00  0.00000000000E+00  0.38563113309E+03  0.38563113309E+03  0.00000000000E+00 0.  1.
         21   -1    0    0  501  502 -0.00000000000E+00 -0.00000000000E+00 -0.99388285773E+03  0.99388285773E+03  0.00000000000E+00 0.  1.
         25    1    1    2    0    0 -0.71681861408E+02 -0.50600411209E+02 -0.12414994350E+03  0.19681691833E+03  0.12500000000E+03 0.  0.
         25    1    1    2    0    0 -0.33439251558E+03 -0.42055138450E+02 -0.62888253985E+03  0.72436540369E+03  0.12500000000E+03 0.  0.
         25    1    1    2    0    0  0.40607437699E+03  0.92655549659E+02  0.14478075871E+03  0.45833166879E+03  0.12500000000E+03 0.  0.
</event>
<event>
 5    0  0.5663008E-005  0.4247335E+03  0.7546771E-02  0.1035537E+00
         21   -1    0    0  502  501  0.00000000000E+00  0.00000000000E+00  0.33276398829E+03  0.33276398829E+03  0.00000000000E+00 0. -1.
         21   -1    0    0  501  502 -0.00000000000E+00 -0.00000000000E+00 -0.54212165936E+03  0.54212165936E+03  0.00000000000E+00 0. -1.
         25    1    1    2    0    0 -0.22401527850E+03  0.15020181109E+02 -0.37019835041E+02  0.25962264737E+03  0.12500000000E+03 0.  0.
         25    1    1    2    0    0 -0.99973151046E+02  0.97930826714E+02  0.41373754115E+02  0.19215063175E+03  0.12500000000E+03 0.  0.
         25    1    1    2    0    0  0.32398842954E+03 -0.11295100782E+03 -0.21371159014E+03  0.42311236853E+03  0.12500000000E+03 0.  0.
</event>
<event>
 5    0  0.5663008E-005  0.2695789E+03  0.7546771E-02  0.1101521E+00
         21   -1    0    0  502  501  0.00000000000E+00  0.00000000000E+00  0.21450946230E+03  0.21450946230E+03  0.00000000000E+00 0.  1.
         21   -1    0    0  501  502 -0.00000000000E+00 -0.00000000000E+00 -0.33878594031E+03  0.33878594031E+03  0.00000000000E+00 0.  1.
         25    1    1    2    0    0  0.90309967679E+02  0.33879096245E+02  0.40262894160E+02  0.16294104477E+03  0.12500000000E+03 0.  0.
         25    1    1    2    0    0  0.15139619424E+02 -0.24648119744E+02  0.34229680004E+02  0.13279084636E+03  0.12500000000E+03 0.  0.
         25    1    1    2    0    0 -0.10544958710E+03 -0.92309765013E+01 -0.19876905218E+03  0.25756351149E+03  0.12500000000E+03 0.  0.
</event>
<event>
 5    0  0.5663008E-005  0.4277318E+03  0.7546771E-02  0.1034579E+00
         21   -1    0    0  502  501  0.00000000000E+00  0.00000000000E+00  0.58951319915E+03  0.58951319915E+03  0.00000000000E+00 0. -1.
         21   -1    0    0  501  502 -0.00000000000E+00 -0.00000000000E+00 -0.31034847463E+03  0.31034847463E+03  0.00000000000E+00 0. -1.
         25    1    1    2    0    0  0.13083064325E+03 -0.53593063424E+02 -0.39439293187E+02  0.19279349446E+03  0.12500000000E+03 0.  0.
         25    1    1    2    0    0  0.21699564225E+02  0.27478457203E+03  0.49310700136E+02  0.30664960013E+03  0.12500000000E+03 0.  0.
         25    1    1    2    0    0 -0.15253020748E+03 -0.22119150860E+03  0.26929331757E+03  0.40041857919E+03  0.12500000000E+03 0.  0.
</event>
<event>
 5    0  0.5663008E-005  0.4347647E+03  0.7546771E-02  0.1032365E+00
         21   -1    0    0  502  501  0.00000000000E+00  0.00000000000E+00  0.34405483753E+03  0.34405483753E+03  0.00000000000E+00 0. -1.
         21   -1    0    0  501  502 -0.00000000000E+00 -0.00000000000E+00 -0.54939021802E+03  0.54939021802E+03  0.00000000000E+00 0. -1.
         25    1    1    2    0    0 -0.19712443330E+03  0.14831887791E+02 -0.34175375311E+01  0.23391174973E+03  0.12500000000E+03 0.  0.
         25    1    1    2    0    0  0.29295271693E+03 -0.62053079727E+02  0.79051485069E+02  0.33398505408E+03  0.12500000000E+03 0.  0.
         25    1    1    2    0    0 -0.95828283624E+02  0.47221191937E+02 -0.28096932803E+03  0.32554825173E+03  0.12500000000E+03 0.  0.
</event>
<event>
 5    0  0.5663008E-005  0.4359015E+03  0.7546771E-02  0.1032012E+00
         21   -1    0    0  502  501  0.00000000000E+00  0.00000000000E+00  0.14996337182E+04  0.14996337182E+04  0.00000000000E+00 0.  1.
         21   -1    0    0  501  502 -0.00000000000E+00 -0.00000000000E+00 -0.12670433878E+03  0.12670433878E+03  0.00000000000E+00 0.  1.
         25    1    1    2    0    0 -0.94504396084E+02 -0.45051659755E+02  0.29565221900E+03  0.33763288869E+03  0.12500000000E+03 0.  0.
         25    1    1    2    0    0  0.10863932585E+03  0.15841188780E+03  0.10947382770E+04  0.11184693668E+04  0.12500000000E+03 0.  0.
         25    1    1    2    0    0 -0.14134929767E+02 -0.11336022805E+03 -0.17461116524E+02  0.17023580156E+03  0.12500000000E+03 0.  0.
</event>
<event>
 5    0  0.5663008E-005  0.4006492E+03  0.7546771E-02  0.1043555E+00
         21   -1    0    0  502  501  0.00000000000E+00  0.00000000000E+00  0.13201483434E+03  0.13201483434E+03  0.00000000000E+00 0. -1.
         21   -1    0    0  501  502 -0.00000000000E+00 -0.00000000000E+00 -0.12159220974E+04  0.12159220974E+04  0.00000000000E+00 0. -1.
         25    1    1    2    0    0 -0.11693995212E+03 -0.15038601740E+03 -0.18364835094E+03  0.29264760965E+03  0.12500000000E+03 0.  0.
         25    1    1    2    0    0  0.26577148930E+03  0.12962347909E+03 -0.72443328188E+03  0.79237952443E+03  0.12500000000E+03 0.  0.
         25    1    1    2    0    0 -0.14883153718E+03  0.20762538310E+02 -0.17582563023E+03  0.26290979765E+03  0.12500000000E+03 0.  0.
</event>
<event>
 5    0  0.5663008E-005  0.8059014E+03  0.7546771E-02  0.9551514E-01
         21   -1    0    0  502  501  0.00000000000E+00  0.00000000000E+00  0.31803737890E+03  0.31803737890E+03  0.00000000000E+00 0.  1.
         21   -1    0    0  501  502 -0.00000000000E+00 -0.00000000000E+00 -0.20421404597E+04  0.20421404597E+04  0.00000000000E+00 0.  1.
         25    1    1    2    0    0  0.57563354776E+03 -0.20600738579E+03 -0.49330103196E+03  0.79546460162E+03  0.12500000000E+03 0.  0.
         25    1    1    2    0    0 -0.31711600702E+03  0.29229564344E+03 -0.20065891415E+03  0.49182141567E+03  0.12500000000E+03 0.  0.
         25    1    1    2    0    0 -0.25851754073E+03 -0.86288257650E+02 -0.10301431347E+04  0.10728918213E+04  0.12500000000E+03 0.  0.
</event>
<event>
 5    0  0.5663008E-005  0.2600806E+03  0.7546771E-02  0.1107095E+00
         21   -1    0    0  502  501  0.00000000000E+00  0.00000000000E+00  0.56992991777E+03  0.56992991777E+03  0.00000000000E+00 0.  1.
         21   -1    0    0  501  502 -0.00000000000E+00 -0.00000000000E+00 -0.11868460475E+03  0.11868460475E+03  0.00000000000E+00 0.  1.
         25    1    1    2    0    0  0.11803384457E+03  0.18114786859E+02  0.12264589441E+03  0.21196025425E+03  0.12500000000E+03 0.  0.
         25    1    1    2    0    0 -0.38514607387E+02  0.29315033655E+02  0.28524256132E+03  0.31516831213E+03  0.12500000000E+03 0.  0.
         25    1    1    2    0    0 -0.79519237178E+02 -0.47429820514E+02  0.43356857287E+02  0.16148595614E+03  0.12500000000E+03 0.  0.
</event>
<event>
 5    0  0.5663008E-005  0.3119155E+03  0.7546771E-02  0.1079431E+00
         21   -1    0    0  502  501  0.00000000000E+00  0.00000000000E+00  0.32394812261E+03  0.32394812261E+03  0.00000000000E+00 0. -1.
         21   -1    0    0  501  502 -0.00000000000E+00 -0.00000000000E+00 -0.30032988582E+03  0.30032988582E+03  0.00000000000E+00 0. -1.
         25    1    1    2    0    0 -0.25054473396E+02 -0.47191596162E+02 -0.14566662261E+01  0.13594813446E+03  0.12500000000E+03 0.  0.
         25    1    1    2    0    0 -0.15311077052E+02 -0.18329798163E+03  0.12303664831E+02  0.22273068787E+03  0.12500000000E+03 0.  0.
         25    1    1    2    0    0  0.40365550448E+02  0.23048957779E+03  0.12771238184E+02  0.26559918610E+03  0.12500000000E+03 0.  0.
</event>
<event>
 5    0  0.5663008E-005  0.5453073E+03  0.7546771E-02  0.1002586E+00
         21   -1    0    0  502  501  0.00000000000E+00  0.00000000000E+00  0.13353826896E+04  0.13353826896E+04  0.00000000000E+00 0. -1.
         21   -1    0    0  501  502 -0.00000000000E+00 -0.00000000000E+00 -0.22267779994E+03  0.22267779994E+03  0.00000000000E+00 0. -1.
         25    1    1    2    0    0  0.18835429958E+02  0.32569582229E+02  0.15974012620E+03  0.20629459282E+03  0.12500000000E+03 0.  0.
         25    1    1    2    0    0 -0.21547931599E+03 -0.32173723621E+03  0.96407150197E+02  0.41816925209E+03  0.12500000000E+03 0.  0.
         25    1    1    2    0    0  0.19664388603E+03  0.28916765399E+03  0.85655761327E+03  0.93359664464E+03  0.12500000000E+03 0.  0.
</event>
<event>
 5    0  0.5663008E-005  0.3668044E+03  0.7546771E-02  0.1055922E+00
         21   -1    0    0  502  501  0.00000000000E+00  0.00000000000E+00  0.41260722907E+03  0.41260722907E+03  0.00000000000E+00 0.  1.
         21   -1    0    0  501  502 -0.00000000000E+00 -0.00000000000E+00 -0.32608610245E+03  0.32608610245E+03  0.00000000000E+00 0. -1.
         25    1    1    2    0    0  0.11135414599E+03 -0.15432122002E+03  0.15794091466E+03  0.27710127625E+03  0.12500000000E+03 0.  0.
         25    1    1    2    0    0  0.67769196238E+02 -0.51532421908E+02  0.69079643964E+01  0.15139674514E+03  0.12500000000E+03 0.  0.
         25    1    1    2    0    0 -0.17912334222E+03  0.20585364193E+03 -0.78327752425E+02  0.31019531013E+03  0.12500000000E+03 0.  0.
</event>
<event>
 5    0  0.5663008E-005  0.3968215E+03  0.7546771E-02  0.1044886E+00
         21   -1    0    0  502  501  0.00000000000E+00  0.00000000000E+00  0.61322228758E+03  0.61322228758E+03  0.00000000000E+00 0. -1.
         21   -1    0    0  501  502 -0.00000000000E+00 -0.00000000000E+00 -0.25678672041E+03  0.25678672041E+03  0.00000000000E+00 0. -1.
         25    1    1    2    0    0  0.67635554751E+02  0.60277456203E+02 -0.84374675939E+02  0.17593187867E+03  0.12500000000E+03 0.  0.
         25    1    1    2    0    0 -0.18523796465E+03 -0.51599991850E+02  0.92200818756E+01  0.22953359801E+03  0.12500000000E+03 0.  0.
         25    1    1    2    0    0  0.11760240990E+03 -0.86774643537E+01  0.43159016124E+03  0.46454353130E+03  0.12500000000E+03 0.  0.
</event>
<event>
 5    0  0.5663008E-005  0.3239648E+03  0.7546771E-02  0.1073839E+00
         21   -1    0    0  502  501  0.00000000000E+00  0.00000000000E+00  0.13313109932E+04  0.13313109932E+04  0.00000000000E+00 0.  1.
         21   -1    0    0  501  502 -0.00000000000E+00 -0.00000000000E+00 -0.78834454337E+02  0.78834454337E+02  0.00000000000E+00 0.  1.
         25    1    1    2    0    0  0.21824697809E+01 -0.20837098494E+03  0.75606638034E+03  0.79415653496E+03  0.12500000000E+03 0.  0.
         25    1    1    2    0    0  0.21523348289E+02  0.58622503488E+02  0.94711216871E+02  0.16880481936E+03  0.12500000000E+03 0.  0.
         25    1    1    2    0    0 -0.23705818070E+02  0.14974848145E+03  0.40169894165E+03  0.44718409322E+03  0.12500000000E+03 0.  0.
</event>
<event>
 5    0  0.5835056E-005  0.3676238E+03  0.7546771E-02  0.1055605E+00
         21   -1    0    0  502  501  0.00000000000E+00  0.00000000000E+00  0.72806995010E+03  0.72806995010E+03  0.00000000000E+00 0. -1.
         21   -1    0    0  501  502 -0.00000000000E+00 -0.00000000000E+00 -0.18562395271E+03  0.18562395271E+03  0.00000000000E+00 0. -1.
         25    1    1    2    0    0 -0.76427311239E+02 -0.20538106127E+03  0.30066994743E+03  0.39249195090E+03  0.12500000000E+03 0.  0.
         25    1    1    2    0    0  0.18494593978E+03  0.10664048705E+03  0.56314685802E+02  0.25371940792E+03  0.12500000000E+03 0.  0.
         25    1    1    2    0    0 -0.10851862854E+03  0.98740574223E+02  0.18546136416E+03  0.26748254398E+03  0.12500000000E+03 0.  0.
</event>
<event>
 5    0  0.5663008E-005  0.2159705E+03  0.7546771E-02  0.1136923E+00
         21   -1    0    0  502  501  0.00000000000E+00  0.00000000000E+00  0.34940788195E+03  0.34940788195E+03  0.00000000000E+00 0. -1.
         21   -1    0    0  501  502 -0.00000000000E+00 -0.00000000000E+00 -0.13349227511E+03  0.13349227511E+03  0.00000000000E+00 0. -1.
         25    1    1    2    0    0 -0.44162290301E+02 -0.71860130349E+02  0.81841461867E+02  0.17157275745E+03  0.12500000000E+03 0.  0.
         25    1    1    2    0    0 -0.17964982803E+02  0.46417866782E+02  0.37435867229E+02  0.13965601712E+03  0.12500000000E+03 0.  0.
         25    1    1    2    0    0  0.62127273104E+02  0.25442263567E+02  0.96638277744E+02  0.17167138248E+03  0.12500000000E+03 0.  0.
</event>
<event>
 5    0  0.5663008E-005  0.4108755E+03  0.7546771E-02  0.1040078E+00
         21   -1    0    0  502  501  0.00000000000E+00  0.00000000000E+00  0.36328626464E+03  0.36328626464E+03  0.00000000000E+00 0. -1.
         21   -1    0    0  501  502 -0.00000000000E+00 -0.00000000000E+00 -0.46469879944E+03  0.46469879944E+03  0.00000000000E+00 0. -1.
         25    1    1    2    0    0  0.30052425478E+02 -0.89437844613E+02 -0.19647078249E+03  0.25125294963E+03  0.12500000000E+03 0.  0.
         25    1    1    2    0    0 -0.14619052207E+03  0.22218907544E+03 -0.73115335054E+02  0.30283742538E+03  0.12500000000E+03 0.  0.
         25    1    1    2    0    0  0.11613809660E+03 -0.13275123083E+03  0.16817358275E+03  0.27389468907E+03  0.12500000000E+03 0.  0.
</event>
<event>
 5    0  0.5663008E-005  0.3214374E+03  0.7546771E-02  0.1074990E+00
         21   -1    0    0  502  501  0.00000000000E+00  0.00000000000E+00  0.91409377109E+03  0.91409377109E+03  0.00000000000E+00 0. -1.
         21   -1    0    0  501  502 -0.00000000000E+00 -0.00000000000E+00 -0.11303213666E+03  0.11303213666E+03  0.00000000000E+00 0. -1.
         25    1    1    2    0    0 -0.22198559671E+02 -0.27609188291E+02  0.23903973525E+03  0.27206623892E+03  0.12500000000E+03 0.  0.
         25    1    1    2    0    0  0.21060480076E+03  0.32173711029E+02  0.16155896044E+03  0.29515390474E+03  0.12500000000E+03 0.  0.
         25    1    1    2    0    0 -0.18840624109E+03 -0.45645227375E+01  0.40046293873E+03  0.45990576410E+03  0.12500000000E+03 0.  0.
</event>
<event>
 5    0  0.5663008E-005  0.2659157E+03  0.7546771E-02  0.1103640E+00
         21   -1    0    0  502  501  0.00000000000E+00  0.00000000000E+00  0.13449028275E+03  0.13449028275E+03  0.00000000000E+00 0.  1.
         21   -1    0    0  501  502 -0.00000000000E+00 -0.00000000000E+00 -0.52577149254E+03  0.52577149254E+03  0.00000000000E+00 0.  1.
         25    1    1    2    0    0  0.24994591588E+02  0.11795573893E+03 -0.19887287928E+03  0.26403353588E+03  0.12500000000E+03 0.  0.
         25    1    1    2    0    0  0.15088505655E+02  0.23619965581E+01  0.10379090949E+02  0.12635650976E+03  0.12500000000E+03 0.  0.
         25    1    1    2    0    0 -0.40083097244E+02 -0.12031773549E+03 -0.20278742146E+03  0.26987172964E+03  0.12500000000E+03 0.  0.
</event>
<event>
 5    0  0.5663008E-005  0.4094577E+03  0.7546771E-02  0.1040553E+00
         21   -1    0    0  502  501  0.00000000000E+00  0.00000000000E+00  0.78521065225E+03  0.78521065225E+03  0.00000000000E+00 0.  1.
         21   -1    0    0  501  502 -0.00000000000E+00 -0.00000000000E+00 -0.21351669759E+03  0.21351669759E+03  0.00000000000E+00 0.  1.
         25    1    1    2    0    0 -0.17439579853E+03  0.35692711994E+02  0.10992688819E+03  0.24371455636E+03  0.12500000000E+03 0.  0.
         25    1    1    2    0    0  0.30933213155E+03 -0.58647248935E+00  0.10107408760E+03  0.34860820809E+03  0.12500000000E+03 0.  0.
         25    1    1    2    0    0 -0.13493633302E+03 -0.35106239505E+02  0.36069297887E+03  0.40640458539E+03  0.12500000000E+03 0.  0.
</event>
<event>
 5    0  0.5663008E-005  0.3144545E+03  0.7546771E-02  0.1078230E+00
         21   -1    0    0  502  501  0.00000000000E+00  0.00000000000E+00  0.10742302007E+03  0.10742302007E+03  0.00000000000E+00 0.  1.
         21   -1    0    0  501  502 -0.00000000000E+00 -0.00000000000E+00 -0.92048817174E+03  0.92048817174E+03  0.00000000000E+00 0.  1.
         25    1    1    2    0    0  0.26366704331E+02  0.52232102018E+02 -0.38601577067E+03  0.40994703412E+03  0.12500000000E+03 0.  0.
         25    1    1    2    0    0  0.10635120469E+03  0.10580900951E+03 -0.12700303666E+03  0.23293968436E+03  0.12500000000E+03 0.  0.
         25    1    1    2    0    0 -0.13271790902E+03 -0.15804111153E+03 -0.30004634435E+03  0.38502447333E+03  0.12500000000E+03 0.  0.
</event>
<event>
 5    0  0.5663008E-005  0.3144469E+03  0.7546771E-02  0.1078234E+00
         21   -1    0    0  502  501  0.00000000000E+00  0.00000000000E+00  0.51480840022E+03  0.51480840022E+03  0.00000000000E+00 0. -1.
         21   -1    0    0  501  502 -0.00000000000E+00 -0.00000000000E+00 -0.19206529680E+03  0.19206529680E+03  0.00000000000E+00 0. -1.
         25    1    1    2    0    0 -0.49710760956E+01 -0.45384052357E+01  0.96363251620E+02  0.15797526700E+03  0.12500000000E+03 0.  0.
         25    1    1    2    0    0  0.40770339152E+02 -0.45665890461E+02  0.34108283192E+03  0.36838850733E+03  0.12500000000E+03 0.  0.
         25    1    1    2    0    0 -0.35799263056E+02  0.50204295697E+02 -0.11470298012E+03  0.18050992269E+03  0.12500000000E+03 0.  0.
</event>
<event>
 5    0  0.5663008E-005  0.2260797E+03  0.7546771E-02  0.1129430E+00
         21   -1    0    0  502  501  0.00000000000E+00  0.00000000000E+00  0.10176118301E+04  0.10176118301E+04  0.00000000000E+00 0. -1.
         21   -1    0    0  501  502 -0.00000000000E+00 -0.00000000000E+00 -0.50227437323E+02  0.50227437323E+02  0.00000000000E+00 0. -1.
         25    1    1    2    0    0  0.10261310162E+02 -0.18840407093E+02  0.13923180908E+03  0.18833680491E+03  0.12500000000E+03 0.  0.
         25    1    1    2    0    0 -0.39296656823E+02 -0.21635824257E+02  0.60089304578E+03  0.61539401086E+03  0.12500000000E+03 0.  0.
         25    1    1    2    0    0  0.29035346661E+02  0.40476231350E+02  0.22725953791E+03  0.26410845165E+03  0.12500000000E+03 0.  0.
</event>
<event>
 5    0  0.5663008E-005  0.3219195E+03  0.7546771E-02  0.1074769E+00
         21   -1    0    0  502  501  0.00000000000E+00  0.00000000000E+00  0.30495096132E+03  0.30495096132E+03  0.00000000000E+00 0. -1.
         21   -1    0    0  501  502 -0.00000000000E+00 -0.00000000000E+00 -0.33983218723E+03  0.33983218723E+03  0.00000000000E+00 0. -1.
         25    1    1    2    0    0 -0.24480956988E+02 -0.34057781912E+00 -0.11335843346E+03  0.17051266136E+03  0.12500000000E+03 0.  0.
         25    1    1    2    0    0 -0.13000324315E+02  0.16302612997E+03 -0.70926788543E+02  0.21772031788E+03  0.12500000000E+03 0.  0.
         25    1    1    2    0    0  0.37481281303E+02 -0.16268555215E+03  0.14940399609E+03  0.25655016931E+03  0.12500000000E+03 0.  0.
</event>
<event>
 5    0  0.5663008E-005  0.2552695E+03  0.7546771E-02  0.1110019E+00
         21   -1    0    0  502  501  0.00000000000E+00  0.00000000000E+00  0.84376693205E+02  0.84376693205E+02  0.00000000000E+00 0.  1.
         21   -1    0    0  501  502 -0.00000000000E+00 -0.00000000000E+00 -0.77228075241E+03  0.77228075241E+03  0.00000000000E+00 0.  1.
         25    1    1    2    0    0  0.11278806159E+03 -0.53957471419E+02 -0.38063935294E+03  0.41969497563E+03  0.12500000000E+03 0.  0.
         25    1    1    2    0    0 -0.96297457949E+02 -0.26660452817E+02 -0.14121886109E+03  0.21342855216E+03  0.12500000000E+03 0.  0.
         25    1    1    2    0    0 -0.16490603645E+02  0.80617924236E+02 -0.16604584518E+03  0.22353391782E+03  0.12500000000E+03 0.  0.
</event>
<event>
 5    0  0.5663008E-005  0.2102739E+03  0.7546771E-02  0.1141349E+00
         21   -1    0    0  502  501  0.00000000000E+00  0.00000000000E+00  0.11416981892E+03  0.11416981892E+03  0.00000000000E+00 0.  1.
         21   -1    0    0  501  502 -0.00000000000E+00 -0.00000000000E+00 -0.38727510853E+03  0.38727510853E+03  0.00000000000E+00 0.  1.
         25    1    1    2    0    0 -0.70184867318E+02  0.29784248598E+01 -0.81706475653E+02  0.16503252643E+03  0.12500000000E+03 0.  0.
         25    1    1    2    0    0  0.41175263794E+02 -0.50824084845E+01 -0.39386323509E+02  0.13746823525E+03  0.12500000000E+03 0.  0.
         25    1    1    2    0    0  0.29009603524E+02  0.21039836247E+01 -0.15201249045E+03  0.19894416577E+03  0.12500000000E+03 0.  0.
</event>
<event>
 5    0  0.5663008E-005  0.2115663E+03  0.7546771E-02  0.1140332E+00
         21   -1    0    0  502  501  0.00000000000E+00  0.00000000000E+00  0.90913700812E+03  0.90913700812E+03  0.00000000000E+00 0. -1.
         21   -1    0    0  501  502 -0.00000000000E+00 -0.00000000000E+00 -0.49233854327E+02  0.49233854327E+02  0.00000000000E+00 0. -1.
         25    1    1    2    0    0  0.84265939899E+02  0.30002103343E+02  0.37119967665E+03  0.40176494966E+03  0.12500000000E+03 0.  0.
         25    1    1    2    0    0 -0.38424166729E+02 -0.59250366491E+01  0.25142629170E+03  0.28346375924E+03  0.12500000000E+03 0.  0.
         25    1    1    2    0    0 -0.45841773170E+02 -0.24077066693E+02  0.23727718545E+03  0.27314215355E+03  0.12500000000E+03 0.  0.
</event>
<event>
 5    0  0.5663008E-005  0.3479547E+03  0.7546771E-02  0.1063458E+00
         21   -1    0    0  502  501  0.00000000000E+00  0.00000000000E+00  0.32178007992E+03  0.32178007992E+03  0.00000000000E+00 0.  1.
         21   -1    0    0  501  502 -0.00000000000E+00 -0.00000000000E+00 -0.37625845532E+03  0.37625845532E+03  0.00000000000E+00 0.  1.
         25    1    1    2    0    0 -0.97715979512E+02  0.44711403621E+02  0.94465708998E+02  0.18999024302E+03  0.12500000000E+03 0.  0.
         25    1    1    2    0    0 -0.20242349004E+02 -0.21081002666E+03 -0.61024689613E+02  0.25337646453E+03  0.12500000000E+03 0.  0.
         25    1    1    2    0    0  0.11795832852E+03  0.16609862304E+03 -0.87919394791E+02  0.25467182770E+03  0.12500000000E+03 0.  0.
</event>
<event>
 5    0  0.5663008E-005  0.2216199E+03  0.7546771E-02  0.1132681E+00
         21   -1    0    0  502  501  0.00000000000E+00  0.00000000000E+00  0.21637064716E+03  0.21637064716E+03  0.00000000000E+00 0. -1.
         21   -1    0    0  501  502 -0.00000000000E+00 -0.00000000000E+00 -0.22699652000E+03  0.22699652000E+03  0.00000000000E+00 0. -1.
         25    1    1    2    0    0 -0.38975615646E+02  0.15611084526E+02  0.13712230111E+02  0.13257386556E+03  0.12500000000E+03 0.  0.
         25    1    1    2    0    0  0.50712381079E+02 -0.62358074862E+02 -0.76355156789E+02  0.16707897852E+03  0.12500000000E+03 0.  0.
         25    1    1    2    0    0 -0.11736765432E+02  0.46746990337E+02  0.52017053833E+02  0.14371432308E+03  0.12500000000E+03 0.  0.
</event>
<event>
 5    0  0.5663008E-005  0.4625776E+03  0.7546771E-02  0.1024036E+00
         21   -1    0    0  502  501  0.00000000000E+00  0.00000000000E+00  0.12458513245E+03  0.12458513245E+03  0.00000000000E+00 0. -1.
         21   -1    0    0  501  502 -0.00000000000E+00 -0.00000000000E+00 -0.17175248754E+04  0.17175248754E+04  0.00000000000E+00 0. -1.
         25    1    1    2    0    0  0.77831475744E+02 -0.13749769548E+03 -0.46091139184E+03  0.50301855434E+03  0.12500000000E+03 0.  0.
         25    1    1    2    0    0 -0.11566369703E+03  0.31774749265E+03 -0.10355208469E+04  0.10964807268E+04  0.12500000000E+03 0.  0.
         25    1    1    2    0    0  0.37832221285E+02 -0.18024979717E+03 -0.96507504202E+02  0.24261072671E+03  0.12500000000E+03 0.  0.
</event>
<event>
 5    0  0.5663008E-005  0.3160016E+03  0.7546771E-02  0.1077504E+00
         21   -1    0    0  502  501  0.00000000000E+00  0.00000000000E+00  0.19485405429E+03  0.19485405429E+03  0.00000000000E+00 0. -1.
         21   -1    0    0  501  502 -0.00000000000E+00 -0.00000000000E+00 -0.51247078689E+03  0.51247078689E+03  0.00000000000E+00 0. -1.
         25    1    1    2    0    0  0.10589181001E+03  0.14878046026E+02 -0.23896280177E+02  0.16622413750E+03  0.12500000000E+03 0.  0.
         25    1    1    2    0    0  0.10108761490E+03  0.86426284956E+02 -0.17659262173E+03  0.25396488471E+03  0.12500000000E+03 0.  0.
         25    1    1    2    0    0 -0.20697942491E+03 -0.10130433098E+03 -0.11712783069E+03  0.28713581897E+03  0.12500000000E+03 0.  0.
</event>
<event>
 5    0  0.5663008E-005  0.2126575E+03  0.7546771E-02  0.1139479E+00
         21   -1    0    0  502  501  0.00000000000E+00  0.00000000000E+00  0.86169019501E+03  0.86169019501E+03  0.00000000000E+00 0. -1.
         21   -1    0    0  501  502 -0.00000000000E+00 -0.00000000000E+00 -0.52481991953E+02  0.52481991953E+02  0.00000000000E+00 0. -1.
         25    1    1    2    0    0  0.30467624103E+02  0.25396762362E+02  0.21157432477E+03  0.24892160725E+03  0.12500000000E+03 0.  0.
         25    1    1    2    0    0 -0.52203448605E+02  0.42837359289E+02  0.36434974365E+03  0.39107029431E+03  0.12500000000E+03 0.  0.
         25    1    1    2    0    0  0.21735824502E+02 -0.68234121651E+02  0.23328413464E+03  0.27418028539E+03  0.12500000000E+03 0.  0.
</event>
<event>
 5    0  0.5663008E-005  0.5328865E+03  0.7546771E-02  0.1005534E+00
         21   -1    0    0  502  501  0.00000000000E+00  0.00000000000E+00  0.33358160136E+04  0.33358160136E+04  0.00000000000E+00 0. -1.
         21   -1    0    0  501  502 -0.00000000000E+00 -0.00000000000E+00 -0.85127017069E+02  0.85127017069E+02  0.00000000000E+00 0. -1.
         25    1    1    2    0    0 -0.15710347673E+03 -0.12466119285E+03  0.16721583375E+04  0.16887748284E+04  0.12500000000E+03 0.  0.
         25    1    1    2    0    0  0.21445601908E+03 -0.17954440175E+03  0.11433507532E+04  0.11836821875E+04  0.12500000000E+03 0.  0.
         25    1    1    2    0    0 -0.57352542346E+02  0.30420559460E+03  0.43517990594E+03  0.54848601480E+03  0.12500000000E+03 0.  0.
</event>
<event>
 5    0  0.5663008E-005  0.3711280E+03  0.7546771E-02  0.1054262E+00
         21   -1    0    0  502  501  0.00000000000E+00  0.00000000000E+00  0.81260465227E+02  0.81260465227E+02  0.00000000000E+00 0. -1.
         21   -1    0    0  501  502 -0.00000000000E+00 -0.00000000000E+00 -0.16949936979E+04  0.16949936979E+04  0.00000000000E+00 0. -1.
         25    1    1    2    0    0 -0.15274285963E+03  0.30839200557E+02 -0.52678988458E+03  0.56339508336E+03  0.12500000000E+03 0.  0.
         25    1    1    2    0    0  0.21728158869E+03 -0.83237649022E+02 -0.25381946782E+03  0.36631832774E+03  0.12500000000E+03 0.  0.
         25    1    1    2    0    0 -0.64538729056E+02  0.52398448465E+02 -0.83312388033E+03  0.84654075208E+03  0.12500000000E+03 0.  0.
</event>
<event>
 5    0  0.5663008E-005  0.2622971E+03  0.7546771E-02  0.1105771E+00
         21   -1    0    0  502  501  0.00000000000E+00  0.00000000000E+00  0.23061355684E+03  0.23061355684E+03  0.00000000000E+00 0. -1.
         21   -1    0    0  501  502 -0.00000000000E+00 -0.00000000000E+00 -0.29833352312E+03  0.29833352312E+03  0.00000000000E+00 0. -1.
         25    1    1    2    0    0  0.28966299412E+02  0.31769576394E+02  0.82992405332E+02  0.15608040181E+03  0.12500000000E+03 0.  0.
         25    1    1    2    0    0 -0.40111880698E+02  0.84359058396E+02 -0.12504814099E+03  0.19996862572E+03  0.12500000000E+03 0.  0.
         25    1    1    2    0    0  0.11145581285E+02 -0.11612863479E+03 -0.25664230621E+02  0.17289805243E+03  0.12500000000E+03 0.  0.
</event>
<event>
 5    0  0.5663008E-005  0.3494890E+03  0.7546771E-02  0.1062825E+00
         21   -1    0    0  502  501  0.00000000000E+00  0.00000000000E+00  0.15133699851E+04  0.15133699851E+04  0.00000000000E+00 0.  1.
         21   -1    0    0  501  502 -0.00000000000E+00 -0.00000000000E+00 -0.80708990380E+02  0.80708990380E+02  0.00000000000E+00 0.  1.
         25    1    1    2    0    0 -0.78232308211E+02 -0.48622013979E+02  0.53079031256E+03  0.55303503524E+03  0.12500000000E+03 0.  0.
         25    1    1    2    0    0  0.16013384543E+03 -0.15803585582E+03  0.36430847458E+03  0.44605363447E+03  0.12500000000E+03 0.  0.
         25    1    1    2    0    0 -0.81901537220E+02  0.20665786980E+03  0.53756220763E+03  0.59499030582E+03  0.12500000000E+03 0.  0.
</event>
<event>
 5    0  0.5663008E-005  0.2323239E+03  0.7546771E-02  0.1125015E+00
         21   -1    0    0  502  501  0.00000000000E+00  0.00000000000E+00  0.91331996449E+02  0.91331996449E+02  0.00000000000E+00 0.  1.
         21   -1    0    0  501  502 -0.00000000000E+00 -0.00000000000E+00 -0.59096921405E+03  0.59096921405E+03  0.00000000000E+00 0.  1.
         25    1    1    2    0    0  0.15026285991E+02 -0.91208072650E+02 -0.10021190263E+03  0.18496520542E+03  0.12500000000E+03 0.  0.
         25    1    1    2    0    0 -0.80457313480E+00  0.10671066206E+03 -0.17859644861E+03  0.24271280187E+03  0.12500000000E+03 0.  0.
         25    1    1    2    0    0 -0.14221712856E+02 -0.15502589410E+02 -0.22082886636E+03  0.25462320321E+03  0.12500000000E+03 0.  0.
</event>
<event>
 5    0  0.5663008E-005  0.2589003E+03  0.7546771E-02  0.1107806E+00
         21   -1    0    0  502  501  0.00000000000E+00  0.00000000000E+00  0.92535115312E+03  0.92535115312E+03  0.00000000000E+00 0. -1.
         21   -1    0    0  501  502 -0.00000000000E+00 -0.00000000000E+00 -0.72436667071E+02  0.72436667071E+02  0.00000000000E+00 0. -1.
         25    1    1    2    0    0 -0.13285481133E+03 -0.55069410552E+02  0.19721267491E+03  0.27422778856E+03  0.12500000000E+03 0.  0.
         25    1    1    2    0    0  0.69280332258E+02  0.58763610953E+02  0.24600494322E+03  0.29051051358E+03  0.12500000000E+03 0.  0.
         25    1    1    2    0    0  0.63574479073E+02 -0.36942004007E+01  0.40969686792E+03  0.43304951806E+03  0.12500000000E+03 0.  0.
</event>
<event>
 5    0  0.5663008E-005  0.3306879E+03  0.7546771E-02  0.1070833E+00
         21   -1    0    0  502  501  0.00000000000E+00  0.00000000000E+00  0.14258461930E+03  0.14258461930E+03  0.00000000000E+00 0. -1.
         21   -1    0    0  501  502 -0.00000000000E+00 -0.00000000000E+00 -0.76694438523E+03  0.76694438523E+03  0.00000000000E+00 0. -1.
         25    1    1    2    0    0  0.15186426705E+03  0.22392910358E+02 -0.45738982790E+02  0.20317788410E+03  0.12500000000E+03 0.  0.
         25    1    1    2    0    0 -0.12451881981E+02  0.20092667051E+02 -0.38187366580E+02  0.13282333982E+03  0.12500000000E+03 0.  0.
         25    1    1    2    0    0 -0.13941238506E+03 -0.42485577410E+02 -0.54043341657E+03  0.57352778062E+03  0.12500000000E+03 0.  0.
</event>
<event>
 5    0  0.5663008E-005  0.2955482E+03  0.7546771E-02  0.1087487E+00
         21   -1    0    0  502  501  0.00000000000E+00  0.00000000000E+00  0.40451356640E+03  0.40451356640E+03  0.00000000000E+00 0.  1.
         21   -1    0    0  501  502 -0.00000000000E+00 -0.00000000000E+00 -0.21593528477E+03  0.21593528477E+03  0.00000000000E+00 0.  1.
         25    1    1    2    0    0 -0.14646689384E+03 -0.98526174529E+02  0.18816306485E+03  0.28668850174E+03  0.12500000000E+03 0.  0.
         25    1    1    2    0    0  0.65736194013E+02  0.84691777081E+02  0.56554358374E+02  0.17411875189E+03  0.12500000000E+03 0.  0.
         25    1    1    2    0    0  0.80730699828E+02  0.13834397448E+02 -0.56139141594E+02  0.15964159754E+03  0.12500000000E+03 0.  0.
</event>
<event>
 5    0  0.5663008E-005  0.2630121E+03  0.7546771E-02  0.1105347E+00
         21   -1    0    0  502  501  0.00000000000E+00  0.00000000000E+00  0.11409877738E+04  0.11409877738E+04  0.00000000000E+00 0. -1.
         21   -1    0    0  501  502 -0.00000000000E+00 -0.00000000000E+00 -0.60627595750E+02  0.60627595750E+02  0.00000000000E+00 0. -1.
         25    1    1    2    0    0  0.83877574066E+02  0.14633888263E+03  0.34822928113E+03  0.40661916856E+03  0.12500000000E+03 0.  0.
         25    1    1    2    0    0 -0.74413903392E+02 -0.88854898659E+02  0.36586015276E+03  0.40362268694E+03  0.12500000000E+03 0.  0.
         25    1    1    2    0    0 -0.94636706741E+01 -0.57483983970E+02  0.36627074412E+03  0.39137351402E+03  0.12500000000E+03 0.  0.
</event>
<event>
 5    0  0.5663008E-005  0.2499440E+03  0.7546771E-02  0.1113340E+00
         21   -1    0    0  502  501  0.00000000000E+00  0.00000000000E+00  0.15138572095E+03  0.15138572095E+03  0.00000000000E+00 0. -1.
         21   -1    0    0  501  502 -0.00000000000E+00 -0.00000000000E+00 -0.41266764452E+03  0.41266764452E+03  0.00000000000E+00 0. -1.
         25    1    1    2    0    0  0.25758063675E+01 -0.44647321811E+02 -0.39261156910E+01  0.13281728994E+03  0.12500000000E+03 0.  0.
         25    1    1    2    0    0 -0.11769242958E+03  0.34884483848E+02 -0.14339080837E+03  0.22639425593E+03  0.12500000000E+03 0.  0.
         25    1    1    2    0    0  0.11511662321E+03  0.97628379630E+01 -0.11396499951E+03  0.20484181960E+03  0.12500000000E+03 0.  0.
</event>
<event>
 5    0  0.5663008E-005  0.2576899E+03  0.7546771E-02  0.1108539E+00
         21   -1    0    0  502  501  0.00000000000E+00  0.00000000000E+00  0.25895300037E+03  0.25895300037E+03  0.00000000000E+00 0. -1.
         21   -1    0    0  501  502 -0.00000000000E+00 -0.00000000000E+00 -0.25643290403E+03  0.25643290403E+03  0.00000000000E+00 0. -1.
         25    1    1    2    0    0 -0.30335270463E+02  0.16891771797E+02  0.14483817076E+03  0.19444448127E+03  0.12500000000E+03 0.  0.
         25    1    1    2    0    0  0.73540914722E+02 -0.44823256581E+02 -0.64168632482E+02  0.16480292432E+03  0.12500000000E+03 0.  0.
         25    1    1    2    0    0 -0.43205644259E+02  0.27931484784E+02 -0.78149441934E+02  0.15613849882E+03  0.12500000000E+03 0.  0.
</event>
<event>
 5    0  0.5663008E-005  0.3480942E+03  0.7546771E-02  0.1063400E+00
         21   -1    0    0  502  501  0.00000000000E+00  0.00000000000E+00  0.49974083822E+03  0.49974083822E+03  0.00000000000E+00 0. -1.
         21   -1    0    0  501  502 -0.00000000000E+00 -0.00000000000E+00 -0.24246475678E+03  0.24246475678E+03  0.00000000000E+00 0. -1.
         25    1    1    2    0    0 -0.63029262770E+02  0.22189857897E+02  0.38918229068E+03  0.41418948941E+03  0.12500000000E+03 0.  0.
         25    1    1    2    0    0  0.50836379239E+02 -0.14882330989E+01  0.12488731405E+02  0.13552682651E+03  0.12500000000E+03 0.  0.
         25    1    1    2    0    0  0.12192883531E+02 -0.20701624798E+02 -0.14439494064E+03  0.19248927908E+03  0.12500000000E+03 0.  0.
</event>
<event>
 5    0  0.5663008E-005  0.2257589E+03  0.7546771E-02  0.1129661E+00
         21   -1    0    0  502  501  0.00000000000E+00  0.00000000000E+00  0.49775223246E+02  0.49775223246E+02  0.00000000000E+00 0.  1.
         21   -1    0    0  501  502 -0.00000000000E+00 -0.00000000000E+00 -0.10239443876E+04  0.10239443876E+04  0.00000000000E+00 0.  1.
         25    1    1    2    0    0  0.45469609501E+02  0.72912893186E+02 -0.24090388799E+03  0.28468132821E+03  0.12500000000E+03 0.  0.
         25    1    1    2    0    0 -0.64978248715E+02 -0.84054903735E+02 -0.43178754411E+03  0.46190137789E+03  0.12500000000E+03 0.  0.
         25    1    1    2    0    0  0.19508639214E+02  0.11142010549E+02 -0.30147773223E+03  0.32713690473E+03  0.12500000000E+03 0.  0.
</event>
<event>
 5    0  0.5663008E-005  0.2726116E+03  0.7546771E-02  0.1099794E+00
         21   -1    0    0  502  501  0.00000000000E+00  0.00000000000E+00  0.52631288517E+03  0.52631288517E+03  0.00000000000E+00 0. -1.
         21   -1    0    0  501  502 -0.00000000000E+00 -0.00000000000E+00 -0.14120321541E+03  0.14120321541E+03  0.00000000000E+00 0. -1.
         25    1    1    2    0    0 -0.20551690802E+02  0.94491160055E+02 -0.31858289251E+02  0.16121694054E+03  0.12500000000E+03 0.  0.
         25    1    1    2    0    0  0.44364710776E+02 -0.16116324989E+02  0.23983925201E+03  0.27454659040E+03  0.12500000000E+03 0.  0.
         25    1    1    2    0    0 -0.23813019975E+02 -0.78374835067E+02  0.17712870700E+03  0.23175256964E+03  0.12500000000E+03 0.  0.
</event>
<event>
 5    0  0.5663008E-005  0.3199409E+03  0.7546771E-02  0.1075677E+00
         21   -1    0    0  502  501  0.00000000000E+00  0.00000000000E+00  0.63538563349E+03  0.63538563349E+03  0.00000000000E+00 0.  1.
         21   -1    0    0  501  502 -0.00000000000E+00 -0.00000000000E+00 -0.16110239867E+03  0.16110239867E+03  0.00000000000E+00 0.  1.
         25    1    1    2    0    0 -0.43583503640E+02  0.13373610821E+03 -0.30386213805E+02  0.19061267119E+03  0.12500000000E+03 0.  0.
         25    1    1    2    0    0  0.55475033035E+02 -0.14226274794E+03  0.38288114984E+03  0.43074254914E+03  0.12500000000E+03 0.  0.
         25    1    1    2    0    0 -0.11891529395E+02  0.85266397265E+01  0.12178829879E+03  0.17513281183E+03  0.12500000000E+03 0.  0.
</event>
<event>
 5    0  0.5663008E-005  0.3748659E+03  0.7546771E-02  0.1052848E+00
         21   -1    0    0  502  501  0.00000000000E+00  0.00000000000E+00  0.87247072642E+02  0.87247072642E+02  0.00000000000E+00 0. -1.
         21   -1    0    0  501  502 -0.00000000000E+00 -0.00000000000E+00 -0.16106493084E+04  0.16106493084E+04  0.00000000000E+00 0. -1.
         25    1    1    2    0    0 -0.13592375205E+03  0.63853454213E+01 -0.64387333409E+02  0.19567004807E+03  0.12500000000E+03 0.  0.
         25    1    1    2    0    0  0.29321669742E+02 -0.13273398125E+02 -0.24308754320E+03  0.27523171524E+03  0.12500000000E+03 0.  0.
         25    1    1    2    0    0  0.10660208231E+03  0.68880527037E+01 -0.12159273591E+04  0.12269946177E+04  0.12500000000E+03 0.  0.
</event>
<event>
 5    0  0.5663008E-005  0.3680432E+03  0.7546771E-02  0.1055444E+00
         21   -1    0    0  502  501  0.00000000000E+00  0.00000000000E+00  0.26566014419E+03  0.26566014419E+03  0.00000000000E+00 0. -1.
         21   -1    0    0  501  502 -0.00000000000E+00 -0.00000000000E+00 -0.50988380696E+03  0.50988380696E+03  0.00000000000E+00 0. -1.
         25    1    1    2    0    0  0.75226825559E+02  0.12962789341E+03  0.12776172765E+03  0.23326063767E+03  0.12500000000E+03 0.  0.
         25    1    1    2    0    0 -0.16030995890E+01  0.39204007253E+02 -0.30276354634E+02  0.13446628486E+03  0.12500000000E+03 0.  0.
         25    1    1    2    0    0 -0.73623725970E+02 -0.16883190066E+03 -0.34170903578E+03  0.40781702863E+03  0.12500000000E+03 0.  0.
</event>
<event>
 5    0  0.5663008E-005  0.2509155E+03  0.7546771E-02  0.1112728E+00
         21   -1    0    0  502  501  0.00000000000E+00  0.00000000000E+00  0.56873162699E+03  0.56873162699E+03  0.00000000000E+00 0.  1.
         21   -1    0    0  501  502 -0.00000000000E+00 -0.00000000000E+00 -0.11069995771E+03  0.11069995771E+03  0.00000000000E+00 0.  1.
         25    1    1    2    0    0  0.82967475617E+02  0.10011303938E+03  0.21499408760E+03  0.28063086140E+03  0.12500000000E+03 0.  0.
         25    1    1    2    0    0 -0.47920487320E+02 -0.93627646541E+02  0.59423389770E+02  0.17383511887E+03  0.12500000000E+03 0.  0.
         25    1    1    2    0    0 -0.35046988297E+02 -0.64853928401E+01  0.18361419190E+03  0.22496560443E+03  0.12500000000E+03 0.  0.
</event>
<event>
 5    0  0.5663008E-005  0.3804240E+03  0.7546771E-02  0.1050777E+00
         21   -1    0    0  502  501  0.00000000000E+00  0.00000000000E+00  0.12580605379E+04  0.12580605379E+04  0.00000000000E+00 0.  1.
         21   -1    0    0  501  502 -0.00000000000E+00 -0.00000000000E+00 -0.11503615882E+03  0.11503615882E+03  0.00000000000E+00 0.  1.
         25    1    1    2    0    0 -0.17357009382E+02 -0.11820181593E+02  0.79621509341E+02  0.14968489308E+03  0.12500000000E+03 0.  0.
         25    1    1    2    0    0 -0.11190607819E+03 -0.46557864112E+02  0.10128605972E+04  0.10277169816E+04  0.12500000000E+03 0.  0.
         25    1    1    2    0    0  0.12926308757E+03  0.58378045705E+02  0.50542272526E+02  0.19569482196E+03  0.12500000000E+03 0.  0.
</event>
<event>
 5    0  0.5663008E-005  0.3982639E+03  0.7546771E-02  0.1044382E+00
         21   -1    0    0  502  501  0.00000000000E+00  0.00000000000E+00  0.15549662655E+03  0.15549662655E+03  0.00000000000E+00 0.  1.
         21   -1    0    0  501  502 -0.00000000000E+00 -0.00000000000E+00 -0.10200488264E+04  0.10200488264E+04  0.00000000000E+00 0.  1.
         25    1    1    2    0    0  0.17329840582E+03 -0.25295698098E+03 -0.28826951339E+03  0.43902606304E+03  0.12500000000E+03 0.  0.
         25    1    1    2    0    0 -0.10531327758E+03 -0.46928504062E+01 -0.18524618845E+03  0.24709119696E+03  0.12500000000E+03 0.  0.
         25    1    1    2    0    0 -0.67985128241E+02  0.25764983138E+03 -0.39103649801E+03  0.48942819294E+03  0.12500000000E+03 0.  0.
</event>
<event>
 5    0  0.5663008E-005  0.3506482E+03  0.7546771E-02  0.1062349E+00
         21   -1    0    0  502  501  0.00000000000E+00  0.00000000000E+00  0.14350238862E+04  0.14350238862E+04  0.00000000000E+00 0. -1.
         21   -1    0    0  501  502 -0.00000000000E+00 -0.00000000000E+00 -0.85680902367E+02  0.85680902367E+02  0.00000000000E+00 0. -1.
         25    1    1    2    0    0  0.27348308060E+03  0.99857310044E+01  0.77170436996E+03  0.82827854302E+03  0.12500000000E+03 0.  0.
         25    1    1    2    0    0 -0.92893526605E+02  0.29170629926E+02  0.22684517687E+03  0.27670176582E+03  0.12500000000E+03 0.  0.
         25    1    1    2    0    0 -0.18058955400E+03 -0.39156360930E+02  0.35079343701E+03  0.41572447975E+03  0.12500000000E+03 0.  0.
</event>
<event>
 5    0  0.5663008E-005  0.2905151E+03  0.7546771E-02  0.1090080E+00
         21   -1    0    0  502  501  0.00000000000E+00  0.00000000000E+00  0.62212261296E+03  0.62212261296E+03  0.00000000000E+00 0.  1.
         21   -1    0    0  501  502 -0.00000000000E+00 -0.00000000000E+00 -0.13566303994E+03  0.13566303994E+03  0.00000000000E+00 0.  1.
         25    1    1    2    0    0 -0.71132684118E+02 -0.10444810708E+03  0.46703874163E+01  0.17780910646E+03  0.12500000000E+03 0.  0.
         25    1    1    2    0    0  0.87872964108E+02  0.25559404944E+02  0.34371971032E+03  0.37701880625E+03  0.12500000000E+03 0.  0.
         25    1    1    2    0    0 -0.16740279989E+02  0.78888702132E+02  0.13806947528E+03  0.20295774019E+03  0.12500000000E+03 0.  0.
</event>
<event>
 5    0  0.5663008E-005  0.4424693E+03  0.7546771E-02  0.1029992E+00
         21   -1    0    0  502  501  0.00000000000E+00  0.00000000000E+00  0.26488531925E+03  0.26488531925E+03  0.00000000000E+00 0. -1.
         21   -1    0    0  501  502 -0.00000000000E+00 -0.00000000000E+00 -0.73910892032E+03  0.73910892032E+03  0.00000000000E+00 0. -1.
         25    1    1    2    0    0 -0.66768885107E+02 -0.19760792352E+03 -0.43651679788E+02  0.24705757346E+03  0.12500000000E+03 0.  0.
         25    1    1    2    0    0  0.82299933571E+02  0.33262201101E+03 -0.44064079803E+03  0.57201398074E+03  0.12500000000E+03 0.  0.
         25    1    1    2    0    0 -0.15531048465E+02 -0.13501408749E+03  0.10068876753E+02  0.18492268537E+03  0.12500000000E+03 0.  0.
</event>
<event>
 5    0  0.5663008E-005  0.8834688E+03  0.7546771E-02  0.9446486E-01
         21   -1    0    0  502  501  0.00000000000E+00  0.00000000000E+00  0.74770427889E+03  0.74770427889E+03  0.00000000000E+00 0. -1.
         21   -1    0    0  501  502 -0.00000000000E+00 -0.00000000000E+00 -0.10438846771E+04  0.10438846771E+04  0.00000000000E+00 0. -1.
         25    1    1    2    0    0 -0.86808621796E+02  0.19494314532E+03  0.48835028304E+01  0.24736090096E+03  0.12500000000E+03 0.  0.
         25    1    1    2    0    0 -0.14311951088E+03  0.62492057793E+03 -0.15482318573E+03  0.67127054303E+03  0.12500000000E+03 0.  0.
         25    1    1    2    0    0  0.22992813267E+03 -0.81986372324E+03 -0.14624071528E+03  0.87295751196E+03  0.12500000000E+03 0.  0.
</event>
<event>
 5    0  0.5663008E-005  0.2635525E+03  0.7546771E-02  0.1105027E+00
         21   -1    0    0  502  501  0.00000000000E+00  0.00000000000E+00  0.65258875046E+02  0.65258875046E+02  0.00000000000E+00 0.  1.
         21   -1    0    0  501  502 -0.00000000000E+00 -0.00000000000E+00 -0.10643751517E+04  0.10643751517E+04  0.00000000000E+00 0.  1.
         25    1    1    2    0    0  0.84334604595E+02  0.29188049177E+02 -0.37276095620E+03  0.40316249604E+03  0.12500000000E+03 0.  0.
         25    1    1    2    0    0 -0.96786050700E+02 -0.13132811704E+03 -0.37074934878E+03  0.42390410892E+03  0.12500000000E+03 0.  0.
         25    1    1    2    0    0  0.12451446105E+02  0.10214006787E+03 -0.25560597169E+03  0.30256742180E+03  0.12500000000E+03 0.  0.
</event>
<event>
 5    0  0.5663008E-005  0.5400890E+03  0.7546771E-02  0.1003814E+00
         21   -1    0    0  502  501  0.00000000000E+00  0.00000000000E+00  0.14410666380E+03  0.14410666380E+03  0.00000000000E+00 0.  1.
         21   -1    0    0  501  502 -0.00000000000E+00 -0.00000000000E+00 -0.20241680222E+04  0.20241680222E+04  0.00000000000E+00 0. -1.
         25    1    1    2    0    0 -0.99341015572E+02 -0.15519581848E+03 -0.12817057211E+04  0.13009031228E+04  0.12500000000E+03 0.  0.
         25    1    1    2    0    0 -0.45356499761E+02 -0.50848846538E+02 -0.56691760339E+03  0.58451979119E+03  0.12500000000E+03 0.  0.
         25    1    1    2    0    0  0.14469751533E+03  0.20604466502E+03 -0.31438033881E+02  0.28285177196E+03  0.12500000000E+03 0.  0.
</event>
<event>
 5    0  0.5663008E-005  0.2771810E+03  0.7546771E-02  0.1097239E+00
         21   -1    0    0  502  501  0.00000000000E+00  0.00000000000E+00  0.83906226451E+02  0.83906226451E+02  0.00000000000E+00 0. -1.
         21   -1    0    0  501  502 -0.00000000000E+00 -0.00000000000E+00 -0.91565653160E+03  0.91565653160E+03  0.00000000000E+00 0. -1.
         25    1    1    2    0    0 -0.19870226336E+02 -0.64112940784E+02 -0.42578358665E+03  0.44880057679E+03  0.12500000000E+03 0.  0.
         25    1    1    2    0    0  0.11354287771E+03 -0.32196743781E+02 -0.27865060721E+03  0.32741376924E+03  0.12500000000E+03 0.  0.
         25    1    1    2    0    0 -0.93672651376E+02  0.96309684566E+02 -0.12731611129E+03  0.22334841202E+03  0.12500000000E+03 0.  0.
</event>
<event>
 5    0  0.5663008E-005  0.2668111E+03  0.7546771E-02  0.1103119E+00
         21   -1    0    0  502  501  0.00000000000E+00  0.00000000000E+00  0.51179390814E+03  0.51179390814E+03  0.00000000000E+00 0. -1.
         21   -1    0    0  501  502 -0.00000000000E+00 -0.00000000000E+00 -0.13909542090E+03  0.13909542090E+03  0.00000000000E+00 0. -1.
         25    1    1    2    0    0  0.11840967537E+02  0.13923880210E+02  0.14838198894E+02  0.12719770084E+03  0.12500000000E+03 0.  0.
         25    1    1    2    0    0 -0.12192914687E+03  0.76952308909E+02  0.15419961499E+03  0.24533832959E+03  0.12500000000E+03 0.  0.
         25    1    1    2    0    0  0.11008817933E+03 -0.90876189118E+02  0.20366067335E+03  0.27835329861E+03  0.12500000000E+03 0.  0.
</event>
<event>
 5    0  0.5663008E-005  0.3119500E+03  0.7546771E-02  0.1079415E+00
         21   -1    0    0  502  501  0.00000000000E+00  0.00000000000E+00  0.50440369833E+03  0.50440369833E+03  0.00000000000E+00 0. -1.
         21   -1    0    0  501  502 -0.00000000000E+00 -0.00000000000E+00 -0.19292640611E+03  0.19292640611E+03  0.00000000000E+00 0. -1.
         25    1    1    2    0    0  0.70090063851E+02  0.31289088393E+02 -0.33027443610E+02  0.15035769397E+03  0.12500000000E+03 0.  0.
         25    1    1    2    0    0  0.10499417974E+02 -0.14979443779E+03  0.28904373684E+03  0.34888378176E+03  0.12500000000E+03 0.  0.
         25    1    1    2    0    0 -0.80589481825E+02  0.11850534940E+03  0.55460998993E+02  0.19808862872E+03  0.12500000000E+03 0.  0.
</event>
<event>
 5    0  0.5663008E-005  0.2645019E+03  0.7546771E-02  0.1104468E+00
         21   -1    0    0  502  501  0.00000000000E+00  0.00000000000E+00  0.63895562840E+02  0.63895562840E+02  0.00000000000E+00 0.  1.
         21   -1    0    0  501  502 -0.00000000000E+00 -0.00000000000E+00 -0.10949312173E+04  0.10949312173E+04  0.00000000000E+00 0.  1.
         25    1    1    2    0    0  0.43652727541E+02  0.13850765898E+03 -0.50382316171E+03  0.53902941524E+03  0.12500000000E+03 0.  0.
         25    1    1    2    0    0  0.76283926546E+01 -0.99198495561E+01 -0.30386930833E+03  0.32881324842E+03  0.12500000000E+03 0.  0.
         25    1    1    2    0    0 -0.51281120195E+02 -0.12858780942E+03 -0.22334318443E+03  0.29098411649E+03  0.12500000000E+03 0.  0.
</event>
<event>
 5    0  0.5663008E-005  0.2848995E+03  0.7546771E-02  0.1093043E+00
         21   -1    0    0  502  501  0.00000000000E+00  0.00000000000E+00  0.17211424161E+03  0.17211424161E+03  0.00000000000E+00 0. -1.
         21   -1    0    0  501  502 -0.00000000000E+00 -0.00000000000E+00 -0.47159209800E+03  0.47159209800E+03  0.00000000000E+00 0. -1.
         25    1    1    2    0    0 -0.43228592253E+02  0.46178010991E+02 -0.10519565532E+03  0.17519202546E+03  0.12500000000E+03 0.  0.
         25    1    1    2    0    0  0.55797785225E+02  0.83166862012E+02  0.47345385537E+02  0.16702306818E+03  0.12500000000E+03 0.  0.
         25    1    1    2    0    0 -0.12569192972E+02 -0.12934487300E+03 -0.24162758661E+03  0.30149124597E+03  0.12500000000E+03 0.  0.
</event>
<event>
 5    0  0.5663008E-005  0.3649540E+03  0.7546771E-02  0.1056639E+00
         21   -1    0    0  502  501  0.00000000000E+00  0.00000000000E+00  0.55470662415E+03  0.55470662415E+03  0.00000000000E+00 0. -1.
         21   -1    0    0  501  502 -0.00000000000E+00 -0.00000000000E+00 -0.24011146455E+03  0.24011146455E+03  0.00000000000E+00 0. -1.
         25    1    1    2    0    0  0.16553218949E+03  0.42529113455E+02  0.65817977729E+01  0.21184416752E+03  0.12500000000E+03 0.  0.
         25    1    1    2    0    0 -0.27987265580E+03  0.94323551215E+01  0.25263532742E+03  0.39732515834E+03  0.12500000000E+03 0.  0.
         25    1    1    2    0    0  0.11434046631E+03 -0.51961468577E+02  0.55378034403E+02  0.18564876285E+03  0.12500000000E+03 0.  0.
</event>
<event>
 5    0  0.5663008E-005  0.3863994E+03  0.7546771E-02  0.1048594E+00
         21   -1    0    0  502  501  0.00000000000E+00  0.00000000000E+00  0.98031836703E+02  0.98031836703E+02  0.00000000000E+00 0.  1.
         21   -1    0    0  501  502 -0.00000000000E+00 -0.00000000000E+00 -0.15230202425E+04  0.15230202425E+04  0.00000000000E+00 0.  1.
         25    1    1    2    0    0  0.99221885797E+02  0.13912277441E+03 -0.75665162951E+03  0.78571420849E+03  0.12500000000E+03 0.  0.
         25    1    1    2    0    0 -0.12139061829E+03  0.10498191994E+03 -0.41109180432E+03  0.45867020538E+03  0.12500000000E+03 0.  0.
         25    1    1    2    0    0  0.22168732496E+02 -0.24410469435E+03 -0.25724497196E+03  0.37666766533E+03  0.12500000000E+03 0.  0.
</event>
<event>
 5    0  0.5663008E-005  0.2424169E+03  0.7546771E-02  0.1118193E+00
         21   -1    0    0  502  501  0.00000000000E+00  0.00000000000E+00  0.73750769949E+02  0.73750769949E+02  0.00000000000E+00 0.  1.
         21   -1    0    0  501  502 -0.00000000000E+00 -0.00000000000E+00 -0.79681821321E+03  0.79681821321E+03  0.00000000000E+00 0.  1.
         25    1    1    2    0    0 -0.56056478376E+02  0.62901081840E+02 -0.13617592665E+03  0.20314467225E+03  0.12500000000E+03 0.  0.
         25    1    1    2    0    0  0.39006817628E+02 -0.10812814831E+03 -0.42233571220E+03  0.45519850843E+03  0.12500000000E+03 0.  0.
         25    1    1    2    0    0  0.17049660747E+02  0.45227066470E+02 -0.16455580441E+03  0.21222580248E+03  0.12500000000E+03 0.  0.
</event>
<event>
 5    0  0.5663008E-005  0.2560975E+03  0.7546771E-02  0.1109511E+00
         21   -1    0    0  502  501  0.00000000000E+00  0.00000000000E+00  0.77251347475E+02  0.77251347475E+02  0.00000000000E+00 0.  1.
         21   -1    0    0  501  502 -0.00000000000E+00 -0.00000000000E+00 -0.84899413536E+03  0.84899413536E+03  0.00000000000E+00 0.  1.
         25    1    1    2    0    0  0.62827664359E+02  0.68034999052E+02 -0.24353246320E+03  0.28897947529E+03  0.12500000000E+03 0.  0.
         25    1    1    2    0    0 -0.26371712296E+02 -0.15318538773E+03 -0.32516969251E+03  0.38147288128E+03  0.12500000000E+03 0.  0.
         25    1    1    2    0    0 -0.36455952063E+02  0.85150388678E+02 -0.20304063217E+03  0.25579312627E+03  0.12500000000E+03 0.  0.
</event>
<event>
 5    0  0.5663008E-005  0.2679654E+03  0.7546771E-02  0.1102450E+00
         21   -1    0    0  502  501  0.00000000000E+00  0.00000000000E+00  0.15073403487E+03  0.15073403487E+03  0.00000000000E+00 0. -1.
         21   -1    0    0  501  502 -0.00000000000E+00 -0.00000000000E+00 -0.47637174134E+03  0.47637174134E+03  0.00000000000E+00 0. -1.
         25    1    1    2    0    0  0.68548540236E+02 -0.37537810152E+02 -0.27741113588E+03  0.31414953107E+03  0.12500000000E+03 0.  0.
         25    1    1    2    0    0 -0.11138487032E+03  0.30137369813E+02 -0.59285865167E+02  0.18015178102E+03  0.12500000000E+03 0.  0.
         25    1    1    2    0    0  0.42836330087E+02  0.74004403395E+01  0.11059294577E+02  0.13280446412E+03  0.12500000000E+03 0.  0.
</event>
<event>
 5    0  0.5663008E-005  0.2605241E+03  0.7546771E-02  0.1106829E+00
         21   -1    0    0  502  501  0.00000000000E+00  0.00000000000E+00  0.15522644242E+04  0.15522644242E+04  0.00000000000E+00 0.  1.
         21   -1    0    0  501  502 -0.00000000000E+00 -0.00000000000E+00 -0.43725013695E+02  0.43725013695E+02  0.00000000000E+00 0.  1.
         25    1    1    2    0    0  0.50745026545E+01  0.96892030805E+02  0.27225019368E+03  0.31489519553E+03  0.12500000000E+03 0.  0.
         25    1    1    2    0    0 -0.52785937739E+02 -0.96637090120E+02  0.95724446166E+03  0.97163112434E+03  0.12500000000E+03 0.  0.
         25    1    1    2    0    0  0.47711435085E+02 -0.25494068485E+00  0.27904475520E+03  0.30946311805E+03  0.12500000000E+03 0.  0.
</event>
<event>
 5    0  0.5663008E-005  0.3712439E+03  0.7546771E-02  0.1054218E+00
         21   -1    0    0  502  501  0.00000000000E+00  0.00000000000E+00  0.12565920259E+04  0.12565920259E+04  0.00000000000E+00 0. -1.
         21   -1    0    0  501  502 -0.00000000000E+00 -0.00000000000E+00 -0.10967920494E+03  0.10967920494E+03  0.00000000000E+00 0. -1.
         25    1    1    2    0    0  0.12847571424E+03  0.27958188127E+02  0.93009111505E+03  0.94761920186E+03  0.12500000000E+03 0.  0.
         25    1    1    2    0    0 -0.15706393944E+03  0.51258073558E+02  0.13294099634E+03  0.24616006923E+03  0.12500000000E+03 0.  0.
         25    1    1    2    0    0  0.28588225194E+02 -0.79216261685E+02  0.83880709555E+02  0.17249195973E+03  0.12500000000E+03 0.  0.
</event>
<event>
 5    0  0.5663008E-005  0.2568424E+03  0.7546771E-02  0.1109055E+00
         21   -1    0    0  502  501  0.00000000000E+00  0.00000000000E+00  0.53159267657E+03  0.53159267657E+03  0.00000000000E+00 0.  1.
         21   -1    0    0  501  502 -0.00000000000E+00 -0.00000000000E+00 -0.12409506642E+03  0.12409506642E+03  0.00000000000E+00 0.  1.
         25    1    1    2    0    0  0.79796536898E+02 -0.75666942611E+02  0.14985754788E+03  0.22399834411E+03  0.12500000000E+03 0.  0.
         25    1    1    2    0    0 -0.89619932833E+02  0.10256025293E+03  0.56789301697E+02  0.19339173361E+03  0.12500000000E+03 0.  0.
         25    1    1    2    0    0  0.98233959347E+01 -0.26893310322E+02  0.20085076057E+03  0.23829766526E+03  0.12500000000E+03 0.  0.
</event>
<event>
 5    0  0.5663008E-005  0.4977832E+03  0.7546771E-02  0.1014359E+00
         21   -1    0    0  502  501  0.00000000000E+00  0.00000000000E+00  0.25461847635E+03  0.25461847635E+03  0.00000000000E+00 0. -1.
         21   -1    0    0  501  502 -0.00000000000E+00 -0.00000000000E+00 -0.97317425823E+03  0.97317425823E+03  0.00000000000E+00 0. -1.
         25    1    1    2    0    0  0.30336002732E+02 -0.56963374656E+02 -0.49742475197E+03  0.51693469895E+03  0.12500000000E+03 0.  0.
         25    1    1    2    0    0 -0.43898332146E+02  0.19614937862E+03  0.16025313898E+03  0.28584560667E+03  0.12500000000E+03 0.  0.
         25    1    1    2    0    0  0.13562329415E+02 -0.13918600397E+03 -0.38138416890E+03  0.42501242896E+03  0.12500000000E+03 0.  0.
</event>
<event>
 5    0  0.5663008E-005  0.2673625E+03  0.7546771E-02  0.1102799E+00
         21   -1    0    0  502  501  0.00000000000E+00  0.00000000000E+00  0.12548240679E+03  0.12548240679E+03  0.00000000000E+00 0.  1.
         21   -1    0    0  501  502 -0.00000000000E+00 -0.00000000000E+00 -0.56966334352E+03  0.56966334352E+03  0.00000000000E+00 0.  1.
         25    1    1    2    0    0  0.62791816036E+02 -0.90423229864E+01 -0.30273690715E+03  0.33361536343E+03  0.12500000000E+03 0.  0.
         25    1    1    2    0    0 -0.10043071000E+03  0.63406246443E+02 -0.17186688219E+02  0.17328318398E+03  0.12500000000E+03 0.  0.
         25    1    1    2    0    0  0.37638893965E+02 -0.54363923457E+02 -0.12425734136E+03  0.18824720289E+03  0.12500000000E+03 0.  0.
</event>
<event>
 5    0  0.5663008E-005  0.2181204E+03  0.7546771E-02  0.1135292E+00
         21   -1    0    0  502  501  0.00000000000E+00  0.00000000000E+00  0.51706398151E+03  0.51706398151E+03  0.00000000000E+00 0. -1.
         21   -1    0    0  501  502 -0.00000000000E+00 -0.00000000000E+00 -0.92012766636E+02  0.92012766636E+02  0.00000000000E+00 0. -1.
         25    1    1    2    0    0 -0.13109974038E+02 -0.32282521530E+02  0.14059307370E+03  0.19132549487E+03  0.12500000000E+03 0.  0.
         25    1    1    2    0    0 -0.44253414985E+02 -0.50236490485E+02  0.10114370755E+03  0.17417554160E+03  0.12500000000E+03 0.  0.
         25    1    1    2    0    0  0.57363389023E+02  0.82519012015E+02  0.18331443363E+03  0.24357571168E+03  0.12500000000E+03 0.  0.
</event>
<event>
 5    0  0.5663008E-005  0.3309118E+03  0.7546771E-02  0.1070734E+00
         21   -1    0    0  502  501  0.00000000000E+00  0.00000000000E+00  0.30419846330E+03  0.30419846330E+03  0.00000000000E+00 0.  1.
         21   -1    0    0  501  502 -0.00000000000E+00 -0.00000000000E+00 -0.35997089054E+03  0.35997089054E+03  0.00000000000E+00 0.  1.
         25    1    1    2    0    0  0.20903348157E+03 -0.52215611292E+02 -0.11807645491E+03  0.27566014526E+03  0.12500000000E+03 0.  0.
         25    1    1    2    0    0 -0.16807534757E+03  0.10894801388E+03  0.11035923193E+02  0.23635943770E+03  0.12500000000E+03 0.  0.
         25    1    1    2    0    0 -0.40958133996E+02 -0.56732402585E+02  0.51268104478E+02  0.15214977088E+03  0.12500000000E+03 0.  0.
</event>
<event>
 5    0  0.5663008E-005  0.3414202E+03  0.7546771E-02  0.1066193E+00
         21   -1    0    0  502  501  0.00000000000E+00  0.00000000000E+00  0.78405286395E+03  0.78405286395E+03  0.00000000000E+00 0. -1.
         21   -1    0    0  501  502 -0.00000000000E+00 -0.00000000000E+00 -0.14867335980E+03  0.14867335980E+03  0.00000000000E+00 0. -1.
         25    1    1    2    0    0  0.13059366834E+03  0.92794913715E+02  0.38642069938E+03  0.43659083720E+03  0.12500000000E+03 0.  0.
         25    1    1    2    0    0 -0.21411446154E+03 -0.11103728173E+03  0.19871020578E+03  0.33657841056E+03  0.12500000000E+03 0.  0.
         25    1    1    2    0    0  0.83520793202E+02  0.18242368011E+02  0.50248598994E+02  0.15955697599E+03  0.12500000000E+03 0.  0.
</event>
<event>
 5    0  0.5663008E-005  0.3989959E+03  0.7546771E-02  0.1044128E+00
         21   -1    0    0  502  501  0.00000000000E+00  0.00000000000E+00  0.41810055009E+03  0.41810055009E+03  0.00000000000E+00 0. -1.
         21   -1    0    0  501  502 -0.00000000000E+00 -0.00000000000E+00 -0.38076422364E+03  0.38076422364E+03  0.00000000000E+00 0. -1.
         25    1    1    2    0    0 -0.13352042741E+03  0.10482752428E+03  0.52710271861E+02  0.21730137400E+03  0.12500000000E+03 0.  0.
         25    1    1    2    0    0 -0.27487882004E+02 -0.13569523716E+03 -0.22180891206E+03  0.28981541456E+03  0.12500000000E+03 0.  0.
         25    1    1    2    0    0  0.16100830941E+03  0.30867712884E+02  0.20643496665E+03  0.29174798518E+03  0.12500000000E+03 0.  0.
</event>
<event>
 5    0  0.5663008E-005  0.2284453E+03  0.7546771E-02  0.1127739E+00
         21   -1    0    0  502  501  0.00000000000E+00  0.00000000000E+00  0.49595618844E+02  0.49595618844E+02  0.00000000000E+00 0.  1.
         21   -1    0    0  501  502 -0.00000000000E+00 -0.00000000000E+00 -0.10522553772E+04  0.10522553772E+04  0.00000000000E+00 0.  1.
         25    1    1    2    0    0  0.20131549141E+02 -0.11075887699E+02 -0.11148334263E+03  0.16906061115E+03  0.12500000000E+03 0.  0.
         25    1    1    2    0    0 -0.28820242251E+02  0.84924311745E+01 -0.26932595442E+03  0.29843625362E+03  0.12500000000E+03 0.  0.
         25    1    1    2    0    0  0.86886931095E+01  0.25834565243E+01 -0.62185046130E+03  0.63435413126E+03  0.12500000000E+03 0.  0.
</event>
<event>
 5    0  0.5663008E-005  0.2969233E+03  0.7546771E-02  0.1086789E+00
         21   -1    0    0  502  501  0.00000000000E+00  0.00000000000E+00  0.65272442924E+03  0.65272442924E+03  0.00000000000E+00 0.  1.
         21   -1    0    0  501  502 -0.00000000000E+00 -0.00000000000E+00 -0.13506989138E+03  0.13506989138E+03  0.00000000000E+00 0.  1.
         25    1    1    2    0    0 -0.13030168809E+03  0.21961622338E+02  0.89816698868E+01  0.18211675697E+03  0.12500000000E+03 0.  0.
         25    1    1    2    0    0 -0.38808308000E+00  0.15307230030E+02  0.30920262780E+03  0.33386483333E+03  0.12500000000E+03 0.  0.
         25    1    1    2    0    0  0.13068977117E+03 -0.37268852369E+02  0.19947024017E+03  0.27181273031E+03  0.12500000000E+03 0.  0.
</event>
<event>
 5    0  0.5663008E-005  0.6634179E+03  0.7546771E-02  0.9781922E-01
         21   -1    0    0  502  501  0.00000000000E+00  0.00000000000E+00  0.36899543179E+03  0.36899543179E+03  0.00000000000E+00 0.  1.
         21   -1    0    0  501  502 -0.00000000000E+00 -0.00000000000E+00 -0.11927609128E+04  0.11927609128E+04  0.00000000000E+00 0.  1.
         25    1    1    2    0    0 -0.38692818892E+03  0.16327834100E+03  0.44695680299E+02  0.44044970639E+03  0.12500000000E+03 0.  0.
         25    1    1    2    0    0  0.49657046614E+03 -0.17851963485E+03 -0.66908071773E+03  0.86124647733E+03  0.12500000000E+03 0.  0.
         25    1    1    2    0    0 -0.10964227721E+03  0.15241293852E+02 -0.19938044362E+03  0.26006016090E+03  0.12500000000E+03 0.  0.
</event>
<event>
 5    0  0.5663008E-005  0.2458387E+03  0.7546771E-02  0.1115963E+00
         21   -1    0    0  502  501  0.00000000000E+00  0.00000000000E+00  0.97195060325E+03  0.97195060325E+03  0.00000000000E+00 0. -1.
         21   -1    0    0  501  502 -0.00000000000E+00 -0.00000000000E+00 -0.62180800173E+02  0.62180800173E+02  0.00000000000E+00 0. -1.
         25    1    1    2    0    0  0.34373950616E+02 -0.10590658785E+03  0.40349512976E+03  0.43684218383E+03  0.12500000000E+03 0.  0.
         25    1    1    2    0    0  0.41965459938E+02  0.10364762009E+03  0.30891730281E+03  0.35150935828E+03  0.12500000000E+03 0.  0.
         25    1    1    2    0    0 -0.76339410554E+02  0.22589677579E+01  0.19735737050E+03  0.24577986132E+03  0.12500000000E+03 0.  0.
</event>
<event>
 5    0  0.5663008E-005  0.2576259E+03  0.7546771E-02  0.1108578E+00
         21   -1    0    0  502  501  0.00000000000E+00  0.00000000000E+00  0.11407196433E+04  0.11407196433E+04  0.00000000000E+00 0.  1.
         21   -1    0    0  501  502 -0.00000000000E+00 -0.00000000000E+00 -0.58183548711E+02  0.58183548711E+02  0.00000000000E+00 0.  1.
         25    1    1    2    0    0 -0.50208897538E+01  0.86795974885E+02  0.38856477712E+03  0.41733240541E+03  0.12500000000E+03 0.  0.
         25    1    1    2    0    0 -0.63528743953E+02 -0.63786369444E+02  0.57251704686E+03  0.59287888407E+03  0.12500000000E+03 0.  0.
         25    1    1    2    0    0  0.68549633707E+02 -0.23009605441E+02  0.12145427057E+03  0.18869190249E+03  0.12500000000E+03 0.  0.
</event>
<event>
 5    0  0.5663008E-005  0.2788165E+03  0.7546771E-02  0.1096337E+00
         21   -1    0    0  502  501  0.00000000000E+00  0.00000000000E+00  0.10043957550E+04  0.10043957550E+04  0.00000000000E+00 0. -1.
         21   -1    0    0  501  502 -0.00000000000E+00 -0.00000000000E+00 -0.77398408272E+02  0.77398408272E+02  0.00000000000E+00 0. -1.
         25    1    1    2    0    0  0.64266621398E+02  0.16513463445E+03  0.34688593813E+03  0.40908984367E+03  0.12500000000E+03 0.  0.
         25    1    1    2    0    0 -0.39398859186E+02 -0.94835631056E+02  0.44733741185E+03  0.47569089445E+03  0.12500000000E+03 0.  0.
         25    1    1    2    0    0 -0.24867762212E+02 -0.70299003398E+02  0.13277399674E+03  0.19701342514E+03  0.12500000000E+03 0.  0.
</event>
<event>
 5    0  0.5663008E-005  0.4949320E+03  0.7546771E-02  0.1015110E+00
         21   -1    0    0  502  501  0.00000000000E+00  0.00000000000E+00  0.35171636546E+03  0.35171636546E+03  0.00000000000E+00 0.  1.
         21   -1    0    0  501  502 -0.00000000000E+00 -0.00000000000E+00 -0.69646361323E+03  0.69646361323E+03  0.00000000000E+00 0.  1.
         25    1    1    2    0    0 -0.62469649630E+02  0.19938269746E+03 -0.45085759561E+02  0.24761591808E+03  0.12500000000E+03 0.  0.
         25    1    1    2    0    0 -0.22030635595E+02  0.11101581438E+03 -0.40583623413E+03  0.43947458275E+03  0.12500000000E+03 0.  0.
         25    1    1    2    0    0  0.84500285225E+02 -0.31039851184E+03  0.10617474593E+03  0.36108947787E+03  0.12500000000E+03 0.  0.
</event>
<event>
 5    0  0.5663008E-005  0.2566665E+03  0.7546771E-02  0.1109163E+00
         21   -1    0    0  502  501  0.00000000000E+00  0.00000000000E+00  0.62976771137E+02  0.62976771137E+02  0.00000000000E+00 0.  1.
         21   -1    0    0  501  502 -0.00000000000E+00 -0.00000000000E+00 -0.10460631764E+04  0.10460631764E+04  0.00000000000E+00 0.  1.
         25    1    1    2    0    0 -0.80532928007E+02 -0.31908383226E+00 -0.14525281585E+03  0.20786783017E+03  0.12500000000E+03 0.  0.
         25    1    1    2    0    0  0.14253256899E+03  0.19729960096E+02 -0.45963781739E+03  0.49759092407E+03  0.12500000000E+03 0.  0.
         25    1    1    2    0    0 -0.61999640985E+02 -0.19410876263E+02 -0.37819577199E+03  0.40358119326E+03  0.12500000000E+03 0.  0.
</event>
<event>
 5    0  0.5663008E-005  0.2864553E+03  0.7546771E-02  0.1092214E+00
         21   -1    0    0  502  501  0.00000000000E+00  0.00000000000E+00  0.13467771371E+03  0.13467771371E+03  0.00000000000E+00 0.  1.
         21   -1    0    0  501  502 -0.00000000000E+00 -0.00000000000E+00 -0.60928165632E+03  0.60928165632E+03  0.00000000000E+00 0.  1.
         25    1    1    2    0    0 -0.12791800287E+03  0.55426540162E+02 -0.15245806037E+03  0.24146133641E+03  0.12500000000E+03 0.  0.
         25    1    1    2    0    0 -0.25314006489E+02  0.71771182212E+02 -0.88496474766E+02  0.17102200901E+03  0.12500000000E+03 0.  0.
         25    1    1    2    0    0  0.15323200936E+03 -0.12719772237E+03 -0.23364940748E+03  0.33147602460E+03  0.12500000000E+03 0.  0.
</event>
<event>
 5    0  0.5663008E-005  0.2673656E+03  0.7546771E-02  0.1102797E+00
         21   -1    0    0  502  501  0.00000000000E+00  0.00000000000E+00  0.11687890824E+03  0.11687890824E+03  0.00000000000E+00 0. -1.
         21   -1    0    0  501  502 -0.00000000000E+00 -0.00000000000E+00 -0.61161054642E+03  0.61161054642E+03  0.00000000000E+00 0. -1.
         25    1    1    2    0    0  0.10029592271E+03 -0.30353086782E+02 -0.16901897475E+03  0.23488932674E+03  0.12500000000E+03 0.  0.
         25    1    1    2    0    0  0.39654859416E+02 -0.71195443476E+02 -0.18645779357E+03  0.23881542628E+03  0.12500000000E+03 0.  0.
         25    1    1    2    0    0 -0.13995078212E+03  0.10154853026E+03 -0.13925486986E+03  0.25478470165E+03  0.12500000000E+03 0.  0.
</event>
<event>
 5    0  0.5663008E-005  0.7929500E+03  0.7546771E-02  0.9570278E-01
         21   -1    0    0  502  501  0.00000000000E+00  0.00000000000E+00  0.55039698221E+03  0.55039698221E+03  0.00000000000E+00 0.  1.
         21   -1    0    0  501  502 -0.00000000000E+00 -0.00000000000E+00 -0.11423931698E+04  0.11423931698E+04  0.00000000000E+00 0.  1.
         25    1    1    2    0    0 -0.71396971889E+03 -0.11039565372E+03 -0.49718178868E+02  0.73487200053E+03  0.12500000000E+03 0.  0.
         25    1    1    2    0    0  0.20253911639E+03  0.42021627013E+02 -0.81854085161E+02  0.25517249472E+03  0.12500000000E+03 0.  0.
         25    1    1    2    0    0  0.51143060250E+03  0.68374026706E+02 -0.46042392355E+03  0.70274565675E+03  0.12500000000E+03 0.  0.
</event>
<event>
 5    0  0.5663008E-005  0.3583650E+03  0.7546771E-02  0.1059233E+00
         21   -1    0    0  502  501  0.00000000000E+00  0.00000000000E+00  0.86511298526E+03  0.86511298526E+03  0.00000000000E+00 0.  1.
         21   -1    0    0  501  502 -0.00000000000E+00 -0.00000000000E+00 -0.14844937234E+03  0.14844937234E+03  0.00000000000E+00 0.  1.
         25    1    1    2    0    0  0.14177520276E+03  0.16801174569E+03  0.22525605041E+03  0.33866420397E+03  0.12500000000E+03 0.  0.
         25    1    1    2    0    0 -0.21421304049E+03 -0.12700617647E+02  0.23246523690E+03  0.34016704539E+03  0.12500000000E+03 0.  0.
         25    1    1    2    0    0  0.72437837723E+02 -0.15531112804E+03  0.25894232561E+03  0.33473110824E+03  0.12500000000E+03 0.  0.
</event>
<event>
 5    0  0.5663008E-005  0.4638236E+03  0.7546771E-02  0.1023678E+00
         21   -1    0    0  502  501  0.00000000000E+00  0.00000000000E+00  0.14634149800E+04  0.14634149800E+04  0.00000000000E+00 0. -1.
         21   -1    0    0  501  502 -0.00000000000E+00 -0.00000000000E+00 -0.14700705992E+03  0.14700705992E+03  0.00000000000E+00 0. -1.
         25    1    1    2    0    0 -0.22581076737E+03 -0.94038107491E+02  0.93279015602E+03  0.97239711203E+03  0.12500000000E+03 0.  0.
         25    1    1    2    0    0  0.17066677409E+03 -0.92654354608E+02  0.32617074516E+03  0.39965526670E+03  0.12500000000E+03 0.  0.
         25    1    1    2    0    0  0.55143993286E+02  0.18669246210E+03  0.57447018912E+02  0.23836966120E+03  0.12500000000E+03 0.  0.
</event>
<event>
 5    0  0.5663008E-005  0.5588114E+03  0.7546771E-02  0.9994748E-01
         21   -1    0    0  502  501  0.00000000000E+00  0.00000000000E+00  0.36437776062E+03  0.36437776062E+03  0.00000000000E+00 0.  1.
         21   -1    0    0  501  502 -0.00000000000E+00 -0.00000000000E+00 -0.85699571994E+03  0.85699571994E+03  0.00000000000E+00 0.  1.
         25    1    1    2    0    0  0.34644978432E+03 -0.31516770029E+01 -0.54590194116E+03  0.65853725444E+03  0.12500000000E+03 0.  0.
         25    1    1    2    0    0 -0.35213474363E+03  0.99776285207E+02 -0.22720598491E+02  0.38742148928E+03  0.12500000000E+03 0.  0.
         25    1    1    2    0    0  0.56849593119E+01 -0.96624608204E+02  0.76004580325E+02  0.17541473685E+03  0.12500000000E+03 0.  0.
</event>
<event>
 5    0  0.5663008E-005  0.2529962E+03  0.7546771E-02  0.1111426E+00
         21   -1    0    0  502  501  0.00000000000E+00  0.00000000000E+00  0.18678585956E+03  0.18678585956E+03  0.00000000000E+00 0. -1.
         21   -1    0    0  501  502 -0.00000000000E+00 -0.00000000000E+00 -0.34267634114E+03  0.34267634114E+03  0.00000000000E+00 0. -1.
         25    1    1    2    0    0 -0.46926550586E+01  0.30030242397E+02 -0.43287896786E+02  0.13573016790E+03  0.12500000000E+03 0.  0.
         25    1    1    2    0    0  0.11959313691E+03  0.55712464089E+02 -0.22077887492E+02  0.18308148505E+03  0.12500000000E+03 0.  0.
         25    1    1    2    0    0 -0.11490048186E+03 -0.85742706486E+02 -0.90524697299E+02  0.21065054775E+03  0.12500000000E+03 0.  0.
</event>
<event>
 5    0  0.5663008E-005  0.2812817E+03  0.7546771E-02  0.1094991E+00
         21   -1    0    0  502  501  0.00000000000E+00  0.00000000000E+00  0.66021588970E+03  0.66021588970E+03  0.00000000000E+00 0. -1.
         21   -1    0    0  501  502 -0.00000000000E+00 -0.00000000000E+00 -0.11983866052E+03  0.11983866052E+03  0.00000000000E+00 0. -1.
         25    1    1    2    0    0  0.86378772507E+02 -0.13250263672E+03  0.19481319683E+03  0.28034875198E+03  0.12500000000E+03 0.  0.
         25    1    1    2    0    0  0.22489597370E+02  0.14610818433E+03  0.16685191547E+03  0.25557375690E+03  0.12500000000E+03 0.  0.
         25    1    1    2    0    0 -0.10886836988E+03 -0.13605547611E+02  0.17871211688E+03  0.24413204133E+03  0.12500000000E+03 0.  0.
</event>
<event>
 5    0  0.5663008E-005  0.3498327E+03  0.7546771E-02  0.1062684E+00
         21   -1    0    0  502  501  0.00000000000E+00  0.00000000000E+00  0.24596112632E+03  0.24596112632E+03  0.00000000000E+00 0.  1.
         21   -1    0    0  501  502 -0.00000000000E+00 -0.00000000000E+00 -0.49757022563E+03  0.49757022563E+03  0.00000000000E+00 0.  1.
         25    1    1    2    0    0  0.33803956000E+02 -0.15649446106E+03  0.50940623226E+02  0.20941148698E+03  0.12500000000E+03 0.  0.
         25    1    1    2    0    0  0.58268085127E+02  0.94832150061E+02 -0.32500574140E+03  0.36557083906E+03  0.12500000000E+03 0.  0.
         25    1    1    2    0    0 -0.92072041127E+02  0.61662310997E+02  0.22456018859E+02  0.16854902592E+03  0.12500000000E+03 0.  0.
</event>
<event>
 5    0  0.5663008E-005  0.3063823E+03  0.7546771E-02  0.1082093E+00
         21   -1    0    0  502  501  0.00000000000E+00  0.00000000000E+00  0.15338377411E+04  0.15338377411E+04  0.00000000000E+00 0. -1.
         21   -1    0    0  501  502 -0.00000000000E+00 -0.00000000000E+00 -0.61199510756E+02  0.61199510756E+02  0.00000000000E+00 0. -1.
         25    1    1    2    0    0 -0.59257229947E+02 -0.11776787283E+03  0.66131073493E+03  0.68581162086E+03  0.12500000000E+03 0.  0.
         25    1    1    2    0    0 -0.35450133186E+02  0.16102813006E+03  0.64153275891E+03  0.67407421800E+03  0.12500000000E+03 0.  0.
         25    1    1    2    0    0  0.94707363133E+02 -0.43260257229E+02  0.16979473648E+03  0.23515141297E+03  0.12500000000E+03 0.  0.
</event>
<event>
 5    0  0.5663008E-005  0.3017376E+03  0.7546771E-02  0.1084375E+00
         21   -1    0    0  502  501  0.00000000000E+00  0.00000000000E+00  0.16166723533E+04  0.16166723533E+04  0.00000000000E+00 0. -1.
         21   -1    0    0  501  502 -0.00000000000E+00 -0.00000000000E+00 -0.56316661826E+02  0.56316661826E+02  0.00000000000E+00 0. -1.
         25    1    1    2    0    0  0.30810694432E+02  0.49951612063E+02  0.14999700815E+03  0.20388370434E+03  0.12500000000E+03 0.  0.
         25    1    1    2    0    0 -0.58341133867E+02  0.86208825550E+02  0.28347353969E+03  0.32683007391E+03  0.12500000000E+03 0.  0.
         25    1    1    2    0    0  0.27530439435E+02 -0.13616043761E+03  0.11268851436E+04  0.11422752369E+04  0.12500000000E+03 0.  0.
</event>
<event>
 5    0  0.5663008E-005  0.2199872E+03  0.7546771E-02  0.1133893E+00
         21   -1    0    0  502  501  0.00000000000E+00  0.00000000000E+00  0.16914146420E+03  0.16914146420E+03  0.00000000000E+00 0.  1.
         21   -1    0    0  501  502 -0.00000000000E+00 -0.00000000000E+00 -0.28611762722E+03  0.28611762722E+03  0.00000000000E+00 0.  1.
         25    1    1    2    0    0  0.67339506451E+02 -0.31934281070E+00 -0.12299224892E+03  0.18784782246E+03  0.12500000000E+03 0.  0.
         25    1    1    2    0    0 -0.22963859436E+01  0.43073837770E+01 -0.10224769268E+02  0.12551244102E+03  0.12500000000E+03 0.  0.
         25    1    1    2    0    0 -0.65043120507E+02 -0.39880409663E+01  0.16240855170E+02  0.14189882795E+03  0.12500000000E+03 0.  0.
</event>
<event>
 5    0  0.5663008E-005  0.2790395E+03  0.7546771E-02  0.1096215E+00
         21   -1    0    0  502  501  0.00000000000E+00  0.00000000000E+00  0.26624957345E+04  0.26624957345E+04  0.00000000000E+00 0. -1.
         21   -1    0    0  501  502 -0.00000000000E+00 -0.00000000000E+00 -0.29244378539E+02  0.29244378539E+02  0.00000000000E+00 0.  1.
         25    1    1    2    0    0  0.11661200897E+03 -0.24937217864E+02  0.13736912273E+04  0.13845117600E+04  0.12500000000E+03 0.  0.
         25    1    1    2    0    0  0.27550038600E+02 -0.54671261975E+02  0.41452005169E+03  0.43726402181E+03  0.12500000000E+03 0.  0.
         25    1    1    2    0    0 -0.14416204757E+03  0.79608479839E+02  0.84504007693E+03  0.86996433125E+03  0.12500000000E+03 0.  0.
</event>
<event>
 5    0  0.6043364E-005  0.4122412E+03  0.7546771E-02  0.1039622E+00
         21   -1    0    0  502  501  0.00000000000E+00  0.00000000000E+00  0.78660242414E+03  0.78660242414E+03  0.00000000000E+00 0. -1.
         21   -1    0    0  501  502 -0.00000000000E+00 -0.00000000000E+00 -0.21604662945E+03  0.21604662945E+03  0.00000000000E+00 0. -1.
         25    1    1    2    0    0  0.19145737876E+03  0.16351524016E+02 -0.30609082404E+02  0.23126870983E+03  0.12500000000E+03 0.  0.
         25    1    1    2    0    0  0.26565004106E+02 -0.13236901412E+03  0.35985015973E+03  0.40415887074E+03  0.12500000000E+03 0.  0.
         25    1    1    2    0    0 -0.21802238287E+03  0.11601749010E+03  0.24131471736E+03  0.36722147303E+03  0.12500000000E+03 0.  0.
</event>
<event>
 5    0  0.5663008E-005  0.3099450E+03  0.7546771E-02  0.1080372E+00
         21   -1    0    0  502  501  0.00000000000E+00  0.00000000000E+00  0.52892601419E+02  0.52892601419E+02  0.00000000000E+00 0. -1.
         21   -1    0    0  501  502 -0.00000000000E+00 -0.00000000000E+00 -0.18162442426E+04  0.18162442426E+04  0.00000000000E+00 0. -1.
         25    1    1    2    0    0 -0.42065757548E+02 -0.70703841856E+02 -0.61485050159E+03  0.63279909965E+03  0.12500000000E+03 0.  0.
         25    1    1    2    0    0  0.47256801940E+02  0.59629644782E+02 -0.92991784074E+02  0.17338215529E+03  0.12500000000E+03 0.  0.
         25    1    1    2    0    0 -0.51910443915E+01  0.11074197074E+02 -0.10555093555E+04  0.10629555891E+04  0.12500000000E+03 0.  0.
</event>
<event>
 5    0  0.5663008E-005  0.2722567E+03  0.7546771E-02  0.1099995E+00
         21   -1    0    0  502  501  0.00000000000E+00  0.00000000000E+00  0.88437683046E+02  0.88437683046E+02  0.00000000000E+00 0. -1.
         21   -1    0    0  501  502 -0.00000000000E+00 -0.00000000000E+00 -0.83814621020E+03  0.83814621020E+03  0.00000000000E+00 0. -1.
         25    1    1    2    0    0  0.15230490799E+02  0.80613050951E+02 -0.56840207142E+02  0.15995699729E+03  0.12500000000E+03 0.  0.
         25    1    1    2    0    0 -0.24384382529E+02  0.58288917033E+02 -0.32576835371E+03  0.35460148933E+03  0.12500000000E+03 0.  0.
         25    1    1    2    0    0  0.91538917301E+01 -0.13890196798E+03 -0.36709996630E+03  0.41202540662E+03  0.12500000000E+03 0.  0.
</event>
<event>
 5    0  0.5663008E-005  0.3137599E+03  0.7546771E-02  0.1078558E+00
         21   -1    0    0  502  501  0.00000000000E+00  0.00000000000E+00  0.16015225867E+03  0.16015225867E+03  0.00000000000E+00 0. -1.
         21   -1    0    0  501  502 -0.00000000000E+00 -0.00000000000E+00 -0.61469816684E+03  0.61469816684E+03  0.00000000000E+00 0. -1.
         25    1    1    2    0    0  0.86546789629E+02 -0.14350269814E+02 -0.33543390879E+02  0.15635356123E+03  0.12500000000E+03 0.  0.
         25    1    1    2    0    0  0.75343600831E+02 -0.31712516705E+02 -0.37528701550E+03  0.40391544400E+03  0.12500000000E+03 0.  0.
         25    1    1    2    0    0 -0.16189039046E+03  0.46062786519E+02 -0.45715501788E+02  0.21458142028E+03  0.12500000000E+03 0.  0.
</event>
<event>
 5    0  0.5663008E-005  0.2738007E+03  0.7546771E-02  0.1099124E+00
         21   -1    0    0  502  501  0.00000000000E+00  0.00000000000E+00  0.83996262177E+02  0.83996262177E+02  0.00000000000E+00 0. -1.
         21   -1    0    0  501  502 -0.00000000000E+00 -0.00000000000E+00 -0.89250167778E+03  0.89250167778E+03  0.00000000000E+00 0. -1.
         25    1    1    2    0    0 -0.69541157138E+02  0.13024772230E+03 -0.24465589916E+03  0.31190054616E+03  0.12500000000E+03 0.  0.
         25    1    1    2    0    0 -0.17472140179E+02 -0.88325098861E+00 -0.10521574703E+03  0.16432105537E+03  0.12500000000E+03 0.  0.
         25    1    1    2    0    0  0.87013297317E+02 -0.12936447131E+03 -0.45863376941E+03  0.50027633843E+03  0.12500000000E+03 0.  0.
</event>
<event>
 5    0  0.5663008E-005  0.2159240E+03  0.7546771E-02  0.1136959E+00
         21   -1    0    0  502  501  0.00000000000E+00  0.00000000000E+00  0.46391709715E+03  0.46391709715E+03  0.00000000000E+00 0. -1.
         21   -1    0    0  501  502 -0.00000000000E+00 -0.00000000000E+00 -0.10049896707E+03  0.10049896707E+03  0.00000000000E+00 0. -1.
         25    1    1    2    0    0  0.16100363616E+02 -0.57505308890E+02  0.37935845499E+02  0.14363220611E+03  0.12500000000E+03 0.  0.
         25    1    1    2    0    0  0.39278405520E+01  0.48242149467E+02  0.21026635539E+03  0.24935852327E+03  0.12500000000E+03 0.  0.
         25    1    1    2    0    0 -0.20028204168E+02  0.92631594232E+01  0.11521592919E+03  0.17142533484E+03  0.12500000000E+03 0.  0.
</event>
<event>
 5    0  0.5663008E-005  0.2501069E+03  0.7546771E-02  0.1113237E+00
         21   -1    0    0  502  501  0.00000000000E+00  0.00000000000E+00  0.52119397445E+02  0.52119397445E+02  0.00000000000E+00 0.  1.
         21   -1    0    0  501  502 -0.00000000000E+00 -0.00000000000E+00 -0.12001955797E+04  0.12001955797E+04  0.00000000000E+00 0.  1.
         25    1    1    2    0    0  0.67410710078E+02 -0.47062381519E+02 -0.37955658098E+03  0.40797949673E+03  0.12500000000E+03 0.  0.
         25    1    1    2    0    0 -0.13819151692E+02  0.11491787653E+03 -0.23945991879E+03  0.29387606232E+03  0.12500000000E+03 0.  0.
         25    1    1    2    0    0 -0.53591558386E+02 -0.67855495010E+02 -0.52905968246E+03  0.55045941807E+03  0.12500000000E+03 0.  0.
</event>
<event>
 5    0  0.5663008E-005  0.2475107E+03  0.7546771E-02  0.1114888E+00
         21   -1    0    0  502  501  0.00000000000E+00  0.00000000000E+00  0.72396326353E+02  0.72396326353E+02  0.00000000000E+00 0.  1.
         21   -1    0    0  501  502 -0.00000000000E+00 -0.00000000000E+00 -0.84619678366E+03  0.84619678366E+03  0.00000000000E+00 0.  1.
         25    1    1    2    0    0 -0.47152276503E+02  0.35306702895E+02 -0.94614235950E+02  0.16747165161E+03  0.12500000000E+03 0.  0.
         25    1    1    2    0    0  0.82942769241E+01 -0.30604745880E+02 -0.11782199122E+03  0.17467818156E+03  0.12500000000E+03 0.  0.
         25    1    1    2    0    0  0.38857999579E+02 -0.47019570151E+01 -0.56136423014E+03  0.57644327684E+03  0.12500000000E+03 0.  0.
</event>
<event>
 5    0  0.5663008E-005  0.3783707E+03  0.7546771E-02  0.1051538E+00
         21   -1    0    0  502  501  0.00000000000E+00  0.00000000000E+00  0.13315673136E+04  0.13315673136E+04  0.00000000000E+00 0. -1.
         21   -1    0    0  501  502 -0.00000000000E+00 -0.00000000000E+00 -0.10751571698E+03  0.10751571698E+03  0.00000000000E+00 0. -1.
         25    1    1    2    0    0 -0.18177864912E+03  0.13893824104E+03  0.88554952245E+03  0.92313068891E+03  0.12500000000E+03 0.  0.
         25    1    1    2    0    0  0.12484568394E+03 -0.14792801346E+03  0.12560486644E+03  0.26243232354E+03  0.12500000000E+03 0.  0.
         25    1    1    2    0    0  0.56932965183E+02  0.89897724171E+01  0.21289720771E+03  0.25352001812E+03  0.12500000000E+03 0.  0.
</event>
<event>
 5    0  0.5663008E-005  0.2752125E+03  0.7546771E-02  0.1098333E+00
         21   -1    0    0  502  501  0.00000000000E+00  0.00000000000E+00  0.30194422238E+03  0.30194422238E+03  0.00000000000E+00 0. -1.
         21   -1    0    0  501  502 -0.00000000000E+00 -0.00000000000E+00 -0.25084733877E+03  0.25084733877E+03  0.00000000000E+00 0. -1.
         25    1    1    2    0    0 -0.11770958522E+02  0.69801434990E+02  0.82041019698E+02  0.16542830684E+03  0.12500000000E+03 0.  0.
         25    1    1    2    0    0  0.13200009823E+03 -0.94916575930E+02 -0.49991700864E+02  0.21108612573E+03  0.12500000000E+03 0.  0.
         25    1    1    2    0    0 -0.12022913971E+03  0.25115140940E+02  0.19047564772E+02  0.17627712859E+03  0.12500000000E+03 0.  0.
</event>
<event>
 5    0  0.5663008E-005  0.2824004E+03  0.7546771E-02  0.1094385E+00
         21   -1    0    0  502  501  0.00000000000E+00  0.00000000000E+00  0.22852565958E+04  0.22852565958E+04  0.00000000000E+00 0. -1.
         21   -1    0    0  501  502 -0.00000000000E+00 -0.00000000000E+00 -0.34897595288E+02  0.34897595288E+02  0.00000000000E+00 0. -1.
         25    1    1    2    0    0  0.20294482170E+02  0.20338198935E+02  0.49718691557E+03  0.51346405654E+03  0.12500000000E+03 0.  0.
         25    1    1    2    0    0 -0.14968346719E+03  0.99615492345E+02  0.81324383551E+03  0.84221073531E+03  0.12500000000E+03 0.  0.
         25    1    1    2    0    0  0.12938898502E+03 -0.11995369128E+03  0.93992824948E+03  0.96447939929E+03  0.12500000000E+03 0.  0.
</event>
<event>
 5    0  0.5663008E-005  0.2900751E+03  0.7546771E-02  0.1090310E+00
         21   -1    0    0  502  501  0.00000000000E+00  0.00000000000E+00  0.87672717180E+02  0.87672717180E+02  0.00000000000E+00 0.  1.
         21   -1    0    0  501  502 -0.00000000000E+00 -0.00000000000E+00 -0.95974600020E+03  0.95974600020E+03  0.00000000000E+00 0.  1.
         25    1    1    2    0    0 -0.14512582933E+03 -0.34285792236E+02 -0.19733020336E+03  0.27713035028E+03  0.12500000000E+03 0.  0.
         25    1    1    2    0    0  0.14274391001E+03 -0.50611780248E+02 -0.24042762244E+03  0.31043166362E+03  0.12500000000E+03 0.  0.
         25    1    1    2    0    0  0.23819193183E+01  0.84897572484E+02 -0.43431545723E+03  0.45985670349E+03  0.12500000000E+03 0.  0.
</event>
<event>
 5    0  0.5663008E-005  0.3328941E+03  0.7546771E-02  0.1069863E+00
         21   -1    0    0  502  501  0.00000000000E+00  0.00000000000E+00  0.45517011667E+03  0.45517011667E+03  0.00000000000E+00 0. -1.
         21   -1    0    0  501  502 -0.00000000000E+00 -0.00000000000E+00 -0.24346603338E+03  0.24346603338E+03  0.00000000000E+00 0. -1.
         25    1    1    2    0    0  0.94606606719E+02  0.11588722657E+03  0.68351934739E+02  0.20658471942E+03  0.12500000000E+03 0.  0.
         25    1    1    2    0    0 -0.22748029233E+03 -0.10882428685E+03  0.12692678671E+03  0.30874814654E+03  0.12500000000E+03 0.  0.
         25    1    1    2    0    0  0.13287368562E+03 -0.70629397195E+01  0.16425361834E+02  0.18330328409E+03  0.12500000000E+03 0.  0.
</event>
<event>
 5    0  0.6128700E-005  0.2883721E+03  0.7546771E-02  0.1091202E+00
         21   -1    0    0  502  501  0.00000000000E+00  0.00000000000E+00  0.74364587233E+03  0.74364587233E+03  0.00000000000E+00 0.  1.
         21   -1    0    0  501  502 -0.00000000000E+00 -0.00000000000E+00 -0.11182535995E+03  0.11182535995E+03  0.00000000000E+00 0.  1.
         25    1    1    2    0    0  0.64258696263E+02 -0.48313473849E+02  0.26571590617E+03  0.30445576787E+03  0.12500000000E+03 0.  0.
         25    1    1    2    0    0 -0.18965591767E+03  0.14390803062E+02  0.16616589991E+03  0.28180235735E+03  0.12500000000E+03 0.  0.
         25    1    1    2    0    0  0.12539722140E+03  0.33922670787E+02  0.19993870631E+03  0.26921310705E+03  0.12500000000E+03 0.  0.
</event>
<event>
 5    0  0.5663008E-005  0.3835632E+03  0.7546771E-02  0.1049625E+00
         21   -1    0    0  502  501  0.00000000000E+00  0.00000000000E+00  0.32989894961E+03  0.32989894961E+03  0.00000000000E+00 0. -1.
         21   -1    0    0  501  502 -0.00000000000E+00 -0.00000000000E+00 -0.44595695667E+03  0.44595695667E+03  0.00000000000E+00 0. -1.
         25    1    1    2    0    0  0.15739174030E+03  0.82470959792E+02  0.12146932304E+03  0.24890443058E+03  0.12500000000E+03 0.  0.
         25    1    1    2    0    0 -0.60828418403E+02 -0.17421462387E+03  0.54782148068E+01  0.22294807129E+03  0.12500000000E+03 0.  0.
         25    1    1    2    0    0 -0.96563321897E+02  0.91743664077E+02 -0.24300554491E+03  0.30400340441E+03  0.12500000000E+03 0.  0.
</event>
<event>
 5    0  0.5663008E-005  0.2912423E+03  0.7546771E-02  0.1089702E+00
         21   -1    0    0  502  501  0.00000000000E+00  0.00000000000E+00  0.16770335452E+03  0.16770335452E+03  0.00000000000E+00 0.  1.
         21   -1    0    0  501  502 -0.00000000000E+00 -0.00000000000E+00 -0.50578655802E+03  0.50578655802E+03  0.00000000000E+00 0.  1.
         25    1    1    2    0    0  0.31555162846E+02  0.15300688245E+03 -0.14043371744E+03  0.24444521548E+03  0.12500000000E+03 0.  0.
         25    1    1    2    0    0  0.54223777813E+02 -0.14769835355E+03 -0.19094785532E+03  0.27720228205E+03  0.12500000000E+03 0.  0.
         25    1    1    2    0    0 -0.85778940660E+02 -0.53085288908E+01 -0.67016307433E+01  0.15184241500E+03  0.12500000000E+03 0.  0.
</event>
<event>
 5    0  0.5663008E-005  0.2578137E+03  0.7546771E-02  0.1108464E+00
         21   -1    0    0  502  501  0.00000000000E+00  0.00000000000E+00  0.84601501498E+03  0.84601501498E+03  0.00000000000E+00 0. -1.
         21   -1    0    0  501  502 -0.00000000000E+00 -0.00000000000E+00 -0.78565887589E+02  0.78565887589E+02  0.00000000000E+00 0. -1.
         25    1    1    2    0    0 -0.27519655697E+02 -0.12310873463E+03  0.41899084934E+03  0.45507298736E+03  0.12500000000E+03 0.  0.
         25    1    1    2    0    0  0.39011046921E+02  0.89242217871E+02  0.28204425092E+03  0.32351196996E+03  0.12500000000E+03 0.  0.
         25    1    1    2    0    0 -0.11491391224E+02  0.33866516763E+02  0.66414027140E+02  0.14599594525E+03  0.12500000000E+03 0.  0.
</event>
<event>
 5    0  0.5663008E-005  0.3779828E+03  0.7546771E-02  0.1051682E+00
         21   -1    0    0  502  501  0.00000000000E+00  0.00000000000E+00  0.17416766440E+03  0.17416766440E+03  0.00000000000E+00 0. -1.
         21   -1    0    0  501  502 -0.00000000000E+00 -0.00000000000E+00 -0.82030703853E+03  0.82030703853E+03  0.00000000000E+00 0. -1.
         25    1    1    2    0    0  0.11730728678E+03  0.15249701813E+03 -0.32643313305E+03  0.39899865968E+03  0.12500000000E+03 0.  0.
         25    1    1    2    0    0  0.31350515145E+02 -0.87130312683E+02 -0.35494415804E+03  0.38753696793E+03  0.12500000000E+03 0.  0.
         25    1    1    2    0    0 -0.14865780192E+03 -0.65366705446E+02  0.35237916961E+02  0.20793907532E+03  0.12500000000E+03 0.  0.
</event>
<event>
 5    0  0.6069369E-005  0.4165862E+03  0.7546771E-02  0.1038183E+00
         21   -1    0    0  502  501  0.00000000000E+00  0.00000000000E+00  0.82711020047E+03  0.82711020047E+03  0.00000000000E+00 0. -1.
         21   -1    0    0  501  502 -0.00000000000E+00 -0.00000000000E+00 -0.20981977660E+03  0.20981977660E+03  0.00000000000E+00 0. -1.
         25    1    1    2    0    0 -0.63949404745E+02 -0.19433285219E+03  0.69687488490E+02  0.24967204461E+03  0.12500000000E+03 0.  0.
         25    1    1    2    0    0 -0.19103155091E+03  0.93957991975E+02  0.34513960745E+03  0.42434361823E+03  0.12500000000E+03 0.  0.
         25    1    1    2    0    0  0.25498095566E+03  0.10037486022E+03  0.20246332794E+03  0.36291431423E+03  0.12500000000E+03 0.  0.
</event>
<event>
 5    0  0.5663008E-005  0.4355427E+03  0.7546771E-02  0.1032123E+00
         21   -1    0    0  502  501  0.00000000000E+00  0.00000000000E+00  0.25729581035E+03  0.25729581035E+03  0.00000000000E+00 0.  1.
         21   -1    0    0  501  502 -0.00000000000E+00 -0.00000000000E+00 -0.73727366271E+03  0.73727366271E+03  0.00000000000E+00 0.  1.
         25    1    1    2    0    0 -0.16486109267E+03 -0.73824976943E+02 -0.19158253903E+03  0.29147585897E+03  0.12500000000E+03 0.  0.
         25    1    1    2    0    0 -0.10700020839E+03  0.97514933976E+02  0.97115814084E+02  0.21451034541E+03  0.12500000000E+03 0.  0.
         25    1    1    2    0    0  0.27186130107E+03 -0.23689957033E+02 -0.38551112741E+03  0.48858326868E+03  0.12500000000E+03 0.  0.
</event>
<event>
 5    0  0.5663008E-005  0.2882649E+03  0.7546771E-02  0.1091259E+00
         21   -1    0    0  502  501  0.00000000000E+00  0.00000000000E+00  0.11649204383E+03  0.11649204383E+03  0.00000000000E+00 0. -1.
         21   -1    0    0  501  502 -0.00000000000E+00 -0.00000000000E+00 -0.71332472035E+03  0.71332472035E+03  0.00000000000E+00 0. -1.
         25    1    1    2    0    0 -0.69220751481E+02 -0.15218863865E+03 -0.11045308962E+03  0.23617319741E+03  0.12500000000E+03 0.  0.
         25    1    1    2    0    0  0.11176979247E+03  0.55883005501E+02 -0.26239300606E+03  0.31637080529E+03  0.12500000000E+03 0.  0.
         25    1    1    2    0    0 -0.42549040991E+02  0.96305633145E+02 -0.22398658084E+03  0.27727276149E+03  0.12500000000E+03 0.  0.
</event>
<event>
 5    0  0.5663008E-005  0.3712647E+03  0.7546771E-02  0.1054210E+00
         21   -1    0    0  502  501  0.00000000000E+00  0.00000000000E+00  0.24875689959E+03  0.24875689959E+03  0.00000000000E+00 0. -1.
         21   -1    0    0  501  502 -0.00000000000E+00 -0.00000000000E+00 -0.55410507797E+03  0.55410507797E+03  0.00000000000E+00 0. -1.
         25    1    1    2    0    0  0.12277190896E+03  0.10185070272E+03 -0.29013390472E+03  0.35390562293E+03  0.12500000000E+03 0.  0.
         25    1    1    2    0    0 -0.75693950085E+02  0.11375744338E+03  0.39823355216E+02  0.18942341361E+03  0.12500000000E+03 0.  0.
         25    1    1    2    0    0 -0.47077958873E+02 -0.21560814610E+03 -0.55037628873E+02  0.25953294101E+03  0.12500000000E+03 0.  0.
</event>
<event>
 5    0  0.5663008E-005  0.2584386E+03  0.7546771E-02  0.1108085E+00
         21   -1    0    0  502  501  0.00000000000E+00  0.00000000000E+00  0.35291204442E+03  0.35291204442E+03  0.00000000000E+00 0. -1.
         21   -1    0    0  501  502 -0.00000000000E+00 -0.00000000000E+00 -0.18925534159E+03  0.18925534159E+03  0.00000000000E+00 0. -1.
         25    1    1    2    0    0  0.16479344564E+02 -0.23268016800E+02  0.55899083173E+02  0.13986663971E+03  0.12500000000E+03 0.  0.
         25    1    1    2    0    0  0.63179542581E+02  0.86901852680E+02 -0.54402159967E+02  0.17357471477E+03  0.12500000000E+03 0.  0.
         25    1    1    2    0    0 -0.79658887146E+02 -0.63633835880E+02  0.16215977962E+03  0.22872603153E+03  0.12500000000E+03 0.  0.
</event>
<event>
 5    0  0.5663008E-005  0.2791990E+03  0.7546771E-02  0.1096127E+00
         21   -1    0    0  502  501  0.00000000000E+00  0.00000000000E+00  0.50518143255E+02  0.50518143255E+02  0.00000000000E+00 0. -1.
         21   -1    0    0  501  502 -0.00000000000E+00 -0.00000000000E+00 -0.15430509547E+04  0.15430509547E+04  0.00000000000E+00 0. -1.
         25    1    1    2    0    0 -0.79661703422E+02  0.93202061676E+02 -0.50897921184E+03  0.53825407512E+03  0.12500000000E+03 0.  0.
         25    1    1    2    0    0  0.72075043578E+02 -0.16815757355E+03 -0.72854400154E+03  0.76149402075E+03  0.12500000000E+03 0.  0.
         25    1    1    2    0    0  0.75866598436E+01  0.74955511875E+02 -0.25500959808E+03  0.29382100211E+03  0.12500000000E+03 0.  0.
</event>
<event>
 5    0  0.5663008E-005  0.3104891E+03  0.7546771E-02  0.1080112E+00
         21   -1    0    0  502  501  0.00000000000E+00  0.00000000000E+00  0.10837097552E+04  0.10837097552E+04  0.00000000000E+00 0. -1.
         21   -1    0    0  501  502 -0.00000000000E+00 -0.00000000000E+00 -0.88956939091E+02  0.88956939091E+02  0.00000000000E+00 0. -1.
         25    1    1    2    0    0 -0.16283234771E+02 -0.45229711477E+02  0.33431774785E+02  0.13803461196E+03  0.12500000000E+03 0.  0.
         25    1    1    2    0    0 -0.11410455040E+03  0.95492754908E+02  0.52066129139E+03  0.55574445118E+03  0.12500000000E+03 0.  0.
         25    1    1    2    0    0  0.13038778517E+03 -0.50263043431E+02  0.44065974996E+03  0.47888763118E+03  0.12500000000E+03 0.  0.
</event>
<event>
 5    0  0.5663008E-005  0.2880841E+03  0.7546771E-02  0.1091354E+00
         21   -1    0    0  502  501  0.00000000000E+00  0.00000000000E+00  0.91327263568E+03  0.91327263568E+03  0.00000000000E+00 0. -1.
         21   -1    0    0  501  502 -0.00000000000E+00 -0.00000000000E+00 -0.90873709420E+02  0.90873709420E+02  0.00000000000E+00 0. -1.
         25    1    1    2    0    0  0.10559089325E+03 -0.82566458515E+02  0.19608915711E+03  0.26840755270E+03  0.12500000000E+03 0.  0.
         25    1    1    2    0    0 -0.17745751818E+03  0.73751092207E+02  0.28964393230E+03  0.36939004031E+03  0.12500000000E+03 0.  0.
         25    1    1    2    0    0  0.71866624928E+02  0.88153663075E+01  0.33666583685E+03  0.36634875210E+03  0.12500000000E+03 0.  0.
</event>
<event>
 5    0  0.5663008E-005  0.2471284E+03  0.7546771E-02  0.1115133E+00
         21   -1    0    0  502  501  0.00000000000E+00  0.00000000000E+00  0.83523781674E+03  0.83523781674E+03  0.00000000000E+00 0. -1.
         21   -1    0    0  501  502 -0.00000000000E+00 -0.00000000000E+00 -0.73119815953E+02  0.73119815953E+02  0.00000000000E+00 0. -1.
         25    1    1    2    0    0 -0.21325644010E+02  0.41069514336E+02  0.44083514455E+02  0.14039175313E+03  0.12500000000E+03 0.  0.
         25    1    1    2    0    0  0.50366187407E+02 -0.26575044066E+02  0.44897739709E+03  0.46951963633E+03  0.12500000000E+03 0.  0.
         25    1    1    2    0    0 -0.29040543396E+02 -0.14494470270E+02  0.26905708924E+03  0.29844624323E+03  0.12500000000E+03 0.  0.
</event>
<event>
 5    0  0.5663008E-005  0.4388063E+03  0.7546771E-02  0.1031114E+00
         21   -1    0    0  502  501  0.00000000000E+00  0.00000000000E+00  0.26934817962E+03  0.26934817962E+03  0.00000000000E+00 0. -1.
         21   -1    0    0  501  502 -0.00000000000E+00 -0.00000000000E+00 -0.71487753454E+03  0.71487753454E+03  0.00000000000E+00 0. -1.
         25    1    1    2    0    0  0.29730456731E+03  0.59001350871E+02 -0.27417998666E+03  0.42740008216E+03  0.12500000000E+03 0.  0.
         25    1    1    2    0    0 -0.90436951934E+02 -0.15796098116E+03 -0.19499596272E+03  0.29458265279E+03  0.12500000000E+03 0.  0.
         25    1    1    2    0    0 -0.20686761537E+03  0.98959630289E+02  0.23646594462E+02  0.26224297921E+03  0.12500000000E+03 0.  0.
</event>
<event>
 5    0  0.5663008E-005  0.2870635E+03  0.7546771E-02  0.1091892E+00
         21   -1    0    0  502  501  0.00000000000E+00  0.00000000000E+00  0.38028675955E+03  0.38028675955E+03  0.00000000000E+00 0.  1.
         21   -1    0    0  501  502 -0.00000000000E+00 -0.00000000000E+00 -0.21669289672E+03  0.21669289672E+03  0.00000000000E+00 0.  1.
         25    1    1    2    0    0 -0.21474959058E+02 -0.43421651594E+02 -0.85457894492E+02  0.15898007870E+03  0.12500000000E+03 0.  0.
         25    1    1    2    0    0  0.12778974315E+03 -0.28568181637E+02  0.12973922999E+03  0.22271871779E+03  0.12500000000E+03 0.  0.
         25    1    1    2    0    0 -0.10631478409E+03  0.71989833231E+02  0.11931252734E+03  0.21528085977E+03  0.12500000000E+03 0.  0.
</event>
<event>
 5    0  0.5663008E-005  0.3247698E+03  0.7546771E-02  0.1073475E+00
         21   -1    0    0  502  501  0.00000000000E+00  0.00000000000E+00  0.15590284496E+03  0.15590284496E+03  0.00000000000E+00 0. -1.
         21   -1    0    0  501  502 -0.00000000000E+00 -0.00000000000E+00 -0.67654588249E+03  0.67654588249E+03  0.00000000000E+00 0. -1.
         25    1    1    2    0    0  0.40557168316E+02  0.10546997958E+03 -0.54596999603E+02  0.17712885948E+03  0.12500000000E+03 0.  0.
         25    1    1    2    0    0  0.15277767624E+03 -0.11764829422E+03 -0.21976099306E+03  0.31796545970E+03  0.12500000000E+03 0.  0.
         25    1    1    2    0    0 -0.19333484455E+03  0.12178314640E+02 -0.24628504486E+03  0.33735440828E+03  0.12500000000E+03 0.  0.
</event>
<event>
 5    0  0.5663008E-005  0.2589394E+03  0.7546771E-02  0.1107782E+00
         21   -1    0    0  502  501  0.00000000000E+00  0.00000000000E+00  0.53312056529E+03  0.53312056529E+03  0.00000000000E+00 0.  1.
         21   -1    0    0  501  502 -0.00000000000E+00 -0.00000000000E+00 -0.12576820100E+03  0.12576820100E+03  0.00000000000E+00 0.  1.
         25    1    1    2    0    0 -0.11077408085E+03  0.32848566078E+01  0.85023883143E+02  0.18744531997E+03  0.12500000000E+03 0.  0.
         25    1    1    2    0    0  0.11332251239E+03  0.86761590328E+02  0.18660365252E+03  0.26611179700E+03  0.12500000000E+03 0.  0.
         25    1    1    2    0    0 -0.25484315358E+01 -0.90046446935E+02  0.13572482862E+03  0.20533164932E+03  0.12500000000E+03 0.  0.
</event>
<event>
 5    0  0.5663008E-005  0.2897811E+03  0.7546771E-02  0.1090464E+00
         21   -1    0    0  502  501  0.00000000000E+00  0.00000000000E+00  0.21287244095E+03  0.21287244095E+03  0.00000000000E+00 0.  1.
         21   -1    0    0  501  502 -0.00000000000E+00 -0.00000000000E+00 -0.39447598707E+03  0.39447598707E+03  0.00000000000E+00 0.  1.
         25    1    1    2    0    0 -0.37824499916E+02 -0.19105330736E+03 -0.16070726581E+03  0.28175145843E+03  0.12500000000E+03 0.  0.
         25    1    1    2    0    0  0.28150733564E+02  0.13491972952E+03 -0.27417089170E+02  0.18807576663E+03  0.12500000000E+03 0.  0.
         25    1    1    2    0    0  0.96737663517E+01  0.56133577836E+02  0.65208088630E+01  0.13752120296E+03  0.12500000000E+03 0.  0.
</event>
<event>
 5    0  0.5663008E-005  0.3374600E+03  0.7546771E-02  0.1067883E+00
         21   -1    0    0  502  501  0.00000000000E+00  0.00000000000E+00  0.14177324352E+03  0.14177324352E+03  0.00000000000E+00 0. -1.
         21   -1    0    0  501  502 -0.00000000000E+00 -0.00000000000E+00 -0.80324934002E+03  0.80324934002E+03  0.00000000000E+00 0. -1.
         25    1    1    2    0    0 -0.41381003882E+02  0.65077474186E+02 -0.16288350901E+03  0.21932510717E+03  0.12500000000E+03 0.  0.
         25    1    1    2    0    0  0.12843436404E+03  0.16233966904E+03 -0.15847335269E+03  0.28911651202E+03  0.12500000000E+03 0.  0.
         25    1    1    2    0    0 -0.87053360156E+02 -0.22741714323E+03 -0.34011923480E+03  0.43658096435E+03  0.12500000000E+03 0.  0.
</event>
<event>
 5    0  0.5663008E-005  0.2935084E+03  0.7546771E-02  0.1088531E+00
         21   -1    0    0  502  501  0.00000000000E+00  0.00000000000E+00  0.15618923073E+04  0.15618923073E+04  0.00000000000E+00 0.  1.
         21   -1    0    0  501  502 -0.00000000000E+00 -0.00000000000E+00 -0.55155633495E+02  0.55155633495E+02  0.00000000000E+00 0.  1.
         25    1    1    2    0    0  0.20889111922E+02  0.11320901085E+03  0.24322088520E+03  0.29670529845E+03  0.12500000000E+03 0.  0.
         25    1    1    2    0    0  0.55532424066E+02 -0.10979679164E+03  0.10287148860E+04  0.10435604929E+04  0.12500000000E+03 0.  0.
         25    1    1    2    0    0 -0.76421535988E+02 -0.34122192045E+01  0.23480090255E+03  0.27678214943E+03  0.12500000000E+03 0.  0.
</event>
<event>
 5    0  0.5663008E-005  0.4684790E+03  0.7546771E-02  0.1022350E+00
         21   -1    0    0  502  501  0.00000000000E+00  0.00000000000E+00  0.15039610168E+03  0.15039610168E+03  0.00000000000E+00 0.  1.
         21   -1    0    0  501  502 -0.00000000000E+00 -0.00000000000E+00 -0.14592970396E+04  0.14592970396E+04  0.00000000000E+00 0.  1.
         25    1    1    2    0    0  0.15071851672E+03 -0.17892563343E+03 -0.19234235152E+03  0.32764467609E+03  0.12500000000E+03 0.  0.
         25    1    1    2    0    0 -0.29376923131E+03 -0.33341959444E+02 -0.76466475596E+03  0.82930647926E+03  0.12500000000E+03 0.  0.
         25    1    1    2    0    0  0.14305071458E+03  0.21226759287E+03 -0.35189383041E+03  0.45274198591E+03  0.12500000000E+03 0.  0.
</event>
<event>
 5    0  0.5663008E-005  0.3013909E+03  0.7546771E-02  0.1084547E+00
         21   -1    0    0  502  501  0.00000000000E+00  0.00000000000E+00  0.45049773497E+03  0.45049773497E+03  0.00000000000E+00 0. -1.
         21   -1    0    0  501  502 -0.00000000000E+00 -0.00000000000E+00 -0.20163581140E+03  0.20163581140E+03  0.00000000000E+00 0. -1.
         25    1    1    2    0    0  0.40068345062E+02  0.82137091505E+02 -0.49350723877E+02  0.16251913126E+03  0.12500000000E+03 0.  0.
         25    1    1    2    0    0 -0.67363420899E+02 -0.17712075609E+03  0.19913456564E+03  0.30197544262E+03  0.12500000000E+03 0.  0.
         25    1    1    2    0    0  0.27295075836E+02  0.94983664589E+02  0.99078081804E+02  0.18763897249E+03  0.12500000000E+03 0.  0.
</event>
<event>
 5    0  0.5663008E-005  0.2640395E+03  0.7546771E-02  0.1104740E+00
         21   -1    0    0  502  501  0.00000000000E+00  0.00000000000E+00  0.42397174973E+02  0.42397174973E+02  0.00000000000E+00 0.  1.
         21   -1    0    0  501  502 -0.00000000000E+00 -0.00000000000E+00 -0.16443745584E+04  0.16443745584E+04  0.00000000000E+00 0.  1.
         25    1    1    2    0    0  0.86302690197E+02 -0.44891555722E+02 -0.25074678520E+03  0.29658448442E+03  0.12500000000E+03 0.  0.
         25    1    1    2    0    0 -0.55335899483E+02 -0.25149141238E+01 -0.29576140742E+03  0.32583461554E+03  0.12500000000E+03 0.  0.
         25    1    1    2    0    0 -0.30966790713E+02  0.47406469846E+02 -0.10554691908E+04  0.10643526334E+04  0.12500000000E+03 0.  0.
</event>
<event>
 5    0  0.5663008E-005  0.6190000E+03  0.7546771E-02  0.9866753E-01
         21   -1    0    0  502  501  0.00000000000E+00  0.00000000000E+00  0.32545799623E+03  0.32545799623E+03  0.00000000000E+00 0. -1.
         21   -1    0    0  501  502 -0.00000000000E+00 -0.00000000000E+00 -0.11772980419E+04  0.11772980419E+04  0.00000000000E+00 0. -1.
         25    1    1    2    0    0  0.19485544405E+03  0.18796136597E+03 -0.81137722997E+02  0.30904117730E+03  0.12500000000E+03 0.  0.
         25    1    1    2    0    0 -0.29589133168E+01 -0.17988013718E+03  0.13643516394E+03  0.25807978007E+03  0.12500000000E+03 0.  0.
         25    1    1    2    0    0 -0.19189653073E+03 -0.80812287892E+01 -0.90713748664E+03  0.93563508080E+03  0.12500000000E+03 0.  0.
</event>
<event>
 5    0  0.5663008E-005  0.4341774E+03  0.7546771E-02  0.1032548E+00
         21   -1    0    0  502  501  0.00000000000E+00  0.00000000000E+00  0.12401575749E+04  0.12401575749E+04  0.00000000000E+00 0. -1.
         21   -1    0    0  501  502 -0.00000000000E+00 -0.00000000000E+00 -0.15200491986E+03  0.15200491986E+03  0.00000000000E+00 0. -1.
         25    1    1    2    0    0 -0.32577206637E+01  0.80008984859E+02  0.92999536731E+03  0.94176877928E+03  0.12500000000E+03 0.  0.
         25    1    1    2    0    0  0.12624347636E+03 -0.32312725888E+01 -0.32026646703E+02  0.18055072015E+03  0.12500000000E+03 0.  0.
         25    1    1    2    0    0 -0.12298575570E+03 -0.76777712270E+02  0.19018393440E+03  0.26984299530E+03  0.12500000000E+03 0.  0.
</event>
<event>
 5    0  0.5663008E-005  0.3430320E+03  0.7546771E-02  0.1065512E+00
         21   -1    0    0  502  501  0.00000000000E+00  0.00000000000E+00  0.81579801222E+02  0.81579801222E+02  0.00000000000E+00 0. -1.
         21   -1    0    0  501  502 -0.00000000000E+00 -0.00000000000E+00 -0.14424030144E+04  0.14424030144E+04  0.00000000000E+00 0. -1.
         25    1    1    2    0    0 -0.14920692372E+03 -0.70197227473E+02 -0.41161092124E+03  0.46069394104E+03  0.12500000000E+03 0.  0.
         25    1    1    2    0    0 -0.98044418300E+01 -0.11720387459E+03 -0.56417301326E+03  0.58970252178E+03  0.12500000000E+03 0.  0.
         25    1    1    2    0    0  0.15901136555E+03  0.18740110207E+03 -0.38503927863E+03  0.47358635276E+03  0.12500000000E+03 0.  0.
</event>
<event>
 5    0  0.5663008E-005  0.2490468E+03  0.7546771E-02  0.1113909E+00
         21   -1    0    0  502  501  0.00000000000E+00  0.00000000000E+00  0.78848205121E+02  0.78848205121E+02  0.00000000000E+00 0. -1.
         21   -1    0    0  501  502 -0.00000000000E+00 -0.00000000000E+00 -0.78662936758E+03  0.78662936758E+03  0.00000000000E+00 0. -1.
         25    1    1    2    0    0 -0.16895906680E+02 -0.50864773439E+02 -0.22511144887E+03  0.26300734068E+03  0.12500000000E+03 0.  0.
         25    1    1    2    0    0 -0.81036783378E+02  0.11533509735E+03 -0.27239738927E+03  0.33120157401E+03  0.12500000000E+03 0.  0.
         25    1    1    2    0    0  0.97932690059E+02 -0.64470323912E+02 -0.21027232431E+03  0.27126865801E+03  0.12500000000E+03 0.  0.
</event>
<event>
 5    0  0.5663008E-005  0.2673765E+03  0.7546771E-02  0.1102791E+00
         21   -1    0    0  502  501  0.00000000000E+00  0.00000000000E+00  0.29978729042E+03  0.29978729042E+03  0.00000000000E+00 0.  1.
         21   -1    0    0  501  502 -0.00000000000E+00 -0.00000000000E+00 -0.23846970353E+03  0.23846970353E+03  0.00000000000E+00 0.  1.
         25    1    1    2    0    0 -0.44130639483E+02 -0.16280903339E+02 -0.73999469490E+02  0.15268759818E+03  0.12500000000E+03 0.  0.
         25    1    1    2    0    0  0.15116731009E+02  0.12129914029E+03  0.13310583267E+03  0.21973656883E+03  0.12500000000E+03 0.  0.
         25    1    1    2    0    0  0.29013908473E+02 -0.10501823695E+03  0.22112237067E+01  0.16583282693E+03  0.12500000000E+03 0.  0.
</event>
<event>
 5    0  0.5663008E-005  0.3411923E+03  0.7546771E-02  0.1066289E+00
         21   -1    0    0  502  501  0.00000000000E+00  0.00000000000E+00  0.17409444700E+03  0.17409444700E+03  0.00000000000E+00 0. -1.
         21   -1    0    0  501  502 -0.00000000000E+00 -0.00000000000E+00 -0.66867263128E+03  0.66867263128E+03  0.00000000000E+00 0. -1.
         25    1    1    2    0    0 -0.79586663192E+00  0.31829329064E+02 -0.19552299476E+03  0.23423915358E+03  0.12500000000E+03 0.  0.
         25    1    1    2    0    0  0.14139493377E+03  0.16340623617E+03 -0.87143749737E+02  0.26441096504E+03  0.12500000000E+03 0.  0.
         25    1    1    2    0    0 -0.14059906714E+03 -0.19523556523E+03 -0.21191143979E+03  0.34411695966E+03  0.12500000000E+03 0.  0.
</event>
<event>
 5    0  0.5946663E-005  0.4118632E+03  0.7546771E-02  0.1039748E+00
         21   -1    0    0  502  501  0.00000000000E+00  0.00000000000E+00  0.40233888807E+03  0.40233888807E+03  0.00000000000E+00 0. -1.
         21   -1    0    0  501  502 -0.00000000000E+00 -0.00000000000E+00 -0.42161288753E+03  0.42161288753E+03  0.00000000000E+00 0. -1.
         25    1    1    2    0    0 -0.76529175678E+02 -0.21994724012E+03 -0.82190011161E+02  0.27679180100E+03  0.12500000000E+03 0.  0.
         25    1    1    2    0    0 -0.88789234291E+02  0.20882989332E+03 -0.10564148167E+03  0.27978308584E+03  0.12500000000E+03 0.  0.
         25    1    1    2    0    0  0.16531840997E+03  0.11117346792E+02  0.16855749337E+03  0.26737688877E+03  0.12500000000E+03 0.  0.
</event>
<event>
 5    0  0.5663008E-005  0.3351727E+03  0.7546771E-02  0.1068871E+00
         21   -1    0    0  502  501  0.00000000000E+00  0.00000000000E+00  0.23913157926E+03  0.23913157926E+03  0.00000000000E+00 0.  1.
         21   -1    0    0  501  502 -0.00000000000E+00 -0.00000000000E+00 -0.46978622401E+03  0.46978622401E+03  0.00000000000E+00 0.  1.
         25    1    1    2    0    0  0.10996060089E+02  0.25865359361E+03 -0.11020878607E+03  0.30788564655E+03  0.12500000000E+03 0.  0.
         25    1    1    2    0    0  0.30903676981E+02 -0.11129949022E+03 -0.13331707798E+01  0.17020396916E+03  0.12500000000E+03 0.  0.
         25    1    1    2    0    0 -0.41899737070E+02 -0.14735410339E+03 -0.11911268790E+03  0.23082818756E+03  0.12500000000E+03 0.  0.
</event>
<event>
 5    0  0.5663008E-005  0.2959882E+03  0.7546771E-02  0.1087263E+00
         21   -1    0    0  502  501  0.00000000000E+00  0.00000000000E+00  0.35224855496E+03  0.35224855496E+03  0.00000000000E+00 0. -1.
         21   -1    0    0  501  502 -0.00000000000E+00 -0.00000000000E+00 -0.24871359658E+03  0.24871359658E+03  0.00000000000E+00 0. -1.
         25    1    1    2    0    0 -0.50037299262E+02 -0.79648947245E+02  0.16305547009E+03  0.22596409547E+03  0.12500000000E+03 0.  0.
         25    1    1    2    0    0  0.82158226956E+02 -0.59480912982E+01  0.77183536122E+02  0.16842699396E+03  0.12500000000E+03 0.  0.
         25    1    1    2    0    0 -0.32120927694E+02  0.85597038544E+02 -0.13670404784E+03  0.20657106210E+03  0.12500000000E+03 0.  0.
</event>
<event>
 5    0  0.5663008E-005  0.4866279E+03  0.7546771E-02  0.1017329E+00
         21   -1    0    0  502  501  0.00000000000E+00  0.00000000000E+00  0.37710444498E+03  0.37710444498E+03  0.00000000000E+00 0. -1.
         21   -1    0    0  501  502 -0.00000000000E+00 -0.00000000000E+00 -0.62796057824E+03  0.62796057824E+03  0.00000000000E+00 0. -1.
         25    1    1    2    0    0 -0.18853874784E+03  0.25586437221E+03 -0.84999682820E+02  0.35194229994E+03  0.12500000000E+03 0.  0.
         25    1    1    2    0    0  0.25782018341E+03 -0.18431943142E+03 -0.29263955151E+03  0.44911892287E+03  0.12500000000E+03 0.  0.
         25    1    1    2    0    0 -0.69281435563E+02 -0.71544940798E+02  0.12678310107E+03  0.20400380042E+03  0.12500000000E+03 0.  0.
</event>
<event>
 5    0  0.5663008E-005  0.2745797E+03  0.7546771E-02  0.1098687E+00
         21   -1    0    0  502  501  0.00000000000E+00  0.00000000000E+00  0.35001796161E+03  0.35001796161E+03  0.00000000000E+00 0. -1.
         21   -1    0    0  501  502 -0.00000000000E+00 -0.00000000000E+00 -0.21540036461E+03  0.21540036461E+03  0.00000000000E+00 0. -1.
         25    1    1    2    0    0  0.39120006523E+02 -0.25092058259E+01  0.52946099278E+02  0.14129741842E+03  0.12500000000E+03 0.  0.
         25    1    1    2    0    0 -0.65186173599E+02 -0.11329567042E+03  0.15365072872E+03  0.23731559704E+03  0.12500000000E+03 0.  0.
         25    1    1    2    0    0  0.26066167076E+02  0.11580487625E+03 -0.71979230999E+02  0.18680531075E+03  0.12500000000E+03 0.  0.
</event>
<event>
 5    0  0.5663008E-005  0.2253046E+03  0.7546771E-02  0.1129989E+00
         21   -1    0    0  502  501  0.00000000000E+00  0.00000000000E+00  0.86811802838E+03  0.86811802838E+03  0.00000000000E+00 0.  1.
         21   -1    0    0  501  502 -0.00000000000E+00 -0.00000000000E+00 -0.58473781443E+02  0.58473781443E+02  0.00000000000E+00 0.  1.
         25    1    1    2    0    0 -0.25832861464E+02 -0.76283120142E+01  0.44125125603E+03  0.45940526643E+03  0.12500000000E+03 0.  0.
         25    1    1    2    0    0 -0.14384057520E+02  0.29926046690E+02  0.27685003893E+03  0.30557063576E+03  0.12500000000E+03 0.  0.
         25    1    1    2    0    0  0.40216918984E+02 -0.22297734676E+02  0.91542951977E+02  0.16161590764E+03  0.12500000000E+03 0.  0.
</event>
<event>
 5    0  0.5663008E-005  0.2324370E+03  0.7546771E-02  0.1124936E+00
         21   -1    0    0  502  501  0.00000000000E+00  0.00000000000E+00  0.12144419326E+04  0.12144419326E+04  0.00000000000E+00 0.  1.
         21   -1    0    0  501  502 -0.00000000000E+00 -0.00000000000E+00 -0.44487076826E+02  0.44487076826E+02  0.00000000000E+00 0.  1.
         25    1    1    2    0    0  0.39891905685E+02  0.10237361666E+02  0.41836188148E+03  0.43857477309E+03  0.12500000000E+03 0.  0.
         25    1    1    2    0    0  0.41810905993E+02  0.44779003777E+02  0.52711095867E+03  0.54518278934E+03  0.12500000000E+03 0.  0.
         25    1    1    2    0    0 -0.81702811678E+02 -0.55016365443E+02  0.22448201558E+03  0.27517144696E+03  0.12500000000E+03 0.  0.
</event>
<event>
 5    0  0.5663008E-005  0.3187804E+03  0.7546771E-02  0.1076212E+00
         21   -1    0    0  502  501  0.00000000000E+00  0.00000000000E+00  0.45269592191E+03  0.45269592191E+03  0.00000000000E+00 0. -1.
         21   -1    0    0  501  502 -0.00000000000E+00 -0.00000000000E+00 -0.22447943632E+03  0.22447943632E+03  0.00000000000E+00 0. -1.
         25    1    1    2    0    0 -0.16008699319E+02  0.13895919224E+01 -0.92413781359E+02  0.15628024957E+03  0.12500000000E+03 0.  0.
         25    1    1    2    0    0  0.66787278915E+01 -0.14213623134E+03  0.26243624243E+03  0.32364346897E+03  0.12500000000E+03 0.  0.
         25    1    1    2    0    0  0.93299714274E+01  0.14074663942E+03  0.58194024515E+02  0.19725163970E+03  0.12500000000E+03 0.  0.
</event>
<event>
 5    0  0.5663008E-005  0.4135874E+03  0.7546771E-02  0.1039174E+00
         21   -1    0    0  502  501  0.00000000000E+00  0.00000000000E+00  0.40134797716E+03  0.40134797716E+03  0.00000000000E+00 0.  1.
         21   -1    0    0  501  502 -0.00000000000E+00 -0.00000000000E+00 -0.42620008035E+03  0.42620008035E+03  0.00000000000E+00 0.  1.
         25    1    1    2    0    0  0.12074694729E+03  0.68907025122E+02 -0.28411365111E+03  0.34010817417E+03  0.12500000000E+03 0.  0.
         25    1    1    2    0    0 -0.15240284423E+03  0.82337218143E+02  0.12347656263E+03  0.24673367411E+03  0.12500000000E+03 0.  0.
         25    1    1    2    0    0  0.31655896941E+02 -0.15124424326E+03  0.13578498529E+03  0.24070620923E+03  0.12500000000E+03 0.  0.
</event>
<event>
 5    0  0.5663008E-005  0.3654684E+03  0.7546771E-02  0.1056439E+00
         21   -1    0    0  502  501  0.00000000000E+00  0.00000000000E+00  0.19605178632E+03  0.19605178632E+03  0.00000000000E+00 0. -1.
         21   -1    0    0  501  502 -0.00000000000E+00 -0.00000000000E+00 -0.68128508617E+03  0.68128508617E+03  0.00000000000E+00 0. -1.
         25    1    1    2    0    0  0.16899230462E+03  0.27674436215E+02 -0.45030766669E+03  0.49772107462E+03  0.12500000000E+03 0.  0.
         25    1    1    2    0    0 -0.14431444218E+03  0.12415407718E+02 -0.11563341422E+03  0.22355510966E+03  0.12500000000E+03 0.  0.
         25    1    1    2    0    0 -0.24677862449E+02 -0.40089843933E+02  0.80707781058E+02  0.15606068821E+03  0.12500000000E+03 0.  0.
</event>
<event>
 5    0  0.5663008E-005  0.3744268E+03  0.7546771E-02  0.1053013E+00
         21   -1    0    0  502  501  0.00000000000E+00  0.00000000000E+00  0.93097380829E+02  0.93097380829E+02  0.00000000000E+00 0. -1.
         21   -1    0    0  501  502 -0.00000000000E+00 -0.00000000000E+00 -0.15059005350E+04  0.15059005350E+04  0.00000000000E+00 0. -1.
         25    1    1    2    0    0  0.96535002757E+02 -0.19795680087E+03 -0.36701683523E+03  0.44590611020E+03  0.12500000000E+03 0.  0.
         25    1    1    2    0    0 -0.56960765837E+02 -0.61380793384E+02 -0.61721347543E+03  0.63528702560E+03  0.12500000000E+03 0.  0.
         25    1    1    2    0    0 -0.39574236919E+02  0.25933759426E+03 -0.42857284346E+03  0.51780477999E+03  0.12500000000E+03 0.  0.
</event>
<event>
 5    0  0.5663008E-005  0.2700673E+03  0.7546771E-02  0.1101241E+00
         21   -1    0    0  502  501  0.00000000000E+00  0.00000000000E+00  0.11221557535E+03  0.11221557535E+03  0.00000000000E+00 0.  1.
         21   -1    0    0  501  502 -0.00000000000E+00 -0.00000000000E+00 -0.64996638189E+03  0.64996638189E+03  0.00000000000E+00 0.  1.
         25    1    1    2    0    0 -0.33166080097E+02  0.59525123798E+02 -0.10681871816E+03  0.17798445938E+03  0.12500000000E+03 0.  0.
         25    1    1    2    0    0  0.90010989768E+02 -0.69449429978E+02 -0.41190232723E+03  0.44521200431E+03  0.12500000000E+03 0.  0.
         25    1    1    2    0    0 -0.56844909671E+02  0.99243061808E+01 -0.19029761161E+02  0.13898549355E+03  0.12500000000E+03 0.  0.
</event>
<event>
 5    0  0.5663008E-005  0.3778420E+03  0.7546771E-02  0.1051734E+00
         21   -1    0    0  502  501  0.00000000000E+00  0.00000000000E+00  0.40744873057E+03  0.40744873057E+03  0.00000000000E+00 0.  1.
         21   -1    0    0  501  502 -0.00000000000E+00 -0.00000000000E+00 -0.35038667343E+03  0.35038667343E+03  0.00000000000E+00 0.  1.
         25    1    1    2    0    0 -0.43975066350E+02 -0.79735366530E+02  0.91047941334E+02  0.17946103409E+03  0.12500000000E+03 0.  0.
         25    1    1    2    0    0 -0.21921840128E+03 -0.29295670669E+02 -0.74259154563E+02  0.26467785290E+03  0.12500000000E+03 0.  0.
         25    1    1    2    0    0  0.26319346763E+03  0.10903103720E+03  0.40273270374E+02  0.31369651701E+03  0.12500000000E+03 0.  0.
</event>
<event>
 5    0  0.5663008E-005  0.3136266E+03  0.7546771E-02  0.1078620E+00
         21   -1    0    0  502  501  0.00000000000E+00  0.00000000000E+00  0.16079301340E+03  0.16079301340E+03  0.00000000000E+00 0.  1.
         21   -1    0    0  501  502 -0.00000000000E+00 -0.00000000000E+00 -0.61172840618E+03  0.61172840618E+03  0.00000000000E+00 0.  1.
         25    1    1    2    0    0  0.72922654785E+02  0.47489142135E+02 -0.25857520337E+03  0.30009843052E+03  0.12500000000E+03 0.  0.
         25    1    1    2    0    0  0.25651758493E+02  0.10466183420E+03 -0.19071411705E+03  0.25220822091E+03  0.12500000000E+03 0.  0.
         25    1    1    2    0    0 -0.98574413277E+02 -0.15215097634E+03 -0.16460723492E+01  0.22021476814E+03  0.12500000000E+03 0.  0.
</event>
<event>
 5    0  0.5663008E-005  0.2954000E+03  0.7546771E-02  0.1087563E+00
         21   -1    0    0  502  501  0.00000000000E+00  0.00000000000E+00  0.62872926217E+03  0.62872926217E+03  0.00000000000E+00 0. -1.
         21   -1    0    0  501  502 -0.00000000000E+00 -0.00000000000E+00 -0.13878974260E+03  0.13878974260E+03  0.00000000000E+00 0. -1.
         25    1    1    2    0    0 -0.14594055071E+03 -0.19251087281E+02  0.37600875785E+03  0.42270182716E+03  0.12500000000E+03 0.  0.
         25    1    1    2    0    0  0.73192766770E+02  0.20065862087E+02 -0.20125990490E+02  0.14761394047E+03  0.12500000000E+03 0.  0.
         25    1    1    2    0    0  0.72747783944E+02 -0.81477480659E+00  0.13405675221E+03  0.19720323714E+03  0.12500000000E+03 0.  0.
</event>
<event>
 5    0  0.5663008E-005  0.2831128E+03  0.7546771E-02  0.1094001E+00
         21   -1    0    0  502  501  0.00000000000E+00  0.00000000000E+00  0.31991630884E+03  0.31991630884E+03  0.00000000000E+00 0.  1.
         21   -1    0    0  501  502 -0.00000000000E+00 -0.00000000000E+00 -0.25054326110E+03  0.25054326110E+03  0.00000000000E+00 0.  1.
         25    1    1    2    0    0  0.29281476390E+02  0.14991040246E+03 -0.28187879769E+02  0.19937424656E+03  0.12500000000E+03 0.  0.
         25    1    1    2    0    0 -0.27741560607E+02 -0.17466382129E+03  0.11025325999E+03  0.24301815980E+03  0.12500000000E+03 0.  0.
         25    1    1    2    0    0 -0.15399157830E+01  0.24753418837E+02 -0.12692332485E+02  0.12806716358E+03  0.12500000000E+03 0.  0.
</event>
<event>
 5    0  0.5663008E-005  0.2749373E+03  0.7546771E-02  0.1098487E+00
         21   -1    0    0  502  501  0.00000000000E+00  0.00000000000E+00  0.14085917346E+03  0.14085917346E+03  0.00000000000E+00 0.  1.
         21   -1    0    0  501  502 -0.00000000000E+00 -0.00000000000E+00 -0.53663909390E+03  0.53663909390E+03  0.00000000000E+00 0.  1.
         25    1    1    2    0    0  0.79178103085E+02 -0.12113954501E+03 -0.11421647159E+03  0.22274281976E+03  0.12500000000E+03 0.  0.
         25    1    1    2    0    0  0.26706829882E+02  0.50806680294E+02 -0.23200862125E+03  0.26971758167E+03  0.12500000000E+03 0.  0.
         25    1    1    2    0    0 -0.10588493297E+03  0.70332864714E+02 -0.49554827588E+02  0.18503786592E+03  0.12500000000E+03 0.  0.
</event>
<event>
 5    0  0.5663008E-005  0.3887212E+03  0.7546771E-02  0.1047757E+00
         21   -1    0    0  502  501  0.00000000000E+00  0.00000000000E+00  0.26489215047E+03  0.26489215047E+03  0.00000000000E+00 0. -1.
         21   -1    0    0  501  502 -0.00000000000E+00 -0.00000000000E+00 -0.57043669044E+03  0.57043669044E+03  0.00000000000E+00 0. -1.
         25    1    1    2    0    0 -0.93319298939E+02  0.80131408666E+02 -0.20985615563E+03  0.27348517375E+03  0.12500000000E+03 0.  0.
         25    1    1    2    0    0  0.25933996790E+03  0.63580435088E+02 -0.98543478684E+01  0.29499457427E+03  0.12500000000E+03 0.  0.
         25    1    1    2    0    0 -0.16602066896E+03 -0.14371184375E+03 -0.85834036472E+02  0.26684909289E+03  0.12500000000E+03 0.  0.
</event>
<event>
 5    0  0.5663008E-005  0.2383587E+03  0.7546771E-02  0.1120891E+00
         21   -1    0    0  502  501  0.00000000000E+00  0.00000000000E+00  0.14940077001E+04  0.14940077001E+04  0.00000000000E+00 0.  1.
         21   -1    0    0  501  502 -0.00000000000E+00 -0.00000000000E+00 -0.38028502966E+02  0.38028502966E+02  0.00000000000E+00 0.  1.
         25    1    1    2    0    0  0.81079656766E+02 -0.89788004909E+01  0.60488706723E+03  0.62303121407E+03  0.12500000000E+03 0.  0.
         25    1    1    2    0    0  0.37215356623E+02  0.37142359966E+02  0.48327837394E+03  0.50194374625E+03  0.12500000000E+03 0.  0.
         25    1    1    2    0    0 -0.11829501339E+03 -0.28163559475E+02  0.36781375591E+03  0.40706124271E+03  0.12500000000E+03 0.  0.
</event>
<event>
 5    0  0.5663008E-005  0.4974816E+03  0.7546771E-02  0.1014438E+00
         21   -1    0    0  502  501  0.00000000000E+00  0.00000000000E+00  0.52884330568E+03  0.52884330568E+03  0.00000000000E+00 0. -1.
         21   -1    0    0  501  502 -0.00000000000E+00 -0.00000000000E+00 -0.46797965695E+03  0.46797965695E+03  0.00000000000E+00 0. -1.
         25    1    1    2    0    0 -0.88097720438E+01 -0.29589054837E+03 -0.19864631455E+03  0.37777531283E+03  0.12500000000E+03 0.  0.
         25    1    1    2    0    0  0.33903692899E+02  0.38397418809E+03  0.16496567561E+03  0.43752064139E+03  0.12500000000E+03 0.  0.
         25    1    1    2    0    0 -0.25093920855E+02 -0.88083639722E+02  0.94544287679E+02  0.18152700841E+03  0.12500000000E+03 0.  0.
</event>
<event>
 5    0  0.5663008E-005  0.3764451E+03  0.7546771E-02  0.1052256E+00
         21   -1    0    0  502  501  0.00000000000E+00  0.00000000000E+00  0.17953872707E+03  0.17953872707E+03  0.00000000000E+00 0. -1.
         21   -1    0    0  501  502 -0.00000000000E+00 -0.00000000000E+00 -0.78930558466E+03  0.78930558466E+03  0.00000000000E+00 0. -1.
         25    1    1    2    0    0  0.16916856023E+03 -0.12830390693E+02  0.28586070481E+02  0.21266119562E+03  0.12500000000E+03 0.  0.
         25    1    1    2    0    0 -0.17928154735E+03  0.10329258451E+03 -0.30888030515E+03  0.39222859934E+03  0.12500000000E+03 0.  0.
         25    1    1    2    0    0  0.10112987119E+02 -0.90462193813E+02 -0.32947262292E+03  0.36395451677E+03  0.12500000000E+03 0.  0.
</event>
<event>
 5    0  0.5663008E-005  0.3977468E+03  0.7546771E-02  0.1044563E+00
         21   -1    0    0  502  501  0.00000000000E+00  0.00000000000E+00  0.13725084646E+03  0.13725084646E+03  0.00000000000E+00 0.  1.
         21   -1    0    0  501  502 -0.00000000000E+00 -0.00000000000E+00 -0.11526524217E+04  0.11526524217E+04  0.00000000000E+00 0.  1.
         25    1    1    2    0    0  0.74817934737E+02  0.13955740118E+03 -0.51330198704E+02  0.20816767492E+03  0.12500000000E+03 0.  0.
         25    1    1    2    0    0  0.96539918087E+02 -0.39272438571E+02 -0.11102264819E+03  0.19701093530E+03  0.12500000000E+03 0.  0.
         25    1    1    2    0    0 -0.17135785282E+03 -0.10028496261E+03 -0.85304872837E+03  0.88472465797E+03  0.12500000000E+03 0.  0.
</event>
<event>
 5    0  0.5663008E-005  0.3574560E+03  0.7546771E-02  0.1059596E+00
         21   -1    0    0  502  501  0.00000000000E+00  0.00000000000E+00  0.21255112707E+04  0.21255112707E+04  0.00000000000E+00 0.  1.
         21   -1    0    0  501  502 -0.00000000000E+00 -0.00000000000E+00 -0.60114850120E+02  0.60114850120E+02  0.00000000000E+00 0.  1.
         25    1    1    2    0    0  0.31357985056E+02  0.14118925158E+03  0.52435433515E+03  0.55811306810E+03  0.12500000000E+03 0.  0.
         25    1    1    2    0    0 -0.20852678771E+03  0.14673855143E+02  0.91577614314E+03  0.94761262527E+03  0.12500000000E+03 0.  0.
         25    1    1    2    0    0  0.17716880266E+03 -0.15586310673E+03  0.62526594233E+03  0.67990042750E+03  0.12500000000E+03 0.  0.
</event>
<event>
 5    0  0.5663008E-005  0.3184609E+03  0.7546771E-02  0.1076360E+00
         21   -1    0    0  502  501  0.00000000000E+00  0.00000000000E+00  0.73305196926E+03  0.73305196926E+03  0.00000000000E+00 0. -1.
         21   -1    0    0  501  502 -0.00000000000E+00 -0.00000000000E+00 -0.13834948871E+03  0.13834948871E+03  0.00000000000E+00 0. -1.
         25    1    1    2    0    0  0.97511751054E+02 -0.50145395538E+02  0.25248750493E+03  0.30232109161E+03  0.12500000000E+03 0.  0.
         25    1    1    2    0    0 -0.36830541556E+02  0.17730683135E+03  0.30659899737E+03  0.37738858809E+03  0.12500000000E+03 0.  0.
         25    1    1    2    0    0 -0.60681209498E+02 -0.12716143581E+03  0.35615978250E+02  0.19169177826E+03  0.12500000000E+03 0.  0.
</event>
<event>
 5    0  0.5663008E-005  0.2756414E+03  0.7546771E-02  0.1098094E+00
         21   -1    0    0  502  501  0.00000000000E+00  0.00000000000E+00  0.13117218874E+03  0.13117218874E+03  0.00000000000E+00 0.  1.
         21   -1    0    0  501  502 -0.00000000000E+00 -0.00000000000E+00 -0.57922480668E+03  0.57922480668E+03  0.00000000000E+00 0.  1.
         25    1    1    2    0    0 -0.54621675854E+00  0.25560358679E+02  0.31762916472E+02  0.13148198794E+03  0.12500000000E+03 0.  0.
         25    1    1    2    0    0 -0.51188309148E+02  0.73708631731E+02 -0.19572650056E+03  0.24897202334E+03  0.12500000000E+03 0.  0.
         25    1    1    2    0    0  0.51734525906E+02 -0.99268990409E+02 -0.28408903386E+03  0.32994298414E+03  0.12500000000E+03 0.  0.
</event>
<event>
 5    0  0.5663008E-005  0.2932588E+03  0.7546771E-02  0.1088660E+00
         21   -1    0    0  502  501  0.00000000000E+00  0.00000000000E+00  0.69641214522E+02  0.69641214522E+02  0.00000000000E+00 0. -1.
         21   -1    0    0  501  502 -0.00000000000E+00 -0.00000000000E+00 -0.12349110033E+04  0.12349110033E+04  0.00000000000E+00 0. -1.
         25    1    1    2    0    0 -0.17824950114E+03 -0.79835595409E+01 -0.30637945204E+03  0.37593881219E+03  0.12500000000E+03 0.  0.
         25    1    1    2    0    0  0.17740634801E+02 -0.32807364318E+02 -0.20865129905E+03  0.24607197701E+03  0.12500000000E+03 0.  0.
         25    1    1    2    0    0  0.16050886633E+03  0.40790923858E+02 -0.65023903765E+03  0.68254142858E+03  0.12500000000E+03 0.  0.
</event>
<event>
 5    0  0.5663008E-005  0.4147318E+03  0.7546771E-02  0.1038795E+00
         21   -1    0    0  502  501  0.00000000000E+00  0.00000000000E+00  0.36082046073E+03  0.36082046073E+03  0.00000000000E+00 0.  1.
         21   -1    0    0  501  502 -0.00000000000E+00 -0.00000000000E+00 -0.47669817592E+03  0.47669817592E+03  0.00000000000E+00 0.  1.
         25    1    1    2    0    0 -0.91818864011E+02 -0.23004189145E+03 -0.27908628331E+03  0.39352779971E+03  0.12500000000E+03 0.  0.
         25    1    1    2    0    0  0.53256749570E+02  0.37584911102E+02  0.15727604622E+03  0.21120999416E+03  0.12500000000E+03 0.  0.
         25    1    1    2    0    0  0.38562114441E+02  0.19245698035E+03  0.59325218984E+01  0.23278084279E+03  0.12500000000E+03 0.  0.
</event>
<event>
 5    0  0.8731124E-005  0.7645458E+03  0.7546771E-02  0.9612803E-01
         21   -1    0    0  502  501  0.00000000000E+00  0.00000000000E+00  0.13566792063E+04  0.13566792063E+04  0.00000000000E+00 0. -1.
         21   -1    0    0  501  502 -0.00000000000E+00 -0.00000000000E+00 -0.43085376144E+03  0.43085376144E+03  0.00000000000E+00 0. -1.
         25    1    1    2    0    0  0.97784473968E+02 -0.28904870845E+03 -0.20964137763E+03  0.39074987706E+03  0.12500000000E+03 0.  0.
         25    1    1    2    0    0  0.75878373408E+02  0.46914010908E+03  0.49297289511E+03  0.69605836308E+03  0.12500000000E+03 0.  0.
         25    1    1    2    0    0 -0.17366284738E+03 -0.18009140063E+03  0.64249392735E+03  0.70072472757E+03  0.12500000000E+03 0.  0.
</event>
<event>
 5    0  0.5663008E-005  0.2620576E+03  0.7546771E-02  0.1105913E+00
         21   -1    0    0  502  501  0.00000000000E+00  0.00000000000E+00  0.67134276661E+02  0.67134276661E+02  0.00000000000E+00 0. -1.
         21   -1    0    0  501  502 -0.00000000000E+00 -0.00000000000E+00 -0.10229377360E+04  0.10229377360E+04  0.00000000000E+00 0. -1.
         25    1    1    2    0    0  0.82263939027E+02  0.96526553616E+02 -0.39879504760E+03  0.43674617481E+03  0.12500000000E+03 0.  0.
         25    1    1    2    0    0  0.47563930261E+02  0.61020759960E+01 -0.20897188895E+03  0.24818100887E+03  0.12500000000E+03 0.  0.
         25    1    1    2    0    0 -0.12982786929E+03 -0.10262862961E+03 -0.34803652281E+03  0.40514482901E+03  0.12500000000E+03 0.  0.
</event>
<event>
 5    0  0.5872619E-005  0.3117247E+03  0.7546771E-02  0.1079522E+00
         21   -1    0    0  502  501  0.00000000000E+00  0.00000000000E+00  0.40579869550E+03  0.40579869550E+03  0.00000000000E+00 0. -1.
         21   -1    0    0  501  502 -0.00000000000E+00 -0.00000000000E+00 -0.23945931920E+03  0.23945931920E+03  0.00000000000E+00 0. -1.
         25    1    1    2    0    0  0.31254322640E+02  0.93525421451E+02 -0.23991831237E+02  0.16101069874E+03  0.12500000000E+03 0.  0.
         25    1    1    2    0    0 -0.15493794909E+02  0.30181482504E+01 -0.94961976872E+02  0.15777180975E+03  0.12500000000E+03 0.  0.
         25    1    1    2    0    0 -0.15760527732E+02 -0.96543569701E+02  0.28529318441E+03  0.32647550621E+03  0.12500000000E+03 0.  0.
</event>
<event>
 5    0  0.5663008E-005  0.3368767E+03  0.7546771E-02  0.1068134E+00
         21   -1    0    0  502  501  0.00000000000E+00  0.00000000000E+00  0.80358718396E+02  0.80358718396E+02  0.00000000000E+00 0.  1.
         21   -1    0    0  501  502 -0.00000000000E+00 -0.00000000000E+00 -0.14122410795E+04  0.14122410795E+04  0.00000000000E+00 0.  1.
         25    1    1    2    0    0  0.39712662303E+02 -0.83431804912E+02 -0.29058683282E+03  0.32955070782E+03  0.12500000000E+03 0.  0.
         25    1    1    2    0    0 -0.18362786920E+03 -0.98255449970E+02 -0.37712024577E+03  0.44857330233E+03  0.12500000000E+03 0.  0.
         25    1    1    2    0    0  0.14391520690E+03  0.18168725488E+03 -0.66417528252E+03  0.71447578775E+03  0.12500000000E+03 0.  0.
</event>
<event>
 5    0  0.5663008E-005  0.3164649E+03  0.7546771E-02  0.1077288E+00
         21   -1    0    0  502  501  0.00000000000E+00  0.00000000000E+00  0.16083165471E+03  0.16083165471E+03  0.00000000000E+00 0.  1.
         21   -1    0    0  501  502 -0.00000000000E+00 -0.00000000000E+00 -0.62270084765E+03  0.62270084765E+03  0.00000000000E+00 0.  1.
         25    1    1    2    0    0  0.69478497209E+01 -0.13877565268E+02 -0.15946574982E+03  0.20321216696E+03  0.12500000000E+03 0.  0.
         25    1    1    2    0    0  0.19311718204E+03  0.62224435302E+02 -0.76895335499E+02  0.25040770549E+03  0.12500000000E+03 0.  0.
         25    1    1    2    0    0 -0.20006503176E+03 -0.48346870035E+02 -0.22550810762E+03  0.32991262992E+03  0.12500000000E+03 0.  0.
</event>
<event>
 5    0  0.5663008E-005  0.5731586E+03  0.7546771E-02  0.9962713E-01
         21   -1    0    0  502  501  0.00000000000E+00  0.00000000000E+00  0.66827766593E+03  0.66827766593E+03  0.00000000000E+00 0.  1.
         21   -1    0    0  501  502 -0.00000000000E+00 -0.00000000000E+00 -0.49157830557E+03  0.49157830557E+03  0.00000000000E+00 0.  1.
         25    1    1    2    0    0  0.14382916782E+02 -0.81062795692E+02  0.17650130960E+03  0.23142116893E+03  0.12500000000E+03 0.  0.
         25    1    1    2    0    0 -0.11485628798E+03 -0.36584157060E+03 -0.15021085442E+03  0.43037230679E+03  0.12500000000E+03 0.  0.
         25    1    1    2    0    0  0.10047337120E+03  0.44690436630E+03  0.15040890519E+03  0.49806249577E+03  0.12500000000E+03 0.  0.
</event>
<event>
 5    0  0.5663008E-005  0.3035260E+03  0.7546771E-02  0.1083491E+00
         21   -1    0    0  502  501  0.00000000000E+00  0.00000000000E+00  0.87276019505E+02  0.87276019505E+02  0.00000000000E+00 0. -1.
         21   -1    0    0  501  502 -0.00000000000E+00 -0.00000000000E+00 -0.10555939830E+04  0.10555939830E+04  0.00000000000E+00 0. -1.
         25    1    1    2    0    0  0.11694744024E+03  0.94733159679E+02 -0.12978346437E+03  0.23477611238E+03  0.12500000000E+03 0.  0.
         25    1    1    2    0    0  0.27581416742E+02 -0.85415718318E+02 -0.31215720083E+03  0.34802829988E+03  0.12500000000E+03 0.  0.
         25    1    1    2    0    0 -0.14452885699E+03 -0.93174413611E+01 -0.52637729829E+03  0.56006559024E+03  0.12500000000E+03 0.  0.
</event>
<event>
 5    0  0.5663008E-005  0.5467880E+03  0.7546771E-02  0.1002240E+00
         21   -1    0    0  502  501  0.00000000000E+00  0.00000000000E+00  0.72837942180E+03  0.72837942180E+03  0.00000000000E+00 0. -1.
         21   -1    0    0  501  502 -0.00000000000E+00 -0.00000000000E+00 -0.41046898144E+03  0.41046898144E+03  0.00000000000E+00 0. -1.
         25    1    1    2    0    0  0.26641230195E+03 -0.32667059425E+03  0.31218082055E+03  0.53923191346E+03  0.12500000000E+03 0.  0.
         25    1    1    2    0    0 -0.19153188497E+03  0.37630272900E+03  0.39164839330E+02  0.44209398487E+03  0.12500000000E+03 0.  0.
         25    1    1    2    0    0 -0.74880416979E+02 -0.49632134754E+02 -0.33435219522E+02  0.15752250491E+03  0.12500000000E+03 0.  0.
</event>
<event>
 5    0  0.5663008E-005  0.2582414E+03  0.7546771E-02  0.1108204E+00
         21   -1    0    0  502  501  0.00000000000E+00  0.00000000000E+00  0.27947556965E+03  0.27947556965E+03  0.00000000000E+00 0. -1.
         21   -1    0    0  501  502 -0.00000000000E+00 -0.00000000000E+00 -0.23862055051E+03  0.23862055051E+03  0.00000000000E+00 0. -1.
         25    1    1    2    0    0 -0.12367395057E+03 -0.40268509321E+02  0.35182480440E+02  0.18379228989E+03  0.12500000000E+03 0.  0.
         25    1    1    2    0    0  0.15044991345E+03  0.34681463365E+02  0.38163529947E+02  0.20228552933E+03  0.12500000000E+03 0.  0.
         25    1    1    2    0    0 -0.26775962876E+02  0.55870459559E+01 -0.32490991253E+02  0.13201830094E+03  0.12500000000E+03 0.  0.
</event>
<event>
 5    0  0.5663008E-005  0.3381288E+03  0.7546771E-02  0.1067596E+00
         21   -1    0    0  502  501  0.00000000000E+00  0.00000000000E+00  0.13004983537E+04  0.13004983537E+04  0.00000000000E+00 0.  1.
         21   -1    0    0  501  502 -0.00000000000E+00 -0.00000000000E+00 -0.87913267001E+02  0.87913267001E+02  0.00000000000E+00 0.  1.
         25    1    1    2    0    0 -0.24812314640E+02  0.14888865083E+03  0.17589862265E+03  0.26334161607E+03  0.12500000000E+03 0.  0.
         25    1    1    2    0    0 -0.51741392019E+02 -0.21119087534E+03  0.81061392798E+03  0.84852737004E+03  0.12500000000E+03 0.  0.
         25    1    1    2    0    0  0.76553706658E+02  0.62302224515E+02  0.22607253607E+03  0.27654263459E+03  0.12500000000E+03 0.  0.
</event>
<event>
 5    0  0.5663008E-005  0.2343236E+03  0.7546771E-02  0.1123633E+00
         21   -1    0    0  502  501  0.00000000000E+00  0.00000000000E+00  0.34592909338E+02  0.34592909338E+02  0.00000000000E+00 0.  1.
         21   -1    0    0  501  502 -0.00000000000E+00 -0.00000000000E+00 -0.15872486221E+04  0.15872486221E+04  0.00000000000E+00 0.  1.
         25    1    1    2    0    0 -0.22328784822E+02 -0.62921901161E+02 -0.35366513086E+03  0.38100100402E+03  0.12500000000E+03 0.  0.
         25    1    1    2    0    0 -0.28451406603E+02 -0.13760464455E+02 -0.83863983328E+03  0.84849313662E+03  0.12500000000E+03 0.  0.
         25    1    1    2    0    0  0.50780191424E+02  0.76682365616E+02 -0.36035074862E+03  0.39234739080E+03  0.12500000000E+03 0.  0.
</event>
<event>
 5    0  0.5663008E-005  0.5699824E+03  0.7546771E-02  0.9969717E-01
         21   -1    0    0  502  501  0.00000000000E+00  0.00000000000E+00  0.39622839743E+03  0.39622839743E+03  0.00000000000E+00 0. -1.
         21   -1    0    0  501  502 -0.00000000000E+00 -0.00000000000E+00 -0.81993108774E+03  0.81993108774E+03  0.00000000000E+00 0. -1.
         25    1    1    2    0    0 -0.30825996718E+03 -0.16585562348E+02  0.22204547706E+03  0.40028550077E+03  0.12500000000E+03 0.  0.
         25    1    1    2    0    0  0.20289155715E+03  0.60663117327E+02 -0.58737281945E+03  0.63677062338E+03  0.12500000000E+03 0.  0.
         25    1    1    2    0    0  0.10536841003E+03 -0.44077554978E+02 -0.58375347919E+02  0.17910336102E+03  0.12500000000E+03 0.  0.
</event>
<event>
 5    0  0.5663008E-005  0.3394531E+03  0.7546771E-02  0.1067029E+00
         21   -1    0    0  502  501  0.00000000000E+00  0.00000000000E+00  0.43667783148E+04  0.43667783148E+04  0.00000000000E+00 0. -1.
         21   -1    0    0  501  502 -0.00000000000E+00 -0.00000000000E+00 -0.26387509066E+02  0.26387509066E+02  0.00000000000E+00 0. -1.
         25    1    1    2    0    0 -0.16073557101E+03 -0.22277514355E+02  0.86148243516E+03  0.88549940572E+03  0.12500000000E+03 0.  0.
         25    1    1    2    0    0  0.11879105443E+03  0.66398570956E+01  0.56575556218E+03  0.59148944070E+03  0.12500000000E+03 0.  0.
         25    1    1    2    0    0  0.41944516582E+02  0.15637657259E+02  0.29131528084E+04  0.29161769774E+04  0.12500000000E+03 0.  0.
</event>
<event>
 5    0  0.5663008E-005  0.2369149E+03  0.7546771E-02  0.1121865E+00
         21   -1    0    0  502  501  0.00000000000E+00  0.00000000000E+00  0.12288848818E+04  0.12288848818E+04  0.00000000000E+00 0.  1.
         21   -1    0    0  501  502 -0.00000000000E+00 -0.00000000000E+00 -0.45674484251E+02  0.45674484251E+02  0.00000000000E+00 0.  1.
         25    1    1    2    0    0  0.87881127686E+02 -0.20057509198E+02  0.53957761128E+03  0.56115451961E+03  0.12500000000E+03 0.  0.
         25    1    1    2    0    0 -0.96702175529E+02  0.55187114836E+02  0.26922606592E+03  0.31702460940E+03  0.12500000000E+03 0.  0.
         25    1    1    2    0    0  0.88210478425E+01 -0.35129605638E+02  0.37440672035E+03  0.39638023705E+03  0.12500000000E+03 0.  0.
</event>
<event>
 5    0  0.5663008E-005  0.3246682E+03  0.7546771E-02  0.1073521E+00
         21   -1    0    0  502  501  0.00000000000E+00  0.00000000000E+00  0.24579521184E+04  0.24579521184E+04  0.00000000000E+00 0. -1.
         21   -1    0    0  501  502 -0.00000000000E+00 -0.00000000000E+00 -0.42885078114E+02  0.42885078114E+02  0.00000000000E+00 0. -1.
         25    1    1    2    0    0 -0.11395938465E+03 -0.13622117730E+03  0.47908714239E+03  0.52601562762E+03  0.12500000000E+03 0.  0.
         25    1    1    2    0    0 -0.32455084425E+02  0.40724497523E+02  0.12142452328E+04  0.12217726067E+04  0.12500000000E+03 0.  0.
         25    1    1    2    0    0  0.14641446907E+03  0.95496679780E+02  0.72173466508E+03  0.75304896214E+03  0.12500000000E+03 0.  0.
</event>
<event>
 5    0  0.6094042E-005  0.2893396E+03  0.7546771E-02  0.1090694E+00
         21   -1    0    0  502  501  0.00000000000E+00  0.00000000000E+00  0.88677119588E+03  0.88677119588E+03  0.00000000000E+00 0.  1.
         21   -1    0    0  501  502 -0.00000000000E+00 -0.00000000000E+00 -0.94407007637E+02  0.94407007637E+02  0.00000000000E+00 0.  1.
         25    1    1    2    0    0 -0.12954375963E+03  0.41059007830E+02  0.82044870878E+02  0.20204897579E+03  0.12500000000E+03 0.  0.
         25    1    1    2    0    0  0.11697827730E+03 -0.67037239586E+02  0.33006056966E+03  0.37781329846E+03  0.12500000000E+03 0.  0.
         25    1    1    2    0    0  0.12565482328E+02  0.25978231756E+02  0.38025874770E+03  0.40131592926E+03  0.12500000000E+03 0.  0.
</event>
<event>
 5    0  0.5663008E-005  0.5011570E+03  0.7546771E-02  0.1013477E+00
         21   -1    0    0  502  501  0.00000000000E+00  0.00000000000E+00  0.59283110660E+03  0.59283110660E+03  0.00000000000E+00 0. -1.
         21   -1    0    0  501  502 -0.00000000000E+00 -0.00000000000E+00 -0.42365920263E+03  0.42365920263E+03  0.00000000000E+00 0. -1.
         25    1    1    2    0    0  0.17048084496E+03 -0.21214934356E+03 -0.27084162619E+03  0.40379604870E+03  0.12500000000E+03 0.  0.
         25    1    1    2    0    0 -0.10897139790E+03  0.14170487180E+03  0.10288468656E+03  0.24117482244E+03  0.12500000000E+03 0.  0.
         25    1    1    2    0    0 -0.61509447055E+02  0.70444471762E+02  0.33712884361E+03  0.37151943808E+03  0.12500000000E+03 0.  0.
</event>
<event>
 5    0  0.5663008E-005  0.3695654E+03  0.7546771E-02  0.1054859E+00
         21   -1    0    0  502  501  0.00000000000E+00  0.00000000000E+00  0.58286424968E+03  0.58286424968E+03  0.00000000000E+00 0.  1.
         21   -1    0    0  501  502 -0.00000000000E+00 -0.00000000000E+00 -0.23432310995E+03  0.23432310995E+03  0.00000000000E+00 0.  1.
         25    1    1    2    0    0 -0.13537678777E+02  0.11636148747E+02 -0.76932235834E+02  0.14785884355E+03  0.12500000000E+03 0.  0.
         25    1    1    2    0    0  0.20338669559E+03 -0.11643652727E+03  0.23744063200E+03  0.35626768945E+03  0.12500000000E+03 0.  0.
         25    1    1    2    0    0 -0.18984901681E+03  0.10480037852E+03  0.18803274356E+03  0.31306082664E+03  0.12500000000E+03 0.  0.
</event>
<event>
 5    0  0.5663008E-005  0.2189337E+03  0.7546771E-02  0.1134681E+00
         21   -1    0    0  502  501  0.00000000000E+00  0.00000000000E+00  0.97365561408E+03  0.97365561408E+03  0.00000000000E+00 0.  1.
         21   -1    0    0  501  502 -0.00000000000E+00 -0.00000000000E+00 -0.49228860956E+02  0.49228860956E+02  0.00000000000E+00 0.  1.
         25    1    1    2    0    0  0.41175204534E+02  0.44392804193E+02  0.41523649656E+03  0.43784982198E+03  0.12500000000E+03 0.  0.
         25    1    1    2    0    0  0.30870286126E+02 -0.61632812150E+02  0.24795030531E+03  0.28610475704E+03  0.12500000000E+03 0.  0.
         25    1    1    2    0    0 -0.72045490660E+02  0.17240007956E+02  0.26123995124E+03  0.29892989600E+03  0.12500000000E+03 0.  0.
</event>
<event>
 5    0  0.5663008E-005  0.3084960E+03  0.7546771E-02  0.1081069E+00
         21   -1    0    0  502  501  0.00000000000E+00  0.00000000000E+00  0.14489471509E+04  0.14489471509E+04  0.00000000000E+00 0. -1.
         21   -1    0    0  501  502 -0.00000000000E+00 -0.00000000000E+00 -0.65682009061E+02  0.65682009061E+02  0.00000000000E+00 0. -1.
         25    1    1    2    0    0  0.15927336914E+03  0.96747400971E+02  0.80520997559E+03  0.83589243955E+03  0.12500000000E+03 0.  0.
         25    1    1    2    0    0 -0.85408099091E+01 -0.87853127728E+02  0.31969658146E+03  0.35443197046E+03  0.12500000000E+03 0.  0.
         25    1    1    2    0    0 -0.15073255923E+03 -0.88942732434E+01  0.25835858479E+03  0.32430474995E+03  0.12500000000E+03 0.  0.
</event>
<event>
 5    0  0.5663008E-005  0.3273177E+03  0.7546771E-02  0.1072330E+00
         21   -1    0    0  502  501  0.00000000000E+00  0.00000000000E+00  0.15137028962E+04  0.15137028962E+04  0.00000000000E+00 0. -1.
         21   -1    0    0  501  502 -0.00000000000E+00 -0.00000000000E+00 -0.70778016423E+02  0.70778016423E+02  0.00000000000E+00 0. -1.
         25    1    1    2    0    0  0.81090398483E+02 -0.15183529447E+03  0.47549363789E+03  0.52091151749E+03  0.12500000000E+03 0.  0.
         25    1    1    2    0    0  0.38443728392E+02  0.28724415162E+02  0.74171044253E+03  0.75369913947E+03  0.12500000000E+03 0.  0.
         25    1    1    2    0    0 -0.11953412688E+03  0.12311087931E+03  0.22572079938E+03  0.30987025569E+03  0.12500000000E+03 0.  0.
</event>
<event>
 5    0  0.5663008E-005  0.2258105E+03  0.7546771E-02  0.1129624E+00
         21   -1    0    0  502  501  0.00000000000E+00  0.00000000000E+00  0.12943497354E+04  0.12943497354E+04  0.00000000000E+00 0.  1.
         21   -1    0    0  501  502 -0.00000000000E+00 -0.00000000000E+00 -0.39394607557E+02  0.39394607557E+02  0.00000000000E+00 0.  1.
         25    1    1    2    0    0 -0.58161178003E+02 -0.24820779913E+02  0.37953132091E+03  0.40455879338E+03  0.12500000000E+03 0.  0.
         25    1    1    2    0    0  0.55551307335E+02  0.79255806475E+02  0.61770240137E+03  0.63761170572E+03  0.12500000000E+03 0.  0.
         25    1    1    2    0    0  0.26098706686E+01 -0.54435026562E+02  0.25772140552E+03  0.29157384383E+03  0.12500000000E+03 0.  0.
</event>
<event>
 5    0  0.5663008E-005  0.2270889E+03  0.7546771E-02  0.1128706E+00
         21   -1    0    0  502  501  0.00000000000E+00  0.00000000000E+00  0.14616241566E+03  0.14616241566E+03  0.00000000000E+00 0.  1.
         21   -1    0    0  501  502 -0.00000000000E+00 -0.00000000000E+00 -0.35282243917E+03  0.35282243917E+03  0.00000000000E+00 0.  1.
         25    1    1    2    0    0 -0.14298271919E+02 -0.34289649886E+02  0.13962550730E+02  0.13114943192E+03  0.12500000000E+03 0.  0.
         25    1    1    2    0    0  0.37715808780E+02 -0.41808509542E+01 -0.19150388690E+03  0.23181609186E+03  0.12500000000E+03 0.  0.
         25    1    1    2    0    0 -0.23417536860E+02  0.38470500840E+02 -0.29118687336E+02  0.13601933105E+03  0.12500000000E+03 0.  0.
</event>
<event>
 5    0  0.5663008E-005  0.3880202E+03  0.7546771E-02  0.1048009E+00
         21   -1    0    0  502  501  0.00000000000E+00  0.00000000000E+00  0.10309176633E+03  0.10309176633E+03  0.00000000000E+00 0. -1.
         21   -1    0    0  501  502 -0.00000000000E+00 -0.00000000000E+00 -0.14604429225E+04  0.14604429225E+04  0.00000000000E+00 0. -1.
         25    1    1    2    0    0  0.15217107713E+03 -0.10510031260E+02 -0.71291279410E+02  0.20969965186E+03  0.12500000000E+03 0.  0.
         25    1    1    2    0    0  0.18437506509E+02 -0.11736912457E+03 -0.44631886804E+03  0.47847777902E+03  0.12500000000E+03 0.  0.
         25    1    1    2    0    0 -0.17060858364E+03  0.12787915583E+03 -0.83974100873E+03  0.87535725795E+03  0.12500000000E+03 0.  0.
</event>
<event>
 5    0  0.5663008E-005  0.3843193E+03  0.7546771E-02  0.1049349E+00
         21   -1    0    0  502  501  0.00000000000E+00  0.00000000000E+00  0.11888184472E+03  0.11888184472E+03  0.00000000000E+00 0. -1.
         21   -1    0    0  501  502 -0.00000000000E+00 -0.00000000000E+00 -0.12424210168E+04  0.12424210168E+04  0.00000000000E+00 0. -1.
         25    1    1    2    0    0  0.14313526804E+03 -0.13015586233E+03 -0.75199836442E+03  0.78648254497E+03  0.12500000000E+03 0.  0.
         25    1    1    2    0    0 -0.89564842557E+01 -0.91343617945E+01  0.13286256653E+02  0.12635339248E+03  0.12500000000E+03 0.  0.
         25    1    1    2    0    0 -0.13417878378E+03  0.13929022413E+03 -0.38482706430E+03  0.44846692406E+03  0.12500000000E+03 0.  0.
</event>
<event>
 5    0  0.5663008E-005  0.2144261E+03  0.7546771E-02  0.1138108E+00
         21   -1    0    0  502  501  0.00000000000E+00  0.00000000000E+00  0.53653073382E+03  0.53653073382E+03  0.00000000000E+00 0.  1.
         21   -1    0    0  501  502 -0.00000000000E+00 -0.00000000000E+00 -0.85696056646E+02  0.85696056646E+02  0.00000000000E+00 0.  1.
         25    1    1    2    0    0 -0.63105850215E+02 -0.16380122473E+02  0.19879330786E+03  0.24370973718E+03  0.12500000000E+03 0.  0.
         25    1    1    2    0    0  0.72022194155E+02  0.94555886321E+00  0.79535560126E+02  0.16473917523E+03  0.12500000000E+03 0.  0.
         25    1    1    2    0    0 -0.89163439399E+01  0.15434563610E+02  0.17250580918E+03  0.21377787805E+03  0.12500000000E+03 0.  0.
</event>
<event>
 5    0  0.5663008E-005  0.2945971E+03  0.7546771E-02  0.1087973E+00
         21   -1    0    0  502  501  0.00000000000E+00  0.00000000000E+00  0.77634990983E+02  0.77634990983E+02  0.00000000000E+00 0.  1.
         21   -1    0    0  501  502 -0.00000000000E+00 -0.00000000000E+00 -0.11178909832E+04  0.11178909832E+04  0.00000000000E+00 0.  1.
         25    1    1    2    0    0 -0.11243744832E+02  0.14528132727E+03 -0.28308704507E+03  0.34204730803E+03  0.12500000000E+03 0.  0.
         25    1    1    2    0    0  0.13725440797E+01  0.12591907941E+02 -0.84915550164E+02  0.15164461970E+03  0.12500000000E+03 0.  0.
         25    1    1    2    0    0  0.98712007522E+01 -0.15787323521E+03 -0.67225339697E+03  0.70183404643E+03  0.12500000000E+03 0.  0.
</event>
<event>
 5    0  0.5663008E-005  0.3167919E+03  0.7546771E-02  0.1077135E+00
         21   -1    0    0  502  501  0.00000000000E+00  0.00000000000E+00  0.92290580779E+02  0.92290580779E+02  0.00000000000E+00 0. -1.
         21   -1    0    0  501  502 -0.00000000000E+00 -0.00000000000E+00 -0.10874037458E+04  0.10874037458E+04  0.00000000000E+00 0. -1.
         25    1    1    2    0    0  0.49673112292E+02 -0.99129357967E+02 -0.40049483422E+03  0.43395294668E+03  0.12500000000E+03 0.  0.
         25    1    1    2    0    0 -0.29908460035E+02 -0.10318842443E+03 -0.90602663237E+02  0.18808564407E+03  0.12500000000E+03 0.  0.
         25    1    1    2    0    0 -0.19764652257E+02  0.20231778240E+03 -0.50401566754E+03  0.55765573581E+03  0.12500000000E+03 0.  0.
</event>
<event>
 5    0  0.5663008E-005  0.2752899E+03  0.7546771E-02  0.1098290E+00
         21   -1    0    0  502  501  0.00000000000E+00  0.00000000000E+00  0.36341303588E+02  0.36341303588E+02  0.00000000000E+00 0.  1.
         21   -1    0    0  501  502 -0.00000000000E+00 -0.00000000000E+00 -0.20853556725E+04  0.20853556725E+04  0.00000000000E+00 0.  1.
         25    1    1    2    0    0 -0.14384226266E+03  0.42101245338E+02 -0.59809972205E+03  0.62913542970E+03  0.12500000000E+03 0.  0.
         25    1    1    2    0    0  0.27828181566E+02  0.63867401523E+02 -0.74640628267E+03  0.76000052071E+03  0.12500000000E+03 0.  0.
         25    1    1    2    0    0  0.11601408109E+03 -0.10596864686E+03 -0.70450836415E+03  0.73256102564E+03  0.12500000000E+03 0.  0.
</event>
<event>
 5    0  0.5663008E-005  0.4048129E+03  0.7546771E-02  0.1042126E+00
         21   -1    0    0  502  501  0.00000000000E+00  0.00000000000E+00  0.24792094469E+03  0.24792094469E+03  0.00000000000E+00 0.  1.
         21   -1    0    0  501  502 -0.00000000000E+00 -0.00000000000E+00 -0.66099084345E+03  0.66099084345E+03  0.00000000000E+00 0.  1.
         25    1    1    2    0    0 -0.93984114639E+02  0.11144153748E+03 -0.97380452382E+02  0.21531414860E+03  0.12500000000E+03 0.  0.
         25    1    1    2    0    0 -0.20019377502E+03 -0.13449017195E+03 -0.47598008829E+02  0.27578202326E+03  0.12500000000E+03 0.  0.
         25    1    1    2    0    0  0.29417788966E+03  0.23048634474E+02 -0.26809143755E+03  0.41781561627E+03  0.12500000000E+03 0.  0.
</event>
<event>
 5    0  0.5663008E-005  0.3467875E+03  0.7546771E-02  0.1063941E+00
         21   -1    0    0  502  501  0.00000000000E+00  0.00000000000E+00  0.30267296087E+03  0.30267296087E+03  0.00000000000E+00 0. -1.
         21   -1    0    0  501  502 -0.00000000000E+00 -0.00000000000E+00 -0.39733171998E+03  0.39733171998E+03  0.00000000000E+00 0. -1.
         25    1    1    2    0    0  0.10202637261E+03 -0.11949267883E+03 -0.63763468345E+02  0.21066243352E+03  0.12500000000E+03 0.  0.
         25    1    1    2    0    0 -0.93782267552E+02 -0.17969628420E+02 -0.18853763994E+03  0.24553912708E+03  0.12500000000E+03 0.  0.
         25    1    1    2    0    0 -0.82441050597E+01  0.13746230725E+03  0.15764234918E+03  0.24380312024E+03  0.12500000000E+03 0.  0.
</event>
<event>
 5    0  0.5663008E-005  0.3911786E+03  0.7546771E-02  0.1046878E+00
         21   -1    0    0  502  501  0.00000000000E+00  0.00000000000E+00  0.67995036587E+03  0.67995036587E+03  0.00000000000E+00 0. -1.
         21   -1    0    0  501  502 -0.00000000000E+00 -0.00000000000E+00 -0.22504690254E+03  0.22504690254E+03  0.00000000000E+00 0. -1.
         25    1    1    2    0    0 -0.12680505299E+03 -0.11114634677E+03  0.41969843433E+03  0.46925985088E+03  0.12500000000E+03 0.  0.
         25    1    1    2    0    0  0.10769169705E+03  0.21435570967E+03  0.10976732263E+02  0.27072377165E+03  0.12500000000E+03 0.  0.
         25    1    1    2    0    0  0.19113355933E+02 -0.10320936290E+03  0.24228296731E+02  0.16501364589E+03  0.12500000000E+03 0.  0.
</event>
<event>
 5    0  0.5663008E-005  0.3195859E+03  0.7546771E-02  0.1075840E+00
         21   -1    0    0  502  501  0.00000000000E+00  0.00000000000E+00  0.15497859717E+04  0.15497859717E+04  0.00000000000E+00 0.  1.
         21   -1    0    0  501  502 -0.00000000000E+00 -0.00000000000E+00 -0.65902752679E+02  0.65902752679E+02  0.00000000000E+00 0.  1.
         25    1    1    2    0    0  0.32703978908E+02  0.48692600001E+02  0.65592005798E+03  0.67029593613E+03  0.12500000000E+03 0.  0.
         25    1    1    2    0    0 -0.15080526926E+03 -0.11591667163E+03  0.65100739911E+03  0.68964812600E+03  0.12500000000E+03 0.  0.
         25    1    1    2    0    0  0.11810129035E+03  0.67224071625E+02  0.17695576192E+03  0.25574466224E+03  0.12500000000E+03 0.  0.
</event>
<event>
 5    0  0.5663008E-005  0.2549791E+03  0.7546771E-02  0.1110198E+00
         21   -1    0    0  502  501  0.00000000000E+00  0.00000000000E+00  0.99383531603E+03  0.99383531603E+03  0.00000000000E+00 0. -1.
         21   -1    0    0  501  502 -0.00000000000E+00 -0.00000000000E+00 -0.65417632046E+02  0.65417632046E+02  0.00000000000E+00 0. -1.
         25    1    1    2    0    0 -0.19787972604E+02 -0.11509349163E+03  0.57390466952E+03  0.59885694901E+03  0.12500000000E+03 0.  0.
         25    1    1    2    0    0  0.26216268344E+02  0.23656909698E+02  0.21841599369E+03  0.25412101133E+03  0.12500000000E+03 0.  0.
         25    1    1    2    0    0 -0.64282957401E+01  0.91436581933E+02  0.13609702078E+03  0.20627498774E+03  0.12500000000E+03 0.  0.
</event>
<event>
 5    0  0.5663008E-005  0.2634611E+03  0.7546771E-02  0.1105081E+00
         21   -1    0    0  502  501  0.00000000000E+00  0.00000000000E+00  0.53911690492E+02  0.53911690492E+02  0.00000000000E+00 0. -1.
         21   -1    0    0  501  502 -0.00000000000E+00 -0.00000000000E+00 -0.12875078704E+04  0.12875078704E+04  0.00000000000E+00 0. -1.
         25    1    1    2    0    0 -0.64270068693E+02 -0.11034170748E+02 -0.27062417580E+03  0.30514724180E+03  0.12500000000E+03 0.  0.
         25    1    1    2    0    0  0.24921445810E+02 -0.11951345132E+03 -0.29213833775E+03  0.34040321956E+03  0.12500000000E+03 0.  0.
         25    1    1    2    0    0  0.39348622883E+02  0.13054762206E+03 -0.67083366638E+03  0.69586909954E+03  0.12500000000E+03 0.  0.
</event>
<event>
 5    0  0.5663008E-005  0.2295826E+03  0.7546771E-02  0.1126934E+00
         21   -1    0    0  502  501  0.00000000000E+00  0.00000000000E+00  0.78957817113E+03  0.78957817113E+03  0.00000000000E+00 0.  1.
         21   -1    0    0  501  502 -0.00000000000E+00 -0.00000000000E+00 -0.66754854755E+02  0.66754854755E+02  0.00000000000E+00 0.  1.
         25    1    1    2    0    0 -0.39267544297E+02  0.44179853541E+01  0.43339600457E+03  0.45278974746E+03  0.12500000000E+03 0.  0.
         25    1    1    2    0    0  0.52877897911E+02  0.48554026924E+02  0.16206430065E+03  0.21689491272E+03  0.12500000000E+03 0.  0.
         25    1    1    2    0    0 -0.13610353614E+02 -0.52972012278E+02  0.12736301116E+03  0.18664836571E+03  0.12500000000E+03 0.  0.
</event>
<event>
 5    0  0.5663008E-005  0.3343425E+03  0.7546771E-02  0.1069231E+00
         21   -1    0    0  502  501  0.00000000000E+00  0.00000000000E+00  0.12915788801E+03  0.12915788801E+03  0.00000000000E+00 0.  1.
         21   -1    0    0  501  502 -0.00000000000E+00 -0.00000000000E+00 -0.86549017822E+03  0.86549017822E+03  0.00000000000E+00 0.  1.
         25    1    1    2    0    0  0.13566717314E+03  0.89262776324E+02 -0.20433384823E+03  0.28939721256E+03  0.12500000000E+03 0.  0.
         25    1    1    2    0    0 -0.17432066488E+03  0.94934307353E+00 -0.49869658461E+03  0.54287372284E+03  0.12500000000E+03 0.  0.
         25    1    1    2    0    0  0.38653491734E+02 -0.90212119398E+02 -0.33301857369E+02  0.16237713082E+03  0.12500000000E+03 0.  0.
</event>
<event>
 5    0  0.5663008E-005  0.2729856E+03  0.7546771E-02  0.1099583E+00
         21   -1    0    0  502  501  0.00000000000E+00  0.00000000000E+00  0.63288742708E+03  0.63288742708E+03  0.00000000000E+00 0.  1.
         21   -1    0    0  501  502 -0.00000000000E+00 -0.00000000000E+00 -0.11774789662E+03  0.11774789662E+03  0.00000000000E+00 0.  1.
         25    1    1    2    0    0  0.27253850964E+02 -0.55177944825E+02  0.45484170223E+02  0.14656461963E+03  0.12500000000E+03 0.  0.
         25    1    1    2    0    0  0.14655562429E+02  0.30215475816E+02  0.15320673710E+02  0.13033604080E+03  0.12500000000E+03 0.  0.
         25    1    1    2    0    0 -0.41909413394E+02  0.24962469009E+02  0.45433468653E+03  0.47373466326E+03  0.12500000000E+03 0.  0.
</event>
<event>
 5    0  0.5663008E-005  0.3165056E+03  0.7546771E-02  0.1077269E+00
         21   -1    0    0  502  501  0.00000000000E+00  0.00000000000E+00  0.63881165397E+02  0.63881165397E+02  0.00000000000E+00 0. -1.
         21   -1    0    0  501  502 -0.00000000000E+00 -0.00000000000E+00 -0.15681586854E+04  0.15681586854E+04  0.00000000000E+00 0. -1.
         25    1    1    2    0    0  0.75739635560E+02  0.91809420256E+02 -0.39309046818E+03  0.42931407876E+03  0.12500000000E+03 0.  0.
         25    1    1    2    0    0  0.12969492612E+03  0.39101082189E+02 -0.50449010652E+03  0.53710793707E+03  0.12500000000E+03 0.  0.
         25    1    1    2    0    0 -0.20543456168E+03 -0.13091050245E+03 -0.60669694528E+03  0.66561783494E+03  0.12500000000E+03 0.  0.
</event>
<event>
 5    0  0.5663008E-005  0.3319736E+03  0.7546771E-02  0.1070267E+00
         21   -1    0    0  502  501  0.00000000000E+00  0.00000000000E+00  0.20033576814E+03  0.20033576814E+03  0.00000000000E+00 0.  1.
         21   -1    0    0  501  502 -0.00000000000E+00 -0.00000000000E+00 -0.55010866972E+03  0.55010866972E+03  0.00000000000E+00 0. -1.
         25    1    1    2    0    0  0.11316022193E+03 -0.10681392079E+03 -0.32504314526E+03  0.38143478575E+03  0.12500000000E+03 0.  0.
         25    1    1    2    0    0  0.48764045383E+02  0.11930283283E+02 -0.46412623115E+02  0.14247594662E+03  0.12500000000E+03 0.  0.
         25    1    1    2    0    0 -0.16192426731E+03  0.94883637505E+02  0.21682866796E+02  0.22653370549E+03  0.12500000000E+03 0.  0.
</event>
<event>
 5    0  0.5663008E-005  0.3031780E+03  0.7546771E-02  0.1083663E+00
         21   -1    0    0  502  501  0.00000000000E+00  0.00000000000E+00  0.21543639677E+03  0.21543639677E+03  0.00000000000E+00 0. -1.
         21   -1    0    0  501  502 -0.00000000000E+00 -0.00000000000E+00 -0.42665456810E+03  0.42665456810E+03  0.00000000000E+00 0. -1.
         25    1    1    2    0    0  0.10828801379E+03  0.17673027775E+03 -0.12684009089E+03  0.27326414631E+03  0.12500000000E+03 0.  0.
         25    1    1    2    0    0 -0.59558778557E+02 -0.16155320355E+03 -0.95764996893E+02  0.23332942445E+03  0.12500000000E+03 0.  0.
         25    1    1    2    0    0 -0.48729235229E+02 -0.15177074194E+02  0.11386916454E+02  0.13549739412E+03  0.12500000000E+03 0.  0.
</event>
<event>
 5    0  0.5663008E-005  0.3671412E+03  0.7546771E-02  0.1055791E+00
         21   -1    0    0  502  501  0.00000000000E+00  0.00000000000E+00  0.11644078494E+03  0.11644078494E+03  0.00000000000E+00 0.  1.
         21   -1    0    0  501  502 -0.00000000000E+00 -0.00000000000E+00 -0.11576068373E+04  0.11576068373E+04  0.00000000000E+00 0.  1.
         25    1    1    2    0    0  0.96672657799E+01  0.92030951793E+02 -0.48404383691E+03  0.50841576310E+03  0.12500000000E+03 0.  0.
         25    1    1    2    0    0  0.11830803372E+03  0.14718634066E+03 -0.24052345790E+03  0.33035911297E+03  0.12500000000E+03 0.  0.
         25    1    1    2    0    0 -0.12797529950E+03 -0.23921729245E+03 -0.31659875760E+03  0.43527274622E+03  0.12500000000E+03 0.  0.
</event>
<event>
 5    0  0.5663008E-005  0.3601661E+03  0.7546771E-02  0.1058518E+00
         21   -1    0    0  502  501  0.00000000000E+00  0.00000000000E+00  0.97550077421E+03  0.97550077421E+03  0.00000000000E+00 0.  1.
         21   -1    0    0  501  502 -0.00000000000E+00 -0.00000000000E+00 -0.13297743776E+03  0.13297743776E+03  0.00000000000E+00 0.  1.
         25    1    1    2    0    0 -0.94910582923E+02 -0.36700424219E+02  0.33162410028E+02  0.16455906334E+03  0.12500000000E+03 0.  0.
         25    1    1    2    0    0  0.35647217848E+02  0.59854685353E+02  0.22748218259E+02  0.14489923717E+03  0.12500000000E+03 0.  0.
         25    1    1    2    0    0  0.59263365074E+02 -0.23154261135E+02  0.78661270816E+03  0.79901991145E+03  0.12500000000E+03 0.  0.
</event>
<event>
 5    0  0.5663008E-005  0.3309121E+03  0.7546771E-02  0.1070734E+00
         21   -1    0    0  502  501  0.00000000000E+00  0.00000000000E+00  0.34420544031E+03  0.34420544031E+03  0.00000000000E+00 0.  1.
         21   -1    0    0  501  502 -0.00000000000E+00 -0.00000000000E+00 -0.31813210271E+03  0.31813210271E+03  0.00000000000E+00 0.  1.
         25    1    1    2    0    0 -0.24659456724E+02  0.61975591693E+02 -0.39391834025E+02  0.14705706158E+03  0.12500000000E+03 0.  0.
         25    1    1    2    0    0  0.75862093418E+02  0.14671018854E+03 -0.85895739595E+02  0.22423651514E+03  0.12500000000E+03 0.  0.
         25    1    1    2    0    0 -0.51202636694E+02 -0.20868578024E+03  0.15136091122E+03  0.29104396630E+03  0.12500000000E+03 0.  0.
</event>
<event>
 5    0  0.5663008E-005  0.3196918E+03  0.7546771E-02  0.1075791E+00
         21   -1    0    0  502  501  0.00000000000E+00  0.00000000000E+00  0.14719774388E+03  0.14719774388E+03  0.00000000000E+00 0. -1.
         21   -1    0    0  501  502 -0.00000000000E+00 -0.00000000000E+00 -0.69432350348E+03  0.69432350348E+03  0.00000000000E+00 0. -1.
         25    1    1    2    0    0  0.76275383271E+02 -0.16605310675E+03 -0.44600938355E+03  0.49793668128E+03  0.12500000000E+03 0.  0.
         25    1    1    2    0    0 -0.58523192629E+02  0.58431779367E+02 -0.11312415390E+01  0.14988501133E+03  0.12500000000E+03 0.  0.
         25    1    1    2    0    0 -0.17752190642E+02  0.10762132739E+03 -0.99985134516E+02  0.19369955474E+03  0.12500000000E+03 0.  0.
</event>
<event>
 5    0  0.5663008E-005  0.2810179E+03  0.7546771E-02  0.1095134E+00
         21   -1    0    0  502  501  0.00000000000E+00  0.00000000000E+00  0.84469543109E+03  0.84469543109E+03  0.00000000000E+00 0.  1.
         21   -1    0    0  501  502 -0.00000000000E+00 -0.00000000000E+00 -0.93490565662E+02  0.93490565662E+02  0.00000000000E+00 0.  1.
         25    1    1    2    0    0 -0.12446951209E+03  0.14708963235E+02  0.20214211316E+03  0.26869210437E+03  0.12500000000E+03 0.  0.
         25    1    1    2    0    0  0.74996202672E+01  0.79866618797E+02  0.39024038509E+03  0.41754937343E+03  0.12500000000E+03 0.  0.
         25    1    1    2    0    0  0.11696989182E+03 -0.94575582032E+02  0.15882236717E+03  0.25194451894E+03  0.12500000000E+03 0.  0.
</event>
<event>
 5    0  0.5663008E-005  0.3712624E+03  0.7546771E-02  0.1054211E+00
         21   -1    0    0  502  501  0.00000000000E+00  0.00000000000E+00  0.75994639130E+03  0.75994639130E+03  0.00000000000E+00 0. -1.
         21   -1    0    0  501  502 -0.00000000000E+00 -0.00000000000E+00 -0.18137566946E+03  0.18137566946E+03  0.00000000000E+00 0. -1.
         25    1    1    2    0    0  0.83254246133E+02 -0.12829719755E+03  0.13240255098E+03  0.23779587025E+03  0.12500000000E+03 0.  0.
         25    1    1    2    0    0  0.16420176081E+03  0.11927310860E+03  0.96379399160E+02  0.25710363916E+03  0.12500000000E+03 0.  0.
         25    1    1    2    0    0 -0.24745600694E+03  0.90240889587E+01  0.34978877170E+03  0.44642255135E+03  0.12500000000E+03 0.  0.
</event>
<event>
 5    0  0.5663008E-005  0.2682426E+03  0.7546771E-02  0.1102290E+00
         21   -1    0    0  502  501  0.00000000000E+00  0.00000000000E+00  0.28183683065E+03  0.28183683065E+03  0.00000000000E+00 0.  1.
         21   -1    0    0  501  502 -0.00000000000E+00 -0.00000000000E+00 -0.25530417195E+03  0.25530417195E+03  0.00000000000E+00 0.  1.
         25    1    1    2    0    0  0.11262095224E+03  0.30853369948E+02 -0.51109854863E+02  0.17852906370E+03  0.12500000000E+03 0.  0.
         25    1    1    2    0    0 -0.64786895877E+02  0.67270893799E+02 -0.32559829758E+02  0.15939842391E+03  0.12500000000E+03 0.  0.
         25    1    1    2    0    0 -0.47834056363E+02 -0.98124263747E+02  0.11020234332E+03  0.19921351500E+03  0.12500000000E+03 0.  0.
</event>
<event>
 5    0  0.5663008E-005  0.2530767E+03  0.7546771E-02  0.1111376E+00
         21   -1    0    0  502  501  0.00000000000E+00  0.00000000000E+00  0.13865272472E+04  0.13865272472E+04  0.00000000000E+00 0.  1.
         21   -1    0    0  501  502 -0.00000000000E+00 -0.00000000000E+00 -0.46192978680E+02  0.46192978680E+02  0.00000000000E+00 0.  1.
         25    1    1    2    0    0 -0.37937773572E+02  0.47135488162E+02  0.15875869489E+03  0.21092736217E+03  0.12500000000E+03 0.  0.
         25    1    1    2    0    0 -0.56202421938E+01  0.16976587331E+02  0.84638798574E+03  0.85575546393E+03  0.12500000000E+03 0.  0.
         25    1    1    2    0    0  0.43558015766E+02 -0.64112075493E+02  0.33518758786E+03  0.36603739976E+03  0.12500000000E+03 0.  0.
</event>
<event>
 5    0  0.5663008E-005  0.2237067E+03  0.7546771E-02  0.1131149E+00
         21   -1    0    0  502  501  0.00000000000E+00  0.00000000000E+00  0.16054367021E+03  0.16054367021E+03  0.00000000000E+00 0.  1.
         21   -1    0    0  501  502 -0.00000000000E+00 -0.00000000000E+00 -0.31172000707E+03  0.31172000707E+03  0.00000000000E+00 0.  1.
         25    1    1    2    0    0 -0.65453854656E+02 -0.61107483343E+02 -0.26053951941E+02  0.15595557067E+03  0.12500000000E+03 0.  0.
         25    1    1    2    0    0  0.60074635539E+02  0.66258884395E+02 -0.11245422900E+03  0.19044725048E+03  0.12500000000E+03 0.  0.
         25    1    1    2    0    0  0.53792191170E+01 -0.51514010524E+01 -0.12668155911E+02  0.12586085613E+03  0.12500000000E+03 0.  0.
</event>
<event>
 5    0  0.5663008E-005  0.3917706E+03  0.7546771E-02  0.1046667E+00
         21   -1    0    0  502  501  0.00000000000E+00  0.00000000000E+00  0.46851330299E+03  0.46851330299E+03  0.00000000000E+00 0.  1.
         21   -1    0    0  501  502 -0.00000000000E+00 -0.00000000000E+00 -0.32759846844E+03  0.32759846844E+03  0.00000000000E+00 0.  1.
         25    1    1    2    0    0 -0.10483867216E+03  0.88606111401E+02  0.10865692196E+03  0.21511280029E+03  0.12500000000E+03 0.  0.
         25    1    1    2    0    0  0.61240865811E+02 -0.28107087392E+03 -0.77224232405E+02  0.32301681362E+03  0.12500000000E+03 0.  0.
         25    1    1    2    0    0  0.43597806349E+02  0.19246476251E+03  0.10948214500E+03  0.25798215753E+03  0.12500000000E+03 0.  0.
</event>
<event>
 5    0  0.5663008E-005  0.2288977E+03  0.7546771E-02  0.1127418E+00
         21   -1    0    0  502  501  0.00000000000E+00  0.00000000000E+00  0.31627261158E+03  0.31627261158E+03  0.00000000000E+00 0. -1.
         21   -1    0    0  501  502 -0.00000000000E+00 -0.00000000000E+00 -0.16566133106E+03  0.16566133106E+03  0.00000000000E+00 0. -1.
         25    1    1    2    0    0 -0.42002136334E+02 -0.62286036778E+01  0.17774915849E+02  0.13320631589E+03  0.12500000000E+03 0.  0.
         25    1    1    2    0    0 -0.60082448094E+01  0.64670082782E+02  0.14495294486E+03  0.20212539384E+03  0.12500000000E+03 0.  0.
         25    1    1    2    0    0  0.48010381144E+02 -0.58441479105E+02 -0.12116580191E+02  0.14660223291E+03  0.12500000000E+03 0.  0.
</event>
<event>
 5    0  0.5663008E-005  0.2813132E+03  0.7546771E-02  0.1094974E+00
         21   -1    0    0  502  501  0.00000000000E+00  0.00000000000E+00  0.19304403597E+03  0.19304403597E+03  0.00000000000E+00 0. -1.
         21   -1    0    0  501  502 -0.00000000000E+00 -0.00000000000E+00 -0.40994327209E+03  0.40994327209E+03  0.00000000000E+00 0. -1.
         25    1    1    2    0    0 -0.10229465350E+03 -0.14643512839E+03 -0.70257077542E+02  0.22906003559E+03  0.12500000000E+03 0.  0.
         25    1    1    2    0    0 -0.68300470478E+01  0.11630934312E+03 -0.43812653649E+02  0.17640595641E+03  0.12500000000E+03 0.  0.
         25    1    1    2    0    0  0.10912470055E+03  0.30125785278E+02 -0.10282950493E+03  0.19752131604E+03  0.12500000000E+03 0.  0.
</event>
<event>
 5    0  0.5663008E-005  0.4035034E+03  0.7546771E-02  0.1042573E+00
         21   -1    0    0  502  501  0.00000000000E+00  0.00000000000E+00  0.26752901750E+03  0.26752901750E+03  0.00000000000E+00 0.  1.
         21   -1    0    0  501  502 -0.00000000000E+00 -0.00000000000E+00 -0.60858805297E+03  0.60858805297E+03  0.00000000000E+00 0.  1.
         25    1    1    2    0    0  0.12335590855E+03 -0.20184897508E+03 -0.98982943273E+02  0.28527585242E+03  0.12500000000E+03 0.  0.
         25    1    1    2    0    0  0.14155742918E+03  0.58461103952E+02 -0.16054809045E+03  0.25467017057E+03  0.12500000000E+03 0.  0.
         25    1    1    2    0    0 -0.26491333773E+03  0.14338787113E+03 -0.81528001746E+02  0.33617104748E+03  0.12500000000E+03 0.  0.
</event>
<event>
 5    0  0.5663008E-005  0.2496137E+03  0.7546771E-02  0.1113549E+00
         21   -1    0    0  502  501  0.00000000000E+00  0.00000000000E+00  0.66023844873E+03  0.66023844873E+03  0.00000000000E+00 0. -1.
         21   -1    0    0  501  502 -0.00000000000E+00 -0.00000000000E+00 -0.94370472977E+02  0.94370472977E+02  0.00000000000E+00 0. -1.
         25    1    1    2    0    0 -0.53970167682E+02 -0.86224115187E+02  0.21044325769E+03  0.26506365603E+03  0.12500000000E+03 0.  0.
         25    1    1    2    0    0 -0.45939083112E+02  0.76868620489E+02  0.86377729184E+02  0.17636693645E+03  0.12500000000E+03 0.  0.
         25    1    1    2    0    0  0.99909250794E+02  0.93554946978E+01  0.26904698888E+03  0.31317832923E+03  0.12500000000E+03 0.  0.
</event>
<event>
 5    0  0.5663008E-005  0.2525502E+03  0.7546771E-02  0.1111704E+00
         21   -1    0    0  502  501  0.00000000000E+00  0.00000000000E+00  0.30944556529E+02  0.30944556529E+02  0.00000000000E+00 0. -1.
         21   -1    0    0  501  502 -0.00000000000E+00 -0.00000000000E+00 -0.20611578092E+04  0.20611578092E+04  0.00000000000E+00 0. -1.
         25    1    1    2    0    0 -0.40539001249E+02  0.10513384118E+03 -0.73929381224E+03  0.75820635450E+03  0.12500000000E+03 0.  0.
         25    1    1    2    0    0 -0.64181642427E+02 -0.60451380220E+02 -0.80489573573E+03  0.81930201878E+03  0.12500000000E+03 0.  0.
         25    1    1    2    0    0  0.10472064368E+03 -0.44682460962E+02 -0.48602370474E+03  0.51459399248E+03  0.12500000000E+03 0.  0.
</event>
<event>
 5    0  0.5663008E-005  0.2465544E+03  0.7546771E-02  0.1115502E+00
         21   -1    0    0  502  501  0.00000000000E+00  0.00000000000E+00  0.42708967926E+04  0.42708967926E+04  0.00000000000E+00 0. -1.
         21   -1    0    0  501  502 -0.00000000000E+00 -0.00000000000E+00 -0.14233321964E+02  0.14233321964E+02  0.00000000000E+00 0. -1.
         25    1    1    2    0    0  0.83705988120E+02 -0.32162204191E+02  0.24195097430E+04  0.24243954909E+04  0.12500000000E+03 0.  0.
         25    1    1    2    0    0 -0.37779513836E+02 -0.45588878052E+02  0.74251543404E+03  0.75528789693E+03  0.12500000000E+03 0.  0.
         25    1    1    2    0    0 -0.45926474284E+02  0.77751082243E+02  0.10946382936E+04  0.11054467267E+04  0.12500000000E+03 0.  0.
</event>
<event>
 5    0  0.5663008E-005  0.3494286E+03  0.7546771E-02  0.1062850E+00
         21   -1    0    0  502  501  0.00000000000E+00  0.00000000000E+00  0.19777637522E+03  0.19777637522E+03  0.00000000000E+00 0. -1.
         21   -1    0    0  501  502 -0.00000000000E+00 -0.00000000000E+00 -0.61736579887E+03  0.61736579887E+03  0.00000000000E+00 0. -1.
         25    1    1    2    0    0 -0.27554786829E+01  0.77044359548E+02 -0.14431738370E+03  0.20590272761E+03  0.12500000000E+03 0.  0.
         25    1    1    2    0    0 -0.12568690661E+03 -0.19791167823E+03 -0.84333740212E+01  0.26582391290E+03  0.12500000000E+03 0.  0.
         25    1    1    2    0    0  0.12844238529E+03  0.12086731868E+03 -0.26683866593E+03  0.34341553357E+03  0.12500000000E+03 0.  0.
</event>
<event>
 5    0  0.5663008E-005  0.2570203E+03  0.7546771E-02  0.1108947E+00
         21   -1    0    0  502  501  0.00000000000E+00  0.00000000000E+00  0.94424131295E+03  0.94424131295E+03  0.00000000000E+00 0.  1.
         21   -1    0    0  501  502 -0.00000000000E+00 -0.00000000000E+00 -0.69960352421E+02  0.69960352421E+02  0.00000000000E+00 0.  1.
         25    1    1    2    0    0  0.42498423515E+02  0.50366331812E+02  0.19940154489E+03  0.24439488433E+03  0.12500000000E+03 0.  0.
         25    1    1    2    0    0 -0.11020672856E+03  0.43307928464E+02  0.48562521449E+03  0.51524552267E+03  0.12500000000E+03 0.  0.
         25    1    1    2    0    0  0.67708305044E+02 -0.93674260276E+02  0.18925420115E+03  0.25456125837E+03  0.12500000000E+03 0.  0.
</event>
<event>
 5    0  0.5663008E-005  0.3278608E+03  0.7546771E-02  0.1072087E+00
         21   -1    0    0  502  501  0.00000000000E+00  0.00000000000E+00  0.84728252424E+03  0.84728252424E+03  0.00000000000E+00 0. -1.
         21   -1    0    0  501  502 -0.00000000000E+00 -0.00000000000E+00 -0.12686758669E+03  0.12686758669E+03  0.00000000000E+00 0. -1.
         25    1    1    2    0    0 -0.35450738210E+02  0.24158522981E+03  0.33320806268E+03  0.43159331684E+03  0.12500000000E+03 0.  0.
         25    1    1    2    0    0 -0.10808327326E+02 -0.13061505107E+03  0.29493415513E+03  0.34610441686E+03  0.12500000000E+03 0.  0.
         25    1    1    2    0    0  0.46259065536E+02 -0.11097017874E+03  0.92272719739E+02  0.19645237724E+03  0.12500000000E+03 0.  0.
</event>
<event>
 5    0  0.5663008E-005  0.4961434E+03  0.7546771E-02  0.1014790E+00
         21   -1    0    0  502  501  0.00000000000E+00  0.00000000000E+00  0.14354758326E+04  0.14354758326E+04  0.00000000000E+00 0. -1.
         21   -1    0    0  501  502 -0.00000000000E+00 -0.00000000000E+00 -0.17148201087E+03  0.17148201087E+03  0.00000000000E+00 0. -1.
         25    1    1    2    0    0  0.11680860465E+03  0.14267573314E+03  0.36739845793E+03  0.42965944868E+03  0.12500000000E+03 0.  0.
         25    1    1    2    0    0 -0.34600165894E+03  0.15182703607E+02  0.20504762445E+03  0.42144654557E+03  0.12500000000E+03 0.  0.
         25    1    1    2    0    0  0.22919305429E+03 -0.15785843674E+03  0.69154773933E+03  0.75585184921E+03  0.12500000000E+03 0.  0.
</event>
<event>
 5    0  0.5663008E-005  0.3163492E+03  0.7546771E-02  0.1077342E+00
         21   -1    0    0  502  501  0.00000000000E+00  0.00000000000E+00  0.13011747652E+03  0.13011747652E+03  0.00000000000E+00 0. -1.
         21   -1    0    0  501  502 -0.00000000000E+00 -0.00000000000E+00 -0.76912676200E+03  0.76912676200E+03  0.00000000000E+00 0. -1.
         25    1    1    2    0    0 -0.58031527466E+02  0.17989485240E+03 -0.25023322237E+03  0.33759662569E+03  0.12500000000E+03 0.  0.
         25    1    1    2    0    0  0.82273298880E+02  0.17495970307E+02 -0.24072833401E+03  0.28398967495E+03  0.12500000000E+03 0.  0.
         25    1    1    2    0    0 -0.24241771414E+02 -0.19739082271E+03 -0.14804772911E+03  0.27765793788E+03  0.12500000000E+03 0.  0.
</event>
<event>
 5    0  0.6347655E-005  0.2992394E+03  0.7546771E-02  0.1085621E+00
         21   -1    0    0  502  501  0.00000000000E+00  0.00000000000E+00  0.29005834309E+03  0.29005834309E+03  0.00000000000E+00 0. -1.
         21   -1    0    0  501  502 -0.00000000000E+00 -0.00000000000E+00 -0.30871115149E+03  0.30871115149E+03  0.00000000000E+00 0. -1.
         25    1    1    2    0    0 -0.26945851713E+01  0.20945868119E+02 -0.12038354459E+03  0.17482330505E+03  0.12500000000E+03 0.  0.
         25    1    1    2    0    0  0.43731338273E+02  0.12468739715E+03  0.13284085821E+03  0.22523558903E+03  0.12500000000E+03 0.  0.
         25    1    1    2    0    0 -0.41036753102E+02 -0.14563326527E+03 -0.31110122022E+02  0.19871060050E+03  0.12500000000E+03 0.  0.
</event>
<event>
 5    0  0.5663008E-005  0.2804936E+03  0.7546771E-02  0.1095420E+00
         21   -1    0    0  502  501  0.00000000000E+00  0.00000000000E+00  0.12487074285E+03  0.12487074285E+03  0.00000000000E+00 0. -1.
         21   -1    0    0  501  502 -0.00000000000E+00 -0.00000000000E+00 -0.63006492100E+03  0.63006492100E+03  0.00000000000E+00 0. -1.
         25    1    1    2    0    0  0.34611827304E+02  0.27237640428E+02 -0.71265846522E+02  0.15047819950E+03  0.12500000000E+03 0.  0.
         25    1    1    2    0    0  0.18894163882E+02 -0.48768659222E+02 -0.44612990518E+03  0.46625343307E+03  0.12500000000E+03 0.  0.
         25    1    1    2    0    0 -0.53505991185E+02  0.21531018793E+02  0.12201573559E+02  0.13820403127E+03  0.12500000000E+03 0.  0.
</event>
<event>
 5    0  0.5663008E-005  0.2512587E+03  0.7546771E-02  0.1112512E+00
         21   -1    0    0  502  501  0.00000000000E+00  0.00000000000E+00  0.31665618513E+02  0.31665618513E+02  0.00000000000E+00 0. -1.
         21   -1    0    0  501  502 -0.00000000000E+00 -0.00000000000E+00 -0.19936739404E+04  0.19936739404E+04  0.00000000000E+00 0. -1.
         25    1    1    2    0    0 -0.36384077483E+02  0.12538014315E+03 -0.11121454249E+04  0.11267370712E+04  0.12500000000E+03 0.  0.
         25    1    1    2    0    0 -0.16114057295E+02 -0.75173234806E+02 -0.45685622269E+03  0.47984714888E+03  0.12500000000E+03 0.  0.
         25    1    1    2    0    0  0.52498134778E+02 -0.50206908348E+02 -0.39300667433E+03  0.41875533891E+03  0.12500000000E+03 0.  0.
</event>
<event>
 5    0  0.5663008E-005  0.2127167E+03  0.7546771E-02  0.1139433E+00
         21   -1    0    0  502  501  0.00000000000E+00  0.00000000000E+00  0.48102321694E+03  0.48102321694E+03  0.00000000000E+00 0.  1.
         21   -1    0    0  501  502 -0.00000000000E+00 -0.00000000000E+00 -0.94066966910E+02  0.94066966910E+02  0.00000000000E+00 0.  1.
         25    1    1    2    0    0 -0.39058393018E+02 -0.37380011972E+02  0.17794258500E+03  0.22407897473E+03  0.12500000000E+03 0.  0.
         25    1    1    2    0    0  0.53808517906E+02  0.35162907064E+01  0.49128588396E+02  0.14472850133E+03  0.12500000000E+03 0.  0.
         25    1    1    2    0    0 -0.14750124888E+02  0.33863721265E+02  0.15988507663E+03  0.20628270778E+03  0.12500000000E+03 0.  0.
</event>
<event>
 5    0  0.5663008E-005  0.2578738E+03  0.7546771E-02  0.1108427E+00
         21   -1    0    0  502  501  0.00000000000E+00  0.00000000000E+00  0.55720374078E+02  0.55720374078E+02  0.00000000000E+00 0. -1.
         21   -1    0    0  501  502 -0.00000000000E+00 -0.00000000000E+00 -0.11934395706E+04  0.11934395706E+04  0.00000000000E+00 0. -1.
         25    1    1    2    0    0 -0.11881448836E+02  0.99286657762E+02 -0.37827268813E+03  0.41074838505E+03  0.12500000000E+03 0.  0.
         25    1    1    2    0    0  0.11721874721E+03 -0.69686234988E+02 -0.33626291613E+03  0.38378920621E+03  0.12500000000E+03 0.  0.
         25    1    1    2    0    0 -0.10533729838E+03 -0.29600422774E+02 -0.42318359224E+03  0.45462235339E+03  0.12500000000E+03 0.  0.
</event>
<event>
 5    0  0.5663008E-005  0.2665355E+03  0.7546771E-02  0.1103279E+00
         21   -1    0    0  502  501  0.00000000000E+00  0.00000000000E+00  0.12729353338E+03  0.12729353338E+03  0.00000000000E+00 0.  1.
         21   -1    0    0  501  502 -0.00000000000E+00 -0.00000000000E+00 -0.55808926350E+03  0.55808926350E+03  0.00000000000E+00 0.  1.
         25    1    1    2    0    0  0.12152088585E+03 -0.10625410106E+01 -0.28026441099E+02  0.17657558181E+03  0.12500000000E+03 0.  0.
         25    1    1    2    0    0 -0.11139785819E+03 -0.21061944128E+02 -0.15005202285E+03  0.22581784221E+03  0.12500000000E+03 0.  0.
         25    1    1    2    0    0 -0.10123027664E+02  0.22124485139E+02 -0.25271726617E+03  0.28298937286E+03  0.12500000000E+03 0.  0.
</event>
<event>
 5    0  0.5663008E-005  0.3887472E+03  0.7546771E-02  0.1047747E+00
         21   -1    0    0  502  501  0.00000000000E+00  0.00000000000E+00  0.27553407343E+03  0.27553407343E+03  0.00000000000E+00 0.  1.
         21   -1    0    0  501  502 -0.00000000000E+00 -0.00000000000E+00 -0.54847802325E+03  0.54847802325E+03  0.00000000000E+00 0.  1.
         25    1    1    2    0    0 -0.35323490445E+02  0.42000000682E+02 -0.15782561983E+03  0.20867600559E+03  0.12500000000E+03 0.  0.
         25    1    1    2    0    0  0.13986946128E+03 -0.17520217159E+03  0.13372195763E+03  0.28942326977E+03  0.12500000000E+03 0.  0.
         25    1    1    2    0    0 -0.10454597084E+03  0.13320217091E+03 -0.24884028762E+03  0.32591282131E+03  0.12500000000E+03 0.  0.
</event>
<event>
 5    0  0.5663008E-005  0.3074058E+03  0.7546771E-02  0.1081596E+00
         21   -1    0    0  502  501  0.00000000000E+00  0.00000000000E+00  0.16294340185E+03  0.16294340185E+03  0.00000000000E+00 0. -1.
         21   -1    0    0  501  502 -0.00000000000E+00 -0.00000000000E+00 -0.57994575785E+03  0.57994575785E+03  0.00000000000E+00 0. -1.
         25    1    1    2    0    0 -0.48623704522E+02  0.59746057680E+02 -0.22465132700E+01  0.14684652829E+03  0.12500000000E+03 0.  0.
         25    1    1    2    0    0 -0.98348859637E+02  0.72909013849E+02 -0.26685055629E+03  0.31909628937E+03  0.12500000000E+03 0.  0.
         25    1    1    2    0    0  0.14697256416E+03 -0.13265507153E+03 -0.14790528643E+03  0.27694634204E+03  0.12500000000E+03 0.  0.
</event>
<event>
 5    0  0.5663008E-005  0.3300644E+03  0.7546771E-02  0.1071108E+00
         21   -1    0    0  502  501  0.00000000000E+00  0.00000000000E+00  0.14818519259E+03  0.14818519259E+03  0.00000000000E+00 0.  1.
         21   -1    0    0  501  502 -0.00000000000E+00 -0.00000000000E+00 -0.73517827319E+03  0.73517827319E+03  0.00000000000E+00 0.  1.
         25    1    1    2    0    0 -0.39446292564E+02 -0.18602543133E+03 -0.18688987110E+03  0.29447291050E+03  0.12500000000E+03 0.  0.
         25    1    1    2    0    0 -0.51557039977E+02 -0.45573250974E+02 -0.20128872266E+03  0.24673305301E+03  0.12500000000E+03 0.  0.
         25    1    1    2    0    0  0.91003332542E+02  0.23159868231E+03 -0.19881448684E+03  0.34215750227E+03  0.12500000000E+03 0.  0.
</event>
<event>
 5    0  0.5663008E-005  0.2617073E+03  0.7546771E-02  0.1106122E+00
         21   -1    0    0  502  501  0.00000000000E+00  0.00000000000E+00  0.79025660592E+02  0.79025660592E+02  0.00000000000E+00 0.  1.
         21   -1    0    0  501  502 -0.00000000000E+00 -0.00000000000E+00 -0.86668978943E+03  0.86668978943E+03  0.00000000000E+00 0.  1.
         25    1    1    2    0    0  0.15099389276E+03 -0.73685411309E+02 -0.37430658778E+03  0.42890455482E+03  0.12500000000E+03 0.  0.
         25    1    1    2    0    0 -0.83206136987E+02  0.50257350110E+02 -0.15860220996E+03  0.22411765543E+03  0.12500000000E+03 0.  0.
         25    1    1    2    0    0 -0.67787755772E+02  0.23428061200E+02 -0.25475533110E+03  0.29269323977E+03  0.12500000000E+03 0.  0.
</event>
<event>
 5    0  0.5918438E-005  0.2924299E+03  0.7546771E-02  0.1089087E+00
         21   -1    0    0  502  501  0.00000000000E+00  0.00000000000E+00  0.31509438231E+03  0.31509438231E+03  0.00000000000E+00 0. -1.
         21   -1    0    0  501  502 -0.00000000000E+00 -0.00000000000E+00 -0.27139570605E+03  0.27139570605E+03  0.00000000000E+00 0. -1.
         25    1    1    2    0    0 -0.17273215238E+03 -0.14925633589E+02  0.78501862057E+02  0.22769873374E+03  0.12500000000E+03 0.  0.
         25    1    1    2    0    0  0.44061988042E+02 -0.54421953633E+02 -0.75874261697E+02  0.16212683743E+03  0.12500000000E+03 0.  0.
         25    1    1    2    0    0  0.12867016433E+03  0.69347587221E+02  0.41071075900E+02  0.19666451718E+03  0.12500000000E+03 0.  0.
</event>
<event>
 5    0  0.5663008E-005  0.4723788E+03  0.7546771E-02  0.1021251E+00
         21   -1    0    0  502  501  0.00000000000E+00  0.00000000000E+00  0.13359719011E+03  0.13359719011E+03  0.00000000000E+00 0. -1.
         21   -1    0    0  501  502 -0.00000000000E+00 -0.00000000000E+00 -0.16702575584E+04  0.16702575584E+04  0.00000000000E+00 0. -1.
         25    1    1    2    0    0  0.22165994722E+03 -0.30870186879E+03 -0.80912703707E+03  0.90263034411E+03  0.12500000000E+03 0.  0.
         25    1    1    2    0    0 -0.16913379952E+03  0.22500357459E+03 -0.65968535384E+03  0.72804025767E+03  0.12500000000E+03 0.  0.
         25    1    1    2    0    0 -0.52526147693E+02  0.83698294199E+02 -0.67847977366E+02  0.17318414672E+03  0.12500000000E+03 0.  0.
</event>
<event>
 5    0  0.5663008E-005  0.2880516E+03  0.7546771E-02  0.1091371E+00
         21   -1    0    0  502  501  0.00000000000E+00  0.00000000000E+00  0.65905684003E+03  0.65905684003E+03  0.00000000000E+00 0.  1.
         21   -1    0    0  501  502 -0.00000000000E+00 -0.00000000000E+00 -0.12589763855E+03  0.12589763855E+03  0.00000000000E+00 0.  1.
         25    1    1    2    0    0  0.13131393312E+03  0.85547045848E+02  0.61047305973E+02  0.20955529020E+03  0.12500000000E+03 0.  0.
         25    1    1    2    0    0 -0.92562479026E+02 -0.11646006710E+03  0.28753956175E+03  0.34703711520E+03  0.12500000000E+03 0.  0.
         25    1    1    2    0    0 -0.38751454092E+02  0.30913021254E+02  0.18457233376E+03  0.22836207318E+03  0.12500000000E+03 0.  0.
</event>
<event>
 5    0  0.6453179E-005  0.7203454E+03  0.7546771E-02  0.9683058E-01
         21   -1    0    0  502  501  0.00000000000E+00  0.00000000000E+00  0.54951761641E+03  0.54951761641E+03  0.00000000000E+00 0. -1.
         21   -1    0    0  501  502 -0.00000000000E+00 -0.00000000000E+00 -0.94427821834E+03  0.94427821834E+03  0.00000000000E+00 0. -1.
         25    1    1    2    0    0 -0.79377165184E+02 -0.34401599268E+03 -0.11841600802E+02  0.37471717479E+03  0.12500000000E+03 0.  0.
         25    1    1    2    0    0  0.36622582839E+03 -0.58656884498E+02  0.11338270251E+03  0.40748328151E+03  0.12500000000E+03 0.  0.
         25    1    1    2    0    0 -0.28684866321E+03  0.40267287717E+03 -0.49630170364E+03  0.71159537845E+03  0.12500000000E+03 0.  0.
</event>
<event>
 5    0  0.5663008E-005  0.4121030E+03  0.7546771E-02  0.1039668E+00
         21   -1    0    0  502  501  0.00000000000E+00  0.00000000000E+00  0.13255707478E+04  0.13255707478E+04  0.00000000000E+00 0. -1.
         21   -1    0    0  501  502 -0.00000000000E+00 -0.00000000000E+00 -0.12811752983E+03  0.12811752983E+03  0.00000000000E+00 0. -1.
         25    1    1    2    0    0  0.18480744604E+03 -0.11560261171E+03  0.26333132352E+03  0.36398645839E+03  0.12500000000E+03 0.  0.
         25    1    1    2    0    0 -0.18355632885E+03 -0.14790398744E+03  0.39361106383E+03  0.47552411603E+03  0.12500000000E+03 0.  0.
         25    1    1    2    0    0 -0.12511171894E+01  0.26350659915E+03  0.54051083063E+03  0.61417770321E+03  0.12500000000E+03 0.  0.
</event>
<event>
 5    0  0.5663008E-005  0.3018819E+03  0.7546771E-02  0.1084304E+00
         21   -1    0    0  502  501  0.00000000000E+00  0.00000000000E+00  0.41639947620E+02  0.41639947620E+02  0.00000000000E+00 0.  1.
         21   -1    0    0  501  502 -0.00000000000E+00 -0.00000000000E+00 -0.21885876531E+04  0.21885876531E+04  0.00000000000E+00 0.  1.
         25    1    1    2    0    0 -0.51145054964E+02 -0.72645103597E+01 -0.94579483025E+03  0.95541689889E+03  0.12500000000E+03 0.  0.
         25    1    1    2    0    0 -0.14111751269E+03  0.25459458755E+02 -0.43285470818E+03  0.47281130995E+03  0.12500000000E+03 0.  0.
         25    1    1    2    0    0  0.19226256766E+03 -0.18194948395E+02 -0.76829816703E+03  0.80199939185E+03  0.12500000000E+03 0.  0.
</event>
<event>
 5    0  0.5663008E-005  0.2718192E+03  0.7546771E-02  0.1100243E+00
         21   -1    0    0  502  501  0.00000000000E+00  0.00000000000E+00  0.15106466167E+03  0.15106466167E+03  0.00000000000E+00 0.  1.
         21   -1    0    0  501  502 -0.00000000000E+00 -0.00000000000E+00 -0.48909982298E+03  0.48909982298E+03  0.00000000000E+00 0.  1.
         25    1    1    2    0    0  0.25607227440E+02 -0.13226451958E+02 -0.15704026381E+03  0.20277404564E+03  0.12500000000E+03 0.  0.
         25    1    1    2    0    0  0.11490134887E+03 -0.73190680217E+02 -0.12433273924E+03  0.22280670028E+03  0.12500000000E+03 0.  0.
         25    1    1    2    0    0 -0.14050857631E+03  0.86417132175E+02 -0.56662158271E+02  0.21458373873E+03  0.12500000000E+03 0.  0.
</event>
<event>
 5    0  0.5663008E-005  0.3422434E+03  0.7546771E-02  0.1065844E+00
         21   -1    0    0  502  501  0.00000000000E+00  0.00000000000E+00  0.12703265130E+04  0.12703265130E+04  0.00000000000E+00 0.  1.
         21   -1    0    0  501  502 -0.00000000000E+00 -0.00000000000E+00 -0.92205080078E+02  0.92205080078E+02  0.00000000000E+00 0.  1.
         25    1    1    2    0    0  0.21852773357E+02 -0.71703782184E+02  0.35217519440E+03  0.38114478041E+03  0.12500000000E+03 0.  0.
         25    1    1    2    0    0 -0.22314791340E+03  0.73614530958E+02  0.28041492739E+03  0.38661559969E+03  0.12500000000E+03 0.  0.
         25    1    1    2    0    0  0.20129514004E+03 -0.19107487734E+01  0.54553131116E+03  0.59477121300E+03  0.12500000000E+03 0.  0.
</event>
<event>
 5    0  0.5663008E-005  0.2715984E+03  0.7546771E-02  0.1100368E+00
         21   -1    0    0  502  501  0.00000000000E+00  0.00000000000E+00  0.35325604346E+03  0.35325604346E+03  0.00000000000E+00 0. -1.
         21   -1    0    0  501  502 -0.00000000000E+00 -0.00000000000E+00 -0.20881645594E+03  0.20881645594E+03  0.00000000000E+00 0. -1.
         25    1    1    2    0    0 -0.32238839636E+02  0.18607142951E+03  0.42598235472E+02  0.23043769077E+03  0.12500000000E+03 0.  0.
         25    1    1    2    0    0  0.18177547104E+02 -0.70604645533E+02  0.51868733350E+02  0.15372314298E+03  0.12500000000E+03 0.  0.
         25    1    1    2    0    0  0.14061292532E+02 -0.11546678398E+03  0.49972618699E+02  0.17791166564E+03  0.12500000000E+03 0.  0.
</event>
<event>
 5    0  0.5663008E-005  0.2435951E+03  0.7546771E-02  0.1117421E+00
         21   -1    0    0  502  501  0.00000000000E+00  0.00000000000E+00  0.14980202749E+03  0.14980202749E+03  0.00000000000E+00 0. -1.
         21   -1    0    0  501  502 -0.00000000000E+00 -0.00000000000E+00 -0.39611320027E+03  0.39611320027E+03  0.00000000000E+00 0. -1.
         25    1    1    2    0    0  0.42550077776E+02 -0.29594661052E+02 -0.15930191774E+03  0.20901783196E+03  0.12500000000E+03 0.  0.
         25    1    1    2    0    0 -0.58380072799E+02 -0.78860000453E+02 -0.35155907387E+02  0.16275156035E+03  0.12500000000E+03 0.  0.
         25    1    1    2    0    0  0.15829995023E+02  0.10845466151E+03 -0.51853347648E+02  0.17414583546E+03  0.12500000000E+03 0.  0.
</event>
<event>
 5    0  0.5663008E-005  0.2809870E+03  0.7546771E-02  0.1095151E+00
         21   -1    0    0  502  501  0.00000000000E+00  0.00000000000E+00  0.84737197983E+02  0.84737197983E+02  0.00000000000E+00 0.  1.
         21   -1    0    0  501  502 -0.00000000000E+00 -0.00000000000E+00 -0.93174758249E+03  0.93174758249E+03  0.00000000000E+00 0.  1.
         25    1    1    2    0    0 -0.45716569369E+02  0.11572870219E+03 -0.25063428337E+03  0.30647296981E+03  0.12500000000E+03 0.  0.
         25    1    1    2    0    0 -0.60839462831E+02 -0.15195498986E+03 -0.41090528421E+03  0.45963019023E+03  0.12500000000E+03 0.  0.
         25    1    1    2    0    0  0.10655603220E+03  0.36226287679E+02 -0.18547081693E+03  0.25038162043E+03  0.12500000000E+03 0.  0.
</event>
<event>
 5    0  0.5663008E-005  0.3545295E+03  0.7546771E-02  0.1060771E+00
         21   -1    0    0  502  501  0.00000000000E+00  0.00000000000E+00  0.65610132552E+03  0.65610132552E+03  0.00000000000E+00 0. -1.
         21   -1    0    0  501  502 -0.00000000000E+00 -0.00000000000E+00 -0.19157278932E+03  0.19157278932E+03  0.00000000000E+00 0. -1.
         25    1    1    2    0    0  0.14659691365E+03 -0.12601205099E+03  0.13865470123E+03  0.26873745228E+03  0.12500000000E+03 0.  0.
         25    1    1    2    0    0  0.40308122993E+02 -0.93811741345E+02  0.13997494003E+03  0.21364309357E+03  0.12500000000E+03 0.  0.
         25    1    1    2    0    0 -0.18690503664E+03  0.21982379234E+03  0.18589889494E+03  0.36529356898E+03  0.12500000000E+03 0.  0.
</event>
<event>
 5    0  0.5663008E-005  0.2157747E+03  0.7546771E-02  0.1137073E+00
         21   -1    0    0  502  501  0.00000000000E+00  0.00000000000E+00  0.56133437291E+02  0.56133437291E+02  0.00000000000E+00 0. -1.
         21   -1    0    0  501  502 -0.00000000000E+00 -0.00000000000E+00 -0.82942905515E+03  0.82942905515E+03  0.00000000000E+00 0. -1.
         25    1    1    2    0    0  0.24193957098E+02 -0.69377078602E+02 -0.18565922092E+03  0.23556925289E+03  0.12500000000E+03 0.  0.
         25    1    1    2    0    0 -0.51812695630E+02  0.80893779652E+01 -0.30266007507E+03  0.33162948377E+03  0.12500000000E+03 0.  0.
         25    1    1    2    0    0  0.27618738532E+02  0.61287700636E+02 -0.28497632187E+03  0.31836375578E+03  0.12500000000E+03 0.  0.
</event>
<event>
 5    0  0.5663008E-005  0.3435528E+03  0.7546771E-02  0.1065293E+00
         21   -1    0    0  502  501  0.00000000000E+00  0.00000000000E+00  0.33080796660E+03  0.33080796660E+03  0.00000000000E+00 0. -1.
         21   -1    0    0  501  502 -0.00000000000E+00 -0.00000000000E+00 -0.35678867575E+03  0.35678867575E+03  0.00000000000E+00 0. -1.
         25    1    1    2    0    0 -0.79821222977E+02  0.21788056722E+03 -0.29656453947E+02  0.26523173729E+03  0.12500000000E+03 0.  0.
         25    1    1    2    0    0  0.77795262950E+02  0.23361398910E+02  0.18685236741E+02  0.15023979489E+03  0.12500000000E+03 0.  0.
         25    1    1    2    0    0  0.20259600265E+01 -0.24124196613E+03 -0.15009491942E+02  0.27212511016E+03  0.12500000000E+03 0.  0.
</event>
<event>
 5    0  0.5663008E-005  0.2209096E+03  0.7546771E-02  0.1133207E+00
         21   -1    0    0  502  501  0.00000000000E+00  0.00000000000E+00  0.90948321693E+02  0.90948321693E+02  0.00000000000E+00 0.  1.
         21   -1    0    0  501  502 -0.00000000000E+00 -0.00000000000E+00 -0.53658021674E+03  0.53658021674E+03  0.00000000000E+00 0.  1.
         25    1    1    2    0    0  0.14222041179E+02  0.54190097174E+02 -0.20226961876E+03  0.24428841921E+03  0.12500000000E+03 0.  0.
         25    1    1    2    0    0  0.42023923052E+02 -0.62147976190E+02 -0.18107938210E+03  0.23247176963E+03  0.12500000000E+03 0.  0.
         25    1    1    2    0    0 -0.56245964231E+02  0.79578790168E+01 -0.62282894189E+02  0.15076834959E+03  0.12500000000E+03 0.  0.
</event>
<event>
 5    0  0.5663008E-005  0.2774219E+03  0.7546771E-02  0.1097105E+00
         21   -1    0    0  502  501  0.00000000000E+00  0.00000000000E+00  0.32059212715E+03  0.32059212715E+03  0.00000000000E+00 0. -1.
         21   -1    0    0  501  502 -0.00000000000E+00 -0.00000000000E+00 -0.24006483426E+03  0.24006483426E+03  0.00000000000E+00 0. -1.
         25    1    1    2    0    0  0.44393755835E+02 -0.58713240351E+02 -0.15233987531E+03  0.21035799904E+03  0.12500000000E+03 0.  0.
         25    1    1    2    0    0 -0.31109436317E+02  0.22384995977E+02  0.12121613391E+03  0.17828975347E+03  0.12500000000E+03 0.  0.
         25    1    1    2    0    0 -0.13284319518E+02  0.36328244374E+02  0.11165103429E+03  0.17200920889E+03  0.12500000000E+03 0.  0.
</event>
<event>
 5    0  0.5663008E-005  0.3198852E+03  0.7546771E-02  0.1075702E+00
         21   -1    0    0  502  501  0.00000000000E+00  0.00000000000E+00  0.11601847910E+03  0.11601847910E+03  0.00000000000E+00 0.  1.
         21   -1    0    0  501  502 -0.00000000000E+00 -0.00000000000E+00 -0.88198470643E+03  0.88198470643E+03  0.00000000000E+00 0.  1.
         25    1    1    2    0    0  0.14766170438E+03 -0.24695749262E+00 -0.70724763561E+02  0.20598794166E+03  0.12500000000E+03 0.  0.
         25    1    1    2    0    0 -0.15966763211E+03  0.77212133124E+02 -0.30016319030E+03  0.37037603467E+03  0.12500000000E+03 0.  0.
         25    1    1    2    0    0  0.12005927735E+02 -0.76965175631E+02 -0.39507827348E+03  0.42163920920E+03  0.12500000000E+03 0.  0.
</event>
<event>
 5    0  0.5663008E-005  0.2809679E+03  0.7546771E-02  0.1095161E+00
         21   -1    0    0  502  501  0.00000000000E+00  0.00000000000E+00  0.53269082438E+03  0.53269082438E+03  0.00000000000E+00 0. -1.
         21   -1    0    0  501  502 -0.00000000000E+00 -0.00000000000E+00 -0.14819656462E+03  0.14819656462E+03  0.00000000000E+00 0. -1.
         25    1    1    2    0    0  0.59469387985E+02  0.27680976447E+02  0.30649699690E+03  0.33744370445E+03  0.12500000000E+03 0.  0.
         25    1    1    2    0    0 -0.17466462639E+02 -0.70697230859E+02  0.13079593471E+03  0.19502756807E+03  0.12500000000E+03 0.  0.
         25    1    1    2    0    0 -0.42002925346E+02  0.43016254412E+02 -0.52798671849E+02  0.14841611648E+03  0.12500000000E+03 0.  0.
</event>
<event>
 5    0  0.5663008E-005  0.2880857E+03  0.7546771E-02  0.1091353E+00
         21   -1    0    0  502  501  0.00000000000E+00  0.00000000000E+00  0.32768468682E+02  0.32768468682E+02  0.00000000000E+00 0. -1.
         21   -1    0    0  501  502 -0.00000000000E+00 -0.00000000000E+00 -0.25327205648E+04  0.25327205648E+04  0.00000000000E+00 0. -1.
         25    1    1    2    0    0  0.24313214779E+02 -0.67805196003E+02 -0.97549923111E+03  0.98610974385E+03  0.12500000000E+03 0.  0.
         25    1    1    2    0    0  0.14080061276E+03 -0.91469331129E+01 -0.60111144528E+03  0.62997495870E+03  0.12500000000E+03 0.  0.
         25    1    1    2    0    0 -0.16511382754E+03  0.76952129116E+02 -0.92334141977E+03  0.94940433098E+03  0.12500000000E+03 0.  0.
</event>
<event>
 5    0  0.5663008E-005  0.3678988E+03  0.7546771E-02  0.1055499E+00
         21   -1    0    0  502  501  0.00000000000E+00  0.00000000000E+00  0.36431729180E+03  0.36431729180E+03  0.00000000000E+00 0. -1.
         21   -1    0    0  501  502 -0.00000000000E+00 -0.00000000000E+00 -0.37151550642E+03  0.37151550642E+03  0.00000000000E+00 0. -1.
         25    1    1    2    0    0 -0.34326761703E+02 -0.25367144203E+03  0.13575066601E+03  0.31556420962E+03  0.12500000000E+03 0.  0.
         25    1    1    2    0    0 -0.52843843516E+02  0.73331583738E+02 -0.24752245384E+02  0.15622953185E+03  0.12500000000E+03 0.  0.
         25    1    1    2    0    0  0.87170605219E+02  0.18033985829E+03 -0.11819663524E+03  0.26403905674E+03  0.12500000000E+03 0.  0.
</event>
<event>
 5    0  0.5663008E-005  0.3749435E+03  0.7546771E-02  0.1052819E+00
         21   -1    0    0  502  501  0.00000000000E+00  0.00000000000E+00  0.35600053399E+03  0.35600053399E+03  0.00000000000E+00 0. -1.
         21   -1    0    0  501  502 -0.00000000000E+00 -0.00000000000E+00 -0.39489442483E+03  0.39489442483E+03  0.00000000000E+00 0. -1.
         25    1    1    2    0    0 -0.12014306853E+03 -0.67961402925E+02  0.25743902043E+03  0.31773095292E+03  0.12500000000E+03 0.  0.
         25    1    1    2    0    0  0.69816711644E+02 -0.33357654617E+02 -0.14803344578E+03  0.20862887484E+03  0.12500000000E+03 0.  0.
         25    1    1    2    0    0  0.50326356889E+02  0.10131905754E+03 -0.14829946548E+03  0.22453513106E+03  0.12500000000E+03 0.  0.
</event>
<event>
 5    0  0.5663008E-005  0.3078542E+03  0.7546771E-02  0.1081379E+00
         21   -1    0    0  502  501  0.00000000000E+00  0.00000000000E+00  0.17145321728E+03  0.17145321728E+03  0.00000000000E+00 0. -1.
         21   -1    0    0  501  502 -0.00000000000E+00 -0.00000000000E+00 -0.55276990443E+03  0.55276990443E+03  0.00000000000E+00 0. -1.
         25    1    1    2    0    0 -0.12753243239E+03 -0.10587502313E+03 -0.15798252276E+03  0.26087836118E+03  0.12500000000E+03 0.  0.
         25    1    1    2    0    0  0.25285084638E+02  0.13978996772E+03 -0.23044335979E+03  0.29817731747E+03  0.12500000000E+03 0.  0.
         25    1    1    2    0    0  0.10224734776E+03 -0.33914944597E+02  0.71091953873E+01  0.16516744307E+03  0.12500000000E+03 0.  0.
</event>
<event>
 5    0  0.6771780E-005  0.5417207E+03  0.7546771E-02  0.1003429E+00
         21   -1    0    0  502  501  0.00000000000E+00  0.00000000000E+00  0.40075953798E+03  0.40075953798E+03  0.00000000000E+00 0.  1.
         21   -1    0    0  501  502 -0.00000000000E+00 -0.00000000000E+00 -0.73226296516E+03  0.73226296516E+03  0.00000000000E+00 0.  1.
         25    1    1    2    0    0 -0.62701559304E+02  0.39232811221E+03 -0.23757871454E+02  0.41718373605E+03  0.12500000000E+03 0.  0.
         25    1    1    2    0    0  0.18484760968E+03 -0.21665324153E+03  0.12072918528E+02  0.31125234333E+03  0.12500000000E+03 0.  0.
         25    1    1    2    0    0 -0.12214605038E+03 -0.17567487068E+03 -0.31981847425E+03  0.40458642375E+03  0.12500000000E+03 0.  0.
</event>
<event>
 5    0  0.5663008E-005  0.2455677E+03  0.7546771E-02  0.1116138E+00
         21   -1    0    0  502  501  0.00000000000E+00  0.00000000000E+00  0.12513102862E+04  0.12513102862E+04  0.00000000000E+00 0.  1.
         21   -1    0    0  501  502 -0.00000000000E+00 -0.00000000000E+00 -0.48192292862E+02  0.48192292862E+02  0.00000000000E+00 0.  1.
         25    1    1    2    0    0  0.40529149608E+02  0.40422290683E+02  0.20025129961E+03  0.24290359517E+03  0.12500000000E+03 0.  0.
         25    1    1    2    0    0  0.74804098416E+02  0.24542844699E+02  0.51894630255E+03  0.53956303551E+03  0.12500000000E+03 0.  0.
         25    1    1    2    0    0 -0.11533324802E+03 -0.64965135382E+02  0.48392039120E+03  0.51703594840E+03  0.12500000000E+03 0.  0.
</event>
<event>
 5    0  0.5663008E-005  0.4162519E+03  0.7546771E-02  0.1038293E+00
         21   -1    0    0  502  501  0.00000000000E+00  0.00000000000E+00  0.15173582522E+03  0.15173582522E+03  0.00000000000E+00 0.  1.
         21   -1    0    0  501  502 -0.00000000000E+00 -0.00000000000E+00 -0.11418900178E+04  0.11418900178E+04  0.00000000000E+00 0.  1.
         25    1    1    2    0    0  0.66464312958E+02 -0.29702241239E+03 -0.34982335895E+03  0.48025118514E+03  0.12500000000E+03 0.  0.
         25    1    1    2    0    0  0.26664861823E+02  0.25215882805E+03 -0.20614688531E+03  0.34988087650E+03  0.12500000000E+03 0.  0.
         25    1    1    2    0    0 -0.93129174781E+02  0.44863584345E+02 -0.43418394833E+03  0.46349378138E+03  0.12500000000E+03 0.  0.
</event>
<event>
 5    0  0.5663008E-005  0.2003991E+03  0.7546771E-02  0.1149403E+00
         21   -1    0    0  502  501  0.00000000000E+00  0.00000000000E+00  0.89290448345E+02  0.89290448345E+02  0.00000000000E+00 0. -1.
         21   -1    0    0  501  502 -0.00000000000E+00 -0.00000000000E+00 -0.44976569567E+03  0.44976569567E+03  0.00000000000E+00 0. -1.
         25    1    1    2    0    0 -0.29764293096E+02  0.12827830359E+02 -0.11413815058E+03  0.17234553604E+03  0.12500000000E+03 0.  0.
         25    1    1    2    0    0  0.43027078029E+02  0.35576753887E+02 -0.12061623533E+03  0.18245632651E+03  0.12500000000E+03 0.  0.
         25    1    1    2    0    0 -0.13262784932E+02 -0.48404584246E+02 -0.12572086142E+03  0.18425428146E+03  0.12500000000E+03 0.  0.
</event>
<event>
 5    0  0.5663008E-005  0.6337599E+03  0.7546771E-02  0.9837739E-01
         21   -1    0    0  502  501  0.00000000000E+00  0.00000000000E+00  0.16559633059E+04  0.16559633059E+04  0.00000000000E+00 0. -1.
         21   -1    0    0  501  502 -0.00000000000E+00 -0.00000000000E+00 -0.24254864578E+03  0.24254864578E+03  0.00000000000E+00 0. -1.
         25    1    1    2    0    0 -0.13688400386E+03 -0.25244507096E+03 -0.89549875257E+01  0.31332241567E+03  0.12500000000E+03 0.  0.
         25    1    1    2    0    0  0.12557876356E+03  0.71874533437E+02  0.13349025789E+04  0.13485272965E+04  0.12500000000E+03 0.  0.
         25    1    1    2    0    0  0.11305240298E+02  0.18057053752E+03  0.87467068804E+02  0.23666223950E+03  0.12500000000E+03 0.  0.
</event>
