<event>
 6    0  0.3082502E+002  0.1219032E+03  0.7546771E-02  0.1239990E+00
          2   -1    0    0  504    0 -0.00000000000E+00  0.00000000000E+00  0.33738476577E+02  0.33738476577E+02  0.00000000000E+00 0. -1.
         21   -1    0    0  503  502  0.00000000000E+00 -0.00000000000E+00 -0.95840199723E+03  0.95840199723E+03  0.00000000000E+00 0. -1.
         21    1    1    2  503  501 -0.59291841722E+02  0.63778880929E+02 -0.11844685836E+03  0.14701335450E+03  0.00000000000E+00 0.  1.
         21    1    1    2  504  505  0.27243245883E+02 -0.12869825994E+02 -0.42955890907E+02  0.52469376125E+02  0.00000000000E+00 0. -1.
         21    1    1    2  505  502  0.34680692187E+02 -0.10323541321E+03 -0.70868497399E+03  0.71700397022E+03  0.00000000000E+00 0. -1.
          2    1    1    2  501    0 -0.26320963483E+01  0.52326358272E+02 -0.54575797394E+02  0.75653772955E+02  0.00000000000E+00 0. -1.
<scales pt_clust_3="39.07816" pt_clust_4="30.13017" pt_clust_5="111.94451" pt_clust_6="39.07816"></scales>
<clustering>
<clus scale="   30.130">  1  4  2 -1</clus>
<clus scale="   39.078">  3  6 -1 -1</clus>
<clus scale="  111.945">  2  5  1 -1</clus>
<clus scale="  111.945">  2  3  1 -1</clus>
</clustering>
</event>
<event>
 6    0  0.3082502E+002  0.1214185E+03  0.7546771E-02  0.1240775E+00
         21   -1    0    0  505  502  0.00000000000E+00  0.00000000000E+00  0.11916555249E+04  0.11916555249E+04  0.00000000000E+00 0. -1.
         -1   -1    0    0    0  501 -0.00000000000E+00 -0.00000000000E+00 -0.83900378456E+03  0.83900378456E+03  0.00000000000E+00 0. -1.
         21    1    1    2  503  502  0.45701959569E+02 -0.55250522845E+02  0.95672073444E+03  0.95940390508E+03  0.00000000000E+00 0. -1.
         21    1    1    2  504  501  0.39527509501E+02  0.37334921710E+02 -0.45969032495E+01  0.54566032528E+02  0.00000000000E+00 0. -1.
         21    1    1    2  505  504  0.31654894883E+02 -0.40400295841E+02  0.20006943842E+03  0.20654780673E+03  0.00000000000E+00 0. -1.
         -1    1    1    2    0  503 -0.11688436395E+03  0.58315896976E+02 -0.79954152931E+03  0.81014156508E+03  0.00000000000E+00 0. -1.
<scales pt_clust_3="14000.00000" pt_clust_4="54.26790" pt_clust_5="51.32462" pt_clust_6="121.41849"></scales>
<clustering>
<clus scale="   51.325">  1  5  2 -1</clus>
<clus scale="   54.268">  2  4  1 -1</clus>
<clus scale="  121.418">  2  6  1 -1</clus>
<clus scale="   51.325">  1  3  2 -1</clus>
</clustering>
</event>
<event>
 6    0  0.3082502E+002  0.1056545E+03  0.7546771E-02  0.1268835E+00
         21   -1    0    0  503  502  0.00000000000E+00  0.00000000000E+00  0.59835812098E+03  0.59835812098E+03  0.00000000000E+00 0. -1.
          2   -1    0    0  505    0 -0.00000000000E+00 -0.00000000000E+00 -0.42567629520E+03  0.42567629520E+03  0.00000000000E+00 0. -1.
         21    1    1    2  503  501  0.39094725132E+02 -0.32709772569E+00  0.85574610738E+02  0.94082509155E+02  0.00000000000E+00 0. -1.
         21    1    1    2  504  502  0.36672767392E+02 -0.49216828877E+02  0.47319469290E+03  0.47715867958E+03  0.00000000000E+00 0. -1.
         21    1    1    2  505  504  0.60027273913E+02  0.76554721068E+02 -0.17807516952E+03  0.20291541324E+03  0.00000000000E+00 0. -1.
          2    1    1    2  501    0 -0.13579476644E+03 -0.27010794465E+02 -0.20801230834E+03  0.24987781420E+03  0.00000000000E+00 0. -1.
<scales pt_clust_3="39.09609" pt_clust_4="88.38106" pt_clust_5="105.65449" pt_clust_6="14000.00000"></scales>
<clustering>
<clus scale="   39.096">  1  3  2 -1</clus>
<clus scale="   88.381">  1  4  2 -1</clus>
<clus scale="  105.654">  2  5  1 -1</clus>
<clus scale="   39.096">  1  3  2 -1</clus>
</clustering>
</event>
<event>
 6    0  0.3082502E+002  0.1694854E+03  0.7546771E-02  0.1178386E+00
          2   -1    0    0  502    0 -0.00000000000E+00  0.00000000000E+00  0.11370097291E+04  0.11370097291E+04  0.00000000000E+00 0. -1.
         21   -1    0    0  503  502  0.00000000000E+00 -0.00000000000E+00 -0.72629399855E+02  0.72629399855E+02  0.00000000000E+00 0.  1.
         21    1    1    2  503  505 -0.13527357524E+02  0.29154998196E+02 -0.12388906925E+02  0.34445439991E+02  0.00000000000E+00 0.  1.
         21    1    1    2  504  501  0.87741101718E+02 -0.10120262790E+02  0.47222473885E+03  0.48041349339E+03  0.00000000000E+00 0.  1.
         21    1    1    2  505  504 -0.13467538442E+03  0.39375055875E+02  0.75965113644E+02  0.15955736487E+03  0.00000000000E+00 0.  1.
          2    1    1    2  501    0  0.60461640228E+02 -0.58409791280E+02  0.52857938370E+03  0.53522283072E+03  0.00000000000E+00 0. -1.
<scales pt_clust_3="32.14037" pt_clust_4="55.35750" pt_clust_5="159.61663" pt_clust_6="55.35750"></scales>
<clustering>
<clus scale="   32.140">  2  3  1 -1</clus>
<clus scale="   55.358">  4  6 -1 -1</clus>
<clus scale="  159.617">  2  5  1 -1</clus>
<clus scale="   32.140">  2  3  1 -1</clus>
</clustering>
</event>
<event>
 6    0  0.3082502E+002  0.1387246E+03  0.7546771E-02  0.1215055E+00
          2   -1    0    0  503    0 -0.00000000000E+00  0.00000000000E+00  0.10390548001E+04  0.10390548001E+04  0.00000000000E+00 0. -1.
         21   -1    0    0  505  502  0.00000000000E+00 -0.00000000000E+00 -0.81090154799E+02  0.81090154799E+02  0.00000000000E+00 0. -1.
         21    1    1    2  503  504  0.64956400267E+02 -0.98405330365E+02  0.35087129189E+03  0.37015349039E+03  0.00000000000E+00 0.  1.
         21    1    1    2  504  502  0.88374411717E+01  0.58378278361E+02  0.40282234633E+02  0.71475745381E+02  0.00000000000E+00 0. -1.
         21    1    1    2  505  501 -0.36332209181E+02 -0.13760609599E+03  0.90192105255E+02  0.16849356940E+03  0.00000000000E+00 0. -1.
          2    1    1    2  501    0 -0.37461632258E+02  0.17763314800E+03  0.47661901356E+03  0.51002214976E+03  0.00000000000E+00 0. -1.
<scales pt_clust_3="138.72462" pt_clust_4="59.04341" pt_clust_5="107.29925" pt_clust_6="14000.00000"></scales>
<clustering>
<clus scale="   59.043">  2  4  1 -1</clus>
<clus scale="  107.299">  2  5  1 -1</clus>
<clus scale="  138.725">  1  3  2 -1</clus>
<clus scale="   59.043">  2  3  1 -1</clus>
</clustering>
</event>
<event>
 6    0  0.3082502E+002  0.2046386E+03  0.7546771E-02  0.1145883E+00
          2   -1    0    0  504    0 -0.00000000000E+00  0.00000000000E+00  0.19283729339E+04  0.19283729339E+04  0.00000000000E+00 0. -1.
         21   -1    0    0  503  502  0.00000000000E+00 -0.00000000000E+00 -0.10924089694E+04  0.10924089694E+04  0.00000000000E+00 0.  1.
         21    1    1    2  503  501 -0.18367731487E+03 -0.10302375718E+03 -0.10220680551E+04  0.10435393427E+04  0.00000000000E+00 0.  1.
         21    1    1    2  504  505 -0.36074838522E+02 -0.23530454614E+02  0.95127243191E+03  0.95224698266E+03  0.00000000000E+00 0. -1.
         21    1    1    2  505  502  0.12030851742E+03  0.89488466216E+02  0.44748374213E+02  0.15647601076E+03  0.00000000000E+00 0. -1.
          2    1    1    2  501    0  0.99443635976E+02  0.37065745582E+02  0.86201121351E+03  0.86851956710E+03  0.00000000000E+00 0. -1.
<scales pt_clust_3="204.63859" pt_clust_4="43.07060" pt_clust_5="14000.00000" pt_clust_6="69.40336"></scales>
<clustering>
<clus scale="   43.071">  1  4  2 -1</clus>
<clus scale="   69.403">  1  6  2 -1</clus>
<clus scale="  204.639">  2  3  1 -1</clus>
<clus scale="  204.639">  2  3  1 -1</clus>
</clustering>
</event>
<event>
 6    0  0.3082502E+002  0.8913317E+02  0.7546771E-02  0.1304965E+00
         21   -1    0    0  504  502  0.00000000000E+00  0.00000000000E+00  0.38076941885E+03  0.38076941885E+03  0.00000000000E+00 0. -1.
          2   -1    0    0  503    0 -0.00000000000E+00 -0.00000000000E+00 -0.26074617143E+04  0.26074617143E+04  0.00000000000E+00 0. -1.
         21    1    1    2  503  505  0.43222780348E+02  0.29164016845E+02 -0.10975101618E+03  0.12150734205E+03  0.00000000000E+00 0. -1.
         21    1    1    2  504  501  0.12508936133E+03 -0.73905167286E+02  0.33505924491E+03  0.36520407949E+03  0.00000000000E+00 0. -1.
         21    1    1    2  505  502 -0.52794824486E+02  0.24363240609E+02 -0.12847316175E+02  0.59547581969E+02  0.00000000000E+00 0. -1.
          2    1    1    2  501    0 -0.11551731720E+03  0.20377909831E+02 -0.24391532080E+04  0.24419721296E+04  0.00000000000E+00 0. -1.
<scales pt_clust_3="52.14162" pt_clust_4="14000.00000" pt_clust_5="57.75622" pt_clust_6="89.13317"></scales>
<clustering>
<clus scale="   52.142">  2  3  1 -1</clus>
<clus scale="   57.756">  1  5  2 -1</clus>
<clus scale="   89.133">  2  6  1 -1</clus>
<clus scale="   57.756">  1  3  2 -1</clus>
</clustering>
</event>
<event>
 6    0  0.3082502E+002  0.1618038E+03  0.7546771E-02  0.1186675E+00
         21   -1    0    0  503  502  0.00000000000E+00  0.00000000000E+00  0.40815606573E+03  0.40815606573E+03  0.00000000000E+00 0. -1.
          1   -1    0    0  504    0 -0.00000000000E+00 -0.00000000000E+00 -0.83477268043E+03  0.83477268043E+03  0.00000000000E+00 0. -1.
         21    1    1    2  503  501  0.15849946995E+03  0.37160485738E+01  0.82666225064E+02  0.17880043556E+03  0.00000000000E+00 0. -1.
         21    1    1    2  504  505 -0.36827771255E+02  0.37130726427E+02 -0.52146395455E+03  0.52407979495E+03  0.00000000000E+00 0. -1.
         21    1    1    2  505  502 -0.15468558071E+03  0.69122895829E+02  0.23481093004E+03  0.28955444475E+03  0.00000000000E+00 0. -1.
          1    1    1    2  501    0  0.33013882022E+02 -0.10996967083E+03 -0.22262981525E+03  0.25049407089E+03  0.00000000000E+00 0. -1.
<scales pt_clust_3="14000.00000" pt_clust_4="52.29699" pt_clust_5="161.80381" pt_clust_6="81.97503"></scales>
<clustering>
<clus scale="   52.297">  2  4  1 -1</clus>
<clus scale="   81.975">  2  6  1 -1</clus>
<clus scale="  161.804">  1  5  2 -1</clus>
<clus scale="  161.804">  1  3  2 -1</clus>
</clustering>
</event>
<event>
 6    0  0.3082502E+002  0.9344382E+02  0.7546771E-02  0.1294720E+00
          1   -1    0    0  504    0 -0.00000000000E+00  0.00000000000E+00  0.64339041943E+03  0.64339041943E+03  0.00000000000E+00 0. -1.
         21   -1    0    0  503  502  0.00000000000E+00 -0.00000000000E+00 -0.62710296046E+02  0.62710296046E+02  0.00000000000E+00 0. -1.
         21    1    1    2  503  505 -0.51085604968E+02  0.23920874060E+02  0.40317070624E+02  0.69335513515E+02  0.00000000000E+00 0. -1.
         21    1    1    2  504  502  0.11609015078E+03  0.65999216713E+02  0.12828579646E+03  0.18517576863E+03  0.00000000000E+00 0. -1.
         21    1    1    2  505  501 -0.41041702169E+02 -0.54156771232E+02  0.43888170811E+02  0.80892204348E+02  0.00000000000E+00 0. -1.
          1    1    1    2  501    0 -0.23962843645E+02 -0.35763319540E+02  0.36818908549E+03  0.37069722898E+03  0.00000000000E+00 0. -1.
<scales pt_clust_3="58.34160" pt_clust_4="14000.00000" pt_clust_5="93.44382" pt_clust_6="43.04919"></scales>
<clustering>
<clus scale="   43.049">  1  6  2 -1</clus>
<clus scale="   58.342">  2  3  1 -1</clus>
<clus scale="   93.444">  2  5  1 -1</clus>
<clus scale="   58.342">  2  3  1 -1</clus>
</clustering>
</event>
<event>
 6    0  0.3082502E+002  0.1095233E+03  0.7546771E-02  0.1261455E+00
          1   -1    0    0  503    0 -0.00000000000E+00  0.00000000000E+00  0.38654204109E+03  0.38654204109E+03  0.00000000000E+00 0. -1.
         21   -1    0    0  501  502  0.00000000000E+00 -0.00000000000E+00 -0.31176951889E+03  0.31176951889E+03  0.00000000000E+00 0. -1.
         21    1    1    2  503  505  0.46471382631E-01 -0.73290934391E+02  0.92125818639E+02  0.11772310599E+03  0.00000000000E+00 0.  1.
         21    1    1    2  504  502  0.39659025530E+02  0.25206616337E+02 -0.67912301168E+02  0.82585061985E+02  0.00000000000E+00 0. -1.
         21    1    1    2  505  504 -0.14289489054E+03  0.52930032625E+01 -0.18704928904E+03  0.23544511496E+03  0.00000000000E+00 0. -1.
          1    1    1    2  501    0  0.10318939363E+03  0.42791314791E+02  0.23760829376E+03  0.26255827705E+03  0.00000000000E+00 0. -1.
<scales pt_clust_3="71.96036" pt_clust_4="46.99161" pt_clust_5="14000.00000" pt_clust_6="109.52331"></scales>
<clustering>
<clus scale="   46.992">  2  4  1 -1</clus>
<clus scale="   71.960">  1  3  2 -1</clus>
<clus scale="  109.523">  1  6  2 -1</clus>
<clus scale="   46.992">  2  3  1 -1</clus>
</clustering>
</event>
<event>
 6    0  0.3082502E+002  0.9424959E+02  0.7546771E-02  0.1292875E+00
         21   -1    0    0  504  502  0.00000000000E+00  0.00000000000E+00  0.97891009270E+02  0.97891009270E+02  0.00000000000E+00 0.  1.
          2   -1    0    0  505    0 -0.00000000000E+00 -0.00000000000E+00 -0.81408581711E+03  0.81408581711E+03  0.00000000000E+00 0.  1.
         21    1    1    2  503  501  0.52346743889E+02  0.49529656785E+02 -0.11166760626E+03  0.13290230542E+03  0.00000000000E+00 0.  1.
         21    1    1    2  504  503  0.31350782005E+02  0.60556301477E+02  0.33584654533E+02  0.76012276647E+02  0.00000000000E+00 0.  1.
         21    1    1    2  505  502 -0.36951423278E+02 -0.16921455923E+02  0.13761230648E+02  0.42908213920E+02  0.00000000000E+00 0.  1.
          2    1    1    2  501    0 -0.46746102615E+02 -0.93164502339E+02 -0.65187308677E+03  0.66015403040E+03  0.00000000000E+00 0.  1.
<scales pt_clust_3="14000.00000" pt_clust_4="47.27815" pt_clust_5="40.64165" pt_clust_6="94.24959"></scales>
<clustering>
<clus scale="   40.642">  1  5  2 -1</clus>
<clus scale="   47.278">  1  4  2 -1</clus>
<clus scale="   94.250">  2  6  1 -1</clus>
<clus scale="   40.642">  1  3  2 -1</clus>
</clustering>
</event>
<event>
 6    0  0.3082502E+002  0.1315894E+03  0.7546771E-02  0.1225116E+00
          1   -1    0    0  503    0 -0.00000000000E+00  0.00000000000E+00  0.12633137241E+04  0.12633137241E+04  0.00000000000E+00 0. -1.
         21   -1    0    0  504  502  0.00000000000E+00 -0.00000000000E+00 -0.22891070540E+03  0.22891070540E+03  0.00000000000E+00 0. -1.
         21    1    1    2  503  502 -0.34583033828E+02 -0.29439773931E+01 -0.10196755450E+03  0.10771274484E+03  0.00000000000E+00 0. -1.
         21    1    1    2  504  505  0.15579347767E+03  0.15442773030E+02 -0.69708455524E+02  0.17137489809E+03  0.00000000000E+00 0. -1.
         21    1    1    2  505  501 -0.41681989328E+02 -0.25935706920E+02  0.52814585692E+03  0.53042256297E+03  0.00000000000E+00 0. -1.
          1    1    1    2  501    0 -0.79528454512E+02  0.13436911283E+02  0.67793317178E+03  0.68271422356E+03  0.00000000000E+00 0. -1.
<scales pt_clust_3="34.70811" pt_clust_4="122.84019" pt_clust_5="36.76814" pt_clust_6="36.76814"></scales>
<clustering>
<clus scale="   34.708">  2  3  1 -1</clus>
<clus scale="   36.768">  5  6 -1 -1</clus>
<clus scale="  122.840">  2  4  1 -1</clus>
<clus scale="   34.708">  2  3  1 -1</clus>
</clustering>
</event>
<event>
 6    0  0.3082502E+002  0.7487434E+02  0.7546771E-02  0.1344261E+00
         21   -1    0    0  505  502  0.00000000000E+00  0.00000000000E+00  0.10559540016E+04  0.10559540016E+04  0.00000000000E+00 0.  1.
          4   -1    0    0  504    0 -0.00000000000E+00 -0.00000000000E+00 -0.16602642711E+03  0.16602642711E+03  0.00000000000E+00 0. -1.
         21    1    1    2  503  502 -0.52724771331E+02  0.64331126384E+02  0.77003475948E+03  0.77451399351E+03  0.00000000000E+00 0.  1.
         21    1    1    2  504  503 -0.43948761868E+02 -0.31991465369E+02 -0.14586612688E+03  0.15566590667E+03  0.00000000000E+00 0. -1.
         21    1    1    2  505  501  0.39615458549E+02  0.15227064982E+02  0.13379507441E+03  0.14036513100E+03  0.00000000000E+00 0.  1.
          4    1    1    2  501    0  0.57058074650E+02 -0.47566725997E+02  0.13196386750E+03  0.15143539755E+03  0.00000000000E+00 0. -1.
<scales pt_clust_3="74.87434" pt_clust_4="54.14088" pt_clust_5="42.44111" pt_clust_6="14000.00000"></scales>
<clustering>
<clus scale="   42.441">  1  5  2 -1</clus>
<clus scale="   54.141">  2  4  1 -1</clus>
<clus scale="   74.874">  1  3  2 -1</clus>
<clus scale="   42.441">  1  3  2 -1</clus>
</clustering>
</event>
<event>
 6    0  0.3082502E+002  0.1168968E+03  0.7546771E-02  0.1248306E+00
          2   -1    0    0  505    0 -0.00000000000E+00  0.00000000000E+00  0.55984629186E+03  0.55984629186E+03  0.00000000000E+00 0. -1.
         21   -1    0    0  504  502  0.00000000000E+00 -0.00000000000E+00 -0.59245517768E+03  0.59245517768E+03  0.00000000000E+00 0.  1.
         21    1    1    2  503  501 -0.75599470401E+02  0.83612537748E+02  0.12670103408E+03  0.16958622712E+03  0.00000000000E+00 0.  1.
         21    1    1    2  504  503 -0.19613385076E+02 -0.49095108246E+02 -0.48060641585E+03  0.48350547203E+03  0.00000000000E+00 0.  1.
         21    1    1    2  505  502 -0.28717650039E+02 -0.10365654081E+02 -0.76228204216E+02  0.82115098041E+02  0.00000000000E+00 0. -1.
          2    1    1    2  501    0  0.12393050552E+03 -0.24151775421E+02  0.39752470017E+03  0.41709467234E+03  0.00000000000E+00 0. -1.
<scales pt_clust_3="14000.00000" pt_clust_4="75.04027" pt_clust_5="30.53114" pt_clust_6="116.89685"></scales>
<clustering>
<clus scale="   30.531">  2  5  1 -1</clus>
<clus scale="   75.040">  2  4  1 -1</clus>
<clus scale="  116.897">  1  6  2 -1</clus>
<clus scale="   30.531">  2  3  1 -1</clus>
</clustering>
</event>
<event>
 6    0  0.3082502E+002  0.7794565E+02  0.7546771E-02  0.1334985E+00
         21   -1    0    0  504  502  0.00000000000E+00  0.00000000000E+00  0.12341401628E+03  0.12341401628E+03  0.00000000000E+00 0. -1.
          1   -1    0    0  505    0 -0.00000000000E+00 -0.00000000000E+00 -0.14380501447E+04  0.14380501447E+04  0.00000000000E+00 0. -1.
         21    1    1    2  503  502  0.60912827026E+02 -0.28931167989E+02  0.64945639015E+02  0.93623293067E+02  0.00000000000E+00 0. -1.
         21    1    1    2  504  501 -0.33652761576E+02 -0.33383239378E+02  0.13290119320E+02  0.49229831451E+02  0.00000000000E+00 0. -1.
         21    1    1    2  505  503 -0.53722748664E+02  0.12838543972E+03 -0.40629353340E+03  0.42946873011E+03  0.00000000000E+00 0. -1.
          1    1    1    2  501    0  0.26462683214E+02 -0.66071032356E+02 -0.98657835333E+03  0.98914230634E+03  0.00000000000E+00 0. -1.
<scales pt_clust_3="65.91828" pt_clust_4="47.40199" pt_clust_5="14000.00000" pt_clust_6="77.94565"></scales>
<clustering>
<clus scale="   47.402">  1  4  2 -1</clus>
<clus scale="   65.918">  1  3  2 -1</clus>
<clus scale="   77.946">  2  6  1 -1</clus>
<clus scale="   47.402">  1  3  2 -1</clus>
</clustering>
</event>
<event>
 6    0  0.3082502E+002  0.8358713E+02  0.7546771E-02  0.1319169E+00
          1   -1    0    0  503    0 -0.00000000000E+00  0.00000000000E+00  0.12741667212E+04  0.12741667212E+04  0.00000000000E+00 0. -1.
         21   -1    0    0  501  502  0.00000000000E+00 -0.00000000000E+00 -0.25607452114E+03  0.25607452114E+03  0.00000000000E+00 0.  1.
         21    1    1    2  503  504 -0.43599914149E+01  0.66611136888E+02  0.29050511250E+03  0.29807595252E+03  0.00000000000E+00 0.  1.
         21    1    1    2  504  505 -0.99922179139E+02  0.12478002802E+02  0.26591882999E+02  0.10415023130E+03  0.00000000000E+00 0.  1.
         21    1    1    2  505  502  0.43286440644E+02  0.43882623351E+02 -0.20377381287E+03  0.21289238452E+03  0.00000000000E+00 0.  1.
          1    1    1    2  501    0  0.60995729909E+02 -0.12297176304E+03  0.90476901745E+03  0.91512267402E+03  0.00000000000E+00 0. -1.
<scales pt_clust_3="70.09673" pt_clust_4="83.58713" pt_clust_5="61.63928" pt_clust_6="14000.00000"></scales>
<clustering>
<clus scale="   61.639">  2  5  1 -1</clus>
<clus scale="   70.097">  1  3  2 -1</clus>
<clus scale="   83.587">  2  4  1 -1</clus>
<clus scale="   61.639">  2  3  1 -1</clus>
</clustering>
</event>
<event>
 6    0  0.3082502E+002  0.1055790E+03  0.7546771E-02  0.1268983E+00
          2   -1    0    0  505    0 -0.00000000000E+00  0.00000000000E+00  0.81081642620E+03  0.81081642620E+03  0.00000000000E+00 0.  1.
         21   -1    0    0  501  502  0.00000000000E+00 -0.00000000000E+00 -0.88509720176E+02  0.88509720176E+02  0.00000000000E+00 0. -1.
         21    1    1    2  503  502  0.27514955843E+02  0.18624937948E+02 -0.17336912576E+02  0.37477054931E+02  0.00000000000E+00 0. -1.
         21    1    1    2  504  503 -0.12109294216E+03 -0.11387022606E+02  0.45887463456E+02  0.12999547772E+03  0.00000000000E+00 0. -1.
         21    1    1    2  505  504 -0.12456976402E+02 -0.60686129361E+02  0.50546302625E+03  0.50924537648E+03  0.00000000000E+00 0.  1.
          2    1    1    2  501    0  0.10603496272E+03  0.53448214018E+02  0.18829312889E+03  0.22260823724E+03  0.00000000000E+00 0.  1.
<scales pt_clust_3="33.22591" pt_clust_4="105.57897" pt_clust_5="61.21975" pt_clust_6="14000.00000"></scales>
<clustering>
<clus scale="   33.226">  2  3  1 -1</clus>
<clus scale="   61.220">  1  5  2 -1</clus>
<clus scale="  105.579">  2  4  1 -1</clus>
<clus scale="   33.226">  2  3  1 -1</clus>
</clustering>
</event>
<event>
 6    0  0.3082502E+002  0.7157325E+02  0.7546771E-02  0.1354823E+00
         21   -1    0    0  503  502  0.00000000000E+00  0.00000000000E+00  0.27721001776E+03  0.27721001776E+03  0.00000000000E+00 0.  1.
          2   -1    0    0  504    0 -0.00000000000E+00 -0.00000000000E+00 -0.19193426989E+03  0.19193426989E+03  0.00000000000E+00 0.  1.
         21    1    1    2  503  501  0.99223469677E+02 -0.10460799597E+02  0.14255322772E+03  0.17400042528E+03  0.00000000000E+00 0.  1.
         21    1    1    2  504  505 -0.15844420275E+02 -0.43188407357E+02 -0.11551816086E+03  0.12434118253E+03  0.00000000000E+00 0. -1.
         21    1    1    2  505  502 -0.38837625677E+02 -0.14778400300E+02  0.76573873121E+02  0.87122444458E+02  0.00000000000E+00 0. -1.
          2    1    1    2  501    0 -0.44541423725E+02  0.68427607254E+02 -0.18333192121E+02  0.83680235392E+02  0.00000000000E+00 0.  1.
<scales pt_clust_3="71.57325" pt_clust_4="46.62382" pt_clust_5="41.55433" pt_clust_6="14000.00000"></scales>
<clustering>
<clus scale="   41.554">  1  5  2 -1</clus>
<clus scale="   46.624">  2  4  1 -1</clus>
<clus scale="   71.573">  1  3  2 -1</clus>
<clus scale="   41.554">  1  3  2 -1</clus>
</clustering>
</event>
<event>
 6    0  0.3082502E+002  0.1688168E+03  0.7546771E-02  0.1179087E+00
          2   -1    0    0  505    0 -0.00000000000E+00  0.00000000000E+00  0.22533859597E+04  0.22533859597E+04  0.00000000000E+00 0. -1.
         21   -1    0    0  503  502  0.00000000000E+00 -0.00000000000E+00 -0.78753989783E+02  0.78753989783E+02  0.00000000000E+00 0. -1.
         21    1    1    2  503  501 -0.44665637361E+02 -0.13148925061E+02 -0.49361343409E+02  0.67856139105E+02  0.00000000000E+00 0. -1.
         21    1    1    2  504  502  0.21540104851E+03  0.63497272498E+01  0.10054923778E+04  0.10283252659E+04  0.00000000000E+00 0. -1.
         21    1    1    2  505  504 -0.43993156255E+02  0.55821796997E+02  0.42908221728E+03  0.43492875279E+03  0.00000000000E+00 0. -1.
          2    1    1    2  501    0 -0.12674225489E+03 -0.49022599185E+02  0.78941871825E+03  0.80102979166E+03  0.00000000000E+00 0. -1.
<scales pt_clust_3="46.56086" pt_clust_4="14000.00000" pt_clust_5="73.85374" pt_clust_6="168.81681"></scales>
<clustering>
<clus scale="   46.561">  2  3  1 -1</clus>
<clus scale="   73.854">  1  5  2 -1</clus>
<clus scale="  168.817">  1  6  2 -1</clus>
<clus scale="   46.561">  2  3  1 -1</clus>
</clustering>
</event>
<event>
 6    0  0.3082502E+002  0.1820882E+03  0.7546771E-02  0.1165797E+00
          2   -1    0    0  504    0 -0.00000000000E+00  0.00000000000E+00  0.90451342444E+03  0.90451342444E+03  0.00000000000E+00 0.  1.
         21   -1    0    0  503  502  0.00000000000E+00 -0.00000000000E+00 -0.22570009161E+03  0.22570009161E+03  0.00000000000E+00 0.  1.
         21    1    1    2  503  501 -0.17839042323E+03  0.11989709195E+03 -0.10340747626E+03  0.23851952101E+03  0.00000000000E+00 0.  1.
         21    1    1    2  504  505  0.36212845833E+02 -0.14586345440E+03  0.45977583013E+03  0.48371616833E+03  0.00000000000E+00 0.  1.
         21    1    1    2  505  502  0.96516259636E+01 -0.35019104940E+02 -0.15801201306E+02  0.39612744884E+02  0.00000000000E+00 0.  1.
          2    1    1    2  501    0  0.13252595144E+03  0.60985467393E+02  0.33824618027E+03  0.36836508182E+03  0.00000000000E+00 0.  1.
<scales pt_clust_3="182.08818" pt_clust_4="14000.00000" pt_clust_5="36.32481" pt_clust_6="145.46370"></scales>
<clustering>
<clus scale="   36.325">  2  5  1 -1</clus>
<clus scale="  145.464">  1  6  2 -1</clus>
<clus scale="  182.088">  2  3  1 -1</clus>
<clus scale="   36.325">  2  3  1 -1</clus>
</clustering>
</event>
<event>
 6    0  0.3082502E+002  0.1215089E+03  0.7546771E-02  0.1240628E+00
         21   -1    0    0  503  502  0.00000000000E+00  0.00000000000E+00  0.10090977929E+03  0.10090977929E+03  0.00000000000E+00 0.  1.
          2   -1    0    0  505    0 -0.00000000000E+00 -0.00000000000E+00 -0.27000028658E+04  0.27000028658E+04  0.00000000000E+00 0.  1.
         21    1    1    2  503  504 -0.41558599828E+02 -0.46949647651E+02  0.28773510490E+02  0.68987691221E+02  0.00000000000E+00 0.  1.
         21    1    1    2  504  501 -0.11452718400E+02  0.15627759336E+03 -0.77451918262E+02  0.17479316517E+03  0.00000000000E+00 0.  1.
         21    1    1    2  505  502  0.15698662159E+01 -0.37354133143E+02 -0.13454765296E+03  0.13964550354E+03  0.00000000000E+00 0.  1.
          2    1    1    2  501    0  0.51441452012E+02 -0.71973812571E+02 -0.24158670257E+04  0.24174862851E+04  0.00000000000E+00 0.  1.
<scales pt_clust_3="62.91238" pt_clust_4="121.50885" pt_clust_5="37.38711" pt_clust_6="14000.00000"></scales>
<clustering>
<clus scale="   37.387">  2  5  1 -1</clus>
<clus scale="   62.912">  1  3  2 -1</clus>
<clus scale="  121.509">  1  4  2 -1</clus>
<clus scale="   62.912">  1  3  2 -1</clus>
</clustering>
</event>
<event>
 6    0  0.3082502E+002  0.1202142E+03  0.7546771E-02  0.1242744E+00
         21   -1    0    0  503  502  0.00000000000E+00  0.00000000000E+00  0.19085617987E+04  0.19085617987E+04  0.00000000000E+00 0. -1.
          2   -1    0    0  504    0 -0.00000000000E+00 -0.00000000000E+00 -0.15067649470E+04  0.15067649470E+04  0.00000000000E+00 0.  1.
         21    1    1    2  503  501  0.73336628110E+02  0.91502196553E+02  0.15716300398E+04  0.15759986976E+04  0.00000000000E+00 0. -1.
         21    1    1    2  504  505 -0.14660727478E+03  0.88839763281E+02 -0.38578946969E+03  0.42216076497E+03  0.00000000000E+00 0.  1.
         21    1    1    2  505  502 -0.16086922117E+02 -0.18377692067E+03  0.28766374099E+03  0.34173553154E+03  0.00000000000E+00 0. -1.
          2    1    1    2  501    0  0.89357568785E+02  0.34349608319E+01 -0.10717074593E+04  0.10754317516E+04  0.00000000000E+00 0.  1.
<scales pt_clust_3="120.21417" pt_clust_4="111.69563" pt_clust_5="14000.00000" pt_clust_6="89.42357"></scales>
<clustering>
<clus scale="   89.424">  2  6  1 -1</clus>
<clus scale="  111.696">  2  4  1 -1</clus>
<clus scale="  120.214">  1  3  2 -1</clus>
<clus scale="  120.214">  1  3  2 -1</clus>
</clustering>
</event>
<event>
 6    0  0.3082502E+002  0.2179291E+03  0.7546771E-02  0.1135436E+00
         21   -1    0    0  501  502  0.00000000000E+00  0.00000000000E+00  0.52185526706E+03  0.52185526706E+03  0.00000000000E+00 0.  1.
          1   -1    0    0  505    0 -0.00000000000E+00 -0.00000000000E+00 -0.14651006515E+03  0.14651006515E+03  0.00000000000E+00 0.  1.
         21    1    1    2  503  504  0.18005748781E+02  0.41187932639E+02  0.53061332866E+02  0.69542489385E+02  0.00000000000E+00 0.  1.
         21    1    1    2  504  502  0.17789103701E+03  0.73359836411E+02  0.29032839364E+03  0.34830656440E+03  0.00000000000E+00 0.  1.
         21    1    1    2  505  503 -0.46408140430E+02 -0.28999246355E+02 -0.35842056226E+02  0.65416548226E+02  0.00000000000E+00 0.  1.
          1    1    1    2  501    0 -0.14948864536E+03 -0.85548522695E+02  0.67797531625E+02  0.18509973021E+03  0.00000000000E+00 0.  1.
<scales pt_clust_3="34.80171" pt_clust_4="34.80171" pt_clust_5="54.72359" pt_clust_6="205.69037"></scales>
<clustering>
<clus scale="   34.802">  3  4 -1 -1</clus>
<clus scale="   54.724">  2  5  1 -1</clus>
<clus scale="  205.690">  2  6  1 -1</clus>
<clus scale="  217.929">  1  3  2 -1</clus>
</clustering>
</event>
<event>
 6    0  0.3082502E+002  0.1003480E+03  0.7546771E-02  0.1279566E+00
         21   -1    0    0  503  502  0.00000000000E+00  0.00000000000E+00  0.22401311724E+04  0.22401311724E+04  0.00000000000E+00 0. -1.
          1   -1    0    0  504    0 -0.00000000000E+00 -0.00000000000E+00 -0.51788676225E+02  0.51788676225E+02  0.00000000000E+00 0. -1.
         21    1    1    2  503  501 -0.56448052336E+02  0.97612008506E+02  0.25077217772E+03  0.27495667283E+03  0.00000000000E+00 0. -1.
         21    1    1    2  504  505  0.51671784598E+02 -0.30814065351E+02  0.66387036700E+03  0.66659083711E+03  0.00000000000E+00 0. -1.
         21    1    1    2  505  502  0.20754200227E+02  0.34260979507E+02  0.12428682437E+04  0.12435135797E+04  0.00000000000E+00 0.  1.
          1    1    1    2  501    0 -0.15977932489E+02 -0.10105892266E+03  0.30831707731E+02  0.10685875901E+03  0.00000000000E+00 0. -1.
<scales pt_clust_3="100.34799" pt_clust_4="66.00136" pt_clust_5="40.05685" pt_clust_6="14000.00000"></scales>
<clustering>
<clus scale="   40.057">  1  5  2 -1</clus>
<clus scale="   66.001">  1  4  2 -1</clus>
<clus scale="  100.348">  1  3  2 -1</clus>
<clus scale="   40.057">  1  3  2 -1</clus>
</clustering>
</event>
<event>
 6    0  0.3082502E+002  0.1000523E+03  0.7546771E-02  0.1280186E+00
          1   -1    0    0  505    0 -0.00000000000E+00  0.00000000000E+00  0.39620954535E+03  0.39620954535E+03  0.00000000000E+00 0. -1.
         21   -1    0    0  503  502  0.00000000000E+00 -0.00000000000E+00 -0.57200883570E+03  0.57200883570E+03  0.00000000000E+00 0.  1.
         21    1    1    2  503  501 -0.29715926719E+02  0.72318250523E+02 -0.49223202124E+03  0.49840277727E+03  0.00000000000E+00 0.  1.
         21    1    1    2  504  502  0.15786613256E+02  0.27326966694E+02 -0.31297486417E+02  0.44446742544E+02  0.00000000000E+00 0.  1.
         21    1    1    2  505  504  0.79020973288E+02  0.39998229202E+02  0.99460050766E+02  0.13317835506E+03  0.00000000000E+00 0. -1.
          1    1    1    2  501    0 -0.65091659825E+02 -0.13964344642E+03  0.24827016653E+03  0.29219050617E+03  0.00000000000E+00 0. -1.
<scales pt_clust_3="100.05233" pt_clust_4="31.55916" pt_clust_5="89.40309" pt_clust_6="14000.00000"></scales>
<clustering>
<clus scale="   31.559">  2  4  1 -1</clus>
<clus scale="   89.403">  1  5  2 -1</clus>
<clus scale="  100.052">  2  3  1 -1</clus>
<clus scale="   31.559">  2  3  1 -1</clus>
</clustering>
</event>
<event>
 6    0  0.3082502E+002  0.6118255E+02  0.7546771E-02  0.1392935E+00
          1   -1    0    0  504    0 -0.00000000000E+00  0.00000000000E+00  0.25640712324E+03  0.25640712324E+03  0.00000000000E+00 0.  1.
         21   -1    0    0  505  502  0.00000000000E+00 -0.00000000000E+00 -0.35422706663E+03  0.35422706663E+03  0.00000000000E+00 0. -1.
         21    1    1    2  503  501 -0.11090751398E+03  0.22318088278E+02  0.90247542888E+02  0.14471763099E+03  0.00000000000E+00 0.  1.
         21    1    1    2  504  502  0.59439994571E+02  0.20121245117E+01  0.64020057335E+02  0.87382660413E+02  0.00000000000E+00 0.  1.
         21    1    1    2  505  503  0.59579827793E+02  0.74045355300E+01 -0.30796548473E+03  0.31376316356E+03  0.00000000000E+00 0. -1.
          1    1    1    2  501    0 -0.81123083873E+01 -0.31734748319E+02  0.55877941110E+02  0.64770734911E+02  0.00000000000E+00 0.  1.
<scales pt_clust_3="14000.00000" pt_clust_4="57.23156" pt_clust_5="61.18255" pt_clust_6="32.75521"></scales>
<clustering>
<clus scale="   32.755">  1  6  2 -1</clus>
<clus scale="   57.232">  1  4  2 -1</clus>
<clus scale="   61.183">  2  5  1 -1</clus>
<clus scale="   61.183">  2  3  1 -1</clus>
</clustering>
</event>
<event>
 6    0  0.3082502E+002  0.7155793E+02  0.7546771E-02  0.1354874E+00
         -3   -1    0    0    0  501 -0.00000000000E+00  0.00000000000E+00  0.57897788444E+03  0.57897788444E+03  0.00000000000E+00 0. -1.
         21   -1    0    0  503  502  0.00000000000E+00 -0.00000000000E+00 -0.22313227920E+03  0.22313227920E+03  0.00000000000E+00 0. -1.
         21    1    1    2  503  505 -0.60976033043E+02 -0.20600160871E+02 -0.10250794329E+03  0.12103851317E+03  0.00000000000E+00 0. -1.
         21    1    1    2  504  502  0.70863681502E+02  0.55086365335E+02 -0.83543028461E+02  0.12261976434E+03  0.00000000000E+00 0. -1.
         21    1    1    2  505  501  0.20518671941E+02  0.23556181632E+02  0.40987822240E+03  0.41106698577E+03  0.00000000000E+00 0. -1.
         -3    1    1    2    0  504 -0.30406320400E+02 -0.58042386096E+02  0.13201835460E+03  0.14738490036E+03  0.00000000000E+00 0. -1.
<scales pt_clust_3="71.55793" pt_clust_4="14000.00000" pt_clust_5="31.23955" pt_clust_6="40.77577"></scales>
<clustering>
<clus scale="   31.240">  1  5  2 -1</clus>
<clus scale="   40.776">  1  6  2 -1</clus>
<clus scale="   71.558">  2  3  1 -1</clus>
<clus scale="   71.558">  2  3  1 -1</clus>
</clustering>
</event>
<event>
 6    0  0.3082502E+002  0.1784174E+03  0.7546771E-02  0.1169344E+00
          1   -1    0    0  504    0 -0.00000000000E+00  0.00000000000E+00  0.75275410538E+03  0.75275410538E+03  0.00000000000E+00 0. -1.
         21   -1    0    0  501  502  0.00000000000E+00 -0.00000000000E+00 -0.13264350376E+03  0.13264350376E+03  0.00000000000E+00 0. -1.
         21    1    1    2  503  502  0.81472648527E+02 -0.28598864519E+02 -0.29636248317E+02  0.91290715432E+02  0.00000000000E+00 0. -1.
         21    1    1    2  504  505  0.40252537268E+02  0.40751378257E+02  0.31695326022E+03  0.32208742718E+03  0.00000000000E+00 0. -1.
         21    1    1    2  505  503  0.20888089487E+02 -0.88970009087E+02 -0.10928318786E+02  0.92040224635E+02  0.00000000000E+00 0. -1.
          1    1    1    2  501    0 -0.14261327528E+03  0.76817495349E+02  0.34372190851E+03  0.37997924189E+03  0.00000000000E+00 0. -1.
<scales pt_clust_3="87.30664" pt_clust_4="57.27950" pt_clust_5="87.30664" pt_clust_6="155.46117"></scales>
<clustering>
<clus scale="   57.280">  1  4  2 -1</clus>
<clus scale="   87.307">  3  5 -1 -1</clus>
<clus scale="  155.461">  1  6  2 -1</clus>
<clus scale="  178.417">  2  3  1 -1</clus>
</clustering>
</event>
<event>
 6    0  0.3082502E+002  0.1044604E+03  0.7546771E-02  0.1271186E+00
          2   -1    0    0  503    0 -0.00000000000E+00  0.00000000000E+00  0.19968759511E+03  0.19968759511E+03  0.00000000000E+00 0. -1.
         21   -1    0    0  501  502  0.00000000000E+00 -0.00000000000E+00 -0.57710752145E+03  0.57710752145E+03  0.00000000000E+00 0.  1.
         21    1    1    2  503  504  0.46566628368E+01  0.35436879657E+02 -0.14349481659E+02  0.38514472247E+02  0.00000000000E+00 0.  1.
         21    1    1    2  504  505  0.41673208714E+02 -0.24506517327E+02  0.58449387293E+02  0.75852202282E+02  0.00000000000E+00 0. -1.
         21    1    1    2  505  502 -0.89190392998E+02 -0.58078124937E+02 -0.52784738542E+03  0.53847085074E+03  0.00000000000E+00 0.  1.
          2    1    1    2  501    0  0.42860521447E+02  0.47147762607E+02  0.10632755344E+03  0.12395759129E+03  0.00000000000E+00 0. -1.
<scales pt_clust_3="35.74153" pt_clust_4="44.92353" pt_clust_5="104.46040" pt_clust_6="14000.00000"></scales>
<clustering>
<clus scale="   35.742">  1  3  2 -1</clus>
<clus scale="   44.924">  1  4  2 -1</clus>
<clus scale="  104.460">  2  5  1 -1</clus>
<clus scale="  104.460">  2  3  1 -1</clus>
</clustering>
</event>
<event>
 6    0  0.3082502E+002  0.8937331E+02  0.7546771E-02  0.1304376E+00
          2   -1    0    0  503    0 -0.00000000000E+00  0.00000000000E+00  0.33337618166E+04  0.33337618166E+04  0.00000000000E+00 0. -1.
         21   -1    0    0  505  502  0.00000000000E+00 -0.00000000000E+00 -0.72673717602E+01  0.72673717602E+01  0.00000000000E+00 0. -1.
         21    1    1    2  503  504 -0.19386097096E+02 -0.76958606212E+02  0.14229788683E+04  0.14251902706E+04  0.00000000000E+00 0. -1.
         21    1    1    2  504  502  0.60841044762E+01 -0.34979587405E+02  0.21826168294E+03  0.22113061774E+03  0.00000000000E+00 0. -1.
         21    1    1    2  505  501  0.38144395911E+02 -0.16161232603E+01  0.14073918864E+03  0.14582566994E+03  0.00000000000E+00 0. -1.
          2    1    1    2  501    0 -0.24842403291E+02  0.11355431688E+03  0.15445147050E+04  0.15488826301E+04  0.00000000000E+00 0. -1.
<scales pt_clust_3="14000.00000" pt_clust_4="35.50476" pt_clust_5="44.14670" pt_clust_6="89.37331"></scales>
<clustering>
<clus scale="   35.505">  2  4  1 -1</clus>
<clus scale="   44.147">  2  5  1 -1</clus>
<clus scale="   89.373">  2  6  1 -1</clus>
<clus scale="   35.505">  2  3  1 -1</clus>
</clustering>
</event>
<event>
 6    0  0.3082502E+002  0.7899924E+02  0.7546771E-02  0.1331916E+00
          2   -1    0    0  505    0 -0.00000000000E+00  0.00000000000E+00  0.12564168620E+03  0.12564168620E+03  0.00000000000E+00 0. -1.
         21   -1    0    0  504  502  0.00000000000E+00 -0.00000000000E+00 -0.29274330996E+03  0.29274330996E+03  0.00000000000E+00 0. -1.
         21    1    1    2  503  502  0.62407585634E+02 -0.87931963572E+02 -0.18098097006E+03  0.21066762563E+03  0.00000000000E+00 0. -1.
         21    1    1    2  504  501 -0.36567876058E+02  0.44031940356E+02 -0.61511250090E+02  0.84021754436E+02  0.00000000000E+00 0. -1.
         21    1    1    2  505  503  0.13529745293E+02  0.48001169788E+02  0.16098954216E+02  0.52405559205E+02  0.00000000000E+00 0.  1.
          2    1    1    2  501    0 -0.39369454869E+02 -0.41011465718E+01  0.59291642176E+02  0.71290056893E+02  0.00000000000E+00 0. -1.
<scales pt_clust_3="14000.00000" pt_clust_4="78.99924" pt_clust_5="46.51633" pt_clust_6="39.58249"></scales>
<clustering>
<clus scale="   39.582">  1  6  2 -1</clus>
<clus scale="   46.516">  1  5  2 -1</clus>
<clus scale="   78.999">  2  4  1 -1</clus>
<clus scale="   78.999">  2  3  1 -1</clus>
</clustering>
</event>
<event>
 6    0  0.3082502E+002  0.1472969E+03  0.7546771E-02  0.1203834E+00
         -2   -1    0    0    0  501 -0.00000000000E+00  0.00000000000E+00  0.56501963782E+03  0.56501963782E+03  0.00000000000E+00 0. -1.
         21   -1    0    0  504  502  0.00000000000E+00 -0.00000000000E+00 -0.10895585498E+03  0.10895585498E+03  0.00000000000E+00 0. -1.
         21    1    1    2  503  501 -0.69790824484E+01 -0.47684805202E+02  0.86964933018E+02  0.99425589331E+02  0.00000000000E+00 0. -1.
         21    1    1    2  504  505  0.11254705403E+03 -0.54878126930E+02  0.91492072617E+02  0.15507819814E+03  0.00000000000E+00 0. -1.
         21    1    1    2  505  503  0.84316152611E+02  0.90045833018E+02  0.12407032155E+03  0.17495973915E+03  0.00000000000E+00 0. -1.
         -2    1    1    2    0  502 -0.18988412419E+03  0.12517099114E+02  0.15353645566E+03  0.24451196618E+03  0.00000000000E+00 0. -1.
<scales pt_clust_3="48.19282" pt_clust_4="147.29687" pt_clust_5="111.15950" pt_clust_6="14000.00000"></scales>
<clustering>
<clus scale="   48.193">  1  3  2 -1</clus>
<clus scale="  111.160">  1  5  2 -1</clus>
<clus scale="  147.297">  2  4  1 -1</clus>
<clus scale="  147.297">  2  3  1 -1</clus>
</clustering>
</event>
<event>
 6    0  0.3082502E+002  0.2285193E+03  0.7546771E-02  0.1127686E+00
         21   -1    0    0  505  502  0.00000000000E+00  0.00000000000E+00  0.37459490943E+02  0.37459490943E+02  0.00000000000E+00 0. -1.
          2   -1    0    0  503    0 -0.00000000000E+00 -0.00000000000E+00 -0.31470101457E+04  0.31470101457E+04  0.00000000000E+00 0.  1.
         21    1    1    2  503  504  0.59695741074E+02  0.20057908613E+01 -0.93284546547E+03  0.93475572592E+03  0.00000000000E+00 0. -1.
         21    1    1    2  504  502 -0.26650699756E+03 -0.52902195629E+02 -0.12736420010E+04  0.13023012588E+04  0.00000000000E+00 0. -1.
         21    1    1    2  505  501  0.36083890182E+02 -0.60948818329E+02 -0.13210093722E+03  0.14989150476E+03  0.00000000000E+00 0. -1.
          2    1    1    2  501    0  0.17072736630E+03  0.11184522310E+03 -0.77096225105E+03  0.79752114711E+03  0.00000000000E+00 0.  1.
<scales pt_clust_3="59.72943" pt_clust_4="14000.00000" pt_clust_5="72.73351" pt_clust_6="228.51928"></scales>
<clustering>
<clus scale="   59.729">  2  3  1 -1</clus>
<clus scale="   72.734">  1  5  2 -1</clus>
<clus scale="  228.519">  1  6  2 -1</clus>
<clus scale="   72.734">  1  3  2 -1</clus>
</clustering>
</event>
<event>
 6    0  0.3082502E+002  0.1471505E+03  0.7546771E-02  0.1204019E+00
          2   -1    0    0  504    0 -0.00000000000E+00  0.00000000000E+00  0.14958040994E+04  0.14958040994E+04  0.00000000000E+00 0.  1.
         21   -1    0    0  505  502  0.00000000000E+00 -0.00000000000E+00 -0.48627590515E+02  0.48627590515E+02  0.00000000000E+00 0. -1.
         21    1    1    2  503  502  0.18546394149E+02  0.17197195222E+03  0.32969687805E+03  0.37231485665E+03  0.00000000000E+00 0. -1.
         21    1    1    2  504  503 -0.38791262194E+02 -0.22269452370E+02  0.21978850475E+03  0.22429373008E+03  0.00000000000E+00 0.  1.
         21    1    1    2  505  501  0.29836589324E+02 -0.29268950772E+02 -0.24419449765E+00  0.41796568911E+02  0.00000000000E+00 0. -1.
          2    1    1    2  501    0 -0.95917212793E+01 -0.12043354908E+03  0.89793532060E+03  0.90602653429E+03  0.00000000000E+00 0.  1.
<scales pt_clust_3="14000.00000" pt_clust_4="43.92963" pt_clust_5="41.79586" pt_clust_6="147.15052"></scales>
<clustering>
<clus scale="   41.796">  2  5  1 -1</clus>
<clus scale="   43.930">  1  4  2 -1</clus>
<clus scale="  147.151">  1  6  2 -1</clus>
<clus scale="   41.796">  2  3  1 -1</clus>
</clustering>
</event>
<event>
 6    0  0.3082502E+002  0.1509882E+03  0.7546771E-02  0.1199264E+00
          2   -1    0    0  503    0 -0.00000000000E+00  0.00000000000E+00  0.17237775160E+04  0.17237775160E+04  0.00000000000E+00 0. -1.
         21   -1    0    0  505  502  0.00000000000E+00 -0.00000000000E+00 -0.84872818484E+03  0.84872818484E+03  0.00000000000E+00 0. -1.
         21    1    1    2  503  504 -0.56207091905E-02 -0.34293879956E+02  0.13298005220E+02  0.36781886532E+02  0.00000000000E+00 0. -1.
         21    1    1    2  504  502  0.31347334441E+02  0.74263155312E+00 -0.24685092473E+03  0.24883445484E+03  0.00000000000E+00 0. -1.
         21    1    1    2  505  501 -0.10299508580E+03 -0.99447172280E+02 -0.57701713213E+03  0.59451366557E+03  0.00000000000E+00 0. -1.
          2    1    1    2  501    0  0.71653372072E+02  0.13299842068E+03  0.16856193828E+04  0.16923756939E+04  0.00000000000E+00 0. -1.
<scales pt_clust_3="34.28474" pt_clust_4="31.35613" pt_clust_5="150.98820" pt_clust_6="14000.00000"></scales>
<clustering>
<clus scale="   31.356">  2  4  1 -1</clus>
<clus scale="   34.285">  2  3  1 -1</clus>
<clus scale="  150.988">  2  5  1 -1</clus>
<clus scale="   31.356">  2  3  1 -1</clus>
</clustering>
</event>
<event>
 6    0  0.3082502E+002  0.2084959E+03  0.7546771E-02  0.1142763E+00
         -4   -1    0    0    0  501 -0.00000000000E+00  0.00000000000E+00  0.49964670451E+03  0.49964670451E+03  0.00000000000E+00 0. -1.
         21   -1    0    0  505  502  0.00000000000E+00 -0.00000000000E+00 -0.26951524157E+03  0.26951524157E+03  0.00000000000E+00 0.  1.
         21    1    1    2  503  502 -0.21398231236E+02  0.43988160591E+02  0.37291297597E+02  0.61510027221E+02  0.00000000000E+00 0. -1.
         21    1    1    2  504  501 -0.19213381634E+02 -0.62409905753E+02  0.22227596271E+03  0.23166949297E+03  0.00000000000E+00 0. -1.
         21    1    1    2  505  504  0.19111299661E+03 -0.59218409870E+02 -0.16477799654E+03  0.25919642298E+03  0.00000000000E+00 0.  1.
         -4    1    1    2    0  503 -0.15050138374E+03  0.77640155031E+02  0.13534219917E+03  0.21678600291E+03  0.00000000000E+00 0. -1.
<scales pt_clust_3="30.89025" pt_clust_4="65.30046" pt_clust_5="200.41729" pt_clust_6="30.89025"></scales>
<clustering>
<clus scale="   30.890">  3  6 -1 -1</clus>
<clus scale="   65.300">  1  4  2 -1</clus>
<clus scale="  200.417">  2  5  1 -1</clus>
<clus scale="  200.417">  2  3  1 -1</clus>
</clustering>
</event>
<event>
 6    0  0.3082502E+002  0.9217043E+02  0.7546771E-02  0.1297679E+00
          1   -1    0    0  505    0 -0.00000000000E+00  0.00000000000E+00  0.20117949448E+04  0.20117949448E+04  0.00000000000E+00 0.  1.
         21   -1    0    0  503  502  0.00000000000E+00 -0.00000000000E+00 -0.22562389442E+02  0.22562389442E+02  0.00000000000E+00 0. -1.
         21    1    1    2  503  501 -0.72550763801E+02  0.73630233922E+01  0.14970613526E+03  0.16652253413E+03  0.00000000000E+00 0. -1.
         21    1    1    2  504  502 -0.17905303735E+02 -0.41230296733E+02  0.34180487672E+02  0.56469841580E+02  0.00000000000E+00 0. -1.
         21    1    1    2  505  504 -0.77806302699E+01 -0.29587778317E+02  0.37152568133E+03  0.37278318996E+03  0.00000000000E+00 0. -1.
          1    1    1    2  501    0  0.98236697805E+02  0.63455051658E+02  0.14338202512E+04  0.14385817686E+04  0.00000000000E+00 0.  1.
<scales pt_clust_3="14000.00000" pt_clust_4="45.78646" pt_clust_5="30.59371" pt_clust_6="92.17043"></scales>
<clustering>
<clus scale="   30.594">  1  5  2 -1</clus>
<clus scale="   45.786">  2  4  1 -1</clus>
<clus scale="   92.170">  1  6  2 -1</clus>
<clus scale="   45.786">  2  3  1 -1</clus>
</clustering>
</event>
<event>
 6    0  0.3082502E+002  0.9371514E+02  0.7546771E-02  0.1294096E+00
         21   -1    0    0  505  502  0.00000000000E+00  0.00000000000E+00  0.47346344888E+02  0.47346344888E+02  0.00000000000E+00 0. -1.
          2   -1    0    0  504    0 -0.00000000000E+00 -0.00000000000E+00 -0.16299640369E+04  0.16299640369E+04  0.00000000000E+00 0. -1.
         21    1    1    2  503  502  0.56608947161E+01  0.31489339403E+02  0.10881500673E+02  0.33793953333E+02  0.00000000000E+00 0. -1.
         21    1    1    2  504  503  0.23961604225E+02  0.89777166114E+02 -0.37643446214E+03  0.38773315865E+03  0.00000000000E+00 0. -1.
         21    1    1    2  505  501 -0.45826577872E+02 -0.26458585761E+02 -0.22746033076E+02  0.57597864722E+02  0.00000000000E+00 0. -1.
          2    1    1    2  501    0  0.16204078930E+02 -0.94807919756E+02 -0.11943186975E+04  0.11981854051E+04  0.00000000000E+00 0. -1.
<scales pt_clust_3="31.99413" pt_clust_4="93.71514" pt_clust_5="42.12495" pt_clust_6="14000.00000"></scales>
<clustering>
<clus scale="   31.994">  1  3  2 -1</clus>
<clus scale="   42.125">  1  5  2 -1</clus>
<clus scale="   93.715">  1  4  2 -1</clus>
<clus scale="   31.994">  1  3  2 -1</clus>
</clustering>
</event>
<event>
 6    0  0.3082502E+002  0.1065868E+03  0.7546771E-02  0.1267024E+00
         -1   -1    0    0    0  501 -0.00000000000E+00  0.00000000000E+00  0.67429030051E+03  0.67429030051E+03  0.00000000000E+00 0. -1.
         21   -1    0    0  503  502  0.00000000000E+00 -0.00000000000E+00 -0.46536759535E+03  0.46536759535E+03  0.00000000000E+00 0. -1.
         21    1    1    2  503  505  0.32103383626E+02  0.17292245606E+02 -0.42338640469E+02  0.55876734650E+02  0.00000000000E+00 0.  1.
         21    1    1    2  504  502 -0.28965884873E+02  0.11250355363E+02  0.23391706546E+01  0.31161911071E+02  0.00000000000E+00 0.  1.
         21    1    1    2  505  501 -0.44258697672E+02  0.70091755109E+02 -0.39310966455E+03  0.40175476950E+03  0.00000000000E+00 0. -1.
         -1    1    1    2    0  504  0.41121198919E+02 -0.98634356078E+02  0.64203183952E+03  0.65086448064E+03  0.00000000000E+00 0. -1.
<scales pt_clust_3="34.36485" pt_clust_4="31.07399" pt_clust_5="106.58679" pt_clust_6="14000.00000"></scales>
<clustering>
<clus scale="   31.074">  2  4  1 -1</clus>
<clus scale="   34.365">  2  3  1 -1</clus>
<clus scale="  106.587">  2  5  1 -1</clus>
<clus scale="   31.074">  2  3  1 -1</clus>
</clustering>
</event>
<event>
 6    0  0.3082502E+002  0.1389315E+03  0.7546771E-02  0.1214774E+00
          2   -1    0    0  504    0 -0.00000000000E+00  0.00000000000E+00  0.55471274908E+03  0.55471274908E+03  0.00000000000E+00 0. -1.
         21   -1    0    0  501  502  0.00000000000E+00 -0.00000000000E+00 -0.56318392642E+03  0.56318392642E+03  0.00000000000E+00 0.  1.
         21    1    1    2  503  502  0.38585216830E+02  0.13429334782E+03 -0.50085554391E+03  0.51998057473E+03  0.00000000000E+00 0.  1.
         21    1    1    2  504  505 -0.16819813680E+01  0.34675534756E+02  0.31170769228E+03  0.31363499039E+03  0.00000000000E+00 0.  1.
         21    1    1    2  505  503  0.47388647576E+02 -0.60027508807E+02  0.95422955033E+02  0.12228869972E+03  0.00000000000E+00 0. -1.
          2    1    1    2  501    0 -0.84291883037E+02 -0.10894137377E+03  0.85253719263E+02  0.16199241066E+03  0.00000000000E+00 0. -1.
<scales pt_clust_3="138.93150" pt_clust_4="34.71630" pt_clust_5="64.41126" pt_clust_6="14000.00000"></scales>
<clustering>
<clus scale="   34.716">  1  4  2 -1</clus>
<clus scale="   64.411">  1  5  2 -1</clus>
<clus scale="  138.932">  2  3  1 -1</clus>
<clus scale="  138.932">  2  3  1 -1</clus>
</clustering>
</event>
<event>
 6    0  0.3082502E+002  0.9067732E+02  0.7546771E-02  0.1301220E+00
          3   -1    0    0  505    0 -0.00000000000E+00  0.00000000000E+00  0.10719079338E+04  0.10719079338E+04  0.00000000000E+00 0.  1.
         21   -1    0    0  503  502  0.00000000000E+00 -0.00000000000E+00 -0.98066755037E+02  0.98066755037E+02  0.00000000000E+00 0. -1.
         21    1    1    2  503  501  0.79087933547E+02 -0.31629286577E+02 -0.43330233573E+02  0.95565800073E+02  0.00000000000E+00 0. -1.
         21    1    1    2  504  502 -0.10090990062E+03  0.90883319308E+02  0.15650598224E+03  0.20721174737E+03  0.00000000000E+00 0. -1.
         21    1    1    2  505  504  0.35627553049E+02  0.45824766331E+01  0.19053383168E+03  0.19389033665E+03  0.00000000000E+00 0.  1.
          3    1    1    2  501    0 -0.13805585979E+02 -0.63836509363E+02  0.67013159836E+03  0.67330680470E+03  0.00000000000E+00 0.  1.
<scales pt_clust_3="90.67732" pt_clust_4="14000.00000" pt_clust_5="35.92105" pt_clust_6="61.80724"></scales>
<clustering>
<clus scale="   35.921">  1  5  2 -1</clus>
<clus scale="   61.807">  1  6  2 -1</clus>
<clus scale="   90.677">  2  3  1 -1</clus>
<clus scale="   90.677">  2  3  1 -1</clus>
</clustering>
</event>
<event>
 6    0  0.3082502E+002  0.1061048E+03  0.7546771E-02  0.1267958E+00
         -2   -1    0    0    0  501 -0.00000000000E+00  0.00000000000E+00  0.28330039921E+03  0.28330039921E+03  0.00000000000E+00 0. -1.
         21   -1    0    0  503  502  0.00000000000E+00 -0.00000000000E+00 -0.79673748002E+03  0.79673748002E+03  0.00000000000E+00 0.  1.
         21    1    1    2  503  504  0.72365654480E+02 -0.64256833136E+02 -0.70542923070E+03  0.71203660586E+03  0.00000000000E+00 0.  1.
         21    1    1    2  504  501 -0.57436065931E+02 -0.60910800417E+02  0.58503236625E+02  0.10213547852E+03  0.00000000000E+00 0.  1.
         21    1    1    2  505  502  0.35437726982E+02  0.39649560611E+02 -0.39626261146E+02  0.66318630284E+02  0.00000000000E+00 0.  1.
         -2    1    1    2    0  505 -0.50367315531E+02  0.85518072942E+02  0.17311517442E+03  0.19954716457E+03  0.00000000000E+00 0. -1.
<scales pt_clust_3="106.10485" pt_clust_4="82.16068" pt_clust_5="53.17819" pt_clust_6="14000.00000"></scales>
<clustering>
<clus scale="   53.178">  2  5  1 -1</clus>
<clus scale="   82.161">  1  4  2 -1</clus>
<clus scale="  106.105">  2  3  1 -1</clus>
<clus scale="   53.178">  2  3  1 -1</clus>
</clustering>
</event>
<event>
 6    0  0.3082502E+002  0.9156254E+02  0.7546771E-02  0.1299111E+00
         21   -1    0    0  503  502  0.00000000000E+00  0.00000000000E+00  0.10299073696E+04  0.10299073696E+04  0.00000000000E+00 0. -1.
          2   -1    0    0  505    0 -0.00000000000E+00 -0.00000000000E+00 -0.10363885997E+03  0.10363885997E+03  0.00000000000E+00 0. -1.
         21    1    1    2  503  504  0.60648738383E+02 -0.15963192990E+02  0.62035247932E+03  0.62351446783E+03  0.00000000000E+00 0. -1.
         21    1    1    2  504  501  0.76579529039E+02 -0.35424648818E+02  0.69616835312E+02  0.10938845355E+03  0.00000000000E+00 0. -1.
         21    1    1    2  505  502 -0.12153606575E+03 -0.40784315829E+02  0.27189241673E+03  0.30059917161E+03  0.00000000000E+00 0. -1.
          2    1    1    2  501    0 -0.15692201672E+02  0.92172157638E+02 -0.35593221704E+02  0.10004413660E+03  0.00000000000E+00 0. -1.
<scales pt_clust_3="62.71438" pt_clust_4="86.36730" pt_clust_5="14000.00000" pt_clust_6="91.56254"></scales>
<clustering>
<clus scale="   62.714">  1  3  2 -1</clus>
<clus scale="   91.563">  2  6  1 -1</clus>
<clus scale="   86.367">  2  4  1 -1</clus>
<clus scale="   62.714">  1  3  2 -1</clus>
</clustering>
</event>
<event>
 6    0  0.3082502E+002  0.4174369E+03  0.7546771E-02  0.1037904E+00
         21   -1    0    0  503  502  0.00000000000E+00  0.00000000000E+00  0.38704888757E+03  0.38704888757E+03  0.00000000000E+00 0.  1.
          1   -1    0    0  505    0 -0.00000000000E+00 -0.00000000000E+00 -0.10518748564E+04  0.10518748564E+04  0.00000000000E+00 0.  1.
         21    1    1    2  503  501  0.38664449049E+02 -0.10845218409E+03  0.17630266122E+03  0.21056933349E+03  0.00000000000E+00 0.  1.
         21    1    1    2  504  502 -0.40794835507E+03  0.20308272271E+03 -0.53773230300E+03  0.70485493710E+03  0.00000000000E+00 0.  1.
         21    1    1    2  505  504  0.17533409123E+02  0.26712938411E+02 -0.87858893738E+02  0.93488965782E+02  0.00000000000E+00 0.  1.
          1    1    1    2  501    0  0.35175049690E+03 -0.12134347703E+03 -0.21553743331E+03  0.43001050759E+03  0.00000000000E+00 0.  1.
<scales pt_clust_3="114.79559" pt_clust_4="417.43686" pt_clust_5="31.95311" pt_clust_6="14000.00000"></scales>
<clustering>
<clus scale="   31.953">  2  5  1 -1</clus>
<clus scale="  114.796">  1  3  2 -1</clus>
<clus scale="  417.437">  2  4  1 -1</clus>
<clus scale="  114.796">  1  3  2 -1</clus>
</clustering>
</event>
<event>
 6    0  0.3082502E+002  0.2198853E+03  0.7546771E-02  0.1133969E+00
          2   -1    0    0  503    0 -0.00000000000E+00  0.00000000000E+00  0.20836377636E+03  0.20836377636E+03  0.00000000000E+00 0.  1.
         21   -1    0    0  504  502  0.00000000000E+00 -0.00000000000E+00 -0.25322509813E+04  0.25322509813E+04  0.00000000000E+00 0.  1.
         21    1    1    2  503  505  0.33178066126E+02 -0.24022285942E+02  0.59969686908E+02  0.72623809054E+02  0.00000000000E+00 0.  1.
         21    1    1    2  504  501  0.20668247880E+03 -0.63789608126E+01 -0.37284482595E+03  0.42634681003E+03  0.00000000000E+00 0. -1.
         21    1    1    2  505  502 -0.20665938152E+03  0.90551831325E+02 -0.21095152465E+04  0.21215471500E+04  0.00000000000E+00 0.  1.
          2    1    1    2  501    0 -0.33201163404E+02 -0.60150584571E+02  0.98503180653E+02  0.12009698862E+03  0.00000000000E+00 0.  1.
<scales pt_clust_3="40.96162" pt_clust_4="219.88529" pt_clust_5="14000.00000" pt_clust_6="79.00599"></scales>
<clustering>
<clus scale="   40.962">  1  3  2 -1</clus>
<clus scale="   79.006">  1  6  2 -1</clus>
<clus scale="  219.885">  1  4  2 -1</clus>
<clus scale="  219.885">  2  3  1 -1</clus>
</clustering>
</event>
<event>
 6    0  0.3082502E+002  0.1826255E+03  0.7546771E-02  0.1165286E+00
         21   -1    0    0  504  502  0.00000000000E+00  0.00000000000E+00  0.58290598292E+03  0.58290598292E+03  0.00000000000E+00 0. -1.
          2   -1    0    0  505    0 -0.00000000000E+00 -0.00000000000E+00 -0.13045161728E+04  0.13045161728E+04  0.00000000000E+00 0.  1.
         21    1    1    2  503  501 -0.92978129583E+02 -0.15763416357E+03  0.29612251980E+03  0.34811206362E+03  0.00000000000E+00 0. -1.
         21    1    1    2  504  503  0.11613553961E+03  0.73429099507E+02  0.19409694244E+03  0.23780857697E+03  0.00000000000E+00 0. -1.
         21    1    1    2  505  502  0.73658092375E+02 -0.73158807857E+02 -0.33960096536E+02  0.10922918061E+03  0.00000000000E+00 0. -1.
          2    1    1    2  501    0 -0.96815502404E+02  0.15736387192E+03 -0.11778695556E+04  0.11922723345E+04  0.00000000000E+00 0.  1.
<scales pt_clust_3="14000.00000" pt_clust_4="151.95564" pt_clust_5="103.81583" pt_clust_6="182.62553"></scales>
<clustering>
<clus scale="  103.816">  1  5  2 -1</clus>
<clus scale="  151.956">  1  4  2 -1</clus>
<clus scale="  182.626">  2  6  1 -1</clus>
<clus scale="  103.816">  1  3  2 -1</clus>
</clustering>
</event>
<event>
 6    0  0.3082502E+002  0.8689705E+02  0.7546771E-02  0.1310545E+00
         21   -1    0    0  503  502  0.00000000000E+00  0.00000000000E+00  0.60491398367E+02  0.60491398367E+02  0.00000000000E+00 0. -1.
          1   -1    0    0  505    0 -0.00000000000E+00 -0.00000000000E+00 -0.12272789920E+04  0.12272789920E+04  0.00000000000E+00 0.  1.
         21    1    1    2  503  501 -0.17932533554E+02  0.43414206858E+02 -0.85647007920E+02  0.97682030499E+02  0.00000000000E+00 0. -1.
         21    1    1    2  504  502  0.28414145370E+02 -0.12846788022E+03 -0.33272047991E+02  0.13571436579E+03  0.00000000000E+00 0. -1.
         21    1    1    2  505  504  0.31500628532E+02  0.14932943377E+02 -0.27694327074E+03  0.27912874736E+03  0.00000000000E+00 0. -1.
          1    1    1    2  501    0 -0.41982240348E+02  0.70120729985E+02 -0.77092526696E+03  0.77524524669E+03  0.00000000000E+00 0.  1.
<scales pt_clust_3="47.26322" pt_clust_4="86.89705" pt_clust_5="34.86090" pt_clust_6="14000.00000"></scales>
<clustering>
<clus scale="   34.861">  2  5  1 -1</clus>
<clus scale="   47.263">  1  3  2 -1</clus>
<clus scale="   86.897">  1  4  2 -1</clus>
<clus scale="   47.263">  1  3  2 -1</clus>
</clustering>
</event>
<event>
 6    0  0.3082502E+002  0.1128930E+03  0.7546771E-02  0.1255304E+00
         21   -1    0    0  505  502  0.00000000000E+00  0.00000000000E+00  0.21695434861E+02  0.21695434861E+02  0.00000000000E+00 0.  1.
          2   -1    0    0  504    0 -0.00000000000E+00 -0.00000000000E+00 -0.29504885743E+04  0.29504885743E+04  0.00000000000E+00 0.  1.
         21    1    1    2  503  502  0.23047615345E+02 -0.25487210868E+02 -0.24798723004E+02  0.42376492936E+02  0.00000000000E+00 0. -1.
         21    1    1    2  504  503 -0.72487664509E+02  0.14449832805E+02 -0.53548170767E+03  0.54055889450E+03  0.00000000000E+00 0.  1.
         21    1    1    2  505  501  0.14488841008E+03  0.54997097916E+02 -0.67858035155E+03  0.69605217166E+03  0.00000000000E+00 0.  1.
          2    1    1    2  501    0 -0.95448360913E+02 -0.43959719852E+02 -0.16899323572E+04  0.16931964501E+04  0.00000000000E+00 0.  1.
<scales pt_clust_3="34.36263" pt_clust_4="68.60653" pt_clust_5="112.89303" pt_clust_6="14000.00000"></scales>
<clustering>
<clus scale="   34.363">  1  3  2 -1</clus>
<clus scale="   68.607">  1  4  2 -1</clus>
<clus scale="  112.893">  1  5  2 -1</clus>
<clus scale="   34.363">  1  3  2 -1</clus>
</clustering>
</event>
<event>
 6    0  0.3082502E+002  0.1011246E+03  0.7546771E-02  0.1277949E+00
         21   -1    0    0  505  502  0.00000000000E+00  0.00000000000E+00  0.59025480828E+03  0.59025480828E+03  0.00000000000E+00 0.  1.
         -1   -1    0    0    0  501 -0.00000000000E+00 -0.00000000000E+00 -0.13298115720E+03  0.13298115720E+03  0.00000000000E+00 0.  1.
         21    1    1    2  503  501 -0.35378949286E+01 -0.67384112924E+02 -0.31062484540E+02  0.74283331380E+02  0.00000000000E+00 0. -1.
         21    1    1    2  504  502 -0.30126314391E+02  0.67406846745E+02  0.49977832954E+03  0.50520258955E+03  0.00000000000E+00 0.  1.
         21    1    1    2  505  503 -0.30633512705E+02  0.28446518610E+02  0.39030493187E+02  0.57192621204E+02  0.00000000000E+00 0.  1.
         -1    1    1    2    0  504  0.64297722024E+02 -0.28469252431E+02 -0.50472687112E+02  0.86557423343E+02  0.00000000000E+00 0.  1.
<scales pt_clust_3="66.42091" pt_clust_4="101.12464" pt_clust_5="41.80450" pt_clust_6="14000.00000"></scales>
<clustering>
<clus scale="   41.805">  1  5  2 -1</clus>
<clus scale="   66.421">  2  3  1 -1</clus>
<clus scale="  101.125">  1  4  2 -1</clus>
<clus scale="   41.805">  1  3  2 -1</clus>
</clustering>
</event>
<event>
 6    0  0.3082502E+002  0.2431710E+03  0.7546771E-02  0.1117698E+00
          1   -1    0    0  504    0 -0.00000000000E+00  0.00000000000E+00  0.15756544540E+04  0.15756544540E+04  0.00000000000E+00 0. -1.
         21   -1    0    0  505  502  0.00000000000E+00 -0.00000000000E+00 -0.98024636968E+03  0.98024636968E+03  0.00000000000E+00 0. -1.
         21    1    1    2  503  502  0.11206030325E+03  0.24362715332E+03 -0.34480192721E+02  0.27037119870E+03  0.00000000000E+00 0. -1.
         21    1    1    2  504  503 -0.62804986092E+01 -0.41951686535E+02  0.26550674927E+03  0.26887399014E+03  0.00000000000E+00 0. -1.
         21    1    1    2  505  501 -0.16156641804E+03 -0.17884338609E+03 -0.80776771847E+03  0.84295750260E+03  0.00000000000E+00 0. -1.
          1    1    1    2  501    0  0.55786613402E+02 -0.22832080693E+02  0.11721492463E+04  0.11736981323E+04  0.00000000000E+00 0. -1.
<scales pt_clust_3="14000.00000" pt_clust_4="42.41920" pt_clust_5="243.17099" pt_clust_6="78.53953"></scales>
<clustering>
<clus scale="   42.419">  1  4  2 -1</clus>
<clus scale="   78.540">  1  6  2 -1</clus>
<clus scale="  243.171">  2  5  1 -1</clus>
<clus scale="  243.171">  2  3  1 -1</clus>
</clustering>
</event>
<event>
 6    0  0.3082502E+002  0.6774587E+02  0.7546771E-02  0.1367930E+00
          2   -1    0    0  504    0 -0.00000000000E+00  0.00000000000E+00  0.80602041083E+03  0.80602041083E+03  0.00000000000E+00 0.  1.
         21   -1    0    0  501  502  0.00000000000E+00 -0.00000000000E+00 -0.16983938091E+03  0.16983938091E+03  0.00000000000E+00 0.  1.
         21    1    1    2  503  505 -0.10536409752E+03  0.61956693160E+02  0.38689770593E+02  0.12820734465E+03  0.00000000000E+00 0.  1.
         21    1    1    2  504  503  0.17594631923E+02 -0.36147587698E+02  0.13735430554E+03  0.14311682088E+03  0.00000000000E+00 0.  1.
         21    1    1    2  505  502  0.52114540739E+02 -0.12259335375E+02 -0.11567411795E+03  0.12746261500E+03  0.00000000000E+00 0.  1.
          2    1    1    2  501    0  0.35654924860E+02 -0.13549770088E+02  0.57581107174E+03  0.57707301122E+03  0.00000000000E+00 0.  1.
<scales pt_clust_3="67.74587" pt_clust_4="14000.00000" pt_clust_5="54.50796" pt_clust_6="38.14276"></scales>
<clustering>
<clus scale="   38.143">  1  6  2 -1</clus>
<clus scale="   54.508">  2  5  1 -1</clus>
<clus scale="   67.746">  2  3  1 -1</clus>
<clus scale="   54.508">  2  3  1 -1</clus>
</clustering>
</event>
<event>
 6    0  0.3082502E+002  0.8279422E+02  0.7546771E-02  0.1321304E+00
         21   -1    0    0  501  502  0.00000000000E+00  0.00000000000E+00  0.39411931534E+02  0.39411931534E+02  0.00000000000E+00 0.  1.
          2   -1    0    0  503    0 -0.00000000000E+00 -0.00000000000E+00 -0.25518895510E+04  0.25518895510E+04  0.00000000000E+00 0.  1.
         21    1    1    2  503  504  0.29783510788E+02  0.10551814383E+02 -0.17099458562E+03  0.17388946666E+03  0.00000000000E+00 0.  1.
         21    1    1    2  504  505  0.39518752681E+02  0.69985467954E+02 -0.16415332652E+03  0.18277311659E+03  0.00000000000E+00 0.  1.
         21    1    1    2  505  502 -0.46122339262E+02  0.14536022080E+02  0.63444694565E+01  0.48773132046E+02  0.00000000000E+00 0.  1.
          2    1    1    2  501    0 -0.23179924208E+02 -0.95073304416E+02 -0.21836741768E+04  0.21858657673E+04  0.00000000000E+00 0.  1.
<scales pt_clust_3="31.59744" pt_clust_4="82.79422" pt_clust_5="48.13404" pt_clust_6="14000.00000"></scales>
<clustering>
<clus scale="   31.597">  2  3  1 -1</clus>
<clus scale="   48.134">  1  5  2 -1</clus>
<clus scale="   82.794">  1  4  2 -1</clus>
<clus scale="   48.134">  1  3  2 -1</clus>
</clustering>
</event>
<event>
 6    0  0.3082502E+002  0.9691896E+02  0.7546771E-02  0.1286912E+00
          1   -1    0    0  504    0 -0.00000000000E+00  0.00000000000E+00  0.17818736833E+04  0.17818736833E+04  0.00000000000E+00 0. -1.
         21   -1    0    0  503  502  0.00000000000E+00 -0.00000000000E+00 -0.85316392556E+02  0.85316392556E+02  0.00000000000E+00 0.  1.
         21    1    1    2  503  501  0.19662288032E+02 -0.33635914868E+02  0.15352762105E+02  0.41877053907E+02  0.00000000000E+00 0.  1.
         21    1    1    2  504  505 -0.75320893874E+02 -0.26241481449E+02  0.17473392430E+03  0.19207757991E+03  0.00000000000E+00 0.  1.
         21    1    1    2  505  502  0.17375507263E+02 -0.38459391075E+02 -0.54372727050E+02  0.68828965278E+02  0.00000000000E+00 0.  1.
          1    1    1    2  501    0  0.38283098579E+02  0.98336787392E+02  0.15608433314E+04  0.15644064767E+04  0.00000000000E+00 0. -1.
<scales pt_clust_3="38.96127" pt_clust_4="14000.00000" pt_clust_5="75.40926" pt_clust_6="96.91896"></scales>
<clustering>
<clus scale="   38.961">  2  3  1 -1</clus>
<clus scale="   75.409">  2  5  1 -1</clus>
<clus scale="   96.919">  1  6  2 -1</clus>
<clus scale="   38.961">  2  3  1 -1</clus>
</clustering>
</event>
<event>
 6    0  0.3082502E+002  0.2892565E+03  0.7546771E-02  0.1090738E+00
         21   -1    0    0  503  502  0.00000000000E+00  0.00000000000E+00  0.40872003899E+03  0.40872003899E+03  0.00000000000E+00 0.  1.
          2   -1    0    0  504    0 -0.00000000000E+00 -0.00000000000E+00 -0.33738607439E+03  0.33738607439E+03  0.00000000000E+00 0.  1.
         21    1    1    2  503  505  0.47866814736E+02  0.30987729798E+02  0.27712393088E+02  0.63399117357E+02  0.00000000000E+00 0. -1.
         21    1    1    2  504  502 -0.14004656720E+03 -0.27835365589E+03  0.19256885434E+03  0.36630119081E+03  0.00000000000E+00 0.  1.
         21    1    1    2  505  501 -0.14793331825E+02  0.37787946271E+02 -0.58240385343E+01  0.40996231226E+02  0.00000000000E+00 0. -1.
          2    1    1    2  501    0  0.10697308429E+03  0.20957797982E+03 -0.14312324429E+03  0.27540957399E+03  0.00000000000E+00 0.  1.
<scales pt_clust_3="57.02167" pt_clust_4="274.64334" pt_clust_5="37.69811" pt_clust_6="37.69811"></scales>
<clustering>
<clus scale="   37.698">  5  6 -1 -1</clus>
<clus scale="   57.022">  1  3  2 -1</clus>
<clus scale="  274.643">  1  4  2 -1</clus>
<clus scale="   57.022">  1  3  2 -1</clus>
</clustering>
</event>
<event>
 6    0  0.3082502E+002  0.8921319E+02  0.7546771E-02  0.1304768E+00
         21   -1    0    0  501  502  0.00000000000E+00  0.00000000000E+00  0.16057028947E+04  0.16057028947E+04  0.00000000000E+00 0.  1.
          4   -1    0    0  503    0 -0.00000000000E+00 -0.00000000000E+00 -0.20930784675E+03  0.20930784675E+03  0.00000000000E+00 0.  1.
         21    1    1    2  503  504 -0.55031503771E+02 -0.69795788247E+02 -0.11355561029E+03  0.14420400512E+03  0.00000000000E+00 0.  1.
         21    1    1    2  504  505 -0.40644905713E+02 -0.10008136366E+02 -0.81679904563E+01  0.42648414063E+02  0.00000000000E+00 0.  1.
         21    1    1    2  505  502  0.34955003269E+02  0.13134862236E+02  0.15358088597E+04  0.15362627478E+04  0.00000000000E+00 0.  1.
          4    1    1    2  501    0  0.60721406216E+02  0.66669062377E+02 -0.17690210927E+02  0.91895574506E+02  0.00000000000E+00 0.  1.
<scales pt_clust_3="14000.00000" pt_clust_4="32.70062" pt_clust_5="37.34136" pt_clust_6="89.21319"></scales>
<clustering>
<clus scale="   37.341">  1  5  2 -1</clus>
<clus scale="   32.701">  1  4  2 -1</clus>
<clus scale="   89.213">  1  6  2 -1</clus>
<clus scale="   37.341">  1  3  2 -1</clus>
</clustering>
</event>
<event>
 6    0  0.3082502E+002  0.1636281E+03  0.7546771E-02  0.1184660E+00
         21   -1    0    0  503  502  0.00000000000E+00  0.00000000000E+00  0.10858593557E+04  0.10858593557E+04  0.00000000000E+00 0.  1.
          1   -1    0    0  504    0 -0.00000000000E+00 -0.00000000000E+00 -0.91789027990E+03  0.91789027990E+03  0.00000000000E+00 0.  1.
         21    1    1    2  503  501 -0.35629136688E+02  0.27966231431E+02 -0.38512292673E+03  0.38777727393E+03  0.00000000000E+00 0.  1.
         21    1    1    2  504  505 -0.48348241061E+01 -0.42475693891E+02 -0.54529485136E+01  0.43096342573E+02  0.00000000000E+00 0.  1.
         21    1    1    2  505  502  0.15163111854E+03 -0.23038654447E+02  0.10532947472E+04  0.10644024615E+04  0.00000000000E+00 0.  1.
          1    1    1    2  501    0 -0.11116715774E+03  0.37548116906E+02 -0.49474979609E+03  0.50847355760E+03  0.00000000000E+00 0.  1.
<scales pt_clust_3="35.41018" pt_clust_4="42.74997" pt_clust_5="153.38154" pt_clust_6="35.41018"></scales>
<clustering>
<clus scale="   35.410">  3  6 -1 -1</clus>
<clus scale="   42.750">  2  4  1 -1</clus>
<clus scale="  153.382">  1  5  2 -1</clus>
<clus scale="  153.382">  1  3  2 -1</clus>
</clustering>
</event>
<event>
 6    0  0.3082502E+002  0.1987991E+03  0.7546771E-02  0.1150756E+00
          2   -1    0    0  503    0 -0.00000000000E+00  0.00000000000E+00  0.27464083653E+04  0.27464083653E+04  0.00000000000E+00 0.  1.
         21   -1    0    0  505  502  0.00000000000E+00 -0.00000000000E+00 -0.20222374871E+04  0.20222374871E+04  0.00000000000E+00 0.  1.
         21    1    1    2  503  504  0.36642626065E+02  0.23123880757E+01  0.12908707764E+04  0.12913928103E+04  0.00000000000E+00 0.  1.
         21    1    1    2  504  502 -0.16303821971E+03  0.15913758824E+03 -0.12240435921E+04  0.12450658410E+04  0.00000000000E+00 0.  1.
         21    1    1    2  505  501  0.14862215645E+02 -0.26572849282E+02 -0.78182392210E+03  0.78241654312E+03  0.00000000000E+00 0.  1.
          2    1    1    2  501    0  0.11153337800E+03 -0.13487712703E+03  0.14391676160E+04  0.14497706579E+04  0.00000000000E+00 0.  1.
<scales pt_clust_3="36.71829" pt_clust_4="198.79914" pt_clust_5="30.44670" pt_clust_6="14000.00000"></scales>
<clustering>
<clus scale="   30.447">  2  5  1 -1</clus>
<clus scale="   36.718">  1  3  2 -1</clus>
<clus scale="  198.799">  2  4  1 -1</clus>
<clus scale="   30.447">  2  3  1 -1</clus>
</clustering>
</event>
<event>
 6    0  0.3082502E+002  0.8541295E+02  0.7546771E-02  0.1314356E+00
          2   -1    0    0  503    0 -0.00000000000E+00  0.00000000000E+00  0.56896423669E+02  0.56896423669E+02  0.00000000000E+00 0.  1.
         21   -1    0    0  504  502  0.00000000000E+00 -0.00000000000E+00 -0.52901479217E+03  0.52901479217E+03  0.00000000000E+00 0. -1.
         21    1    1    2  503  505 -0.25804385919E+01 -0.33510031575E+02 -0.61375060816E+01  0.34165038568E+02  0.00000000000E+00 0. -1.
         21    1    1    2  504  501  0.90488847019E+02 -0.36262093627E+01 -0.29803160324E+03  0.31148710625E+03  0.00000000000E+00 0. -1.
         21    1    1    2  505  502 -0.14979023921E+02 -0.30687511537E+02 -0.12879644349E+03  0.13324645728E+03  0.00000000000E+00 0.  1.
          2    1    1    2  501    0 -0.72929384507E+02  0.67823752475E+02 -0.39152815694E+02  0.10701261375E+03  0.00000000000E+00 0.  1.
<scales pt_clust_3="33.60924" pt_clust_4="85.41295" pt_clust_5="35.77512" pt_clust_6="14000.00000"></scales>
<clustering>
<clus scale="   33.609">  1  3  2 -1</clus>
<clus scale="   35.775">  2  5  1 -1</clus>
<clus scale="   85.413">  2  4  1 -1</clus>
<clus scale="   35.775">  2  3  1 -1</clus>
</clustering>
</event>
<event>
 6    0  0.3082502E+002  0.2527322E+03  0.7546771E-02  0.1111590E+00
         21   -1    0    0  501  502  0.00000000000E+00  0.00000000000E+00  0.10116268680E+04  0.10116268680E+04  0.00000000000E+00 0.  1.
          1   -1    0    0  504    0 -0.00000000000E+00 -0.00000000000E+00 -0.15701322005E+04  0.15701322005E+04  0.00000000000E+00 0.  1.
         21    1    1    2  503  505 -0.29522735134E+02  0.31430985869E+03 -0.62193428135E+03  0.69747009217E+03  0.00000000000E+00 0.  1.
         21    1    1    2  504  503 -0.40199122921E+01  0.41295947746E+02 -0.34816904628E+03  0.35063257091E+03  0.00000000000E+00 0.  1.
         21    1    1    2  505  502 -0.12254503212E+03 -0.22076483494E+03  0.93636290857E+03  0.96980920484E+03  0.00000000000E+00 0.  1.
          1    1    1    2  501    0  0.15608767954E+03 -0.13484097149E+03 -0.52476491339E+03  0.56384720060E+03  0.00000000000E+00 0.  1.
<scales pt_clust_3="252.73222" pt_clust_4="41.49114" pt_clust_5="14000.00000" pt_clust_6="193.29367"></scales>
<clustering>
<clus scale="   41.491">  2  4  1 -1</clus>
<clus scale="  193.294">  2  6  1 -1</clus>
<clus scale="  252.732">  2  3  1 -1</clus>
<clus scale="  252.732">  1  3  2 -1</clus>
</clustering>
</event>
<event>
 6    0  0.3082502E+002  0.9630426E+02  0.7546771E-02  0.1288265E+00
         21   -1    0    0  504  502  0.00000000000E+00  0.00000000000E+00  0.25538524666E+03  0.25538524666E+03  0.00000000000E+00 0. -1.
          1   -1    0    0  503    0 -0.00000000000E+00 -0.00000000000E+00 -0.24954697032E+03  0.24954697032E+03  0.00000000000E+00 0.  1.
         21    1    1    2  503  505  0.40145456825E+02 -0.40055533301E+00 -0.11607149930E+03  0.12281861055E+03  0.00000000000E+00 0. -1.
         21    1    1    2  504  501  0.36828891236E+02 -0.14087789281E+02  0.57407387743E+01  0.39847071639E+02  0.00000000000E+00 0.  1.
         21    1    1    2  505  502  0.38192094615E+02 -0.46317353385E+02  0.18532854945E+03  0.19480914906E+03  0.00000000000E+00 0. -1.
          1    1    1    2  501    0 -0.11516644268E+03  0.60805697999E+02 -0.69159512586E+02  0.14745738574E+03  0.00000000000E+00 0.  1.
<scales pt_clust_3="40.68413" pt_clust_4="39.43137" pt_clust_5="96.30426" pt_clust_6="14000.00000"></scales>
<clustering>
<clus scale="   39.431">  1  4  2 -1</clus>
<clus scale="   40.684">  2  3  1 -1</clus>
<clus scale="   96.304">  1  5  2 -1</clus>
<clus scale="   39.431">  1  3  2 -1</clus>
</clustering>
</event>
<event>
 6    0  0.3082502E+002  0.1041292E+03  0.7546771E-02  0.1271845E+00
          1   -1    0    0  505    0 -0.00000000000E+00  0.00000000000E+00  0.21079134369E+04  0.21079134369E+04  0.00000000000E+00 0.  1.
         21   -1    0    0  503  502  0.00000000000E+00 -0.00000000000E+00 -0.27455865627E+02  0.27455865627E+02  0.00000000000E+00 0. -1.
         21    1    1    2  503  504 -0.30087648476E+00  0.58523406948E+02  0.57702224701E+02  0.82186534316E+02  0.00000000000E+00 0. -1.
         21    1    1    2  504  501 -0.46512652962E+02 -0.45351149420E+02  0.12057140132E+03  0.13695844792E+03  0.00000000000E+00 0. -1.
         21    1    1    2  505  502 -0.54643317909E+02  0.47705190623E+02  0.26433096776E+03  0.27410315197E+03  0.00000000000E+00 0. -1.
          1    1    1    2  501    0  0.10145684736E+03 -0.60877448152E+02  0.16378529775E+04  0.16421211683E+04  0.00000000000E+00 0.  1.
<scales pt_clust_3="58.52418" pt_clust_4="48.68131" pt_clust_5="104.12924" pt_clust_6="14000.00000"></scales>
<clustering>
<clus scale="   58.524">  2  3  1 -1</clus>
<clus scale="   48.681">  2  4  1 -1</clus>
<clus scale="  104.129">  2  5  1 -1</clus>
<clus scale="   58.524">  2  3  1 -1</clus>
</clustering>
</event>
<event>
 6    0  0.3082502E+002  0.1084083E+03  0.7546771E-02  0.1263546E+00
         -2   -1    0    0    0  501 -0.00000000000E+00  0.00000000000E+00  0.18612576684E+03  0.18612576684E+03  0.00000000000E+00 0. -1.
         21   -1    0    0  505  502  0.00000000000E+00 -0.00000000000E+00 -0.72501102606E+03  0.72501102606E+03  0.00000000000E+00 0.  1.
         21    1    1    2  503  502 -0.26698368534E+02  0.10543566155E+03 -0.65116915438E+03  0.66018993420E+03  0.00000000000E+00 0.  1.
         21    1    1    2  504  501  0.27497132551E+02  0.16265770161E+02  0.81092179109E+02  0.87158528499E+02  0.00000000000E+00 0. -1.
         21    1    1    2  505  504 -0.46489312348E+02 -0.27358082736E+02 -0.15646076407E+01  0.53964514735E+02  0.00000000000E+00 0. -1.
         -2    1    1    2    0  503  0.45690548331E+02 -0.94343348977E+02  0.32756323689E+02  0.10982381547E+03  0.00000000000E+00 0. -1.
<scales pt_clust_3="14000.00000" pt_clust_4="31.94789" pt_clust_5="45.73568" pt_clust_6="108.40829"></scales>
<clustering>
<clus scale="   31.948">  1  4  2 -1</clus>
<clus scale="   45.736">  1  5  2 -1</clus>
<clus scale="  108.408">  1  6  2 -1</clus>
<clus scale="  108.408">  2  3  1 -1</clus>
</clustering>
</event>
<event>
 6    0  0.3082502E+002  0.1711489E+03  0.7546771E-02  0.1176655E+00
         21   -1    0    0  503  502  0.00000000000E+00  0.00000000000E+00  0.31544867651E+03  0.31544867651E+03  0.00000000000E+00 0.  1.
          2   -1    0    0  504    0 -0.00000000000E+00 -0.00000000000E+00 -0.85576210539E+03  0.85576210539E+03  0.00000000000E+00 0.  1.
         21    1    1    2  503  505  0.91429187277E+01  0.58103907224E+02  0.17176855825E+03  0.18156016799E+03  0.00000000000E+00 0.  1.
         21    1    1    2  504  502 -0.19692524203E+03  0.35867362928E+02  0.16709121776E+02  0.20086117948E+03  0.00000000000E+00 0.  1.
         21    1    1    2  505  501  0.22428970507E+02 -0.61744311167E+02 -0.34200880475E+02  0.74061588592E+02  0.00000000000E+00 0. -1.
          2    1    1    2  501    0  0.16535335279E+03 -0.32226958986E+02 -0.69459022843E+03  0.71472784583E+03  0.00000000000E+00 0.  1.
<scales pt_clust_3="58.81885" pt_clust_4="171.14893" pt_clust_5="58.44024" pt_clust_6="14000.00000"></scales>
<clustering>
<clus scale="   58.819">  1  3  2 -1</clus>
<clus scale="   58.440">  1  5  2 -1</clus>
<clus scale="  171.149">  1  4  2 -1</clus>
<clus scale="   58.819">  1  3  2 -1</clus>
</clustering>
</event>
<event>
 6    0  0.3082502E+002  0.6558246E+02  0.7546771E-02  0.1375794E+00
          2   -1    0    0  505    0 -0.00000000000E+00  0.00000000000E+00  0.24535305266E+04  0.24535305266E+04  0.00000000000E+00 0.  1.
         21   -1    0    0  504  502  0.00000000000E+00 -0.00000000000E+00 -0.12353583203E+03  0.12353583203E+03  0.00000000000E+00 0. -1.
         21    1    1    2  503  501  0.90400533275E+02  0.53983120884E+02  0.42899789278E+03  0.44173026359E+03  0.00000000000E+00 0. -1.
         21    1    1    2  504  503  0.23431643694E+02 -0.38478423332E+02  0.46590866170E+02  0.64810028536E+02  0.00000000000E+00 0. -1.
         21    1    1    2  505  502 -0.50304055324E+02 -0.17460571509E+02 -0.10095251533E+03  0.11413491968E+03  0.00000000000E+00 0. -1.
          2    1    1    2  501    0 -0.63528121645E+02  0.19558739572E+01  0.19553584509E+04  0.19563911468E+04  0.00000000000E+00 0.  1.
<scales pt_clust_3="65.58246" pt_clust_4="45.05143" pt_clust_5="60.62554" pt_clust_6="14000.00000"></scales>
<clustering>
<clus scale="   45.051">  2  4  1 -1</clus>
<clus scale="   60.626">  2  5  1 -1</clus>
<clus scale="   65.582">  2  3  1 -1</clus>
<clus scale="   45.051">  2  3  1 -1</clus>
</clustering>
</event>
<event>
 6    0  0.3082502E+002  0.1678002E+03  0.7546771E-02  0.1180162E+00
          2   -1    0    0  503    0 -0.00000000000E+00  0.00000000000E+00  0.42178428978E+04  0.42178428978E+04  0.00000000000E+00 0.  1.
         21   -1    0    0  505  502  0.00000000000E+00 -0.00000000000E+00 -0.19766524585E+02  0.19766524585E+02  0.00000000000E+00 0.  1.
         21    1    1    2  503  504  0.33322265133E+02  0.32157711221E+02  0.67177206391E+03  0.67336631754E+03  0.00000000000E+00 0. -1.
         21    1    1    2  504  502  0.12865968443E+02 -0.15437610766E+03  0.33072211712E+03  0.36520492126E+03  0.00000000000E+00 0.  1.
         21    1    1    2  505  501 -0.21902177392E+02  0.46552532132E+02  0.58832085778E+03  0.59056606347E+03  0.00000000000E+00 0. -1.
          2    1    1    2  501    0 -0.24286056184E+02  0.75665864310E+02  0.26072613344E+04  0.26084721201E+04  0.00000000000E+00 0.  1.
<scales pt_clust_3="46.30866" pt_clust_4="152.07839" pt_clust_5="52.49177" pt_clust_6="52.49177"></scales>
<clustering>
<clus scale="   46.309">  1  3  2 -1</clus>
<clus scale="   52.492">  5  6 -1 -1</clus>
<clus scale="  152.078">  2  4  1 -1</clus>
<clus scale="  152.078">  2  3  1 -1</clus>
</clustering>
</event>
<event>
 6    0  0.3082502E+002  0.8166858E+02  0.7546771E-02  0.1324382E+00
         21   -1    0    0  503  502  0.00000000000E+00  0.00000000000E+00  0.25641840893E+02  0.25641840893E+02  0.00000000000E+00 0.  1.
          2   -1    0    0  504    0 -0.00000000000E+00 -0.00000000000E+00 -0.26128209800E+04  0.26128209800E+04  0.00000000000E+00 0.  1.
         21    1    1    2  503  505  0.37812274241E+02  0.46865897224E+02 -0.14182060063E+03  0.15407551126E+03  0.00000000000E+00 0.  1.
         21    1    1    2  504  502  0.38288285054E+02  0.47017677399E+02 -0.10193918532E+04  0.10211936178E+04  0.00000000000E+00 0.  1.
         21    1    1    2  505  501 -0.93295626000E+02  0.12786412089E+02 -0.11892083020E+03  0.15168958442E+03  0.00000000000E+00 0.  1.
          2    1    1    2  501    0  0.17195066706E+02 -0.10666998671E+03 -0.13070458551E+04  0.13115041074E+04  0.00000000000E+00 0.  1.
<scales pt_clust_3="60.21777" pt_clust_4="63.41535" pt_clust_5="81.66858" pt_clust_6="14000.00000"></scales>
<clustering>
<clus scale="   60.218">  1  3  2 -1</clus>
<clus scale="   63.415">  2  4  1 -1</clus>
<clus scale="   81.669">  1  5  2 -1</clus>
<clus scale="   60.218">  1  3  2 -1</clus>
</clustering>
</event>
<event>
 6    0  0.3082502E+002  0.2264185E+03  0.7546771E-02  0.1129186E+00
         21   -1    0    0  501  502  0.00000000000E+00  0.00000000000E+00  0.38532135388E+03  0.38532135388E+03  0.00000000000E+00 0. -1.
          1   -1    0    0  504    0 -0.00000000000E+00 -0.00000000000E+00 -0.69232033711E+03  0.69232033711E+03  0.00000000000E+00 0.  1.
         21    1    1    2  503  505 -0.33126796799E+02  0.54626128620E+02  0.14744405289E+03  0.16068959931E+03  0.00000000000E+00 0. -1.
         21    1    1    2  504  503 -0.38253402543E+01 -0.38428663947E+02 -0.27136570300E+03  0.27409987268E+03  0.00000000000E+00 0.  1.
         21    1    1    2  505  502 -0.14192948167E+03  0.63752261911E+02  0.17531274397E+03  0.23439899075E+03  0.00000000000E+00 0. -1.
          1    1    1    2  501    0  0.17888161872E+03 -0.79949726583E+02 -0.35839007710E+03  0.40845322824E+03  0.00000000000E+00 0.  1.
<scales pt_clust_3="54.55622" pt_clust_4="38.61859" pt_clust_5="54.55622" pt_clust_6="209.76284"></scales>
<clustering>
<clus scale="   38.619">  2  4  1 -1</clus>
<clus scale="   54.556">  3  5 -1 -1</clus>
<clus scale="  209.763">  2  6  1 -1</clus>
<clus scale="  226.419">  1  3  2 -1</clus>
</clustering>
</event>
<event>
 6    0  0.3082502E+002  0.8182939E+02  0.7546771E-02  0.1323939E+00
          1   -1    0    0  504    0 -0.00000000000E+00  0.00000000000E+00  0.16978094998E+04  0.16978094998E+04  0.00000000000E+00 0.  1.
         21   -1    0    0  505  502  0.00000000000E+00 -0.00000000000E+00 -0.30251729846E+02  0.30251729846E+02  0.00000000000E+00 0. -1.
         21    1    1    2  503  502 -0.13829400694E+02 -0.47146843775E+02  0.53302241496E+02  0.72492800677E+02  0.00000000000E+00 0. -1.
         21    1    1    2  504  503  0.31529786745E+02 -0.15967350469E+02  0.13782236047E+03  0.14228171625E+03  0.00000000000E+00 0.  1.
         21    1    1    2  505  501 -0.24149092552E+02  0.11819420862E+03  0.18620861312E+03  0.22187090215E+03  0.00000000000E+00 0. -1.
          1    1    1    2  501    0  0.64487065016E+01 -0.55080014376E+02  0.12902245549E+04  0.12914158106E+04  0.00000000000E+00 0.  1.
<scales pt_clust_3="49.41350" pt_clust_4="35.34238" pt_clust_5="81.82939" pt_clust_6="14000.00000"></scales>
<clustering>
<clus scale="   35.342">  1  4  2 -1</clus>
<clus scale="   49.414">  2  3  1 -1</clus>
<clus scale="   81.829">  2  5  1 -1</clus>
<clus scale="   49.414">  2  3  1 -1</clus>
</clustering>
</event>
<event>
 6    0  0.3082502E+002  0.8664545E+02  0.7546771E-02  0.1311185E+00
          2   -1    0    0  505    0 -0.00000000000E+00  0.00000000000E+00  0.14728627836E+04  0.14728627836E+04  0.00000000000E+00 0. -1.
         21   -1    0    0  501  502  0.00000000000E+00 -0.00000000000E+00 -0.53244626467E+02  0.53244626467E+02  0.00000000000E+00 0. -1.
         21    1    1    2  503  504 -0.76949361980E+02  0.27715385938E+02  0.12010168890E+03  0.14530575558E+03  0.00000000000E+00 0. -1.
         21    1    1    2  504  502 -0.56124998426E+01 -0.60454197773E+02 -0.10878714952E+02  0.61681088041E+02  0.00000000000E+00 0. -1.
         21    1    1    2  505  503 -0.26715240332E+02  0.14206184806E+02  0.12737271231E+03  0.13091725476E+03  0.00000000000E+00 0.  1.
          2    1    1    2  501    0  0.10927710215E+03  0.18532627029E+02  0.11830224709E+04  0.11882033117E+04  0.00000000000E+00 0. -1.
<scales pt_clust_3="14000.00000" pt_clust_4="60.49575" pt_clust_5="30.25756" pt_clust_6="86.64545"></scales>
<clustering>
<clus scale="   30.258">  1  5  2 -1</clus>
<clus scale="   60.496">  2  4  1 -1</clus>
<clus scale="   86.645">  1  6  2 -1</clus>
<clus scale="   60.496">  2  3  1 -1</clus>
</clustering>
</event>
<event>
 6    0  0.3082502E+002  0.6978555E+02  0.7546771E-02  0.1360824E+00
         21   -1    0    0  505  502  0.00000000000E+00  0.00000000000E+00  0.12542081146E+04  0.12542081146E+04  0.00000000000E+00 0.  1.
          2   -1    0    0  503    0 -0.00000000000E+00 -0.00000000000E+00 -0.30049354942E+04  0.30049354942E+04  0.00000000000E+00 0.  1.
         21    1    1    2  503  502 -0.64171326063E+02  0.25155792894E+02 -0.56976650925E+03  0.57392041963E+03  0.00000000000E+00 0.  1.
         21    1    1    2  504  501  0.40395099251E+02 -0.42312402726E+02 -0.11383353654E+03  0.12798506753E+03  0.00000000000E+00 0.  1.
         21    1    1    2  505  504  0.20431378829E+01 -0.52582662645E+02  0.12439220432E+04  0.12450346021E+04  0.00000000000E+00 0.  1.
          2    1    1    2  501    0  0.21733088929E+02  0.69739272477E+02 -0.23110493770E+04  0.23122035196E+04  0.00000000000E+00 0.  1.
<scales pt_clust_3="65.23999" pt_clust_4="69.78555" pt_clust_5="52.62234" pt_clust_6="14000.00000"></scales>
<clustering>
<clus scale="   52.622">  1  5  2 -1</clus>
<clus scale="   65.240">  1  3  2 -1</clus>
<clus scale="   69.786">  1  4  2 -1</clus>
<clus scale="   52.622">  1  3  2 -1</clus>
</clustering>
</event>
<event>
 6    0  0.3082502E+002  0.1325336E+03  0.7546771E-02  0.1223744E+00
         21   -1    0    0  501  502  0.00000000000E+00  0.00000000000E+00  0.11442673949E+03  0.11442673949E+03  0.00000000000E+00 0.  1.
          2   -1    0    0  503    0 -0.00000000000E+00 -0.00000000000E+00 -0.27396466114E+04  0.27396466114E+04  0.00000000000E+00 0.  1.
         21    1    1    2  503  505 -0.94315824189E+01 -0.49489711237E+02 -0.64241469962E+03  0.64438717597E+03  0.00000000000E+00 0. -1.
         21    1    1    2  504  502  0.81647220095E+01 -0.50476413293E+02  0.93520755182E+02  0.10658640924E+03  0.00000000000E+00 0.  1.
         21    1    1    2  505  504  0.12294911138E+03  0.80818026984E+01 -0.37004146337E+03  0.39001600497E+03  0.00000000000E+00 0. -1.
          2    1    1    2  501    0 -0.12168225097E+03  0.91884321831E+02 -0.17062844641E+04  0.17130837607E+04  0.00000000000E+00 0.  1.
<scales pt_clust_3="50.38042" pt_clust_4="51.28007" pt_clust_5="132.53362" pt_clust_6="14000.00000"></scales>
<clustering>
<clus scale="   50.380">  2  3  1 -1</clus>
<clus scale="   51.280">  1  4  2 -1</clus>
<clus scale="  132.534">  1  5  2 -1</clus>
<clus scale="   51.280">  1  3  2 -1</clus>
</clustering>
</event>
<event>
 6    0  0.3838882E+002  0.1838232E+03  0.7546771E-02  0.1164153E+00
          2   -1    0    0  505    0 -0.00000000000E+00  0.00000000000E+00  0.16248184066E+04  0.16248184066E+04  0.00000000000E+00 0.  1.
         21   -1    0    0  503  502  0.00000000000E+00 -0.00000000000E+00 -0.31827355137E+03  0.31827355137E+03  0.00000000000E+00 0.  1.
         21    1    1    2  503  504  0.34970715688E+02 -0.67154144860E+02  0.50752876902E+02  0.91150889416E+02  0.00000000000E+00 0.  1.
         21    1    1    2  504  501  0.42426835247E+02 -0.21870267950E+02  0.80078093115E+02  0.93224706845E+02  0.00000000000E+00 0.  1.
         21    1    1    2  505  502 -0.12135320099E+03  0.14164592505E+03 -0.26076253516E+03  0.32060453399E+03  0.00000000000E+00 0.  1.
          2    1    1    2  501    0  0.43955650057E+02 -0.52621512239E+02  0.14364764204E+04  0.14381118277E+04  0.00000000000E+00 0.  1.
<scales pt_clust_3="43.21166" pt_clust_4="43.21166" pt_clust_5="175.58208" pt_clust_6="68.56473"></scales>
<clustering>
<clus scale="   43.212">  3  4 -1 -1</clus>
<clus scale="   68.565">  1  6  2 -1</clus>
<clus scale="  175.582">  2  5  1 -1</clus>
<clus scale="  175.582">  2  3  1 -1</clus>
</clustering>
</event>
<event>
 6    0  0.3082502E+002  0.6473443E+02  0.7546771E-02  0.1378973E+00
         21   -1    0    0  503  502  0.00000000000E+00  0.00000000000E+00  0.28169619022E+02  0.28169619022E+02  0.00000000000E+00 0.  1.
          2   -1    0    0  504    0 -0.00000000000E+00 -0.00000000000E+00 -0.30079641411E+04  0.30079641411E+04  0.00000000000E+00 0. -1.
         21    1    1    2  503  501 -0.13913234285E+02  0.41581886941E+02 -0.45069171976E+02  0.62879739761E+02  0.00000000000E+00 0.  1.
         21    1    1    2  504  505 -0.52761385256E+02 -0.15842634245E+02 -0.53952756123E+03  0.54233268587E+03  0.00000000000E+00 0. -1.
         21    1    1    2  505  502 -0.44438823314E+02 -0.61153440090E+02 -0.70712304829E+02  0.10351223264E+03  0.00000000000E+00 0.  1.
          2    1    1    2  501    0  0.11111344286E+03  0.35414187394E+02 -0.23244854840E+04  0.23274091018E+04  0.00000000000E+00 0. -1.
<scales pt_clust_3="43.84782" pt_clust_4="55.28029" pt_clust_5="14000.00000" pt_clust_6="64.73443"></scales>
<clustering>
<clus scale="   43.848">  1  3  2 -1</clus>
<clus scale="   55.280">  2  4  1 -1</clus>
<clus scale="   64.734">  2  6  1 -1</clus>
<clus scale="   43.848">  1  3  2 -1</clus>
</clustering>
</event>
<event>
 6    0  0.3082502E+002  0.8169960E+02  0.7546771E-02  0.1324296E+00
         21   -1    0    0  505  502  0.00000000000E+00  0.00000000000E+00  0.14273313936E+03  0.14273313936E+03  0.00000000000E+00 0. -1.
          2   -1    0    0  504    0 -0.00000000000E+00 -0.00000000000E+00 -0.76057546828E+03  0.76057546828E+03  0.00000000000E+00 0. -1.
         21    1    1    2  503  502 -0.56658702106E+01 -0.48196731171E+02  0.12841057152E+02  0.50198802074E+02  0.00000000000E+00 0.  1.
         21    1    1    2  504  503 -0.22833820570E+02 -0.67440371291E+02 -0.12771183743E+03  0.14621867344E+03  0.00000000000E+00 0. -1.
         21    1    1    2  505  501 -0.74625915550E+02  0.33994330418E+02  0.76821179483E+02  0.11236607757E+03  0.00000000000E+00 0. -1.
          2    1    1    2  501    0  0.10312560633E+03  0.81642772044E+02 -0.57979272812E+03  0.59452505455E+03  0.00000000000E+00 0. -1.
<scales pt_clust_3="48.52862" pt_clust_4="75.15527" pt_clust_5="14000.00000" pt_clust_6="81.69960"></scales>
<clustering>
<clus scale="   48.529">  1  3  2 -1</clus>
<clus scale="   75.155">  2  4  1 -1</clus>
<clus scale="   81.700">  2  6  1 -1</clus>
<clus scale="   48.529">  1  3  2 -1</clus>
</clustering>
</event>
<event>
 6    0  0.3082502E+002  0.7617129E+02  0.7546771E-02  0.1340282E+00
          1   -1    0    0  505    0 -0.00000000000E+00  0.00000000000E+00  0.41265989747E+04  0.41265989747E+04  0.00000000000E+00 0. -1.
         21   -1    0    0  503  502  0.00000000000E+00 -0.00000000000E+00 -0.15723435991E+02  0.15723435991E+02  0.00000000000E+00 0.  1.
         21    1    1    2  503  501  0.10417111425E+03 -0.48651889358E+02  0.29251748444E+03  0.31430098009E+03  0.00000000000E+00 0.  1.
         21    1    1    2  504  502 -0.44638160818E+02  0.58088048927E+01  0.12423223956E+03  0.13213613042E+03  0.00000000000E+00 0. -1.
         21    1    1    2  505  504 -0.20391925989E+02 -0.27070286414E+02  0.11240467440E+04  0.11245575636E+04  0.00000000000E+00 0.  1.
          1    1    1    2  501    0 -0.39141027444E+02  0.69913370879E+02  0.25700790707E+04  0.25713277366E+04  0.00000000000E+00 0. -1.
<scales pt_clust_3="14000.00000" pt_clust_4="45.74606" pt_clust_5="33.89146" pt_clust_6="76.17129"></scales>
<clustering>
<clus scale="   33.891">  1  5  2 -1</clus>
<clus scale="   45.746">  2  4  1 -1</clus>
<clus scale="   76.171">  1  6  2 -1</clus>
<clus scale="   45.746">  2  3  1 -1</clus>
</clustering>
</event>
<event>
 6    0  0.3082502E+002  0.8205063E+02  0.7546771E-02  0.1323331E+00
         21   -1    0    0  501  502  0.00000000000E+00  0.00000000000E+00  0.42608432182E+02  0.42608432182E+02  0.00000000000E+00 0. -1.
          1   -1    0    0  505    0 -0.00000000000E+00 -0.00000000000E+00 -0.15845788130E+04  0.15845788130E+04  0.00000000000E+00 0. -1.
         21    1    1    2  503  502  0.34434537430E+02 -0.76077817803E+01  0.10568895721E+02  0.36814633890E+02  0.00000000000E+00 0. -1.
         21    1    1    2  504  503  0.32544829587E+01  0.81510366623E+02 -0.98073155480E+02  0.12756518080E+03  0.00000000000E+00 0. -1.
         21    1    1    2  505  504  0.43607509082E+02 -0.15624042864E+02 -0.73003675860E+03  0.73150488342E+03  0.00000000000E+00 0. -1.
          1    1    1    2  501    0 -0.81296529471E+02 -0.58278541979E+02 -0.72442936243E+03  0.73130254704E+03  0.00000000000E+00 0. -1.
<scales pt_clust_3="35.26494" pt_clust_4="14000.00000" pt_clust_5="47.67980" pt_clust_6="82.05063"></scales>
<clustering>
<clus scale="   35.265">  1  3  2 -1</clus>
<clus scale="   47.680">  2  5  1 -1</clus>
<clus scale="   82.051">  2  6  1 -1</clus>
<clus scale="   35.265">  1  3  2 -1</clus>
</clustering>
</event>
<event>
 6    0  0.3082502E+002  0.9554565E+02  0.7546771E-02  0.1289952E+00
         21   -1    0    0  503  502  0.00000000000E+00  0.00000000000E+00  0.31813257349E+03  0.31813257349E+03  0.00000000000E+00 0. -1.
          1   -1    0    0  505    0 -0.00000000000E+00 -0.00000000000E+00 -0.57361215535E+03  0.57361215535E+03  0.00000000000E+00 0. -1.
         21    1    1    2  503  501 -0.15804229351E+02  0.95449485061E+02  0.93634898847E+02  0.13463978664E+03  0.00000000000E+00 0. -1.
         21    1    1    2  504  502  0.99027437755E+02 -0.54132557502E+02  0.18254549248E+03  0.21461506013E+03  0.00000000000E+00 0. -1.
         21    1    1    2  505  504 -0.21443326569E+02 -0.40137403401E+02 -0.19864583810E+03  0.20379155135E+03  0.00000000000E+00 0. -1.
          1    1    1    2  501    0 -0.61779881836E+02 -0.11795241579E+01 -0.33301413507E+03  0.33869833072E+03  0.00000000000E+00 0. -1.
<scales pt_clust_3="95.54565" pt_clust_4="14000.00000" pt_clust_5="45.50634" pt_clust_6="89.31697"></scales>
<clustering>
<clus scale="   45.506">  2  5  1 -1</clus>
<clus scale="   89.317">  2  6  1 -1</clus>
<clus scale="   95.546">  2  3  1 -1</clus>
<clus scale="   95.546">  1  3  2 -1</clus>
</clustering>
</event>
<event>
 6    0  0.3082502E+002  0.9214313E+02  0.7546771E-02  0.1297743E+00
          2   -1    0    0  504    0 -0.00000000000E+00  0.00000000000E+00  0.30698253841E+04  0.30698253841E+04  0.00000000000E+00 0. -1.
         21   -1    0    0  503  502  0.00000000000E+00 -0.00000000000E+00 -0.61903310162E+02  0.61903310162E+02  0.00000000000E+00 0.  1.
         21    1    1    2  503  501 -0.38832847380E+02 -0.33733202381E+01  0.11388202358E+03  0.12036812127E+03  0.00000000000E+00 0. -1.
         21    1    1    2  504  505  0.77779231071E+02  0.30734919350E+02  0.11516905349E+04  0.11547230543E+04  0.00000000000E+00 0. -1.
         21    1    1    2  505  502  0.62258039849E+02 -0.15787653350E+02 -0.37167512580E+02  0.74207395288E+02  0.00000000000E+00 0.  1.
          2    1    1    2  501    0 -0.10120442354E+03 -0.11573945762E+02  0.17795170281E+04  0.17824301234E+04  0.00000000000E+00 0. -1.
<scales pt_clust_3="38.97909" pt_clust_4="14000.00000" pt_clust_5="31.70858" pt_clust_6="92.14313"></scales>
<clustering>
<clus scale="   38.979">  2  3  1 -1</clus>
<clus scale="   31.709">  2  5  1 -1</clus>
<clus scale="   92.143">  1  6  2 -1</clus>
<clus scale="   38.979">  2  3  1 -1</clus>
</clustering>
</event>
<event>
 6    0  0.3082502E+002  0.9566177E+02  0.7546771E-02  0.1289693E+00
         -2   -1    0    0    0  501 -0.00000000000E+00  0.00000000000E+00  0.46281488389E+03  0.46281488389E+03  0.00000000000E+00 0. -1.
         21   -1    0    0  504  502  0.00000000000E+00 -0.00000000000E+00 -0.10689746197E+04  0.10689746197E+04  0.00000000000E+00 0. -1.
         21    1    1    2  503  502 -0.78950740147E+02  0.55909103649E+02 -0.10338101454E+04  0.10383267617E+04  0.00000000000E+00 0. -1.
         21    1    1    2  504  501  0.16592800234E+02 -0.35983700801E+02  0.81999854687E+00  0.39633573401E+02  0.00000000000E+00 0. -1.
         21    1    1    2  505  503  0.62266642266E+01 -0.64797904417E+02  0.10094406514E+03  0.12011346324E+03  0.00000000000E+00 0. -1.
         -2    1    1    2    0  505  0.56131275687E+02  0.44872501569E+02  0.32588634590E+03  0.33371570528E+03  0.00000000000E+00 0. -1.
<scales pt_clust_3="14000.00000" pt_clust_4="39.62509" pt_clust_5="95.66177" pt_clust_6="70.83622"></scales>
<clustering>
<clus scale="   39.625">  1  4  2 -1</clus>
<clus scale="   70.836">  1  6  2 -1</clus>
<clus scale="   95.662">  1  5  2 -1</clus>
<clus scale="   95.662">  2  3  1 -1</clus>
</clustering>
</event>
<event>
 6    0  0.3082502E+002  0.2635243E+03  0.7546771E-02  0.1105044E+00
         21   -1    0    0  505  502  0.00000000000E+00  0.00000000000E+00  0.48733507327E+03  0.48733507327E+03  0.00000000000E+00 0. -1.
          1   -1    0    0  503    0 -0.00000000000E+00 -0.00000000000E+00 -0.12027706289E+04  0.12027706289E+04  0.00000000000E+00 0.  1.
         21    1    1    2  503  502 -0.15119904272E+02  0.32008215676E+02 -0.31967090548E+03  0.32162497600E+03  0.00000000000E+00 0.  1.
         21    1    1    2  504  501  0.18508179249E+03  0.99673533855E+02 -0.18979080652E+03  0.28321481864E+03  0.00000000000E+00 0.  1.
         21    1    1    2  505  504 -0.25393273331E+03 -0.10130899115E+03  0.39351383630E+03  0.47916436020E+03  0.00000000000E+00 0. -1.
          1    1    1    2  501    0  0.83970845090E+02 -0.30372758385E+02 -0.59948767989E+03  0.60610154728E+03  0.00000000000E+00 0.  1.
<scales pt_clust_3="35.39968" pt_clust_4="14000.00000" pt_clust_5="263.52429" pt_clust_6="74.12768"></scales>
<clustering>
<clus scale="   35.400">  2  3  1 -1</clus>
<clus scale="   74.128">  2  6  1 -1</clus>
<clus scale="  263.524">  1  5  2 -1</clus>
<clus scale="  263.524">  1  3  2 -1</clus>
</clustering>
</event>
<event>
 6    0  0.3082502E+002  0.9949025E+02  0.7546771E-02  0.1281372E+00
         -4   -1    0    0    0  501 -0.00000000000E+00  0.00000000000E+00  0.23947876844E+03  0.23947876844E+03  0.00000000000E+00 0. -1.
         21   -1    0    0  504  502  0.00000000000E+00 -0.00000000000E+00 -0.57418122005E+03  0.57418122005E+03  0.00000000000E+00 0. -1.
         21    1    1    2  503  501  0.50598437581E+02  0.46422523786E+02  0.37997648865E+02  0.78479767582E+02  0.00000000000E+00 0.  1.
         21    1    1    2  504  503 -0.86477948840E+02  0.34293743681E+02  0.10437565348E+03  0.13981692863E+03  0.00000000000E+00 0. -1.
         21    1    1    2  505  502 -0.45756269946E+02  0.32733999976E+02 -0.44936588876E+03  0.45287399238E+03  0.00000000000E+00 0. -1.
         -4    1    1    2    0  505  0.81635781205E+02 -0.11345026744E+03 -0.27709865206E+02  0.14248929990E+03  0.00000000000E+00 0. -1.
<scales pt_clust_3="67.37330" pt_clust_4="99.49025" pt_clust_5="56.25967" pt_clust_6="14000.00000"></scales>
<clustering>
<clus scale="   56.260">  2  5  1 -1</clus>
<clus scale="   67.373">  1  3  2 -1</clus>
<clus scale="   99.490">  1  4  2 -1</clus>
<clus scale="   56.260">  2  3  1 -1</clus>
</clustering>
</event>
<event>
 6    0  0.3082502E+002  0.1592352E+03  0.7546771E-02  0.1189563E+00
         21   -1    0    0  505  502  0.00000000000E+00  0.00000000000E+00  0.27274803874E+03  0.27274803874E+03  0.00000000000E+00 0.  1.
          2   -1    0    0  503    0 -0.00000000000E+00 -0.00000000000E+00 -0.12276048525E+04  0.12276048525E+04  0.00000000000E+00 0. -1.
         21    1    1    2  503  502  0.29108907400E+02 -0.96360716722E+02 -0.10655120992E+03  0.14658061452E+03  0.00000000000E+00 0. -1.
         21    1    1    2  504  501  0.11655542142E+03 -0.36847469460E+02  0.17267856724E+03  0.21156745934E+03  0.00000000000E+00 0.  1.
         21    1    1    2  505  504 -0.25434780836E+01 -0.77912691924E+02  0.11396851103E+02  0.78782898262E+02  0.00000000000E+00 0. -1.
          2    1    1    2  501    0 -0.14312085074E+03  0.21112087811E+03 -0.10323810222E+04  0.10634219191E+04  0.00000000000E+00 0. -1.
<scales pt_clust_3="107.17630" pt_clust_4="159.23520" pt_clust_5="77.95420" pt_clust_6="14000.00000"></scales>
<clustering>
<clus scale="   77.954">  1  5  2 -1</clus>
<clus scale="  107.176">  2  3  1 -1</clus>
<clus scale="  159.235">  1  4  2 -1</clus>
<clus scale="   77.954">  1  3  2 -1</clus>
</clustering>
</event>
<event>
 6    0  0.3082502E+002  0.1322668E+03  0.7546771E-02  0.1224130E+00
         21   -1    0    0  503  502  0.00000000000E+00  0.00000000000E+00  0.37987061401E+02  0.37987061401E+02  0.00000000000E+00 0.  1.
          2   -1    0    0  504    0 -0.00000000000E+00 -0.00000000000E+00 -0.50198994692E+04  0.50198994692E+04  0.00000000000E+00 0. -1.
         21    1    1    2  503  501 -0.13118515970E+03 -0.24721677023E+02 -0.17328950135E+03  0.21874633418E+03  0.00000000000E+00 0.  1.
         21    1    1    2  504  505 -0.21263150800E+01  0.87439659439E+02 -0.14340054438E+04  0.14366703965E+04  0.00000000000E+00 0.  1.
         21    1    1    2  505  502  0.29978109157E+02  0.10697101437E+03 -0.27641787110E+03  0.29790656993E+03  0.00000000000E+00 0.  1.
          2    1    1    2  501    0  0.10333336562E+03 -0.16968899679E+03 -0.30981995916E+04  0.31045632300E+04  0.00000000000E+00 0. -1.
<scales pt_clust_3="14000.00000" pt_clust_4="87.46551" pt_clust_5="117.80918" pt_clust_6="132.26682"></scales>
<clustering>
<clus scale="   87.466">  2  4  1 -1</clus>
<clus scale="  117.809">  1  5  2 -1</clus>
<clus scale="  132.267">  2  6  1 -1</clus>
<clus scale="  117.809">  1  3  2 -1</clus>
</clustering>
</event>
<event>
 6    0  0.3082502E+002  0.1286862E+03  0.7546771E-02  0.1229418E+00
          1   -1    0    0  505    0 -0.00000000000E+00  0.00000000000E+00  0.37811533042E+03  0.37811533042E+03  0.00000000000E+00 0.  1.
         21   -1    0    0  503  502  0.00000000000E+00 -0.00000000000E+00 -0.93335989085E+03  0.93335989085E+03  0.00000000000E+00 0. -1.
         21    1    1    2  503  501  0.12216526012E+03  0.64923650283E+02 -0.80115116074E+03  0.81300837234E+03  0.00000000000E+00 0. -1.
         21    1    1    2  504  502 -0.71977687563E+02 -0.63841476609E+02 -0.87225746801E+02  0.12986474713E+03  0.00000000000E+00 0.  1.
         21    1    1    2  505  504  0.28393346962E+02 -0.14885646048E+02  0.69493995982E+01  0.32803334658E+02  0.00000000000E+00 0.  1.
          1    1    1    2  501    0 -0.78580919518E+02  0.13803472374E+02  0.32618294752E+03  0.33579876714E+03  0.00000000000E+00 0.  1.
<scales pt_clust_3="128.68616" pt_clust_4="14000.00000" pt_clust_5="32.05877" pt_clust_6="52.34723"></scales>
<clustering>
<clus scale="   32.059">  1  5  2 -1</clus>
<clus scale="   52.347">  1  6  2 -1</clus>
<clus scale="  128.686">  2  3  1 -1</clus>
<clus scale="  128.686">  2  3  1 -1</clus>
</clustering>
</event>
<event>
 6    0  0.3082502E+002  0.1184514E+03  0.7546771E-02  0.1245674E+00
         21   -1    0    0  504  502  0.00000000000E+00  0.00000000000E+00  0.11544611107E+03  0.11544611107E+03  0.00000000000E+00 0. -1.
          1   -1    0    0  503    0 -0.00000000000E+00 -0.00000000000E+00 -0.86267653552E+03  0.86267653552E+03  0.00000000000E+00 0.  1.
         21    1    1    2  503  505  0.34318091206E+02  0.30179408009E+02 -0.10104663867E+03  0.11090063678E+03  0.00000000000E+00 0. -1.
         21    1    1    2  504  501  0.29820212697E+02 -0.12696434315E+03 -0.23871709947E+02  0.13258600247E+03  0.00000000000E+00 0. -1.
         21    1    1    2  505  502  0.78066994965E+02  0.83543148341E+02 -0.20569360162E+02  0.11617664100E+03  0.00000000000E+00 0. -1.
          1    1    1    2  501    0 -0.14220529887E+03  0.13241786796E+02 -0.60174271567E+03  0.61845936633E+03  0.00000000000E+00 0.  1.
<scales pt_clust_3="45.70042" pt_clust_4="113.76510" pt_clust_5="118.45144" pt_clust_6="14000.00000"></scales>
<clustering>
<clus scale="   45.700">  2  3  1 -1</clus>
<clus scale="  118.451">  1  5  2 -1</clus>
<clus scale="  113.765">  1  4  2 -1</clus>
<clus scale="  118.451">  1  3  2 -1</clus>
</clustering>
</event>
<event>
 6    0  0.3082502E+002  0.2218360E+03  0.7546771E-02  0.1132522E+00
          2   -1    0    0  503    0 -0.00000000000E+00  0.00000000000E+00  0.21520236804E+04  0.21520236804E+04  0.00000000000E+00 0.  1.
         21   -1    0    0  504  502  0.00000000000E+00 -0.00000000000E+00 -0.15980295806E+04  0.15980295806E+04  0.00000000000E+00 0. -1.
         21    1    1    2  503  505  0.23061523155E+03 -0.82279862874E+02  0.14200325631E+04  0.14409878005E+04  0.00000000000E+00 0. -1.
         21    1    1    2  504  501  0.25535545077E+02 -0.29218638538E+02 -0.11073872199E+04  0.11080668968E+04  0.00000000000E+00 0. -1.
         21    1    1    2  505  502 -0.69793737857E+02  0.59579634361E+02 -0.46225958278E+03  0.47127998106E+03  0.00000000000E+00 0. -1.
          2    1    1    2  501    0 -0.18635703877E+03  0.51918867051E+02  0.70360833937E+03  0.72971858266E+03  0.00000000000E+00 0.  1.
<scales pt_clust_3="221.83599" pt_clust_4="38.80455" pt_clust_5="55.47693" pt_clust_6="14000.00000"></scales>
<clustering>
<clus scale="   38.805">  2  4  1 -1</clus>
<clus scale="   55.477">  2  5  1 -1</clus>
<clus scale="  221.836">  1  3  2 -1</clus>
<clus scale="   38.805">  2  3  1 -1</clus>
</clustering>
</event>
<event>
 6    0  0.3082502E+002  0.1858462E+03  0.7546771E-02  0.1162262E+00
         21   -1    0    0  505  502  0.00000000000E+00  0.00000000000E+00  0.14979892813E+03  0.14979892813E+03  0.00000000000E+00 0. -1.
          1   -1    0    0  503    0 -0.00000000000E+00 -0.00000000000E+00 -0.11225592935E+04  0.11225592935E+04  0.00000000000E+00 0. -1.
         21    1    1    2  503  502 -0.79306499135E+02  0.23643836222E+02 -0.56565785960E+02  0.10024090950E+03  0.00000000000E+00 0. -1.
         21    1    1    2  504  501 -0.68313532301E+02 -0.22716515007E+02 -0.26440096432E+03  0.27402672987E+03  0.00000000000E+00 0. -1.
         21    1    1    2  505  504  0.19476423631E+03  0.92853482307E+02  0.21343605740E+02  0.21681887931E+03  0.00000000000E+00 0. -1.
          1    1    1    2  501    0 -0.47144204870E+02 -0.93780803522E+02 -0.67313722088E+03  0.68127170299E+03  0.00000000000E+00 0. -1.
<scales pt_clust_3="82.75598" pt_clust_4="67.86534" pt_clust_5="166.80428" pt_clust_6="67.86534"></scales>
<clustering>
<clus scale="   67.865">  4  6 -1 -1</clus>
<clus scale="   82.756">  1  3  2 -1</clus>
<clus scale="  166.804">  1  5  2 -1</clus>
<clus scale="   82.756">  1  3  2 -1</clus>
</clustering>
</event>
<event>
 6    0  0.3082502E+002  0.1106002E+03  0.7546771E-02  0.1259462E+00
         -2   -1    0    0    0  501 -0.00000000000E+00  0.00000000000E+00  0.74664825515E+03  0.74664825515E+03  0.00000000000E+00 0. -1.
         21   -1    0    0  504  502  0.00000000000E+00 -0.00000000000E+00 -0.36478499384E+03  0.36478499384E+03  0.00000000000E+00 0. -1.
         21    1    1    2  503  502  0.58999442638E+02 -0.92548558391E+02 -0.28952373679E+03  0.30962907496E+03  0.00000000000E+00 0. -1.
         21    1    1    2  504  505 -0.22586142803E+02  0.12316778864E+03  0.27590869343E+02  0.12822516944E+03  0.00000000000E+00 0. -1.
         21    1    1    2  505  501  0.56393955598E+02  0.26144028689E+02  0.91152887264E+02  0.11032967561E+03  0.00000000000E+00 0. -1.
         -2    1    1    2    0  503 -0.92807255433E+02 -0.56763258942E+02  0.55264324150E+03  0.56324932898E+03  0.00000000000E+00 0. -1.
<scales pt_clust_3="110.60017" pt_clust_4="14000.00000" pt_clust_5="62.15938" pt_clust_6="55.78930"></scales>
<clustering>
<clus scale="   62.159">  1  5  2 -1</clus>
<clus scale="   55.789">  1  6  2 -1</clus>
<clus scale="  110.600">  2  3  1 -1</clus>
<clus scale="  110.600">  2  3  1 -1</clus>
</clustering>
</event>
<event>
 6    0  0.3082502E+002  0.9170819E+02  0.7546771E-02  0.1298767E+00
         21   -1    0    0  504  502  0.00000000000E+00  0.00000000000E+00  0.82475729159E+02  0.82475729159E+02  0.00000000000E+00 0.  1.
          2   -1    0    0  503    0 -0.00000000000E+00 -0.00000000000E+00 -0.30628500993E+04  0.30628500993E+04  0.00000000000E+00 0. -1.
         21    1    1    2  503  505  0.83947067161E+02  0.14022871770E+02 -0.10051771185E+04  0.10087739046E+04  0.00000000000E+00 0. -1.
         21    1    1    2  504  501 -0.13557336545E+02 -0.39215750269E+02 -0.32475600659E+02  0.52690996209E+02  0.00000000000E+00 0.  1.
         21    1    1    2  505  502  0.18176967165E+02 -0.45447120076E+02  0.60284583004E+02  0.77653549864E+02  0.00000000000E+00 0.  1.
          2    1    1    2  501    0 -0.88566697782E+02  0.70639998575E+02 -0.20030062340E+04  0.20062073778E+04  0.00000000000E+00 0. -1.
<scales pt_clust_3="91.70819" pt_clust_4="41.49309" pt_clust_5="82.98763" pt_clust_6="14000.00000"></scales>
<clustering>
<clus scale="   41.493">  1  4  2 -1</clus>
<clus scale="   82.988">  1  5  2 -1</clus>
<clus scale="   91.708">  1  3  2 -1</clus>
<clus scale="   41.493">  1  3  2 -1</clus>
</clustering>
</event>
<event>
 6    0  0.3082502E+002  0.6600610E+02  0.7546771E-02  0.1374226E+00
         21   -1    0    0  501  502  0.00000000000E+00  0.00000000000E+00  0.70374858613E+03  0.70374858613E+03  0.00000000000E+00 0. -1.
          4   -1    0    0  504    0 -0.00000000000E+00 -0.00000000000E+00 -0.34391829143E+03  0.34391829143E+03  0.00000000000E+00 0. -1.
         21    1    1    2  503  505 -0.62777547339E+02  0.49399402207E+02  0.76504844223E+02  0.11060882685E+03  0.00000000000E+00 0. -1.
         21    1    1    2  504  503  0.23227815713E+02  0.45739799841E+02 -0.60872686598E+02  0.79606184973E+02  0.00000000000E+00 0. -1.
         21    1    1    2  505  502  0.33586447648E+02  0.60652476840E+01  0.59030032528E+03  0.59128614961E+03  0.00000000000E+00 0. -1.
          4    1    1    2  501    0  0.59632839777E+01 -0.10120444973E+03 -0.24610218820E+03  0.26616571612E+03  0.00000000000E+00 0. -1.
<scales pt_clust_3="14000.00000" pt_clust_4="53.05720" pt_clust_5="34.12970" pt_clust_6="66.00610"></scales>
<clustering>
<clus scale="   34.130">  1  5  2 -1</clus>
<clus scale="   53.057">  2  4  1 -1</clus>
<clus scale="   66.006">  2  6  1 -1</clus>
<clus scale="   34.130">  1  3  2 -1</clus>
</clustering>
</event>
<event>
 6    0  0.3082502E+002  0.9103585E+02  0.7546771E-02  0.1300362E+00
          2   -1    0    0  505    0 -0.00000000000E+00  0.00000000000E+00  0.11181607311E+04  0.11181607311E+04  0.00000000000E+00 0. -1.
         21   -1    0    0  504  502  0.00000000000E+00 -0.00000000000E+00 -0.16669650240E+03  0.16669650240E+03  0.00000000000E+00 0. -1.
         21    1    1    2  503  501 -0.28998956557E+02  0.67636960552E+02  0.13121644616E+03  0.15044418784E+03  0.00000000000E+00 0.  1.
         21    1    1    2  504  503  0.56686171791E+02 -0.44310503083E+01 -0.36951641533E+02  0.67811356653E+02  0.00000000000E+00 0. -1.
         21    1    1    2  505  502 -0.73921577922E+02 -0.93526499417E+02 -0.69674474691E+02  0.13808018757E+03  0.00000000000E+00 0. -1.
          2    1    1    2  501    0  0.46234362688E+02  0.30320589174E+02  0.92687389872E+03  0.92852150139E+03  0.00000000000E+00 0. -1.
<scales pt_clust_3="91.03585" pt_clust_4="60.46398" pt_clust_5="14000.00000" pt_clust_6="55.28973"></scales>
<clustering>
<clus scale="   55.290">  1  6  2 -1</clus>
<clus scale="   60.464">  2  4  1 -1</clus>
<clus scale="   91.036">  1  3  2 -1</clus>
<clus scale="   60.464">  2  3  1 -1</clus>
</clustering>
</event>
<event>
 6    0  0.3082502E+002  0.7586365E+02  0.7546771E-02  0.1341217E+00
         21   -1    0    0  505  502  0.00000000000E+00  0.00000000000E+00  0.14564177513E+03  0.14564177513E+03  0.00000000000E+00 0. -1.
         -2   -1    0    0    0  501 -0.00000000000E+00 -0.00000000000E+00 -0.32374224648E+03  0.32374224648E+03  0.00000000000E+00 0. -1.
         21    1    1    2  503  502  0.35709852592E+02 -0.56609354779E+02  0.42569462782E+02  0.79321950191E+02  0.00000000000E+00 0. -1.
         21    1    1    2  504  501  0.34691263412E+02 -0.13283364947E+02 -0.16363077350E+03  0.16779440270E+03  0.00000000000E+00 0. -1.
         21    1    1    2  505  504  0.30287518400E+02  0.25266591036E+02  0.53340921588E+02  0.66339945050E+02  0.00000000000E+00 0. -1.
         -2    1    1    2    0  503 -0.10068863440E+03  0.44626128691E+02 -0.11038008222E+03  0.15592772368E+03  0.00000000000E+00 0. -1.
<scales pt_clust_3="14000.00000" pt_clust_4="37.14743" pt_clust_5="40.21056" pt_clust_6="75.86365"></scales>
<clustering>
<clus scale="   37.147">  2  4  1 -1</clus>
<clus scale="   40.211">  1  5  2 -1</clus>
<clus scale="   75.864">  2  6  1 -1</clus>
<clus scale="   40.211">  1  3  2 -1</clus>
</clustering>
</event>
<event>
 6    0  0.3082502E+002  0.7492378E+02  0.7546771E-02  0.1344107E+00
         21   -1    0    0  505  502  0.00000000000E+00  0.00000000000E+00  0.37398979767E+03  0.37398979767E+03  0.00000000000E+00 0. -1.
          2   -1    0    0  504    0 -0.00000000000E+00 -0.00000000000E+00 -0.81446505752E+02  0.81446505752E+02  0.00000000000E+00 0. -1.
         21    1    1    2  503  502  0.77869767844E+02  0.25943310976E+02  0.18774063640E+03  0.20489827399E+03  0.00000000000E+00 0. -1.
         21    1    1    2  504  503  0.73706267430E+00  0.48667627533E+02 -0.84371441340E+01  0.49399054973E+02  0.00000000000E+00 0. -1.
         21    1    1    2  505  501 -0.67647896863E+02 -0.70768772192E+01  0.11396344473E+03  0.13271769617E+03  0.00000000000E+00 0. -1.
          2    1    1    2  501    0 -0.10958933655E+02 -0.67534061290E+02 -0.72364507543E+00  0.68421278294E+02  0.00000000000E+00 0. -1.
<scales pt_clust_3="74.92378" pt_clust_4="48.67321" pt_clust_5="14000.00000" pt_clust_6="37.01538"></scales>
<clustering>
<clus scale="   48.673">  2  4  1 -1</clus>
<clus scale="   37.015">  2  6  1 -1</clus>
<clus scale="   74.924">  1  3  2 -1</clus>
<clus scale="   74.924">  1  3  2 -1</clus>
</clustering>
</event>
<event>
 6    0  0.3082502E+002  0.1145781E+03  0.7546771E-02  0.1252319E+00
         21   -1    0    0  504  502  0.00000000000E+00  0.00000000000E+00  0.17365302797E+04  0.17365302797E+04  0.00000000000E+00 0. -1.
          2   -1    0    0  505    0 -0.00000000000E+00 -0.00000000000E+00 -0.19547772043E+04  0.19547772043E+04  0.00000000000E+00 0.  1.
         21    1    1    2  503  501 -0.77188846090E+02  0.70072586025E+01  0.22166142664E+03  0.23482122496E+03  0.00000000000E+00 0.  1.
         21    1    1    2  504  503 -0.37011224749E+02  0.10096114562E+02  0.15052710686E+04  0.15057598588E+04  0.00000000000E+00 0. -1.
         21    1    1    2  505  502  0.21612601064E+02 -0.37789574317E+02 -0.96086236768E+03  0.96184803690E+03  0.00000000000E+00 0.  1.
          2    1    1    2  501    0  0.92587469775E+02  0.20686201153E+02 -0.98431705217E+03  0.98887836344E+03  0.00000000000E+00 0.  1.
<scales pt_clust_3="114.57808" pt_clust_4="38.36355" pt_clust_5="43.47554" pt_clust_6="14000.00000"></scales>
<clustering>
<clus scale="   38.364">  1  4  2 -1</clus>
<clus scale="   43.476">  2  5  1 -1</clus>
<clus scale="  114.578">  1  3  2 -1</clus>
<clus scale="   38.364">  1  3  2 -1</clus>
</clustering>
</event>
<event>
 6    0  0.3082502E+002  0.1442378E+03  0.7546771E-02  0.1207738E+00
         21   -1    0    0  501  502  0.00000000000E+00  0.00000000000E+00  0.54143129316E+03  0.54143129316E+03  0.00000000000E+00 0.  1.
          2   -1    0    0  504    0 -0.00000000000E+00 -0.00000000000E+00 -0.73226421447E+03  0.73226421447E+03  0.00000000000E+00 0.  1.
         21    1    1    2  503  505  0.45157642999E+02  0.12299776641E+03  0.17832934124E+03  0.22128944216E+03  0.00000000000E+00 0. -1.
         21    1    1    2  504  503  0.49235109278E+02 -0.22135662143E+02 -0.29115644069E+03  0.29611848385E+03  0.00000000000E+00 0. -1.
         21    1    1    2  505  502 -0.23872811510E+02  0.21738492892E+02  0.32633268793E+03  0.32792605327E+03  0.00000000000E+00 0.  1.
          2    1    1    2  501    0 -0.70519940767E+02 -0.12260059716E+03 -0.40433850979E+03  0.42836152835E+03  0.00000000000E+00 0.  1.
<scales pt_clust_3="144.23785" pt_clust_4="53.62710" pt_clust_5="32.28735" pt_clust_6="14000.00000"></scales>
<clustering>
<clus scale="   32.287">  1  5  2 -1</clus>
<clus scale="   53.627">  2  4  1 -1</clus>
<clus scale="  144.238">  1  3  2 -1</clus>
<clus scale="   32.287">  1  3  2 -1</clus>
</clustering>
</event>
<event>
 6    0  0.3082502E+002  0.1602080E+03  0.7546771E-02  0.1188462E+00
          2   -1    0    0  503    0 -0.00000000000E+00  0.00000000000E+00  0.13095617944E+04  0.13095617944E+04  0.00000000000E+00 0.  1.
         21   -1    0    0  504  502  0.00000000000E+00 -0.00000000000E+00 -0.11210435247E+03  0.11210435247E+03  0.00000000000E+00 0.  1.
         21    1    1    2  503  502  0.47769529628E+02 -0.90525614580E+01  0.29127721784E+03  0.29530711889E+03  0.00000000000E+00 0. -1.
         21    1    1    2  504  505 -0.40298942504E+02  0.59248612062E+01  0.72404004168E+01  0.41370667694E+02  0.00000000000E+00 0.  1.
         21    1    1    2  505  501  0.18688161031E+03  0.29465227392E+02  0.26813613132E+02  0.19108088797E+03  0.00000000000E+00 0.  1.
          2    1    1    2  501    0 -0.19435219743E+03 -0.26337527140E+02  0.87212621052E+03  0.89390747231E+03  0.00000000000E+00 0.  1.
<scales pt_clust_3="47.75689" pt_clust_4="40.73216" pt_clust_5="160.20802" pt_clust_6="14000.00000"></scales>
<clustering>
<clus scale="   40.732">  2  4  1 -1</clus>
<clus scale="   47.757">  1  3  2 -1</clus>
<clus scale="  160.208">  2  5  1 -1</clus>
<clus scale="   40.732">  2  3  1 -1</clus>
</clustering>
</event>
<event>
 6    0  0.3082502E+002  0.8985013E+02  0.7546771E-02  0.1303215E+00
         21   -1    0    0  505  502  0.00000000000E+00  0.00000000000E+00  0.59015563786E+03  0.59015563786E+03  0.00000000000E+00 0. -1.
          1   -1    0    0  503    0 -0.00000000000E+00 -0.00000000000E+00 -0.43899915325E+03  0.43899915325E+03  0.00000000000E+00 0.  1.
         21    1    1    2  503  502  0.49226477111E+02  0.15162962336E+02 -0.44731854734E+02  0.68220966744E+02  0.00000000000E+00 0.  1.
         21    1    1    2  504  501  0.38771917677E+02 -0.31966304958E+02  0.22004831383E+03  0.22571301839E+03  0.00000000000E+00 0. -1.
         21    1    1    2  505  504  0.26771748806E+02 -0.15631316617E+02  0.34545349578E+03  0.34684172520E+03  0.00000000000E+00 0. -1.
          1    1    1    2  501    0 -0.11477014359E+03  0.32434659239E+02 -0.36961347026E+03  0.38837908077E+03  0.00000000000E+00 0.  1.
<scales pt_clust_3="51.50885" pt_clust_4="30.06468" pt_clust_5="30.06468" pt_clust_6="81.28908"></scales>
<clustering>
<clus scale="   30.065">  4  5 -1 -1</clus>
<clus scale="   51.509">  2  3  1 -1</clus>
<clus scale="   81.289">  2  6  1 -1</clus>
<clus scale="   89.850">  1  3  2 -1</clus>
</clustering>
</event>
<event>
 6    0  0.3082502E+002  0.1063234E+03  0.7546771E-02  0.1267534E+00
         -2   -1    0    0    0  501 -0.00000000000E+00  0.00000000000E+00  0.83288142449E+03  0.83288142449E+03  0.00000000000E+00 0.  1.
         21   -1    0    0  503  502  0.00000000000E+00 -0.00000000000E+00 -0.20310525640E+03  0.20310525640E+03  0.00000000000E+00 0.  1.
         21    1    1    2  503  504 -0.77610887908E+01  0.40300164193E+02 -0.14015776767E+03  0.14604293058E+03  0.00000000000E+00 0.  1.
         21    1    1    2  504  505 -0.11017276449E+02 -0.13496994035E+03  0.43225466384E+02  0.14215029414E+03  0.00000000000E+00 0. -1.
         21    1    1    2  505  501 -0.18827469975E+02 -0.34756124053E+02  0.12186226111E+03  0.12811273344E+03  0.00000000000E+00 0.  1.
         -2    1    1    2    0  502  0.37605835215E+02  0.12942590021E+03  0.60484620826E+03  0.61968072274E+03  0.00000000000E+00 0.  1.
<scales pt_clust_3="40.91375" pt_clust_4="14000.00000" pt_clust_5="39.52799" pt_clust_6="106.32339"></scales>
<clustering>
<clus scale="   39.528">  1  5  2 -1</clus>
<clus scale="   40.914">  2  3  1 -1</clus>
<clus scale="  106.323">  1  6  2 -1</clus>
<clus scale="   40.914">  2  3  1 -1</clus>
</clustering>
</event>
<event>
 6    0  0.3082502E+002  0.9540714E+02  0.7546771E-02  0.1290262E+00
         21   -1    0    0  501  502  0.00000000000E+00  0.00000000000E+00  0.22608287123E+03  0.22608287123E+03  0.00000000000E+00 0.  1.
          2   -1    0    0  503    0 -0.00000000000E+00 -0.00000000000E+00 -0.87504431007E+03  0.87504431007E+03  0.00000000000E+00 0. -1.
         21    1    1    2  503  504 -0.86683802892E+01 -0.35640596535E+02 -0.11592780394E+03  0.12159214064E+03  0.00000000000E+00 0.  1.
         21    1    1    2  504  505 -0.34877741935E+02  0.84378696779E+02 -0.21873238608E+02  0.93886420316E+02  0.00000000000E+00 0.  1.
         21    1    1    2  505  502 -0.35259585430E+02 -0.14263422706E+02  0.18262884100E+03  0.18654751983E+03  0.00000000000E+00 0.  1.
          2    1    1    2  501    0  0.78805707655E+02 -0.34474677537E+02 -0.69378923729E+03  0.69910110050E+03  0.00000000000E+00 0. -1.
<scales pt_clust_3="36.67960" pt_clust_4="95.40714" pt_clust_5="38.09082" pt_clust_6="14000.00000"></scales>
<clustering>
<clus scale="   36.680">  2  3  1 -1</clus>
<clus scale="   38.091">  1  5  2 -1</clus>
<clus scale="   95.407">  1  4  2 -1</clus>
<clus scale="   38.091">  1  3  2 -1</clus>
</clustering>
</event>
<event>
 6    0  0.3082502E+002  0.1725567E+03  0.7546771E-02  0.1175208E+00
          2   -1    0    0  503    0 -0.00000000000E+00  0.00000000000E+00  0.18026928343E+04  0.18026928343E+04  0.00000000000E+00 0. -1.
         21   -1    0    0  505  502  0.00000000000E+00 -0.00000000000E+00 -0.31216221409E+02  0.31216221409E+02  0.00000000000E+00 0. -1.
         21    1    1    2  503  502 -0.29428577311E+02  0.41847990451E+02  0.66210632689E+03  0.66407987741E+03  0.00000000000E+00 0.  1.
         21    1    1    2  504  501  0.70933705181E+02  0.72783507176E+02  0.21269434698E+03  0.23572847661E+03  0.00000000000E+00 0. -1.
         21    1    1    2  505  504  0.42017338235E+01  0.63484254159E+02  0.11856982707E+03  0.13456117190E+03  0.00000000000E+00 0. -1.
          2    1    1    2  501    0 -0.45706861693E+02 -0.17811575179E+03  0.77810611199E+03  0.79953952983E+03  0.00000000000E+00 0. -1.
<scales pt_clust_3="51.15951" pt_clust_4="44.50686" pt_clust_5="44.50686" pt_clust_6="163.13053"></scales>
<clustering>
<clus scale="   44.507">  4  5 -1 -1</clus>
<clus scale="   51.160">  1  3  2 -1</clus>
<clus scale="  163.131">  1  6  2 -1</clus>
<clus scale="  172.557">  2  3  1 -1</clus>
</clustering>
</event>
<event>
 6    0  0.3082502E+002  0.9290428E+02  0.7546771E-02  0.1295967E+00
         -1   -1    0    0    0  501 -0.00000000000E+00  0.00000000000E+00  0.69023411801E+03  0.69023411801E+03  0.00000000000E+00 0.  1.
         21   -1    0    0  504  502  0.00000000000E+00 -0.00000000000E+00 -0.12809156126E+03  0.12809156126E+03  0.00000000000E+00 0. -1.
         21    1    1    2  503  501  0.22992347961E+02  0.22530681227E+02  0.14143528873E+03  0.14505247519E+03  0.00000000000E+00 0. -1.
         21    1    1    2  504  503  0.12078133815E+03 -0.79008988868E+01 -0.77588090140E+02  0.14377227682E+03  0.00000000000E+00 0. -1.
         21    1    1    2  505  502 -0.32194111724E+02  0.19854386545E+01  0.19711845647E+02  0.37801582707E+02  0.00000000000E+00 0.  1.
         -1    1    1    2    0  505 -0.11157957439E+03 -0.16615220994E+02  0.47858351251E+03  0.49169934456E+03  0.00000000000E+00 0.  1.
<scales pt_clust_3="32.19130" pt_clust_4="92.90428" pt_clust_5="31.14707" pt_clust_6="14000.00000"></scales>
<clustering>
<clus scale="   32.191">  1  3  2 -1</clus>
<clus scale="   31.147">  2  5  1 -1</clus>
<clus scale="   92.904">  2  4  1 -1</clus>
<clus scale="   31.147">  2  3  1 -1</clus>
</clustering>
</event>
<event>
 6    0  0.3082502E+002  0.6549594E+02  0.7546771E-02  0.1376116E+00
         21   -1    0    0  505  502  0.00000000000E+00  0.00000000000E+00  0.57899274465E+03  0.57899274465E+03  0.00000000000E+00 0. -1.
         -2   -1    0    0    0  501 -0.00000000000E+00 -0.00000000000E+00 -0.13601091770E+03  0.13601091770E+03  0.00000000000E+00 0.  1.
         21    1    1    2  503  501  0.47914697221E+02 -0.62726500566E+01  0.11329284676E+02  0.49633829590E+02  0.00000000000E+00 0. -1.
         21    1    1    2  504  502  0.63896245868E+02  0.37718006051E+02  0.46387079332E+03  0.46976748622E+03  0.00000000000E+00 0. -1.
         21    1    1    2  505  503 -0.41596797052E+02  0.22822425072E+02  0.53994103310E+02  0.71878507242E+02  0.00000000000E+00 0.  1.
         -2    1    1    2    0  504 -0.70214146038E+02 -0.54267781066E+02 -0.86212354360E+02  0.12372383930E+03  0.00000000000E+00 0.  1.
<scales pt_clust_3="45.72370" pt_clust_4="65.49594" pt_clust_5="47.44636" pt_clust_6="14000.00000"></scales>
<clustering>
<clus scale="   47.446">  1  5  2 -1</clus>
<clus scale="   45.724">  2  3  1 -1</clus>
<clus scale="   65.496">  1  4  2 -1</clus>
<clus scale="   47.446">  1  3  2 -1</clus>
</clustering>
</event>
<event>
 6    0  0.3082502E+002  0.7374766E+02  0.7546771E-02  0.1347794E+00
         21   -1    0    0  505  502  0.00000000000E+00  0.00000000000E+00  0.12771926050E+04  0.12771926050E+04  0.00000000000E+00 0.  1.
          2   -1    0    0  504    0 -0.00000000000E+00 -0.00000000000E+00 -0.83856392448E+03  0.83856392448E+03  0.00000000000E+00 0.  1.
         21    1    1    2  503  502 -0.16823653309E+02 -0.72468839065E+02  0.97075833815E+03  0.97360490910E+03  0.00000000000E+00 0.  1.
         21    1    1    2  504  503 -0.10773708623E+01 -0.46925034934E+02 -0.28469081105E+02  0.54896340593E+02  0.00000000000E+00 0.  1.
         21    1    1    2  505  501  0.48060080136E+02  0.56028999429E+01  0.28539455081E+03  0.28946711976E+03  0.00000000000E+00 0.  1.
          2    1    1    2  501    0 -0.30159055966E+02  0.11379097406E+03 -0.78905512730E+03  0.79778816007E+03  0.00000000000E+00 0.  1.
<scales pt_clust_3="73.74766" pt_clust_4="46.93740" pt_clust_5="48.36910" pt_clust_6="14000.00000"></scales>
<clustering>
<clus scale="   46.937">  2  4  1 -1</clus>
<clus scale="   48.369">  1  5  2 -1</clus>
<clus scale="   73.748">  1  3  2 -1</clus>
<clus scale="   48.369">  1  3  2 -1</clus>
</clustering>
</event>
<event>
 6    0  0.3082502E+002  0.1173740E+03  0.7546771E-02  0.1247493E+00
          1   -1    0    0  505    0 -0.00000000000E+00  0.00000000000E+00  0.84153846001E+02  0.84153846001E+02  0.00000000000E+00 0. -1.
         21   -1    0    0  501  502  0.00000000000E+00 -0.00000000000E+00 -0.74874202598E+03  0.74874202598E+03  0.00000000000E+00 0. -1.
         21    1    1    2  503  502 -0.14339196609E+01  0.12035882293E+03 -0.49846382407E+03  0.51279087969E+03  0.00000000000E+00 0. -1.
         21    1    1    2  504  503 -0.58916217673E+02 -0.59405069379E+02 -0.10366420832E+03  0.13321543101E+03  0.00000000000E+00 0. -1.
         21    1    1    2  505  504 -0.30967353364E+02  0.32274993322E+02 -0.77992469856E+01  0.45403528738E+02  0.00000000000E+00 0. -1.
          1    1    1    2  501    0  0.91317490698E+02 -0.93228746873E+02 -0.54660900607E+02  0.14148603255E+03  0.00000000000E+00 0. -1.
<scales pt_clust_3="117.37401" pt_clust_4="84.02608" pt_clust_5="44.72865" pt_clust_6="14000.00000"></scales>
<clustering>
<clus scale="   44.729">  1  5  2 -1</clus>
<clus scale="   84.026">  1  4  2 -1</clus>
<clus scale="  117.374">  2  3  1 -1</clus>
<clus scale="  117.374">  2  3  1 -1</clus>
</clustering>
</event>
<event>
 6    0  0.3082502E+002  0.1232601E+03  0.7546771E-02  0.1237814E+00
          2   -1    0    0  502    0 -0.00000000000E+00  0.00000000000E+00  0.66629139983E+03  0.66629139983E+03  0.00000000000E+00 0. -1.
         21   -1    0    0  505  502  0.00000000000E+00 -0.00000000000E+00 -0.18117564591E+03  0.18117564591E+03  0.00000000000E+00 0.  1.
         21    1    1    2  503  504 -0.10030175380E+03 -0.41168831277E+02 -0.67701080986E+02  0.12782312330E+03  0.00000000000E+00 0.  1.
         21    1    1    2  504  501  0.81748779677E+02 -0.48186513893E+02  0.34762740997E+03  0.36034652664E+03  0.00000000000E+00 0. -1.
         21    1    1    2  505  503 -0.33384509828E+02  0.54398275569E+02 -0.59528292284E+02  0.87277233364E+02  0.00000000000E+00 0.  1.
          2    1    1    2  501    0  0.51937483953E+02  0.34957069601E+02  0.26471771723E+03  0.27202016243E+03  0.00000000000E+00 0. -1.
<scales pt_clust_3="123.26012" pt_clust_4="14000.00000" pt_clust_5="63.95434" pt_clust_6="62.60590"></scales>
<clustering>
<clus scale="   62.606">  1  6  2 -1</clus>
<clus scale="   63.954">  2  5  1 -1</clus>
<clus scale="  123.260">  2  3  1 -1</clus>
<clus scale="   63.954">  2  3  1 -1</clus>
</clustering>
</event>
<event>
 6    0  0.3082502E+002  0.1015099E+03  0.7546771E-02  0.1277153E+00
         21   -1    0    0  503  502  0.00000000000E+00  0.00000000000E+00  0.12016588823E+03  0.12016588823E+03  0.00000000000E+00 0. -1.
          1   -1    0    0  504    0 -0.00000000000E+00 -0.00000000000E+00 -0.96747154290E+03  0.96747154290E+03  0.00000000000E+00 0. -1.
         21    1    1    2  503  501  0.55628368394E+02  0.62932342501E+02 -0.90549477482E+02  0.12350790653E+03  0.00000000000E+00 0. -1.
         21    1    1    2  504  505 -0.68065915899E+02  0.59025284890E+02  0.35009382959E+02  0.96657177999E+02  0.00000000000E+00 0. -1.
         21    1    1    2  505  502 -0.53720492804E+02 -0.44154630046E+02 -0.39500111721E+00  0.69539044626E+02  0.00000000000E+00 0. -1.
          1    1    1    2  501    0  0.66158040309E+02 -0.77802997345E+02 -0.79137055903E+03  0.79793330197E+03  0.00000000000E+00 0. -1.
<scales pt_clust_3="70.80652" pt_clust_4="101.50988" pt_clust_5="69.53792" pt_clust_6="14000.00000"></scales>
<clustering>
<clus scale="   69.538">  1  5  2 -1</clus>
<clus scale="   70.807">  1  3  2 -1</clus>
<clus scale="  101.510">  1  4  2 -1</clus>
<clus scale="   69.538">  1  3  2 -1</clus>
</clustering>
</event>
<event>
 6    0  0.3082502E+002  0.1018860E+03  0.7546771E-02  0.1276379E+00
         21   -1    0    0  504  502  0.00000000000E+00  0.00000000000E+00  0.22583726054E+03  0.22583726054E+03  0.00000000000E+00 0. -1.
          1   -1    0    0  503    0 -0.00000000000E+00 -0.00000000000E+00 -0.14154117263E+04  0.14154117263E+04  0.00000000000E+00 0. -1.
         21    1    1    2  503  502  0.30440764342E+02 -0.83886742190E+01 -0.10044439935E+03  0.10529049031E+03  0.00000000000E+00 0.  1.
         21    1    1    2  504  505  0.11031726646E+02  0.84072797169E+02  0.12507628419E+03  0.15110926869E+03  0.00000000000E+00 0. -1.
         21    1    1    2  505  501  0.87198193070E+02 -0.10241062159E+03  0.26594446460E+02  0.13710844201E+03  0.00000000000E+00 0. -1.
          1    1    1    2  501    0 -0.12867068406E+03  0.26726498638E+02 -0.12408007970E+04  0.12477407858E+04  0.00000000000E+00 0. -1.
<scales pt_clust_3="31.57546" pt_clust_4="84.75084" pt_clust_5="101.88598" pt_clust_6="14000.00000"></scales>
<clustering>
<clus scale="   31.575">  2  3  1 -1</clus>
<clus scale="   84.751">  1  4  2 -1</clus>
<clus scale="  101.886">  1  5  2 -1</clus>
<clus scale="   84.751">  1  3  2 -1</clus>
</clustering>
</event>
<event>
 6    0  0.3082502E+002  0.1125767E+03  0.7546771E-02  0.1255871E+00
          1   -1    0    0  505    0 -0.00000000000E+00  0.00000000000E+00  0.19018472486E+04  0.19018472486E+04  0.00000000000E+00 0.  1.
         21   -1    0    0  503  502  0.00000000000E+00 -0.00000000000E+00 -0.30625789500E+03  0.30625789500E+03  0.00000000000E+00 0.  1.
         21    1    1    2  503  501 -0.38711729899E+02  0.21982178620E+01 -0.21913653280E+03  0.22254044621E+03  0.00000000000E+00 0.  1.
         21    1    1    2  504  502  0.61442782027E+02  0.21699941891E+02 -0.60560736521E+02  0.88959011625E+02  0.00000000000E+00 0.  1.
         21    1    1    2  505  504 -0.11141259537E+03 -0.40142476674E+02  0.16456413813E+04  0.16498968879E+04  0.00000000000E+00 0.  1.
          1    1    1    2  501    0  0.88681543240E+02  0.16244316921E+02  0.22964524166E+03  0.24670879790E+03  0.00000000000E+00 0.  1.
<scales pt_clust_3="38.77409" pt_clust_4="36.30075" pt_clust_5="14000.00000" pt_clust_6="112.57667"></scales>
<clustering>
<clus scale="   38.774">  2  3  1 -1</clus>
<clus scale="   36.301">  2  4  1 -1</clus>
<clus scale="  112.577">  2  6  1 -1</clus>
<clus scale="   38.774">  2  3  1 -1</clus>
</clustering>
</event>
<event>
 6    0  0.3082502E+002  0.1302749E+03  0.7546771E-02  0.1227048E+00
         21   -1    0    0  503  502  0.00000000000E+00  0.00000000000E+00  0.52501839489E+03  0.52501839489E+03  0.00000000000E+00 0.  1.
          2   -1    0    0  502    0 -0.00000000000E+00 -0.00000000000E+00 -0.17237628666E+04  0.17237628666E+04  0.00000000000E+00 0.  1.
         21    1    1    2  503  505  0.23071355777E+02 -0.25536418592E+02  0.42552912427E+03  0.42691853056E+03  0.00000000000E+00 0.  1.
         21    1    1    2  504  501 -0.96180107375E+02  0.11139326208E+03 -0.98072515625E+02  0.17685386683E+03  0.00000000000E+00 0. -1.
         21    1    1    2  505  504 -0.39727455006E+02 -0.21959752846E+02  0.47658345357E+02  0.65816558012E+02  0.00000000000E+00 0. -1.
          2    1    1    2  501    0  0.11283620660E+03 -0.63897090643E+02 -0.15738594257E+04  0.15791923061E+04  0.00000000000E+00 0.  1.
<scales pt_clust_3="34.41506" pt_clust_4="14000.00000" pt_clust_5="45.19374" pt_clust_6="130.27488"></scales>
<clustering>
<clus scale="   34.415">  1  3  2 -1</clus>
<clus scale="   45.194">  1  5  2 -1</clus>
<clus scale="  130.275">  2  6  1 -1</clus>
<clus scale="   34.415">  1  3  2 -1</clus>
</clustering>
</event>
<event>
 6    0  0.3082502E+002  0.7463105E+02  0.7546771E-02  0.1345017E+00
         21   -1    0    0  503  502  0.00000000000E+00  0.00000000000E+00  0.53456757453E+03  0.53456757453E+03  0.00000000000E+00 0. -1.
          1   -1    0    0  504    0 -0.00000000000E+00 -0.00000000000E+00 -0.14758750873E+04  0.14758750873E+04  0.00000000000E+00 0. -1.
         21    1    1    2  503  501 -0.50076398152E+02  0.28642609187E+01  0.50842202322E+03  0.51089020674E+03  0.00000000000E+00 0. -1.
         21    1    1    2  504  505 -0.59109115153E+02  0.34353695867E+02 -0.83831662938E+03  0.84109977708E+03  0.00000000000E+00 0. -1.
         21    1    1    2  505  502  0.54491122334E+02  0.62465579120E+02 -0.80670465572E+02  0.11566743277E+03  0.00000000000E+00 0. -1.
          1    1    1    2  501    0  0.54694390971E+02 -0.99683535906E+02 -0.53074244102E+03  0.54278524522E+03  0.00000000000E+00 0. -1.
<scales pt_clust_3="50.15825" pt_clust_4="14000.00000" pt_clust_5="67.30870" pt_clust_6="74.63105"></scales>
<clustering>
<clus scale="   50.158">  1  3  2 -1</clus>
<clus scale="   67.309">  1  5  2 -1</clus>
<clus scale="   74.631">  1  6  2 -1</clus>
<clus scale="   50.158">  1  3  2 -1</clus>
</clustering>
</event>
<event>
 6    0  0.3082502E+002  0.1005752E+03  0.7546771E-02  0.1279091E+00
         21   -1    0    0  501  502  0.00000000000E+00  0.00000000000E+00  0.21294481571E+03  0.21294481571E+03  0.00000000000E+00 0. -1.
          1   -1    0    0  505    0 -0.00000000000E+00 -0.00000000000E+00 -0.66310648112E+03  0.66310648112E+03  0.00000000000E+00 0.  1.
         21    1    1    2  503  504  0.12959610110E+03 -0.85805578880E+01  0.14123543384E+03  0.19187554082E+03  0.00000000000E+00 0. -1.
         21    1    1    2  504  502 -0.30668450201E+02  0.98604569551E+01  0.27824802025E+02  0.42567617467E+02  0.00000000000E+00 0. -1.
         21    1    1    2  505  503 -0.56244748706E+01 -0.56114865087E+02 -0.15508328217E+03  0.16501920255E+03  0.00000000000E+00 0. -1.
          1    1    1    2  501    0 -0.93303176030E+02  0.54834966020E+02 -0.46413861911E+03  0.47658893599E+03  0.00000000000E+00 0.  1.
<scales pt_clust_3="100.57520" pt_clust_4="32.21463" pt_clust_5="56.21420" pt_clust_6="14000.00000"></scales>
<clustering>
<clus scale="   32.215">  1  4  2 -1</clus>
<clus scale="   56.214">  2  5  1 -1</clus>
<clus scale="  100.575">  1  3  2 -1</clus>
<clus scale="   32.215">  1  3  2 -1</clus>
</clustering>
</event>
<event>
 6    0  0.3082502E+002  0.8665196E+02  0.7546771E-02  0.1311168E+00
         21   -1    0    0  505  502  0.00000000000E+00  0.00000000000E+00  0.15716352616E+03  0.15716352616E+03  0.00000000000E+00 0.  1.
         -3   -1    0    0    0  501 -0.00000000000E+00 -0.00000000000E+00 -0.43962142113E+03  0.43962142113E+03  0.00000000000E+00 0. -1.
         21    1    1    2  503  502 -0.60661404661E+02  0.75245414198E+01  0.70558858475E+02  0.93354042485E+02  0.00000000000E+00 0.  1.
         21    1    1    2  504  503  0.12528668195E+03  0.43311553809E+02 -0.15416106659E+02  0.13345523486E+03  0.00000000000E+00 0.  1.
         21    1    1    2  505  501 -0.43778678730E+02  0.11678117336E+02 -0.27612299623E+02  0.53060250908E+02  0.00000000000E+00 0.  1.
         -3    1    1    2    0  504 -0.20846598556E+02 -0.62514212564E+02 -0.30998834717E+03  0.31691541904E+03  0.00000000000E+00 0. -1.
<scales pt_clust_3="62.40775" pt_clust_4="14000.00000" pt_clust_5="45.30950" pt_clust_6="86.65196"></scales>
<clustering>
<clus scale="   45.310">  2  5  1 -1</clus>
<clus scale="   62.408">  1  3  2 -1</clus>
<clus scale="   86.652">  2  6  1 -1</clus>
<clus scale="   62.408">  1  3  2 -1</clus>
</clustering>
</event>
<event>
 6    0  0.3082502E+002  0.1408117E+03  0.7546771E-02  0.1212241E+00
         -4   -1    0    0    0  501 -0.00000000000E+00  0.00000000000E+00  0.18276583739E+04  0.18276583739E+04  0.00000000000E+00 0.  1.
         21   -1    0    0  503  502  0.00000000000E+00 -0.00000000000E+00 -0.14378675006E+04  0.14378675006E+04  0.00000000000E+00 0. -1.
         21    1    1    2  503  504  0.27975536677E+02  0.30182540388E+02 -0.96796126562E+03  0.96883570751E+03  0.00000000000E+00 0. -1.
         21    1    1    2  504  505  0.11076537510E+03 -0.56246378902E+02 -0.45700427904E+03  0.47358793748E+03  0.00000000000E+00 0.  1.
         21    1    1    2  505  501 -0.98919908841E+01  0.42727630133E+02  0.51819404878E+03  0.52004670372E+03  0.00000000000E+00 0.  1.
         -4    1    1    2    0  502 -0.12884892090E+03 -0.16663791619E+02  0.12965623691E+04  0.13030555258E+04  0.00000000000E+00 0.  1.
<scales pt_clust_3="41.15357" pt_clust_4="140.81175" pt_clust_5="43.90337" pt_clust_6="14000.00000"></scales>
<clustering>
<clus scale="   41.154">  2  3  1 -1</clus>
<clus scale="   43.903">  1  5  2 -1</clus>
<clus scale="  140.812">  2  4  1 -1</clus>
<clus scale="   41.154">  2  3  1 -1</clus>
</clustering>
</event>
<event>
 6    0  0.3082502E+002  0.1308859E+03  0.7546771E-02  0.1226147E+00
         21   -1    0    0  503  502  0.00000000000E+00  0.00000000000E+00  0.25398651836E+03  0.25398651836E+03  0.00000000000E+00 0. -1.
          2   -1    0    0  504    0 -0.00000000000E+00 -0.00000000000E+00 -0.25417718003E+04  0.25417718003E+04  0.00000000000E+00 0. -1.
         21    1    1    2  503  501 -0.66051574700E+02 -0.12079535526E+03  0.22700101910E+03  0.26548783597E+03  0.00000000000E+00 0. -1.
         21    1    1    2  504  505  0.50906783546E+02  0.16044856010E+02 -0.82134331948E+03  0.82307580846E+03  0.00000000000E+00 0. -1.
         21    1    1    2  505  502  0.43431611665E+02  0.51978469978E+02 -0.17620484786E+03  0.18877556686E+03  0.00000000000E+00 0.  1.
          2    1    1    2  501    0 -0.28286820511E+02  0.52772029271E+02 -0.15172381337E+04  0.15184191074E+04  0.00000000000E+00 0. -1.
<scales pt_clust_3="130.88591" pt_clust_4="53.37544" pt_clust_5="14000.00000" pt_clust_6="68.97378"></scales>
<clustering>
<clus scale="   53.375">  2  4  1 -1</clus>
<clus scale="   68.974">  2  6  1 -1</clus>
<clus scale="  130.886">  1  3  2 -1</clus>
<clus scale="  130.886">  1  3  2 -1</clus>
</clustering>
</event>
<event>
 6    0  0.3082502E+002  0.8630119E+02  0.7546771E-02  0.1312064E+00
          1   -1    0    0  503    0 -0.00000000000E+00  0.00000000000E+00  0.12892069002E+04  0.12892069002E+04  0.00000000000E+00 0. -1.
         21   -1    0    0  504  502  0.00000000000E+00 -0.00000000000E+00 -0.24579985952E+03  0.24579985952E+03  0.00000000000E+00 0.  1.
         21    1    1    2  503  505  0.46710657400E+02  0.30859363023E+02  0.38757763599E+03  0.39160006348E+03  0.00000000000E+00 0. -1.
         21    1    1    2  504  501  0.57823738276E+02 -0.43781591390E+02 -0.88622212255E+02  0.11451772333E+03  0.00000000000E+00 0.  1.
         21    1    1    2  505  502 -0.90502319597E+02  0.12066512468E+03 -0.97730105228E+02  0.17972733691E+03  0.00000000000E+00 0.  1.
          1    1    1    2  501    0 -0.14032076079E+02 -0.10774289631E+03  0.84218172214E+03  0.84916163595E+03  0.00000000000E+00 0. -1.
<scales pt_clust_3="55.98380" pt_clust_4="72.80054" pt_clust_5="86.30119" pt_clust_6="14000.00000"></scales>
<clustering>
<clus scale="   55.984">  1  3  2 -1</clus>
<clus scale="   72.801">  2  4  1 -1</clus>
<clus scale="   86.301">  2  5  1 -1</clus>
<clus scale="   72.801">  2  3  1 -1</clus>
</clustering>
</event>
<event>
 6    0  0.3082502E+002  0.8222847E+02  0.7546771E-02  0.1322844E+00
         21   -1    0    0  504  502  0.00000000000E+00  0.00000000000E+00  0.19807570338E+02  0.19807570338E+02  0.00000000000E+00 0. -1.
          2   -1    0    0  505    0 -0.00000000000E+00 -0.00000000000E+00 -0.13426171318E+04  0.13426171318E+04  0.00000000000E+00 0. -1.
         21    1    1    2  503  502  0.68217584675E+02 -0.68136032347E+01 -0.27452048153E+03  0.28295151321E+03  0.00000000000E+00 0. -1.
         21    1    1    2  504  501 -0.21377455775E+02 -0.47657046963E+02 -0.88336056523E+02  0.10262284649E+03  0.00000000000E+00 0.  1.
         21    1    1    2  505  503  0.36001926015E+02 -0.13788116661E+02 -0.59989716711E+03  0.60113464543E+03  0.00000000000E+00 0. -1.
          2    1    1    2  501    0 -0.82842054915E+02  0.68258766859E+02 -0.36005585630E+03  0.37571569700E+03  0.00000000000E+00 0. -1.
<scales pt_clust_3="82.22847" pt_clust_4="52.19039" pt_clust_5="38.55192" pt_clust_6="14000.00000"></scales>
<clustering>
<clus scale="   38.552">  2  5  1 -1</clus>
<clus scale="   52.190">  1  4  2 -1</clus>
<clus scale="   82.228">  1  3  2 -1</clus>
<clus scale="   52.190">  1  3  2 -1</clus>
</clustering>
</event>
<event>
 6    0  0.3082502E+002  0.8918290E+02  0.7546771E-02  0.1304843E+00
          2   -1    0    0  504    0 -0.00000000000E+00  0.00000000000E+00  0.31110011807E+04  0.31110011807E+04  0.00000000000E+00 0. -1.
         21   -1    0    0  505  502  0.00000000000E+00 -0.00000000000E+00 -0.34707847004E+02  0.34707847004E+02  0.00000000000E+00 0. -1.
         21    1    1    2  503  501 -0.45091955698E+02 -0.10025306580E+03  0.60315537035E+03  0.61309082725E+03  0.00000000000E+00 0. -1.
         21    1    1    2  504  502 -0.24265089677E+02  0.31998520866E+02  0.72653932568E+03  0.72764832967E+03  0.00000000000E+00 0. -1.
         21    1    1    2  505  503  0.29539414348E+02  0.10371578258E+02 -0.19885750292E+02  0.37088943100E+02  0.00000000000E+00 0. -1.
          2    1    1    2  501    0  0.39817631027E+02  0.57882966681E+02  0.17664843879E+04  0.17678809277E+04  0.00000000000E+00 0. -1.
<scales pt_clust_3="14000.00000" pt_clust_4="39.39375" pt_clust_5="31.30729" pt_clust_6="89.18290"></scales>
<clustering>
<clus scale="   31.307">  2  5  1 -1</clus>
<clus scale="   39.394">  1  4  2 -1</clus>
<clus scale="   89.183">  1  6  2 -1</clus>
<clus scale="   31.307">  2  3  1 -1</clus>
</clustering>
</event>
<event>
 6    0  0.3082502E+002  0.1440534E+03  0.7546771E-02  0.1207977E+00
         -1   -1    0    0    0  501 -0.00000000000E+00  0.00000000000E+00  0.87667631085E+02  0.87667631085E+02  0.00000000000E+00 0. -1.
         21   -1    0    0  503  502  0.00000000000E+00 -0.00000000000E+00 -0.62636417134E+03  0.62636417134E+03  0.00000000000E+00 0. -1.
         21    1    1    2  503  501 -0.94731654447E+01  0.38972474574E+02  0.49077908208E+01  0.40406448108E+02  0.00000000000E+00 0.  1.
         21    1    1    2  504  502 -0.87521364260E+01 -0.40509529636E+02 -0.14888622271E+03  0.15454685114E+03  0.00000000000E+00 0. -1.
         21    1    1    2  505  504  0.15320481271E+03  0.16167298755E+02 -0.33891946102E+03  0.37228953416E+03  0.00000000000E+00 0. -1.
         -1    1    1    2    0  505 -0.13497951084E+03 -0.14630243693E+02 -0.55798647334E+02  0.14678896901E+03  0.00000000000E+00 0. -1.
<scales pt_clust_3="40.10729" pt_clust_4="39.88012" pt_clust_5="144.05344" pt_clust_6="14000.00000"></scales>
<clustering>
<clus scale="   40.107">  1  3  2 -1</clus>
<clus scale="   39.880">  2  4  1 -1</clus>
<clus scale="  144.053">  2  5  1 -1</clus>
<clus scale="   39.880">  2  3  1 -1</clus>
</clustering>
</event>
<event>
 6    0  0.3082502E+002  0.1201304E+03  0.7546771E-02  0.1242882E+00
         21   -1    0    0  504  502  0.00000000000E+00  0.00000000000E+00  0.35943962932E+03  0.35943962932E+03  0.00000000000E+00 0. -1.
          2   -1    0    0  503    0 -0.00000000000E+00 -0.00000000000E+00 -0.88719323202E+03  0.88719323202E+03  0.00000000000E+00 0.  1.
         21    1    1    2  503  505 -0.78014706462E+00  0.15747724315E+03 -0.12401168552E+03  0.20044597498E+03  0.00000000000E+00 0. -1.
         21    1    1    2  504  501 -0.13844832788E+02 -0.58417753159E+02 -0.47337254503E+02  0.76453442977E+02  0.00000000000E+00 0. -1.
         21    1    1    2  505  502  0.26232934881E+02  0.15677202338E+02  0.30087020870E+03  0.30241829315E+03  0.00000000000E+00 0. -1.
          2    1    1    2  501    0 -0.11607955028E+02 -0.11473669233E+03 -0.65727487138E+03  0.66731515024E+03  0.00000000000E+00 0.  1.
<scales pt_clust_3="120.13038" pt_clust_4="54.94749" pt_clust_5="30.56046" pt_clust_6="14000.00000"></scales>
<clustering>
<clus scale="   30.560">  1  5  2 -1</clus>
<clus scale="   54.947">  1  4  2 -1</clus>
<clus scale="  120.130">  1  3  2 -1</clus>
<clus scale="   30.560">  1  3  2 -1</clus>
</clustering>
</event>
<event>
 6    0  0.3082502E+002  0.1299703E+03  0.7546771E-02  0.1227500E+00
          1   -1    0    0  504    0 -0.00000000000E+00  0.00000000000E+00  0.26056741899E+03  0.26056741899E+03  0.00000000000E+00 0. -1.
         21   -1    0    0  503  502  0.00000000000E+00 -0.00000000000E+00 -0.30687369817E+03  0.30687369817E+03  0.00000000000E+00 0. -1.
         21    1    1    2  503  501 -0.29042183027E+02  0.18236237376E+02 -0.17232816418E+03  0.17570715670E+03  0.00000000000E+00 0. -1.
         21    1    1    2  504  505  0.65577379118E+02 -0.66014325711E+02  0.19439141443E+03  0.21551405025E+03  0.00000000000E+00 0. -1.
         21    1    1    2  505  502  0.32223978103E+02 -0.11695641581E+02  0.27611746785E+02  0.44017966301E+02  0.00000000000E+00 0. -1.
          1    1    1    2  501    0 -0.68759174194E+02  0.59473729916E+02 -0.95981276222E+02  0.13220194390E+03  0.00000000000E+00 0. -1.
<scales pt_clust_3="34.29298" pt_clust_4="30.15073" pt_clust_5="30.15073" pt_clust_6="120.10310"></scales>
<clustering>
<clus scale="   30.151">  4  5 -1 -1</clus>
<clus scale="   34.293">  2  3  1 -1</clus>
<clus scale="  120.103">  2  6  1 -1</clus>
<clus scale="   34.293">  2  3  1 -1</clus>
</clustering>
</event>
<event>
 6    0  0.3082502E+002  0.7822211E+02  0.7546771E-02  0.1334174E+00
          2   -1    0    0  505    0 -0.00000000000E+00  0.00000000000E+00  0.21296976191E+03  0.21296976191E+03  0.00000000000E+00 0. -1.
         21   -1    0    0  503  502  0.00000000000E+00 -0.00000000000E+00 -0.13587005447E+03  0.13587005447E+03  0.00000000000E+00 0.  1.
         21    1    1    2  503  504  0.49597383606E+02 -0.27742004296E+02 -0.57355450977E+02  0.80741358793E+02  0.00000000000E+00 0.  1.
         21    1    1    2  504  501  0.40273486926E+02  0.62664026697E+02 -0.84223037232E+01  0.74964452850E+02  0.00000000000E+00 0.  1.
         21    1    1    2  505  502 -0.55566198416E+01 -0.40333709128E+02  0.23903776164E+02  0.47213076907E+02  0.00000000000E+00 0.  1.
          2    1    1    2  501    0 -0.84314250691E+02  0.54116867275E+01  0.11897368597E+03  0.14592092782E+03  0.00000000000E+00 0. -1.
<scales pt_clust_3="57.86093" pt_clust_4="78.22211" pt_clust_5="40.71467" pt_clust_6="14000.00000"></scales>
<clustering>
<clus scale="   40.715">  1  5  2 -1</clus>
<clus scale="   57.861">  2  3  1 -1</clus>
<clus scale="   78.222">  2  4  1 -1</clus>
<clus scale="   57.861">  2  3  1 -1</clus>
</clustering>
</event>
<event>
 6    0  0.3082502E+002  0.1365108E+03  0.7546771E-02  0.1218103E+00
         21   -1    0    0  503  502  0.00000000000E+00  0.00000000000E+00  0.94043579488E+02  0.94043579488E+02  0.00000000000E+00 0.  1.
          1   -1    0    0  505    0 -0.00000000000E+00 -0.00000000000E+00 -0.71083880240E+03  0.71083880240E+03  0.00000000000E+00 0.  1.
         21    1    1    2  503  501  0.36363090547E+02  0.64081421419E+02  0.29457500170E+02  0.79350155900E+02  0.00000000000E+00 0.  1.
         21    1    1    2  504  502 -0.77525366493E+01  0.11668502258E+03 -0.17320115104E+03  0.20898357601E+03  0.00000000000E+00 0.  1.
         21    1    1    2  505  504  0.28127314061E+02 -0.35231109518E+02 -0.60756734320E+02  0.75655519557E+02  0.00000000000E+00 0.  1.
          1    1    1    2  501    0 -0.56737867958E+02 -0.14553533448E+03 -0.41229483772E+03  0.44089313042E+03  0.00000000000E+00 0.  1.
<scales pt_clust_3="73.04720" pt_clust_4="136.51079" pt_clust_5="45.08189" pt_clust_6="14000.00000"></scales>
<clustering>
<clus scale="   45.082">  2  5  1 -1</clus>
<clus scale="   73.047">  1  3  2 -1</clus>
<clus scale="  136.511">  1  4  2 -1</clus>
<clus scale="   73.047">  1  3  2 -1</clus>
</clustering>
</event>
<event>
 6    0  0.3082502E+002  0.6609707E+02  0.7546771E-02  0.1373892E+00
          1   -1    0    0  504    0 -0.00000000000E+00  0.00000000000E+00  0.21497730649E+04  0.21497730649E+04  0.00000000000E+00 0. -1.
         21   -1    0    0  501  502  0.00000000000E+00 -0.00000000000E+00 -0.56492566887E+03  0.56492566887E+03  0.00000000000E+00 0.  1.
         21    1    1    2  503  502 -0.64639357207E+01 -0.64805095410E+02 -0.52519985712E+03  0.52922242279E+03  0.00000000000E+00 0.  1.
         21    1    1    2  504  505  0.15398928443E+02  0.46735828714E+02  0.38564356237E+03  0.38877026877E+03  0.00000000000E+00 0. -1.
         21    1    1    2  505  503  0.37645738793E+02  0.10990026184E+03  0.63072766135E+02  0.13218715153E+03  0.00000000000E+00 0. -1.
          1    1    1    2  501    0 -0.46580731516E+02 -0.91830995146E+02  0.16613309247E+04  0.16645188907E+04  0.00000000000E+00 0. -1.
<scales pt_clust_3="14000.00000" pt_clust_4="49.20736" pt_clust_5="66.09707" pt_clust_6="57.49953"></scales>
<clustering>
<clus scale="   49.207">  1  4  2 -1</clus>
<clus scale="   57.500">  1  6  2 -1</clus>
<clus scale="   66.097">  1  5  2 -1</clus>
<clus scale="   66.097">  2  3  1 -1</clus>
</clustering>
</event>
<event>
 6    0  0.3082502E+002  0.9990405E+02  0.7546771E-02  0.1280498E+00
          2   -1    0    0  504    0 -0.00000000000E+00  0.00000000000E+00  0.17894625807E+02  0.17894625807E+02  0.00000000000E+00 0. -1.
         21   -1    0    0  503  502  0.00000000000E+00 -0.00000000000E+00 -0.29019322371E+04  0.29019322371E+04  0.00000000000E+00 0. -1.
         21    1    1    2  503  505  0.25099405444E+02 -0.18547900305E+02 -0.83661720814E+03  0.83719911474E+03  0.00000000000E+00 0.  1.
         21    1    1    2  504  502  0.83759938492E+02 -0.31960863018E+02 -0.28445436992E+03  0.29824740171E+03  0.00000000000E+00 0. -1.
         21    1    1    2  505  501 -0.21939740138E+02 -0.22531403938E+02 -0.14677302162E+04  0.14680670979E+04  0.00000000000E+00 0. -1.
          2    1    1    2  501    0 -0.86919603798E+02  0.73040167261E+02 -0.29523581697E+03  0.31631324850E+03  0.00000000000E+00 0. -1.
<scales pt_clust_3="31.20905" pt_clust_4="99.90405" pt_clust_5="35.95031" pt_clust_6="14000.00000"></scales>
<clustering>
<clus scale="   31.209">  2  3  1 -1</clus>
<clus scale="   35.950">  2  5  1 -1</clus>
<clus scale="   99.904">  1  4  2 -1</clus>
<clus scale="   31.209">  2  3  1 -1</clus>
</clustering>
</event>
<event>
 6    0  0.3082502E+002  0.1053289E+03  0.7546771E-02  0.1269473E+00
          1   -1    0    0  503    0 -0.00000000000E+00  0.00000000000E+00  0.25395050968E+04  0.25395050968E+04  0.00000000000E+00 0.  1.
         21   -1    0    0  504  502  0.00000000000E+00 -0.00000000000E+00 -0.10415420687E+03  0.10415420687E+03  0.00000000000E+00 0.  1.
         21    1    1    2  503  505  0.28725238327E+02 -0.94814287183E+02  0.58592258061E+03  0.59423914280E+03  0.00000000000E+00 0.  1.
         21    1    1    2  504  501 -0.54276242295E+01  0.85062435032E+02 -0.13191303708E+02  0.86250144649E+02  0.00000000000E+00 0.  1.
         21    1    1    2  505  502 -0.56369464284E+02  0.59090751549E+01 -0.34108302755E+02  0.66149905439E+02  0.00000000000E+00 0.  1.
          1    1    1    2  501    0  0.33071850187E+02  0.38427769956E+01  0.18967279158E+04  0.18970201108E+04  0.00000000000E+00 0.  1.
<scales pt_clust_3="105.32895" pt_clust_4="14000.00000" pt_clust_5="55.86863" pt_clust_6="33.29436"></scales>
<clustering>
<clus scale="   33.294">  1  6  2 -1</clus>
<clus scale="   55.869">  2  5  1 -1</clus>
<clus scale="  105.329">  1  3  2 -1</clus>
<clus scale="   55.869">  2  3  1 -1</clus>
</clustering>
</event>
<event>
 6    0  0.3082502E+002  0.1346493E+03  0.7546771E-02  0.1220716E+00
          1   -1    0    0  505    0 -0.00000000000E+00  0.00000000000E+00  0.20047681217E+04  0.20047681217E+04  0.00000000000E+00 0.  1.
         21   -1    0    0  503  502  0.00000000000E+00 -0.00000000000E+00 -0.65416372741E+02  0.65416372741E+02  0.00000000000E+00 0. -1.
         21    1    1    2  503  501  0.22545324709E+02  0.14486281705E+03  0.11345542642E+03  0.18537977563E+03  0.00000000000E+00 0. -1.
         21    1    1    2  504  502  0.97110561513E+02 -0.90335712960E+02  0.18640255407E+03  0.22877262589E+03  0.00000000000E+00 0. -1.
         21    1    1    2  505  504  0.23256838801E+02  0.48824268002E+02  0.28300152838E+03  0.28812246487E+03  0.00000000000E+00 0. -1.
          1    1    1    2  501    0 -0.14291272502E+03 -0.10335137209E+03  0.13564922401E+04  0.13679096280E+04  0.00000000000E+00 0.  1.
<scales pt_clust_3="134.64930" pt_clust_4="130.82022" pt_clust_5="54.08040" pt_clust_6="14000.00000"></scales>
<clustering>
<clus scale="   54.080">  1  5  2 -1</clus>
<clus scale="  130.820">  2  4  1 -1</clus>
<clus scale="  134.649">  2  3  1 -1</clus>
<clus scale="  130.820">  2  3  1 -1</clus>
</clustering>
</event>
<event>
 6    0  0.3082502E+002  0.1182233E+03  0.7546771E-02  0.1246057E+00
         21   -1    0    0  503  502  0.00000000000E+00  0.00000000000E+00  0.55678641373E+02  0.55678641373E+02  0.00000000000E+00 0.  1.
          2   -1    0    0  505    0 -0.00000000000E+00 -0.00000000000E+00 -0.13375765445E+04  0.13375765445E+04  0.00000000000E+00 0.  1.
         21    1    1    2  503  504  0.44754417559E+02  0.25376697478E+02  0.19683627903E+02  0.55085205576E+02  0.00000000000E+00 0.  1.
         21    1    1    2  504  501  0.23065997144E+02  0.90835011738E+02 -0.39115528193E+03  0.40222567566E+03  0.00000000000E+00 0.  1.
         21    1    1    2  505  502  0.48461161052E+02 -0.45353245647E+01 -0.12500444450E+03  0.13414605639E+03  0.00000000000E+00 0.  1.
          2    1    1    2  501    0 -0.11628157575E+03 -0.11167638465E+03 -0.78542180458E+03  0.80179824823E+03  0.00000000000E+00 0.  1.
<scales pt_clust_3="52.03490" pt_clust_4="118.22330" pt_clust_5="48.67292" pt_clust_6="14000.00000"></scales>
<clustering>
<clus scale="   48.673">  2  5  1 -1</clus>
<clus scale="   52.035">  1  3  2 -1</clus>
<clus scale="  118.223">  1  4  2 -1</clus>
<clus scale="   52.035">  1  3  2 -1</clus>
</clustering>
</event>
<event>
 6    0  0.3082502E+002  0.9750990E+02  0.7546771E-02  0.1285621E+00
          2   -1    0    0  504    0 -0.00000000000E+00  0.00000000000E+00  0.45910072181E+04  0.45910072181E+04  0.00000000000E+00 0. -1.
         21   -1    0    0  503  502  0.00000000000E+00 -0.00000000000E+00 -0.15642919553E+02  0.15642919553E+02  0.00000000000E+00 0. -1.
         21    1    1    2  503  501 -0.41972805844E+02  0.30963464072E+02  0.10889244457E+03  0.12073945926E+03  0.00000000000E+00 0. -1.
         21    1    1    2  504  505 -0.43890648347E+02 -0.46082713557E+02  0.66664552854E+03  0.66967623985E+03  0.00000000000E+00 0. -1.
         21    1    1    2  505  502 -0.32434518290E+02 -0.23573266518E+02  0.48870191584E+02  0.63213863167E+02  0.00000000000E+00 0. -1.
          2    1    1    2  501    0  0.11829797248E+03  0.38692516003E+02  0.37509561339E+04  0.37530205754E+04  0.00000000000E+00 0. -1.
<scales pt_clust_3="66.25461" pt_clust_4="14000.00000" pt_clust_5="40.09610" pt_clust_6="97.50990"></scales>
<clustering>
<clus scale="   40.096">  2  5  1 -1</clus>
<clus scale="   66.255">  2  3  1 -1</clus>
<clus scale="   97.510">  1  6  2 -1</clus>
<clus scale="   40.096">  2  3  1 -1</clus>
</clustering>
</event>
<event>
 6    0  0.3082502E+002  0.1587780E+03  0.7546771E-02  0.1190083E+00
          1   -1    0    0  504    0 -0.00000000000E+00  0.00000000000E+00  0.37994586222E+03  0.37994586222E+03  0.00000000000E+00 0. -1.
         21   -1    0    0  505  502  0.00000000000E+00 -0.00000000000E+00 -0.19207680517E+03  0.19207680517E+03  0.00000000000E+00 0.  1.
         21    1    1    2  503  502  0.37465186288E+02 -0.21691974896E+02 -0.19519886197E+02  0.47489029424E+02  0.00000000000E+00 0. -1.
         21    1    1    2  504  503  0.43031593235E+02  0.37214813675E+02  0.15576513280E+03  0.16582954191E+03  0.00000000000E+00 0. -1.
         21    1    1    2  505  501 -0.11174409295E+03 -0.13931580110E+03 -0.60725456872E+02  0.18863513951E+03  0.00000000000E+00 0.  1.
          1    1    1    2  501    0  0.31247313424E+02  0.12379296232E+03  0.11234926732E+03  0.17006895656E+03  0.00000000000E+00 0. -1.
<scales pt_clust_3="43.29182" pt_clust_4="57.35534" pt_clust_5="158.77803" pt_clust_6="14000.00000"></scales>
<clustering>
<clus scale="   43.292">  2  3  1 -1</clus>
<clus scale="   57.355">  1  4  2 -1</clus>
<clus scale="  158.778">  2  5  1 -1</clus>
<clus scale="   43.292">  2  3  1 -1</clus>
</clustering>
</event>
<event>
 6    0  0.3082502E+002  0.1134161E+03  0.7546771E-02  0.1254371E+00
         21   -1    0    0  504  502  0.00000000000E+00  0.00000000000E+00  0.43950000478E+03  0.43950000478E+03  0.00000000000E+00 0. -1.
         -1   -1    0    0    0  501 -0.00000000000E+00 -0.00000000000E+00 -0.60619400239E+03  0.60619400239E+03  0.00000000000E+00 0. -1.
         21    1    1    2  503  502  0.41580853817E+01 -0.79465358921E+02 -0.64174660139E+01  0.79832429579E+02  0.00000000000E+00 0.  1.
         21    1    1    2  504  501  0.18815592765E+02  0.92726535520E+02  0.37451746349E+03  0.38628430900E+03  0.00000000000E+00 0. -1.
         21    1    1    2  505  503 -0.23299693626E+02 -0.78210587603E+02 -0.62377206819E+02  0.10271654038E+03  0.00000000000E+00 0.  1.
         -1    1    1    2    0  505  0.32601547959E+00  0.64949411003E+02 -0.47241678827E+03  0.47686072822E+03  0.00000000000E+00 0. -1.
<scales pt_clust_3="57.26703" pt_clust_4="97.46745" pt_clust_5="57.26703" pt_clust_6="64.95023"></scales>
<clustering>
<clus scale="   57.267">  3  5 -1 -1</clus>
<clus scale="   64.950">  2  6  1 -1</clus>
<clus scale="   97.467">  1  4  2 -1</clus>
<clus scale="   97.467">  1  3  2 -1</clus>
</clustering>
</event>
<event>
 6    0  0.3082502E+002  0.1350259E+03  0.7546771E-02  0.1220183E+00
         21   -1    0    0  504  502  0.00000000000E+00  0.00000000000E+00  0.17260062653E+03  0.17260062653E+03  0.00000000000E+00 0.  1.
         -2   -1    0    0    0  501 -0.00000000000E+00 -0.00000000000E+00 -0.10135708746E+04  0.10135708746E+04  0.00000000000E+00 0.  1.
         21    1    1    2  503  501  0.31173357010E+02 -0.33261238216E+02 -0.95912736707E+02  0.10619482670E+03  0.00000000000E+00 0.  1.
         21    1    1    2  504  503 -0.12719669289E+03 -0.32349699247E+01 -0.10267202045E+03  0.16349620025E+03  0.00000000000E+00 0.  1.
         21    1    1    2  505  502  0.58191915831E+02 -0.11515232712E+03  0.96581451157E+02  0.16116554910E+03  0.00000000000E+00 0.  1.
         -2    1    1    2    0  505  0.37831420046E+02  0.15164853526E+03 -0.73896694211E+03  0.75531492513E+03  0.00000000000E+00 0.  1.
<scales pt_clust_3="45.58605" pt_clust_4="122.91653" pt_clust_5="135.02590" pt_clust_6="14000.00000"></scales>
<clustering>
<clus scale="   45.586">  2  3  1 -1</clus>
<clus scale="  122.917">  1  4  2 -1</clus>
<clus scale="  135.026">  1  5  2 -1</clus>
<clus scale="  122.917">  1  3  2 -1</clus>
</clustering>
</event>
<event>
 6    0  0.3082502E+002  0.1349865E+03  0.7546771E-02  0.1220239E+00
          2   -1    0    0  505    0 -0.00000000000E+00  0.00000000000E+00  0.52537260893E+03  0.52537260893E+03  0.00000000000E+00 0. -1.
         21   -1    0    0  501  502  0.00000000000E+00 -0.00000000000E+00 -0.11053201773E+04  0.11053201773E+04  0.00000000000E+00 0.  1.
         21    1    1    2  503  502 -0.12786680541E+02 -0.54116180951E+02 -0.94949935689E+03  0.95112622137E+03  0.00000000000E+00 0.  1.
         21    1    1    2  504  503  0.63422696312E+02 -0.77489453852E+02 -0.11957218282E+03  0.15596333150E+03  0.00000000000E+00 0.  1.
         21    1    1    2  505  504 -0.40338347748E+02 -0.12569412350E+01  0.47595175703E+02  0.62402427441E+02  0.00000000000E+00 0.  1.
          2    1    1    2  501    0 -0.10297668023E+02  0.13286257604E+03  0.44152879560E+03  0.46120080597E+03  0.00000000000E+00 0. -1.
<scales pt_clust_3="55.62449" pt_clust_4="14000.00000" pt_clust_5="40.35793" pt_clust_6="134.98647"></scales>
<clustering>
<clus scale="   40.358">  1  5  2 -1</clus>
<clus scale="   55.624">  2  3  1 -1</clus>
<clus scale="  134.986">  1  6  2 -1</clus>
<clus scale="   55.624">  2  3  1 -1</clus>
</clustering>
</event>
<event>
 6    0  0.3082502E+002  0.1040970E+03  0.7546771E-02  0.1271909E+00
         -3   -1    0    0    0  501 -0.00000000000E+00  0.00000000000E+00  0.64857951371E+03  0.64857951371E+03  0.00000000000E+00 0.  1.
         21   -1    0    0  505  502  0.00000000000E+00 -0.00000000000E+00 -0.14075847730E+03  0.14075847730E+03  0.00000000000E+00 0. -1.
         21    1    1    2  503  502  0.70286725582E+01 -0.33057342833E+02 -0.87399286461E+01  0.34908115186E+02  0.00000000000E+00 0.  1.
         21    1    1    2  504  501  0.56302749061E+02 -0.19448847686E+02  0.18114137161E+03  0.19068417275E+03  0.00000000000E+00 0. -1.
         21    1    1    2  505  504  0.55677856628E+02  0.11052924902E+03 -0.66559336162E+02  0.14052360598E+03  0.00000000000E+00 0. -1.
         -3    1    1    2    0  503 -0.11900927825E+03 -0.58023058503E+02  0.40197892960E+03  0.42322209709E+03  0.00000000000E+00 0.  1.
<scales pt_clust_3="33.79630" pt_clust_4="60.27797" pt_clust_5="104.09701" pt_clust_6="14000.00000"></scales>
<clustering>
<clus scale="   33.796">  2  3  1 -1</clus>
<clus scale="   60.278">  1  4  2 -1</clus>
<clus scale="  104.097">  2  5  1 -1</clus>
<clus scale="   33.796">  2  3  1 -1</clus>
</clustering>
</event>
<event>
 6    0  0.3082502E+002  0.1293995E+03  0.7546771E-02  0.1228350E+00
         21   -1    0    0  505  502  0.00000000000E+00  0.00000000000E+00  0.16443120698E+03  0.16443120698E+03  0.00000000000E+00 0.  1.
          2   -1    0    0  504    0 -0.00000000000E+00 -0.00000000000E+00 -0.11486614952E+04  0.11486614952E+04  0.00000000000E+00 0.  1.
         21    1    1    2  503  502 -0.11302236094E+02  0.57000135231E+02  0.50992064828E+02  0.77310714862E+02  0.00000000000E+00 0.  1.
         21    1    1    2  504  503 -0.65184985487E+02 -0.90182379941E+02 -0.16083158961E+03  0.19557286162E+03  0.00000000000E+00 0. -1.
         21    1    1    2  505  501 -0.63691166037E+02  0.61859325922E+01  0.64305838965E+02  0.90719740510E+02  0.00000000000E+00 0.  1.
          2    1    1    2  501    0  0.14017838762E+03  0.26996312118E+02 -0.93869660239E+03  0.94948938518E+03  0.00000000000E+00 0.  1.
<scales pt_clust_3="58.10986" pt_clust_4="129.39947" pt_clust_5="88.14926" pt_clust_6="14000.00000"></scales>
<clustering>
<clus scale="   58.110">  1  3  2 -1</clus>
<clus scale="   88.149">  1  5  2 -1</clus>
<clus scale="  129.399">  1  4  2 -1</clus>
<clus scale="   58.110">  1  3  2 -1</clus>
</clustering>
</event>
<event>
 6    0  0.3082502E+002  0.9085812E+02  0.7546771E-02  0.1300787E+00
          1   -1    0    0  505    0 -0.00000000000E+00  0.00000000000E+00  0.48352014119E+03  0.48352014119E+03  0.00000000000E+00 0. -1.
         21   -1    0    0  503  502  0.00000000000E+00 -0.00000000000E+00 -0.14788435237E+03  0.14788435237E+03  0.00000000000E+00 0.  1.
         21    1    1    2  503  501  0.45645651589E+02  0.11990887315E+02 -0.60076027325E+02  0.76396570255E+02  0.00000000000E+00 0.  1.
         21    1    1    2  504  502 -0.97128829998E+02  0.61220419486E+02 -0.17085602294E+02  0.11607698818E+03  0.00000000000E+00 0. -1.
         21    1    1    2  505  504  0.39423440817E+02  0.14107172449E+02  0.48282360397E+02  0.63909360237E+02  0.00000000000E+00 0. -1.
          1    1    1    2  501    0  0.12059737592E+02 -0.87318479250E+02  0.36451505804E+03  0.37502157488E+03  0.00000000000E+00 0. -1.
<scales pt_clust_3="47.99080" pt_clust_4="90.85812" pt_clust_5="41.87147" pt_clust_6="14000.00000"></scales>
<clustering>
<clus scale="   41.871">  1  5  2 -1</clus>
<clus scale="   47.991">  2  3  1 -1</clus>
<clus scale="   90.858">  2  4  1 -1</clus>
<clus scale="   47.991">  2  3  1 -1</clus>
</clustering>
</event>
<event>
 6    0  0.3082502E+002  0.6736341E+02  0.7546771E-02  0.1369296E+00
         -1   -1    0    0    0  501 -0.00000000000E+00  0.00000000000E+00  0.17343224651E+03  0.17343224651E+03  0.00000000000E+00 0.  1.
         21   -1    0    0  505  502  0.00000000000E+00 -0.00000000000E+00 -0.10251421291E+04  0.10251421291E+04  0.00000000000E+00 0.  1.
         21    1    1    2  503  502  0.34827683342E+02 -0.11400899511E+02 -0.15895959816E+03  0.16312909576E+03  0.00000000000E+00 0.  1.
         21    1    1    2  504  501 -0.26934373034E+02  0.57004189742E+02  0.52495759925E+02  0.82041104996E+02  0.00000000000E+00 0. -1.
         21    1    1    2  505  504 -0.86354060008E+02 -0.16004848647E+02 -0.82973151662E+03  0.83436656725E+03  0.00000000000E+00 0.  1.
         -1    1    1    2    0  503  0.78460749700E+02 -0.29598441585E+02  0.84485472294E+02  0.11903760757E+03  0.00000000000E+00 0.  1.
<scales pt_clust_3="36.64626" pt_clust_4="67.36341" pt_clust_5="59.31129" pt_clust_6="14000.00000"></scales>
<clustering>
<clus scale="   36.646">  2  3  1 -1</clus>
<clus scale="   59.311">  2  5  1 -1</clus>
<clus scale="   67.363">  1  4  2 -1</clus>
<clus scale="   36.646">  2  3  1 -1</clus>
</clustering>
</event>
<event>
 6    0  0.3082502E+002  0.1651034E+03  0.7546771E-02  0.1183053E+00
         21   -1    0    0  503  502  0.00000000000E+00  0.00000000000E+00  0.63230622841E+03  0.63230622841E+03  0.00000000000E+00 0. -1.
          2   -1    0    0  504    0 -0.00000000000E+00 -0.00000000000E+00 -0.86986151857E+03  0.86986151857E+03  0.00000000000E+00 0. -1.
         21    1    1    2  503  501 -0.28853877450E+02  0.12970708359E+03  0.55343453302E+02  0.14394225092E+03  0.00000000000E+00 0. -1.
         21    1    1    2  504  505  0.30852077323E+02  0.11837021366E+02 -0.12917330735E+02  0.35479898299E+02  0.00000000000E+00 0.  1.
         21    1    1    2  505  502  0.28424329202E+02  0.41540553626E+02  0.50937908804E+03  0.51185995684E+03  0.00000000000E+00 0. -1.
          2    1    1    2  501    0 -0.30422529075E+02 -0.18308465858E+03 -0.78936050077E+03  0.81088564093E+03  0.00000000000E+00 0. -1.
<scales pt_clust_3="14000.00000" pt_clust_4="33.04491" pt_clust_5="50.37437" pt_clust_6="165.10340"></scales>
<clustering>
<clus scale="   33.045">  2  4  1 -1</clus>
<clus scale="   50.374">  1  5  2 -1</clus>
<clus scale="  165.103">  2  6  1 -1</clus>
<clus scale="   50.374">  1  3  2 -1</clus>
</clustering>
</event>
<event>
 6    0  0.3082502E+002  0.8669256E+02  0.7546771E-02  0.1311065E+00
          2   -1    0    0  504    0 -0.00000000000E+00  0.00000000000E+00  0.64631325116E+03  0.64631325116E+03  0.00000000000E+00 0.  1.
         21   -1    0    0  505  502  0.00000000000E+00 -0.00000000000E+00 -0.23297911952E+03  0.23297911952E+03  0.00000000000E+00 0.  1.
         21    1    1    2  503  502 -0.33519792657E+02 -0.42576266035E+02 -0.89670253476E+02  0.10477150990E+03  0.00000000000E+00 0.  1.
         21    1    1    2  504  503  0.43247293963E+02  0.81861535496E+02  0.42015125987E+03  0.43023100842E+03  0.00000000000E+00 0.  1.
         21    1    1    2  505  501 -0.16470071394E+01  0.41672119170E+02 -0.11929958255E+03  0.12637906688E+03  0.00000000000E+00 0.  1.
          2    1    1    2  501    0 -0.80804941661E+01 -0.80957388631E+02  0.20215270779E+03  0.21791078548E+03  0.00000000000E+00 0.  1.
<scales pt_clust_3="35.44999" pt_clust_4="86.69256" pt_clust_5="41.70465" pt_clust_6="14000.00000"></scales>
<clustering>
<clus scale="   41.705">  2  5  1 -1</clus>
<clus scale="   35.450">  2  3  1 -1</clus>
<clus scale="   86.693">  1  4  2 -1</clus>
<clus scale="   41.705">  2  3  1 -1</clus>
</clustering>
</event>
<event>
 6    0  0.3082502E+002  0.3467426E+03  0.7546771E-02  0.1063960E+00
          1   -1    0    0  504    0 -0.00000000000E+00  0.00000000000E+00  0.18745604531E+04  0.18745604531E+04  0.00000000000E+00 0. -1.
         21   -1    0    0  505  502  0.00000000000E+00 -0.00000000000E+00 -0.61773017457E+03  0.61773017457E+03  0.00000000000E+00 0. -1.
         21    1    1    2  503  502  0.37050477541E+02 -0.30780408992E+02 -0.10279646251E+03  0.11352217478E+03  0.00000000000E+00 0. -1.
         21    1    1    2  504  503 -0.44240525709E+02  0.18870229754E+02  0.39792988145E+03  0.40082602240E+03  0.00000000000E+00 0. -1.
         21    1    1    2  505  501 -0.23846747052E+03 -0.25104741490E+03 -0.42334768194E+03  0.54691388612E+03  0.00000000000E+00 0. -1.
          1    1    1    2  501    0  0.24565751869E+03  0.26295759414E+03  0.13850445416E+04  0.14310285444E+04  0.00000000000E+00 0. -1.
<scales pt_clust_3="48.00064" pt_clust_4="48.09688" pt_clust_5="346.74256" pt_clust_6="14000.00000"></scales>
<clustering>
<clus scale="   48.097">  1  4  2 -1</clus>
<clus scale="   48.001">  2  3  1 -1</clus>
<clus scale="  346.743">  2  5  1 -1</clus>
<clus scale="   48.001">  2  3  1 -1</clus>
</clustering>
</event>
<event>
 6    0  0.3082502E+002  0.6585030E+02  0.7546771E-02  0.1374801E+00
         21   -1    0    0  503  502  0.00000000000E+00  0.00000000000E+00  0.75981118163E+02  0.75981118163E+02  0.00000000000E+00 0.  1.
          2   -1    0    0  504    0 -0.00000000000E+00 -0.00000000000E+00 -0.61502289250E+03  0.61502289250E+03  0.00000000000E+00 0. -1.
         21    1    1    2  503  501 -0.60667889482E+02  0.21962202832E+02  0.33844237329E+02  0.72858517469E+02  0.00000000000E+00 0.  1.
         21    1    1    2  504  505 -0.11165226542E+02  0.40203903847E+02 -0.33644362003E+03  0.33902112859E+03  0.00000000000E+00 0. -1.
         21    1    1    2  505  502  0.25853608783E+02  0.32850606870E+02 -0.53279465045E+02  0.67722026360E+02  0.00000000000E+00 0.  1.
          2    1    1    2  501    0  0.45979507241E+02 -0.95016713549E+02 -0.18316292659E+03  0.21140233825E+03  0.00000000000E+00 0. -1.
<scales pt_clust_3="65.85030" pt_clust_4="41.72549" pt_clust_5="47.75787" pt_clust_6="14000.00000"></scales>
<clustering>
<clus scale="   41.725">  2  4  1 -1</clus>
<clus scale="   47.758">  2  5  1 -1</clus>
<clus scale="   65.850">  1  3  2 -1</clus>
<clus scale="   65.850">  1  3  2 -1</clus>
</clustering>
</event>
<event>
 6    0  0.3082502E+002  0.9381565E+02  0.7546771E-02  0.1293866E+00
         21   -1    0    0  504  502  0.00000000000E+00  0.00000000000E+00  0.66883621865E+02  0.66883621865E+02  0.00000000000E+00 0. -1.
          2   -1    0    0  503    0 -0.00000000000E+00 -0.00000000000E+00 -0.37851185619E+04  0.37851185619E+04  0.00000000000E+00 0. -1.
         21    1    1    2  503  502  0.43648120238E+00  0.65283832893E+02 -0.66794077588E+02  0.93400311316E+02  0.00000000000E+00 0. -1.
         21    1    1    2  504  505 -0.38215005976E+02  0.73512206046E+01  0.41636452185E+02  0.56991414061E+02  0.00000000000E+00 0. -1.
         21    1    1    2  505  501 -0.49552539840E+02 -0.30120468513E+02 -0.23088107394E+03  0.23805202610E+03  0.00000000000E+00 0.  1.
          2    1    1    2  501    0  0.87331064614E+02 -0.42514584985E+02 -0.34621962407E+04  0.34635584323E+04  0.00000000000E+00 0. -1.
<scales pt_clust_3="14000.00000" pt_clust_4="38.91564" pt_clust_5="64.09582" pt_clust_6="93.81565"></scales>
<clustering>
<clus scale="   38.916">  1  4  2 -1</clus>
<clus scale="   64.096">  1  5  2 -1</clus>
<clus scale="   93.816">  2  6  1 -1</clus>
<clus scale="   38.916">  1  3  2 -1</clus>
</clustering>
</event>
<event>
 6    0  0.3082502E+002  0.8864804E+02  0.7546771E-02  0.1306159E+00
         -1   -1    0    0    0  501 -0.00000000000E+00  0.00000000000E+00  0.27829501039E+03  0.27829501039E+03  0.00000000000E+00 0. -1.
         21   -1    0    0  505  502  0.00000000000E+00 -0.00000000000E+00 -0.26191280238E+03  0.26191280238E+03  0.00000000000E+00 0. -1.
         21    1    1    2  503  501  0.70707753613E+01  0.40815484550E+02  0.14098822782E+03  0.14694754175E+03  0.00000000000E+00 0.  1.
         21    1    1    2  504  502  0.10596187799E+03  0.12939357756E+02 -0.55092362181E+02  0.12012707828E+03  0.00000000000E+00 0. -1.
         21    1    1    2  505  503 -0.30928702076E+02  0.10355917291E+02 -0.14234132086E+03  0.14603041211E+03  0.00000000000E+00 0. -1.
         -1    1    1    2    0  504 -0.82103951273E+02 -0.64110759598E+02  0.72827663246E+02  0.12710278063E+03  0.00000000000E+00 0. -1.
<scales pt_clust_3="41.55607" pt_clust_4="14000.00000" pt_clust_5="32.61640" pt_clust_6="88.64804"></scales>
<clustering>
<clus scale="   32.616">  2  5  1 -1</clus>
<clus scale="   41.556">  1  3  2 -1</clus>
<clus scale="   88.648">  1  6  2 -1</clus>
<clus scale="   32.616">  2  3  1 -1</clus>
</clustering>
</event>
<event>
 6    0  0.3082502E+002  0.2074817E+03  0.7546771E-02  0.1143576E+00
         21   -1    0    0  504  502  0.00000000000E+00  0.00000000000E+00  0.13326469451E+04  0.13326469451E+04  0.00000000000E+00 0. -1.
          2   -1    0    0  505    0 -0.00000000000E+00 -0.00000000000E+00 -0.22063757653E+04  0.22063757653E+04  0.00000000000E+00 0.  1.
         21    1    1    2  503  501  0.84855799647E+02 -0.14658491708E+03  0.26692771768E+03  0.31612980106E+03  0.00000000000E+00 0. -1.
         21    1    1    2  504  503 -0.19147527089E+03  0.13487298869E+03  0.10174146546E+04  0.10440239853E+04  0.00000000000E+00 0. -1.
         21    1    1    2  505  502  0.89382621250E+02 -0.11313716139E+03 -0.16123106482E+04  0.16187448522E+04  0.00000000000E+00 0.  1.
          2    1    1    2  501    0  0.17236849988E+02  0.12484908979E+03 -0.54576054425E+03  0.56012407186E+03  0.00000000000E+00 0.  1.
<scales pt_clust_3="14000.00000" pt_clust_4="207.48174" pt_clust_5="106.59231" pt_clust_6="126.03335"></scales>
<clustering>
<clus scale="  126.033">  2  6  1 -1</clus>
<clus scale="  106.592">  2  5  1 -1</clus>
<clus scale="  207.482">  1  4  2 -1</clus>
<clus scale="  207.482">  1  3  2 -1</clus>
</clustering>
</event>
<event>
 6    0  0.3082502E+002  0.2220385E+03  0.7546771E-02  0.1132372E+00
          2   -1    0    0  504    0 -0.00000000000E+00  0.00000000000E+00  0.10249225381E+04  0.10249225381E+04  0.00000000000E+00 0.  1.
         21   -1    0    0  501  502  0.00000000000E+00 -0.00000000000E+00 -0.76497582306E+03  0.76497582306E+03  0.00000000000E+00 0.  1.
         21    1    1    2  503  502 -0.83113526689E+02  0.81398597405E+02 -0.26170898404E+03  0.28640038810E+03  0.00000000000E+00 0.  1.
         21    1    1    2  504  505  0.89146474791E+02 -0.42124695189E+02  0.24669561612E+03  0.26566955213E+03  0.00000000000E+00 0.  1.
         21    1    1    2  505  503  0.52762538479E+02  0.14560953902E+03 -0.45598823556E+03  0.48157169175E+03  0.00000000000E+00 0.  1.
          2    1    1    2  501    0 -0.58795486580E+02 -0.18488344124E+03  0.73094831852E+03  0.75625672918E+03  0.00000000000E+00 0.  1.
<scales pt_clust_3="114.83894" pt_clust_4="98.59809" pt_clust_5="14000.00000" pt_clust_6="222.03850"></scales>
<clustering>
<clus scale="   98.598">  1  4  2 -1</clus>
<clus scale="  114.839">  2  3  1 -1</clus>
<clus scale="  222.038">  1  6  2 -1</clus>
<clus scale="  114.839">  2  3  1 -1</clus>
</clustering>
</event>
<event>
 6    0  0.3082502E+002  0.6102095E+02  0.7546771E-02  0.1393597E+00
          2   -1    0    0  505    0 -0.00000000000E+00  0.00000000000E+00  0.32646172966E+03  0.32646172966E+03  0.00000000000E+00 0.  1.
         21   -1    0    0  504  502  0.00000000000E+00 -0.00000000000E+00 -0.14041452659E+03  0.14041452659E+03  0.00000000000E+00 0.  1.
         21    1    1    2  503  502 -0.53583032350E+02 -0.62573132052E+02 -0.82842397297E+02  0.11683065095E+03  0.00000000000E+00 0.  1.
         21    1    1    2  504  501  0.29510462963E+02  0.28481599525E+02 -0.82681752011E+01  0.41838160296E+02  0.00000000000E+00 0. -1.
         21    1    1    2  505  503 -0.46067785438E+02  0.39433000072E+02  0.16527768441E+03  0.17605088842E+03  0.00000000000E+00 0.  1.
          2    1    1    2  501    0  0.70140354824E+02 -0.53414675457E+01  0.11188009117E+03  0.13215655659E+03  0.00000000000E+00 0.  1.
<scales pt_clust_3="47.16703" pt_clust_4="41.01303" pt_clust_5="61.02095" pt_clust_6="14000.00000"></scales>
<clustering>
<clus scale="   41.013">  2  4  1 -1</clus>
<clus scale="   47.167">  2  3  1 -1</clus>
<clus scale="   61.021">  1  5  2 -1</clus>
<clus scale="   41.013">  2  3  1 -1</clus>
</clustering>
</event>
<event>
 6    0  0.3082502E+002  0.1333558E+03  0.7546771E-02  0.1222560E+00
          1   -1    0    0  504    0 -0.00000000000E+00  0.00000000000E+00  0.15748512749E+04  0.15748512749E+04  0.00000000000E+00 0.  1.
         21   -1    0    0  503  502  0.00000000000E+00 -0.00000000000E+00 -0.10147728646E+03  0.10147728646E+03  0.00000000000E+00 0. -1.
         21    1    1    2  503  501 -0.52520859492E+02  0.40547781714E+02  0.30868670538E+02  0.73180858867E+02  0.00000000000E+00 0. -1.
         21    1    1    2  504  505  0.14411449478E+02 -0.40743074523E+02  0.76976012227E+03  0.77097233014E+03  0.00000000000E+00 0.  1.
         21    1    1    2  505  502 -0.85294024608E+02 -0.11729041900E+02 -0.49536717896E+02  0.99330395538E+02  0.00000000000E+00 0. -1.
          1    1    1    2  501    0  0.12340343462E+03  0.11924334709E+02  0.72228191351E+03  0.73284497680E+03  0.00000000000E+00 0.  1.
<scales pt_clust_3="64.02194" pt_clust_4="43.21676" pt_clust_5="14000.00000" pt_clust_6="133.35582"></scales>
<clustering>
<clus scale="   43.217">  1  4  2 -1</clus>
<clus scale="   64.022">  2  3  1 -1</clus>
<clus scale="  133.356">  1  6  2 -1</clus>
<clus scale="   64.022">  2  3  1 -1</clus>
</clustering>
</event>
<event>
 6    0  0.3082502E+002  0.1341266E+03  0.7546771E-02  0.1221458E+00
         21   -1    0    0  503  502  0.00000000000E+00  0.00000000000E+00  0.25387623067E+03  0.25387623067E+03  0.00000000000E+00 0.  1.
          1   -1    0    0  504    0 -0.00000000000E+00 -0.00000000000E+00 -0.71956382644E+03  0.71956382644E+03  0.00000000000E+00 0.  1.
         21    1    1    2  503  501  0.29971098105E+02  0.84625201390E+02  0.17667777758E+03  0.19817852690E+03  0.00000000000E+00 0.  1.
         21    1    1    2  504  505 -0.26743670118E+02  0.34040933961E+02 -0.11634580320E+03  0.12413845093E+03  0.00000000000E+00 0. -1.
         21    1    1    2  505  502  0.51220542762E+02  0.25425276557E+02  0.36536623429E+02  0.67859513264E+02  0.00000000000E+00 0.  1.
          1    1    1    2  501    0 -0.54447970750E+02 -0.14409141191E+03 -0.56255619358E+03  0.58326356602E+03  0.00000000000E+00 0.  1.
<scales pt_clust_3="14000.00000" pt_clust_4="43.28983" pt_clust_5="56.96412" pt_clust_6="134.12664"></scales>
<clustering>
<clus scale="   43.290">  2  4  1 -1</clus>
<clus scale="   56.964">  1  5  2 -1</clus>
<clus scale="  134.127">  2  6  1 -1</clus>
<clus scale="   56.964">  1  3  2 -1</clus>
</clustering>
</event>
<event>
 6    0  0.3082502E+002  0.1807034E+03  0.7546771E-02  0.1167124E+00
         21   -1    0    0  501  502  0.00000000000E+00  0.00000000000E+00  0.12200435295E+04  0.12200435295E+04  0.00000000000E+00 0. -1.
          2   -1    0    0  503    0 -0.00000000000E+00 -0.00000000000E+00 -0.14179386867E+04  0.14179386867E+04  0.00000000000E+00 0. -1.
         21    1    1    2  503  505  0.32719503601E+02 -0.70363471957E+02 -0.31677243421E+03  0.32613855825E+03  0.00000000000E+00 0. -1.
         21    1    1    2  504  502 -0.21077379719E+02 -0.25658386139E+02  0.11489547569E+04  0.11494344880E+04  0.00000000000E+00 0. -1.
         21    1    1    2  505  504  0.18245024347E+03 -0.28902352142E+02 -0.11259113848E+03  0.21633354285E+03  0.00000000000E+00 0. -1.
          2    1    1    2  501    0 -0.19409236735E+03  0.12492421024E+03 -0.91748634146E+03  0.94607562707E+03  0.00000000000E+00 0. -1.
<scales pt_clust_3="78.57420" pt_clust_4="33.20555" pt_clust_5="14000.00000" pt_clust_6="180.70338"></scales>
<clustering>
<clus scale="   33.206">  1  4  2 -1</clus>
<clus scale="   78.574">  2  3  1 -1</clus>
<clus scale="  180.703">  2  6  1 -1</clus>
<clus scale="   33.206">  1  3  2 -1</clus>
</clustering>
</event>
<event>
 6    0  0.3082502E+002  0.8485521E+02  0.7546771E-02  0.1315812E+00
          2   -1    0    0  505    0 -0.00000000000E+00  0.00000000000E+00  0.11994645998E+04  0.11994645998E+04  0.00000000000E+00 0.  1.
         21   -1    0    0  504  502  0.00000000000E+00 -0.00000000000E+00 -0.52384021552E+02  0.52384021552E+02  0.00000000000E+00 0.  1.
         21    1    1    2  503  501  0.25205014252E+02 -0.45277166328E+02  0.50454679781E+01  0.52065067764E+02  0.00000000000E+00 0.  1.
         21    1    1    2  504  503  0.20006163578E+02  0.27008861289E+02 -0.29087587329E+01  0.33737013006E+02  0.00000000000E+00 0.  1.
         21    1    1    2  505  502  0.23662479171E+02  0.74573885825E+02  0.17100044011E+03  0.18804873806E+03  0.00000000000E+00 0.  1.
          2    1    1    2  501    0 -0.68873657002E+02 -0.56305580786E+02  0.97394342891E+03  0.97799780254E+03  0.00000000000E+00 0.  1.
<scales pt_clust_3="47.23871" pt_clust_4="33.61138" pt_clust_5="84.85521" pt_clust_6="14000.00000"></scales>
<clustering>
<clus scale="   33.611">  2  4  1 -1</clus>
<clus scale="   47.239">  2  3  1 -1</clus>
<clus scale="   84.855">  2  5  1 -1</clus>
<clus scale="   33.611">  2  3  1 -1</clus>
</clustering>
</event>
<event>
 6    0  0.3082502E+002  0.1730511E+03  0.7546771E-02  0.1174703E+00
          2   -1    0    0  505    0 -0.00000000000E+00  0.00000000000E+00  0.26928475582E+04  0.26928475582E+04  0.00000000000E+00 0.  1.
         21   -1    0    0  504  502  0.00000000000E+00 -0.00000000000E+00 -0.53417743813E+03  0.53417743813E+03  0.00000000000E+00 0.  1.
         21    1    1    2  503  502 -0.53777968133E+02 -0.89196445752E+01 -0.37496294333E+03  0.37890478855E+03  0.00000000000E+00 0.  1.
         21    1    1    2  504  501  0.74904213982E+02 -0.58969103812E+02 -0.12960665753E+03  0.16089090140E+03  0.00000000000E+00 0.  1.
         21    1    1    2  505  503 -0.11915416482E+03 -0.10506821048E+03  0.12606680389E+04  0.12706380083E+04  0.00000000000E+00 0. -1.
          2    1    1    2  501    0  0.98027918968E+02  0.17295695887E+03  0.14025716821E+04  0.14165912981E+04  0.00000000000E+00 0.  1.
<scales pt_clust_3="54.51266" pt_clust_4="71.78746" pt_clust_5="14000.00000" pt_clust_6="173.05110"></scales>
<clustering>
<clus scale="   54.513">  2  3  1 -1</clus>
<clus scale="   71.787">  2  4  1 -1</clus>
<clus scale="  173.051">  2  6  1 -1</clus>
<clus scale="   54.513">  2  3  1 -1</clus>
</clustering>
</event>
<event>
 6    0  0.3082502E+002  0.2957971E+03  0.7546771E-02  0.1087361E+00
          2   -1    0    0  504    0 -0.00000000000E+00  0.00000000000E+00  0.25397318662E+04  0.25397318662E+04  0.00000000000E+00 0.  1.
         21   -1    0    0  501  502  0.00000000000E+00 -0.00000000000E+00 -0.70183537986E+02  0.70183537986E+02  0.00000000000E+00 0.  1.
         21    1    1    2  503  502 -0.52868509851E+01 -0.81600957249E+02  0.78810553704E+02  0.11356835119E+03  0.00000000000E+00 0.  1.
         21    1    1    2  504  505 -0.45309118290E+02  0.55763456819E+02  0.11737206428E+04  0.11759177805E+04  0.00000000000E+00 0.  1.
         21    1    1    2  505  503 -0.98346491885E+02 -0.19766210162E+03  0.35993897048E+03  0.42225395363E+03  0.00000000000E+00 0.  1.
          2    1    1    2  501    0  0.14894246116E+03  0.22349960205E+03  0.85707816127E+03  0.89817531884E+03  0.00000000000E+00 0.  1.
<scales pt_clust_3="46.65429" pt_clust_4="71.85040" pt_clust_5="46.65429" pt_clust_6="285.69082"></scales>
<clustering>
<clus scale="   46.654">  3  5 -1 -1</clus>
<clus scale="   71.850">  1  4  2 -1</clus>
<clus scale="  285.691">  1  6  2 -1</clus>
<clus scale="  295.797">  2  3  1 -1</clus>
</clustering>
</event>
<event>
 6    0  0.3082502E+002  0.9944187E+02  0.7546771E-02  0.1281474E+00
          2   -1    0    0  503    0 -0.00000000000E+00  0.00000000000E+00  0.29467054771E+03  0.29467054771E+03  0.00000000000E+00 0. -1.
         21   -1    0    0  505  502  0.00000000000E+00 -0.00000000000E+00 -0.88395381705E+03  0.88395381705E+03  0.00000000000E+00 0. -1.
         21    1    1    2  503  504  0.23344360302E+02 -0.23454558020E+02  0.25391783003E+02  0.41711126739E+02  0.00000000000E+00 0. -1.
         21    1    1    2  504  502  0.16245112647E+02 -0.69340899692E+02 -0.54501050926E+02  0.89679588575E+02  0.00000000000E+00 0. -1.
         21    1    1    2  505  501 -0.62932132833E+02 -0.29115279675E+02 -0.78626181352E+03  0.78931349428E+03  0.00000000000E+00 0. -1.
          2    1    1    2  501    0  0.23342659883E+02  0.12191073739E+03  0.22608781210E+03  0.25792015516E+03  0.00000000000E+00 0. -1.
<scales pt_clust_3="33.09192" pt_clust_4="14000.00000" pt_clust_5="69.27483" pt_clust_6="99.44187"></scales>
<clustering>
<clus scale="   33.092">  1  3  2 -1</clus>
<clus scale="   69.275">  2  5  1 -1</clus>
<clus scale="   99.442">  1  6  2 -1</clus>
<clus scale="   69.275">  2  3  1 -1</clus>
</clustering>
</event>
<event>
 6    0  0.3082502E+002  0.9429017E+02  0.7546771E-02  0.1292783E+00
         -2   -1    0    0    0  501 -0.00000000000E+00  0.00000000000E+00  0.24924689298E+03  0.24924689298E+03  0.00000000000E+00 0. -1.
         21   -1    0    0  503  502  0.00000000000E+00 -0.00000000000E+00 -0.33980563838E+03  0.33980563838E+03  0.00000000000E+00 0.  1.
         21    1    1    2  503  501 -0.48669267285E+02  0.11754237970E+02  0.41576933098E+02  0.65080727210E+02  0.00000000000E+00 0.  1.
         21    1    1    2  504  502 -0.49728211510E+02 -0.28662648176E+02 -0.93203733870E+02  0.10945948304E+03  0.00000000000E+00 0.  1.
         21    1    1    2  505  504  0.14576390340E+03  0.36999676112E+02 -0.19725226305E+03  0.24804142163E+03  0.00000000000E+00 0.  1.
         -2    1    1    2    0  505 -0.47366424605E+02 -0.20091265906E+02  0.15832031842E+03  0.16647089947E+03  0.00000000000E+00 0. -1.
<scales pt_clust_3="50.06855" pt_clust_4="58.92041" pt_clust_5="94.29017" pt_clust_6="14000.00000"></scales>
<clustering>
<clus scale="   50.069">  1  3  2 -1</clus>
<clus scale="   58.920">  2  4  1 -1</clus>
<clus scale="   94.290">  2  5  1 -1</clus>
<clus scale="   58.920">  2  3  1 -1</clus>
</clustering>
</event>
<event>
 6    0  0.3082502E+002  0.1248790E+03  0.7546771E-02  0.1235259E+00
          2   -1    0    0  505    0 -0.00000000000E+00  0.00000000000E+00  0.86866903500E+03  0.86866903500E+03  0.00000000000E+00 0. -1.
         21   -1    0    0  504  502  0.00000000000E+00 -0.00000000000E+00 -0.23029225041E+03  0.23029225041E+03  0.00000000000E+00 0.  1.
         21    1    1    2  503  502  0.17387044408E+02 -0.62440081464E+02  0.76938568101E+02  0.10060127409E+03  0.00000000000E+00 0.  1.
         21    1    1    2  504  501 -0.73529093105E+02  0.10153465075E+03 -0.18748515680E+03  0.22553602119E+03  0.00000000000E+00 0.  1.
         21    1    1    2  505  503 -0.98471757536E+01  0.45612322842E+02  0.62207481167E+02  0.77763883509E+02  0.00000000000E+00 0.  1.
          2    1    1    2  501    0  0.65989224451E+02 -0.84706892125E+02  0.68671589212E+03  0.69506010662E+03  0.00000000000E+00 0. -1.
<scales pt_clust_3="59.63909" pt_clust_4="124.87899" pt_clust_5="46.66316" pt_clust_6="14000.00000"></scales>
<clustering>
<clus scale="   46.663">  1  5  2 -1</clus>
<clus scale="   59.639">  1  3  2 -1</clus>
<clus scale="  124.879">  2  4  1 -1</clus>
<clus scale="  124.879">  2  3  1 -1</clus>
</clustering>
</event>
<event>
 6    0  0.3082502E+002  0.3244366E+03  0.7546771E-02  0.1073625E+00
         21   -1    0    0  503  502  0.00000000000E+00  0.00000000000E+00  0.20670111320E+04  0.20670111320E+04  0.00000000000E+00 0.  1.
          1   -1    0    0  505    0 -0.00000000000E+00 -0.00000000000E+00 -0.82823342892E+03  0.82823342892E+03  0.00000000000E+00 0. -1.
         21    1    1    2  503  504 -0.13090308401E+02 -0.18217132200E+03  0.18863436956E+04  0.18951649756E+04  0.00000000000E+00 0.  1.
         21    1    1    2  504  501  0.31885189573E+03  0.35289435010E+02 -0.13373925304E+03  0.34756015802E+03  0.00000000000E+00 0.  1.
         21    1    1    2  505  502  0.23320208221E+01 -0.32529974763E+02 -0.78406960708E+01  0.33542720433E+02  0.00000000000E+00 0.  1.
          1    1    1    2  501    0 -0.30809360816E+03  0.17941186175E+03 -0.50598604342E+03  0.61897670688E+03  0.00000000000E+00 0. -1.
<scales pt_clust_3="182.81734" pt_clust_4="324.43663" pt_clust_5="32.61346" pt_clust_6="14000.00000"></scales>
<clustering>
<clus scale="   32.613">  2  5  1 -1</clus>
<clus scale="  182.817">  1  3  2 -1</clus>
<clus scale="  324.437">  1  4  2 -1</clus>
<clus scale="  182.817">  1  3  2 -1</clus>
</clustering>
</event>
<event>
 6    0  0.3082502E+002  0.1113931E+03  0.7546771E-02  0.1258012E+00
         21   -1    0    0  503  502  0.00000000000E+00  0.00000000000E+00  0.24822310144E+03  0.24822310144E+03  0.00000000000E+00 0. -1.
         -1   -1    0    0    0  501 -0.00000000000E+00 -0.00000000000E+00 -0.29231542038E+03  0.29231542038E+03  0.00000000000E+00 0. -1.
         21    1    1    2  503  505 -0.44649689014E+02 -0.37963437652E+02  0.63886882570E+02  0.86696892055E+02  0.00000000000E+00 0. -1.
         21    1    1    2  504  502 -0.57274816362E+02  0.95720859432E+02  0.13024324593E+03  0.17148233329E+03  0.00000000000E+00 0. -1.
         21    1    1    2  505  501  0.43285385455E+02  0.20122728573E+02 -0.43433738348E+02  0.64537108907E+02  0.00000000000E+00 0. -1.
         -1    1    1    2    0  504  0.58639119921E+02 -0.77880150354E+02 -0.19478870910E+03  0.21782218757E+03  0.00000000000E+00 0. -1.
<scales pt_clust_3="56.40877" pt_clust_4="111.39313" pt_clust_5="47.73415" pt_clust_6="14000.00000"></scales>
<clustering>
<clus scale="   47.734">  2  5  1 -1</clus>
<clus scale="   56.409">  1  3  2 -1</clus>
<clus scale="  111.393">  1  4  2 -1</clus>
<clus scale="   56.409">  1  3  2 -1</clus>
</clustering>
</event>
<event>
 6    0  0.3082502E+002  0.1049821E+03  0.7546771E-02  0.1270155E+00
         -2   -1    0    0    0  501 -0.00000000000E+00  0.00000000000E+00  0.32908389444E+03  0.32908389444E+03  0.00000000000E+00 0.  1.
         21   -1    0    0  505  502  0.00000000000E+00 -0.00000000000E+00 -0.16076216365E+03  0.16076216365E+03  0.00000000000E+00 0. -1.
         21    1    1    2  503  501  0.31272217903E+02  0.43298539751E+01  0.90493533937E+02  0.95842469357E+02  0.00000000000E+00 0. -1.
         21    1    1    2  504  502  0.42556658412E+02  0.20838452334E+02 -0.96224687995E+02  0.10725903622E+03  0.00000000000E+00 0. -1.
         21    1    1    2  505  503  0.62172335228E+02 -0.56177922306E+02  0.38415215940E+02  0.92179645464E+02  0.00000000000E+00 0. -1.
         -2    1    1    2    0  504 -0.13600121154E+03  0.31009615997E+02  0.13563766891E+03  0.19456490704E+03  0.00000000000E+00 0.  1.
<scales pt_clust_3="31.57054" pt_clust_4="48.08661" pt_clust_5="14000.00000" pt_clust_6="104.98211"></scales>
<clustering>
<clus scale="   31.571">  1  3  2 -1</clus>
<clus scale="   48.087">  2  4  1 -1</clus>
<clus scale="  104.982">  1  6  2 -1</clus>
<clus scale="   48.087">  2  3  1 -1</clus>
</clustering>
</event>
<event>
 6    0  0.3082502E+002  0.1447036E+03  0.7546771E-02  0.1207136E+00
         21   -1    0    0  504  502  0.00000000000E+00  0.00000000000E+00  0.14008027326E+04  0.14008027326E+04  0.00000000000E+00 0. -1.
         -2   -1    0    0    0  501 -0.00000000000E+00 -0.00000000000E+00 -0.60050260694E+02  0.60050260694E+02  0.00000000000E+00 0.  1.
         21    1    1    2  503  501  0.11338715772E+03 -0.10628674465E+03  0.94818706636E+02  0.18205522995E+03  0.00000000000E+00 0.  1.
         21    1    1    2  504  503  0.29410272158E+02 -0.23890381043E+02  0.14134900026E+03  0.14633951718E+03  0.00000000000E+00 0. -1.
         21    1    1    2  505  502 -0.26514792398E+02  0.84431875076E+02  0.77404550076E+03  0.77908806498E+03  0.00000000000E+00 0. -1.
         -2    1    1    2    0  505 -0.11628263748E+03  0.45745250620E+02  0.33053926422E+03  0.35337018115E+03  0.00000000000E+00 0.  1.
<scales pt_clust_3="14000.00000" pt_clust_4="37.89082" pt_clust_5="70.17001" pt_clust_6="144.70364"></scales>
<clustering>
<clus scale="   37.891">  1  4  2 -1</clus>
<clus scale="   70.170">  1  5  2 -1</clus>
<clus scale="  144.704">  1  6  2 -1</clus>
<clus scale="   37.891">  1  3  2 -1</clus>
</clustering>
</event>
<event>
 6    0  0.3082502E+002  0.8434794E+02  0.7546771E-02  0.1317147E+00
          2   -1    0    0  504    0 -0.00000000000E+00  0.00000000000E+00  0.10049748786E+04  0.10049748786E+04  0.00000000000E+00 0. -1.
         21   -1    0    0  501  502  0.00000000000E+00 -0.00000000000E+00 -0.66404343641E+02  0.66404343641E+02  0.00000000000E+00 0. -1.
         21    1    1    2  503  502  0.35959614431E+02 -0.83280743443E+01 -0.57063992034E+00  0.36915800442E+02  0.00000000000E+00 0. -1.
         21    1    1    2  504  505  0.84026449576E+02 -0.65673036918E+02  0.30638557156E+03  0.32441564461E+03  0.00000000000E+00 0. -1.
         21    1    1    2  505  503 -0.10416825232E+03  0.32586811841E+02  0.40936665455E+02  0.11657073250E+03  0.00000000000E+00 0. -1.
          2    1    1    2  501    0 -0.15817811691E+02  0.41414299422E+02  0.59181893784E+03  0.59347704467E+03  0.00000000000E+00 0. -1.
<scales pt_clust_3="36.91139" pt_clust_4="84.34794" pt_clust_5="14000.00000" pt_clust_6="43.97695"></scales>
<clustering>
<clus scale="   36.911">  2  3  1 -1</clus>
<clus scale="   43.977">  1  6  2 -1</clus>
<clus scale="   84.348">  1  4  2 -1</clus>
<clus scale="   36.911">  2  3  1 -1</clus>
</clustering>
</event>
<event>
 6    0  0.3082502E+002  0.1030740E+03  0.7546771E-02  0.1273961E+00
         21   -1    0    0  504  502  0.00000000000E+00  0.00000000000E+00  0.17350807090E+04  0.17350807090E+04  0.00000000000E+00 0.  1.
         -3   -1    0    0    0  501 -0.00000000000E+00 -0.00000000000E+00 -0.96489700582E+02  0.96489700582E+02  0.00000000000E+00 0.  1.
         21    1    1    2  503  501 -0.26415542936E+02  0.22128092496E+02  0.30833706023E+02  0.46240142876E+02  0.00000000000E+00 0.  1.
         21    1    1    2  504  503 -0.81978329270E+02 -0.71099392474E+02  0.16166170794E+04  0.16202550267E+04  0.00000000000E+00 0.  1.
         21    1    1    2  505  502  0.29069572588E+02  0.51728975531E+02  0.40284890015E+02  0.71720285300E+02  0.00000000000E+00 0. -1.
         -3    1    1    2    0  505  0.79324299618E+02 -0.27576755530E+01 -0.49144666988E+02  0.93354954757E+02  0.00000000000E+00 0.  1.
<scales pt_clust_3="34.45916" pt_clust_4="103.07397" pt_clust_5="14000.00000" pt_clust_6="60.03042"></scales>
<clustering>
<clus scale="   34.459">  2  3  1 -1</clus>
<clus scale="   60.030">  2  6  1 -1</clus>
<clus scale="  103.074">  1  4  2 -1</clus>
<clus scale="  103.074">  1  3  2 -1</clus>
</clustering>
</event>
<event>
 6    0  0.3082502E+002  0.1415355E+03  0.7546771E-02  0.1211278E+00
         21   -1    0    0  505  502  0.00000000000E+00  0.00000000000E+00  0.32216853496E+03  0.32216853496E+03  0.00000000000E+00 0.  1.
         -1   -1    0    0    0  501 -0.00000000000E+00 -0.00000000000E+00 -0.14875500120E+04  0.14875500120E+04  0.00000000000E+00 0.  1.
         21    1    1    2  503  501 -0.13062714494E+03  0.31500148348E+02 -0.11182617404E+04  0.11263059222E+04  0.00000000000E+00 0.  1.
         21    1    1    2  504  502 -0.71838758943E+02  0.61044966262E+02  0.43136453854E+02  0.10367279703E+03  0.00000000000E+00 0.  1.
         21    1    1    2  505  503  0.15996267125E+02  0.62678660917E+02  0.19488822129E+03  0.20534340480E+03  0.00000000000E+00 0.  1.
         -1    1    1    2    0  504  0.18646963675E+03 -0.15522377553E+03 -0.28514441176E+03  0.37439642290E+03  0.00000000000E+00 0.  1.
<scales pt_clust_3="141.53546" pt_clust_4="116.70863" pt_clust_5="64.68767" pt_clust_6="14000.00000"></scales>
<clustering>
<clus scale="   64.688">  1  5  2 -1</clus>
<clus scale="  116.709">  1  4  2 -1</clus>
<clus scale="  141.535">  2  3  1 -1</clus>
<clus scale="   64.688">  1  3  2 -1</clus>
</clustering>
</event>
<event>
 6    0  0.3082502E+002  0.1131347E+03  0.7546771E-02  0.1254873E+00
          2   -1    0    0  505    0 -0.00000000000E+00  0.00000000000E+00  0.11673883843E+04  0.11673883843E+04  0.00000000000E+00 0.  1.
         21   -1    0    0  501  502  0.00000000000E+00 -0.00000000000E+00 -0.29344715512E+03  0.29344715512E+03  0.00000000000E+00 0. -1.
         21    1    1    2  503  502  0.31917589712E+02 -0.10490271347E+03 -0.16102243400E+03  0.19481153989E+03  0.00000000000E+00 0. -1.
         21    1    1    2  504  503 -0.42293099077E+01  0.12305208906E+03 -0.72273412470E+02  0.14276956900E+03  0.00000000000E+00 0. -1.
         21    1    1    2  505  504  0.70124338820E+02  0.18385032776E+02  0.66105333709E+03  0.66501650115E+03  0.00000000000E+00 0.  1.
          2    1    1    2  501    0 -0.97812618624E+02 -0.36534408367E+02  0.44618373860E+03  0.45823792941E+03  0.00000000000E+00 0.  1.
<scales pt_clust_3="113.13471" pt_clust_4="14000.00000" pt_clust_5="72.49436" pt_clust_6="40.28247"></scales>
<clustering>
<clus scale="   72.494">  1  5  2 -1</clus>
<clus scale="   40.282">  1  6  2 -1</clus>
<clus scale="  113.135">  2  3  1 -1</clus>
<clus scale="  113.135">  2  3  1 -1</clus>
</clustering>
</event>
<event>
 6    0  0.3082502E+002  0.8284346E+02  0.7546771E-02  0.1321170E+00
          1   -1    0    0  504    0 -0.00000000000E+00  0.00000000000E+00  0.25793852485E+03  0.25793852485E+03  0.00000000000E+00 0.  1.
         21   -1    0    0  501  502  0.00000000000E+00 -0.00000000000E+00 -0.60748088338E+03  0.60748088338E+03  0.00000000000E+00 0. -1.
         21    1    1    2  503  502  0.16198242510E+02  0.53893974515E+02 -0.41547795741E+03  0.41927184099E+03  0.00000000000E+00 0. -1.
         21    1    1    2  504  505 -0.49202396702E+02  0.48555603467E+02  0.25989812101E+02  0.73851153019E+02  0.00000000000E+00 0.  1.
         21    1    1    2  505  503  0.65102188354E+02 -0.11986507297E+02 -0.14751628977E+03  0.16168805470E+03  0.00000000000E+00 0. -1.
          1    1    1    2  501    0 -0.32098034162E+02 -0.90463070685E+02  0.18746207655E+03  0.21060835952E+03  0.00000000000E+00 0.  1.
<scales pt_clust_3="56.27560" pt_clust_4="72.71091" pt_clust_5="82.84346" pt_clust_6="14000.00000"></scales>
<clustering>
<clus scale="   56.276">  2  3  1 -1</clus>
<clus scale="   72.711">  1  4  2 -1</clus>
<clus scale="   82.843">  2  5  1 -1</clus>
<clus scale="   56.276">  2  3  1 -1</clus>
</clustering>
</event>
<event>
 6    0  0.3082502E+002  0.1012935E+03  0.7546771E-02  0.1277599E+00
         21   -1    0    0  503  502  0.00000000000E+00  0.00000000000E+00  0.20449997693E+04  0.20449997693E+04  0.00000000000E+00 0. -1.
          1   -1    0    0  505    0 -0.00000000000E+00 -0.00000000000E+00 -0.17420456087E+04  0.17420456087E+04  0.00000000000E+00 0.  1.
         21    1    1    2  503  504  0.13879598447E+02  0.41827692439E+02  0.11251659194E+03  0.12083949094E+03  0.00000000000E+00 0.  1.
         21    1    1    2  504  501 -0.11788660994E+03  0.14920345173E+02 -0.34243126359E+03  0.36246246673E+03  0.00000000000E+00 0. -1.
         21    1    1    2  505  502  0.33827043999E+02  0.17608209005E+02  0.19162297275E+04  0.19166091637E+04  0.00000000000E+00 0. -1.
          1    1    1    2  501    0  0.70179967498E+02 -0.74356246617E+02 -0.13833608952E+04  0.13871342566E+04  0.00000000000E+00 0.  1.
<scales pt_clust_3="72.99653" pt_clust_4="14000.00000" pt_clust_5="38.13552" pt_clust_6="101.29349"></scales>
<clustering>
<clus scale="   38.136">  1  5  2 -1</clus>
<clus scale="   72.997">  1  3  2 -1</clus>
<clus scale="  101.293">  2  6  1 -1</clus>
<clus scale="   38.136">  1  3  2 -1</clus>
</clustering>
</event>
<event>
 6    0  0.3082502E+002  0.1462326E+03  0.7546771E-02  0.1205180E+00
         -2   -1    0    0    0  501 -0.00000000000E+00  0.00000000000E+00  0.19906006298E+03  0.19906006298E+03  0.00000000000E+00 0. -1.
         21   -1    0    0  504  502  0.00000000000E+00 -0.00000000000E+00 -0.41546113624E+03  0.41546113624E+03  0.00000000000E+00 0. -1.
         21    1    1    2  503  501 -0.30131214405E+02  0.60687840600E+01 -0.11101127708E+02  0.32679584726E+02  0.00000000000E+00 0.  1.
         21    1    1    2  504  503  0.80712139404E+02 -0.80655258989E+02 -0.32303889525E+03  0.34259866913E+03  0.00000000000E+00 0. -1.
         21    1    1    2  505  502  0.31517806690E+02 -0.25855477536E+02 -0.23834574362E+02  0.47222503028E+02  0.00000000000E+00 0. -1.
         -2    1    1    2    0  505 -0.82098731689E+02  0.10044195247E+03  0.14157352406E+03  0.19202044234E+03  0.00000000000E+00 0. -1.
<scales pt_clust_3="30.73630" pt_clust_4="146.23262" pt_clust_5="39.09038" pt_clust_6="14000.00000"></scales>
<clustering>
<clus scale="   30.736">  1  3  2 -1</clus>
<clus scale="   39.090">  2  5  1 -1</clus>
<clus scale="  146.233">  2  4  1 -1</clus>
<clus scale="   39.090">  2  3  1 -1</clus>
</clustering>
</event>
<event>
 6    0  0.3082502E+002  0.1021904E+03  0.7546771E-02  0.1275756E+00
         21   -1    0    0  505  502  0.00000000000E+00  0.00000000000E+00  0.14523283721E+03  0.14523283721E+03  0.00000000000E+00 0.  1.
          2   -1    0    0  503    0 -0.00000000000E+00 -0.00000000000E+00 -0.98342717401E+03  0.98342717401E+03  0.00000000000E+00 0.  1.
         21    1    1    2  503  504 -0.38048593229E+02  0.29043261876E+02 -0.33890115869E+03  0.34226481249E+03  0.00000000000E+00 0.  1.
         21    1    1    2  504  502  0.91289881523E+01 -0.14045992834E+03 -0.10917149187E+03  0.17813125647E+03  0.00000000000E+00 0. -1.
         21    1    1    2  505  501 -0.57847442798E+02  0.80097033888E+02  0.81269305237E+02  0.12793186253E+03  0.00000000000E+00 0.  1.
          2    1    1    2  501    0  0.86767047874E+02  0.31319632576E+02 -0.47139099148E+03  0.48033207974E+03  0.00000000000E+00 0.  1.
<scales pt_clust_3="47.86655" pt_clust_4="14000.00000" pt_clust_5="102.19039" pt_clust_6="78.89227"></scales>
<clustering>
<clus scale="   47.867">  2  3  1 -1</clus>
<clus scale="   78.892">  2  6  1 -1</clus>
<clus scale="  102.190">  1  5  2 -1</clus>
<clus scale="  102.190">  1  3  2 -1</clus>
</clustering>
</event>
<event>
 6    0  0.3082502E+002  0.1310437E+03  0.7546771E-02  0.1225915E+00
         21   -1    0    0  504  502  0.00000000000E+00  0.00000000000E+00  0.87143985795E+02  0.87143985795E+02  0.00000000000E+00 0.  1.
          2   -1    0    0  505    0 -0.00000000000E+00 -0.00000000000E+00 -0.19306180844E+04  0.19306180844E+04  0.00000000000E+00 0. -1.
         21    1    1    2  503  502  0.51585934696E+02  0.10838310581E+03 -0.98670295393E+02  0.15538286095E+03  0.00000000000E+00 0. -1.
         21    1    1    2  504  501  0.48806818120E+02 -0.24566687826E+02  0.35938665993E+02  0.65400423234E+02  0.00000000000E+00 0.  1.
         21    1    1    2  505  503  0.38618655909E+02  0.25858403643E+02 -0.16061929846E+03  0.16720830321E+03  0.00000000000E+00 0. -1.
          2    1    1    2  501    0 -0.13901140872E+03 -0.10967482162E+03 -0.16201231707E+04  0.16297704828E+04  0.00000000000E+00 0. -1.
<scales pt_clust_3="14000.00000" pt_clust_4="54.83262" pt_clust_5="46.47642" pt_clust_6="131.04365"></scales>
<clustering>
<clus scale="   46.476">  2  5  1 -1</clus>
<clus scale="   54.833">  1  4  2 -1</clus>
<clus scale="  131.044">  2  6  1 -1</clus>
<clus scale="   54.833">  1  3  2 -1</clus>
</clustering>
</event>
<event>
 6    0  0.3082502E+002  0.1221069E+03  0.7546771E-02  0.1239661E+00
          2   -1    0    0  503    0 -0.00000000000E+00  0.00000000000E+00  0.11731997773E+04  0.11731997773E+04  0.00000000000E+00 0.  1.
         21   -1    0    0  505  502  0.00000000000E+00 -0.00000000000E+00 -0.17588104753E+04  0.17588104753E+04  0.00000000000E+00 0. -1.
         21    1    1    2  503  504  0.60245327967E+01 -0.45886221032E+02  0.53484124365E+03  0.53683982358E+03  0.00000000000E+00 0. -1.
         21    1    1    2  504  502 -0.86265038944E+00 -0.45487415518E+02 -0.34900066638E+02  0.57339896996E+02  0.00000000000E+00 0. -1.
         21    1    1    2  505  501 -0.11018982175E+03 -0.48307428377E+01 -0.17017831057E+04  0.17053535914E+04  0.00000000000E+00 0. -1.
          2    1    1    2  501    0  0.10502793935E+03  0.96204379388E+02  0.61623123069E+03  0.63247694055E+03  0.00000000000E+00 0.  1.
<scales pt_clust_3="46.30627" pt_clust_4="45.49559" pt_clust_5="122.10687" pt_clust_6="14000.00000"></scales>
<clustering>
<clus scale="   45.496">  2  4  1 -1</clus>
<clus scale="   46.306">  1  3  2 -1</clus>
<clus scale="  122.107">  2  5  1 -1</clus>
<clus scale="   45.496">  2  3  1 -1</clus>
</clustering>
</event>
<event>
 6    0  0.3082502E+002  0.9484048E+02  0.7546771E-02  0.1291536E+00
         21   -1    0    0  504  502  0.00000000000E+00  0.00000000000E+00  0.45396366294E+02  0.45396366294E+02  0.00000000000E+00 0.  1.
          2   -1    0    0  505    0 -0.00000000000E+00 -0.00000000000E+00 -0.42078303858E+04  0.42078303858E+04  0.00000000000E+00 0. -1.
         21    1    1    2  503  502 -0.33306936245E+02 -0.86413634556E+01 -0.14910237332E+03  0.15302138052E+03  0.00000000000E+00 0. -1.
         21    1    1    2  504  501 -0.52540597008E+02 -0.76967929358E+01  0.17969391537E+02  0.56059379123E+02  0.00000000000E+00 0.  1.
         21    1    1    2  505  503  0.13596235579E+02  0.79296042228E+02 -0.27262184025E+03  0.28424529497E+03  0.00000000000E+00 0.  1.
          2    1    1    2  501    0  0.72251297674E+02 -0.62957885837E+02 -0.37586791975E+04  0.37599006975E+04  0.00000000000E+00 0. -1.
<scales pt_clust_3="34.40967" pt_clust_4="94.84048" pt_clust_5="78.67257" pt_clust_6="14000.00000"></scales>
<clustering>
<clus scale="   34.410">  1  3  2 -1</clus>
<clus scale="   78.673">  1  5  2 -1</clus>
<clus scale="   94.840">  1  4  2 -1</clus>
<clus scale="   34.410">  1  3  2 -1</clus>
</clustering>
</event>
<event>
 6    0  0.3082502E+002  0.1882512E+03  0.7546771E-02  0.1160048E+00
          2   -1    0    0  503    0 -0.00000000000E+00  0.00000000000E+00  0.22340752909E+04  0.22340752909E+04  0.00000000000E+00 0. -1.
         21   -1    0    0  504  502  0.00000000000E+00 -0.00000000000E+00 -0.52124849666E+03  0.52124849666E+03  0.00000000000E+00 0. -1.
         21    1    1    2  503  505  0.59490298069E+02 -0.13842343973E+03  0.34352105631E+03  0.37510913126E+03  0.00000000000E+00 0. -1.
         21    1    1    2  504  501  0.95934337817E+01  0.60001823860E+02 -0.28101984132E+02  0.66947549248E+02  0.00000000000E+00 0.  1.
         21    1    1    2  505  502 -0.13694264373E+03  0.87489476652E+02 -0.44285621378E+03  0.47173013713E+03  0.00000000000E+00 0. -1.
          2    1    1    2  501    0  0.67858911878E+02 -0.90678607832E+01  0.18402639358E+04  0.18415369699E+04  0.00000000000E+00 0. -1.
<scales pt_clust_3="188.25117" pt_clust_4="60.76391" pt_clust_5="14000.00000" pt_clust_6="68.46424"></scales>
<clustering>
<clus scale="   60.764">  2  4  1 -1</clus>
<clus scale="   68.464">  1  6  2 -1</clus>
<clus scale="  188.251">  1  3  2 -1</clus>
<clus scale="   60.764">  2  3  1 -1</clus>
</clustering>
</event>
<event>
 6    0  0.3082502E+002  0.8719788E+02  0.7546771E-02  0.1309783E+00
         21   -1    0    0  505  502  0.00000000000E+00  0.00000000000E+00  0.17829978285E+03  0.17829978285E+03  0.00000000000E+00 0.  1.
          2   -1    0    0  503    0 -0.00000000000E+00 -0.00000000000E+00 -0.14072799653E+04  0.14072799653E+04  0.00000000000E+00 0.  1.
         21    1    1    2  503  504  0.69966754713E+02  0.50262107567E+02 -0.21777281541E+03  0.23419356386E+03  0.00000000000E+00 0.  1.
         21    1    1    2  504  502 -0.35448571293E+02 -0.16042085572E+02  0.12898415070E+03  0.13472513072E+03  0.00000000000E+00 0.  1.
         21    1    1    2  505  501  0.10936233058E+01  0.47971578436E+02  0.20743254019E+02  0.52275720338E+02  0.00000000000E+00 0.  1.
          2    1    1    2  501    0 -0.35611806726E+02 -0.82191600431E+02 -0.11609347718E+04  0.11643853332E+04  0.00000000000E+00 0.  1.
<scales pt_clust_3="87.19788" pt_clust_4="38.90951" pt_clust_5="44.35248" pt_clust_6="14000.00000"></scales>
<clustering>
<clus scale="   38.910">  1  4  2 -1</clus>
<clus scale="   44.352">  1  5  2 -1</clus>
<clus scale="   87.198">  1  3  2 -1</clus>
<clus scale="   38.910">  1  3  2 -1</clus>
</clustering>
</event>
<event>
 6    0  0.3082502E+002  0.1080654E+03  0.7546771E-02  0.1264195E+00
          2   -1    0    0  503    0 -0.00000000000E+00  0.00000000000E+00  0.22558153176E+04  0.22558153176E+04  0.00000000000E+00 0. -1.
         21   -1    0    0  501  502  0.00000000000E+00 -0.00000000000E+00 -0.21198254176E+03  0.21198254176E+03  0.00000000000E+00 0. -1.
         21    1    1    2  503  504 -0.15712851049E+02 -0.89822269739E+02  0.62264365100E+03  0.62928534860E+03  0.00000000000E+00 0. -1.
         21    1    1    2  504  505 -0.71925103417E+02 -0.21502918146E+02 -0.94374745809E+01  0.75661495602E+02  0.00000000000E+00 0. -1.
         21    1    1    2  505  502  0.11875251136E+03  0.70356721529E+02 -0.13694349173E+03  0.19443700045E+03  0.00000000000E+00 0. -1.
          2    1    1    2  501    0 -0.31114556897E+02  0.40968466355E+02  0.15675700911E+04  0.15684140147E+04  0.00000000000E+00 0. -1.
<scales pt_clust_3="68.54805" pt_clust_4="14000.00000" pt_clust_5="108.06540" pt_clust_6="51.44444"></scales>
<clustering>
<clus scale="   51.444">  1  6  2 -1</clus>
<clus scale="   68.548">  1  3  2 -1</clus>
<clus scale="  108.065">  2  5  1 -1</clus>
<clus scale="  108.065">  2  3  1 -1</clus>
</clustering>
</event>
<event>
 6    0  0.3082502E+002  0.9393243E+02  0.7546771E-02  0.1293599E+00
          1   -1    0    0  504    0 -0.00000000000E+00  0.00000000000E+00  0.54671054982E+03  0.54671054982E+03  0.00000000000E+00 0.  1.
         21   -1    0    0  503  502  0.00000000000E+00 -0.00000000000E+00 -0.85538239410E+02  0.85538239410E+02  0.00000000000E+00 0.  1.
         21    1    1    2  503  501  0.10499296735E+02 -0.34006908736E+02 -0.42688204399E+02  0.55578663788E+02  0.00000000000E+00 0.  1.
         21    1    1    2  504  505 -0.77324177429E+02 -0.60599855220E+02  0.17202669750E+03  0.19810238646E+03  0.00000000000E+00 0.  1.
         21    1    1    2  505  502 -0.16314977045E+02  0.54310688536E+02  0.32633889053E+02  0.65427823439E+02  0.00000000000E+00 0.  1.
          1    1    1    2  501    0  0.83139857738E+02  0.40296075420E+02  0.29919992826E+03  0.31313991555E+03  0.00000000000E+00 0.  1.
<scales pt_clust_3="35.59080" pt_clust_4="93.93243" pt_clust_5="40.67860" pt_clust_6="14000.00000"></scales>
<clustering>
<clus scale="   35.591">  2  3  1 -1</clus>
<clus scale="   40.679">  2  5  1 -1</clus>
<clus scale="   93.932">  2  4  1 -1</clus>
<clus scale="   35.591">  2  3  1 -1</clus>
</clustering>
</event>
<event>
 6    0  0.3082502E+002  0.9694090E+02  0.7546771E-02  0.1286864E+00
          2   -1    0    0  505    0 -0.00000000000E+00  0.00000000000E+00  0.67511104267E+03  0.67511104267E+03  0.00000000000E+00 0. -1.
         21   -1    0    0  501  502  0.00000000000E+00 -0.00000000000E+00 -0.16303464214E+03  0.16303464214E+03  0.00000000000E+00 0.  1.
         21    1    1    2  503  504 -0.16041255354E+02  0.26542300123E+02  0.48208135907E+02  0.57322246439E+02  0.00000000000E+00 0. -1.
         21    1    1    2  504  502 -0.23389315604E+02 -0.20028224678E+02 -0.11478815773E+03  0.11884658608E+03  0.00000000000E+00 0.  1.
         21    1    1    2  505  503  0.12410321375E+03  0.33198482954E+02  0.73029909781E+02  0.14777386324E+03  0.00000000000E+00 0. -1.
          2    1    1    2  501    0 -0.84672642797E+02 -0.39712558399E+02  0.50562651257E+03  0.51420298905E+03  0.00000000000E+00 0. -1.
<scales pt_clust_3="30.66254" pt_clust_4="30.79269" pt_clust_5="14000.00000" pt_clust_6="96.94090"></scales>
<clustering>
<clus scale="   30.793">  2  4  1 -1</clus>
<clus scale="   30.663">  2  3  1 -1</clus>
<clus scale="   96.941">  1  6  2 -1</clus>
<clus scale="   30.793">  2  3  1 -1</clus>
</clustering>
</event>
<event>
 6    0  0.3082502E+002  0.2915945E+03  0.7546771E-02  0.1089520E+00
         21   -1    0    0  504  502  0.00000000000E+00  0.00000000000E+00  0.45012953653E+03  0.45012953653E+03  0.00000000000E+00 0. -1.
          1   -1    0    0  503    0 -0.00000000000E+00 -0.00000000000E+00 -0.33086865226E+03  0.33086865226E+03  0.00000000000E+00 0.  1.
         21    1    1    2  503  505 -0.88616441083E+02  0.12362860923E+03  0.48199120754E+02  0.15956209416E+03  0.00000000000E+00 0. -1.
         21    1    1    2  504  501 -0.34603344794E+02  0.14529758466E+02  0.16159443856E+03  0.16589535233E+03  0.00000000000E+00 0. -1.
         21    1    1    2  505  502  0.23281498669E+02  0.12004432567E+03  0.64470833642E+02  0.13823587341E+03  0.00000000000E+00 0. -1.
          1    1    1    2  501    0  0.99938287208E+02 -0.25820269337E+03 -0.15500350868E+03  0.31730486888E+03  0.00000000000E+00 0.  1.
<scales pt_clust_3="97.29947" pt_clust_4="37.53006" pt_clust_5="97.29947" pt_clust_6="269.59859"></scales>
<clustering>
<clus scale="   37.530">  1  4  2 -1</clus>
<clus scale="   97.299">  3  5 -1 -1</clus>
<clus scale="  269.599">  2  6  1 -1</clus>
<clus scale="   37.530">  1  3  2 -1</clus>
</clustering>
</event>
<event>
 6    0  0.3082502E+002  0.1162262E+03  0.7546771E-02  0.1249456E+00
         21   -1    0    0  504  502  0.00000000000E+00  0.00000000000E+00  0.15041517880E+03  0.15041517880E+03  0.00000000000E+00 0. -1.
          2   -1    0    0  505    0 -0.00000000000E+00 -0.00000000000E+00 -0.65441419353E+03  0.65441419353E+03  0.00000000000E+00 0. -1.
         21    1    1    2  503  502 -0.14419434778E+03 -0.15057526908E+02  0.61269063553E+02  0.15739325651E+03  0.00000000000E+00 0. -1.
         21    1    1    2  504  501  0.38547964325E+02  0.27638981072E+00  0.80576358527E+01  0.39382070037E+02  0.00000000000E+00 0.  1.
         21    1    1    2  505  503 -0.39433517868E+02 -0.19111568233E+02 -0.22461360444E+03  0.22884825905E+03  0.00000000000E+00 0. -1.
          2    1    1    2  501    0  0.14507990132E+03  0.33892705331E+02 -0.34871210969E+03  0.37920578673E+03  0.00000000000E+00 0. -1.
<scales pt_clust_3="116.22625" pt_clust_4="38.54896" pt_clust_5="43.23986" pt_clust_6="14000.00000"></scales>
<clustering>
<clus scale="   38.549">  1  4  2 -1</clus>
<clus scale="   43.240">  2  5  1 -1</clus>
<clus scale="  116.226">  1  3  2 -1</clus>
<clus scale="   38.549">  1  3  2 -1</clus>
</clustering>
</event>
<event>
 6    0  0.3082502E+002  0.8908140E+02  0.7546771E-02  0.1305092E+00
         21   -1    0    0  504  502  0.00000000000E+00  0.00000000000E+00  0.25009542911E+03  0.25009542911E+03  0.00000000000E+00 0. -1.
          4   -1    0    0  505    0 -0.00000000000E+00 -0.00000000000E+00 -0.29143568960E+03  0.29143568960E+03  0.00000000000E+00 0. -1.
         21    1    1    2  503  502 -0.81852149227E+02  0.75549247557E+02  0.48535336407E+02  0.12150367081E+03  0.00000000000E+00 0. -1.
         21    1    1    2  504  501  0.60772533159E+02 -0.55491549490E+02  0.14145982746E+03  0.16365663945E+03  0.00000000000E+00 0. -1.
         21    1    1    2  505  503 -0.36700241025E+01  0.42789885132E+02 -0.91246329281E+02  0.10084808354E+03  0.00000000000E+00 0. -1.
          4    1    1    2  501    0  0.24749640171E+02 -0.62847583200E+02 -0.14008909507E+03  0.15552272490E+03  0.00000000000E+00 0. -1.
<scales pt_clust_3="89.08140" pt_clust_4="14000.00000" pt_clust_5="42.94698" pt_clust_6="37.57329"></scales>
<clustering>
<clus scale="   42.947">  2  5  1 -1</clus>
<clus scale="   37.573">  2  6  1 -1</clus>
<clus scale="   89.081">  2  3  1 -1</clus>
<clus scale="   89.081">  1  3  2 -1</clus>
</clustering>
</event>
<event>
 6    0  0.3082502E+002  0.1020806E+03  0.7546771E-02  0.1275981E+00
         21   -1    0    0  504  502  0.00000000000E+00  0.00000000000E+00  0.19211651233E+02  0.19211651233E+02  0.00000000000E+00 0. -1.
          1   -1    0    0  503    0 -0.00000000000E+00 -0.00000000000E+00 -0.32165507980E+04  0.32165507980E+04  0.00000000000E+00 0. -1.
         21    1    1    2  503  505 -0.53151252392E+02  0.17120633341E+02 -0.83230004961E+03  0.83417117206E+03  0.00000000000E+00 0. -1.
         21    1    1    2  504  501 -0.11508044444E+03  0.35644824461E+02 -0.26987793562E+03  0.29554722522E+03  0.00000000000E+00 0. -1.
         21    1    1    2  505  502  0.89669232828E+02 -0.54602775869E+02 -0.16944925646E+04  0.16977417607E+04  0.00000000000E+00 0. -1.
          1    1    1    2  501    0  0.78562464007E+02  0.18373180672E+01 -0.40066859695E+03  0.40830229129E+03  0.00000000000E+00 0. -1.
<scales pt_clust_3="55.84059" pt_clust_4="102.08055" pt_clust_5="66.98572" pt_clust_6="14000.00000"></scales>
<clustering>
<clus scale="   55.841">  2  3  1 -1</clus>
<clus scale="   66.986">  2  5  1 -1</clus>
<clus scale="  102.081">  1  4  2 -1</clus>
<clus scale="  102.081">  1  3  2 -1</clus>
</clustering>
</event>
<event>
 6    0  0.3082502E+002  0.2339423E+03  0.7546771E-02  0.1123895E+00
         21   -1    0    0  504  502  0.00000000000E+00  0.00000000000E+00  0.69288046705E+03  0.69288046705E+03  0.00000000000E+00 0.  1.
         -1   -1    0    0    0  501 -0.00000000000E+00 -0.00000000000E+00 -0.10998256076E+03  0.10998256076E+03  0.00000000000E+00 0. -1.
         21    1    1    2  503  501  0.34010279543E+02 -0.80013902997E+01  0.23445282222E+02  0.42076152626E+02  0.00000000000E+00 0. -1.
         21    1    1    2  504  505 -0.65390106110E+02  0.16892936510E+03  0.44961922652E+03  0.48473750136E+03  0.00000000000E+00 0.  1.
         21    1    1    2  505  503 -0.24412512202E+02  0.36940462003E+02  0.37776362675E+02  0.58203282227E+02  0.00000000000E+00 0.  1.
         -1    1    1    2    0  502  0.55792338769E+02 -0.19786843680E+03  0.72057034872E+02  0.21784609159E+03  0.00000000000E+00 0. -1.
<scales pt_clust_3="34.93882" pt_clust_4="39.92266" pt_clust_5="39.92266" pt_clust_6="218.96502"></scales>
<clustering>
<clus scale="   34.939">  2  3  1 -1</clus>
<clus scale="   39.923">  4  5 -1 -1</clus>
<clus scale="  218.965">  2  6  1 -1</clus>
<clus scale="  233.942">  1  3  2 -1</clus>
</clustering>
</event>
<event>
 6    0  0.3082502E+002  0.8465644E+02  0.7546771E-02  0.1316333E+00
         21   -1    0    0  503  502  0.00000000000E+00  0.00000000000E+00  0.16230272648E+03  0.16230272648E+03  0.00000000000E+00 0.  1.
          2   -1    0    0  504    0 -0.00000000000E+00 -0.00000000000E+00 -0.31120255033E+04  0.31120255033E+04  0.00000000000E+00 0.  1.
         21    1    1    2  503  501 -0.17446470292E+02  0.46042821306E+02 -0.85344422013E+02  0.98529138270E+02  0.00000000000E+00 0.  1.
         21    1    1    2  504  505 -0.31238327132E+02 -0.11347113176E+02 -0.78769452763E+03  0.78839536967E+03  0.00000000000E+00 0. -1.
         21    1    1    2  505  502 -0.46943260064E+02 -0.98476521306E+02  0.13453015601E+03  0.17320409288E+03  0.00000000000E+00 0.  1.
          2    1    1    2  501    0  0.95628057488E+02  0.63780813175E+02 -0.22112139832E+04  0.22141996290E+04  0.00000000000E+00 0.  1.
<scales pt_clust_3="49.27305" pt_clust_4="33.23537" pt_clust_5="84.65644" pt_clust_6="14000.00000"></scales>
<clustering>
<clus scale="   33.235">  2  4  1 -1</clus>
<clus scale="   49.273">  1  3  2 -1</clus>
<clus scale="   84.656">  1  5  2 -1</clus>
<clus scale="   49.273">  1  3  2 -1</clus>
</clustering>
</event>
<event>
 6    0  0.3082502E+002  0.9328873E+02  0.7546771E-02  0.1295077E+00
         21   -1    0    0  503  502  0.00000000000E+00  0.00000000000E+00  0.15845638910E+03  0.15845638910E+03  0.00000000000E+00 0. -1.
         -2   -1    0    0    0  501 -0.00000000000E+00 -0.00000000000E+00 -0.17704641057E+04  0.17704641057E+04  0.00000000000E+00 0.  1.
         21    1    1    2  503  505  0.35471746880E+02 -0.90303074811E+01  0.97608371554E+02  0.10424579357E+03  0.00000000000E+00 0. -1.
         21    1    1    2  504  501  0.23683964086E+02 -0.27818806223E+02 -0.26899012495E+03  0.27145994816E+03  0.00000000000E+00 0.  1.
         21    1    1    2  505  504 -0.85676387581E+02  0.88082618907E+02 -0.12042221973E+02  0.12346661999E+03  0.00000000000E+00 0. -1.
         -2    1    1    2    0  502  0.26520676615E+02 -0.51233505202E+02 -0.14285837412E+04  0.14297481330E+04  0.00000000000E+00 0.  1.
<scales pt_clust_3="36.66914" pt_clust_4="36.53514" pt_clust_5="93.28873" pt_clust_6="14000.00000"></scales>
<clustering>
<clus scale="   36.535">  2  4  1 -1</clus>
<clus scale="   36.669">  1  3  2 -1</clus>
<clus scale="   93.289">  1  5  2 -1</clus>
<clus scale="   36.669">  1  3  2 -1</clus>
</clustering>
</event>
<event>
 6    0  0.3082502E+002  0.1380097E+03  0.7546771E-02  0.1216032E+00
          2   -1    0    0  505    0 -0.00000000000E+00  0.00000000000E+00  0.44497484585E+03  0.44497484585E+03  0.00000000000E+00 0.  1.
         21   -1    0    0  501  502  0.00000000000E+00 -0.00000000000E+00 -0.67338523649E+02  0.67338523649E+02  0.00000000000E+00 0. -1.
         21    1    1    2  503  502  0.57314577458E+02 -0.55112907247E+02  0.13430501827E+02  0.80639765090E+02  0.00000000000E+00 0. -1.
         21    1    1    2  504  503  0.32079245961E+02 -0.21020876391E+02  0.54706983256E+02  0.66811745095E+02  0.00000000000E+00 0.  1.
         21    1    1    2  505  504  0.35925926388E+02  0.86469154836E+01  0.13344887348E+03  0.13847036927E+03  0.00000000000E+00 0. -1.
          2    1    1    2  501    0 -0.12531974981E+03  0.67486868154E+02  0.17604996364E+03  0.22639149004E+03  0.00000000000E+00 0.  1.
<scales pt_clust_3="41.81422" pt_clust_4="41.81422" pt_clust_5="36.95188" pt_clust_6="125.43947"></scales>
<clustering>
<clus scale="   36.952">  1  5  2 -1</clus>
<clus scale="   41.814">  3  4 -1 -1</clus>
<clus scale="  125.439">  1  6  2 -1</clus>
<clus scale="  138.010">  2  3  1 -1</clus>
</clustering>
</event>
<event>
 6    0  0.3082502E+002  0.1302432E+03  0.7546771E-02  0.1227095E+00
         21   -1    0    0  504  502  0.00000000000E+00  0.00000000000E+00  0.16665974409E+03  0.16665974409E+03  0.00000000000E+00 0.  1.
          2   -1    0    0  505    0 -0.00000000000E+00 -0.00000000000E+00 -0.13921666713E+04  0.13921666713E+04  0.00000000000E+00 0. -1.
         21    1    1    2  503  502  0.27304109296E+02 -0.17902676174E+02 -0.58427177011E+01  0.33168622955E+02  0.00000000000E+00 0. -1.
         21    1    1    2  504  501 -0.11858457866E+03  0.10670899066E+03  0.10115105671E+03  0.18889321655E+03  0.00000000000E+00 0.  1.
         21    1    1    2  505  503 -0.29546458366E+02  0.16414791010E+02 -0.10178537610E+03  0.10725064733E+03  0.00000000000E+00 0. -1.
          2    1    1    2  501    0  0.12082692773E+03 -0.10522110550E+03 -0.12190298901E+04  0.12295139285E+04  0.00000000000E+00 0. -1.
<scales pt_clust_3="32.64996" pt_clust_4="130.24325" pt_clust_5="33.21842" pt_clust_6="14000.00000"></scales>
<clustering>
<clus scale="   32.650">  1  3  2 -1</clus>
<clus scale="   33.218">  2  5  1 -1</clus>
<clus scale="  130.243">  1  4  2 -1</clus>
<clus scale="   32.650">  1  3  2 -1</clus>
</clustering>
</event>
<event>
 6    0  0.3082502E+002  0.9793437E+02  0.7546771E-02  0.1284701E+00
          2   -1    0    0  503    0 -0.00000000000E+00  0.00000000000E+00  0.88397011551E+03  0.88397011551E+03  0.00000000000E+00 0. -1.
         21   -1    0    0  505  502  0.00000000000E+00 -0.00000000000E+00 -0.36732763468E+03  0.36732763468E+03  0.00000000000E+00 0.  1.
         21    1    1    2  503  504  0.18319322704E+02  0.45853132600E+02  0.12582661536E+03  0.13516820812E+03  0.00000000000E+00 0. -1.
         21    1    1    2  504  502  0.35080685617E+02  0.23027543490E+02  0.52146067215E+02  0.66933807516E+02  0.00000000000E+00 0. -1.
         21    1    1    2  505  501  0.91691370018E+02 -0.33645673591E+02 -0.34028153437E+03  0.35402098994E+03  0.00000000000E+00 0.  1.
          2    1    1    2  501    0 -0.14509137834E+03 -0.35235002500E+02  0.67895133263E+03  0.69517474462E+03  0.00000000000E+00 0. -1.
<scales pt_clust_3="95.76507" pt_clust_4="36.58391" pt_clust_5="97.93437" pt_clust_6="14000.00000"></scales>
<clustering>
<clus scale="   36.584">  3  4 -1 -1</clus>
<clus scale="   95.765">  1  3  2 -1</clus>
<clus scale="   97.934">  2  5  1 -1</clus>
<clus scale="   97.934">  2  3  1 -1</clus>
</clustering>
</event>
<event>
 6    0  0.3082502E+002  0.1259959E+03  0.7546771E-02  0.1233521E+00
          2   -1    0    0  505    0 -0.00000000000E+00  0.00000000000E+00  0.22640232978E+04  0.22640232978E+04  0.00000000000E+00 0.  1.
         21   -1    0    0  503  502  0.00000000000E+00 -0.00000000000E+00 -0.44437636212E+03  0.44437636212E+03  0.00000000000E+00 0.  1.
         21    1    1    2  503  501  0.25772395526E+02 -0.36423774898E+02 -0.24931641104E+03  0.25327767483E+03  0.00000000000E+00 0.  1.
         21    1    1    2  504  502  0.74742358141E+02  0.11584479383E+03 -0.16065880049E+03  0.21170188127E+03  0.00000000000E+00 0.  1.
         21    1    1    2  505  504 -0.33399714110E+02 -0.92003497183E+01  0.18863818971E+04  0.18866999892E+04  0.00000000000E+00 0.  1.
          2    1    1    2  501    0 -0.67115039557E+02 -0.70220669213E+02  0.34324025010E+03  0.35672011467E+03  0.00000000000E+00 0.  1.
<scales pt_clust_3="44.55810" pt_clust_4="14000.00000" pt_clust_5="34.64372" pt_clust_6="125.99595"></scales>
<clustering>
<clus scale="   34.644">  1  5  2 -1</clus>
<clus scale="   44.558">  2  3  1 -1</clus>
<clus scale="  125.996">  1  6  2 -1</clus>
<clus scale="   44.558">  2  3  1 -1</clus>
</clustering>
</event>
<event>
 6    0  0.3082502E+002  0.7896836E+02  0.7546771E-02  0.1332005E+00
         21   -1    0    0  501  502  0.00000000000E+00  0.00000000000E+00  0.46371738354E+03  0.46371738354E+03  0.00000000000E+00 0.  1.
          2   -1    0    0  505    0 -0.00000000000E+00 -0.00000000000E+00 -0.12368462099E+04  0.12368462099E+04  0.00000000000E+00 0. -1.
         21    1    1    2  503  504 -0.95653399041E+02  0.93706930556E+02  0.10866956819E+03  0.17245183859E+03  0.00000000000E+00 0.  1.
         21    1    1    2  504  502  0.51539753659E+02 -0.34116924640E+02  0.30941885107E+03  0.31553183064E+03  0.00000000000E+00 0.  1.
         21    1    1    2  505  503 -0.26137080183E+02  0.37096936283E+02 -0.60829452589E+02  0.75891711961E+02  0.00000000000E+00 0.  1.
          2    1    1    2  501    0  0.70250725565E+02 -0.96686942199E+02 -0.11303877930E+04  0.11366882123E+04  0.00000000000E+00 0. -1.
<scales pt_clust_3="14000.00000" pt_clust_4="61.69811" pt_clust_5="45.37984" pt_clust_6="78.96836"></scales>
<clustering>
<clus scale="   45.380">  2  5  1 -1</clus>
<clus scale="   61.698">  1  4  2 -1</clus>
<clus scale="   78.968">  2  6  1 -1</clus>
<clus scale="   61.698">  1  3  2 -1</clus>
</clustering>
</event>
<event>
 6    0  0.3082502E+002  0.1055026E+03  0.7546771E-02  0.1269133E+00
          1   -1    0    0  503    0 -0.00000000000E+00  0.00000000000E+00  0.97002816273E+03  0.97002816273E+03  0.00000000000E+00 0. -1.
         21   -1    0    0  504  502  0.00000000000E+00 -0.00000000000E+00 -0.11857875108E+03  0.11857875108E+03  0.00000000000E+00 0.  1.
         21    1    1    2  503  505 -0.18302542353E+02 -0.28998506919E+02  0.53642119502E+02  0.63666109075E+02  0.00000000000E+00 0. -1.
         21    1    1    2  504  501 -0.43083159480E+02  0.75016230195E+01 -0.32815276009E+02  0.54674265594E+02  0.00000000000E+00 0.  1.
         21    1    1    2  505  502  0.20833074679E+02  0.98731774994E+02 -0.29971255352E+02  0.10526279752E+03  0.00000000000E+00 0.  1.
          1    1    1    2  501    0  0.40552627154E+02 -0.77234891095E+02  0.86059382351E+03  0.86500374163E+03  0.00000000000E+00 0. -1.
<scales pt_clust_3="34.29135" pt_clust_4="43.88960" pt_clust_5="14000.00000" pt_clust_6="105.50259"></scales>
<clustering>
<clus scale="   34.291">  1  3  2 -1</clus>
<clus scale="   43.890">  2  4  1 -1</clus>
<clus scale="  105.503">  1  6  2 -1</clus>
<clus scale="   43.890">  2  3  1 -1</clus>
</clustering>
</event>
<event>
 6    0  0.3082502E+002  0.7527854E+02  0.7546771E-02  0.1343011E+00
         21   -1    0    0  505  502  0.00000000000E+00  0.00000000000E+00  0.66378371005E+02  0.66378371005E+02  0.00000000000E+00 0.  1.
          2   -1    0    0  503    0 -0.00000000000E+00 -0.00000000000E+00 -0.61660149950E+03  0.61660149950E+03  0.00000000000E+00 0.  1.
         21    1    1    2  503  504 -0.12841128108E+02 -0.43143977959E+02 -0.28835875552E+03  0.29185110809E+03  0.00000000000E+00 0. -1.
         21    1    1    2  504  502 -0.66312443955E+01 -0.56578391447E+02 -0.82670179672E+02  0.10039644609E+03  0.00000000000E+00 0.  1.
         21    1    1    2  505  501 -0.39776535486E+02  0.39819124501E+01  0.32129218074E+02  0.51286597236E+02  0.00000000000E+00 0.  1.
          2    1    1    2  501    0  0.59248907989E+02  0.95740456956E+02 -0.21132341137E+03  0.23944571909E+03  0.00000000000E+00 0.  1.
<scales pt_clust_3="45.63211" pt_clust_4="14000.00000" pt_clust_5="39.97535" pt_clust_6="75.27854"></scales>
<clustering>
<clus scale="   39.975">  1  5  2 -1</clus>
<clus scale="   45.632">  2  3  1 -1</clus>
<clus scale="   75.279">  2  6  1 -1</clus>
<clus scale="   39.975">  1  3  2 -1</clus>
</clustering>
</event>
<event>
 6    0  0.3082502E+002  0.6832357E+02  0.7546771E-02  0.1365888E+00
          2   -1    0    0  505    0 -0.00000000000E+00  0.00000000000E+00  0.11577848942E+04  0.11577848942E+04  0.00000000000E+00 0. -1.
         21   -1    0    0  503  502  0.00000000000E+00 -0.00000000000E+00 -0.12628865695E+03  0.12628865695E+03  0.00000000000E+00 0.  1.
         21    1    1    2  503  504 -0.29654976490E+02 -0.15385098183E+02 -0.82021418580E+02  0.88564281641E+02  0.00000000000E+00 0.  1.
         21    1    1    2  504  501  0.27846531556E+02  0.81587635848E+02  0.13113514888E+02  0.87200549973E+02  0.00000000000E+00 0.  1.
         21    1    1    2  505  502 -0.40066620866E+02  0.13261216113E+02  0.33137702726E+03  0.33405378033E+03  0.00000000000E+00 0.  1.
          2    1    1    2  501    0  0.41875065801E+02 -0.79463753778E+02  0.76902711366E+03  0.77425493918E+03  0.00000000000E+00 0. -1.
<scales pt_clust_3="33.40837" pt_clust_4="68.32357" pt_clust_5="42.97257" pt_clust_6="14000.00000"></scales>
<clustering>
<clus scale="   33.408">  2  3  1 -1</clus>
<clus scale="   42.973">  1  5  2 -1</clus>
<clus scale="   68.324">  2  4  1 -1</clus>
<clus scale="   33.408">  2  3  1 -1</clus>
</clustering>
</event>
<event>
 6    0  0.3082502E+002  0.1119763E+03  0.7546771E-02  0.1256953E+00
          2   -1    0    0  505    0 -0.00000000000E+00  0.00000000000E+00  0.22590281699E+04  0.22590281699E+04  0.00000000000E+00 0.  1.
         21   -1    0    0  501  502  0.00000000000E+00 -0.00000000000E+00 -0.37393138372E+02  0.37393138372E+02  0.00000000000E+00 0.  1.
         21    1    1    2  503  504  0.95084254605E+02 -0.36158972842E+02  0.16210952077E+03  0.19138438681E+03  0.00000000000E+00 0.  1.
         21    1    1    2  504  502  0.43873000029E+01  0.89776330734E+02  0.11579885144E+03  0.14658926276E+03  0.00000000000E+00 0.  1.
         21    1    1    2  505  503  0.62581458942E+02 -0.94993997592E+01  0.33090019495E+03  0.33690000982E+03  0.00000000000E+00 0.  1.
          2    1    1    2  501    0 -0.16205301355E+03 -0.44117958133E+02  0.16128264643E+04  0.16215476489E+04  0.00000000000E+00 0.  1.
<scales pt_clust_3="111.97634" pt_clust_4="89.54793" pt_clust_5="63.29832" pt_clust_6="14000.00000"></scales>
<clustering>
<clus scale="   63.298">  1  5  2 -1</clus>
<clus scale="   89.548">  2  4  1 -1</clus>
<clus scale="  111.976">  2  3  1 -1</clus>
<clus scale="   89.548">  2  3  1 -1</clus>
</clustering>
</event>
<event>
 6    0  0.3082502E+002  0.7795120E+02  0.7546771E-02  0.1334968E+00
         21   -1    0    0  501  502  0.00000000000E+00  0.00000000000E+00  0.83375793119E+03  0.83375793119E+03  0.00000000000E+00 0. -1.
          2   -1    0    0  503    0 -0.00000000000E+00 -0.00000000000E+00 -0.11925963356E+04  0.11925963356E+04  0.00000000000E+00 0.  1.
         21    1    1    2  503  505  0.39276461587E+02 -0.16700675194E+02 -0.42743773170E+03  0.42956322871E+03  0.00000000000E+00 0.  1.
         21    1    1    2  504  502  0.82097276797E+01  0.39630174091E+02  0.80368266539E+03  0.80470104820E+03  0.00000000000E+00 0. -1.
         21    1    1    2  505  504  0.49641245921E+02 -0.80352853314E+02 -0.70150268383E+02  0.11765158089E+03  0.00000000000E+00 0.  1.
          2    1    1    2  501    0 -0.97127435188E+02  0.57423354418E+02 -0.66493306972E+03  0.67443840898E+03  0.00000000000E+00 0.  1.
<scales pt_clust_3="42.41780" pt_clust_4="40.47160" pt_clust_5="14000.00000" pt_clust_6="77.95120"></scales>
<clustering>
<clus scale="   40.472">  1  4  2 -1</clus>
<clus scale="   42.418">  2  3  1 -1</clus>
<clus scale="   77.951">  2  6  1 -1</clus>
<clus scale="   40.472">  1  3  2 -1</clus>
</clustering>
</event>
<event>
 6    0  0.3082502E+002  0.3046016E+03  0.7546771E-02  0.1082963E+00
         21   -1    0    0  505  502  0.00000000000E+00  0.00000000000E+00  0.42544884894E+03  0.42544884894E+03  0.00000000000E+00 0. -1.
          1   -1    0    0  503    0 -0.00000000000E+00 -0.00000000000E+00 -0.36142222086E+04  0.36142222086E+04  0.00000000000E+00 0.  1.
         21    1    1    2  503  504 -0.61678433051E+02 -0.48972422915E+02 -0.10294542725E+03  0.12961592611E+03  0.00000000000E+00 0.  1.
         21    1    1    2  504  502  0.70079503697E+02  0.37496523802E+03 -0.21011809883E+03  0.43549934790E+03  0.00000000000E+00 0. -1.
         21    1    1    2  505  501 -0.62556277640E+02 -0.77659856778E+02  0.28587604776E+03  0.30276964166E+03  0.00000000000E+00 0. -1.
          1    1    1    2  501    0  0.54155206994E+02 -0.24833295833E+03 -0.31615858814E+04  0.31717861419E+04  0.00000000000E+00 0.  1.
<scales pt_clust_3="78.75613" pt_clust_4="14000.00000" pt_clust_5="99.90685" pt_clust_6="304.60164"></scales>
<clustering>
<clus scale="   78.756">  2  3  1 -1</clus>
<clus scale="   99.907">  1  5  2 -1</clus>
<clus scale="  304.602">  2  6  1 -1</clus>
<clus scale="   99.907">  1  3  2 -1</clus>
</clustering>
</event>
<event>
 6    0  0.3082502E+002  0.8491169E+02  0.7546771E-02  0.1315664E+00
         -4   -1    0    0    0  501 -0.00000000000E+00  0.00000000000E+00  0.97247744610E+02  0.97247744610E+02  0.00000000000E+00 0.  1.
         21   -1    0    0  504  502  0.00000000000E+00 -0.00000000000E+00 -0.51488783639E+03  0.51488783639E+03  0.00000000000E+00 0. -1.
         21    1    1    2  503  502 -0.20489962447E+02 -0.65922355145E+02 -0.32854100643E+03  0.33571533831E+03  0.00000000000E+00 0. -1.
         21    1    1    2  504  501 -0.33837346828E+01  0.30320554483E+02 -0.22204578264E+01  0.30589477235E+02  0.00000000000E+00 0. -1.
         21    1    1    2  505  503 -0.68096686077E+02  0.52843259203E+02 -0.11896576106E+03  0.14690956743E+03  0.00000000000E+00 0. -1.
         -4    1    1    2    0  505  0.91970383207E+02 -0.17241458541E+02  0.32087133540E+02  0.98921198025E+02  0.00000000000E+00 0.  1.
<scales pt_clust_3="67.82831" pt_clust_4="30.50878" pt_clust_5="14000.00000" pt_clust_6="84.91169"></scales>
<clustering>
<clus scale="   30.509">  1  4  2 -1</clus>
<clus scale="   67.828">  2  3  1 -1</clus>
<clus scale="   84.912">  1  6  2 -1</clus>
<clus scale="   67.828">  2  3  1 -1</clus>
</clustering>
</event>
<event>
 6    0  0.3082502E+002  0.3745740E+03  0.7546771E-02  0.1052958E+00
         -2   -1    0    0    0  501 -0.00000000000E+00  0.00000000000E+00  0.35170621683E+03  0.35170621683E+03  0.00000000000E+00 0. -1.
         21   -1    0    0  504  502  0.00000000000E+00 -0.00000000000E+00 -0.61630534326E+03  0.61630534326E+03  0.00000000000E+00 0. -1.
         21    1    1    2  503  502  0.35824915017E+02  0.26913195680E+02 -0.50628665067E+02  0.67609218041E+02  0.00000000000E+00 0. -1.
         21    1    1    2  504  501 -0.21691567061E+03 -0.30724306382E+03 -0.14469828998E+03  0.40297432120E+03  0.00000000000E+00 0. -1.
         21    1    1    2  505  503 -0.54754499634E+02 -0.98849235270E+01 -0.10797600725E+03  0.12146845305E+03  0.00000000000E+00 0.  1.
         -2    1    1    2    0  505  0.23584525523E+03  0.29021479166E+03  0.38703835872E+02  0.37595956781E+03  0.00000000000E+00 0. -1.
<scales pt_clust_3="44.80786" pt_clust_4="374.57397" pt_clust_5="47.57700" pt_clust_6="14000.00000"></scales>
<clustering>
<clus scale="   44.808">  2  3  1 -1</clus>
<clus scale="   47.577">  2  5  1 -1</clus>
<clus scale="  374.574">  2  4  1 -1</clus>
<clus scale="   44.808">  2  3  1 -1</clus>
</clustering>
</event>
<event>
 6    0  0.3082502E+002  0.1151220E+03  0.7546771E-02  0.1251368E+00
         21   -1    0    0  503  502  0.00000000000E+00  0.00000000000E+00  0.37502525948E+02  0.37502525948E+02  0.00000000000E+00 0. -1.
          2   -1    0    0  505    0 -0.00000000000E+00 -0.00000000000E+00 -0.23574290067E+04  0.23574290067E+04  0.00000000000E+00 0. -1.
         21    1    1    2  503  501  0.68433409419E+02  0.43375076421E+02 -0.27415010038E+03  0.28587201037E+03  0.00000000000E+00 0. -1.
         21    1    1    2  504  502  0.12941830295E+02  0.45879421357E+02 -0.12347212891E+02  0.49242927834E+02  0.00000000000E+00 0. -1.
         21    1    1    2  505  504 -0.17546095966E+03 -0.34151834663E+02 -0.71954925073E+03  0.74142027245E+03  0.00000000000E+00 0. -1.
          2    1    1    2  501    0  0.94085719945E+02 -0.55102663116E+02 -0.13138799167E+04  0.13183963219E+04  0.00000000000E+00 0. -1.
<scales pt_clust_3="92.45841" pt_clust_4="47.66983" pt_clust_5="14000.00000" pt_clust_6="115.12201"></scales>
<clustering>
<clus scale="   47.670">  1  4  2 -1</clus>
<clus scale="   92.458">  1  3  2 -1</clus>
<clus scale="  115.122">  2  6  1 -1</clus>
<clus scale="   47.670">  1  3  2 -1</clus>
</clustering>
</event>
<event>
 6    0  0.3082502E+002  0.1592817E+03  0.7546771E-02  0.1189510E+00
          1   -1    0    0  504    0 -0.00000000000E+00  0.00000000000E+00  0.85449691035E+03  0.85449691035E+03  0.00000000000E+00 0. -1.
         21   -1    0    0  505  502  0.00000000000E+00 -0.00000000000E+00 -0.42044440057E+02  0.42044440057E+02  0.00000000000E+00 0. -1.
         21    1    1    2  503  501  0.26467542106E+02  0.81882076561E+02  0.18994595398E+03  0.20852978368E+03  0.00000000000E+00 0. -1.
         21    1    1    2  504  502  0.39441930670E+02 -0.39909691266E+02  0.95350674635E+02  0.11063543964E+03  0.00000000000E+00 0. -1.
         21    1    1    2  505  503 -0.45331365026E+01  0.89926092856E+02  0.20079972717E+03  0.22006313170E+03  0.00000000000E+00 0. -1.
          1    1    1    2  501    0 -0.61376336274E+02 -0.13189847815E+03  0.32635611450E+03  0.35731299538E+03  0.00000000000E+00 0. -1.
<scales pt_clust_3="31.07717" pt_clust_4="56.11104" pt_clust_5="31.07717" pt_clust_6="156.07726"></scales>
<clustering>
<clus scale="   31.077">  3  5 -1 -1</clus>
<clus scale="   56.111">  2  4  1 -1</clus>
<clus scale="  156.077">  1  6  2 -1</clus>
<clus scale="   56.111">  2  3  1 -1</clus>
</clustering>
</event>
<event>
 6    0  0.3082502E+002  0.1698190E+03  0.7546771E-02  0.1178037E+00
         21   -1    0    0  503  502  0.00000000000E+00  0.00000000000E+00  0.31057733121E+03  0.31057733121E+03  0.00000000000E+00 0. -1.
         -1   -1    0    0    0  501 -0.00000000000E+00 -0.00000000000E+00 -0.63708806008E+03  0.63708806008E+03  0.00000000000E+00 0.  1.
         21    1    1    2  503  505  0.42879372673E+02 -0.12602369247E+02  0.19066380196E+03  0.19583193225E+03  0.00000000000E+00 0. -1.
         21    1    1    2  504  501 -0.11614041906E+03  0.78600065767E+02 -0.73630642735E+02  0.15839204156E+03  0.00000000000E+00 0.  1.
         21    1    1    2  505  504 -0.64896071675E+02  0.52346971344E+02  0.28057057689E+02  0.87971040769E+02  0.00000000000E+00 0. -1.
         -1    1    1    2    0  502  0.13815711806E+03 -0.11834466786E+03 -0.47160094578E+03  0.50547037672E+03  0.00000000000E+00 0.  1.
<scales pt_clust_3="44.69296" pt_clust_4="169.81901" pt_clust_5="63.52824" pt_clust_6="14000.00000"></scales>
<clustering>
<clus scale="   44.693">  1  3  2 -1</clus>
<clus scale="   63.528">  1  5  2 -1</clus>
<clus scale="  169.819">  1  4  2 -1</clus>
<clus scale="   44.693">  1  3  2 -1</clus>
</clustering>
</event>
<event>
 6    0  0.3082502E+002  0.8082484E+02  0.7546771E-02  0.1326727E+00
          1   -1    0    0  503    0 -0.00000000000E+00  0.00000000000E+00  0.10925262072E+04  0.10925262072E+04  0.00000000000E+00 0. -1.
         21   -1    0    0  505  502  0.00000000000E+00 -0.00000000000E+00 -0.19402813610E+03  0.19402813610E+03  0.00000000000E+00 0. -1.
         21    1    1    2  503  504 -0.31908340455E+02 -0.75362434869E+01  0.80201297712E+02  0.86644014861E+02  0.00000000000E+00 0.  1.
         21    1    1    2  504  502 -0.51735369041E+02  0.28382572462E+02 -0.16918042578E+03  0.17917626879E+03  0.00000000000E+00 0. -1.
         21    1    1    2  505  501 -0.25381779024E+02 -0.49179895114E+02  0.44398472236E+02  0.70951540693E+02  0.00000000000E+00 0.  1.
          1    1    1    2  501    0  0.10902548852E+03  0.28333566139E+02  0.94307872689E+03  0.94978251891E+03  0.00000000000E+00 0. -1.
<scales pt_clust_3="32.78623" pt_clust_4="80.82484" pt_clust_5="56.58050" pt_clust_6="14000.00000"></scales>
<clustering>
<clus scale="   32.786">  1  3  2 -1</clus>
<clus scale="   56.581">  2  5  1 -1</clus>
<clus scale="   80.825">  2  4  1 -1</clus>
<clus scale="   56.581">  2  3  1 -1</clus>
</clustering>
</event>
<event>
 6    0  0.3082502E+002  0.1302539E+03  0.7546771E-02  0.1227079E+00
         21   -1    0    0  503  502  0.00000000000E+00  0.00000000000E+00  0.55514407019E+03  0.55514407019E+03  0.00000000000E+00 0. -1.
          2   -1    0    0  505    0 -0.00000000000E+00 -0.00000000000E+00 -0.53172723519E+03  0.53172723519E+03  0.00000000000E+00 0.  1.
         21    1    1    2  503  501 -0.46787539797E+02  0.51438104373E+02  0.37577314303E+03  0.38215233544E+03  0.00000000000E+00 0. -1.
         21    1    1    2  504  502  0.51621441000E+02  0.83795023105E+02  0.14756436603E+03  0.17737424049E+03  0.00000000000E+00 0. -1.
         21    1    1    2  505  504 -0.24393352497E+02 -0.17632485084E+02 -0.29843821314E+02  0.42386245964E+02  0.00000000000E+00 0.  1.
          2    1    1    2  501    0  0.19559451294E+02 -0.11760064239E+03 -0.47007685274E+03  0.48495848349E+03  0.00000000000E+00 0.  1.
<scales pt_clust_3="69.55578" pt_clust_4="130.25389" pt_clust_5="30.09884" pt_clust_6="14000.00000"></scales>
<clustering>
<clus scale="   30.099">  2  5  1 -1</clus>
<clus scale="   69.556">  1  3  2 -1</clus>
<clus scale="  130.254">  1  4  2 -1</clus>
<clus scale="   69.556">  1  3  2 -1</clus>
</clustering>
</event>
<event>
 6    0  0.3082502E+002  0.1482922E+03  0.7546771E-02  0.1202587E+00
         21   -1    0    0  504  502  0.00000000000E+00  0.00000000000E+00  0.61408324006E+02  0.61408324006E+02  0.00000000000E+00 0. -1.
          1   -1    0    0  505    0 -0.00000000000E+00 -0.00000000000E+00 -0.12575268445E+04  0.12575268445E+04  0.00000000000E+00 0.  1.
         21    1    1    2  503  501 -0.12927600603E+03  0.32265667685E+01 -0.14898543296E+03  0.19727989179E+03  0.00000000000E+00 0. -1.
         21    1    1    2  504  503 -0.21031599378E+02 -0.89001742985E+02 -0.46420137902E+02  0.10255958088E+03  0.00000000000E+00 0. -1.
         21    1    1    2  505  502  0.12331419460E+02  0.46175548369E+02 -0.30571722242E+03  0.30943054998E+03  0.00000000000E+00 0.  1.
          1    1    1    2  501    0  0.13797618595E+03  0.39599627848E+02 -0.69499572718E+03  0.70966514584E+03  0.00000000000E+00 0.  1.
<scales pt_clust_3="148.29223" pt_clust_4="87.70685" pt_clust_5="47.79378" pt_clust_6="14000.00000"></scales>
<clustering>
<clus scale="   47.794">  2  5  1 -1</clus>
<clus scale="   87.707">  1  4  2 -1</clus>
<clus scale="  148.292">  1  3  2 -1</clus>
<clus scale="   87.707">  1  3  2 -1</clus>
</clustering>
</event>
<event>
 6    0  0.3082502E+002  0.1267810E+03  0.7546771E-02  0.1232312E+00
         21   -1    0    0  504  502  0.00000000000E+00  0.00000000000E+00  0.86287219840E+02  0.86287219840E+02  0.00000000000E+00 0.  1.
          2   -1    0    0  503    0 -0.00000000000E+00 -0.00000000000E+00 -0.17693720011E+04  0.17693720011E+04  0.00000000000E+00 0. -1.
         21    1    1    2  503  502 -0.29075863619E+02  0.44721382553E+02 -0.10970055239E+03  0.12198204416E+03  0.00000000000E+00 0. -1.
         21    1    1    2  504  505  0.54031732103E+01 -0.84420332934E+02  0.34750315002E+02  0.91452563038E+02  0.00000000000E+00 0.  1.
         21    1    1    2  505  501 -0.92685220250E+02 -0.26714220428E+02 -0.15255127106E+03  0.18048847589E+03  0.00000000000E+00 0.  1.
          2    1    1    2  501    0  0.11635791066E+03  0.66413170809E+02 -0.14555832728E+04  0.14617361379E+04  0.00000000000E+00 0. -1.
<scales pt_clust_3="53.34236" pt_clust_4="52.22538" pt_clust_5="126.78102" pt_clust_6="14000.00000"></scales>
<clustering>
<clus scale="   53.342">  1  3  2 -1</clus>
<clus scale="   52.225">  1  4  2 -1</clus>
<clus scale="  126.781">  1  5  2 -1</clus>
<clus scale="   53.342">  1  3  2 -1</clus>
</clustering>
</event>
<event>
 6    0  0.3082502E+002  0.1242829E+03  0.7546771E-02  0.1236194E+00
          2   -1    0    0  503    0 -0.00000000000E+00  0.00000000000E+00  0.12587260566E+04  0.12587260566E+04  0.00000000000E+00 0. -1.
         21   -1    0    0  504  502  0.00000000000E+00 -0.00000000000E+00 -0.31073866978E+03  0.31073866978E+03  0.00000000000E+00 0.  1.
         21    1    1    2  503  505 -0.99844849082E+02 -0.23895881187E+02  0.35258992051E+03  0.36723243195E+03  0.00000000000E+00 0.  1.
         21    1    1    2  504  501 -0.24978421569E+02  0.17311345185E+03 -0.16368800354E+03  0.23955365006E+03  0.00000000000E+00 0.  1.
         21    1    1    2  505  502  0.69517126513E+02 -0.72677022588E+02 -0.73619050901E+02  0.12463685308E+03  0.00000000000E+00 0.  1.
          2    1    1    2  501    0  0.55306144139E+02 -0.76540548079E+02  0.83270452074E+03  0.83804179128E+03  0.00000000000E+00 0. -1.
<scales pt_clust_3="103.46823" pt_clust_4="124.28290" pt_clust_5="14000.00000" pt_clust_6="94.43106"></scales>
<clustering>
<clus scale="   94.431">  1  6  2 -1</clus>
<clus scale="  103.468">  1  3  2 -1</clus>
<clus scale="  124.283">  1  4  2 -1</clus>
<clus scale="  124.283">  2  3  1 -1</clus>
</clustering>
</event>
<event>
 6    0  0.3082502E+002  0.9642705E+02  0.7546771E-02  0.1287994E+00
         21   -1    0    0  505  502  0.00000000000E+00  0.00000000000E+00  0.32427333998E+03  0.32427333998E+03  0.00000000000E+00 0.  1.
          2   -1    0    0  504    0 -0.00000000000E+00 -0.00000000000E+00 -0.56222631055E+03  0.56222631055E+03  0.00000000000E+00 0.  1.
         21    1    1    2  503  502 -0.27404101989E+02  0.16539663698E+02  0.25254024943E+03  0.25456064673E+03  0.00000000000E+00 0.  1.
         21    1    1    2  504  503  0.42374578451E+02 -0.37018649017E+00  0.63983520540E+01  0.42856514627E+02  0.00000000000E+00 0.  1.
         21    1    1    2  505  501 -0.79683590061E+02 -0.84528527880E+02 -0.40406138513E+02  0.12299269320E+03  0.00000000000E+00 0.  1.
          2    1    1    2  501    0  0.64713113599E+02  0.68359050672E+02 -0.45648543354E+03  0.46608979598E+03  0.00000000000E+00 0.  1.
<scales pt_clust_3="32.00852" pt_clust_4="33.27119" pt_clust_5="96.42705" pt_clust_6="14000.00000"></scales>
<clustering>
<clus scale="   32.009">  1  3  2 -1</clus>
<clus scale="   33.271">  1  4  2 -1</clus>
<clus scale="   96.427">  1  5  2 -1</clus>
<clus scale="   32.009">  1  3  2 -1</clus>
</clustering>
</event>
<event>
 6    0  0.3082502E+002  0.9809029E+02  0.7546771E-02  0.1284364E+00
         21   -1    0    0  504  502  0.00000000000E+00  0.00000000000E+00  0.56053331266E+03  0.56053331266E+03  0.00000000000E+00 0.  1.
         -3   -1    0    0    0  501 -0.00000000000E+00 -0.00000000000E+00 -0.24747628068E+03  0.24747628068E+03  0.00000000000E+00 0.  1.
         21    1    1    2  503  505 -0.35008492974E+02 -0.30896195059E+02  0.17211927088E+03  0.17834016053E+03  0.00000000000E+00 0.  1.
         21    1    1    2  504  501 -0.34479400579E+02 -0.15623538937E+02 -0.12403537319E+02  0.39834303951E+02  0.00000000000E+00 0.  1.
         21    1    1    2  505  502 -0.25672079680E+02 -0.35936589700E+02  0.35193132622E+03  0.35469163019E+03  0.00000000000E+00 0.  1.
         -3    1    1    2    0  503  0.95159973232E+02  0.82456323696E+02 -0.19859002781E+03  0.23514349867E+03  0.00000000000E+00 0.  1.
<scales pt_clust_3="35.66911" pt_clust_4="37.85398" pt_clust_5="35.66911" pt_clust_6="90.97580"></scales>
<clustering>
<clus scale="   35.669">  3  5 -1 -1</clus>
<clus scale="   37.854">  2  4  1 -1</clus>
<clus scale="   90.976">  2  6  1 -1</clus>
<clus scale="   98.090">  1  3  2 -1</clus>
</clustering>
</event>
<event>
 6    0  0.3082502E+002  0.9140908E+02  0.7546771E-02  0.1299475E+00
          3   -1    0    0  505    0 -0.00000000000E+00  0.00000000000E+00  0.25180966252E+02  0.25180966252E+02  0.00000000000E+00 0.  1.
         21   -1    0    0  504  502  0.00000000000E+00 -0.00000000000E+00 -0.16656078700E+04  0.16656078700E+04  0.00000000000E+00 0.  1.
         21    1    1    2  503  502  0.34530318495E+02 -0.14825920414E+03 -0.10580191758E+04  0.10689142673E+04  0.00000000000E+00 0.  1.
         21    1    1    2  504  501 -0.11148291658E+02  0.68892382960E+02 -0.39483828325E+03  0.40095849505E+03  0.00000000000E+00 0.  1.
         21    1    1    2  505  503  0.26754175530E+02  0.15599109862E+02 -0.27284876621E+02  0.41274479149E+02  0.00000000000E+00 0.  1.
          3    1    1    2  501    0 -0.50136202368E+02  0.63767711321E+02 -0.16028456808E+03  0.17964159474E+03  0.00000000000E+00 0.  1.
<scales pt_clust_3="91.40908" pt_clust_4="71.82536" pt_clust_5="30.96963" pt_clust_6="14000.00000"></scales>
<clustering>
<clus scale="   30.970">  1  5  2 -1</clus>
<clus scale="   71.825">  2  4  1 -1</clus>
<clus scale="   91.409">  2  3  1 -1</clus>
<clus scale="   71.825">  2  3  1 -1</clus>
</clustering>
</event>
<event>
 6    0  0.3082502E+002  0.1441296E+03  0.7546771E-02  0.1207878E+00
          1   -1    0    0  505    0 -0.00000000000E+00  0.00000000000E+00  0.22121957989E+03  0.22121957989E+03  0.00000000000E+00 0.  1.
         21   -1    0    0  504  502  0.00000000000E+00 -0.00000000000E+00 -0.46333881986E+03  0.46333881986E+03  0.00000000000E+00 0.  1.
         21    1    1    2  503  502 -0.12715518022E+03 -0.25912939915E+02 -0.75698563181E+02  0.15023379373E+03  0.00000000000E+00 0.  1.
         21    1    1    2  504  501  0.14477867343E+03  0.41907748896E+02 -0.32226575959E+03  0.35577007111E+03  0.00000000000E+00 0.  1.
         21    1    1    2  505  503 -0.17699659000E+02  0.33047444765E+02  0.78138280355E+02  0.86666039433E+02  0.00000000000E+00 0. -1.
          1    1    1    2  501    0  0.76165791538E-01 -0.49042253746E+02  0.77706802442E+02  0.91888495468E+02  0.00000000000E+00 0.  1.
<scales pt_clust_3="144.12964" pt_clust_4="14000.00000" pt_clust_5="37.48882" pt_clust_6="30.78745"></scales>
<clustering>
<clus scale="   37.489">  1  5  2 -1</clus>
<clus scale="   30.787">  1  6  2 -1</clus>
<clus scale="  144.130">  1  3  2 -1</clus>
<clus scale="  144.130">  2  3  1 -1</clus>
</clustering>
</event>
<event>
 6    0  0.3082502E+002  0.1688560E+03  0.7546771E-02  0.1179046E+00
          2   -1    0    0  505    0 -0.00000000000E+00  0.00000000000E+00  0.30384236943E+04  0.30384236943E+04  0.00000000000E+00 0.  1.
         21   -1    0    0  503  502  0.00000000000E+00 -0.00000000000E+00 -0.87464439198E+02  0.87464439198E+02  0.00000000000E+00 0. -1.
         21    1    1    2  503  501  0.55723494348E+02 -0.41217436373E+02 -0.46303898454E+02  0.83354879255E+02  0.00000000000E+00 0. -1.
         21    1    1    2  504  502  0.43474550459E+02  0.13970650820E+02  0.27195610327E+02  0.53149006040E+02  0.00000000000E+00 0. -1.
         21    1    1    2  505  504  0.57427138264E+02 -0.46313065051E+02  0.18825041083E+03  0.20219048786E+03  0.00000000000E+00 0. -1.
          2    1    1    2  501    0 -0.15662518307E+03  0.73559850604E+02  0.27818171324E+04  0.27871937603E+04  0.00000000000E+00 0.  1.
<scales pt_clust_3="14000.00000" pt_clust_4="45.66416" pt_clust_5="76.20484" pt_clust_6="168.85599"></scales>
<clustering>
<clus scale="   45.664">  2  4  1 -1</clus>
<clus scale="   76.205">  2  5  1 -1</clus>
<clus scale="  168.856">  1  6  2 -1</clus>
<clus scale="   45.664">  2  3  1 -1</clus>
</clustering>
</event>
<event>
 6    0  0.3082502E+002  0.1886846E+03  0.7546771E-02  0.1159653E+00
         21   -1    0    0  504  502  0.00000000000E+00  0.00000000000E+00  0.55718493122E+02  0.55718493122E+02  0.00000000000E+00 0. -1.
          2   -1    0    0  503    0 -0.00000000000E+00 -0.00000000000E+00 -0.79161643471E+03  0.79161643471E+03  0.00000000000E+00 0.  1.
         21    1    1    2  503  505 -0.71670918693E+01 -0.44244578693E+02 -0.81011635821E+02  0.92584205391E+02  0.00000000000E+00 0.  1.
         21    1    1    2  504  501 -0.55290668770E+02  0.24938109477E+01 -0.75961008152E+02  0.93985913335E+02  0.00000000000E+00 0.  1.
         21    1    1    2  505  502  0.16268209314E+03 -0.55606965791E+02 -0.38599609148E+03  0.42255245912E+03  0.00000000000E+00 0. -1.
          2    1    1    2  501    0 -0.10022433250E+03  0.97357733537E+02 -0.19292920614E+03  0.23821234999E+03  0.00000000000E+00 0.  1.
<scales pt_clust_3="44.82131" pt_clust_4="39.29667" pt_clust_5="178.05445" pt_clust_6="39.29667"></scales>
<clustering>
<clus scale="   39.297">  4  6 -1 -1</clus>
<clus scale="   44.821">  2  3  1 -1</clus>
<clus scale="  178.054">  2  5  1 -1</clus>
<clus scale="  188.685">  1  3  2 -1</clus>
</clustering>
</event>
<event>
 6    0  0.3082502E+002  0.2010994E+03  0.7546771E-02  0.1148815E+00
         21   -1    0    0  503  502  0.00000000000E+00  0.00000000000E+00  0.44334568223E+03  0.44334568223E+03  0.00000000000E+00 0. -1.
          2   -1    0    0  504    0 -0.00000000000E+00 -0.00000000000E+00 -0.10728566224E+04  0.10728566224E+04  0.00000000000E+00 0. -1.
         21    1    1    2  503  501 -0.55836704825E+02  0.10767561891E+02  0.69835499535E+02  0.90059285974E+02  0.00000000000E+00 0.  1.
         21    1    1    2  504  505  0.76402374823E+02  0.54073713339E+02 -0.87638314446E+02  0.12822544019E+03  0.00000000000E+00 0.  1.
         21    1    1    2  505  502  0.24584488233E+03  0.13190412380E+02  0.27480282558E+03  0.36895837989E+03  0.00000000000E+00 0. -1.
          2    1    1    2  501    0 -0.26641055233E+03 -0.78031687610E+02 -0.88651095080E+03  0.92895919854E+03  0.00000000000E+00 0. -1.
<scales pt_clust_3="56.86544" pt_clust_4="91.43269" pt_clust_5="201.09937" pt_clust_6="14000.00000"></scales>
<clustering>
<clus scale="   56.865">  1  3  2 -1</clus>
<clus scale="   91.433">  2  4  1 -1</clus>
<clus scale="  201.099">  1  5  2 -1</clus>
<clus scale="   56.865">  1  3  2 -1</clus>
</clustering>
</event>
<event>
 6    0  0.3082502E+002  0.5614773E+03  0.7546771E-02  0.9988718E-01
         21   -1    0    0  503  502  0.00000000000E+00  0.00000000000E+00  0.11898948126E+04  0.11898948126E+04  0.00000000000E+00 0. -1.
          2   -1    0    0  504    0 -0.00000000000E+00 -0.00000000000E+00 -0.15572972208E+04  0.15572972208E+04  0.00000000000E+00 0. -1.
         21    1    1    2  503  505 -0.60915783286E+00  0.46373589616E+02  0.72048159455E+03  0.72197272038E+03  0.00000000000E+00 0. -1.
         21    1    1    2  504  502 -0.36074634694E+02  0.11009357887E+01  0.15397853439E+03  0.15815176376E+03  0.00000000000E+00 0. -1.
         21    1    1    2  505  501 -0.53217792225E+03 -0.48683518930E+02 -0.38217356697E+02  0.53576486662E+03  0.00000000000E+00 0. -1.
          2    1    1    2  501    0  0.56886171478E+03  0.12089935254E+01 -0.12036451805E+04  0.13313026826E+04  0.00000000000E+00 0. -1.
<scales pt_clust_3="53.72825" pt_clust_4="36.09143" pt_clust_5="561.47729" pt_clust_6="14000.00000"></scales>
<clustering>
<clus scale="   36.091">  1  4  2 -1</clus>
<clus scale="   53.728">  1  3  2 -1</clus>
<clus scale="  561.477">  1  5  2 -1</clus>
<clus scale="   36.091">  1  3  2 -1</clus>
</clustering>
</event>
<event>
 6    0  0.3082502E+002  0.2000780E+03  0.7546771E-02  0.1149673E+00
          2   -1    0    0  503    0 -0.00000000000E+00  0.00000000000E+00  0.67952623026E+03  0.67952623026E+03  0.00000000000E+00 0.  1.
         21   -1    0    0  501  502  0.00000000000E+00 -0.00000000000E+00 -0.31619090929E+03  0.31619090929E+03  0.00000000000E+00 0. -1.
         21    1    1    2  503  504  0.71911046636E+02  0.16193106135E+03  0.16408258648E+03  0.24148698194E+03  0.00000000000E+00 0.  1.
         21    1    1    2  504  505 -0.13926725432E+03  0.86781599056E+02 -0.17752585230E+03  0.24174747630E+03  0.00000000000E+00 0. -1.
         21    1    1    2  505  502  0.36190669963E+02 -0.19057528697E+02 -0.25513830602E+02  0.48206944981E+02  0.00000000000E+00 0. -1.
          2    1    1    2  501    0  0.31165537723E+02 -0.22965513171E+03  0.40229241739E+03  0.46427573633E+03  0.00000000000E+00 0.  1.
<scales pt_clust_3="14000.00000" pt_clust_4="133.49539" pt_clust_5="40.90176" pt_clust_6="200.07800"></scales>
<clustering>
<clus scale="   40.902">  2  5  1 -1</clus>
<clus scale="  133.495">  2  4  1 -1</clus>
<clus scale="  200.078">  1  6  2 -1</clus>
<clus scale="   40.902">  2  3  1 -1</clus>
</clustering>
</event>
<event>
 6    0  0.3082502E+002  0.1535958E+03  0.7546771E-02  0.1196123E+00
         21   -1    0    0  505  502  0.00000000000E+00  0.00000000000E+00  0.41067948387E+03  0.41067948387E+03  0.00000000000E+00 0. -1.
          1   -1    0    0  503    0 -0.00000000000E+00 -0.00000000000E+00 -0.26923680487E+04  0.26923680487E+04  0.00000000000E+00 0.  1.
         21    1    1    2  503  504  0.14278132938E+02 -0.27270234835E+02 -0.25682864276E+03  0.25866674029E+03  0.00000000000E+00 0. -1.
         21    1    1    2  504  502  0.53303317084E+02  0.13147385751E+03 -0.62474647596E+03  0.64065183840E+03  0.00000000000E+00 0.  1.
         21    1    1    2  505  501  0.10663225500E+03 -0.11086913570E+03  0.38267570365E+03  0.41243556736E+03  0.00000000000E+00 0. -1.
          1    1    1    2  501    0 -0.17421370503E+03  0.66655130283E+01 -0.17827891498E+04  0.17912933866E+04  0.00000000000E+00 0.  1.
<scales pt_clust_3="30.78199" pt_clust_4="136.83092" pt_clust_5="153.59579" pt_clust_6="14000.00000"></scales>
<clustering>
<clus scale="   30.782">  2  3  1 -1</clus>
<clus scale="  136.831">  2  4  1 -1</clus>
<clus scale="  153.596">  1  5  2 -1</clus>
<clus scale="  153.596">  1  3  2 -1</clus>
</clustering>
</event>
<event>
 6    0  0.3082502E+002  0.1112475E+03  0.7546771E-02  0.1258277E+00
         21   -1    0    0  504  502  0.00000000000E+00  0.00000000000E+00  0.46097609566E+03  0.46097609566E+03  0.00000000000E+00 0.  1.
         -1   -1    0    0    0  501 -0.00000000000E+00 -0.00000000000E+00 -0.10965330158E+03  0.10965330158E+03  0.00000000000E+00 0.  1.
         21    1    1    2  503  501  0.30645996112E+02 -0.19019274400E+02 -0.12127650578E+02  0.38052460958E+02  0.00000000000E+00 0. -1.
         21    1    1    2  504  503  0.77583777933E+02 -0.88035107984E+02  0.32925138855E+03  0.34953669293E+03  0.00000000000E+00 0.  1.
         21    1    1    2  505  502 -0.55015027880E+02  0.78986853177E+02  0.64308520294E+02  0.11576338821E+03  0.00000000000E+00 0.  1.
         -1    1    1    2    0  505 -0.53214746166E+02  0.28067529207E+02 -0.30109464190E+02  0.67276855152E+02  0.00000000000E+00 0.  1.
<scales pt_clust_3="36.06813" pt_clust_4="111.24751" pt_clust_5="14000.00000" pt_clust_6="39.47212"></scales>
<clustering>
<clus scale="   36.068">  2  3  1 -1</clus>
<clus scale="   39.472">  2  6  1 -1</clus>
<clus scale="  111.248">  1  4  2 -1</clus>
<clus scale="  111.248">  1  3  2 -1</clus>
</clustering>
</event>
<event>
 6    0  0.3082502E+002  0.1829515E+03  0.7546771E-02  0.1164977E+00
         21   -1    0    0  503  502  0.00000000000E+00  0.00000000000E+00  0.75487369539E+03  0.75487369539E+03  0.00000000000E+00 0. -1.
          2   -1    0    0  505    0 -0.00000000000E+00 -0.00000000000E+00 -0.15532439390E+04  0.15532439390E+04  0.00000000000E+00 0. -1.
         21    1    1    2  503  501  0.47827039306E+02 -0.15583059976E+03  0.33778117498E+03  0.37505562745E+03  0.00000000000E+00 0. -1.
         21    1    1    2  504  502  0.58527780777E+02  0.58397697949E+01  0.38889866169E+03  0.39332146280E+03  0.00000000000E+00 0. -1.
         21    1    1    2  505  504  0.19901362990E+02  0.31575793423E+02 -0.35481236242E+03  0.35677010455E+03  0.00000000000E+00 0. -1.
          2    1    1    2  501    0 -0.12625618307E+03  0.11841503654E+03 -0.11702377179E+04  0.11829704396E+04  0.00000000000E+00 0. -1.
<scales pt_clust_3="14000.00000" pt_clust_4="58.86078" pt_clust_5="37.32419" pt_clust_6="182.95152"></scales>
<clustering>
<clus scale="   37.324">  2  5  1 -1</clus>
<clus scale="   58.861">  1  4  2 -1</clus>
<clus scale="  182.952">  2  6  1 -1</clus>
<clus scale="   58.861">  1  3  2 -1</clus>
</clustering>
</event>
<event>
 6    0  0.3082502E+002  0.9078787E+02  0.7546771E-02  0.1300955E+00
          2   -1    0    0  504    0 -0.00000000000E+00  0.00000000000E+00  0.91461705936E+03  0.91461705936E+03  0.00000000000E+00 0.  1.
         21   -1    0    0  501  502  0.00000000000E+00 -0.00000000000E+00 -0.26166110996E+02  0.26166110996E+02  0.00000000000E+00 0. -1.
         21    1    1    2  503  502  0.37177747338E+02 -0.81070664699E+01  0.65800564773E+02  0.76010681804E+02  0.00000000000E+00 0. -1.
         21    1    1    2  504  505  0.19736306563E+02 -0.37950164797E+02  0.35272538574E+03  0.35530963194E+03  0.00000000000E+00 0.  1.
         21    1    1    2  505  503  0.16854898344E+02  0.10245843074E+03  0.24054548488E+03  0.26199990061E+03  0.00000000000E+00 0. -1.
          2    1    1    2  501    0 -0.73768952245E+02 -0.56401199474E+02  0.22937951297E+03  0.24746295599E+03  0.00000000000E+00 0.  1.
<scales pt_clust_3="38.05141" pt_clust_4="44.30543" pt_clust_5="90.78787" pt_clust_6="14000.00000"></scales>
<clustering>
<clus scale="   38.051">  2  3  1 -1</clus>
<clus scale="   44.305">  1  4  2 -1</clus>
<clus scale="   90.788">  1  5  2 -1</clus>
<clus scale="   38.051">  2  3  1 -1</clus>
</clustering>
</event>
<event>
 6    0  0.3082502E+002  0.1218283E+03  0.7546771E-02  0.1240111E+00
         21   -1    0    0  503  502  0.00000000000E+00  0.00000000000E+00  0.84020492738E+03  0.84020492738E+03  0.00000000000E+00 0. -1.
          2   -1    0    0  504    0 -0.00000000000E+00 -0.00000000000E+00 -0.15161127201E+04  0.15161127201E+04  0.00000000000E+00 0. -1.
         21    1    1    2  503  501  0.50274617063E+02  0.59584407078E+02  0.20327606560E+03  0.21771310831E+03  0.00000000000E+00 0.  1.
         21    1    1    2  504  505  0.15144705604E+02  0.41276865211E+02 -0.22800411621E+03  0.23220469142E+03  0.00000000000E+00 0.  1.
         21    1    1    2  505  502  0.71783961508E+02 -0.63611459239E+02  0.61995945190E+03  0.62733490009E+03  0.00000000000E+00 0. -1.
          2    1    1    2  501    0 -0.13720328418E+03 -0.37249813050E+02 -0.12711391940E+04  0.12790649477E+04  0.00000000000E+00 0. -1.
<scales pt_clust_3="78.19244" pt_clust_4="43.96751" pt_clust_5="121.82825" pt_clust_6="14000.00000"></scales>
<clustering>
<clus scale="   43.968">  2  4  1 -1</clus>
<clus scale="   78.192">  1  3  2 -1</clus>
<clus scale="  121.828">  1  5  2 -1</clus>
<clus scale="   78.192">  1  3  2 -1</clus>
</clustering>
</event>
<event>
 6    0  0.3082502E+002  0.7341980E+02  0.7546771E-02  0.1348835E+00
          1   -1    0    0  505    0 -0.00000000000E+00  0.00000000000E+00  0.65558602345E+03  0.65558602345E+03  0.00000000000E+00 0.  1.
         21   -1    0    0  504  502  0.00000000000E+00 -0.00000000000E+00 -0.64423602117E+03  0.64423602117E+03  0.00000000000E+00 0. -1.
         21    1    1    2  503  502  0.13255095358E+02 -0.51091476424E+02 -0.12548519381E+03  0.13613438354E+03  0.00000000000E+00 0. -1.
         21    1    1    2  504  501  0.56297994735E+02  0.72895415637E+02 -0.50133855388E+03  0.50972889994E+03  0.00000000000E+00 0. -1.
         21    1    1    2  505  503  0.29478615150E+02  0.82417656949E+01  0.69453600548E+02  0.75899394477E+02  0.00000000000E+00 0. -1.
          1    1    1    2  501    0 -0.99031705243E+02 -0.30045704908E+02  0.56872014942E+03  0.57805936666E+03  0.00000000000E+00 0.  1.
<scales pt_clust_3="52.77841" pt_clust_4="14000.00000" pt_clust_5="30.60907" pt_clust_6="73.41980"></scales>
<clustering>
<clus scale="   30.609">  1  5  2 -1</clus>
<clus scale="   52.778">  2  3  1 -1</clus>
<clus scale="   73.420">  1  6  2 -1</clus>
<clus scale="   52.778">  2  3  1 -1</clus>
</clustering>
</event>
<event>
 6    0  0.3082502E+002  0.2118345E+03  0.7546771E-02  0.1140121E+00
         21   -1    0    0  504  502  0.00000000000E+00  0.00000000000E+00  0.83008157538E+03  0.83008157538E+03  0.00000000000E+00 0.  1.
          2   -1    0    0  505    0 -0.00000000000E+00 -0.00000000000E+00 -0.39058201553E+03  0.39058201553E+03  0.00000000000E+00 0.  1.
         21    1    1    2  503  502  0.24969450467E+01 -0.45050608159E+02  0.67628100923E+02  0.81297921649E+02  0.00000000000E+00 0.  1.
         21    1    1    2  504  501 -0.33106535082E+02  0.44692066210E+02  0.59590746843E+03  0.59849739714E+03  0.00000000000E+00 0.  1.
         21    1    1    2  505  503 -0.47534061215E+02 -0.19945716003E+03  0.31234035039E+02  0.20740831856E+03  0.00000000000E+00 0.  1.
          2    1    1    2  501    0  0.78143651250E+02  0.19981570198E+03 -0.25527004454E+03  0.33345995356E+03  0.00000000000E+00 0.  1.
<scales pt_clust_3="45.11975" pt_clust_4="32.43194" pt_clust_5="211.83450" pt_clust_6="14000.00000"></scales>
<clustering>
<clus scale="   45.120">  1  3  2 -1</clus>
<clus scale="   32.432">  1  4  2 -1</clus>
<clus scale="  211.835">  1  5  2 -1</clus>
<clus scale="   45.120">  1  3  2 -1</clus>
</clustering>
</event>
<event>
 6    0  0.3082502E+002  0.1834982E+03  0.7546771E-02  0.1164460E+00
          1   -1    0    0  504    0 -0.00000000000E+00  0.00000000000E+00  0.14736562924E+04  0.14736562924E+04  0.00000000000E+00 0. -1.
         21   -1    0    0  501  502  0.00000000000E+00 -0.00000000000E+00 -0.22682156481E+03  0.22682156481E+03  0.00000000000E+00 0. -1.
         21    1    1    2  503  502 -0.11668952885E+02  0.45241229571E+02 -0.17584692626E+03  0.18194800023E+03  0.00000000000E+00 0. -1.
         21    1    1    2  504  505  0.34112380302E+02 -0.78597803736E+00  0.44790791017E+03  0.44920570816E+03  0.00000000000E+00 0.  1.
         21    1    1    2  505  503 -0.91890373944E+02 -0.19381812647E+03  0.26624303445E+03  0.34189861123E+03  0.00000000000E+00 0. -1.
          1    1    1    2  501    0  0.69446946528E+02  0.14936287494E+03  0.70853070925E+03  0.72742553760E+03  0.00000000000E+00 0. -1.
<scales pt_clust_3="46.69436" pt_clust_4="34.12143" pt_clust_5="183.49821" pt_clust_6="14000.00000"></scales>
<clustering>
<clus scale="   34.121">  1  4  2 -1</clus>
<clus scale="   46.694">  2  3  1 -1</clus>
<clus scale="  183.498">  2  5  1 -1</clus>
<clus scale="   46.694">  2  3  1 -1</clus>
</clustering>
</event>
<event>
 6    0  0.3082502E+002  0.1408418E+03  0.7546771E-02  0.1212201E+00
         21   -1    0    0  501  502  0.00000000000E+00  0.00000000000E+00  0.13877786553E+03  0.13877786553E+03  0.00000000000E+00 0.  1.
          1   -1    0    0  505    0 -0.00000000000E+00 -0.00000000000E+00 -0.41124161713E+03  0.41124161713E+03  0.00000000000E+00 0.  1.
         21    1    1    2  503  502 -0.28398516182E+02  0.38523207507E+02  0.15138350502E+02  0.50196443040E+02  0.00000000000E+00 0.  1.
         21    1    1    2  504  503 -0.11377034200E+03 -0.41571524842E+02  0.24145548676E+02  0.12351068746E+03  0.00000000000E+00 0.  1.
         21    1    1    2  505  504 -0.27060133956E+02  0.23590225328E+02 -0.87867189079E+02  0.94917819704E+02  0.00000000000E+00 0.  1.
          1    1    1    2  501    0  0.16922899213E+03 -0.20541907993E+02 -0.22388046170E+03  0.28139453245E+03  0.00000000000E+00 0.  1.
<scales pt_clust_3="49.78176" pt_clust_4="140.84176" pt_clust_5="35.89916" pt_clust_6="14000.00000"></scales>
<clustering>
<clus scale="   35.899">  2  5  1 -1</clus>
<clus scale="   49.782">  1  3  2 -1</clus>
<clus scale="  140.842">  1  4  2 -1</clus>
<clus scale="   49.782">  1  3  2 -1</clus>
</clustering>
</event>
<event>
 6    0  0.3082502E+002  0.8713691E+02  0.7546771E-02  0.1309937E+00
          2   -1    0    0  503    0 -0.00000000000E+00  0.00000000000E+00  0.25002818190E+04  0.25002818190E+04  0.00000000000E+00 0.  1.
         21   -1    0    0  504  502  0.00000000000E+00 -0.00000000000E+00 -0.19617352006E+03  0.19617352006E+03  0.00000000000E+00 0.  1.
         21    1    1    2  503  505  0.33196165362E+02 -0.49721489229E+02  0.54250131364E+03  0.54578556887E+03  0.00000000000E+00 0.  1.
         21    1    1    2  504  501 -0.30752555928E+02 -0.59975446367E+01 -0.48480126276E+01  0.31704786140E+02  0.00000000000E+00 0. -1.
         21    1    1    2  505  502  0.56990573178E+02 -0.44239461625E+02 -0.16705115798E+03  0.18196468003E+03  0.00000000000E+00 0.  1.
          2    1    1    2  501    0 -0.59434182611E+02  0.99958495491E+02  0.19335061559E+04  0.19370003040E+04  0.00000000000E+00 0.  1.
<scales pt_clust_3="87.13691" pt_clust_4="31.33194" pt_clust_5="56.84902" pt_clust_6="14000.00000"></scales>
<clustering>
<clus scale="   31.332">  2  4  1 -1</clus>
<clus scale="   56.849">  2  5  1 -1</clus>
<clus scale="   87.137">  1  3  2 -1</clus>
<clus scale="   31.332">  2  3  1 -1</clus>
</clustering>
</event>
<event>
 6    0  0.3082502E+002  0.7663701E+02  0.7546771E-02  0.1338875E+00
          2   -1    0    0  505    0 -0.00000000000E+00  0.00000000000E+00  0.23407329063E+04  0.23407329063E+04  0.00000000000E+00 0. -1.
         21   -1    0    0  503  502  0.00000000000E+00 -0.00000000000E+00 -0.31539875496E+03  0.31539875496E+03  0.00000000000E+00 0.  1.
         21    1    1    2  503  504  0.46926895751E+02  0.59072069020E+02 -0.27244682312E+03  0.28269933553E+03  0.00000000000E+00 0.  1.
         21    1    1    2  504  501 -0.38645737761E+02 -0.86605065385E+02  0.32587000990E+02  0.10027882643E+03  0.00000000000E+00 0. -1.
         21    1    1    2  505  502  0.86343200428E+01  0.98721261384E+02  0.79698229740E+03  0.80311968056E+03  0.00000000000E+00 0. -1.
          2    1    1    2  501    0 -0.16915478032E+02 -0.71188265019E+02  0.14682116761E+04  0.14700338188E+04  0.00000000000E+00 0. -1.
<scales pt_clust_3="14000.00000" pt_clust_4="76.63701" pt_clust_5="34.08176" pt_clust_6="73.17037"></scales>
<clustering>
<clus scale="   73.170">  1  6  2 -1</clus>
<clus scale="   34.082">  1  5  2 -1</clus>
<clus scale="   76.637">  1  4  2 -1</clus>
<clus scale="   76.637">  2  3  1 -1</clus>
</clustering>
</event>
<event>
 6    0  0.6699223E+002  0.1277535E+03  0.7546771E-02  0.1230828E+00
         21   -1    0    0  504  502  0.00000000000E+00  0.00000000000E+00  0.17960247365E+04  0.17960247365E+04  0.00000000000E+00 0. -1.
          1   -1    0    0  503    0 -0.00000000000E+00 -0.00000000000E+00 -0.20504384797E+04  0.20504384797E+04  0.00000000000E+00 0.  1.
         21    1    1    2  503  505 -0.32372863361E+02  0.29344341309E+02 -0.14843503597E+03  0.15473219623E+03  0.00000000000E+00 0.  1.
         21    1    1    2  504  501 -0.97899112436E+02 -0.71248159510E+02 -0.15211159597E+03  0.19441829666E+03  0.00000000000E+00 0. -1.
         21    1    1    2  505  502  0.12809160289E+03 -0.49439675371E+01  0.17690846717E+04  0.17737227735E+04  0.00000000000E+00 0. -1.
          1    1    1    2  501    0  0.21803729018E+01  0.46847785738E+02 -0.17229517829E+04  0.17235899498E+04  0.00000000000E+00 0.  1.
<scales pt_clust_3="43.69316" pt_clust_4="127.75353" pt_clust_5="14000.00000" pt_clust_6="78.35118"></scales>
<clustering>
<clus scale="   43.693">  2  3  1 -1</clus>
<clus scale="   78.351">  2  6  1 -1</clus>
<clus scale="  127.754">  2  4  1 -1</clus>
<clus scale="  127.754">  1  3  2 -1</clus>
</clustering>
</event>
<event>
 6    0  0.3082502E+002  0.1065454E+03  0.7546771E-02  0.1267104E+00
          2   -1    0    0  505    0 -0.00000000000E+00  0.00000000000E+00  0.23185342414E+04  0.23185342414E+04  0.00000000000E+00 0.  1.
         21   -1    0    0  504  502  0.00000000000E+00 -0.00000000000E+00 -0.70470347528E+02  0.70470347528E+02  0.00000000000E+00 0.  1.
         21    1    1    2  503  502 -0.47277680154E+02 -0.47383362455E+02 -0.21811017329E+02  0.70399449964E+02  0.00000000000E+00 0.  1.
         21    1    1    2  504  501 -0.57406730184E+02  0.86629906066E+02  0.12125974197E+03  0.15970033913E+03  0.00000000000E+00 0.  1.
         21    1    1    2  505  503 -0.17252109356E+02 -0.46668906329E+02  0.18752931737E+03  0.19401769756E+03  0.00000000000E+00 0.  1.
          2    1    1    2  501    0  0.12193651969E+03  0.74223627170E+01  0.19610858518E+04  0.19648871022E+04  0.00000000000E+00 0.  1.
<scales pt_clust_3="67.45226" pt_clust_4="106.54539" pt_clust_5="49.75562" pt_clust_6="14000.00000"></scales>
<clustering>
<clus scale="   49.756">  1  5  2 -1</clus>
<clus scale="   67.452">  2  3  1 -1</clus>
<clus scale="  106.545">  2  4  1 -1</clus>
<clus scale="   67.452">  2  3  1 -1</clus>
</clustering>
</event>
<event>
 6    0  0.3082502E+002  0.1063271E+03  0.7546771E-02  0.1267527E+00
         21   -1    0    0  505  502  0.00000000000E+00  0.00000000000E+00  0.41907600222E+03  0.41907600222E+03  0.00000000000E+00 0. -1.
          3   -1    0    0  504    0 -0.00000000000E+00 -0.00000000000E+00 -0.34180154697E+03  0.34180154697E+03  0.00000000000E+00 0. -1.
         21    1    1    2  503  502 -0.10248822774E+03  0.34016902980E+02 -0.35621037105E+02  0.11370947541E+03  0.00000000000E+00 0. -1.
         21    1    1    2  504  503 -0.43672362760E+02 -0.45589155208E+02 -0.36441231290E+02  0.72894510627E+02  0.00000000000E+00 0.  1.
         21    1    1    2  505  501  0.48868772754E+02  0.70100215284E+02  0.34097843840E+03  0.35152310392E+03  0.00000000000E+00 0. -1.
          3    1    1    2  501    0  0.97291817741E+02 -0.58527963055E+02 -0.19164171475E+03  0.22275045924E+03  0.00000000000E+00 0. -1.
<scales pt_clust_3="14000.00000" pt_clust_4="63.13198" pt_clust_5="84.30778" pt_clust_6="106.32709"></scales>
<clustering>
<clus scale="   63.132">  2  4  1 -1</clus>
<clus scale="   84.308">  1  5  2 -1</clus>
<clus scale="  106.327">  2  6  1 -1</clus>
<clus scale="   84.308">  1  3  2 -1</clus>
</clustering>
</event>
<event>
 6    0  0.3082502E+002  0.1161266E+03  0.7546771E-02  0.1249627E+00
          2   -1    0    0  505    0 -0.00000000000E+00  0.00000000000E+00  0.15893174902E+04  0.15893174902E+04  0.00000000000E+00 0. -1.
         21   -1    0    0  503  502  0.00000000000E+00 -0.00000000000E+00 -0.95906073098E+03  0.95906073098E+03  0.00000000000E+00 0. -1.
         21    1    1    2  503  501  0.41074089958E+02  0.69978049248E+02 -0.27752814018E+02  0.85756789401E+02  0.00000000000E+00 0.  1.
         21    1    1    2  504  502 -0.16655982697E+02  0.47024414743E+02 -0.89662239927E+03  0.89800915597E+03  0.00000000000E+00 0. -1.
         21    1    1    2  505  504  0.42278056147E+02 -0.10310272795E+02  0.62360736535E+03  0.62512389322E+03  0.00000000000E+00 0. -1.
          2    1    1    2  501    0 -0.66696163408E+02 -0.10669219120E+03  0.93102460720E+03  0.93948838263E+03  0.00000000000E+00 0. -1.
<scales pt_clust_3="14000.00000" pt_clust_4="49.86993" pt_clust_5="43.51707" pt_clust_6="116.12662"></scales>
<clustering>
<clus scale="   43.517">  1  5  2 -1</clus>
<clus scale="   49.870">  2  4  1 -1</clus>
<clus scale="  116.127">  1  6  2 -1</clus>
<clus scale="   49.870">  2  3  1 -1</clus>
</clustering>
</event>
<event>
 6    0  0.3082502E+002  0.1141816E+03  0.7546771E-02  0.1253016E+00
          2   -1    0    0  504    0 -0.00000000000E+00  0.00000000000E+00  0.58673213069E+03  0.58673213069E+03  0.00000000000E+00 0.  1.
         21   -1    0    0  505  502  0.00000000000E+00 -0.00000000000E+00 -0.26464646729E+03  0.26464646729E+03  0.00000000000E+00 0. -1.
         21    1    1    2  503  502 -0.51771034960E+02  0.10974155006E+03 -0.24575343247E+02  0.12380385845E+03  0.00000000000E+00 0.  1.
         21    1    1    2  504  503  0.26256300732E+02  0.29898252626E+02  0.22217020416E+03  0.22570533546E+03  0.00000000000E+00 0.  1.
         21    1    1    2  505  501  0.10953288497E+03 -0.12132744430E+02 -0.15097147967E+03  0.18691453675E+03  0.00000000000E+00 0. -1.
          2    1    1    2  501    0 -0.84018150738E+02 -0.12750705826E+03  0.27546228215E+03  0.31495486732E+03  0.00000000000E+00 0.  1.
<scales pt_clust_3="14000.00000" pt_clust_4="39.79069" pt_clust_5="111.34419" pt_clust_6="114.18162"></scales>
<clustering>
<clus scale="   39.791">  1  4  2 -1</clus>
<clus scale="  111.344">  2  5  1 -1</clus>
<clus scale="  114.182">  1  6  2 -1</clus>
<clus scale="  111.344">  2  3  1 -1</clus>
</clustering>
</event>
<event>
 6    0  0.3082502E+002  0.1118401E+03  0.7546771E-02  0.1257200E+00
          2   -1    0    0  504    0 -0.00000000000E+00  0.00000000000E+00  0.39992334521E+04  0.39992334521E+04  0.00000000000E+00 0.  1.
         21   -1    0    0  501  502  0.00000000000E+00 -0.00000000000E+00 -0.24317244557E+02  0.24317244557E+02  0.00000000000E+00 0.  1.
         21    1    1    2  503  502 -0.24917494000E+02  0.18199748372E+02  0.13998486083E+02  0.33883181088E+02  0.00000000000E+00 0.  1.
         21    1    1    2  504  505  0.18799238895E+02 -0.47333001429E+02  0.13602455201E+04  0.13611986260E+04  0.00000000000E+00 0.  1.
         21    1    1    2  505  503 -0.77161764818E+02 -0.67152505351E+02  0.20202075929E+03  0.22644156887E+03  0.00000000000E+00 0.  1.
          2    1    1    2  501    0  0.83280019923E+02  0.96285758408E+02  0.23986514420E+04  0.24020273207E+04  0.00000000000E+00 0.  1.
<scales pt_clust_3="30.85632" pt_clust_4="50.06691" pt_clust_5="111.84015" pt_clust_6="14000.00000"></scales>
<clustering>
<clus scale="   30.856">  2  3  1 -1</clus>
<clus scale="   50.067">  1  4  2 -1</clus>
<clus scale="  111.840">  2  5  1 -1</clus>
<clus scale="   30.856">  2  3  1 -1</clus>
</clustering>
</event>
<event>
 6    0  0.3082502E+002  0.1173734E+03  0.7546771E-02  0.1247494E+00
         21   -1    0    0  504  502  0.00000000000E+00  0.00000000000E+00  0.54979544221E+02  0.54979544221E+02  0.00000000000E+00 0.  1.
          1   -1    0    0  503    0 -0.00000000000E+00 -0.00000000000E+00 -0.11292657506E+04  0.11292657506E+04  0.00000000000E+00 0. -1.
         21    1    1    2  503  505  0.73625550688E+02  0.51056090690E+02 -0.20776486373E+03  0.22626021460E+03  0.00000000000E+00 0. -1.
         21    1    1    2  504  501  0.27768888229E+02 -0.19150391782E+02  0.44804496934E+01  0.34028268959E+02  0.00000000000E+00 0. -1.
         21    1    1    2  505  502  0.14150157721E+02  0.32869539985E+02  0.66214140164E+01  0.36393361289E+02  0.00000000000E+00 0.  1.
          1    1    1    2  501    0 -0.11554459664E+03 -0.64775238894E+02 -0.87762320634E+03  0.88756344995E+03  0.00000000000E+00 0. -1.
<scales pt_clust_3="14000.00000" pt_clust_4="33.73201" pt_clust_5="37.52643" pt_clust_6="117.37339"></scales>
<clustering>
<clus scale="   33.732">  1  4  2 -1</clus>
<clus scale="   37.526">  1  5  2 -1</clus>
<clus scale="  117.373">  2  6  1 -1</clus>
<clus scale="   33.732">  1  3  2 -1</clus>
</clustering>
</event>
<event>
 6    0  0.3082502E+002  0.1107974E+03  0.7546771E-02  0.1259100E+00
         21   -1    0    0  505  502  0.00000000000E+00  0.00000000000E+00  0.57022239161E+03  0.57022239161E+03  0.00000000000E+00 0. -1.
          3   -1    0    0  504    0 -0.00000000000E+00 -0.00000000000E+00 -0.39657659357E+03  0.39657659357E+03  0.00000000000E+00 0. -1.
         21    1    1    2  503  501  0.33513266486E+02 -0.79876804275E+02  0.13722551192E+03  0.16227841512E+03  0.00000000000E+00 0. -1.
         21    1    1    2  504  502  0.45323068973E+02  0.93678206313E+01 -0.31989683545E+02  0.56260790057E+02  0.00000000000E+00 0. -1.
         21    1    1    2  505  503 -0.21232494233E+02 -0.34448160602E+02  0.39673147851E+03  0.39878987026E+03  0.00000000000E+00 0. -1.
          3    1    1    2  501    0 -0.57603841226E+02  0.10495714425E+03 -0.32832150884E+03  0.34946990975E+03  0.00000000000E+00 0. -1.
<scales pt_clust_3="110.79739" pt_clust_4="44.37565" pt_clust_5="40.46597" pt_clust_6="14000.00000"></scales>
<clustering>
<clus scale="   40.466">  1  5  2 -1</clus>
<clus scale="   44.376">  2  4  1 -1</clus>
<clus scale="  110.797">  1  3  2 -1</clus>
<clus scale="   40.466">  1  3  2 -1</clus>
</clustering>
</event>
<event>
 6    0  0.3082502E+002  0.8524103E+02  0.7546771E-02  0.1314803E+00
          2   -1    0    0  503    0 -0.00000000000E+00  0.00000000000E+00  0.11089203777E+04  0.11089203777E+04  0.00000000000E+00 0. -1.
         21   -1    0    0  505  502  0.00000000000E+00 -0.00000000000E+00 -0.42461334044E+02  0.42461334044E+02  0.00000000000E+00 0. -1.
         21    1    1    2  503  504  0.67446700029E+01 -0.33018211529E+02  0.28849950888E+03  0.29046111528E+03  0.00000000000E+00 0. -1.
         21    1    1    2  504  502  0.53970855454E+02 -0.43674747532E+02  0.24646731586E+02  0.73673592204E+02  0.00000000000E+00 0. -1.
         21    1    1    2  505  501 -0.93662832534E+01 -0.28900045122E+02  0.62536778343E+01  0.31016904367E+02  0.00000000000E+00 0. -1.
          2    1    1    2  501    0 -0.51349242203E+02  0.10559300418E+03  0.74705912537E+03  0.75623009991E+03  0.00000000000E+00 0. -1.
<scales pt_clust_3="34.56563" pt_clust_4="85.24103" pt_clust_5="30.37993" pt_clust_6="14000.00000"></scales>
<clustering>
<clus scale="   30.380">  2  5  1 -1</clus>
<clus scale="   34.566">  1  3  2 -1</clus>
<clus scale="   85.241">  2  4  1 -1</clus>
<clus scale="   30.380">  2  3  1 -1</clus>
</clustering>
</event>
<event>
 6    0  0.3082502E+002  0.8455440E+02  0.7546771E-02  0.1316602E+00
          2   -1    0    0  505    0 -0.00000000000E+00  0.00000000000E+00  0.96769736905E+02  0.96769736905E+02  0.00000000000E+00 0. -1.
         21   -1    0    0  504  502  0.00000000000E+00 -0.00000000000E+00 -0.51487241505E+03  0.51487241505E+03  0.00000000000E+00 0.  1.
         21    1    1    2  503  501  0.54648519086E+02 -0.37215830520E+02 -0.59514952096E+02  0.88957901294E+02  0.00000000000E+00 0.  1.
         21    1    1    2  504  503 -0.84119569600E+02  0.37245183268E+02 -0.36675797413E+03  0.37811997733E+03  0.00000000000E+00 0.  1.
         21    1    1    2  505  502 -0.37065987004E+02 -0.33449649889E+02 -0.32644838105E+02  0.59652761253E+02  0.00000000000E+00 0.  1.
          2    1    1    2  501    0  0.66537037518E+02  0.33420297141E+02  0.40815086190E+02  0.84911512078E+02  0.00000000000E+00 0. -1.
<scales pt_clust_3="84.55440" pt_clust_4="14000.00000" pt_clust_5="49.92761" pt_clust_6="39.40876"></scales>
<clustering>
<clus scale="   49.928">  1  5  2 -1</clus>
<clus scale="   39.409">  1  6  2 -1</clus>
<clus scale="   84.554">  1  3  2 -1</clus>
<clus scale="   84.554">  2  3  1 -1</clus>
</clustering>
</event>
<event>
 6    0  0.3082502E+002  0.1150686E+03  0.7546771E-02  0.1251461E+00
          2   -1    0    0  503    0 -0.00000000000E+00  0.00000000000E+00  0.13606779143E+04  0.13606779143E+04  0.00000000000E+00 0. -1.
         21   -1    0    0  505  502  0.00000000000E+00 -0.00000000000E+00 -0.79860747775E+02  0.79860747775E+02  0.00000000000E+00 0.  1.
         21    1    1    2  503  504  0.29066502030E+02 -0.96977064956E+01  0.20734997137E+03  0.20960180743E+03  0.00000000000E+00 0. -1.
         21    1    1    2  504  502  0.80776333041E+02  0.12537361424E+02  0.68438345032E+02  0.10661054583E+03  0.00000000000E+00 0.  1.
         21    1    1    2  505  501  0.11085563649E+02  0.70472702481E+02 -0.31651118037E+02  0.78045402103E+02  0.00000000000E+00 0.  1.
          2    1    1    2  501    0 -0.12092839872E+03 -0.73312357410E+02  0.10366799682E+04  0.10462809067E+04  0.00000000000E+00 0. -1.
<scales pt_clust_3="30.64159" pt_clust_4="115.06864" pt_clust_5="71.23993" pt_clust_6="14000.00000"></scales>
<clustering>
<clus scale="   30.642">  1  3  2 -1</clus>
<clus scale="   71.240">  2  5  1 -1</clus>
<clus scale="  115.069">  2  4  1 -1</clus>
<clus scale="   71.240">  2  3  1 -1</clus>
</clustering>
</event>
<event>
 6    0  0.3082502E+002  0.1147529E+03  0.7546771E-02  0.1252013E+00
         21   -1    0    0  501  502  0.00000000000E+00  0.00000000000E+00  0.94554537147E+02  0.94554537147E+02  0.00000000000E+00 0.  1.
          2   -1    0    0  503    0 -0.00000000000E+00 -0.00000000000E+00 -0.13228867716E+04  0.13228867716E+04  0.00000000000E+00 0.  1.
         21    1    1    2  503  504  0.34627355561E+02  0.19644966505E+02 -0.43553963893E+03  0.43735541102E+03  0.00000000000E+00 0. -1.
         21    1    1    2  504  505  0.30775641785E+02  0.14065192234E+03 -0.22574543778E+03  0.26775194876E+03  0.00000000000E+00 0.  1.
         21    1    1    2  505  502 -0.86155649997E+01 -0.45205498095E+02  0.58118069769E+02  0.74131471401E+02  0.00000000000E+00 0.  1.
          2    1    1    2  501    0 -0.56787432347E+02 -0.11509139075E+03 -0.62516522754E+03  0.63820247761E+03  0.00000000000E+00 0.  1.
<scales pt_clust_3="39.81179" pt_clust_4="114.75293" pt_clust_5="45.78714" pt_clust_6="14000.00000"></scales>
<clustering>
<clus scale="   39.812">  2  3  1 -1</clus>
<clus scale="   45.787">  1  5  2 -1</clus>
<clus scale="  114.753">  1  4  2 -1</clus>
<clus scale="   45.787">  1  3  2 -1</clus>
</clustering>
</event>
<event>
 6    0  0.3082502E+002  0.9437230E+02  0.7546771E-02  0.1292596E+00
         21   -1    0    0  504  502  0.00000000000E+00  0.00000000000E+00  0.18858006826E+03  0.18858006826E+03  0.00000000000E+00 0.  1.
          1   -1    0    0  503    0 -0.00000000000E+00 -0.00000000000E+00 -0.19945567976E+04  0.19945567976E+04  0.00000000000E+00 0. -1.
         21    1    1    2  503  505  0.34693201663E+02 -0.93372678196E+01 -0.29676491936E+03  0.29893179853E+03  0.00000000000E+00 0. -1.
         21    1    1    2  504  501  0.21675715999E+02  0.38634216064E+02  0.17134263758E+03  0.17697666165E+03  0.00000000000E+00 0.  1.
         21    1    1    2  505  502  0.52192676786E+02 -0.87620628339E+02 -0.23182979729E+03  0.25327160309E+03  0.00000000000E+00 0.  1.
          1    1    1    2  501    0 -0.10856159445E+03  0.58323680095E+02 -0.14487246503E+04  0.14539568026E+04  0.00000000000E+00 0. -1.
<scales pt_clust_3="35.92774" pt_clust_4="44.31413" pt_clust_5="94.37230" pt_clust_6="14000.00000"></scales>
<clustering>
<clus scale="   35.928">  2  3  1 -1</clus>
<clus scale="   44.314">  1  4  2 -1</clus>
<clus scale="   94.372">  1  5  2 -1</clus>
<clus scale="   44.314">  1  3  2 -1</clus>
</clustering>
</event>
<event>
 6    0  0.3082502E+002  0.8762251E+02  0.7546771E-02  0.1308713E+00
          1   -1    0    0  505    0 -0.00000000000E+00  0.00000000000E+00  0.33737284747E+03  0.33737284747E+03  0.00000000000E+00 0. -1.
         21   -1    0    0  504  502  0.00000000000E+00 -0.00000000000E+00 -0.11836493728E+03  0.11836493728E+03  0.00000000000E+00 0.  1.
         21    1    1    2  503  502 -0.75090597558E+01  0.76648147212E+02  0.44719427319E+02  0.89057013364E+02  0.00000000000E+00 0. -1.
         21    1    1    2  504  501  0.46297771246E+02 -0.34170894066E+01 -0.66009075105E+02  0.80699182887E+02  0.00000000000E+00 0.  1.
         21    1    1    2  505  503  0.93868432714E+01  0.31861022158E+02  0.92872212668E+02  0.98633084943E+02  0.00000000000E+00 0. -1.
          1    1    1    2  501    0 -0.48175554762E+02 -0.10509207996E+03  0.14742534531E+03  0.18734850356E+03  0.00000000000E+00 0. -1.
<scales pt_clust_3="87.62251" pt_clust_4="46.64743" pt_clust_5="33.21502" pt_clust_6="14000.00000"></scales>
<clustering>
<clus scale="   33.215">  1  5  2 -1</clus>
<clus scale="   46.647">  2  4  1 -1</clus>
<clus scale="   87.623">  2  3  1 -1</clus>
<clus scale="   46.647">  2  3  1 -1</clus>
</clustering>
</event>
<event>
 6    0  0.3082502E+002  0.9171002E+02  0.7546771E-02  0.1298763E+00
         -3   -1    0    0    0  501 -0.00000000000E+00  0.00000000000E+00  0.37013244368E+02  0.37013244368E+02  0.00000000000E+00 0. -1.
         21   -1    0    0  503  502  0.00000000000E+00 -0.00000000000E+00 -0.14832411673E+04  0.14832411673E+04  0.00000000000E+00 0. -1.
         21    1    1    2  503  501 -0.11737754127E+02 -0.31403698466E+02 -0.46921581884E+02  0.57668032703E+02  0.00000000000E+00 0. -1.
         21    1    1    2  504  502  0.63051650308E+02  0.90089769629E+02 -0.10602482189E+04  0.10659352527E+04  0.00000000000E+00 0. -1.
         21    1    1    2  505  504 -0.59383547503E+01 -0.73241678920E+02 -0.34112860721E+03  0.34895319778E+03  0.00000000000E+00 0. -1.
         -3    1    1    2    0  505 -0.45375541431E+02  0.14555607757E+02  0.20704850473E+01  0.47697928526E+02  0.00000000000E+00 0. -1.
<scales pt_clust_3="33.52562" pt_clust_4="91.71002" pt_clust_5="14000.00000" pt_clust_6="55.54101"></scales>
<clustering>
<clus scale="   33.526">  1  3  2 -1</clus>
<clus scale="   55.541">  1  6  2 -1</clus>
<clus scale="   91.710">  2  4  1 -1</clus>
<clus scale="   91.710">  2  3  1 -1</clus>
</clustering>
</event>
<event>
 6    0  0.3082502E+002  0.9120984E+02  0.7546771E-02  0.1299948E+00
         -1   -1    0    0    0  501 -0.00000000000E+00  0.00000000000E+00  0.47418458208E+03  0.47418458208E+03  0.00000000000E+00 0. -1.
         21   -1    0    0  505  502  0.00000000000E+00 -0.00000000000E+00 -0.25777581272E+04  0.25777581272E+04  0.00000000000E+00 0.  1.
         21    1    1    2  503  502  0.45906913157E+02  0.70587276141E+02 -0.17501603043E+04  0.17521846646E+04  0.00000000000E+00 0.  1.
         21    1    1    2  504  503 -0.45994009516E+02 -0.11910102142E+03 -0.81625161234E+03  0.82617625048E+03  0.00000000000E+00 0. -1.
         21    1    1    2  505  501 -0.39176591321E+02  0.29239750223E+02  0.15164918347E+03  0.15933374767E+03  0.00000000000E+00 0. -1.
         -1    1    1    2    0  504  0.39263687681E+02  0.19273995051E+02  0.31118918798E+03  0.31424804657E+03  0.00000000000E+00 0. -1.
<scales pt_clust_3="91.20984" pt_clust_4="14000.00000" pt_clust_5="47.82008" pt_clust_6="43.73927"></scales>
<clustering>
<clus scale="   43.739">  1  6  2 -1</clus>
<clus scale="   47.820">  1  5  2 -1</clus>
<clus scale="   91.210">  2  3  1 -1</clus>
<clus scale="   91.210">  2  3  1 -1</clus>
</clustering>
</event>
<event>
 6    0  0.3082502E+002  0.1109721E+03  0.7546771E-02  0.1258780E+00
         21   -1    0    0  504  502  0.00000000000E+00  0.00000000000E+00  0.40691516996E+02  0.40691516996E+02  0.00000000000E+00 0. -1.
          2   -1    0    0  505    0 -0.00000000000E+00 -0.00000000000E+00 -0.28744154005E+04  0.28744154005E+04  0.00000000000E+00 0.  1.
         21    1    1    2  503  502  0.41613332069E+02 -0.44102059416E+01 -0.99771612561E+02  0.10819193129E+03  0.00000000000E+00 0. -1.
         21    1    1    2  504  501  0.76976959532E+02 -0.12512297186E+02 -0.17574846629E+02  0.79943011662E+02  0.00000000000E+00 0. -1.
         21    1    1    2  505  503 -0.28523752720E+02  0.80777284813E+02 -0.46087153627E+03  0.46876555671E+03  0.00000000000E+00 0. -1.
          2    1    1    2  501    0 -0.90066538881E+02 -0.63854781686E+02 -0.22555058880E+04  0.22582064178E+04  0.00000000000E+00 0.  1.
<scales pt_clust_3="41.84638" pt_clust_4="110.97211" pt_clust_5="83.81613" pt_clust_6="14000.00000"></scales>
<clustering>
<clus scale="   41.846">  1  3  2 -1</clus>
<clus scale="   83.816">  2  5  1 -1</clus>
<clus scale="  110.972">  1  4  2 -1</clus>
<clus scale="   41.846">  1  3  2 -1</clus>
</clustering>
</event>
<event>
 6    0  0.3082502E+002  0.1577017E+03  0.7546771E-02  0.1191316E+00
          3   -1    0    0  503    0 -0.00000000000E+00  0.00000000000E+00  0.73965819526E+03  0.73965819526E+03  0.00000000000E+00 0. -1.
         21   -1    0    0  501  502  0.00000000000E+00 -0.00000000000E+00 -0.12942646382E+03  0.12942646382E+03  0.00000000000E+00 0. -1.
         21    1    1    2  503  505  0.54544634598E+02 -0.44939806211E+02  0.19480062954E+03  0.20722448845E+03  0.00000000000E+00 0. -1.
         21    1    1    2  504  502 -0.73916323035E+02 -0.90220343445E+02  0.18007648873E+02  0.11801528969E+03  0.00000000000E+00 0. -1.
         21    1    1    2  505  504  0.88232585761E+02  0.77132633043E+01  0.38876456626E+03  0.39872593545E+03  0.00000000000E+00 0. -1.
          3    1    1    2  501    0 -0.68860897324E+02  0.12744688635E+03  0.86588867652E+01  0.14511894549E+03  0.00000000000E+00 0. -1.
<scales pt_clust_3="62.25078" pt_clust_4="116.63333" pt_clust_5="62.25078" pt_clust_6="141.46876"></scales>
<clustering>
<clus scale="   62.251">  3  5 -1 -1</clus>
<clus scale="  116.633">  2  4  1 -1</clus>
<clus scale="  141.469">  2  6  1 -1</clus>
<clus scale="  116.633">  2  3  1 -1</clus>
</clustering>
</event>
<event>
 6    0  0.3082502E+002  0.1605872E+03  0.7546771E-02  0.1188035E+00
          2   -1    0    0  505    0 -0.00000000000E+00  0.00000000000E+00  0.28600557738E+04  0.28600557738E+04  0.00000000000E+00 0. -1.
         21   -1    0    0  503  502  0.00000000000E+00 -0.00000000000E+00 -0.24764080600E+03  0.24764080600E+03  0.00000000000E+00 0. -1.
         21    1    1    2  503  501  0.13186595009E+02 -0.30878507256E+02 -0.22945165103E+03  0.23189529676E+03  0.00000000000E+00 0. -1.
         21    1    1    2  504  502 -0.13971072466E+03  0.69417732212E+02  0.13480914267E+04  0.13570882075E+04  0.00000000000E+00 0. -1.
         21    1    1    2  505  504  0.15381280914E+02  0.60516326666E+02  0.10242110913E+04  0.10261126493E+04  0.00000000000E+00 0. -1.
          2    1    1    2  501    0  0.11114284874E+03 -0.99055551622E+02  0.46956410084E+03  0.49260042624E+03  0.00000000000E+00 0. -1.
<scales pt_clust_3="33.57631" pt_clust_4="14000.00000" pt_clust_5="60.95619" pt_clust_6="160.58719"></scales>
<clustering>
<clus scale="   33.576">  2  3  1 -1</clus>
<clus scale="   60.956">  1  5  2 -1</clus>
<clus scale="  160.587">  2  6  1 -1</clus>
<clus scale="   33.576">  2  3  1 -1</clus>
</clustering>
</event>
<event>
 6    0  0.3082502E+002  0.1435466E+03  0.7546771E-02  0.1208635E+00
         21   -1    0    0  504  502  0.00000000000E+00  0.00000000000E+00  0.74444359641E+02  0.74444359641E+02  0.00000000000E+00 0.  1.
          2   -1    0    0  505    0 -0.00000000000E+00 -0.00000000000E+00 -0.48014361487E+03  0.48014361487E+03  0.00000000000E+00 0.  1.
         21    1    1    2  503  501 -0.14205167674E+02  0.40574178834E+02 -0.64971506486E+02  0.77906016659E+02  0.00000000000E+00 0.  1.
         21    1    1    2  504  503 -0.48594779411E+02 -0.11803284026E+03 -0.38501223111E+02  0.13332497196E+03  0.00000000000E+00 0.  1.
         21    1    1    2  505  502  0.16769854777E+02 -0.36079067464E+02 -0.87917894374E+02  0.96501208746E+02  0.00000000000E+00 0.  1.
          2    1    1    2  501    0  0.46030092308E+02  0.11353772889E+03 -0.21430863126E+03  0.24685577715E+03  0.00000000000E+00 0.  1.
<scales pt_clust_3="30.83419" pt_clust_4="133.77629" pt_clust_5="39.78602" pt_clust_6="30.83419"></scales>
<clustering>
<clus scale="   30.834">  3  6 -1 -1</clus>
<clus scale="   39.786">  2  5  1 -1</clus>
<clus scale="  133.776">  1  4  2 -1</clus>
<clus scale="  133.776">  1  3  2 -1</clus>
</clustering>
</event>
<event>
 6    0  0.3082502E+002  0.1557161E+03  0.7546771E-02  0.1193620E+00
          1   -1    0    0  504    0 -0.00000000000E+00  0.00000000000E+00  0.66923859133E+03  0.66923859133E+03  0.00000000000E+00 0.  1.
         21   -1    0    0  503  502  0.00000000000E+00 -0.00000000000E+00 -0.80332903804E+03  0.80332903804E+03  0.00000000000E+00 0. -1.
         21    1    1    2  503  501 -0.54342421294E+02 -0.91768493108E+02 -0.66592251112E+03  0.67440888629E+03  0.00000000000E+00 0. -1.
         21    1    1    2  504  505  0.15342634531E+03  0.10234129253E+03  0.18148707038E+03  0.25874879769E+03  0.00000000000E+00 0.  1.
         21    1    1    2  505  502  0.45518362628E+02  0.24862982745E+02 -0.73624791160E+02  0.90059419944E+02  0.00000000000E+00 0. -1.
          1    1    1    2  501    0 -0.14460228665E+03 -0.35435782168E+02  0.42396978520E+03  0.44935052545E+03  0.00000000000E+00 0.  1.
<scales pt_clust_3="69.72531" pt_clust_4="155.71611" pt_clust_5="51.86607" pt_clust_6="14000.00000"></scales>
<clustering>
<clus scale="   51.866">  2  5  1 -1</clus>
<clus scale="   69.725">  2  3  1 -1</clus>
<clus scale="  155.716">  2  4  1 -1</clus>
<clus scale="   51.866">  2  3  1 -1</clus>
</clustering>
</event>
<event>
 6    0  0.3082502E+002  0.1181031E+03  0.7546771E-02  0.1246260E+00
          1   -1    0    0  504    0 -0.00000000000E+00  0.00000000000E+00  0.13393503178E+03  0.13393503178E+03  0.00000000000E+00 0. -1.
         21   -1    0    0  505  502  0.00000000000E+00 -0.00000000000E+00 -0.11555536077E+04  0.11555536077E+04  0.00000000000E+00 0. -1.
         21    1    1    2  503  502  0.12500301221E+02  0.30154601493E+02 -0.61413617772E+02  0.69549909918E+02  0.00000000000E+00 0.  1.
         21    1    1    2  504  503  0.29011413646E+02  0.37262808069E+02 -0.46190784942E+01  0.47450130380E+02  0.00000000000E+00 0. -1.
         21    1    1    2  505  501  0.47899744635E+02  0.70766667118E+02 -0.99869841605E+03  0.10023476607E+04  0.00000000000E+00 0. -1.
          1    1    1    2  501    0 -0.89411459502E+02 -0.13818407668E+03  0.43112536418E+02  0.17014093844E+03  0.00000000000E+00 0. -1.
<scales pt_clust_3="32.64288" pt_clust_4="47.97689" pt_clust_5="118.10306" pt_clust_6="14000.00000"></scales>
<clustering>
<clus scale="   32.643">  2  3  1 -1</clus>
<clus scale="   47.977">  1  4  2 -1</clus>
<clus scale="  118.103">  2  5  1 -1</clus>
<clus scale="   32.643">  2  3  1 -1</clus>
</clustering>
</event>
<event>
 6    0  0.3082502E+002  0.7254268E+03  0.7546771E-02  0.9674711E-01
          4   -1    0    0  505    0 -0.00000000000E+00  0.00000000000E+00  0.11430339580E+04  0.11430339580E+04  0.00000000000E+00 0.  1.
         21   -1    0    0  501  502  0.00000000000E+00 -0.00000000000E+00 -0.54145772319E+03  0.54145772319E+03  0.00000000000E+00 0. -1.
         21    1    1    2  503  504 -0.20191989291E+03  0.74764719767E+02 -0.84890783170E+02  0.23144729755E+03  0.00000000000E+00 0. -1.
         21    1    1    2  504  502 -0.33506773489E+03  0.35389775241E+03  0.71852760666E+02  0.49262239630E+03  0.00000000000E+00 0. -1.
         21    1    1    2  505  503 -0.27068547105E+02 -0.26977902493E+02  0.68816990739E+02  0.78716527360E+02  0.00000000000E+00 0.  1.
          4    1    1    2  501    0  0.56405617491E+03 -0.40168456968E+03  0.54579726659E+03  0.88170546000E+03  0.00000000000E+00 0.  1.
<scales pt_clust_3="151.98591" pt_clust_4="151.98591" pt_clust_5="38.21666" pt_clust_6="688.65401"></scales>
<clustering>
<clus scale="   38.217">  1  5  2 -1</clus>
<clus scale="  151.986">  3  4 -1 -1</clus>
<clus scale="  688.654">  1  6  2 -1</clus>
<clus scale="  725.427">  2  3  1 -1</clus>
</clustering>
</event>
<event>
 6    0  0.3082502E+002  0.4819576E+03  0.7546771E-02  0.1018599E+00
         21   -1    0    0  504  502  0.00000000000E+00  0.00000000000E+00  0.68210532749E+03  0.68210532749E+03  0.00000000000E+00 0.  1.
          1   -1    0    0  505    0 -0.00000000000E+00 -0.00000000000E+00 -0.14116482151E+04  0.14116482151E+04  0.00000000000E+00 0.  1.
         21    1    1    2  503  501 -0.18421236999E+02 -0.35264879755E+02 -0.10916778777E+03  0.11619190851E+03  0.00000000000E+00 0. -1.
         21    1    1    2  504  503  0.35147477259E+02  0.27744803334E+02  0.40934677801E+03  0.41178866417E+03  0.00000000000E+00 0.  1.
         21    1    1    2  505  502  0.41563376299E+03  0.12974417828E+03  0.74352778685E+01  0.43547704886E+03  0.00000000000E+00 0.  1.
          1    1    1    2  501    0 -0.43236000325E+03 -0.12222410185E+03 -0.10371571557E+04  0.11302959210E+04  0.00000000000E+00 0.  1.
<scales pt_clust_3="32.13887" pt_clust_4="44.77856" pt_clust_5="469.70051" pt_clust_6="32.13887"></scales>
<clustering>
<clus scale="   32.139">  3  6 -1 -1</clus>
<clus scale="   44.779">  1  4  2 -1</clus>
<clus scale="  469.701">  1  5  2 -1</clus>
<clus scale="   44.779">  1  3  2 -1</clus>
</clustering>
</event>
<event>
 6    0  0.3082502E+002  0.1186536E+03  0.7546771E-02  0.1245335E+00
         21   -1    0    0  501  502  0.00000000000E+00  0.00000000000E+00  0.39386079926E+03  0.39386079926E+03  0.00000000000E+00 0. -1.
          3   -1    0    0  503    0 -0.00000000000E+00 -0.00000000000E+00 -0.15098996063E+04  0.15098996063E+04  0.00000000000E+00 0.  1.
         21    1    1    2  503  504  0.51295984169E+02 -0.33647531161E+02 -0.74132173464E+02  0.96223767789E+02  0.00000000000E+00 0. -1.
         21    1    1    2  504  505 -0.56044683392E+02 -0.61249605673E+02  0.87844850520E+02  0.12086868285E+03  0.00000000000E+00 0. -1.
         21    1    1    2  505  502  0.20527946717E+02 -0.57821760597E+02  0.27083156228E+03  0.27769495444E+03  0.00000000000E+00 0. -1.
          3    1    1    2  501    0 -0.15779247494E+02  0.15271889743E+03 -0.14005830464E+04  0.14089730005E+04  0.00000000000E+00 0.  1.
<scales pt_clust_3="61.34684" pt_clust_4="14000.00000" pt_clust_5="61.47536" pt_clust_6="118.65357"></scales>
<clustering>
<clus scale="   61.347">  2  3  1 -1</clus>
<clus scale="   61.475">  1  5  2 -1</clus>
<clus scale="  118.654">  2  6  1 -1</clus>
<clus scale="   61.475">  1  3  2 -1</clus>
</clustering>
</event>
<event>
 6    0  0.3082502E+002  0.1038255E+03  0.7546771E-02  0.1272451E+00
         21   -1    0    0  505  502  0.00000000000E+00  0.00000000000E+00  0.43736623542E+03  0.43736623542E+03  0.00000000000E+00 0.  1.
          1   -1    0    0  504    0 -0.00000000000E+00 -0.00000000000E+00 -0.95617400758E+03  0.95617400758E+03  0.00000000000E+00 0. -1.
         21    1    1    2  503  502  0.31279414870E+02 -0.42110214033E+02  0.25209779717E+02  0.58199698572E+02  0.00000000000E+00 0. -1.
         21    1    1    2  504  503  0.35653905706E+02 -0.22424596673E+02 -0.11130932838E+03  0.11901189064E+03  0.00000000000E+00 0.  1.
         21    1    1    2  505  501 -0.15676275127E+02 -0.60817010168E+02  0.38367884621E+03  0.38878517379E+03  0.00000000000E+00 0.  1.
          1    1    1    2  501    0 -0.51257045450E+02  0.12535182087E+03 -0.81638706971E+03  0.82754348000E+03  0.00000000000E+00 0. -1.
<scales pt_clust_3="53.22727" pt_clust_4="42.11963" pt_clust_5="103.82546" pt_clust_6="14000.00000"></scales>
<clustering>
<clus scale="   42.120">  2  4  1 -1</clus>
<clus scale="   53.227">  1  3  2 -1</clus>
<clus scale="  103.825">  1  5  2 -1</clus>
<clus scale="   53.227">  1  3  2 -1</clus>
</clustering>
</event>
<event>
 6    0  0.3082502E+002  0.1637216E+03  0.7546771E-02  0.1184558E+00
          2   -1    0    0  504    0 -0.00000000000E+00  0.00000000000E+00  0.12021163130E+04  0.12021163130E+04  0.00000000000E+00 0. -1.
         21   -1    0    0  503  502  0.00000000000E+00 -0.00000000000E+00 -0.11015188531E+03  0.11015188531E+03  0.00000000000E+00 0.  1.
         21    1    1    2  503  501 -0.14681089477E+03 -0.11200472973E+03  0.48965188797E+01  0.18472269542E+03  0.00000000000E+00 0.  1.
         21    1    1    2  504  505 -0.34619396645E+02  0.78029122364E+01  0.76845068212E+02  0.84643680047E+02  0.00000000000E+00 0.  1.
         21    1    1    2  505  502  0.66023288108E+01  0.39598535224E+02  0.46995383771E+02  0.61807773245E+02  0.00000000000E+00 0.  1.
          2    1    1    2  501    0  0.17482796261E+03  0.64603282267E+02  0.96322745679E+03  0.98109404957E+03  0.00000000000E+00 0. -1.
<scales pt_clust_3="163.72162" pt_clust_4="35.48786" pt_clust_5="40.27904" pt_clust_6="14000.00000"></scales>
<clustering>
<clus scale="   35.488">  1  4  2 -1</clus>
<clus scale="   40.279">  2  5  1 -1</clus>
<clus scale="  163.722">  2  3  1 -1</clus>
<clus scale="   40.279">  2  3  1 -1</clus>
</clustering>
</event>
<event>
 6    0  0.3082502E+002  0.1111673E+03  0.7546771E-02  0.1258423E+00
          2   -1    0    0  504    0 -0.00000000000E+00  0.00000000000E+00  0.77455715222E+03  0.77455715222E+03  0.00000000000E+00 0. -1.
         21   -1    0    0  501  502  0.00000000000E+00 -0.00000000000E+00 -0.46009736227E+02  0.46009736227E+02  0.00000000000E+00 0. -1.
         21    1    1    2  503  502  0.48334149235E+02  0.11554718801E+03  0.11215465500E+03  0.16812498112E+03  0.00000000000E+00 0. -1.
         21    1    1    2  504  505  0.32133091784E+02 -0.13824000389E+02  0.12098191543E+03  0.12593753387E+03  0.00000000000E+00 0. -1.
         21    1    1    2  505  503 -0.86429780307E+02 -0.13819043843E+02  0.20193065463E+03  0.22008421610E+03  0.00000000000E+00 0. -1.
          2    1    1    2  501    0  0.59625392875E+01 -0.87904143778E+02  0.29348019093E+03  0.30642015736E+03  0.00000000000E+00 0. -1.
<scales pt_clust_3="14000.00000" pt_clust_4="34.98055" pt_clust_5="78.18763" pt_clust_6="111.16732"></scales>
<clustering>
<clus scale="   34.981">  1  4  2 -1</clus>
<clus scale="   78.188">  1  5  2 -1</clus>
<clus scale="  111.167">  1  6  2 -1</clus>
<clus scale="  111.167">  2  3  1 -1</clus>
</clustering>
</event>
<event>
 6    0  0.3082502E+002  0.1783496E+03  0.7546771E-02  0.1169410E+00
          2   -1    0    0  503    0 -0.00000000000E+00  0.00000000000E+00  0.11850439602E+04  0.11850439602E+04  0.00000000000E+00 0. -1.
         21   -1    0    0  505  502  0.00000000000E+00 -0.00000000000E+00 -0.77516019789E+02  0.77516019789E+02  0.00000000000E+00 0. -1.
         21    1    1    2  503  504 -0.21715560623E+02  0.15409747939E+03  0.58241590419E+02  0.16616161284E+03  0.00000000000E+00 0. -1.
         21    1    1    2  504  502  0.34923253815E+02  0.57685060978E+01  0.37358387540E+01  0.35593058464E+02  0.00000000000E+00 0. -1.
         21    1    1    2  505  501  0.31159506713E+02 -0.66780061845E+02  0.52422276125E+03  0.52937698754E+03  0.00000000000E+00 0. -1.
          2    1    1    2  501    0 -0.44367199905E+02 -0.93085923646E+02  0.52132774994E+03  0.53142832110E+03  0.00000000000E+00 0. -1.
<scales pt_clust_3="159.39926" pt_clust_4="35.39646" pt_clust_5="68.36322" pt_clust_6="68.36322"></scales>
<clustering>
<clus scale="   35.396">  2  4  1 -1</clus>
<clus scale="   68.363">  5  6 -1 -1</clus>
<clus scale="  159.399">  2  3  1 -1</clus>
<clus scale="   35.396">  2  3  1 -1</clus>
</clustering>
</event>
<event>
 6    0  0.3082502E+002  0.1237516E+03  0.7546771E-02  0.1237033E+00
         -2   -1    0    0    0  501 -0.00000000000E+00  0.00000000000E+00  0.10708095602E+04  0.10708095602E+04  0.00000000000E+00 0. -1.
         21   -1    0    0  505  502  0.00000000000E+00 -0.00000000000E+00 -0.11494121589E+04  0.11494121589E+04  0.00000000000E+00 0.  1.
         21    1    1    2  503  502 -0.17348049815E+02  0.25091978679E+02 -0.86782689883E+03  0.86836287839E+03  0.00000000000E+00 0.  1.
         21    1    1    2  504  501 -0.34084038292E+02 -0.25528134475E+02  0.11237066263E+03  0.12016893582E+03  0.00000000000E+00 0. -1.
         21    1    1    2  505  504 -0.27631213334E+02  0.91258044277E+02 -0.26527843923E+03  0.28189388946E+03  0.00000000000E+00 0.  1.
         -2    1    1    2    0  503  0.79063301441E+02 -0.90821888481E+02  0.94213207674E+03  0.94979601552E+03  0.00000000000E+00 0. -1.
<scales pt_clust_3="30.50512" pt_clust_4="42.57018" pt_clust_5="14000.00000" pt_clust_6="123.75163"></scales>
<clustering>
<clus scale="   30.505">  2  3  1 -1</clus>
<clus scale="   42.570">  1  4  2 -1</clus>
<clus scale="  123.752">  1  6  2 -1</clus>
<clus scale="   30.505">  2  3  1 -1</clus>
</clustering>
</event>
<event>
 6    0  0.3082502E+002  0.1121723E+03  0.7546771E-02  0.1256599E+00
          2   -1    0    0  504    0 -0.00000000000E+00  0.00000000000E+00  0.24752042992E+03  0.24752042992E+03  0.00000000000E+00 0.  1.
         21   -1    0    0  503  502  0.00000000000E+00 -0.00000000000E+00 -0.64513079235E+03  0.64513079235E+03  0.00000000000E+00 0. -1.
         21    1    1    2  503  501  0.39778930549E+02 -0.77575009783E+02  0.20640716051E+02  0.89589534085E+02  0.00000000000E+00 0. -1.
         21    1    1    2  504  505 -0.38370578737E+02  0.78832516355E+01  0.44089639304E+02  0.58977480981E+02  0.00000000000E+00 0.  1.
         21    1    1    2  505  502 -0.22689850920E+02  0.11271915033E+03 -0.59343835305E+03  0.60447457768E+03  0.00000000000E+00 0. -1.
          2    1    1    2  501    0  0.21281499108E+02 -0.43027392179E+02  0.13109763527E+03  0.13960962952E+03  0.00000000000E+00 0.  1.
<scales pt_clust_3="14000.00000" pt_clust_4="39.17202" pt_clust_5="112.17228" pt_clust_6="37.94355"></scales>
<clustering>
<clus scale="   39.172">  1  4  2 -1</clus>
<clus scale="   37.944">  1  6  2 -1</clus>
<clus scale="  112.172">  2  5  1 -1</clus>
<clus scale="  112.172">  2  3  1 -1</clus>
</clustering>
</event>
<event>
 6    0  0.3082502E+002  0.5758728E+02  0.7546771E-02  0.1408245E+00
         21   -1    0    0  504  502  0.00000000000E+00  0.00000000000E+00  0.38213726532E+03  0.38213726532E+03  0.00000000000E+00 0. -1.
         -4   -1    0    0    0  501 -0.00000000000E+00 -0.00000000000E+00 -0.55608199422E+03  0.55608199422E+03  0.00000000000E+00 0.  1.
         21    1    1    2  503  501  0.57161267423E+02  0.68499593755E+02 -0.21272342170E+03  0.23067479051E+03  0.00000000000E+00 0.  1.
         21    1    1    2  504  503  0.17267434810E+02 -0.84806680736E+02  0.30329333566E+03  0.31540003940E+03  0.00000000000E+00 0. -1.
         21    1    1    2  505  502 -0.37310998667E+02  0.33305414238E+02  0.52501467305E+02  0.72510449649E+02  0.00000000000E+00 0. -1.
         -4    1    1    2    0  505 -0.37117703566E+02 -0.16998327258E+02 -0.31701611017E+03  0.31963397997E+03  0.00000000000E+00 0.  1.
<scales pt_clust_3="57.58728" pt_clust_4="14000.00000" pt_clust_5="50.72689" pt_clust_6="40.82483"></scales>
<clustering>
<clus scale="   40.825">  2  6  1 -1</clus>
<clus scale="   50.727">  1  5  2 -1</clus>
<clus scale="   57.587">  2  3  1 -1</clus>
<clus scale="   50.727">  1  3  2 -1</clus>
</clustering>
</event>
<event>
 6    0  0.3082502E+002  0.1194551E+03  0.7546771E-02  0.1243999E+00
         21   -1    0    0  503  502  0.00000000000E+00  0.00000000000E+00  0.21202662046E+03  0.21202662046E+03  0.00000000000E+00 0.  1.
          2   -1    0    0  504    0 -0.00000000000E+00 -0.00000000000E+00 -0.24901105931E+04  0.24901105931E+04  0.00000000000E+00 0.  1.
         21    1    1    2  503  501  0.70534503991E+02 -0.19894618429E+02 -0.50824443725E+02  0.89185403378E+02  0.00000000000E+00 0.  1.
         21    1    1    2  504  505  0.13836302915E+02  0.53523646358E+02 -0.13765706124E+03  0.14834315120E+03  0.00000000000E+00 0. -1.
         21    1    1    2  505  502  0.28877027621E+02  0.19594832632E+02  0.18414400999E+03  0.18742160123E+03  0.00000000000E+00 0.  1.
          2    1    1    2  501    0 -0.11324783453E+03 -0.53223860560E+02 -0.22737464777E+04  0.22771870578E+04  0.00000000000E+00 0.  1.
<scales pt_clust_3="119.45515" pt_clust_4="60.79840" pt_clust_5="34.89757" pt_clust_6="14000.00000"></scales>
<clustering>
<clus scale="   34.898">  1  5  2 -1</clus>
<clus scale="   60.798">  1  4  2 -1</clus>
<clus scale="  119.455">  1  3  2 -1</clus>
<clus scale="   34.898">  1  3  2 -1</clus>
</clustering>
</event>
<event>
 6    0  0.3082502E+002  0.6451651E+02  0.7546771E-02  0.1379799E+00
         -2   -1    0    0    0  501 -0.00000000000E+00  0.00000000000E+00  0.16588989861E+03  0.16588989861E+03  0.00000000000E+00 0. -1.
         21   -1    0    0  503  502  0.00000000000E+00 -0.00000000000E+00 -0.14330244304E+03  0.14330244304E+03  0.00000000000E+00 0. -1.
         21    1    1    2  503  504  0.45470564314E+01 -0.90984504781E+02 -0.36578006625E+02  0.98167236902E+02  0.00000000000E+00 0. -1.
         21    1    1    2  504  501  0.18349113911E+02 -0.31466210035E+02  0.50724762582E+02  0.62448489928E+02  0.00000000000E+00 0.  1.
         21    1    1    2  505  502 -0.60410676166E+01  0.46994927970E+02 -0.35902533094E+02  0.59447536832E+02  0.00000000000E+00 0. -1.
         -2    1    1    2    0  505 -0.16855102726E+02  0.75455786846E+02  0.44343232708E+02  0.89129077990E+02  0.00000000000E+00 0. -1.
<scales pt_clust_3="14000.00000" pt_clust_4="36.42544" pt_clust_5="43.79490" pt_clust_6="64.51651"></scales>
<clustering>
<clus scale="   36.425">  1  4  2 -1</clus>
<clus scale="   43.795">  2  5  1 -1</clus>
<clus scale="   64.517">  1  6  2 -1</clus>
<clus scale="   43.795">  2  3  1 -1</clus>
</clustering>
</event>
<event>
 6    0  0.3082502E+002  0.1147493E+03  0.7546771E-02  0.1252019E+00
         21   -1    0    0  504  502  0.00000000000E+00  0.00000000000E+00  0.69968095875E+03  0.69968095875E+03  0.00000000000E+00 0.  1.
         -2   -1    0    0    0  501 -0.00000000000E+00 -0.00000000000E+00 -0.28069253926E+03  0.28069253926E+03  0.00000000000E+00 0. -1.
         21    1    1    2  503  505 -0.86677371895E+02 -0.77835073398E+02  0.96703033284E+02  0.15140258286E+03  0.00000000000E+00 0. -1.
         21    1    1    2  504  503  0.50491138273E+02  0.10437503903E+03  0.54768547388E+03  0.55982397423E+03  0.00000000000E+00 0.  1.
         21    1    1    2  505  501 -0.46919771368E+02 -0.17775331630E+00 -0.31405530423E+02  0.56460640119E+02  0.00000000000E+00 0. -1.
         -2    1    1    2    0  502  0.83106004990E+02 -0.26362212315E+02 -0.19399455726E+03  0.21268630080E+03  0.00000000000E+00 0. -1.
<scales pt_clust_3="114.74928" pt_clust_4="14000.00000" pt_clust_5="46.92011" pt_clust_6="50.35527"></scales>
<clustering>
<clus scale="   46.920">  2  5  1 -1</clus>
<clus scale="   50.355">  2  6  1 -1</clus>
<clus scale="  114.749">  2  3  1 -1</clus>
<clus scale="  114.749">  1  3  2 -1</clus>
</clustering>
</event>
<event>
 6    0  0.3082502E+002  0.1130002E+03  0.7546771E-02  0.1255113E+00
          1   -1    0    0  505    0 -0.00000000000E+00  0.00000000000E+00  0.31430441154E+04  0.31430441154E+04  0.00000000000E+00 0. -1.
         21   -1    0    0  503  502  0.00000000000E+00 -0.00000000000E+00 -0.20486918482E+02  0.20486918482E+02  0.00000000000E+00 0. -1.
         21    1    1    2  503  501 -0.78916677334E+02  0.43671649028E+02  0.31445612844E+03  0.32713561653E+03  0.00000000000E+00 0. -1.
         21    1    1    2  504  502  0.13237264718E+03 -0.46936432966E+02  0.36144969798E+03  0.38777755303E+03  0.00000000000E+00 0. -1.
         21    1    1    2  505  504  0.51946442171E+01  0.32167778364E+02  0.75231175117E+03  0.75301707899E+03  0.00000000000E+00 0. -1.
          1    1    1    2  501    0 -0.58650614065E+02 -0.28902994426E+02  0.16943396193E+04  0.16956007853E+04  0.00000000000E+00 0. -1.
<scales pt_clust_3="14000.00000" pt_clust_4="113.00023" pt_clust_5="32.58451" pt_clust_6="55.30392"></scales>
<clustering>
<clus scale="   32.585">  1  5  2 -1</clus>
<clus scale="   55.304">  1  6  2 -1</clus>
<clus scale="  113.000">  1  4  2 -1</clus>
<clus scale="  113.000">  2  3  1 -1</clus>
</clustering>
</event>
<event>
 6    0  0.3082502E+002  0.7476380E+02  0.7546771E-02  0.1344604E+00
         -2   -1    0    0    0  501 -0.00000000000E+00  0.00000000000E+00  0.24509135550E+03  0.24509135550E+03  0.00000000000E+00 0. -1.
         21   -1    0    0  505  502  0.00000000000E+00 -0.00000000000E+00 -0.62395279897E+03  0.62395279897E+03  0.00000000000E+00 0.  1.
         21    1    1    2  503  502 -0.66536774908E+02 -0.49060175858E+02 -0.53385283348E+03  0.54021559686E+03  0.00000000000E+00 0.  1.
         21    1    1    2  504  501 -0.20491676855E+02 -0.23307475816E+02 -0.10286766045E+02  0.32695027220E+02  0.00000000000E+00 0.  1.
         21    1    1    2  505  504  0.41809517226E+02 -0.20014204940E+02 -0.43390401266E+02  0.63492763777E+02  0.00000000000E+00 0. -1.
         -2    1    1    2    0  503  0.45218934537E+02  0.92381856613E+02  0.20866855733E+03  0.23264076661E+03  0.00000000000E+00 0. -1.
<scales pt_clust_3="74.76380" pt_clust_4="31.03461" pt_clust_5="46.00913" pt_clust_6="14000.00000"></scales>
<clustering>
<clus scale="   31.035">  1  4  2 -1</clus>
<clus scale="   46.009">  2  5  1 -1</clus>
<clus scale="   74.764">  2  3  1 -1</clus>
<clus scale="   46.009">  2  3  1 -1</clus>
</clustering>
</event>
<event>
 6    0  0.3082502E+002  0.1235889E+03  0.7546771E-02  0.1237291E+00
          2   -1    0    0  504    0 -0.00000000000E+00  0.00000000000E+00  0.11904476007E+04  0.11904476007E+04  0.00000000000E+00 0.  1.
         21   -1    0    0  505  502  0.00000000000E+00 -0.00000000000E+00 -0.67414001351E+02  0.67414001351E+02  0.00000000000E+00 0.  1.
         21    1    1    2  503  502  0.10796175896E+03 -0.58927350597E+02  0.34358557129E+02  0.12770545992E+03  0.00000000000E+00 0.  1.
         21    1    1    2  504  503  0.39885473580E+02  0.10454793727E+03  0.56686597946E+03  0.57780460440E+03  0.00000000000E+00 0.  1.
         21    1    1    2  505  501 -0.16933825154E+02 -0.42432712513E+02  0.87216060246E+02  0.98457760945E+02  0.00000000000E+00 0.  1.
          2    1    1    2  501    0 -0.13091340738E+03 -0.31878741574E+01  0.43459300253E+03  0.45389377680E+03  0.00000000000E+00 0.  1.
<scales pt_clust_3="14000.00000" pt_clust_4="107.85456" pt_clust_5="45.68686" pt_clust_6="123.58891"></scales>
<clustering>
<clus scale="   45.687">  2  5  1 -1</clus>
<clus scale="  107.855">  1  4  2 -1</clus>
<clus scale="  123.589">  1  6  2 -1</clus>
<clus scale="   45.687">  2  3  1 -1</clus>
</clustering>
</event>
<event>
 6    0  0.3082502E+002  0.9464759E+02  0.7546771E-02  0.1291972E+00
          2   -1    0    0  505    0 -0.00000000000E+00  0.00000000000E+00  0.24974175045E+04  0.24974175045E+04  0.00000000000E+00 0.  1.
         21   -1    0    0  504  502  0.00000000000E+00 -0.00000000000E+00 -0.79552286767E+02  0.79552286767E+02  0.00000000000E+00 0.  1.
         21    1    1    2  503  502  0.34943624296E+02 -0.11018912184E+01 -0.53936989394E+02  0.64276511014E+02  0.00000000000E+00 0.  1.
         21    1    1    2  504  501 -0.42637093096E+02 -0.89007172286E+02  0.13120716657E+03  0.16418136004E+03  0.00000000000E+00 0.  1.
         21    1    1    2  505  503 -0.23343125681E+02 -0.24148367881E+02  0.14119919709E+04  0.14123913661E+04  0.00000000000E+00 0.  1.
          2    1    1    2  501    0  0.31036594481E+02  0.11425743138E+03  0.92860306969E+03  0.93612055413E+03  0.00000000000E+00 0.  1.
<scales pt_clust_3="34.85367" pt_clust_4="14000.00000" pt_clust_5="33.58638" pt_clust_6="94.64759"></scales>
<clustering>
<clus scale="   33.586">  1  5  2 -1</clus>
<clus scale="   34.854">  2  3  1 -1</clus>
<clus scale="   94.648">  1  6  2 -1</clus>
<clus scale="   34.854">  2  3  1 -1</clus>
</clustering>
</event>
<event>
 6    0  0.3082502E+002  0.8053589E+02  0.7546771E-02  0.1327538E+00
         21   -1    0    0  503  502  0.00000000000E+00  0.00000000000E+00  0.52257174098E+03  0.52257174098E+03  0.00000000000E+00 0. -1.
          1   -1    0    0  504    0 -0.00000000000E+00 -0.00000000000E+00 -0.11102104614E+04  0.11102104614E+04  0.00000000000E+00 0. -1.
         21    1    1    2  503  501 -0.32488297107E+02  0.15128537418E+02  0.42009786901E+02  0.55219419490E+02  0.00000000000E+00 0. -1.
         21    1    1    2  504  505 -0.16480388618E+02  0.71399573827E+02 -0.12904409090E+03  0.14839770803E+03  0.00000000000E+00 0. -1.
         21    1    1    2  505  502 -0.37504545275E+02  0.25833362083E+02  0.45793620167E+03  0.46019508724E+03  0.00000000000E+00 0. -1.
          1    1    1    2  501    0  0.86473231000E+02 -0.11236147333E+03 -0.95854061810E+03  0.96896998762E+03  0.00000000000E+00 0. -1.
<scales pt_clust_3="35.83800" pt_clust_4="73.72930" pt_clust_5="80.53589" pt_clust_6="14000.00000"></scales>
<clustering>
<clus scale="   35.838">  1  3  2 -1</clus>
<clus scale="   73.729">  2  4  1 -1</clus>
<clus scale="   80.536">  1  5  2 -1</clus>
<clus scale="   35.838">  1  3  2 -1</clus>
</clustering>
</event>
<event>
 6    0  0.3082502E+002  0.7707602E+02  0.7546771E-02  0.1337560E+00
         21   -1    0    0  503  502  0.00000000000E+00  0.00000000000E+00  0.18713994291E+03  0.18713994291E+03  0.00000000000E+00 0.  1.
         -2   -1    0    0    0  501 -0.00000000000E+00 -0.00000000000E+00 -0.43769195330E+03  0.43769195330E+03  0.00000000000E+00 0. -1.
         21    1    1    2  503  504 -0.54134428304E+02  0.47942479454E+02  0.97394009342E+02  0.12130379516E+03  0.00000000000E+00 0.  1.
         21    1    1    2  504  505  0.89473716397E+02  0.22140108696E+02  0.33424120241E+02  0.98045408627E+02  0.00000000000E+00 0.  1.
         21    1    1    2  505  501  0.33038510307E+02 -0.17858195323E+02 -0.46691363419E+02  0.59921129173E+02  0.00000000000E+00 0.  1.
         -2    1    1    2    0  502 -0.68377798399E+02 -0.52224392827E+02 -0.33467877655E+03  0.34556156325E+03  0.00000000000E+00 0. -1.
<scales pt_clust_3="71.17496" pt_clust_4="14000.00000" pt_clust_5="37.55607" pt_clust_6="77.07602"></scales>
<clustering>
<clus scale="   37.556">  2  5  1 -1</clus>
<clus scale="   71.175">  1  3  2 -1</clus>
<clus scale="   77.076">  2  6  1 -1</clus>
<clus scale="   71.175">  1  3  2 -1</clus>
</clustering>
</event>
<event>
 6    0  0.3082502E+002  0.2667285E+03  0.7546771E-02  0.1103167E+00
          4   -1    0    0  503    0 -0.00000000000E+00  0.00000000000E+00  0.19163643497E+04  0.19163643497E+04  0.00000000000E+00 0.  1.
         21   -1    0    0  505  502  0.00000000000E+00 -0.00000000000E+00 -0.14557186021E+03  0.14557186021E+03  0.00000000000E+00 0.  1.
         21    1    1    2  503  504 -0.26737353670E+02  0.31721166360E+02  0.13186166487E+03  0.13823392181E+03  0.00000000000E+00 0.  1.
         21    1    1    2  504  502  0.27469290317E+02  0.11510700475E+03  0.56083166214E+02  0.13095612237E+03  0.00000000000E+00 0.  1.
         21    1    1    2  505  501 -0.13067037434E+03  0.14104253252E+03  0.14393422436E+02  0.19280797007E+03  0.00000000000E+00 0.  1.
          4    1    1    2  501    0  0.12993843770E+03 -0.28787070363E+03  0.15684542360E+04  0.15999381957E+04  0.00000000000E+00 0.  1.
<scales pt_clust_3="41.48636" pt_clust_4="119.64615" pt_clust_5="14000.00000" pt_clust_6="266.72852"></scales>
<clustering>
<clus scale="   41.486">  1  3  2 -1</clus>
<clus scale="  119.646">  2  4  1 -1</clus>
<clus scale="  266.729">  1  6  2 -1</clus>
<clus scale="  119.646">  2  3  1 -1</clus>
</clustering>
</event>
<event>
 6    0  0.3082502E+002  0.1447499E+03  0.7546771E-02  0.1207077E+00
          3   -1    0    0  505    0 -0.00000000000E+00  0.00000000000E+00  0.20069594942E+03  0.20069594942E+03  0.00000000000E+00 0.  1.
         21   -1    0    0  504  502  0.00000000000E+00 -0.00000000000E+00 -0.22002180920E+03  0.22002180920E+03  0.00000000000E+00 0.  1.
         21    1    1    2  503  501 -0.21091702471E+02 -0.67325060125E+02  0.67697368604E+02  0.97777591246E+02  0.00000000000E+00 0.  1.
         21    1    1    2  504  503 -0.27957235247E+02  0.74088708526E+02 -0.68483199368E+02  0.10469332514E+03  0.00000000000E+00 0.  1.
         21    1    1    2  505  502  0.12073697558E+03  0.24651488011E+02 -0.51194157071E+02  0.13343895553E+03  0.00000000000E+00 0.  1.
          3    1    1    2  501    0 -0.71688037862E+02 -0.31415136412E+02  0.32654128051E+02  0.84807886704E+02  0.00000000000E+00 0.  1.
<scales pt_clust_3="66.52250" pt_clust_4="79.18803" pt_clust_5="126.66181" pt_clust_6="66.52250"></scales>
<clustering>
<clus scale="   66.522">  3  6 -1 -1</clus>
<clus scale="   79.188">  2  4  1 -1</clus>
<clus scale="  126.662">  2  5  1 -1</clus>
<clus scale="   79.188">  2  3  1 -1</clus>
</clustering>
</event>
<event>
 6    0  0.3082502E+002  0.1230457E+03  0.7546771E-02  0.1238155E+00
         21   -1    0    0  504  502  0.00000000000E+00  0.00000000000E+00  0.19580485166E+03  0.19580485166E+03  0.00000000000E+00 0.  1.
          2   -1    0    0  505    0 -0.00000000000E+00 -0.00000000000E+00 -0.22525944528E+04  0.22525944528E+04  0.00000000000E+00 0. -1.
         21    1    1    2  503  502  0.22296114142E+02 -0.11954467052E+03 -0.31970580300E+03  0.34205240158E+03  0.00000000000E+00 0.  1.
         21    1    1    2  504  501  0.26073800280E+02  0.12092372134E+03  0.16111057165E+03  0.20312312951E+03  0.00000000000E+00 0.  1.
         21    1    1    2  505  503 -0.13344454936E+01 -0.50949280799E+02 -0.36897634301E+03  0.37247973322E+03  0.00000000000E+00 0.  1.
          2    1    1    2  501    0 -0.47035468928E+02  0.49570229979E+02 -0.15292180268E+04  0.15307440401E+04  0.00000000000E+00 0. -1.
<scales pt_clust_3="123.04571" pt_clust_4="14000.00000" pt_clust_5="50.96675" pt_clust_6="48.80532"></scales>
<clustering>
<clus scale="   50.967">  2  5  1 -1</clus>
<clus scale="   48.805">  2  6  1 -1</clus>
<clus scale="  123.046">  2  3  1 -1</clus>
<clus scale="  123.046">  1  3  2 -1</clus>
</clustering>
</event>
<event>
 6    0  0.3082502E+002  0.1814740E+03  0.7546771E-02  0.1166384E+00
         21   -1    0    0  503  502  0.00000000000E+00  0.00000000000E+00  0.84586297458E+02  0.84586297458E+02  0.00000000000E+00 0.  1.
         -1   -1    0    0    0  501 -0.00000000000E+00 -0.00000000000E+00 -0.18641352334E+04  0.18641352334E+04  0.00000000000E+00 0.  1.
         21    1    1    2  503  505 -0.81197503330E+02  0.17907959896E+03 -0.65237178413E+02  0.20716762961E+03  0.00000000000E+00 0.  1.
         21    1    1    2  504  502  0.35925297544E+02 -0.41304185036E+00 -0.68001969750E+02  0.76909462988E+02  0.00000000000E+00 0.  1.
         21    1    1    2  505  501 -0.50525691378E+02 -0.49336914809E+02 -0.27501193882E+03  0.28393404717E+03  0.00000000000E+00 0. -1.
         -1    1    1    2    0  504  0.95797897163E+02 -0.12932964230E+03 -0.13712978490E+04  0.13807103911E+04  0.00000000000E+00 0.  1.
<scales pt_clust_3="14000.00000" pt_clust_4="35.92767" pt_clust_5="69.21809" pt_clust_6="181.47399"></scales>
<clustering>
<clus scale="   35.928">  1  4  2 -1</clus>
<clus scale="   69.218">  2  5  1 -1</clus>
<clus scale="  181.474">  2  6  1 -1</clus>
<clus scale="   35.928">  1  3  2 -1</clus>
</clustering>
</event>
<event>
 6    0  0.3082502E+002  0.1446450E+03  0.7546771E-02  0.1207212E+00
         21   -1    0    0  501  502  0.00000000000E+00  0.00000000000E+00  0.12787646616E+02  0.12787646616E+02  0.00000000000E+00 0.  1.
          2   -1    0    0  504    0 -0.00000000000E+00 -0.00000000000E+00 -0.29193599832E+04  0.29193599832E+04  0.00000000000E+00 0. -1.
         21    1    1    2  503  502 -0.11461936057E+03  0.31977745636E+01 -0.65378511347E+03  0.66376411336E+03  0.00000000000E+00 0.  1.
         21    1    1    2  504  505  0.35457457736E+02  0.27007356726E+02 -0.58358146446E+03  0.58528108998E+03  0.00000000000E+00 0.  1.
         21    1    1    2  505  503  0.12588045408E+03  0.34228138724E+02 -0.83769563525E+03  0.84779209216E+03  0.00000000000E+00 0.  1.
          2    1    1    2  501    0 -0.46718551245E+02 -0.64433270013E+02 -0.83151012341E+03  0.83531033433E+03  0.00000000000E+00 0. -1.
<scales pt_clust_3="130.50572" pt_clust_4="36.45903" pt_clust_5="36.45903" pt_clust_6="79.58812"></scales>
<clustering>
<clus scale="   36.459">  4  5 -1 -1</clus>
<clus scale="   79.588">  2  6  1 -1</clus>
<clus scale="  130.506">  1  3  2 -1</clus>
<clus scale="  130.506">  1  3  2 -1</clus>
</clustering>
</event>
<event>
 6    0  0.3082502E+002  0.9361496E+02  0.7546771E-02  0.1294326E+00
          2   -1    0    0  504    0 -0.00000000000E+00  0.00000000000E+00  0.12666856847E+03  0.12666856847E+03  0.00000000000E+00 0. -1.
         21   -1    0    0  505  502  0.00000000000E+00 -0.00000000000E+00 -0.11667771552E+04  0.11667771552E+04  0.00000000000E+00 0. -1.
         21    1    1    2  503  502  0.79007318799E+02  0.49658569951E+02 -0.68536368239E+03  0.69168743457E+03  0.00000000000E+00 0. -1.
         21    1    1    2  504  503  0.19124326896E+02  0.88276434753E+02 -0.11297039298E+03  0.14464016905E+03  0.00000000000E+00 0. -1.
         21    1    1    2  505  501 -0.76545189716E+02 -0.55207753168E+02 -0.32462370574E+03  0.33806450924E+03  0.00000000000E+00 0. -1.
          2    1    1    2  501    0 -0.21586455979E+02 -0.82727251535E+02  0.82849194407E+02  0.11905361079E+03  0.00000000000E+00 0. -1.
<scales pt_clust_3="93.61496" pt_clust_4="37.79144" pt_clust_5="14000.00000" pt_clust_6="85.49721"></scales>
<clustering>
<clus scale="   85.497">  1  6  2 -1</clus>
<clus scale="   37.791">  1  4  2 -1</clus>
<clus scale="   93.615">  2  3  1 -1</clus>
<clus scale="   93.615">  2  3  1 -1</clus>
</clustering>
</event>
<event>
 6    0  0.3082502E+002  0.1486562E+03  0.7546771E-02  0.1202134E+00
         21   -1    0    0  503  502  0.00000000000E+00  0.00000000000E+00  0.60880963319E+03  0.60880963319E+03  0.00000000000E+00 0.  1.
          2   -1    0    0  505    0 -0.00000000000E+00 -0.00000000000E+00 -0.68149902842E+03  0.68149902842E+03  0.00000000000E+00 0.  1.
         21    1    1    2  503  501 -0.11597391659E+03 -0.67013573781E+02  0.26462346267E+03  0.29659120924E+03  0.00000000000E+00 0.  1.
         21    1    1    2  504  502  0.13555257182E+03  0.10227031214E+03  0.30168459248E+03  0.34618970206E+03  0.00000000000E+00 0.  1.
         21    1    1    2  505  504 -0.32784603961E+02  0.23513929287E+02 -0.17238097176E+03  0.17703935877E+03  0.00000000000E+00 0.  1.
          2    1    1    2  501    0  0.13205948735E+02 -0.58770667643E+02 -0.46661647863E+03  0.47048839155E+03  0.00000000000E+00 0.  1.
<scales pt_clust_3="148.65617" pt_clust_4="14000.00000" pt_clust_5="40.34520" pt_clust_6="40.79052"></scales>
<clustering>
<clus scale="   40.345">  2  5  1 -1</clus>
<clus scale="   40.791">  2  6  1 -1</clus>
<clus scale="  148.656">  1  3  2 -1</clus>
<clus scale="  148.656">  1  3  2 -1</clus>
</clustering>
</event>
<event>
 6    0  0.3082502E+002  0.1344052E+03  0.7546771E-02  0.1221062E+00
          2   -1    0    0  504    0 -0.00000000000E+00  0.00000000000E+00  0.12481975277E+04  0.12481975277E+04  0.00000000000E+00 0. -1.
         21   -1    0    0  501  502  0.00000000000E+00 -0.00000000000E+00 -0.22431633224E+03  0.22431633224E+03  0.00000000000E+00 0. -1.
         21    1    1    2  503  505 -0.20575918654E+02  0.74729760017E+02  0.51735452209E+03  0.52312867154E+03  0.00000000000E+00 0. -1.
         21    1    1    2  504  503  0.25899149804E+02  0.40755426423E+02  0.46183685124E+03  0.46435444211E+03  0.00000000000E+00 0. -1.
         21    1    1    2  505  502 -0.31055658717E+02  0.66729806723E+02 -0.18007844790E+03  0.19453937504E+03  0.00000000000E+00 0. -1.
          2    1    1    2  501    0  0.25732427567E+02 -0.18221499316E+03  0.22476827003E+03  0.29049137126E+03  0.00000000000E+00 0. -1.
<scales pt_clust_3="42.81158" pt_clust_4="42.81158" pt_clust_5="73.60245" pt_clust_6="122.97463"></scales>
<clustering>
<clus scale="   42.812">  3  4 -1 -1</clus>
<clus scale="   73.602">  2  5  1 -1</clus>
<clus scale="  122.975">  2  6  1 -1</clus>
<clus scale="   73.602">  2  3  1 -1</clus>
</clustering>
</event>
<event>
 6    0  0.3082502E+002  0.1198329E+03  0.7546771E-02  0.1243373E+00
          1   -1    0    0  504    0 -0.00000000000E+00  0.00000000000E+00  0.16662147699E+03  0.16662147699E+03  0.00000000000E+00 0. -1.
         21   -1    0    0  503  502  0.00000000000E+00 -0.00000000000E+00 -0.80492395993E+03  0.80492395993E+03  0.00000000000E+00 0.  1.
         21    1    1    2  503  505  0.33007621073E+02  0.23269655997E+02 -0.38916843160E+03  0.39125828821E+03  0.00000000000E+00 0.  1.
         21    1    1    2  504  502 -0.29053148326E+02 -0.10617450805E+02  0.96021377918E+02  0.10088072515E+03  0.00000000000E+00 0. -1.
         21    1    1    2  505  501  0.85835113602E+02 -0.66432266793E+02 -0.35787526657E+03  0.37397275198E+03  0.00000000000E+00 0.  1.
          1    1    1    2  501    0 -0.89789586349E+02  0.53780061601E+02  0.12719837312E+02  0.10543367158E+03  0.00000000000E+00 0. -1.
<scales pt_clust_3="39.92783" pt_clust_4="30.93244" pt_clust_5="119.83288" pt_clust_6="14000.00000"></scales>
<clustering>
<clus scale="   30.932">  1  4  2 -1</clus>
<clus scale="   39.928">  2  3  1 -1</clus>
<clus scale="  119.833">  2  5  1 -1</clus>
<clus scale="   39.928">  2  3  1 -1</clus>
</clustering>
</event>
<event>
 6    0  0.3082502E+002  0.1145953E+03  0.7546771E-02  0.1252289E+00
         21   -1    0    0  505  502  0.00000000000E+00  0.00000000000E+00  0.54017891135E+03  0.54017891135E+03  0.00000000000E+00 0. -1.
         -1   -1    0    0    0  501 -0.00000000000E+00 -0.00000000000E+00 -0.23805357802E+03  0.23805357802E+03  0.00000000000E+00 0. -1.
         21    1    1    2  503  502 -0.15925800705E+02  0.53852481976E+02  0.92715297248E+02  0.10839671253E+03  0.00000000000E+00 0. -1.
         21    1    1    2  504  501  0.49565925339E+02  0.70140572275E+02 -0.10946008046E+03  0.13913299411E+03  0.00000000000E+00 0. -1.
         21    1    1    2  505  504 -0.10471105414E+03 -0.72404061879E+02  0.39466973329E+03  0.41469380440E+03  0.00000000000E+00 0. -1.
         -1    1    1    2    0  503  0.71070929508E+02 -0.51588992373E+02 -0.75799616749E+02  0.11600897834E+03  0.00000000000E+00 0. -1.
<scales pt_clust_3="56.15800" pt_clust_4="114.59533" pt_clust_5="14000.00000" pt_clust_6="85.79901"></scales>
<clustering>
<clus scale="   56.158">  1  3  2 -1</clus>
<clus scale="   85.799">  2  6  1 -1</clus>
<clus scale="  114.595">  2  4  1 -1</clus>
<clus scale="   56.158">  1  3  2 -1</clus>
</clustering>
</event>
<event>
 6    0  0.3082502E+002  0.1044610E+03  0.7546771E-02  0.1271185E+00
         21   -1    0    0  504  502  0.00000000000E+00  0.00000000000E+00  0.10461007776E+03  0.10461007776E+03  0.00000000000E+00 0. -1.
          2   -1    0    0  503    0 -0.00000000000E+00 -0.00000000000E+00 -0.67933244586E+03  0.67933244586E+03  0.00000000000E+00 0.  1.
         21    1    1    2  503  505  0.40847803718E+02  0.10347902939E+03 -0.31904410014E+02  0.11573393613E+03  0.00000000000E+00 0. -1.
         21    1    1    2  504  501  0.69198471045E+02  0.18036492309E+02 -0.13149192401E+03  0.14967922210E+03  0.00000000000E+00 0. -1.
         21    1    1    2  505  502 -0.94368919752E+02 -0.55833478320E+02 -0.83847391887E+01  0.10996896911E+03  0.00000000000E+00 0. -1.
          2    1    1    2  501    0 -0.15677355012E+02 -0.65682043383E+02 -0.40294129489E+03  0.40856039628E+03  0.00000000000E+00 0.  1.
<scales pt_clust_3="104.46102" pt_clust_4="63.12975" pt_clust_5="14000.00000" pt_clust_6="67.52711"></scales>
<clustering>
<clus scale="   67.527">  2  6  1 -1</clus>
<clus scale="   63.130">  2  4  1 -1</clus>
<clus scale="  104.461">  2  3  1 -1</clus>
<clus scale="  104.461">  1  3  2 -1</clus>
</clustering>
</event>
<event>
 6    0  0.3082502E+002  0.1260931E+03  0.7546771E-02  0.1233371E+00
         21   -1    0    0  504  502  0.00000000000E+00  0.00000000000E+00  0.31515989130E+02  0.31515989130E+02  0.00000000000E+00 0. -1.
          2   -1    0    0  505    0 -0.00000000000E+00 -0.00000000000E+00 -0.23173319453E+04  0.23173319453E+04  0.00000000000E+00 0. -1.
         21    1    1    2  503  502  0.69280990454E+02 -0.63730249807E+02 -0.86034917107E+02  0.12752806491E+03  0.00000000000E+00 0. -1.
         21    1    1    2  504  501  0.70119360141E+01  0.32349538613E+02 -0.11617491087E+03  0.12079846775E+03  0.00000000000E+00 0.  1.
         21    1    1    2  505  503  0.34368941128E+02 -0.90647812000E+02 -0.59759459893E+03  0.60540693307E+03  0.00000000000E+00 0. -1.
          2    1    1    2  501    0 -0.11066186760E+03  0.12202852319E+03 -0.14860115292E+04  0.14951144687E+04  0.00000000000E+00 0. -1.
<scales pt_clust_3="84.70763" pt_clust_4="33.10075" pt_clust_5="14000.00000" pt_clust_6="126.09312"></scales>
<clustering>
<clus scale="   33.101">  1  4  2 -1</clus>
<clus scale="   84.708">  1  3  2 -1</clus>
<clus scale="  126.093">  1  6  2 -1</clus>
<clus scale="   33.101">  1  3  2 -1</clus>
</clustering>
</event>
<event>
 6    0  0.3082502E+002  0.1821295E+03  0.7546771E-02  0.1165758E+00
         21   -1    0    0  505  502  0.00000000000E+00  0.00000000000E+00  0.56489996274E+02  0.56489996274E+02  0.00000000000E+00 0.  1.
         -2   -1    0    0    0  501 -0.00000000000E+00 -0.00000000000E+00 -0.10136742724E+04  0.10136742724E+04  0.00000000000E+00 0. -1.
         21    1    1    2  503  501  0.64671378123E+02 -0.80488486149E+02 -0.12030708083E+03  0.15853888245E+03  0.00000000000E+00 0.  1.
         21    1    1    2  504  502 -0.35016564120E+02 -0.35465988127E+01 -0.20122285095E+03  0.20427768814E+03  0.00000000000E+00 0.  1.
         21    1    1    2  505  503  0.57990247502E+02 -0.27505678562E+02 -0.89673689947E+01  0.64806210082E+02  0.00000000000E+00 0.  1.
         -2    1    1    2    0  504 -0.87645061506E+02  0.11154076352E+03 -0.62668697539E+03  0.64254148804E+03  0.00000000000E+00 0. -1.
<scales pt_clust_3="63.38163" pt_clust_4="35.07820" pt_clust_5="63.38163" pt_clust_6="177.95515"></scales>
<clustering>
<clus scale="   35.078">  4  6 -1 -1</clus>
<clus scale="   63.382">  3  5 -1 -1</clus>
<clus scale="  177.955">  2  4  1 -1</clus>
<clus scale="  182.129">  1  3  2 -1</clus>
</clustering>
</event>
<event>
 6    0  0.3082502E+002  0.1104277E+03  0.7546771E-02  0.1259780E+00
         -4   -1    0    0    0  501 -0.00000000000E+00  0.00000000000E+00  0.43357603595E+03  0.43357603595E+03  0.00000000000E+00 0. -1.
         21   -1    0    0  503  502  0.00000000000E+00 -0.00000000000E+00 -0.10053583154E+04  0.10053583154E+04  0.00000000000E+00 0.  1.
         21    1    1    2  503  504  0.11127542596E+03 -0.83608798442E+00 -0.93601682307E+03  0.94260830281E+03  0.00000000000E+00 0.  1.
         21    1    1    2  504  501 -0.45608511254E+02  0.36040271706E+02 -0.42578878441E+02  0.72055522847E+02  0.00000000000E+00 0.  1.
         21    1    1    2  505  502 -0.65284197409E+02  0.12773239737E+02  0.16811239334E+03  0.18079535082E+03  0.00000000000E+00 0.  1.
         -4    1    1    2    0  505 -0.38271729892E+00 -0.47977423459E+02  0.23870102875E+03  0.24347517484E+03  0.00000000000E+00 0. -1.
<scales pt_clust_3="14000.00000" pt_clust_4="55.95013" pt_clust_5="110.42774" pt_clust_6="47.97895"></scales>
<clustering>
<clus scale="   47.979">  1  6  2 -1</clus>
<clus scale="   55.950">  1  4  2 -1</clus>
<clus scale="  110.428">  1  5  2 -1</clus>
<clus scale="  110.428">  2  3  1 -1</clus>
</clustering>
</event>
<event>
 6    0  0.3082502E+002  0.1027866E+03  0.7546771E-02  0.1274543E+00
         21   -1    0    0  505  502  0.00000000000E+00  0.00000000000E+00  0.30250771099E+04  0.30250771099E+04  0.00000000000E+00 0. -1.
          2   -1    0    0  504    0 -0.00000000000E+00 -0.00000000000E+00 -0.19176270492E+03  0.19176270492E+03  0.00000000000E+00 0. -1.
         21    1    1    2  503  501 -0.28929557294E+02  0.77031023676E+02  0.31120912443E+02  0.87972774681E+02  0.00000000000E+00 0. -1.
         21    1    1    2  504  502  0.74268779311E+02 -0.60132878804E+02  0.13150001708E+04  0.13184677713E+04  0.00000000000E+00 0. -1.
         21    1    1    2  505  503 -0.67330292627E+02 -0.48116435617E+02  0.16454860160E+04  0.16475657160E+04  0.00000000000E+00 0. -1.
          2    1    1    2  501    0  0.21991070610E+02  0.31218290745E+02 -0.15829269429E+03  0.16283355283E+03  0.00000000000E+00 0. -1.
<scales pt_clust_3="102.78658" pt_clust_4="14000.00000" pt_clust_5="81.55583" pt_clust_6="38.18624"></scales>
<clustering>
<clus scale="   38.186">  2  6  1 -1</clus>
<clus scale="   81.556">  1  5  2 -1</clus>
<clus scale="  102.787">  2  3  1 -1</clus>
<clus scale="   81.556">  1  3  2 -1</clus>
</clustering>
</event>
<event>
 6    0  0.3082502E+002  0.7352089E+02  0.7546771E-02  0.1348513E+00
         -2   -1    0    0    0  501 -0.00000000000E+00  0.00000000000E+00  0.47144114319E+03  0.47144114319E+03  0.00000000000E+00 0. -1.
         21   -1    0    0  503  502  0.00000000000E+00 -0.00000000000E+00 -0.14684672758E+04  0.14684672758E+04  0.00000000000E+00 0.  1.
         21    1    1    2  503  501  0.16681134353E+02  0.28624776198E+02  0.10198178962E+03  0.10722837063E+03  0.00000000000E+00 0.  1.
         21    1    1    2  504  502  0.59508960954E+02  0.45525468790E+02 -0.10937860392E+04  0.10963492985E+04  0.00000000000E+00 0.  1.
         21    1    1    2  505  504 -0.17261315982E+02 -0.82558160896E+02 -0.36349210778E+03  0.37314918649E+03  0.00000000000E+00 0. -1.
         -2    1    1    2    0  505 -0.58928779325E+02  0.84079159075E+01  0.35827022472E+03  0.36318156341E+03  0.00000000000E+00 0. -1.
<scales pt_clust_3="33.13062" pt_clust_4="14000.00000" pt_clust_5="73.52089" pt_clust_6="56.07809"></scales>
<clustering>
<clus scale="   33.131">  1  3  2 -1</clus>
<clus scale="   56.078">  1  6  2 -1</clus>
<clus scale="   73.521">  1  5  2 -1</clus>
<clus scale="   73.521">  2  3  1 -1</clus>
</clustering>
</event>
<event>
 6    0  0.3082502E+002  0.8098419E+02  0.7546771E-02  0.1326281E+00
         21   -1    0    0  505  502  0.00000000000E+00  0.00000000000E+00  0.19191585370E+04  0.19191585370E+04  0.00000000000E+00 0.  1.
         -1   -1    0    0    0  501 -0.00000000000E+00 -0.00000000000E+00 -0.36726752684E+02  0.36726752684E+02  0.00000000000E+00 0. -1.
         21    1    1    2  503  501  0.30985799644E+02  0.54590163682E+01  0.42714976728E+02  0.53051766004E+02  0.00000000000E+00 0.  1.
         21    1    1    2  504  502 -0.33141390483E+01 -0.89738447671E+02  0.63228775659E+03  0.63863274238E+03  0.00000000000E+00 0.  1.
         21    1    1    2  505  503  0.44285895094E+02  0.67798505864E+02  0.11839785609E+04  0.11867447537E+04  0.00000000000E+00 0.  1.
         -1    1    1    2    0  504 -0.71957555689E+02  0.16480925438E+02  0.23450490170E+02  0.77456027611E+02  0.00000000000E+00 0. -1.
<scales pt_clust_3="31.46300" pt_clust_4="14000.00000" pt_clust_5="80.98419" pt_clust_6="50.12608"></scales>
<clustering>
<clus scale="   31.463">  2  3  1 -1</clus>
<clus scale="   50.126">  2  6  1 -1</clus>
<clus scale="   80.984">  1  5  2 -1</clus>
<clus scale="   80.984">  1  3  2 -1</clus>
</clustering>
</event>
<event>
 6    0  0.3082502E+002  0.1208534E+03  0.7546771E-02  0.1241696E+00
          2   -1    0    0  504    0 -0.00000000000E+00  0.00000000000E+00  0.47152934362E+03  0.47152934362E+03  0.00000000000E+00 0.  1.
         21   -1    0    0  503  502  0.00000000000E+00 -0.00000000000E+00 -0.48607604929E+03  0.48607604929E+03  0.00000000000E+00 0. -1.
         21    1    1    2  503  501  0.33490559021E+01  0.34348117218E+02 -0.60173728110E+02  0.69367765471E+02  0.00000000000E+00 0.  1.
         21    1    1    2  504  505 -0.45262691515E+02  0.25205738968E+01  0.37965720471E+03  0.38235409979E+03  0.00000000000E+00 0.  1.
         21    1    1    2  505  502  0.78142696843E+02  0.63997857285E+02 -0.37708877773E+03  0.39038180426E+03  0.00000000000E+00 0. -1.
          2    1    1    2  501    0 -0.36229061230E+02 -0.10086654840E+03  0.43058595464E+02  0.11550172339E+03  0.00000000000E+00 0.  1.
<scales pt_clust_3="34.51100" pt_clust_4="45.32836" pt_clust_5="120.85338" pt_clust_6="14000.00000"></scales>
<clustering>
<clus scale="   34.511">  2  3  1 -1</clus>
<clus scale="   45.328">  1  4  2 -1</clus>
<clus scale="  120.853">  2  5  1 -1</clus>
<clus scale="   34.511">  2  3  1 -1</clus>
</clustering>
</event>
<event>
 6    0  0.3082502E+002  0.6437398E+02  0.7546771E-02  0.1380342E+00
         21   -1    0    0  503  502  0.00000000000E+00  0.00000000000E+00  0.16478065784E+03  0.16478065784E+03  0.00000000000E+00 0. -1.
          1   -1    0    0  504    0 -0.00000000000E+00 -0.00000000000E+00 -0.58627950254E+03  0.58627950254E+03  0.00000000000E+00 0. -1.
         21    1    1    2  503  501  0.39763159929E+02  0.16295737712E+02  0.80779725848E+02  0.91498765364E+02  0.00000000000E+00 0. -1.
         21    1    1    2  504  505 -0.39318916116E+02 -0.18745909730E+02 -0.36726307768E+03  0.36983720002E+03  0.00000000000E+00 0. -1.
         21    1    1    2  505  502 -0.30428040123E+02 -0.76461371789E+02  0.42895365897E+02  0.92802044251E+02  0.00000000000E+00 0. -1.
          1    1    1    2  501    0  0.29983796310E+02  0.78911543808E+02 -0.17791085877E+03  0.19692215074E+03  0.00000000000E+00 0. -1.
<scales pt_clust_3="42.97278" pt_clust_4="42.85682" pt_clust_5="64.37398" pt_clust_6="14000.00000"></scales>
<clustering>
<clus scale="   42.973">  1  3  2 -1</clus>
<clus scale="   42.857">  2  4  1 -1</clus>
<clus scale="   64.374">  1  5  2 -1</clus>
<clus scale="   42.973">  1  3  2 -1</clus>
</clustering>
</event>
<event>
 6    0  0.3082502E+002  0.7881599E+02  0.7546771E-02  0.1332445E+00
         21   -1    0    0  503  502  0.00000000000E+00  0.00000000000E+00  0.27950368008E+02  0.27950368008E+02  0.00000000000E+00 0. -1.
          1   -1    0    0  505    0 -0.00000000000E+00 -0.00000000000E+00 -0.15427053546E+04  0.15427053546E+04  0.00000000000E+00 0. -1.
         21    1    1    2  503  504 -0.72350104689E+02 -0.14399898484E+02 -0.50624516776E+02  0.89469192595E+02  0.00000000000E+00 0. -1.
         21    1    1    2  504  501 -0.33878187097E+02 -0.10741616947E+02 -0.20073194578E+03  0.20385393779E+03  0.00000000000E+00 0. -1.
         21    1    1    2  505  502  0.12020321001E+03 -0.19470639590E+01 -0.53689075675E+03  0.55018568450E+03  0.00000000000E+00 0. -1.
          1    1    1    2  501    0 -0.13974918221E+02  0.27088579390E+02 -0.72650776732E+03  0.72714690775E+03  0.00000000000E+00 0. -1.
<scales pt_clust_3="14000.00000" pt_clust_4="37.55950" pt_clust_5="78.81599" pt_clust_6="30.48097"></scales>
<clustering>
<clus scale="   30.481">  2  6  1 -1</clus>
<clus scale="   37.560">  2  4  1 -1</clus>
<clus scale="   78.816">  2  5  1 -1</clus>
<clus scale="   78.816">  1  3  2 -1</clus>
</clustering>
</event>
<event>
 6    0  0.3082502E+002  0.8408915E+02  0.7546771E-02  0.1317832E+00
         -2   -1    0    0    0  501 -0.00000000000E+00  0.00000000000E+00  0.36731044199E+03  0.36731044199E+03  0.00000000000E+00 0. -1.
         21   -1    0    0  505  502  0.00000000000E+00 -0.00000000000E+00 -0.89788843301E+02  0.89788843301E+02  0.00000000000E+00 0. -1.
         21    1    1    2  503  502 -0.28763921587E+02 -0.33102602862E+02 -0.24458067409E+02  0.50212972056E+02  0.00000000000E+00 0. -1.
         21    1    1    2  504  503 -0.53843966982E+02  0.38886729323E+02  0.50097480540E+02  0.83193197164E+02  0.00000000000E+00 0. -1.
         21    1    1    2  505  501  0.10254976722E+03 -0.32689453024E+02  0.49345394608E+02  0.11840617833E+03  0.00000000000E+00 0. -1.
         -2    1    1    2    0  504 -0.19941878654E+02  0.26905326563E+02  0.20253679095E+03  0.20528693775E+03  0.00000000000E+00 0. -1.
<scales pt_clust_3="43.36060" pt_clust_4="84.08915" pt_clust_5="14000.00000" pt_clust_6="33.48993"></scales>
<clustering>
<clus scale="   33.490">  1  6  2 -1</clus>
<clus scale="   43.361">  2  3  1 -1</clus>
<clus scale="   84.089">  1  4  2 -1</clus>
<clus scale="   43.361">  2  3  1 -1</clus>
</clustering>
</event>
<event>
 6    0  0.3082502E+002  0.2139252E+03  0.7546771E-02  0.1138495E+00
         21   -1    0    0  503  502  0.00000000000E+00  0.00000000000E+00  0.28793878200E+03  0.28793878200E+03  0.00000000000E+00 0. -1.
         -1   -1    0    0    0  501 -0.00000000000E+00 -0.00000000000E+00 -0.76935703333E+03  0.76935703333E+03  0.00000000000E+00 0. -1.
         21    1    1    2  503  501  0.35840490593E+02  0.13279601986E+02  0.29221875240E+02  0.48112436931E+02  0.00000000000E+00 0.  1.
         21    1    1    2  504  502 -0.10128618241E+03  0.21800897417E+02  0.16561789018E+03  0.19535469133E+03  0.00000000000E+00 0. -1.
         21    1    1    2  505  504 -0.12881865010E+03  0.10606119414E+03 -0.11300701207E+03  0.20152867362E+03  0.00000000000E+00 0. -1.
         -1    1    1    2    0  505  0.19426434191E+03 -0.14114169354E+03 -0.56325100468E+03  0.61230001345E+03  0.00000000000E+00 0. -1.
<scales pt_clust_3="38.22157" pt_clust_4="81.62375" pt_clust_5="213.92524" pt_clust_6="14000.00000"></scales>
<clustering>
<clus scale="   38.222">  1  3  2 -1</clus>
<clus scale="   81.624">  1  4  2 -1</clus>
<clus scale="  213.925">  1  5  2 -1</clus>
<clus scale="   38.222">  1  3  2 -1</clus>
</clustering>
</event>
<event>
 6    0  0.3082502E+002  0.9052451E+02  0.7546771E-02  0.1301586E+00
         21   -1    0    0  505  502  0.00000000000E+00  0.00000000000E+00  0.24685649961E+03  0.24685649961E+03  0.00000000000E+00 0. -1.
          2   -1    0    0  503    0 -0.00000000000E+00 -0.00000000000E+00 -0.83443225574E+03  0.83443225574E+03  0.00000000000E+00 0. -1.
         21    1    1    2  503  504  0.21259185370E+02 -0.21386637648E+02 -0.63652527446E+03  0.63723917508E+03  0.00000000000E+00 0. -1.
         21    1    1    2  504  502 -0.62950643854E+02 -0.59293200430E+02  0.14559583289E+03  0.16934170701E+03  0.00000000000E+00 0. -1.
         21    1    1    2  505  501 -0.33545254492E+02  0.76308696048E+02  0.58764376858E+02  0.10198800507E+03  0.00000000000E+00 0. -1.
          2    1    1    2  501    0  0.75236712976E+02  0.43711420303E+01 -0.15541069141E+03  0.17271986819E+03  0.00000000000E+00 0. -1.
<scales pt_clust_3="30.15529" pt_clust_4="14000.00000" pt_clust_5="80.28744" pt_clust_6="90.52451"></scales>
<clustering>
<clus scale="   30.155">  2  3  1 -1</clus>
<clus scale="   80.287">  1  5  2 -1</clus>
<clus scale="   90.525">  2  6  1 -1</clus>
<clus scale="   80.287">  1  3  2 -1</clus>
</clustering>
</event>
<event>
 6    0  0.3082502E+002  0.6796661E+02  0.7546771E-02  0.1367147E+00
         21   -1    0    0  501  502  0.00000000000E+00  0.00000000000E+00  0.37075008773E+03  0.37075008773E+03  0.00000000000E+00 0. -1.
          1   -1    0    0  503    0 -0.00000000000E+00 -0.00000000000E+00 -0.14175260435E+04  0.14175260435E+04  0.00000000000E+00 0.  1.
         21    1    1    2  503  505 -0.30448687173E+02 -0.12166967396E+02 -0.18933641383E+03  0.19215471695E+03  0.00000000000E+00 0.  1.
         21    1    1    2  504  502 -0.12304989519E+02 -0.61991415311E+02  0.26560463250E+03  0.27302045555E+03  0.00000000000E+00 0. -1.
         21    1    1    2  505  504 -0.20995238123E+01  0.10705193476E+03  0.70540832538E+02  0.12822064495E+03  0.00000000000E+00 0. -1.
          1    1    1    2  501    0  0.44853200505E+02 -0.32893552055E+02 -0.11935850070E+04  0.11948803138E+04  0.00000000000E+00 0.  1.
<scales pt_clust_3="32.78960" pt_clust_4="67.96661" pt_clust_5="14000.00000" pt_clust_6="47.25335"></scales>
<clustering>
<clus scale="   32.790">  2  3  1 -1</clus>
<clus scale="   47.253">  2  6  1 -1</clus>
<clus scale="   67.967">  1  4  2 -1</clus>
<clus scale="   67.967">  1  3  2 -1</clus>
</clustering>
</event>
<event>
 6    0  0.3082502E+002  0.1298926E+03  0.7546771E-02  0.1227615E+00
         21   -1    0    0  503  502  0.00000000000E+00  0.00000000000E+00  0.20188457634E+02  0.20188457634E+02  0.00000000000E+00 0. -1.
          2   -1    0    0  505    0 -0.00000000000E+00 -0.00000000000E+00 -0.37907052795E+04  0.37907052795E+04  0.00000000000E+00 0. -1.
         21    1    1    2  503  504 -0.43415075949E+02  0.68297109768E+02 -0.29029072525E+03  0.30136036433E+03  0.00000000000E+00 0. -1.
         21    1    1    2  504  501  0.19179185547E+02 -0.48967946314E+02 -0.10753095720E+04  0.10765948061E+04  0.00000000000E+00 0. -1.
         21    1    1    2  505  502 -0.46947970259E+02  0.29369774976E+02 -0.44755516246E+02  0.71202189769E+02  0.00000000000E+00 0. -1.
          2    1    1    2  501    0  0.71183860661E+02 -0.48698938430E+02 -0.23601610084E+04  0.23617363769E+04  0.00000000000E+00 0. -1.
<scales pt_clust_3="122.11954" pt_clust_4="34.56085" pt_clust_5="55.37775" pt_clust_6="34.56085"></scales>
<clustering>
<clus scale="   34.561">  4  6 -1 -1</clus>
<clus scale="   55.378">  1  5  2 -1</clus>
<clus scale="  122.120">  1  3  2 -1</clus>
<clus scale="   55.378">  1  3  2 -1</clus>
</clustering>
</event>
<event>
 6    0  0.3082502E+002  0.9959999E+02  0.7546771E-02  0.1281139E+00
         21   -1    0    0  505  502  0.00000000000E+00  0.00000000000E+00  0.46097423944E+02  0.46097423944E+02  0.00000000000E+00 0.  1.
          1   -1    0    0  504    0 -0.00000000000E+00 -0.00000000000E+00 -0.36500917205E+04  0.36500917205E+04  0.00000000000E+00 0. -1.
         21    1    1    2  503  501  0.56810529825E+02  0.90144256323E+02 -0.42510535059E+02  0.11471952248E+03  0.00000000000E+00 0.  1.
         21    1    1    2  504  502  0.11559348093E+02 -0.45160615079E+02 -0.60317909416E+03  0.60497778415E+03  0.00000000000E+00 0. -1.
         21    1    1    2  505  503  0.24021984867E+02 -0.30666949387E+02 -0.37112432894E+02  0.53803812290E+02  0.00000000000E+00 0.  1.
          1    1    1    2  501    0 -0.92391862785E+02 -0.14316691856E+02 -0.29211922344E+04  0.29226880255E+04  0.00000000000E+00 0. -1.
<scales pt_clust_3="99.59999" pt_clust_4="47.46764" pt_clust_5="38.95533" pt_clust_6="14000.00000"></scales>
<clustering>
<clus scale="   38.955">  1  5  2 -1</clus>
<clus scale="   47.468">  2  4  1 -1</clus>
<clus scale="   99.600">  1  3  2 -1</clus>
<clus scale="   38.955">  1  3  2 -1</clus>
</clustering>
</event>
<event>
 6    0  0.3082502E+002  0.7907232E+02  0.7546771E-02  0.1331705E+00
         21   -1    0    0  505  502  0.00000000000E+00  0.00000000000E+00  0.25410620474E+03  0.25410620474E+03  0.00000000000E+00 0. -1.
          2   -1    0    0  504    0 -0.00000000000E+00 -0.00000000000E+00 -0.75211472699E+03  0.75211472699E+03  0.00000000000E+00 0. -1.
         21    1    1    2  503  502  0.36441114193E+02 -0.26692735951E+01 -0.11554862976E+02  0.38322247893E+02  0.00000000000E+00 0.  1.
         21    1    1    2  504  503  0.56580938845E+02 -0.69644897783E+02 -0.18978356205E+03  0.20992764194E+03  0.00000000000E+00 0. -1.
         21    1    1    2  505  501 -0.20259829861E+02  0.42989919223E+02  0.22523940335E+03  0.23019857228E+03  0.00000000000E+00 0. -1.
          2    1    1    2  501    0 -0.72762223177E+02  0.29324252155E+02 -0.52190950057E+03  0.52777246961E+03  0.00000000000E+00 0. -1.
<scales pt_clust_3="36.53874" pt_clust_4="14000.00000" pt_clust_5="42.88830" pt_clust_6="79.07232"></scales>
<clustering>
<clus scale="   36.539">  1  3  2 -1</clus>
<clus scale="   42.888">  1  5  2 -1</clus>
<clus scale="   79.072">  2  6  1 -1</clus>
<clus scale="   36.539">  1  3  2 -1</clus>
</clustering>
</event>
<event>
 6    0  0.3082502E+002  0.1299340E+03  0.7546771E-02  0.1227554E+00
          2   -1    0    0  503    0 -0.00000000000E+00  0.00000000000E+00  0.59112894501E+03  0.59112894501E+03  0.00000000000E+00 0. -1.
         21   -1    0    0  504  502  0.00000000000E+00 -0.00000000000E+00 -0.78725080581E+03  0.78725080581E+03  0.00000000000E+00 0. -1.
         21    1    1    2  503  505 -0.25683654680E+02 -0.33292180094E+02  0.43407458203E+02  0.60433656192E+02  0.00000000000E+00 0. -1.
         21    1    1    2  504  501 -0.91531929766E+02  0.99055843151E+02 -0.19785085714E+03  0.23944752223E+03  0.00000000000E+00 0. -1.
         21    1    1    2  505  502  0.32513573555E+02  0.17505891921E+02 -0.55266066421E+03  0.55389294858E+03  0.00000000000E+00 0. -1.
          2    1    1    2  501    0  0.84702010891E+02 -0.83269554977E+02  0.51098220234E+03  0.52460562382E+03  0.00000000000E+00 0. -1.
<scales pt_clust_3="40.82458" pt_clust_4="14000.00000" pt_clust_5="36.92680" pt_clust_6="129.93398"></scales>
<clustering>
<clus scale="   36.927">  2  5  1 -1</clus>
<clus scale="   40.825">  1  3  2 -1</clus>
<clus scale="  129.934">  1  6  2 -1</clus>
<clus scale="   36.927">  2  3  1 -1</clus>
</clustering>
</event>
<event>
 6    0  0.3082502E+002  0.5806180E+02  0.7546771E-02  0.1406150E+00
          2   -1    0    0  504    0 -0.00000000000E+00  0.00000000000E+00  0.30329508198E+04  0.30329508198E+04  0.00000000000E+00 0.  1.
         21   -1    0    0  505  502  0.00000000000E+00 -0.00000000000E+00 -0.44377079832E+02  0.44377079832E+02  0.00000000000E+00 0.  1.
         21    1    1    2  503  502 -0.30407498914E+02  0.48105077808E+02  0.14834497108E+03  0.15888657887E+03  0.00000000000E+00 0.  1.
         21    1    1    2  504  503  0.42639425471E+01 -0.36494764973E+02  0.98237783312E+03  0.98306472629E+03  0.00000000000E+00 0.  1.
         21    1    1    2  505  501  0.10939702761E+01 -0.94048446021E+02  0.20826855556E+02  0.96333093391E+02  0.00000000000E+00 0.  1.
          2    1    1    2  501    0  0.25049586090E+02  0.82438133186E+02  0.18370240802E+04  0.18390435010E+04  0.00000000000E+00 0.  1.
<scales pt_clust_3="54.44067" pt_clust_4="36.74301" pt_clust_5="58.06180" pt_clust_6="14000.00000"></scales>
<clustering>
<clus scale="   36.743">  1  4  2 -1</clus>
<clus scale="   54.441">  2  3  1 -1</clus>
<clus scale="   58.062">  2  5  1 -1</clus>
<clus scale="   54.441">  2  3  1 -1</clus>
</clustering>
</event>
<event>
 6    0  0.3082502E+002  0.9161486E+02  0.7546771E-02  0.1298988E+00
         21   -1    0    0  505  502  0.00000000000E+00  0.00000000000E+00  0.51079970220E+03  0.51079970220E+03  0.00000000000E+00 0.  1.
          2   -1    0    0  504    0 -0.00000000000E+00 -0.00000000000E+00 -0.63937234937E+03  0.63937234937E+03  0.00000000000E+00 0.  1.
         21    1    1    2  503  501 -0.96218893047E+02  0.51951224180E+02  0.19251868999E+03  0.22140562565E+03  0.00000000000E+00 0.  1.
         21    1    1    2  504  502 -0.33296037775E+02 -0.10535817485E+02 -0.12567415820E+03  0.13043628184E+03  0.00000000000E+00 0.  1.
         21    1    1    2  505  503  0.71664955299E+02  0.36836713161E+02  0.29116663887E+03  0.30211061029E+03  0.00000000000E+00 0.  1.
          2    1    1    2  501    0  0.57849975524E+02 -0.78252119855E+02 -0.48658381785E+03  0.49621953380E+03  0.00000000000E+00 0.  1.
<scales pt_clust_3="91.61486" pt_clust_4="34.92320" pt_clust_5="80.20954" pt_clust_6="14000.00000"></scales>
<clustering>
<clus scale="   34.923">  2  4  1 -1</clus>
<clus scale="   80.210">  1  5  2 -1</clus>
<clus scale="   91.615">  1  3  2 -1</clus>
<clus scale="   80.210">  1  3  2 -1</clus>
</clustering>
</event>
<event>
 6    0  0.3082502E+002  0.1124131E+03  0.7546771E-02  0.1256165E+00
         21   -1    0    0  505  502  0.00000000000E+00  0.00000000000E+00  0.89072265264E+03  0.89072265264E+03  0.00000000000E+00 0. -1.
          2   -1    0    0  504    0 -0.00000000000E+00 -0.00000000000E+00 -0.69585696706E+03  0.69585696706E+03  0.00000000000E+00 0. -1.
         21    1    1    2  503  502  0.37068616387E+02 -0.49753774427E+01  0.86988402501E+02  0.94688008065E+02  0.00000000000E+00 0. -1.
         21    1    1    2  504  503 -0.12769778235E+03  0.14440337282E+03 -0.33489798312E+02  0.19565434901E+03  0.00000000000E+00 0. -1.
         21    1    1    2  505  501  0.46117778880E+02 -0.41150994495E+02  0.71241300844E+03  0.71508918917E+03  0.00000000000E+00 0. -1.
          2    1    1    2  501    0  0.44511387079E+02 -0.98277000880E+02 -0.57104592704E+03  0.58114807345E+03  0.00000000000E+00 0. -1.
<scales pt_clust_3="37.40103" pt_clust_4="112.41305" pt_clust_5="91.38006" pt_clust_6="14000.00000"></scales>
<clustering>
<clus scale="   37.401">  1  3  2 -1</clus>
<clus scale="   91.380">  1  5  2 -1</clus>
<clus scale="  112.413">  1  4  2 -1</clus>
<clus scale="   37.401">  1  3  2 -1</clus>
</clustering>
</event>
<event>
 6    0  0.3082502E+002  0.9235975E+02  0.7546771E-02  0.1297236E+00
         21   -1    0    0  501  502  0.00000000000E+00  0.00000000000E+00  0.70132757617E+03  0.70132757617E+03  0.00000000000E+00 0. -1.
          3   -1    0    0  505    0 -0.00000000000E+00 -0.00000000000E+00 -0.80805412138E+02  0.80805412138E+02  0.00000000000E+00 0. -1.
         21    1    1    2  503  504 -0.10435444615E+03 -0.25763885743E+02  0.32658292421E+03  0.34381686205E+03  0.00000000000E+00 0. -1.
         21    1    1    2  504  502  0.30344766209E+02 -0.74923212064E+01  0.15267769645E+03  0.15584421294E+03  0.00000000000E+00 0. -1.
         21    1    1    2  505  503  0.12099173531E+02 -0.37091347691E+02 -0.53572201979E+02  0.66273214035E+02  0.00000000000E+00 0. -1.
          3    1    1    2  501    0  0.61910506408E+02  0.70347554640E+02  0.19483374535E+03  0.21619869929E+03  0.00000000000E+00 0. -1.
<scales pt_clust_3="92.35975" pt_clust_4="31.25603" pt_clust_5="39.20798" pt_clust_6="14000.00000"></scales>
<clustering>
<clus scale="   31.256">  1  4  2 -1</clus>
<clus scale="   39.208">  2  5  1 -1</clus>
<clus scale="   92.360">  1  3  2 -1</clus>
<clus scale="   31.256">  1  3  2 -1</clus>
</clustering>
</event>
<event>
 6    0  0.3082502E+002  0.1444265E+03  0.7546771E-02  0.1207494E+00
         -1   -1    0    0    0  501 -0.00000000000E+00  0.00000000000E+00  0.91125905034E+02  0.91125905034E+02  0.00000000000E+00 0.  1.
         21   -1    0    0  503  502  0.00000000000E+00 -0.00000000000E+00 -0.17202949309E+04  0.17202949309E+04  0.00000000000E+00 0.  1.
         21    1    1    2  503  505 -0.17075023418E+02 -0.90637734898E+02 -0.33017760608E+03  0.34281774599E+03  0.00000000000E+00 0.  1.
         21    1    1    2  504  502  0.86076430720E+01 -0.69543969342E+02 -0.12449432339E+04  0.12469138345E+04  0.00000000000E+00 0.  1.
         21    1    1    2  505  501  0.26462390220E+02 -0.15416407740E+02 -0.31165437487E+02  0.43694487267E+02  0.00000000000E+00 0.  1.
         -1    1    1    2    0  504 -0.17995009874E+02  0.17559811198E+03 -0.22882748436E+02  0.17799476815E+03  0.00000000000E+00 0.  1.
<scales pt_clust_3="14000.00000" pt_clust_4="70.29059" pt_clust_5="30.62554" pt_clust_6="144.42651"></scales>
<clustering>
<clus scale="   30.626">  1  5  2 -1</clus>
<clus scale="   70.291">  2  4  1 -1</clus>
<clus scale="  144.427">  1  6  2 -1</clus>
<clus scale="   70.291">  2  3  1 -1</clus>
</clustering>
</event>
<event>
 6    0  0.3082502E+002  0.7040276E+02  0.7546771E-02  0.1358729E+00
         -1   -1    0    0    0  501 -0.00000000000E+00  0.00000000000E+00  0.63110958681E+03  0.63110958681E+03  0.00000000000E+00 0. -1.
         21   -1    0    0  504  502  0.00000000000E+00 -0.00000000000E+00 -0.45697139251E+03  0.45697139251E+03  0.00000000000E+00 0.  1.
         21    1    1    2  503  502 -0.69280967281E+02 -0.12517812747E+02 -0.24533554576E+03  0.25523729758E+03  0.00000000000E+00 0.  1.
         21    1    1    2  504  505  0.49451358013E+02  0.70706364599E+02 -0.18677942417E+03  0.20574591149E+03  0.00000000000E+00 0.  1.
         21    1    1    2  505  501 -0.53958515656E+02 -0.54044071391E+02  0.41682496430E+03  0.42376329942E+03  0.00000000000E+00 0. -1.
         -1    1    1    2    0  503  0.73788124924E+02 -0.41444804618E+01  0.18942819992E+03  0.20333447082E+03  0.00000000000E+00 0. -1.
<scales pt_clust_3="70.40276" pt_clust_4="61.04615" pt_clust_5="14000.00000" pt_clust_6="69.78379"></scales>
<clustering>
<clus scale="   70.403">  2  3  1 -1</clus>
<clus scale="   61.046">  2  4  1 -1</clus>
<clus scale="   69.784">  2  6  1 -1</clus>
<clus scale="   70.403">  2  3  1 -1</clus>
</clustering>
</event>
<event>
 6    0  0.3082502E+002  0.1019484E+03  0.7546771E-02  0.1276251E+00
          2   -1    0    0  504    0 -0.00000000000E+00  0.00000000000E+00  0.28472899987E+04  0.28472899987E+04  0.00000000000E+00 0. -1.
         21   -1    0    0  505  502  0.00000000000E+00 -0.00000000000E+00 -0.26536672369E+03  0.26536672369E+03  0.00000000000E+00 0.  1.
         21    1    1    2  503  501  0.38844311317E+02 -0.49523570027E+02  0.34280767423E+03  0.34853775408E+03  0.00000000000E+00 0. -1.
         21    1    1    2  504  502  0.22749188829E+01 -0.33258148943E+02 -0.60132036443E+02  0.68754211026E+02  0.00000000000E+00 0.  1.
         21    1    1    2  505  503 -0.60151054694E+02  0.11921979655E+03 -0.17536055095E+03  0.22041513582E+03  0.00000000000E+00 0.  1.
          2    1    1    2  501    0  0.19031824493E+02 -0.36438077578E+02  0.24746081882E+04  0.24749496215E+04  0.00000000000E+00 0. -1.
<scales pt_clust_3="101.94837" pt_clust_4="33.33586" pt_clust_5="14000.00000" pt_clust_6="41.13487"></scales>
<clustering>
<clus scale="   33.336">  2  4  1 -1</clus>
<clus scale="   41.135">  1  6  2 -1</clus>
<clus scale="  101.948">  1  3  2 -1</clus>
<clus scale="   33.336">  2  3  1 -1</clus>
</clustering>
</event>
<event>
 6    0  0.3082502E+002  0.2667760E+03  0.7546771E-02  0.1103139E+00
         21   -1    0    0  503  502  0.00000000000E+00  0.00000000000E+00  0.73000287464E+03  0.73000287464E+03  0.00000000000E+00 0.  1.
          1   -1    0    0  504    0 -0.00000000000E+00 -0.00000000000E+00 -0.56769286845E+03  0.56769286845E+03  0.00000000000E+00 0.  1.
         21    1    1    2  503  501  0.17143759626E+03  0.13901454775E+03  0.80389686637E+02  0.23490082080E+03  0.00000000000E+00 0. -1.
         21    1    1    2  504  505 -0.24416323417E+02 -0.60943437382E+02 -0.91655221341E+02  0.11274280025E+03  0.00000000000E+00 0.  1.
         21    1    1    2  505  502 -0.22629799586E+03 -0.18054930000E+03  0.51172107331E+03  0.58793476640E+03  0.00000000000E+00 0.  1.
          1    1    1    2  501    0  0.79276723022E+02  0.10247818963E+03 -0.33814553242E+03  0.36211735565E+03  0.00000000000E+00 0.  1.
<scales pt_clust_3="14000.00000" pt_clust_4="65.65257" pt_clust_5="266.77603" pt_clust_6="83.17509"></scales>
<clustering>
<clus scale="   65.653">  2  4  1 -1</clus>
<clus scale="   83.175">  2  6  1 -1</clus>
<clus scale="  266.776">  1  5  2 -1</clus>
<clus scale="  266.776">  1  3  2 -1</clus>
</clustering>
</event>
<event>
 6    0  0.3082502E+002  0.9130396E+02  0.7546771E-02  0.1299724E+00
         21   -1    0    0  505  502  0.00000000000E+00  0.00000000000E+00  0.10096585591E+03  0.10096585591E+03  0.00000000000E+00 0. -1.
          1   -1    0    0  503    0 -0.00000000000E+00 -0.00000000000E+00 -0.13190907054E+04  0.13190907054E+04  0.00000000000E+00 0. -1.
         21    1    1    2  503  502  0.30688832087E+02  0.15530619926E+02 -0.24045115547E+01  0.34478779647E+02  0.00000000000E+00 0. -1.
         21    1    1    2  504  501 -0.44901442310E+02  0.42147648869E+02 -0.10505769105E+03  0.12177718290E+03  0.00000000000E+00 0. -1.
         21    1    1    2  505  504 -0.54466958465E+02  0.13169625280E+02  0.63963251426E+02  0.85037557158E+02  0.00000000000E+00 0. -1.
          1    1    1    2  501    0  0.68679568688E+02 -0.70847894075E+02 -0.11746258983E+04  0.11787630416E+04  0.00000000000E+00 0. -1.
<scales pt_clust_3="34.39483" pt_clust_4="91.30396" pt_clust_5="38.42761" pt_clust_6="14000.00000"></scales>
<clustering>
<clus scale="   34.395">  1  3  2 -1</clus>
<clus scale="   38.428">  1  5  2 -1</clus>
<clus scale="   91.304">  1  4  2 -1</clus>
<clus scale="   34.395">  1  3  2 -1</clus>
</clustering>
</event>
<event>
 6    0  0.3082502E+002  0.7041182E+02  0.7546771E-02  0.1358698E+00
         21   -1    0    0  503  502  0.00000000000E+00  0.00000000000E+00  0.51672045767E+03  0.51672045767E+03  0.00000000000E+00 0.  1.
         -4   -1    0    0    0  501 -0.00000000000E+00 -0.00000000000E+00 -0.66911301373E+02  0.66911301373E+02  0.00000000000E+00 0.  1.
         21    1    1    2  503  505  0.59028069469E+02  0.27247354475E+02  0.29135491443E+03  0.29852038033E+03  0.00000000000E+00 0.  1.
         21    1    1    2  504  502  0.70898498801E+01 -0.47705041407E+02  0.11223518069E+03  0.12215880128E+03  0.00000000000E+00 0.  1.
         21    1    1    2  505  501  0.26261509689E+02 -0.36264147686E+02  0.28592895561E+02  0.53125408000E+02  0.00000000000E+00 0.  1.
         -4    1    1    2    0  504 -0.92379429038E+02  0.56721834618E+02  0.17626165629E+02  0.10982716944E+03  0.00000000000E+00 0.  1.
<scales pt_clust_3="70.41182" pt_clust_4="51.87047" pt_clust_5="44.77449" pt_clust_6="14000.00000"></scales>
<clustering>
<clus scale="   44.774">  2  5  1 -1</clus>
<clus scale="   51.870">  1  4  2 -1</clus>
<clus scale="   70.412">  1  3  2 -1</clus>
<clus scale="   51.870">  1  3  2 -1</clus>
</clustering>
</event>
<event>
 6    0  0.3082502E+002  0.1532287E+03  0.7546771E-02  0.1196561E+00
          2   -1    0    0  504    0 -0.00000000000E+00  0.00000000000E+00  0.96280927020E+03  0.96280927020E+03  0.00000000000E+00 0. -1.
         21   -1    0    0  503  502  0.00000000000E+00 -0.00000000000E+00 -0.64638810760E+03  0.64638810760E+03  0.00000000000E+00 0.  1.
         21    1    1    2  503  501 -0.30545734595E+02  0.99891909368E+02 -0.54100237643E+03  0.55099456146E+03  0.00000000000E+00 0.  1.
         21    1    1    2  504  505  0.34395177613E+02  0.29033159205E+01  0.38734572040E+03  0.38888065598E+03  0.00000000000E+00 0. -1.
         21    1    1    2  505  502  0.27880526468E+01  0.51966954777E+02 -0.81337747811E+02  0.96561725572E+02  0.00000000000E+00 0. -1.
          2    1    1    2  501    0 -0.66374956655E+01 -0.15476218007E+03  0.55141556644E+03  0.57276043478E+03  0.00000000000E+00 0. -1.
<scales pt_clust_3="153.22871" pt_clust_4="34.51750" pt_clust_5="52.10647" pt_clust_6="14000.00000"></scales>
<clustering>
<clus scale="   34.517">  1  4  2 -1</clus>
<clus scale="   52.106">  2  5  1 -1</clus>
<clus scale="  153.229">  2  3  1 -1</clus>
<clus scale="   52.106">  2  3  1 -1</clus>
</clustering>
</event>
<event>
 6    0  0.3082502E+002  0.7304713E+02  0.7546771E-02  0.1350027E+00
          2   -1    0    0  503    0 -0.00000000000E+00  0.00000000000E+00  0.26626148411E+04  0.26626148411E+04  0.00000000000E+00 0. -1.
         21   -1    0    0  505  502  0.00000000000E+00 -0.00000000000E+00 -0.25254790082E+03  0.25254790082E+03  0.00000000000E+00 0. -1.
         21    1    1    2  503  504 -0.78636439396E+00 -0.32753033095E+02  0.12227447672E+04  0.12231836106E+04  0.00000000000E+00 0. -1.
         21    1    1    2  504  502  0.94689227277E+02 -0.61027353297E+02 -0.13379061148E+01  0.11265956509E+03  0.00000000000E+00 0. -1.
         21    1    1    2  505  501 -0.30053211797E+02  0.30265055770E+02 -0.19151615466E+03  0.19620806975E+03  0.00000000000E+00 0. -1.
          2    1    1    2  501    0 -0.63849651086E+02  0.63515330622E+02  0.13801762338E+04  0.13831114965E+04  0.00000000000E+00 0. -1.
<scales pt_clust_3="32.76247" pt_clust_4="14000.00000" pt_clust_5="42.61477" pt_clust_6="73.04713"></scales>
<clustering>
<clus scale="   32.762">  1  3  2 -1</clus>
<clus scale="   42.615">  2  5  1 -1</clus>
<clus scale="   73.047">  1  6  2 -1</clus>
<clus scale="   42.615">  2  3  1 -1</clus>
</clustering>
</event>
<event>
 6    0  0.3082502E+002  0.8198393E+02  0.7546771E-02  0.1323514E+00
         21   -1    0    0  504  502  0.00000000000E+00  0.00000000000E+00  0.35094718687E+03  0.35094718687E+03  0.00000000000E+00 0.  1.
          2   -1    0    0  503    0 -0.00000000000E+00 -0.00000000000E+00 -0.10371716507E+04  0.10371716507E+04  0.00000000000E+00 0. -1.
         21    1    1    2  503  505 -0.99996987116E+01 -0.92230759009E+02 -0.77283345371E+03  0.77838168918E+03  0.00000000000E+00 0.  1.
         21    1    1    2  504  501  0.54391268867E+02  0.44071959448E+02  0.31809378533E+03  0.32570600855E+03  0.00000000000E+00 0.  1.
         21    1    1    2  505  502 -0.41808254040E+02 -0.16764463295E+02 -0.15267453424E+01  0.45070037572E+02  0.00000000000E+00 0.  1.
          2    1    1    2  501    0 -0.25833161157E+01  0.64923262857E+02 -0.22995805008E+03  0.23896110223E+03  0.00000000000E+00 0. -1.
<scales pt_clust_3="14000.00000" pt_clust_4="30.79797" pt_clust_5="45.04417" pt_clust_6="81.98393"></scales>
<clustering>
<clus scale="   45.044">  1  5  2 -1</clus>
<clus scale="   30.798">  1  4  2 -1</clus>
<clus scale="   81.984">  1  6  2 -1</clus>
<clus scale="   45.044">  1  3  2 -1</clus>
</clustering>
</event>
<event>
 6    0  0.3082502E+002  0.8981843E+02  0.7546771E-02  0.1303292E+00
         -2   -1    0    0    0  501 -0.00000000000E+00  0.00000000000E+00  0.11953739524E+04  0.11953739524E+04  0.00000000000E+00 0. -1.
         21   -1    0    0  504  502  0.00000000000E+00 -0.00000000000E+00 -0.28264856196E+03  0.28264856196E+03  0.00000000000E+00 0. -1.
         21    1    1    2  503  505 -0.13445407343E+03  0.51959389762E+02  0.81592849982E+01  0.14437537871E+03  0.00000000000E+00 0. -1.
         21    1    1    2  504  501 -0.25027820688E+02  0.19169576219E+02  0.17456962365E+03  0.17739339887E+03  0.00000000000E+00 0. -1.
         21    1    1    2  505  502  0.49605050106E+02 -0.66027943023E+02 -0.20177004205E+03  0.21801720144E+03  0.00000000000E+00 0. -1.
         -2    1    1    2    0  503  0.10987684401E+03 -0.51010229577E+01  0.93176652386E+03  0.93823653536E+03  0.00000000000E+00 0. -1.
<scales pt_clust_3="89.81843" pt_clust_4="31.52562" pt_clust_5="82.34351" pt_clust_6="14000.00000"></scales>
<clustering>
<clus scale="   31.526">  1  4  2 -1</clus>
<clus scale="   82.344">  2  5  1 -1</clus>
<clus scale="   89.818">  2  3  1 -1</clus>
<clus scale="   82.344">  2  3  1 -1</clus>
</clustering>
</event>
<event>
 6    0  0.3082502E+002  0.1631555E+03  0.7546771E-02  0.1185180E+00
          2   -1    0    0  505    0 -0.00000000000E+00  0.00000000000E+00  0.99670098357E+02  0.99670098357E+02  0.00000000000E+00 0.  1.
         21   -1    0    0  504  502  0.00000000000E+00 -0.00000000000E+00 -0.27658995926E+04  0.27658995926E+04  0.00000000000E+00 0. -1.
         21    1    1    2  503  501  0.85746243561E+02 -0.87851436394E+02 -0.39080763662E+03  0.40963508395E+03  0.00000000000E+00 0. -1.
         21    1    1    2  504  503  0.97687975103E+02  0.39496112374E+02 -0.22027441366E+04  0.22052629355E+04  0.00000000000E+00 0. -1.
         21    1    1    2  505  502 -0.33216758012E+02 -0.12758787572E+02 -0.80807175119E+02  0.88294616052E+02  0.00000000000E+00 0.  1.
          2    1    1    2  501    0 -0.15021746065E+03  0.61114111592E+02  0.81294540769E+01  0.16237705547E+03  0.00000000000E+00 0.  1.
<scales pt_clust_3="14000.00000" pt_clust_4="104.90313" pt_clust_5="35.58286" pt_clust_6="163.15554"></scales>
<clustering>
<clus scale="   35.583">  1  5  2 -1</clus>
<clus scale="  104.903">  2  4  1 -1</clus>
<clus scale="  163.156">  1  6  2 -1</clus>
<clus scale="  104.903">  2  3  1 -1</clus>
</clustering>
</event>
<event>
 6    0  0.3082502E+002  0.1531276E+03  0.7546771E-02  0.1196682E+00
         21   -1    0    0  501  502  0.00000000000E+00  0.00000000000E+00  0.52580321113E+02  0.52580321113E+02  0.00000000000E+00 0.  1.
          1   -1    0    0  504    0 -0.00000000000E+00 -0.00000000000E+00 -0.16083337817E+04  0.16083337817E+04  0.00000000000E+00 0.  1.
         21    1    1    2  503  502  0.33523872738E+02  0.11790152082E+03 -0.21187936026E+03  0.24478047707E+03  0.00000000000E+00 0.  1.
         21    1    1    2  504  505 -0.29968840088E+02  0.14006364821E+02 -0.54687114319E+03  0.54787074834E+03  0.00000000000E+00 0.  1.
         21    1    1    2  505  503  0.14166421431E+03 -0.60042227578E+02 -0.21672766532E+03  0.26579070643E+03  0.00000000000E+00 0.  1.
          1    1    1    2  501    0 -0.14521924696E+03 -0.71865658061E+02 -0.58027529180E+03  0.60247217095E+03  0.00000000000E+00 0.  1.
<scales pt_clust_3="123.90987" pt_clust_4="33.08035" pt_clust_5="153.12756" pt_clust_6="14000.00000"></scales>
<clustering>
<clus scale="   33.080">  2  4  1 -1</clus>
<clus scale="  123.910">  1  3  2 -1</clus>
<clus scale="  153.128">  1  5  2 -1</clus>
<clus scale="  123.910">  1  3  2 -1</clus>
</clustering>
</event>
<event>
 6    0  0.3082502E+002  0.9605410E+02  0.7546771E-02  0.1288819E+00
         21   -1    0    0  505  502  0.00000000000E+00  0.00000000000E+00  0.27959898638E+03  0.27959898638E+03  0.00000000000E+00 0. -1.
          2   -1    0    0  504    0 -0.00000000000E+00 -0.00000000000E+00 -0.23288350544E+04  0.23288350544E+04  0.00000000000E+00 0.  1.
         21    1    1    2  503  501 -0.63911379208E+02 -0.51476908835E+02 -0.17577673776E+03  0.19398968548E+03  0.00000000000E+00 0.  1.
         21    1    1    2  504  502  0.33880333959E+02 -0.10725725447E+02 -0.25538102033E+03  0.25784178048E+03  0.00000000000E+00 0.  1.
         21    1    1    2  505  503  0.90629144535E+02  0.34293499524E+02  0.25993259849E+03  0.27740699650E+03  0.00000000000E+00 0. -1.
          2    1    1    2  501    0 -0.60598099286E+02  0.27909134758E+02 -0.18780109084E+04  0.18791955783E+04  0.00000000000E+00 0.  1.
<scales pt_clust_3="96.05410" pt_clust_4="35.53756" pt_clust_5="14000.00000" pt_clust_6="34.98190"></scales>
<clustering>
<clus scale="   35.538">  2  4  1 -1</clus>
<clus scale="   34.982">  2  6  1 -1</clus>
<clus scale="   96.054">  2  3  1 -1</clus>
<clus scale="   96.054">  1  3  2 -1</clus>
</clustering>
</event>
<event>
 6    0  0.3082502E+002  0.9383699E+02  0.7546771E-02  0.1293817E+00
         21   -1    0    0  503  502  0.00000000000E+00  0.00000000000E+00  0.17257612044E+03  0.17257612044E+03  0.00000000000E+00 0.  1.
          2   -1    0    0  504    0 -0.00000000000E+00 -0.00000000000E+00 -0.46992637592E+03  0.46992637592E+03  0.00000000000E+00 0.  1.
         21    1    1    2  503  501  0.28083380138E+02  0.11818527048E+02  0.62070520542E+01  0.31094715254E+02  0.00000000000E+00 0. -1.
         21    1    1    2  504  505 -0.15076409171E+02  0.57462473380E+02 -0.34037247006E+03  0.34551794792E+03  0.00000000000E+00 0.  1.
         21    1    1    2  505  502 -0.82210065628E+02 -0.95650753400E+02  0.10584229679E+03  0.16465161191E+03  0.00000000000E+00 0.  1.
          2    1    1    2  501    0  0.69203094662E+02  0.26369752972E+02 -0.69027134252E+02  0.10123822127E+03  0.00000000000E+00 0.  1.
<scales pt_clust_3="30.46890" pt_clust_4="59.48144" pt_clust_5="14000.00000" pt_clust_6="93.83699"></scales>
<clustering>
<clus scale="   30.469">  1  3  2 -1</clus>
<clus scale="   59.481">  2  4  1 -1</clus>
<clus scale="   93.837">  2  6  1 -1</clus>
<clus scale="   30.469">  1  3  2 -1</clus>
</clustering>
</event>
<event>
 6    0  0.3082502E+002  0.9468130E+02  0.7546771E-02  0.1291895E+00
         21   -1    0    0  505  502  0.00000000000E+00  0.00000000000E+00  0.13218026910E+03  0.13218026910E+03  0.00000000000E+00 0. -1.
         -2   -1    0    0    0  501 -0.00000000000E+00 -0.00000000000E+00 -0.57897147324E+03  0.57897147324E+03  0.00000000000E+00 0. -1.
         21    1    1    2  503  502 -0.10160249106E+02  0.74656861982E+02 -0.21527754274E+02  0.78360206145E+02  0.00000000000E+00 0. -1.
         21    1    1    2  504  501  0.14646300346E+02  0.52229866282E+02 -0.77644436967E+02  0.94716057971E+02  0.00000000000E+00 0. -1.
         21    1    1    2  505  504 -0.15787854370E+02 -0.29106098028E+02  0.86665543239E+02  0.92775738600E+02  0.00000000000E+00 0. -1.
         -2    1    1    2    0  503  0.11301803131E+02 -0.97780630237E+02 -0.43428455614E+03  0.44529973962E+03  0.00000000000E+00 0. -1.
<scales pt_clust_3="94.68130" pt_clust_4="47.77643" pt_clust_5="33.11225" pt_clust_6="14000.00000"></scales>
<clustering>
<clus scale="   33.112">  1  5  2 -1</clus>
<clus scale="   47.776">  1  4  2 -1</clus>
<clus scale="   94.681">  1  3  2 -1</clus>
<clus scale="   33.112">  1  3  2 -1</clus>
</clustering>
</event>
<event>
 6    0  0.3082502E+002  0.2280835E+03  0.7546771E-02  0.1127996E+00
          1   -1    0    0  503    0 -0.00000000000E+00  0.00000000000E+00  0.30785319171E+04  0.30785319171E+04  0.00000000000E+00 0. -1.
         21   -1    0    0  504  502  0.00000000000E+00 -0.00000000000E+00 -0.71492577582E+03  0.71492577582E+03  0.00000000000E+00 0. -1.
         21    1    1    2  503  502  0.84968838891E+02 -0.10938969652E+03 -0.17249055092E+03  0.22122115505E+03  0.00000000000E+00 0. -1.
         21    1    1    2  504  505 -0.24095478167E+02 -0.97112798389E+02 -0.50886774190E+03  0.51861147926E+03  0.00000000000E+00 0. -1.
         21    1    1    2  505  501  0.10744555852E+02  0.42965160082E+02  0.35671124006E+03  0.35945007893E+03  0.00000000000E+00 0. -1.
          1    1    1    2  501    0 -0.71617916576E+02  0.16353733483E+03  0.26882531940E+04  0.26941749797E+04  0.00000000000E+00 0. -1.
<scales pt_clust_3="213.43229" pt_clust_4="100.05742" pt_clust_5="40.05869" pt_clust_6="40.05869"></scales>
<clustering>
<clus scale="   40.059">  5  6 -1 -1</clus>
<clus scale="  100.057">  2  4  1 -1</clus>
<clus scale="  213.432">  2  3  1 -1</clus>
<clus scale="  100.057">  2  3  1 -1</clus>
</clustering>
</event>
<event>
 6    0  0.3082502E+002  0.1246151E+03  0.7546771E-02  0.1235672E+00
          2   -1    0    0  504    0 -0.00000000000E+00  0.00000000000E+00  0.88991718655E+03  0.88991718655E+03  0.00000000000E+00 0. -1.
         21   -1    0    0  503  502  0.00000000000E+00 -0.00000000000E+00 -0.41616586895E+03  0.41616586895E+03  0.00000000000E+00 0. -1.
         21    1    1    2  503  505  0.44743377503E+02 -0.11333414024E+02 -0.12356299704E+03  0.13190235154E+03  0.00000000000E+00 0.  1.
         21    1    1    2  504  502 -0.29595638187E+01 -0.34066101201E+02 -0.14695637791E+01  0.34225982626E+02  0.00000000000E+00 0.  1.
         21    1    1    2  505  501 -0.67216702975E+02 -0.77208879002E+02 -0.25617680211E+03  0.27587288757E+03  0.00000000000E+00 0. -1.
          2    1    1    2  501    0  0.25432889291E+02  0.12260839423E+03  0.85496068053E+03  0.86408183377E+03  0.00000000000E+00 0. -1.
<scales pt_clust_3="49.12584" pt_clust_4="34.19442" pt_clust_5="14000.00000" pt_clust_6="124.61508"></scales>
<clustering>
<clus scale="   34.194">  2  4  1 -1</clus>
<clus scale="   49.126">  2  3  1 -1</clus>
<clus scale="  124.615">  1  6  2 -1</clus>
<clus scale="   34.194">  2  3  1 -1</clus>
</clustering>
</event>
<event>
 6    0  0.3082502E+002  0.1222399E+03  0.7546771E-02  0.1239447E+00
         21   -1    0    0  504  502  0.00000000000E+00  0.00000000000E+00  0.10111841482E+04  0.10111841482E+04  0.00000000000E+00 0.  1.
          3   -1    0    0  505    0 -0.00000000000E+00 -0.00000000000E+00 -0.10638979055E+04  0.10638979055E+04  0.00000000000E+00 0.  1.
         21    1    1    2  503  501 -0.73388709427E+02 -0.12309959471E+03 -0.19840135077E+03  0.24474989045E+03  0.00000000000E+00 0. -1.
         21    1    1    2  504  503  0.44543882641E+02  0.25358273773E+02  0.61361250131E+03  0.61574954429E+03  0.00000000000E+00 0.  1.
         21    1    1    2  505  502  0.21960799031E+02 -0.22864094023E+02  0.36830769909E+03  0.36966958855E+03  0.00000000000E+00 0.  1.
          3    1    1    2  501    0  0.68840277549E+01  0.12060541496E+03 -0.83623260698E+03  0.84491303040E+03  0.00000000000E+00 0.  1.
<scales pt_clust_3="14000.00000" pt_clust_4="65.65575" pt_clust_5="31.70242" pt_clust_6="122.23993"></scales>
<clustering>
<clus scale="   31.702">  1  5  2 -1</clus>
<clus scale="   65.656">  1  4  2 -1</clus>
<clus scale="  122.240">  2  6  1 -1</clus>
<clus scale="   31.702">  1  3  2 -1</clus>
</clustering>
</event>
<event>
 6    0  0.3082502E+002  0.1027788E+03  0.7546771E-02  0.1274559E+00
         21   -1    0    0  503  502  0.00000000000E+00  0.00000000000E+00  0.65029960089E+02  0.65029960089E+02  0.00000000000E+00 0. -1.
          1   -1    0    0  504    0 -0.00000000000E+00 -0.00000000000E+00 -0.10564141915E+04  0.10564141915E+04  0.00000000000E+00 0.  1.
         21    1    1    2  503  501 -0.52798222843E+02 -0.10781434042E+02 -0.59018407079E+02  0.79919109289E+02  0.00000000000E+00 0. -1.
         21    1    1    2  504  505  0.42488505270E+02 -0.17966228598E+01 -0.30646169075E+03  0.30939823663E+03  0.00000000000E+00 0.  1.
         21    1    1    2  505  502  0.16912445599E+00 -0.84263644672E+02  0.13511098325E+02  0.85340144096E+02  0.00000000000E+00 0. -1.
          1    1    1    2  501    0  0.10140593117E+02  0.96841701574E+02 -0.63941523191E+03  0.64678666157E+03  0.00000000000E+00 0.  1.
<scales pt_clust_3="50.06645" pt_clust_4="42.52647" pt_clust_5="14000.00000" pt_clust_6="102.77883"></scales>
<clustering>
<clus scale="   42.526">  2  4  1 -1</clus>
<clus scale="   50.066">  1  3  2 -1</clus>
<clus scale="  102.779">  2  6  1 -1</clus>
<clus scale="   50.066">  1  3  2 -1</clus>
</clustering>
</event>
<event>
 6    0  0.3082502E+002  0.1091185E+03  0.7546771E-02  0.1262211E+00
         21   -1    0    0  503  502  0.00000000000E+00  0.00000000000E+00  0.19700468883E+03  0.19700468883E+03  0.00000000000E+00 0. -1.
          2   -1    0    0  504    0 -0.00000000000E+00 -0.00000000000E+00 -0.14086939832E+04  0.14086939832E+04  0.00000000000E+00 0. -1.
         21    1    1    2  503  501  0.46175344160E+02  0.70878133466E+01  0.14021620013E+03  0.14779371531E+03  0.00000000000E+00 0. -1.
         21    1    1    2  504  505 -0.83882910931E+01  0.54517395567E+02 -0.45446384030E+02  0.71469459689E+02  0.00000000000E+00 0. -1.
         21    1    1    2  505  502  0.77257638723E+01  0.39023329346E+02  0.27213134914E+02  0.48198157356E+02  0.00000000000E+00 0. -1.
          2    1    1    2  501    0 -0.45512816939E+02 -0.10062853826E+03 -0.13336722454E+04  0.13382373397E+04  0.00000000000E+00 0. -1.
<scales pt_clust_3="109.11851" pt_clust_4="58.22389" pt_clust_5="39.78074" pt_clust_6="14000.00000"></scales>
<clustering>
<clus scale="   39.781">  1  5  2 -1</clus>
<clus scale="   58.224">  1  4  2 -1</clus>
<clus scale="  109.119">  1  3  2 -1</clus>
<clus scale="   39.781">  1  3  2 -1</clus>
</clustering>
</event>
<event>
 6    0  0.3082502E+002  0.1016664E+03  0.7546771E-02  0.1276830E+00
         21   -1    0    0  505  502  0.00000000000E+00  0.00000000000E+00  0.96930305216E+03  0.96930305216E+03  0.00000000000E+00 0.  1.
          1   -1    0    0  503    0 -0.00000000000E+00 -0.00000000000E+00 -0.15085537401E+03  0.15085537401E+03  0.00000000000E+00 0. -1.
         21    1    1    2  503  504 -0.42800369044E+02  0.18192352241E+02 -0.43176446646E+01  0.46706266451E+02  0.00000000000E+00 0.  1.
         21    1    1    2  504  502 -0.35105646075E+02 -0.27741459562E+02  0.65761422490E+02  0.79539673452E+02  0.00000000000E+00 0.  1.
         21    1    1    2  505  501  0.13116403503E+03  0.64405639103E+02  0.85625120047E+03  0.86863007589E+03  0.00000000000E+00 0.  1.
          1    1    1    2  501    0 -0.53258019915E+02 -0.54856531782E+02 -0.99247300143E+02  0.12528241038E+03  0.00000000000E+00 0. -1.
<scales pt_clust_3="47.02260" pt_clust_4="44.74366" pt_clust_5="101.66642" pt_clust_6="14000.00000"></scales>
<clustering>
<clus scale="   44.744">  1  4  2 -1</clus>
<clus scale="   47.023">  2  3  1 -1</clus>
<clus scale="  101.666">  1  5  2 -1</clus>
<clus scale="   44.744">  1  3  2 -1</clus>
</clustering>
</event>
<event>
 6    0  0.3082502E+002  0.1396337E+03  0.7546771E-02  0.1213823E+00
         21   -1    0    0  504  502  0.00000000000E+00  0.00000000000E+00  0.38173347670E+03  0.38173347670E+03  0.00000000000E+00 0. -1.
          1   -1    0    0  505    0 -0.00000000000E+00 -0.00000000000E+00 -0.33785894814E+03  0.33785894814E+03  0.00000000000E+00 0. -1.
         21    1    1    2  503  501 -0.81363199536E+02  0.16976142390E+02 -0.17418074967E+03  0.19299506005E+03  0.00000000000E+00 0. -1.
         21    1    1    2  504  503  0.11380293241E+03 -0.98260167768E+02  0.32967823020E+03  0.36234500612E+03  0.00000000000E+00 0. -1.
         21    1    1    2  505  502 -0.68688949908E+01  0.31886765663E+02  0.68876048778E+01  0.33337466067E+02  0.00000000000E+00 0. -1.
          1    1    1    2  501    0 -0.25570837879E+02  0.49397259715E+02 -0.11851055685E+03  0.13091489259E+03  0.00000000000E+00 0. -1.
<scales pt_clust_3="47.89622" pt_clust_4="126.84014" pt_clust_5="32.61821" pt_clust_6="47.89622"></scales>
<clustering>
<clus scale="   32.618">  1  5  2 -1</clus>
<clus scale="   47.896">  3  6 -1 -1</clus>
<clus scale="  126.840">  1  4  2 -1</clus>
<clus scale="   32.618">  1  3  2 -1</clus>
</clustering>
</event>
<event>
 6    0  0.3082502E+002  0.8050991E+02  0.7546771E-02  0.1327611E+00
         21   -1    0    0  503  502  0.00000000000E+00  0.00000000000E+00  0.88539466876E+02  0.88539466876E+02  0.00000000000E+00 0.  1.
          1   -1    0    0  505    0 -0.00000000000E+00 -0.00000000000E+00 -0.80695044188E+03  0.80695044188E+03  0.00000000000E+00 0.  1.
         21    1    1    2  503  501  0.63920757694E+02 -0.80043293202E+01 -0.21569457820E+02  0.67935072405E+02  0.00000000000E+00 0.  1.
         21    1    1    2  504  502 -0.60886252829E+02  0.89041439906E+02  0.84323672537E+01  0.10819712853E+03  0.00000000000E+00 0.  1.
         21    1    1    2  505  504 -0.30732379200E+02 -0.14716283186E+02 -0.52174599719E+02  0.62315623867E+02  0.00000000000E+00 0.  1.
          1    1    1    2  501    0  0.27697874335E+02 -0.66320827399E+02 -0.65309928472E+03  0.65704208396E+03  0.00000000000E+00 0.  1.
<scales pt_clust_3="62.71846" pt_clust_4="14000.00000" pt_clust_5="34.07416" pt_clust_6="80.50991"></scales>
<clustering>
<clus scale="   34.074">  2  5  1 -1</clus>
<clus scale="   62.718">  1  3  2 -1</clus>
<clus scale="   80.510">  2  6  1 -1</clus>
<clus scale="   62.718">  1  3  2 -1</clus>
</clustering>
</event>
<event>
 6    0  0.3082502E+002  0.1881844E+03  0.7546771E-02  0.1160109E+00
         21   -1    0    0  503  502  0.00000000000E+00  0.00000000000E+00  0.23417659451E+03  0.23417659451E+03  0.00000000000E+00 0.  1.
          2   -1    0    0  504    0 -0.00000000000E+00 -0.00000000000E+00 -0.15160686040E+04  0.15160686040E+04  0.00000000000E+00 0.  1.
         21    1    1    2  503  501 -0.32396981640E+02  0.21316777942E+02  0.18630615184E+03  0.19029963650E+03  0.00000000000E+00 0.  1.
         21    1    1    2  504  505  0.17941586587E+03 -0.54278516917E+02 -0.95545050791E+03  0.97366415328E+03  0.00000000000E+00 0.  1.
         21    1    1    2  505  502 -0.18965120490E+03  0.24801926490E+02 -0.50776060933E+03  0.54258967136E+03  0.00000000000E+00 0. -1.
          2    1    1    2  501    0  0.42632320669E+02  0.81598124856E+01 -0.49870440755E+01  0.43691737366E+02  0.00000000000E+00 0.  1.
<scales pt_clust_3="38.78104" pt_clust_4="14000.00000" pt_clust_5="188.18444" pt_clust_6="33.66299"></scales>
<clustering>
<clus scale="   38.781">  1  3  2 -1</clus>
<clus scale="   33.663">  1  6  2 -1</clus>
<clus scale="  188.184">  1  5  2 -1</clus>
<clus scale="   38.781">  1  3  2 -1</clus>
</clustering>
</event>
<event>
 6    0  0.3082502E+002  0.2628399E+03  0.7546771E-02  0.1105449E+00
         21   -1    0    0  503  502  0.00000000000E+00  0.00000000000E+00  0.56738203720E+03  0.56738203720E+03  0.00000000000E+00 0.  1.
          2   -1    0    0  504    0 -0.00000000000E+00 -0.00000000000E+00 -0.67680961424E+03  0.67680961424E+03  0.00000000000E+00 0.  1.
         21    1    1    2  503  505  0.30714133874E+02  0.30892903564E+02  0.32789975092E+02  0.54524416336E+02  0.00000000000E+00 0.  1.
         21    1    1    2  504  502 -0.23542100471E+02 -0.21250837594E+02 -0.33953274792E+03  0.34101072638E+03  0.00000000000E+00 0.  1.
         21    1    1    2  505  501  0.22044252390E+03 -0.12091075790E+03  0.43424366139E+03  0.50177871136E+03  0.00000000000E+00 0.  1.
          2    1    1    2  501    0 -0.22761455731E+03  0.11126869193E+03 -0.23692846559E+03  0.34687779737E+03  0.00000000000E+00 0.  1.
<scales pt_clust_3="42.54036" pt_clust_4="31.71480" pt_clust_5="14000.00000" pt_clust_6="262.83992"></scales>
<clustering>
<clus scale="   31.715">  2  4  1 -1</clus>
<clus scale="   42.540">  1  3  2 -1</clus>
<clus scale="  262.840">  2  6  1 -1</clus>
<clus scale="   42.540">  1  3  2 -1</clus>
</clustering>
</event>
<event>
 6    0  0.3082502E+002  0.8316636E+02  0.7546771E-02  0.1320299E+00
          1   -1    0    0  505    0 -0.00000000000E+00  0.00000000000E+00  0.26252637046E+04  0.26252637046E+04  0.00000000000E+00 0.  1.
         21   -1    0    0  503  502  0.00000000000E+00 -0.00000000000E+00 -0.16473234610E+02  0.16473234610E+02  0.00000000000E+00 0.  1.
         21    1    1    2  503  504 -0.50929630154E+02 -0.97324723148E+00  0.13287765202E+03  0.14230686858E+03  0.00000000000E+00 0.  1.
         21    1    1    2  504  501 -0.49299293235E+02 -0.34795058773E+02  0.44825663775E+03  0.45229982281E+03  0.00000000000E+00 0.  1.
         21    1    1    2  505  502  0.45475266329E+02 -0.47797808136E+02  0.12066095195E+03  0.13751980088E+03  0.00000000000E+00 0.  1.
          1    1    1    2  501    0  0.54753657060E+02  0.83566114140E+02  0.19069952283E+04  0.19096104469E+04  0.00000000000E+00 0.  1.
<scales pt_clust_3="50.93893" pt_clust_4="14000.00000" pt_clust_5="49.31723" pt_clust_6="83.16636"></scales>
<clustering>
<clus scale="   50.939">  2  3  1 -1</clus>
<clus scale="   49.317">  2  5  1 -1</clus>
<clus scale="   83.166">  1  6  2 -1</clus>
<clus scale="   50.939">  2  3  1 -1</clus>
</clustering>
</event>
<event>
 6    0  0.3082502E+002  0.1751080E+03  0.7546771E-02  0.1172623E+00
         21   -1    0    0  503  502  0.00000000000E+00  0.00000000000E+00  0.19541206737E+03  0.19541206737E+03  0.00000000000E+00 0. -1.
          1   -1    0    0  504    0 -0.00000000000E+00 -0.00000000000E+00 -0.28791189753E+04  0.28791189753E+04  0.00000000000E+00 0.  1.
         21    1    1    2  503  505 -0.15582612036E+03  0.12827592032E+03  0.86900773117E+02  0.21974584385E+03  0.00000000000E+00 0. -1.
         21    1    1    2  504  502 -0.31419650539E+02 -0.30374167797E+02 -0.20555787252E+03  0.21015190569E+03  0.00000000000E+00 0. -1.
         21    1    1    2  505  501  0.10558009934E+03 -0.77630984381E+02 -0.70773867059E+02  0.14893846841E+03  0.00000000000E+00 0. -1.
          1    1    1    2  501    0  0.81665671561E+02 -0.20270768141E+02 -0.24942759415E+04  0.24956948248E+04  0.00000000000E+00 0.  1.
<scales pt_clust_3="175.10796" pt_clust_4="43.70108" pt_clust_5="14000.00000" pt_clust_6="71.43685"></scales>
<clustering>
<clus scale="   43.701">  2  4  1 -1</clus>
<clus scale="   71.437">  2  6  1 -1</clus>
<clus scale="  175.108">  1  3  2 -1</clus>
<clus scale="  175.108">  1  3  2 -1</clus>
</clustering>
</event>
<event>
 6    0  0.3082502E+002  0.1349488E+03  0.7546771E-02  0.1220292E+00
         21   -1    0    0  503  502  0.00000000000E+00  0.00000000000E+00  0.97012884754E+02  0.97012884754E+02  0.00000000000E+00 0. -1.
         -2   -1    0    0    0  501 -0.00000000000E+00 -0.00000000000E+00 -0.72518177302E+03  0.72518177302E+03  0.00000000000E+00 0.  1.
         21    1    1    2  503  501  0.23447454835E+02  0.30679097078E+02 -0.60578324981E+02  0.71838176433E+02  0.00000000000E+00 0. -1.
         21    1    1    2  504  505 -0.12101251481E+03 -0.47460255094E+02  0.25089225624E+01  0.13001076589E+03  0.00000000000E+00 0. -1.
         21    1    1    2  505  502 -0.21382207828E+02  0.54563692035E+02 -0.29658022084E+02  0.65680998576E+02  0.00000000000E+00 0. -1.
         -2    1    1    2    0  504  0.11894726780E+03 -0.37782534019E+02 -0.54044146376E+03  0.55466471688E+03  0.00000000000E+00 0.  1.
<scales pt_clust_3="38.61334" pt_clust_4="14000.00000" pt_clust_5="60.09865" pt_clust_6="134.94882"></scales>
<clustering>
<clus scale="   38.613">  2  3  1 -1</clus>
<clus scale="   60.099">  1  5  2 -1</clus>
<clus scale="  134.949">  2  6  1 -1</clus>
<clus scale="   60.099">  1  3  2 -1</clus>
</clustering>
</event>
<event>
 6    0  0.3082502E+002  0.3248180E+03  0.7546771E-02  0.1073453E+00
         21   -1    0    0  501  502  0.00000000000E+00  0.00000000000E+00  0.91785670852E+03  0.91785670852E+03  0.00000000000E+00 0.  1.
          2   -1    0    0  504    0 -0.00000000000E+00 -0.00000000000E+00 -0.62939534629E+03  0.62939534629E+03  0.00000000000E+00 0. -1.
         21    1    1    2  503  505 -0.36022497438E+03 -0.15479422446E+03 -0.12843524009E+03  0.41257592633E+03  0.00000000000E+00 0. -1.
         21    1    1    2  504  503 -0.33989138577E+02  0.32236331476E+02 -0.14735882883E+03  0.15462557047E+03  0.00000000000E+00 0.  1.
         21    1    1    2  505  502  0.28320045133E+03  0.14159001703E+03  0.72075455170E+03  0.78723398831E+03  0.00000000000E+00 0.  1.
          2    1    1    2  501    0  0.11101366163E+03 -0.19032124047E+02 -0.15649912054E+03  0.19281656968E+03  0.00000000000E+00 0. -1.
<scales pt_clust_3="14000.00000" pt_clust_4="46.84488" pt_clust_5="324.81803" pt_clust_6="98.87187"></scales>
<clustering>
<clus scale="   46.845">  2  4  1 -1</clus>
<clus scale="   98.872">  2  6  1 -1</clus>
<clus scale="  324.818">  1  5  2 -1</clus>
<clus scale="  324.818">  1  3  2 -1</clus>
</clustering>
</event>
<event>
 6    0  0.3082502E+002  0.9432199E+02  0.7546771E-02  0.1292710E+00
          2   -1    0    0  505    0 -0.00000000000E+00  0.00000000000E+00  0.10448463053E+04  0.10448463053E+04  0.00000000000E+00 0.  1.
         21   -1    0    0  503  502  0.00000000000E+00 -0.00000000000E+00 -0.43402763708E+03  0.43402763708E+03  0.00000000000E+00 0. -1.
         21    1    1    2  503  501 -0.45501643032E+01  0.86083792012E+02 -0.30482971948E+03  0.31678428169E+03  0.00000000000E+00 0. -1.
         21    1    1    2  504  502  0.48914725448E+02 -0.19356991643E+01 -0.10739689250E+03  0.11802749601E+03  0.00000000000E+00 0.  1.
         21    1    1    2  505  504 -0.64082168114E+02  0.22744872395E+02  0.15528581100E+03  0.16952149300E+03  0.00000000000E+00 0. -1.
          2    1    1    2  501    0  0.19717606969E+02 -0.10689296524E+03  0.86775946919E+03  0.87454067167E+03  0.00000000000E+00 0.  1.
<scales pt_clust_3="94.32199" pt_clust_4="48.95301" pt_clust_5="66.96420" pt_clust_6="14000.00000"></scales>
<clustering>
<clus scale="   48.953">  2  4  1 -1</clus>
<clus scale="   66.964">  1  5  2 -1</clus>
<clus scale="   94.322">  2  3  1 -1</clus>
<clus scale="   48.953">  2  3  1 -1</clus>
</clustering>
</event>
<event>
 6    0  0.3082502E+002  0.7508589E+02  0.7546771E-02  0.1343605E+00
          2   -1    0    0  505    0 -0.00000000000E+00  0.00000000000E+00  0.12623880788E+04  0.12623880788E+04  0.00000000000E+00 0.  1.
         21   -1    0    0  501  502  0.00000000000E+00 -0.00000000000E+00 -0.10683586540E+03  0.10683586540E+03  0.00000000000E+00 0.  1.
         21    1    1    2  503  504  0.33288377704E+02 -0.76243364459E+02  0.98122180132E+03  0.98474229629E+03  0.00000000000E+00 0.  1.
         21    1    1    2  504  502 -0.18007820480E+02 -0.32870257661E+02 -0.75649581134E+02  0.84425082546E+02  0.00000000000E+00 0.  1.
         21    1    1    2  505  503 -0.35339571316E+02  0.61368507673E+01  0.15313177407E+03  0.15727646508E+03  0.00000000000E+00 0.  1.
          2    1    1    2  501    0  0.20059014091E+02  0.10297677135E+03  0.96848219110E+02  0.14278010026E+03  0.00000000000E+00 0.  1.
<scales pt_clust_3="14000.00000" pt_clust_4="37.52600" pt_clust_5="35.86846" pt_clust_6="75.08589"></scales>
<clustering>
<clus scale="   35.868">  1  5  2 -1</clus>
<clus scale="   37.526">  2  4  1 -1</clus>
<clus scale="   75.086">  2  6  1 -1</clus>
<clus scale="   37.526">  2  3  1 -1</clus>
</clustering>
</event>
<event>
 6    0  0.3082502E+002  0.1215111E+03  0.7546771E-02  0.1240625E+00
         21   -1    0    0  501  502  0.00000000000E+00  0.00000000000E+00  0.12190424591E+03  0.12190424591E+03  0.00000000000E+00 0. -1.
          1   -1    0    0  503    0 -0.00000000000E+00 -0.00000000000E+00 -0.60020834862E+03  0.60020834862E+03  0.00000000000E+00 0. -1.
         21    1    1    2  503  505  0.68168483783E+02 -0.33329004654E+01 -0.67745552909E+02  0.96163976341E+02  0.00000000000E+00 0. -1.
         21    1    1    2  504  502 -0.77329671931E+02 -0.98451068644E+02  0.19721419938E+02  0.12673367935E+03  0.00000000000E+00 0. -1.
         21    1    1    2  505  504  0.58094041750E+02 -0.52920824204E+02 -0.21997692428E+03  0.23359233407E+03  0.00000000000E+00 0. -1.
          1    1    1    2  501    0 -0.48932853603E+02  0.15470479331E+03 -0.21030304545E+03  0.26562260476E+03  0.00000000000E+00 0. -1.
<scales pt_clust_3="68.24991" pt_clust_4="121.51113" pt_clust_5="103.38164" pt_clust_6="14000.00000"></scales>
<clustering>
<clus scale="   68.250">  2  3  1 -1</clus>
<clus scale="  103.382">  2  5  1 -1</clus>
<clus scale="  121.511">  1  4  2 -1</clus>
<clus scale="  121.511">  1  3  2 -1</clus>
</clustering>
</event>
<event>
 6    0  0.3082502E+002  0.1507525E+03  0.7546771E-02  0.1199551E+00
          2   -1    0    0  503    0 -0.00000000000E+00  0.00000000000E+00  0.45639527603E+03  0.45639527603E+03  0.00000000000E+00 0.  1.
         21   -1    0    0  504  502  0.00000000000E+00 -0.00000000000E+00 -0.38642089974E+03  0.38642089974E+03  0.00000000000E+00 0. -1.
         21    1    1    2  503  505  0.40930797527E+02  0.39934213342E+02  0.65623013066E+01  0.57559841729E+02  0.00000000000E+00 0. -1.
         21    1    1    2  504  501 -0.19330587215E+03 -0.97777396469E+02 -0.87216918526E+02  0.23352595219E+03  0.00000000000E+00 0. -1.
         21    1    1    2  505  502  0.52346642950E+02  0.56558397210E+02 -0.18558487945E+03  0.20094967231E+03  0.00000000000E+00 0. -1.
          2    1    1    2  501    0  0.10002843167E+03  0.12847859170E+01  0.33621387296E+03  0.35078070954E+03  0.00000000000E+00 0.  1.
<scales pt_clust_3="57.18454" pt_clust_4="14000.00000" pt_clust_5="78.09903" pt_clust_6="150.75252"></scales>
<clustering>
<clus scale="   57.185">  1  3  2 -1</clus>
<clus scale="   78.099">  2  5  1 -1</clus>
<clus scale="  150.753">  1  6  2 -1</clus>
<clus scale="   78.099">  2  3  1 -1</clus>
</clustering>
</event>
<event>
 6    0  0.3082502E+002  0.1703379E+03  0.7546771E-02  0.1177496E+00
         21   -1    0    0  505  502  0.00000000000E+00  0.00000000000E+00  0.58735233296E+03  0.58735233296E+03  0.00000000000E+00 0.  1.
          1   -1    0    0  504    0 -0.00000000000E+00 -0.00000000000E+00 -0.24890533231E+03  0.24890533231E+03  0.00000000000E+00 0.  1.
         21    1    1    2  503  502 -0.14243290943E+02  0.36209319482E+02  0.54319591960E+02  0.66817693951E+02  0.00000000000E+00 0.  1.
         21    1    1    2  504  503  0.93933399176E+02  0.12601532616E+03 -0.12107725510E+03  0.19840122885E+03  0.00000000000E+00 0.  1.
         21    1    1    2  505  501  0.48318923387E+02  0.19775557209E+02  0.33305800955E+03  0.33712524193E+03  0.00000000000E+00 0.  1.
          1    1    1    2  501    0 -0.12800903162E+03 -0.18200020285E+03  0.72146654240E+02  0.23391350053E+03  0.00000000000E+00 0.  1.
<scales pt_clust_3="38.90997" pt_clust_4="14000.00000" pt_clust_5="58.08458" pt_clust_6="170.33795"></scales>
<clustering>
<clus scale="   38.910">  1  3  2 -1</clus>
<clus scale="   58.085">  1  5  2 -1</clus>
<clus scale="  170.338">  1  6  2 -1</clus>
<clus scale="   38.910">  1  3  2 -1</clus>
</clustering>
</event>
<event>
 6    0  0.3082502E+002  0.1672659E+03  0.7546771E-02  0.1180729E+00
         21   -1    0    0  501  502  0.00000000000E+00  0.00000000000E+00  0.73137258203E+03  0.73137258203E+03  0.00000000000E+00 0.  1.
          1   -1    0    0  503    0 -0.00000000000E+00 -0.00000000000E+00 -0.51362075405E+03  0.51362075405E+03  0.00000000000E+00 0.  1.
         21    1    1    2  503  505  0.22499832267E+02  0.19960470961E+02 -0.94051793668E+02  0.98744127649E+02  0.00000000000E+00 0.  1.
         21    1    1    2  504  502 -0.63751553928E+02 -0.24870302300E+02  0.35365819263E+03  0.36021786432E+03  0.00000000000E+00 0.  1.
         21    1    1    2  505  504  0.20829370569E+03 -0.52315095418E+02  0.31884712442E+03  0.38443026128E+03  0.00000000000E+00 0.  1.
          1    1    1    2  501    0 -0.16704198403E+03  0.57224926757E+02 -0.36070169539E+03  0.40160108283E+03  0.00000000000E+00 0.  1.
<scales pt_clust_3="30.07761" pt_clust_4="68.20918" pt_clust_5="14000.00000" pt_clust_6="167.26587"></scales>
<clustering>
<clus scale="   30.078">  2  3  1 -1</clus>
<clus scale="   68.209">  1  4  2 -1</clus>
<clus scale="  167.266">  2  6  1 -1</clus>
<clus scale="   68.209">  1  3  2 -1</clus>
</clustering>
</event>
<event>
 6    0  0.3082502E+002  0.9168568E+02  0.7546771E-02  0.1298820E+00
         21   -1    0    0  503  502  0.00000000000E+00  0.00000000000E+00  0.68180802226E+03  0.68180802226E+03  0.00000000000E+00 0.  1.
          2   -1    0    0  504    0 -0.00000000000E+00 -0.00000000000E+00 -0.61619463123E+02  0.61619463123E+02  0.00000000000E+00 0.  1.
         21    1    1    2  503  501 -0.55244538635E+02 -0.55187066256E+02  0.29940155682E+03  0.30941697361E+03  0.00000000000E+00 0.  1.
         21    1    1    2  504  505 -0.49338263858E+02  0.12811174051E+02  0.97177194939E+02  0.10973512508E+03  0.00000000000E+00 0.  1.
         21    1    1    2  505  502  0.42548179824E+02 -0.27947734076E+02  0.22480129704E+03  0.23049305109E+03  0.00000000000E+00 0.  1.
          2    1    1    2  501    0  0.62034622669E+02  0.70323626280E+02 -0.11914896694E+01  0.93782335600E+02  0.00000000000E+00 0.  1.
<scales pt_clust_3="91.68568" pt_clust_4="40.16636" pt_clust_5="50.90603" pt_clust_6="14000.00000"></scales>
<clustering>
<clus scale="   50.906">  1  5  2 -1</clus>
<clus scale="   40.166">  1  4  2 -1</clus>
<clus scale="   91.686">  1  3  2 -1</clus>
<clus scale="   50.906">  1  3  2 -1</clus>
</clustering>
</event>
<event>
 6    0  0.3082502E+002  0.7777511E+02  0.7546771E-02  0.1335487E+00
          1   -1    0    0  503    0 -0.00000000000E+00  0.00000000000E+00  0.17721220699E+04  0.17721220699E+04  0.00000000000E+00 0.  1.
         21   -1    0    0  504  502  0.00000000000E+00 -0.00000000000E+00 -0.12433163831E+03  0.12433163831E+03  0.00000000000E+00 0.  1.
         21    1    1    2  503  505  0.76619410679E+02 -0.68277651156E+02  0.11395239880E+04  0.11441360457E+04  0.00000000000E+00 0.  1.
         21    1    1    2  504  501  0.22386290261E+02  0.35192508466E+02 -0.21905978270E+02  0.47111893697E+02  0.00000000000E+00 0.  1.
         21    1    1    2  505  502 -0.27039197710E+02  0.44241390485E+02 -0.77466995191E+02  0.93217778287E+02  0.00000000000E+00 0.  1.
          1    1    1    2  501    0 -0.71966503230E+02 -0.11156247795E+02  0.60763941704E+03  0.61198799056E+03  0.00000000000E+00 0.  1.
<scales pt_clust_3="77.77511" pt_clust_4="41.70922" pt_clust_5="14000.00000" pt_clust_6="72.16408"></scales>
<clustering>
<clus scale="   41.709">  2  4  1 -1</clus>
<clus scale="   72.164">  1  6  2 -1</clus>
<clus scale="   77.775">  1  3  2 -1</clus>
<clus scale="   41.709">  2  3  1 -1</clus>
</clustering>
</event>
<event>
 6    0  0.3082502E+002  0.1539240E+03  0.7546771E-02  0.1195732E+00
         -2   -1    0    0    0  501 -0.00000000000E+00  0.00000000000E+00  0.39801677643E+03  0.39801677643E+03  0.00000000000E+00 0.  1.
         21   -1    0    0  504  502  0.00000000000E+00 -0.00000000000E+00 -0.80391236051E+03  0.80391236051E+03  0.00000000000E+00 0.  1.
         21    1    1    2  503  501 -0.13022650724E+03  0.88005744245E+02  0.33789481094E+03  0.37266185406E+03  0.00000000000E+00 0.  1.
         21    1    1    2  504  505  0.35220809458E+02 -0.12356294575E+02 -0.37158103454E+03  0.37345099901E+03  0.00000000000E+00 0.  1.
         21    1    1    2  505  503  0.11462307336E+03  0.13152893950E+02 -0.34047965125E+03  0.35949664877E+03  0.00000000000E+00 0.  1.
         -2    1    1    2    0  502 -0.19617375578E+02 -0.88802343620E+02 -0.31729709226E+02  0.96319635093E+02  0.00000000000E+00 0.  1.
<scales pt_clust_3="153.92400" pt_clust_4="37.32537" pt_clust_5="14000.00000" pt_clust_6="91.77142"></scales>
<clustering>
<clus scale="   37.325">  2  4  1 -1</clus>
<clus scale="   91.771">  2  6  1 -1</clus>
<clus scale="  153.924">  1  3  2 -1</clus>
<clus scale="   37.325">  2  3  1 -1</clus>
</clustering>
</event>
<event>
 6    0  0.3082502E+002  0.1353558E+03  0.7546771E-02  0.1219718E+00
          2   -1    0    0  505    0 -0.00000000000E+00  0.00000000000E+00  0.31334161811E+03  0.31334161811E+03  0.00000000000E+00 0. -1.
         21   -1    0    0  503  502  0.00000000000E+00 -0.00000000000E+00 -0.18088175511E+03  0.18088175511E+03  0.00000000000E+00 0.  1.
         21    1    1    2  503  501 -0.36918078377E+02  0.19269440990E+02 -0.59114058887E+02  0.72309942783E+02  0.00000000000E+00 0.  1.
         21    1    1    2  504  502  0.14386525985E+01 -0.40357555947E+02 -0.44084021498E+02  0.59784638452E+02  0.00000000000E+00 0.  1.
         21    1    1    2  505  504 -0.24438562847E+01 -0.12208321109E+03  0.73543780032E+02  0.14254462615E+03  0.00000000000E+00 0.  1.
          2    1    1    2  501    0  0.37923282063E+02  0.14317132605E+03  0.16211416336E+03  0.21958416583E+03  0.00000000000E+00 0. -1.
<scales pt_clust_3="36.20817" pt_clust_4="40.38319" pt_clust_5="14000.00000" pt_clust_6="135.35583"></scales>
<clustering>
<clus scale="   40.383">  2  4  1 -1</clus>
<clus scale="   36.208">  2  3  1 -1</clus>
<clus scale="  135.356">  1  6  2 -1</clus>
<clus scale="   40.383">  2  3  1 -1</clus>
</clustering>
</event>
<event>
 6    0  0.3082502E+002  0.2616520E+03  0.7546771E-02  0.1106155E+00
          2   -1    0    0  505    0 -0.00000000000E+00  0.00000000000E+00  0.25316134928E+04  0.25316134928E+04  0.00000000000E+00 0. -1.
         21   -1    0    0  504  502  0.00000000000E+00 -0.00000000000E+00 -0.64723311103E+02  0.64723311103E+02  0.00000000000E+00 0.  1.
         21    1    1    2  503  502 -0.20230247428E+02  0.45213524542E+02  0.36697419060E+02  0.61645975361E+02  0.00000000000E+00 0.  1.
         21    1    1    2  504  501 -0.39979156853E+02 -0.50327108846E+02  0.36891128586E+02  0.74108746015E+02  0.00000000000E+00 0.  1.
         21    1    1    2  505  503 -0.75640454737E+02  0.23734832489E+03  0.64026128080E+03  0.68701543899E+03  0.00000000000E+00 0.  1.
          2    1    1    2  501    0  0.13584985902E+03 -0.23223474059E+03  0.17530403532E+04  0.17735666435E+04  0.00000000000E+00 0. -1.
<scales pt_clust_3="49.53308" pt_clust_4="58.28929" pt_clust_5="14000.00000" pt_clust_6="261.65200"></scales>
<clustering>
<clus scale="   49.533">  2  3  1 -1</clus>
<clus scale="   58.289">  2  4  1 -1</clus>
<clus scale="  261.652">  1  6  2 -1</clus>
<clus scale="   49.533">  2  3  1 -1</clus>
</clustering>
</event>
<event>
 6    0  0.3082502E+002  0.9386105E+02  0.7546771E-02  0.1293762E+00
          1   -1    0    0  504    0 -0.00000000000E+00  0.00000000000E+00  0.19759275836E+04  0.19759275836E+04  0.00000000000E+00 0.  1.
         21   -1    0    0  503  502  0.00000000000E+00 -0.00000000000E+00 -0.29613981030E+02  0.29613981030E+02  0.00000000000E+00 0.  1.
         21    1    1    2  503  505 -0.26888177644E+02  0.36036564840E+02  0.16352897196E+03  0.16959756122E+03  0.00000000000E+00 0. -1.
         21    1    1    2  504  502 -0.65895188093E+02  0.11480010385E+02  0.36647418576E+02  0.76269258162E+02  0.00000000000E+00 0.  1.
         21    1    1    2  505  501  0.44848562548E+02  0.37600024085E+02  0.15725433999E+03  0.16779178412E+03  0.00000000000E+00 0.  1.
          1    1    1    2  501    0  0.47934803188E+02 -0.85116599310E+02  0.15888828720E+04  0.15918829611E+04  0.00000000000E+00 0.  1.
<scales pt_clust_3="44.96230" pt_clust_4="93.86105" pt_clust_5="59.69667" pt_clust_6="14000.00000"></scales>
<clustering>
<clus scale="   44.962">  2  3  1 -1</clus>
<clus scale="   59.697">  2  5  1 -1</clus>
<clus scale="   93.861">  2  4  1 -1</clus>
<clus scale="   44.962">  2  3  1 -1</clus>
</clustering>
</event>
<event>
 6    0  0.3082502E+002  0.1298915E+03  0.7546771E-02  0.1227617E+00
          2   -1    0    0  503    0 -0.00000000000E+00  0.00000000000E+00  0.70692121342E+03  0.70692121342E+03  0.00000000000E+00 0. -1.
         21   -1    0    0  501  502  0.00000000000E+00 -0.00000000000E+00 -0.33367191106E+03  0.33367191106E+03  0.00000000000E+00 0. -1.
         21    1    1    2  503  504  0.17176214261E+02  0.37232208897E+02  0.52579979439E+02  0.66677687073E+02  0.00000000000E+00 0. -1.
         21    1    1    2  504  505 -0.21489613351E+02  0.35068272005E+02  0.10315422030E+03  0.11105125100E+03  0.00000000000E+00 0. -1.
         21    1    1    2  505  502 -0.11446566890E+03 -0.63002113735E+02 -0.30242785971E+03  0.32944539156E+03  0.00000000000E+00 0. -1.
          2    1    1    2  501    0  0.11877906799E+03 -0.92983671672E+01  0.51994296232E+03  0.53341879484E+03  0.00000000000E+00 0. -1.
<scales pt_clust_3="41.00317" pt_clust_4="45.24984" pt_clust_5="14000.00000" pt_clust_6="129.89153"></scales>
<clustering>
<clus scale="   41.003">  1  3  2 -1</clus>
<clus scale="   45.250">  1  4  2 -1</clus>
<clus scale="  129.892">  1  6  2 -1</clus>
<clus scale="  129.892">  2  3  1 -1</clus>
</clustering>
</event>
<event>
 6    0  0.3082502E+002  0.1165705E+03  0.7546771E-02  0.1248864E+00
          2   -1    0    0  502    0 -0.00000000000E+00  0.00000000000E+00  0.20028108339E+04  0.20028108339E+04  0.00000000000E+00 0.  1.
         21   -1    0    0  503  502  0.00000000000E+00 -0.00000000000E+00 -0.94323251280E+02  0.94323251280E+02  0.00000000000E+00 0.  1.
         21    1    1    2  503  504  0.10533156659E+03  0.73669998839E+02 -0.37663205869E+02  0.13394224399E+03  0.00000000000E+00 0.  1.
         21    1    1    2  504  505 -0.36466904468E+02 -0.63161351566E+02  0.19324412644E+03  0.20654898658E+03  0.00000000000E+00 0.  1.
         21    1    1    2  505  501 -0.36965395374E+02  0.37445899849E+01  0.20486355901E+03  0.20820552399E+03  0.00000000000E+00 0. -1.
          2    1    1    2  501    0 -0.31899266748E+02 -0.14253237258E+02  0.15480431031E+04  0.15484373306E+04  0.00000000000E+00 0.  1.
<scales pt_clust_3="14000.00000" pt_clust_4="116.57054" pt_clust_5="51.53129" pt_clust_6="34.93877"></scales>
<clustering>
<clus scale="   34.939">  1  6  2 -1</clus>
<clus scale="   51.531">  1  5  2 -1</clus>
<clus scale="  116.571">  1  4  2 -1</clus>
<clus scale="  116.571">  2  3  1 -1</clus>
</clustering>
</event>
<event>
 6    0  0.3082502E+002  0.7530969E+02  0.7546771E-02  0.1342915E+00
         21   -1    0    0  503  502  0.00000000000E+00  0.00000000000E+00  0.22383386254E+04  0.22383386254E+04  0.00000000000E+00 0. -1.
         -2   -1    0    0    0  501 -0.00000000000E+00 -0.00000000000E+00 -0.16402077748E+03  0.16402077748E+03  0.00000000000E+00 0.  1.
         21    1    1    2  503  505  0.31299228564E+02 -0.22977303883E+02  0.10782390960E+04  0.10789379715E+04  0.00000000000E+00 0. -1.
         21    1    1    2  504  502  0.84961999707E+02  0.29597480676E+02  0.71076483718E+02  0.11465783355E+03  0.00000000000E+00 0. -1.
         21    1    1    2  505  501 -0.43571575495E+02 -0.25967823883E+02  0.10562615394E+04  0.10574787230E+04  0.00000000000E+00 0. -1.
         -2    1    1    2    0  504 -0.72689652776E+02  0.19347647090E+02 -0.13125927119E+03  0.15128487480E+03  0.00000000000E+00 0.  1.
<scales pt_clust_3="38.82780" pt_clust_4="14000.00000" pt_clust_5="49.26175" pt_clust_6="75.30969"></scales>
<clustering>
<clus scale="   38.828">  1  3  2 -1</clus>
<clus scale="   49.262">  1  5  2 -1</clus>
<clus scale="   75.310">  2  6  1 -1</clus>
<clus scale="   38.828">  1  3  2 -1</clus>
</clustering>
</event>
<event>
 6    0  0.3082502E+002  0.2680850E+03  0.7546771E-02  0.1102381E+00
          2   -1    0    0  505    0 -0.00000000000E+00  0.00000000000E+00  0.12634297451E+04  0.12634297451E+04  0.00000000000E+00 0.  1.
         21   -1    0    0  504  502  0.00000000000E+00 -0.00000000000E+00 -0.70071934114E+03  0.70071934114E+03  0.00000000000E+00 0.  1.
         21    1    1    2  503  502  0.14028327114E+03 -0.28107088489E+03 -0.53844735183E+03  0.62338253840E+03  0.00000000000E+00 0.  1.
         21    1    1    2  504  501 -0.44398900148E+01  0.53966864552E+02 -0.86364690565E+02  0.10193622942E+03  0.00000000000E+00 0. -1.
         21    1    1    2  505  503  0.24213225609E+02 -0.25276259027E+02  0.30666848384E+03  0.30865956740E+03  0.00000000000E+00 0.  1.
          2    1    1    2  501    0 -0.16005660673E+03  0.25238027937E+03  0.88085396255E+03  0.93017075105E+03  0.00000000000E+00 0.  1.
<scales pt_clust_3="14000.00000" pt_clust_4="53.92811" pt_clust_5="35.00242" pt_clust_6="268.08496"></scales>
<clustering>
<clus scale="   35.002">  1  5  2 -1</clus>
<clus scale="   53.928">  2  4  1 -1</clus>
<clus scale="  268.085">  1  6  2 -1</clus>
<clus scale="   53.928">  2  3  1 -1</clus>
</clustering>
</event>
<event>
 6    0  0.3082502E+002  0.9011004E+02  0.7546771E-02  0.1302585E+00
          1   -1    0    0  504    0 -0.00000000000E+00  0.00000000000E+00  0.17763023079E+04  0.17763023079E+04  0.00000000000E+00 0.  1.
         21   -1    0    0  501  502  0.00000000000E+00 -0.00000000000E+00 -0.25707333727E+02  0.25707333727E+02  0.00000000000E+00 0.  1.
         21    1    1    2  503  505 -0.70126956236E+02  0.41606040170E+02  0.12916105216E+03  0.15274629280E+03  0.00000000000E+00 0.  1.
         21    1    1    2  504  503 -0.57922573878E+01  0.31017954621E+02  0.50323860493E+03  0.50422689064E+03  0.00000000000E+00 0.  1.
         21    1    1    2  505  502 -0.23023214114E+02 -0.53682053394E+02  0.66430286403E+02  0.88457979834E+02  0.00000000000E+00 0.  1.
          1    1    1    2  501    0  0.98942427738E+02 -0.18941941396E+02  0.10517650307E+04  0.10565784783E+04  0.00000000000E+00 0.  1.
<scales pt_clust_3="14000.00000" pt_clust_4="31.55414" pt_clust_5="56.82504" pt_clust_6="90.11004"></scales>
<clustering>
<clus scale="   31.554">  1  4  2 -1</clus>
<clus scale="   56.825">  2  5  1 -1</clus>
<clus scale="   90.110">  1  6  2 -1</clus>
<clus scale="   56.825">  2  3  1 -1</clus>
</clustering>
</event>
<event>
 6    0  0.3082502E+002  0.9552992E+02  0.7546771E-02  0.1289987E+00
         -3   -1    0    0    0  501 -0.00000000000E+00  0.00000000000E+00  0.28245842255E+03  0.28245842255E+03  0.00000000000E+00 0. -1.
         21   -1    0    0  504  502  0.00000000000E+00 -0.00000000000E+00 -0.11472293913E+04  0.11472293913E+04  0.00000000000E+00 0. -1.
         21    1    1    2  503  502  0.32189355880E+02 -0.63749955918E+02 -0.16185443512E+03  0.17690977836E+03  0.00000000000E+00 0. -1.
         21    1    1    2  504  505 -0.21402559384E+02 -0.58978309641E+02 -0.91288142771E+03  0.91503497836E+03  0.00000000000E+00 0. -1.
         21    1    1    2  505  501  0.63512932496E+02  0.59964486881E+02 -0.18634300614E+02  0.89313321741E+02  0.00000000000E+00 0. -1.
         -3    1    1    2    0  503 -0.74299728992E+02  0.62763778677E+02  0.22859919466E+03  0.24842973542E+03  0.00000000000E+00 0. -1.
<scales pt_clust_3="95.52992" pt_clust_4="62.74162" pt_clust_5="74.66425" pt_clust_6="14000.00000"></scales>
<clustering>
<clus scale="   62.742">  2  4  1 -1</clus>
<clus scale="   74.664">  2  5  1 -1</clus>
<clus scale="   95.530">  2  3  1 -1</clus>
<clus scale="   62.742">  2  3  1 -1</clus>
</clustering>
</event>
<event>
 6    0  0.3082502E+002  0.1098454E+03  0.7546771E-02  0.1260857E+00
          2   -1    0    0  505    0 -0.00000000000E+00  0.00000000000E+00  0.17140303496E+04  0.17140303496E+04  0.00000000000E+00 0. -1.
         21   -1    0    0  504  502  0.00000000000E+00 -0.00000000000E+00 -0.21249892953E+03  0.21249892953E+03  0.00000000000E+00 0.  1.
         21    1    1    2  503  502 -0.14718797524E+03 -0.48460363883E+02 -0.14805176299E+03  0.21431759482E+03  0.00000000000E+00 0.  1.
         21    1    1    2  504  501  0.37819734717E+02  0.34219623865E+02  0.34514495627E+01  0.51119736850E+02  0.00000000000E+00 0.  1.
         21    1    1    2  505  503  0.75715962161E+02 -0.86063916312E+02  0.96662111412E+03  0.97339420734E+03  0.00000000000E+00 0. -1.
          2    1    1    2  501    0  0.33652278366E+02  0.10030465633E+03  0.67951061941E+03  0.68769774015E+03  0.00000000000E+00 0. -1.
<scales pt_clust_3="109.84537" pt_clust_4="51.00309" pt_clust_5="14000.00000" pt_clust_6="106.76565"></scales>
<clustering>
<clus scale="   51.003">  2  4  1 -1</clus>
<clus scale="  106.766">  1  6  2 -1</clus>
<clus scale="  109.845">  2  3  1 -1</clus>
<clus scale="   51.003">  2  3  1 -1</clus>
</clustering>
</event>
<event>
 6    0  0.3082502E+002  0.1656351E+03  0.7546771E-02  0.1182478E+00
          1   -1    0    0  504    0 -0.00000000000E+00  0.00000000000E+00  0.77121639844E+02  0.77121639844E+02  0.00000000000E+00 0. -1.
         21   -1    0    0  503  502  0.00000000000E+00 -0.00000000000E+00 -0.13552762359E+04  0.13552762359E+04  0.00000000000E+00 0. -1.
         21    1    1    2  503  505 -0.42547874642E+02 -0.16324758501E+02 -0.68265668339E+03  0.68417612261E+03  0.00000000000E+00 0. -1.
         21    1    1    2  504  502  0.55704313037E+02 -0.26339613158E+01 -0.63594653575E+02  0.84582434385E+02  0.00000000000E+00 0.  1.
         21    1    1    2  505  501  0.27803652776E+02 -0.15330439474E+03 -0.43441449741E+03  0.46150973567E+03  0.00000000000E+00 0. -1.
          1    1    1    2  501    0 -0.40960091171E+02  0.17226311456E+03 -0.97488761695E+02  0.20212958309E+03  0.00000000000E+00 0. -1.
<scales pt_clust_3="45.57213" pt_clust_4="51.20475" pt_clust_5="165.63513" pt_clust_6="14000.00000"></scales>
<clustering>
<clus scale="   45.572">  2  3  1 -1</clus>
<clus scale="   51.205">  1  4  2 -1</clus>
<clus scale="  165.635">  2  5  1 -1</clus>
<clus scale="   45.572">  2  3  1 -1</clus>
</clustering>
</event>
<event>
 6    0  0.3082502E+002  0.1295363E+03  0.7546771E-02  0.1228145E+00
         21   -1    0    0  504  502  0.00000000000E+00  0.00000000000E+00  0.25012777500E+03  0.25012777500E+03  0.00000000000E+00 0.  1.
          2   -1    0    0  505    0 -0.00000000000E+00 -0.00000000000E+00 -0.23966232726E+04  0.23966232726E+04  0.00000000000E+00 0. -1.
         21    1    1    2  503  502  0.84096153170E+02 -0.37605452973E+02  0.20995102989E+03  0.22927225742E+03  0.00000000000E+00 0.  1.
         21    1    1    2  504  501  0.19596991668E+02  0.13060936417E+03 -0.14845325369E+03  0.19869880881E+03  0.00000000000E+00 0.  1.
         21    1    1    2  505  503 -0.28710469191E+02 -0.30436895160E+02 -0.98385787925E+02  0.10691332421E+03  0.00000000000E+00 0. -1.
          2    1    1    2  501    0 -0.74982675648E+02 -0.62567016036E+02 -0.21096074858E+04  0.21118666571E+04  0.00000000000E+00 0. -1.
<scales pt_clust_3="92.06340" pt_clust_4="129.53634" pt_clust_5="41.84131" pt_clust_6="14000.00000"></scales>
<clustering>
<clus scale="   41.841">  2  5  1 -1</clus>
<clus scale="   92.063">  1  3  2 -1</clus>
<clus scale="  129.536">  1  4  2 -1</clus>
<clus scale="   92.063">  1  3  2 -1</clus>
</clustering>
</event>
<event>
 6    0  0.3082502E+002  0.6257235E+02  0.7546771E-02  0.1387343E+00
         21   -1    0    0  504  502  0.00000000000E+00  0.00000000000E+00  0.20417448174E+03  0.20417448174E+03  0.00000000000E+00 0. -1.
          1   -1    0    0  503    0 -0.00000000000E+00 -0.00000000000E+00 -0.35723129391E+03  0.35723129391E+03  0.00000000000E+00 0.  1.
         21    1    1    2  503  505 -0.32751987135E+02  0.18376970250E+02 -0.17402425179E+03  0.17803046342E+03  0.00000000000E+00 0.  1.
         21    1    1    2  504  501 -0.53253183315E+02 -0.28228181863E+02  0.14512889504E+03  0.15714683567E+03  0.00000000000E+00 0. -1.
         21    1    1    2  505  502 -0.16746591356E+02 -0.51141069653E+02  0.13254492369E+00  0.53813333807E+02  0.00000000000E+00 0.  1.
          1    1    1    2  501    0  0.10275176181E+03  0.60992281266E+02 -0.12429400035E+03  0.17241514275E+03  0.00000000000E+00 0.  1.
<scales pt_clust_3="37.55537" pt_clust_4="62.57235" pt_clust_5="53.01765" pt_clust_6="14000.00000"></scales>
<clustering>
<clus scale="   37.555">  2  3  1 -1</clus>
<clus scale="   53.018">  2  5  1 -1</clus>
<clus scale="   62.572">  1  4  2 -1</clus>
<clus scale="   62.572">  1  3  2 -1</clus>
</clustering>
</event>
<event>
 6    0  0.3082502E+002  0.9301887E+02  0.7546771E-02  0.1295701E+00
          2   -1    0    0  504    0 -0.00000000000E+00  0.00000000000E+00  0.51386336482E+03  0.51386336482E+03  0.00000000000E+00 0.  1.
         21   -1    0    0  505  502  0.00000000000E+00 -0.00000000000E+00 -0.91942097916E+03  0.91942097916E+03  0.00000000000E+00 0.  1.
         21    1    1    2  503  502  0.97279010778E+02 -0.58936689422E+02 -0.48902452224E+03  0.50207740703E+03  0.00000000000E+00 0.  1.
         21    1    1    2  504  503  0.10879734943E+02  0.29582931898E+02  0.65984515603E+02  0.73126430184E+02  0.00000000000E+00 0. -1.
         21    1    1    2  505  501 -0.47586336164E+01  0.65459317391E+02 -0.41080315162E+03  0.41601297601E+03  0.00000000000E+00 0.  1.
          2    1    1    2  501    0 -0.10340011210E+03 -0.36105559866E+02  0.42828554391E+03  0.44206753077E+03  0.00000000000E+00 0.  1.
<scales pt_clust_3="14000.00000" pt_clust_4="31.52013" pt_clust_5="65.80046" pt_clust_6="93.01887"></scales>
<clustering>
<clus scale="   31.520">  1  4  2 -1</clus>
<clus scale="   65.800">  2  5  1 -1</clus>
<clus scale="   93.019">  1  6  2 -1</clus>
<clus scale="   65.800">  2  3  1 -1</clus>
</clustering>
</event>
<event>
 6    0  0.3082502E+002  0.8500879E+02  0.7546771E-02  0.1315410E+00
         21   -1    0    0  505  502  0.00000000000E+00  0.00000000000E+00  0.10079432154E+04  0.10079432154E+04  0.00000000000E+00 0. -1.
          2   -1    0    0  502    0 -0.00000000000E+00 -0.00000000000E+00 -0.10039901763E+03  0.10039901763E+03  0.00000000000E+00 0. -1.
         21    1    1    2  503  504  0.37446405282E+02 -0.62843302356E+02  0.70288210714E+03  0.70667868968E+03  0.00000000000E+00 0.  1.
         21    1    1    2  504  501  0.57125882161E+02  0.98711601937E+01  0.10347571375E+03  0.11860872461E+03  0.00000000000E+00 0. -1.
         21    1    1    2  505  503 -0.50306286688E+01  0.34205182909E+02  0.16688059740E+03  0.17042428099E+03  0.00000000000E+00 0. -1.
          2    1    1    2  501    0 -0.89541658774E+02  0.18766959253E+02 -0.65694220541E+02  0.11263053772E+03  0.00000000000E+00 0. -1.
<scales pt_clust_3="47.62228" pt_clust_4="85.00879" pt_clust_5="34.57314" pt_clust_6="14000.00000"></scales>
<clustering>
<clus scale="   34.573">  1  5  2 -1</clus>
<clus scale="   47.622">  1  3  2 -1</clus>
<clus scale="   85.009">  1  4  2 -1</clus>
<clus scale="   34.573">  1  3  2 -1</clus>
</clustering>
</event>
<event>
 6    0  0.3082502E+002  0.6727660E+02  0.7546771E-02  0.1369607E+00
         21   -1    0    0  501  502  0.00000000000E+00  0.00000000000E+00  0.11515025755E+02  0.11515025755E+02  0.00000000000E+00 0.  1.
          2   -1    0    0  504    0 -0.00000000000E+00 -0.00000000000E+00 -0.28587260948E+04  0.28587260948E+04  0.00000000000E+00 0.  1.
         21    1    1    2  503  502 -0.13346254803E+01  0.45302347631E+02 -0.11043977196E+03  0.11937766607E+03  0.00000000000E+00 0.  1.
         21    1    1    2  504  505 -0.42654874225E+02  0.12497303293E+02 -0.14243111072E+04  0.14250044740E+04  0.00000000000E+00 0.  1.
         21    1    1    2  505  503  0.12551286594E+02 -0.10739229913E+03 -0.51434457008E+03  0.52558631782E+03  0.00000000000E+00 0.  1.
          2    1    1    2  501    0  0.31438213112E+02  0.49592648203E+02 -0.79811561984E+03  0.80027266268E+03  0.00000000000E+00 0.  1.
<scales pt_clust_3="46.54698" pt_clust_4="44.44796" pt_clust_5="14000.00000" pt_clust_6="67.27660"></scales>
<clustering>
<clus scale="   44.448">  2  4  1 -1</clus>
<clus scale="   46.547">  1  3  2 -1</clus>
<clus scale="   67.277">  2  6  1 -1</clus>
<clus scale="   46.547">  1  3  2 -1</clus>
</clustering>
</event>
<event>
 6    0  0.3082502E+002  0.9344032E+02  0.7546771E-02  0.1294728E+00
          3   -1    0    0  504    0 -0.00000000000E+00  0.00000000000E+00  0.79989772012E+03  0.79989772012E+03  0.00000000000E+00 0. -1.
         21   -1    0    0  503  502  0.00000000000E+00 -0.00000000000E+00 -0.50261146288E+03  0.50261146288E+03  0.00000000000E+00 0. -1.
         21    1    1    2  503  501  0.47254439745E+02 -0.51819554947E+02 -0.39768125037E+03  0.40381756431E+03  0.00000000000E+00 0. -1.
         21    1    1    2  504  505  0.23804885576E+02  0.21089068522E+02  0.48488619819E+02  0.57987650757E+02  0.00000000000E+00 0. -1.
         21    1    1    2  505  502 -0.87211166108E+02 -0.36032704906E+02 -0.72159498908E+02  0.11879030516E+03  0.00000000000E+00 0.  1.
          3    1    1    2  501    0  0.16151840787E+02  0.66763191332E+02  0.71863838669E+03  0.72191366278E+03  0.00000000000E+00 0. -1.
<scales pt_clust_3="70.13222" pt_clust_4="31.80285" pt_clust_5="93.44032" pt_clust_6="14000.00000"></scales>
<clustering>
<clus scale="   31.803">  1  4  2 -1</clus>
<clus scale="   70.132">  2  3  1 -1</clus>
<clus scale="   93.440">  2  5  1 -1</clus>
<clus scale="   70.132">  2  3  1 -1</clus>
</clustering>
</event>
<event>
 6    0  0.3082502E+002  0.1014923E+03  0.7546771E-02  0.1277189E+00
         21   -1    0    0  504  502  0.00000000000E+00  0.00000000000E+00  0.17498157103E+03  0.17498157103E+03  0.00000000000E+00 0. -1.
          1   -1    0    0  505    0 -0.00000000000E+00 -0.00000000000E+00 -0.16445823591E+04  0.16445823591E+04  0.00000000000E+00 0. -1.
         21    1    1    2  503  502  0.20353588981E+02  0.22346826621E+02 -0.36596164621E+02  0.47465024064E+02  0.00000000000E+00 0. -1.
         21    1    1    2  504  501 -0.57457516663E+02 -0.11412945664E+03  0.13982762733E+03  0.18941664250E+03  0.00000000000E+00 0. -1.
         21    1    1    2  505  503  0.68330403459E+01 -0.38369728084E+02 -0.50914028402E+03  0.51062976342E+03  0.00000000000E+00 0. -1.
          1    1    1    2  501    0  0.30270887336E+02  0.13015235810E+03 -0.10636919667E+04  0.10720525001E+04  0.00000000000E+00 0. -1.
<scales pt_clust_3="30.22663" pt_clust_4="101.49233" pt_clust_5="38.89259" pt_clust_6="14000.00000"></scales>
<clustering>
<clus scale="   30.227">  1  3  2 -1</clus>
<clus scale="   38.893">  2  5  1 -1</clus>
<clus scale="  101.492">  1  4  2 -1</clus>
<clus scale="   30.227">  1  3  2 -1</clus>
</clustering>
</event>
<event>
 6    0  0.3082502E+002  0.1657946E+03  0.7546771E-02  0.1182306E+00
         21   -1    0    0  505  502  0.00000000000E+00  0.00000000000E+00  0.85012648576E+03  0.85012648576E+03  0.00000000000E+00 0.  1.
          2   -1    0    0  503    0 -0.00000000000E+00 -0.00000000000E+00 -0.10727503359E+04  0.10727503359E+04  0.00000000000E+00 0.  1.
         21    1    1    2  503  504 -0.66463861596E+02 -0.32846988778E+02 -0.27495653434E+03  0.28477616710E+03  0.00000000000E+00 0. -1.
         21    1    1    2  504  502 -0.17346483902E+03  0.11314561763E+03  0.16339832506E+03  0.26380104965E+03  0.00000000000E+00 0.  1.
         21    1    1    2  505  501  0.18817780537E+02 -0.16118350410E+03  0.60193807983E+03  0.62342897175E+03  0.00000000000E+00 0.  1.
          2    1    1    2  501    0  0.22111092007E+03  0.80884875253E+02 -0.71300372068E+03  0.75087063315E+03  0.00000000000E+00 0.  1.
<scales pt_clust_3="74.13750" pt_clust_4="14000.00000" pt_clust_5="162.61871" pt_clust_6="165.79463"></scales>
<clustering>
<clus scale="   74.138">  2  3  1 -1</clus>
<clus scale="  162.619">  1  5  2 -1</clus>
<clus scale="  165.795">  2  6  1 -1</clus>
<clus scale="  162.619">  1  3  2 -1</clus>
</clustering>
</event>
<event>
 6    0  0.3082502E+002  0.1084494E+03  0.7546771E-02  0.1263469E+00
          2   -1    0    0  503    0 -0.00000000000E+00  0.00000000000E+00  0.14219932399E+04  0.14219932399E+04  0.00000000000E+00 0.  1.
         21   -1    0    0  504  502  0.00000000000E+00 -0.00000000000E+00 -0.27607050355E+03  0.27607050355E+03  0.00000000000E+00 0.  1.
         21    1    1    2  503  502  0.26508221770E+02 -0.29014486994E+02  0.53032660368E+02  0.66007494594E+02  0.00000000000E+00 0. -1.
         21    1    1    2  504  505  0.31245747732E+02 -0.90156180811E+01 -0.22826710254E+03  0.23057200225E+03  0.00000000000E+00 0.  1.
         21    1    1    2  505  501 -0.49238186569E+02 -0.72517829047E+02  0.12971869138E+02  0.88608712524E+02  0.00000000000E+00 0. -1.
          2    1    1    2  501    0 -0.85157829337E+01  0.11054793412E+03  0.13081853094E+04  0.13128755341E+04  0.00000000000E+00 0.  1.
<scales pt_clust_3="43.22146" pt_clust_4="32.52043" pt_clust_5="108.44944" pt_clust_6="14000.00000"></scales>
<clustering>
<clus scale="   32.520">  2  4  1 -1</clus>
<clus scale="   43.221">  2  3  1 -1</clus>
<clus scale="  108.449">  2  5  1 -1</clus>
<clus scale="   32.520">  2  3  1 -1</clus>
</clustering>
</event>
<event>
 6    0  0.3082502E+002  0.1629700E+03  0.7546771E-02  0.1185384E+00
         21   -1    0    0  505  502  0.00000000000E+00  0.00000000000E+00  0.82897881536E+03  0.82897881536E+03  0.00000000000E+00 0. -1.
         -3   -1    0    0    0  501 -0.00000000000E+00 -0.00000000000E+00 -0.17852894917E+03  0.17852894917E+03  0.00000000000E+00 0. -1.
         21    1    1    2  503  501  0.10614323037E+03  0.21491481256E+02 -0.28239595209E+02  0.11191846969E+03  0.00000000000E+00 0. -1.
         21    1    1    2  504  503  0.97596836118E+02 -0.59088757701E+02  0.12657988997E+03  0.17040860380E+03  0.00000000000E+00 0. -1.
         21    1    1    2  505  504 -0.51488435794E+01 -0.98118339900E+02  0.45548811281E+03  0.46596474129E+03  0.00000000000E+00 0. -1.
         -3    1    1    2    0  502 -0.19859122291E+03  0.13571561634E+03  0.96621458615E+02  0.25921594974E+03  0.00000000000E+00 0. -1.
<scales pt_clust_3="106.06381" pt_clust_4="14000.00000" pt_clust_5="98.25334" pt_clust_6="162.96997"></scales>
<clustering>
<clus scale="   98.253">  1  5  2 -1</clus>
<clus scale="  106.064">  2  3  1 -1</clus>
<clus scale="  162.970">  2  6  1 -1</clus>
<clus scale="   98.253">  1  3  2 -1</clus>
</clustering>
</event>
<event>
 6    0  0.3082502E+002  0.8240242E+02  0.7546771E-02  0.1322369E+00
          2   -1    0    0  503    0 -0.00000000000E+00  0.00000000000E+00  0.19512662016E+04  0.19512662016E+04  0.00000000000E+00 0.  1.
         21   -1    0    0  504  502  0.00000000000E+00 -0.00000000000E+00 -0.19134545368E+03  0.19134545368E+03  0.00000000000E+00 0. -1.
         21    1    1    2  503  505  0.71239130462E+02 -0.16699331569E+02  0.11137569825E+04  0.11161579178E+04  0.00000000000E+00 0.  1.
         21    1    1    2  504  501 -0.18436103650E+02 -0.50324730701E+02 -0.14968870186E+03  0.15899426374E+03  0.00000000000E+00 0. -1.
         21    1    1    2  505  502  0.52351634605E+02 -0.11495124787E+02 -0.69083522843E+01  0.54042176779E+02  0.00000000000E+00 0. -1.
          2    1    1    2  501    0 -0.10515466142E+03  0.78519187057E+02  0.80276081956E+03  0.81341729695E+03  0.00000000000E+00 0.  1.
<scales pt_clust_3="82.40242" pt_clust_4="53.59541" pt_clust_5="64.68556" pt_clust_6="14000.00000"></scales>
<clustering>
<clus scale="   53.595">  2  4  1 -1</clus>
<clus scale="   64.686">  2  5  1 -1</clus>
<clus scale="   82.402">  1  3  2 -1</clus>
<clus scale="   53.595">  2  3  1 -1</clus>
</clustering>
</event>
<event>
 6    0  0.3082502E+002  0.1846132E+03  0.7546771E-02  0.1163412E+00
         21   -1    0    0  503  502  0.00000000000E+00  0.00000000000E+00  0.15698928699E+03  0.15698928699E+03  0.00000000000E+00 0. -1.
          1   -1    0    0  505    0 -0.00000000000E+00 -0.00000000000E+00 -0.99901563562E+03  0.99901563562E+03  0.00000000000E+00 0.  1.
         21    1    1    2  503  501  0.21326716082E+02 -0.27776229428E+02  0.83595842127E+02  0.90634499839E+02  0.00000000000E+00 0. -1.
         21    1    1    2  504  502 -0.38435564403E+02 -0.47486296112E+02  0.29381310388E+01  0.61162680970E+02  0.00000000000E+00 0. -1.
         21    1    1    2  505  504 -0.91266028597E+02 -0.61738749184E+02 -0.75804495852E+02  0.13374409414E+03  0.00000000000E+00 0. -1.
          1    1    1    2  501    0  0.10837487692E+03  0.13700127472E+03 -0.85275582594E+03  0.87046364766E+03  0.00000000000E+00 0.  1.
<scales pt_clust_3="35.01925" pt_clust_4="48.73260" pt_clust_5="48.73260" pt_clust_6="173.65343"></scales>
<clustering>
<clus scale="   35.019">  1  3  2 -1</clus>
<clus scale="   48.733">  4  5 -1 -1</clus>
<clus scale="  173.653">  2  6  1 -1</clus>
<clus scale="   35.019">  1  3  2 -1</clus>
</clustering>
</event>
<event>
 6    0  0.3082502E+002  0.9888477E+02  0.7546771E-02  0.1282659E+00
          2   -1    0    0  503    0 -0.00000000000E+00  0.00000000000E+00  0.54171113853E+03  0.54171113853E+03  0.00000000000E+00 0. -1.
         21   -1    0    0  505  502  0.00000000000E+00 -0.00000000000E+00 -0.33538735005E+03  0.33538735005E+03  0.00000000000E+00 0.  1.
         21    1    1    2  503  504 -0.26226473486E+02  0.23463326187E+02  0.49649004465E+02  0.60855396077E+02  0.00000000000E+00 0. -1.
         21    1    1    2  504  502  0.33034362024E+02  0.62843513125E+02 -0.63369887427E+02  0.95164693288E+02  0.00000000000E+00 0.  1.
         21    1    1    2  505  501 -0.12834226238E+03 -0.67293896634E+02 -0.22040263205E+03  0.26377552019E+03  0.00000000000E+00 0.  1.
          2    1    1    2  501    0  0.12153437384E+03 -0.19012942678E+02  0.44044730349E+03  0.45730287903E+03  0.00000000000E+00 0. -1.
<scales pt_clust_3="35.19028" pt_clust_4="71.28567" pt_clust_5="98.88477" pt_clust_6="14000.00000"></scales>
<clustering>
<clus scale="   35.190">  1  3  2 -1</clus>
<clus scale="   71.286">  2  4  1 -1</clus>
<clus scale="   98.885">  2  5  1 -1</clus>
<clus scale="   71.286">  2  3  1 -1</clus>
</clustering>
</event>
<event>
 6    0  0.3082502E+002  0.1228878E+03  0.7546771E-02  0.1238408E+00
         21   -1    0    0  503  502  0.00000000000E+00  0.00000000000E+00  0.20558300758E+02  0.20558300758E+02  0.00000000000E+00 0.  1.
          2   -1    0    0  504    0 -0.00000000000E+00 -0.00000000000E+00 -0.27938043546E+04  0.27938043546E+04  0.00000000000E+00 0. -1.
         21    1    1    2  503  501 -0.11132966631E+03 -0.30896460302E+02 -0.37247038279E+03  0.38997829672E+03  0.00000000000E+00 0.  1.
         21    1    1    2  504  505 -0.69401954967E+02  0.20225340218E+02 -0.11544237317E+04  0.11566848525E+04  0.00000000000E+00 0.  1.
         21    1    1    2  505  502  0.10688254506E+02  0.39688856353E+02 -0.95195009918E+02  0.10368960419E+03  0.00000000000E+00 0.  1.
          2    1    1    2  501    0  0.17004336677E+03 -0.29017736268E+02 -0.11511569294E+04  0.11640099019E+04  0.00000000000E+00 0. -1.
<scales pt_clust_3="122.88777" pt_clust_4="72.40345" pt_clust_5="41.10285" pt_clust_6="14000.00000"></scales>
<clustering>
<clus scale="   41.103">  1  5  2 -1</clus>
<clus scale="   72.403">  2  4  1 -1</clus>
<clus scale="  122.888">  1  3  2 -1</clus>
<clus scale="   41.103">  1  3  2 -1</clus>
</clustering>
</event>
<event>
 6    0  0.3082502E+002  0.8590955E+02  0.7546771E-02  0.1313071E+00
         21   -1    0    0  505  502  0.00000000000E+00  0.00000000000E+00  0.26509699542E+03  0.26509699542E+03  0.00000000000E+00 0. -1.
          1   -1    0    0  503    0 -0.00000000000E+00 -0.00000000000E+00 -0.56455239422E+03  0.56455239422E+03  0.00000000000E+00 0. -1.
         21    1    1    2  503  504  0.17981031502E+02 -0.30923304488E+02 -0.48868877606E+02  0.60561831650E+02  0.00000000000E+00 0. -1.
         21    1    1    2  504  502 -0.10239742802E+02 -0.63162848785E+02  0.80828059339E+00  0.63992586421E+02  0.00000000000E+00 0. -1.
         21    1    1    2  505  501 -0.44443368301E+02 -0.11549437491E+02  0.21788670791E+03  0.22267289907E+03  0.00000000000E+00 0. -1.
          1    1    1    2  501    0  0.36702079602E+02  0.10563559076E+03 -0.46928150970E+03  0.48242207250E+03  0.00000000000E+00 0. -1.
<scales pt_clust_3="35.77105" pt_clust_4="85.90955" pt_clust_5="45.87463" pt_clust_6="14000.00000"></scales>
<clustering>
<clus scale="   35.771">  2  3  1 -1</clus>
<clus scale="   45.875">  1  5  2 -1</clus>
<clus scale="   85.910">  1  4  2 -1</clus>
<clus scale="   45.875">  1  3  2 -1</clus>
</clustering>
</event>
<event>
 6    0  0.3082502E+002  0.2132012E+03  0.7546771E-02  0.1139056E+00
          2   -1    0    0  504    0 -0.00000000000E+00  0.00000000000E+00  0.25623887806E+04  0.25623887806E+04  0.00000000000E+00 0. -1.
         21   -1    0    0  501  502  0.00000000000E+00 -0.00000000000E+00 -0.11483115526E+03  0.11483115526E+03  0.00000000000E+00 0. -1.
         21    1    1    2  503  502 -0.21452415870E+02 -0.38920221153E+02 -0.30403667116E+02  0.53845823750E+02  0.00000000000E+00 0. -1.
         21    1    1    2  504  505  0.28604348392E+02  0.10649592550E+02  0.46489510824E+03  0.46589600152E+03  0.00000000000E+00 0.  1.
         21    1    1    2  505  503  0.49713138513E+02 -0.17603631732E+03  0.59383684196E+02  0.19231901390E+03  0.00000000000E+00 0. -1.
          2    1    1    2  501    0 -0.56865071035E+02  0.20430694593E+03  0.19536825000E+04  0.19651590967E+04  0.00000000000E+00 0. -1.
<scales pt_clust_3="44.31169" pt_clust_4="30.52249" pt_clust_5="14000.00000" pt_clust_6="213.20124"></scales>
<clustering>
<clus scale="   30.522">  1  4  2 -1</clus>
<clus scale="   44.312">  2  3  1 -1</clus>
<clus scale="  213.201">  1  6  2 -1</clus>
<clus scale="   44.312">  2  3  1 -1</clus>
</clustering>
</event>
<event>
 6    0  0.3082502E+002  0.1234663E+03  0.7546771E-02  0.1237486E+00
         21   -1    0    0  501  502  0.00000000000E+00  0.00000000000E+00  0.15231724484E+03  0.15231724484E+03  0.00000000000E+00 0. -1.
          2   -1    0    0  504    0 -0.00000000000E+00 -0.00000000000E+00 -0.16041041532E+04  0.16041041532E+04  0.00000000000E+00 0. -1.
         21    1    1    2  503  502 -0.60423474615E+02 -0.65954715024E+01  0.55837890957E+02  0.82537061951E+02  0.00000000000E+00 0. -1.
         21    1    1    2  504  505  0.14804638041E+02 -0.28664799072E+02 -0.62735577702E+02  0.70545026210E+02  0.00000000000E+00 0. -1.
         21    1    1    2  505  503 -0.41333289121E+02 -0.47000735082E+02  0.64111915341E+02  0.89598256548E+02  0.00000000000E+00 0. -1.
          2    1    1    2  501    0  0.86952125695E+02  0.82261005656E+02 -0.15090011369E+04  0.15137410533E+04  0.00000000000E+00 0. -1.
<scales pt_clust_3="44.17158" pt_clust_4="32.26218" pt_clust_5="44.17158" pt_clust_6="115.01437"></scales>
<clustering>
<clus scale="   32.262">  2  4  1 -1</clus>
<clus scale="   44.172">  3  5 -1 -1</clus>
<clus scale="  115.014">  2  6  1 -1</clus>
<clus scale="  123.466">  1  3  2 -1</clus>
</clustering>
</event>
<event>
 6    0  0.3082502E+002  0.2387038E+03  0.7546771E-02  0.1120659E+00
         21   -1    0    0  504  502  0.00000000000E+00  0.00000000000E+00  0.12606980007E+04  0.12606980007E+04  0.00000000000E+00 0.  1.
         -4   -1    0    0    0  501 -0.00000000000E+00 -0.00000000000E+00 -0.36325403084E+03  0.36325403084E+03  0.00000000000E+00 0.  1.
         21    1    1    2  503  502  0.34346679809E+02  0.21339317730E+02  0.26013894851E+03  0.26326285994E+03  0.00000000000E+00 0.  1.
         21    1    1    2  504  501  0.39272245977E+02 -0.79435154149E+01 -0.11883201375E+03  0.12540516829E+03  0.00000000000E+00 0. -1.
         21    1    1    2  505  503 -0.43810045157E+02 -0.25777368793E+03  0.90875769299E+03  0.94562526341E+03  0.00000000000E+00 0.  1.
         -4    1    1    2    0  505 -0.29808880629E+02  0.24437788561E+03 -0.15262065793E+03  0.28965873984E+03  0.00000000000E+00 0.  1.
<scales pt_clust_3="40.62520" pt_clust_4="40.06755" pt_clust_5="14000.00000" pt_clust_6="238.70380"></scales>
<clustering>
<clus scale="   40.068">  2  4  1 -1</clus>
<clus scale="   40.625">  1  3  2 -1</clus>
<clus scale="  238.704">  2  6  1 -1</clus>
<clus scale="   40.625">  1  3  2 -1</clus>
</clustering>
</event>
<event>
 6    0  0.3082502E+002  0.6999368E+02  0.7546771E-02  0.1360115E+00
         21   -1    0    0  504  502  0.00000000000E+00  0.00000000000E+00  0.91083029108E+02  0.91083029108E+02  0.00000000000E+00 0. -1.
         -3   -1    0    0    0  501 -0.00000000000E+00 -0.00000000000E+00 -0.10113096891E+04  0.10113096891E+04  0.00000000000E+00 0.  1.
         21    1    1    2  503  502  0.42207394390E+02 -0.25105178554E+01 -0.51451220394E+02  0.66595757531E+02  0.00000000000E+00 0.  1.
         21    1    1    2  504  505  0.14631306301E+02  0.50651648932E+02  0.58951121994E+02  0.79087922264E+02  0.00000000000E+00 0. -1.
         21    1    1    2  505  501 -0.53514296732E+01 -0.89380139952E+02 -0.13973947339E+03  0.16596556161E+03  0.00000000000E+00 0.  1.
         -3    1    1    2    0  503 -0.51487271018E+02  0.41239008874E+02 -0.78798708823E+03  0.79074347683E+03  0.00000000000E+00 0.  1.
<scales pt_clust_3="42.28199" pt_clust_4="14000.00000" pt_clust_5="69.99368" pt_clust_6="65.39830"></scales>
<clustering>
<clus scale="   42.282">  1  3  2 -1</clus>
<clus scale="   65.398">  2  6  1 -1</clus>
<clus scale="   69.994">  2  5  1 -1</clus>
<clus scale="   42.282">  1  3  2 -1</clus>
</clustering>
</event>
<event>
 6    0  0.3082502E+002  0.1541119E+03  0.7546771E-02  0.1195509E+00
         21   -1    0    0  504  502  0.00000000000E+00  0.00000000000E+00  0.15404410534E+03  0.15404410534E+03  0.00000000000E+00 0.  1.
          3   -1    0    0  503    0 -0.00000000000E+00 -0.00000000000E+00 -0.42424362731E+03  0.42424362731E+03  0.00000000000E+00 0.  1.
         21    1    1    2  503  502 -0.43408741462E+02  0.55556678369E+02 -0.19742164333E+03  0.20963341480E+03  0.00000000000E+00 0. -1.
         21    1    1    2  504  505 -0.25061571155E+02 -0.49203681871E+02  0.33707051493E+02  0.64693508011E+02  0.00000000000E+00 0.  1.
         21    1    1    2  505  501  0.49930242109E+01 -0.10900404132E+03  0.38139756752E+02  0.11559174867E+03  0.00000000000E+00 0.  1.
          3    1    1    2  501    0  0.63477288406E+02  0.10265104483E+03 -0.14462468689E+03  0.18836906117E+03  0.00000000000E+00 0.  1.
<scales pt_clust_3="70.50435" pt_clust_4="31.07606" pt_clust_5="31.07606" pt_clust_6="147.79070"></scales>
<clustering>
<clus scale="   31.076">  4  5 -1 -1</clus>
<clus scale="   70.504">  2  3  1 -1</clus>
<clus scale="  147.791">  2  6  1 -1</clus>
<clus scale="  154.112">  1  3  2 -1</clus>
</clustering>
</event>
<event>
 6    0  0.3082502E+002  0.1185705E+03  0.7546771E-02  0.1245474E+00
         21   -1    0    0  503  502  0.00000000000E+00  0.00000000000E+00  0.62773687490E+03  0.62773687490E+03  0.00000000000E+00 0. -1.
          1   -1    0    0  504    0 -0.00000000000E+00 -0.00000000000E+00 -0.18819847635E+03  0.18819847635E+03  0.00000000000E+00 0. -1.
         21    1    1    2  503  501  0.13449195583E+03  0.11137078168E+01  0.53257975738E+03  0.54930003141E+03  0.00000000000E+00 0. -1.
         21    1    1    2  504  505 -0.16639146772E+02 -0.36378129701E+02 -0.24683370584E+02  0.47005300863E+02  0.00000000000E+00 0. -1.
         21    1    1    2  505  502 -0.22904851781E+02 -0.40885607579E+02  0.36165152237E+02  0.59196143274E+02  0.00000000000E+00 0. -1.
          1    1    1    2  501    0 -0.94947957278E+02  0.76150029463E+02 -0.10452314048E+03  0.16043387571E+03  0.00000000000E+00 0. -1.
<scales pt_clust_3="14000.00000" pt_clust_4="40.00287" pt_clust_5="49.87843" pt_clust_6="118.57051"></scales>
<clustering>
<clus scale="   40.003">  2  4  1 -1</clus>
<clus scale="   49.878">  1  5  2 -1</clus>
<clus scale="  118.571">  2  6  1 -1</clus>
<clus scale="   49.878">  1  3  2 -1</clus>
</clustering>
</event>
<event>
 6    0  0.3082502E+002  0.1109530E+03  0.7546771E-02  0.1258815E+00
         21   -1    0    0  504  502  0.00000000000E+00  0.00000000000E+00  0.12983835469E+03  0.12983835469E+03  0.00000000000E+00 0.  1.
          2   -1    0    0  503    0 -0.00000000000E+00 -0.00000000000E+00 -0.85675971353E+03  0.85675971353E+03  0.00000000000E+00 0.  1.
         21    1    1    2  503  505 -0.18862974274E+02  0.39057626514E+02 -0.33347012464E+03  0.33627910136E+03  0.00000000000E+00 0.  1.
         21    1    1    2  504  501 -0.66800599292E+02 -0.60572920639E+02  0.67100595927E+02  0.11240057275E+03  0.00000000000E+00 0.  1.
         21    1    1    2  505  502  0.16994059748E+03  0.21219823373E+02 -0.19606973319E+03  0.26033330146E+03  0.00000000000E+00 0.  1.
          2    1    1    2  501    0 -0.84277023910E+02  0.29547075219E+00 -0.26448209693E+03  0.27758509265E+03  0.00000000000E+00 0.  1.
<scales pt_clust_3="43.37407" pt_clust_4="89.66025" pt_clust_5="14000.00000" pt_clust_6="110.95303"></scales>
<clustering>
<clus scale="   43.374">  2  3  1 -1</clus>
<clus scale="   89.660">  1  4  2 -1</clus>
<clus scale="  110.953">  2  6  1 -1</clus>
<clus scale="   89.660">  1  3  2 -1</clus>
</clustering>
</event>
<event>
 6    0  0.3082502E+002  0.1182727E+03  0.7546771E-02  0.1245974E+00
          2   -1    0    0  504    0 -0.00000000000E+00  0.00000000000E+00  0.28006883118E+04  0.28006883118E+04  0.00000000000E+00 0. -1.
         21   -1    0    0  505  502  0.00000000000E+00 -0.00000000000E+00 -0.19801064038E+03  0.19801064038E+03  0.00000000000E+00 0. -1.
         21    1    1    2  503  502  0.58492189770E+02  0.20884039907E+02 -0.17338512267E+03  0.18417350556E+03  0.00000000000E+00 0. -1.
         21    1    1    2  504  503  0.38219284372E+02 -0.12708127225E+03  0.65408440368E+03  0.66741049632E+03  0.00000000000E+00 0. -1.
         21    1    1    2  505  501 -0.37576791446E+02  0.68970534646E+01  0.22256420042E+02  0.44214622411E+02  0.00000000000E+00 0.  1.
          2    1    1    2  501    0 -0.59134682695E+02  0.99300178876E+02  0.20997219703E+04  0.21029003279E+04  0.00000000000E+00 0. -1.
<scales pt_clust_3="35.56024" pt_clust_4="118.27266" pt_clust_5="38.20451" pt_clust_6="14000.00000"></scales>
<clustering>
<clus scale="   38.205">  2  5  1 -1</clus>
<clus scale="   35.560">  2  3  1 -1</clus>
<clus scale="  118.273">  2  4  1 -1</clus>
<clus scale="   38.205">  2  3  1 -1</clus>
</clustering>
</event>
<event>
 6    0  0.3082502E+002  0.8813998E+02  0.7546771E-02  0.1307420E+00
         21   -1    0    0  505  502  0.00000000000E+00  0.00000000000E+00  0.27232252271E+03  0.27232252271E+03  0.00000000000E+00 0. -1.
          1   -1    0    0  503    0 -0.00000000000E+00 -0.00000000000E+00 -0.58846042973E+03  0.58846042973E+03  0.00000000000E+00 0.  1.
         21    1    1    2  503  502 -0.20512139050E+02  0.27795031315E+02 -0.62985343643E+02  0.71836377470E+02  0.00000000000E+00 0. -1.
         21    1    1    2  504  501 -0.14296508717E+02 -0.15521919441E+03  0.35084655252E+02  0.15977584770E+03  0.00000000000E+00 0. -1.
         21    1    1    2  505  504  0.61354614427E+01  0.78033423445E+02  0.15957119629E+03  0.17773526872E+03  0.00000000000E+00 0. -1.
          1    1    1    2  501    0  0.28673186324E+02  0.49390739649E+02 -0.44780841491E+03  0.45143545856E+03  0.00000000000E+00 0.  1.
<scales pt_clust_3="34.54434" pt_clust_4="14000.00000" pt_clust_5="88.13998" pt_clust_6="74.19145"></scales>
<clustering>
<clus scale="   34.544">  2  3  1 -1</clus>
<clus scale="   74.191">  2  6  1 -1</clus>
<clus scale="   88.140">  1  5  2 -1</clus>
<clus scale="   88.140">  1  3  2 -1</clus>
</clustering>
</event>
<event>
 6    0  0.3082502E+002  0.1231543E+03  0.7546771E-02  0.1237982E+00
         -3   -1    0    0    0  501 -0.00000000000E+00  0.00000000000E+00  0.88125023993E+03  0.88125023993E+03  0.00000000000E+00 0. -1.
         21   -1    0    0  504  502  0.00000000000E+00 -0.00000000000E+00 -0.48346555020E+02  0.48346555020E+02  0.00000000000E+00 0. -1.
         21    1    1    2  503  501 -0.76396579917E+02 -0.70392373214E+02  0.24756760128E+03  0.26847949798E+03  0.00000000000E+00 0. -1.
         21    1    1    2  504  503  0.22194299994E+01 -0.29923389844E+02  0.39840095410E+02  0.49875528384E+02  0.00000000000E+00 0. -1.
         21    1    1    2  505  502  0.10838424369E+02 -0.28618175613E+02 -0.13961337797E+02  0.33636146796E+02  0.00000000000E+00 0. -1.
         -3    1    1    2    0  505  0.63338725549E+02  0.12893393867E+03  0.55945732601E+03  0.57760562179E+03  0.00000000000E+00 0. -1.
<scales pt_clust_3="123.15432" pt_clust_4="30.00558" pt_clust_5="46.63939" pt_clust_6="14000.00000"></scales>
<clustering>
<clus scale="   30.006">  2  4  1 -1</clus>
<clus scale="   46.639">  2  5  1 -1</clus>
<clus scale="  123.154">  2  3  1 -1</clus>
<clus scale="   30.006">  2  3  1 -1</clus>
</clustering>
</event>
<event>
 6    0  0.3082502E+002  0.1171642E+03  0.7546771E-02  0.1247850E+00
          2   -1    0    0  505    0 -0.00000000000E+00  0.00000000000E+00  0.13850981633E+03  0.13850981633E+03  0.00000000000E+00 0.  1.
         21   -1    0    0  503  502  0.00000000000E+00 -0.00000000000E+00 -0.68736883599E+03  0.68736883599E+03  0.00000000000E+00 0.  1.
         21    1    1    2  503  504  0.40693899746E+02  0.45497477679E+02 -0.37271061231E+03  0.37767607083E+03  0.00000000000E+00 0.  1.
         21    1    1    2  504  501 -0.59517706320E+01 -0.64640241187E+02 -0.76765653614E+02  0.10053233275E+03  0.00000000000E+00 0.  1.
         21    1    1    2  505  502  0.10444337241E+03 -0.38723426916E+02  0.61471703055E+02  0.12722693154E+03  0.00000000000E+00 0.  1.
          2    1    1    2  501    0 -0.13918550152E+03  0.57866190424E+02 -0.16085445679E+03  0.22044331720E+03  0.00000000000E+00 0.  1.
<scales pt_clust_3="61.04108" pt_clust_4="52.02298" pt_clust_5="117.16421" pt_clust_6="14000.00000"></scales>
<clustering>
<clus scale="   61.041">  2  3  1 -1</clus>
<clus scale="   52.023">  2  4  1 -1</clus>
<clus scale="  117.164">  1  5  2 -1</clus>
<clus scale="   61.041">  2  3  1 -1</clus>
</clustering>
</event>
<event>
 6    0  0.3082502E+002  0.2341841E+03  0.7546771E-02  0.1123729E+00
         21   -1    0    0  504  502  0.00000000000E+00  0.00000000000E+00  0.85110709800E+03  0.85110709800E+03  0.00000000000E+00 0.  1.
          1   -1    0    0  503    0 -0.00000000000E+00 -0.00000000000E+00 -0.11505940392E+04  0.11505940392E+04  0.00000000000E+00 0. -1.
         21    1    1    2  503  505 -0.60225861538E+02  0.86017028182E+02 -0.37667970950E+03  0.39104179710E+03  0.00000000000E+00 0. -1.
         21    1    1    2  504  501  0.15145020769E+03 -0.19188952346E+03  0.29995936681E+02  0.24628948585E+03  0.00000000000E+00 0.  1.
         21    1    1    2  505  502 -0.33965426838E+01  0.24041185556E+03  0.67489006045E+03  0.71643980242E+03  0.00000000000E+00 0.  1.
          1    1    1    2  501    0 -0.87827803464E+02 -0.13453936029E+03 -0.62769322887E+03  0.64793005185E+03  0.00000000000E+00 0. -1.
<scales pt_clust_3="105.00516" pt_clust_4="14000.00000" pt_clust_5="234.18415" pt_clust_6="151.62801"></scales>
<clustering>
<clus scale="  105.005">  2  3  1 -1</clus>
<clus scale="  151.628">  2  6  1 -1</clus>
<clus scale="  234.184">  1  5  2 -1</clus>
<clus scale="  234.184">  1  3  2 -1</clus>
</clustering>
</event>
<event>
 6    0  0.3082502E+002  0.1413093E+03  0.7546771E-02  0.1211578E+00
         21   -1    0    0  504  502  0.00000000000E+00  0.00000000000E+00  0.13889914957E+03  0.13889914957E+03  0.00000000000E+00 0.  1.
          2   -1    0    0  505    0 -0.00000000000E+00 -0.00000000000E+00 -0.91951056626E+03  0.91951056626E+03  0.00000000000E+00 0. -1.
         21    1    1    2  503  502  0.10627079755E+01 -0.33597325465E+02  0.82501288178E+02  0.89086318690E+02  0.00000000000E+00 0.  1.
         21    1    1    2  504  501  0.13048003256E+03  0.39357984654E+02 -0.88811112741E+02  0.16266992223E+03  0.00000000000E+00 0. -1.
         21    1    1    2  505  503  0.99490691809E+01 -0.38401698993E+02 -0.34003230877E+02  0.52248389192E+02  0.00000000000E+00 0. -1.
          2    1    1    2  501    0 -0.14149180972E+03  0.32641039805E+02 -0.74029836124E+03  0.75440508572E+03  0.00000000000E+00 0. -1.
<scales pt_clust_3="33.61413" pt_clust_4="141.30929" pt_clust_5="45.32015" pt_clust_6="14000.00000"></scales>
<clustering>
<clus scale="   33.614">  1  3  2 -1</clus>
<clus scale="   45.320">  1  5  2 -1</clus>
<clus scale="  141.309">  1  4  2 -1</clus>
<clus scale="   33.614">  1  3  2 -1</clus>
</clustering>
</event>
<event>
 6    0  0.3082502E+002  0.9256485E+02  0.7546771E-02  0.1296757E+00
         -4   -1    0    0    0  501 -0.00000000000E+00  0.00000000000E+00  0.77972141745E+02  0.77972141745E+02  0.00000000000E+00 0. -1.
         21   -1    0    0  504  502  0.00000000000E+00 -0.00000000000E+00 -0.31299766131E+04  0.31299766131E+04  0.00000000000E+00 0. -1.
         21    1    1    2  503  501 -0.51665358133E+02 -0.52073171323E+02  0.32825095527E+01  0.73428191259E+02  0.00000000000E+00 0. -1.
         21    1    1    2  504  503  0.10573638172E+03 -0.51907887076E+02 -0.15851478279E+04  0.15895182439E+04  0.00000000000E+00 0. -1.
         21    1    1    2  505  502 -0.11306995641E+02  0.49177728923E+02 -0.14744893466E+04  0.14753525445E+04  0.00000000000E+00 0. -1.
         -4    1    1    2    0  505 -0.42764027946E+02  0.54803329476E+02  0.43501936515E+01  0.69649775252E+02  0.00000000000E+00 0. -1.
<scales pt_clust_3="14000.00000" pt_clust_4="92.56485" pt_clust_5="50.46085" pt_clust_6="70.41711"></scales>
<clustering>
<clus scale="   50.461">  2  5  1 -1</clus>
<clus scale="   70.417">  1  6  2 -1</clus>
<clus scale="   92.565">  2  4  1 -1</clus>
<clus scale="   50.461">  2  3  1 -1</clus>
</clustering>
</event>
<event>
 6    0  0.3082502E+002  0.9438590E+02  0.7546771E-02  0.1292565E+00
         -1   -1    0    0    0  501 -0.00000000000E+00  0.00000000000E+00  0.73672334194E+02  0.73672334194E+02  0.00000000000E+00 0. -1.
         21   -1    0    0  505  502  0.00000000000E+00 -0.00000000000E+00 -0.45959310720E+03  0.45959310720E+03  0.00000000000E+00 0. -1.
         21    1    1    2  503  501  0.47481421145E+01  0.31363686966E+02 -0.88235576469E+00  0.31733330511E+02  0.00000000000E+00 0. -1.
         21    1    1    2  504  503  0.41061773775E+02 -0.23014711756E+01 -0.23368941472E+02  0.47301939290E+02  0.00000000000E+00 0. -1.
         21    1    1    2  505  504  0.36970490812E+02 -0.87910523853E+02 -0.33627573022E+03  0.34953747171E+03  0.00000000000E+00 0. -1.
         -1    1    1    2    0  502 -0.82780406701E+02  0.58848308062E+02 -0.25393745548E+02  0.10469269988E+03  0.00000000000E+00 0. -1.
<scales pt_clust_3="31.72106" pt_clust_4="42.24082" pt_clust_5="14000.00000" pt_clust_6="94.38590"></scales>
<clustering>
<clus scale="   31.721">  1  3  2 -1</clus>
<clus scale="   42.241">  1  4  2 -1</clus>
<clus scale="   94.386">  1  6  2 -1</clus>
<clus scale="   94.386">  2  3  1 -1</clus>
</clustering>
</event>
<event>
 6    0  0.3082502E+002  0.1080495E+03  0.7546771E-02  0.1264225E+00
          2   -1    0    0  503    0 -0.00000000000E+00  0.00000000000E+00  0.11670210630E+04  0.11670210630E+04  0.00000000000E+00 0. -1.
         21   -1    0    0  505  502  0.00000000000E+00 -0.00000000000E+00 -0.28660679615E+03  0.28660679615E+03  0.00000000000E+00 0.  1.
         21    1    1    2  503  504 -0.27765371761E+02 -0.26532756927E+02  0.11400906537E+03  0.12030365765E+03  0.00000000000E+00 0. -1.
         21    1    1    2  504  502  0.35192181118E+02  0.12833792475E+03 -0.23067371615E+03  0.26630710817E+03  0.00000000000E+00 0.  1.
         21    1    1    2  505  501  0.12266204677E+02 -0.30904287014E+02 -0.25432676814E+02  0.41861148849E+02  0.00000000000E+00 0.  1.
          2    1    1    2  501    0 -0.19693014034E+02 -0.70900880806E+02  0.10225115944E+04  0.10251559445E+04  0.00000000000E+00 0. -1.
<scales pt_clust_3="38.56168" pt_clust_4="108.04953" pt_clust_5="33.24958" pt_clust_6="14000.00000"></scales>
<clustering>
<clus scale="   33.250">  2  5  1 -1</clus>
<clus scale="   38.562">  1  3  2 -1</clus>
<clus scale="  108.050">  2  4  1 -1</clus>
<clus scale="   33.250">  2  3  1 -1</clus>
</clustering>
</event>
<event>
 6    0  0.3082502E+002  0.6737087E+02  0.7546771E-02  0.1369269E+00
         21   -1    0    0  505  502  0.00000000000E+00  0.00000000000E+00  0.14661239432E+04  0.14661239432E+04  0.00000000000E+00 0. -1.
          1   -1    0    0  503    0 -0.00000000000E+00 -0.00000000000E+00 -0.11035432229E+04  0.11035432229E+04  0.00000000000E+00 0. -1.
         21    1    1    2  503  504 -0.61430977553E+02 -0.22840478417E+01 -0.21687328771E+03  0.22541740128E+03  0.00000000000E+00 0. -1.
         21    1    1    2  504  502  0.69805872434E+02  0.65317347289E+02  0.13157671471E+04  0.13192355366E+04  0.00000000000E+00 0. -1.
         21    1    1    2  505  501 -0.43965178202E+02 -0.30447907406E+01  0.13956773299E+03  0.14636037625E+03  0.00000000000E+00 0. -1.
          1    1    1    2  501    0  0.35590283321E+02 -0.59988508706E+02 -0.87588087211E+03  0.87865385197E+03  0.00000000000E+00 0. -1.
<scales pt_clust_3="61.61564" pt_clust_4="67.37087" pt_clust_5="44.07048" pt_clust_6="14000.00000"></scales>
<clustering>
<clus scale="   44.070">  1  5  2 -1</clus>
<clus scale="   61.616">  2  3  1 -1</clus>
<clus scale="   67.371">  1  4  2 -1</clus>
<clus scale="   44.070">  1  3  2 -1</clus>
</clustering>
</event>
<event>
 6    0  0.3082502E+002  0.1881869E+03  0.7546771E-02  0.1160107E+00
          2   -1    0    0  505    0 -0.00000000000E+00  0.00000000000E+00  0.12935752521E+04  0.12935752521E+04  0.00000000000E+00 0. -1.
         21   -1    0    0  503  502  0.00000000000E+00 -0.00000000000E+00 -0.75267022172E+02  0.75267022172E+02  0.00000000000E+00 0. -1.
         21    1    1    2  503  501  0.14949474862E+03 -0.86443106747E+02  0.22850131669E+03  0.28641568096E+03  0.00000000000E+00 0. -1.
         21    1    1    2  504  502 -0.12682085619E+03  0.17756812826E+03  0.29695164343E+03  0.36850271136E+03  0.00000000000E+00 0. -1.
         21    1    1    2  505  504 -0.29434705393E+02  0.23788442125E+02  0.35468817947E+03  0.35670155104E+03  0.00000000000E+00 0.  1.
          2    1    1    2  501    0  0.67608129672E+01 -0.11491346364E+03  0.33816709029E+03  0.35722233087E+03  0.00000000000E+00 0. -1.
<scales pt_clust_3="188.18693" pt_clust_4="14000.00000" pt_clust_5="37.84563" pt_clust_6="106.17571"></scales>
<clustering>
<clus scale="   37.846">  1  5  2 -1</clus>
<clus scale="  106.176">  1  6  2 -1</clus>
<clus scale="  188.187">  2  3  1 -1</clus>
<clus scale="  188.187">  2  3  1 -1</clus>
</clustering>
</event>
<event>
 6    0  0.3082502E+002  0.1133957E+03  0.7546771E-02  0.1254408E+00
          2   -1    0    0  505    0 -0.00000000000E+00  0.00000000000E+00  0.15646321112E+04  0.15646321112E+04  0.00000000000E+00 0. -1.
         21   -1    0    0  504  502  0.00000000000E+00 -0.00000000000E+00 -0.45745053535E+03  0.45745053535E+03  0.00000000000E+00 0.  1.
         21    1    1    2  503  502  0.80177163341E+02 -0.69941429651E+02 -0.18699847371E+03  0.21514788001E+03  0.00000000000E+00 0.  1.
         21    1    1    2  504  501 -0.44361612683E+02 -0.38094810059E+02 -0.24443538375E+03  0.25133209915E+03  0.00000000000E+00 0.  1.
         21    1    1    2  505  503 -0.63395562310E+02 -0.41253769716E+02  0.60775014615E+03  0.61243865895E+03  0.00000000000E+00 0. -1.
          2    1    1    2  501    0  0.27580011652E+02  0.14929000943E+03  0.93086528721E+03  0.94316400848E+03  0.00000000000E+00 0. -1.
<scales pt_clust_3="113.39572" pt_clust_4="58.47365" pt_clust_5="76.28484" pt_clust_6="14000.00000"></scales>
<clustering>
<clus scale="   58.474">  2  4  1 -1</clus>
<clus scale="   76.285">  1  5  2 -1</clus>
<clus scale="  113.396">  2  3  1 -1</clus>
<clus scale="   58.474">  2  3  1 -1</clus>
</clustering>
</event>
<event>
 6    0  0.3082502E+002  0.6912664E+02  0.7546771E-02  0.1363088E+00
         21   -1    0    0  501  502  0.00000000000E+00  0.00000000000E+00  0.31227156242E+02  0.31227156242E+02  0.00000000000E+00 0. -1.
          2   -1    0    0  503    0 -0.00000000000E+00 -0.00000000000E+00 -0.23173317224E+04  0.23173317224E+04  0.00000000000E+00 0. -1.
         21    1    1    2  503  504  0.25298014450E+02 -0.34919753190E+02 -0.89611313113E+03  0.89714999999E+03  0.00000000000E+00 0. -1.
         21    1    1    2  504  505 -0.10925258751E+03  0.36895811500E+02 -0.32090045845E+03  0.34099051749E+03  0.00000000000E+00 0. -1.
         21    1    1    2  505  502  0.47409473555E+02 -0.41811010428E+02 -0.30084310184E+02  0.70006317536E+02  0.00000000000E+00 0. -1.
          2    1    1    2  501    0  0.36545099509E+02  0.39834952119E+02 -0.10390066664E+04  0.10404120437E+04  0.00000000000E+00 0. -1.
<scales pt_clust_3="43.12051" pt_clust_4="69.12664" pt_clust_5="14000.00000" pt_clust_6="56.88052"></scales>
<clustering>
<clus scale="   43.121">  2  3  1 -1</clus>
<clus scale="   56.881">  2  6  1 -1</clus>
<clus scale="   69.127">  2  4  1 -1</clus>
<clus scale="   69.127">  1  3  2 -1</clus>
</clustering>
</event>
<event>
 6    0  0.3082502E+002  0.1479360E+03  0.7546771E-02  0.1203032E+00
         -2   -1    0    0    0  501 -0.00000000000E+00  0.00000000000E+00  0.35953740018E+03  0.35953740018E+03  0.00000000000E+00 0. -1.
         21   -1    0    0  505  502  0.00000000000E+00 -0.00000000000E+00 -0.39019401872E+03  0.39019401872E+03  0.00000000000E+00 0.  1.
         21    1    1    2  503  502 -0.29950323258E+02  0.15632911984E+02 -0.97505589035E+02  0.10319277927E+03  0.00000000000E+00 0.  1.
         21    1    1    2  504  503 -0.39459478735E+02  0.98797585049E+02 -0.12245102089E+03  0.16221056005E+03  0.00000000000E+00 0.  1.
         21    1    1    2  505  501  0.19965839347E+03 -0.14603486156E+03 -0.60278621863E+01  0.24743886113E+03  0.00000000000E+00 0.  1.
         -2    1    1    2    0  504 -0.13024859148E+03  0.31604364531E+02  0.19532785356E+03  0.23688921845E+03  0.00000000000E+00 0. -1.
<scales pt_clust_3="33.78476" pt_clust_4="119.46052" pt_clust_5="147.93598" pt_clust_6="14000.00000"></scales>
<clustering>
<clus scale="   33.785">  2  3  1 -1</clus>
<clus scale="  119.461">  2  4  1 -1</clus>
<clus scale="  147.936">  2  5  1 -1</clus>
<clus scale="   33.785">  2  3  1 -1</clus>
</clustering>
</event>
<event>
 6    0  0.3082502E+002  0.7150938E+02  0.7546771E-02  0.1355034E+00
         21   -1    0    0  504  502  0.00000000000E+00  0.00000000000E+00  0.68999094320E+02  0.68999094320E+02  0.00000000000E+00 0.  1.
          2   -1    0    0  503    0 -0.00000000000E+00 -0.00000000000E+00 -0.18818388850E+04  0.18818388850E+04  0.00000000000E+00 0.  1.
         21    1    1    2  503  502  0.40255506248E+00  0.55216566673E+02 -0.59374298708E+03  0.59630509472E+03  0.00000000000E+00 0.  1.
         21    1    1    2  504  505  0.32653906223E+02 -0.19319718231E+02  0.40261322803E+02  0.55321815028E+02  0.00000000000E+00 0.  1.
         21    1    1    2  505  501 -0.49923359067E+02  0.60287093767E+02 -0.67499947361E+02  0.10335917158E+03  0.00000000000E+00 0.  1.
          2    1    1    2  501    0  0.16866897782E+02 -0.96183942208E+02 -0.11918581790E+04  0.11958518980E+04  0.00000000000E+00 0.  1.
<scales pt_clust_3="14000.00000" pt_clust_4="37.94113" pt_clust_5="49.29441" pt_clust_6="71.50938"></scales>
<clustering>
<clus scale="   37.941">  1  4  2 -1</clus>
<clus scale="   49.294">  1  5  2 -1</clus>
<clus scale="   71.509">  1  6  2 -1</clus>
<clus scale="   37.941">  1  3  2 -1</clus>
</clustering>
</event>
<event>
 6    0  0.3082502E+002  0.6962174E+02  0.7546771E-02  0.1361384E+00
         21   -1    0    0  504  502  0.00000000000E+00  0.00000000000E+00  0.13946257306E+03  0.13946257306E+03  0.00000000000E+00 0.  1.
          1   -1    0    0  503    0 -0.00000000000E+00 -0.00000000000E+00 -0.13365082114E+04  0.13365082114E+04  0.00000000000E+00 0. -1.
         21    1    1    2  503  505  0.86470532595E+02 -0.68859634107E+02 -0.22149212645E+03  0.24754305544E+03  0.00000000000E+00 0.  1.
         21    1    1    2  504  501 -0.18769989252E+02  0.35239043899E+02  0.27847086955E+01  0.40023209690E+02  0.00000000000E+00 0.  1.
         21    1    1    2  505  502 -0.49308912238E+02 -0.23957046134E+02  0.96972917090E+02  0.11139594039E+03  0.00000000000E+00 0.  1.
          1    1    1    2  501    0 -0.18391631105E+02  0.57577636342E+02 -0.10753111377E+04  0.10770085789E+04  0.00000000000E+00 0. -1.
<scales pt_clust_3="69.62174" pt_clust_4="39.92622" pt_clust_5="14000.00000" pt_clust_6="60.72606"></scales>
<clustering>
<clus scale="   39.926">  1  4  2 -1</clus>
<clus scale="   60.726">  2  6  1 -1</clus>
<clus scale="   69.622">  2  3  1 -1</clus>
<clus scale="   39.926">  1  3  2 -1</clus>
</clustering>
</event>
<event>
 6    0  0.3082502E+002  0.1753470E+03  0.7546771E-02  0.1172384E+00
         21   -1    0    0  503  502  0.00000000000E+00  0.00000000000E+00  0.35915733349E+03  0.35915733349E+03  0.00000000000E+00 0.  1.
          2   -1    0    0  505    0 -0.00000000000E+00 -0.00000000000E+00 -0.10520454140E+03  0.10520454140E+03  0.00000000000E+00 0. -1.
         21    1    1    2  503  501  0.11236481707E+01  0.10109032210E+03  0.67099666331E+02  0.12133787962E+03  0.00000000000E+00 0. -1.
         21    1    1    2  504  502  0.27117604924E+02 -0.22612584856E+02  0.56113095130E+02  0.66297608824E+02  0.00000000000E+00 0.  1.
         21    1    1    2  505  504 -0.49437245511E+02 -0.14330623801E+03  0.14186339130E+03  0.20761970255E+03  0.00000000000E+00 0.  1.
          2    1    1    2  501    0  0.21195992416E+02  0.64828500767E+02 -0.11123360666E+02  0.69106683893E+02  0.00000000000E+00 0. -1.
<scales pt_clust_3="60.20663" pt_clust_4="35.30855" pt_clust_5="160.11877" pt_clust_6="60.20663"></scales>
<clustering>
<clus scale="   35.309">  1  4  2 -1</clus>
<clus scale="   60.207">  3  6 -1 -1</clus>
<clus scale="  160.119">  1  5  2 -1</clus>
<clus scale="   35.309">  1  3  2 -1</clus>
</clustering>
</event>
<event>
 6    0  0.3082502E+002  0.7405596E+02  0.7546771E-02  0.1346820E+00
          1   -1    0    0  505    0 -0.00000000000E+00  0.00000000000E+00  0.14951010041E+03  0.14951010041E+03  0.00000000000E+00 0.  1.
         21   -1    0    0  503  502  0.00000000000E+00 -0.00000000000E+00 -0.62871346567E+03  0.62871346567E+03  0.00000000000E+00 0. -1.
         21    1    1    2  503  501 -0.78019376631E+01  0.49581236640E+02 -0.38456474665E+03  0.38782626732E+03  0.00000000000E+00 0. -1.
         21    1    1    2  504  502  0.79438753358E+02 -0.37284238490E+02 -0.20628670695E+03  0.22417590289E+03  0.00000000000E+00 0. -1.
         21    1    1    2  505  504  0.16912163486E+02 -0.28319870966E+02  0.26139955849E+02  0.42087214888E+02  0.00000000000E+00 0.  1.
          1    1    1    2  501    0 -0.88548979180E+02  0.16022872815E+02  0.85508132486E+02  0.12413418098E+03  0.00000000000E+00 0.  1.
<scales pt_clust_3="49.75913" pt_clust_4="74.05596" pt_clust_5="32.98540" pt_clust_6="14000.00000"></scales>
<clustering>
<clus scale="   32.985">  1  5  2 -1</clus>
<clus scale="   49.759">  2  3  1 -1</clus>
<clus scale="   74.056">  2  4  1 -1</clus>
<clus scale="   49.759">  2  3  1 -1</clus>
</clustering>
</event>
<event>
 6    0  0.3082502E+002  0.8675568E+02  0.7546771E-02  0.1310904E+00
         21   -1    0    0  503  502  0.00000000000E+00  0.00000000000E+00  0.95974932315E+03  0.95974932315E+03  0.00000000000E+00 0. -1.
          2   -1    0    0  505    0 -0.00000000000E+00 -0.00000000000E+00 -0.14010825244E+03  0.14010825244E+03  0.00000000000E+00 0. -1.
         21    1    1    2  503  501  0.16859139191E+02  0.64683169632E+02  0.80272905794E+03  0.80550734538E+03  0.00000000000E+00 0. -1.
         21    1    1    2  504  502 -0.31095408997E+02  0.20212039894E+02  0.10073064291E+03  0.10734110787E+03  0.00000000000E+00 0.  1.
         21    1    1    2  505  504 -0.29125324836E+01  0.40449896255E+02 -0.17521807693E+02  0.44177943562E+02  0.00000000000E+00 0. -1.
          2    1    1    2  501    0  0.17148802290E+02 -0.12534510578E+03 -0.66296822451E+02  0.14283117878E+03  0.00000000000E+00 0. -1.
<scales pt_clust_3="86.75568" pt_clust_4="37.08707" pt_clust_5="40.90599" pt_clust_6="14000.00000"></scales>
<clustering>
<clus scale="   37.087">  1  4  2 -1</clus>
<clus scale="   40.906">  2  5  1 -1</clus>
<clus scale="   86.756">  1  3  2 -1</clus>
<clus scale="   37.087">  1  3  2 -1</clus>
</clustering>
</event>
<event>
 6    0  0.3082502E+002  0.9513316E+02  0.7546771E-02  0.1290876E+00
         21   -1    0    0  501  502  0.00000000000E+00  0.00000000000E+00  0.34940795980E+03  0.34940795980E+03  0.00000000000E+00 0. -1.
          2   -1    0    0  505    0 -0.00000000000E+00 -0.00000000000E+00 -0.69492442078E+03  0.69492442078E+03  0.00000000000E+00 0.  1.
         21    1    1    2  503  504 -0.27871974880E+02  0.10152315624E+03 -0.22108033062E+03  0.24486794569E+03  0.00000000000E+00 0.  1.
         21    1    1    2  504  502  0.12939904480E+02 -0.32761152225E+02  0.32554853726E+03  0.32744859800E+03  0.00000000000E+00 0. -1.
         21    1    1    2  505  503  0.17946580699E+02  0.31868120102E+02 -0.18435302282E+03  0.18794598655E+03  0.00000000000E+00 0.  1.
          2    1    1    2  501    0 -0.30145102997E+01 -0.10063012412E+03 -0.26563164480E+03  0.28406985034E+03  0.00000000000E+00 0.  1.
<scales pt_clust_3="14000.00000" pt_clust_4="35.22406" pt_clust_5="34.89939" pt_clust_6="95.13316"></scales>
<clustering>
<clus scale="   35.224">  1  4  2 -1</clus>
<clus scale="   34.899">  2  5  1 -1</clus>
<clus scale="   95.133">  2  6  1 -1</clus>
<clus scale="   35.224">  1  3  2 -1</clus>
</clustering>
</event>
<event>
 6    0  0.3082502E+002  0.8900677E+02  0.7546771E-02  0.1305275E+00
          1   -1    0    0  503    0 -0.00000000000E+00  0.00000000000E+00  0.10287723801E+04  0.10287723801E+04  0.00000000000E+00 0.  1.
         21   -1    0    0  501  502  0.00000000000E+00 -0.00000000000E+00 -0.17681410654E+03  0.17681410654E+03  0.00000000000E+00 0.  1.
         21    1    1    2  503  505  0.35004166870E+02 -0.52616199643E+00  0.13156105354E+03  0.13613919110E+03  0.00000000000E+00 0.  1.
         21    1    1    2  504  502  0.36609246870E+02  0.13495855041E+02 -0.98116539205E+02  0.10558991583E+03  0.00000000000E+00 0.  1.
         21    1    1    2  505  504  0.30106504235E+02 -0.73032822260E+02 -0.45931705895E+02  0.91377876594E+02  0.00000000000E+00 0.  1.
          1    1    1    2  501    0 -0.10171991798E+03  0.60063129215E+02  0.86444546508E+03  0.87247950309E+03  0.00000000000E+00 0.  1.
<scales pt_clust_3="35.00812" pt_clust_4="39.15404" pt_clust_5="14000.00000" pt_clust_6="89.00677"></scales>
<clustering>
<clus scale="   35.008">  1  3  2 -1</clus>
<clus scale="   39.154">  2  4  1 -1</clus>
<clus scale="   89.007">  1  6  2 -1</clus>
<clus scale="   39.154">  2  3  1 -1</clus>
</clustering>
</event>
<event>
 6    0  0.3082502E+002  0.1140817E+03  0.7546771E-02  0.1253193E+00
          2   -1    0    0  505    0 -0.00000000000E+00  0.00000000000E+00  0.27889292437E+03  0.27889292437E+03  0.00000000000E+00 0.  1.
         21   -1    0    0  503  502  0.00000000000E+00 -0.00000000000E+00 -0.28759847328E+03  0.28759847328E+03  0.00000000000E+00 0.  1.
         21    1    1    2  503  501 -0.53099680873E+02  0.42540205099E+02 -0.11328843080E+03  0.13214958839E+03  0.00000000000E+00 0.  1.
         21    1    1    2  504  502  0.12026997494E+03 -0.11634890710E+03 -0.83174740294E+02  0.18686886439E+03  0.00000000000E+00 0.  1.
         21    1    1    2  505  504 -0.16671981919E+02 -0.36354464985E+02  0.44443289540E+02  0.59789698867E+02  0.00000000000E+00 0. -1.
          2    1    1    2  501    0 -0.50498312152E+02  0.11016316698E+03  0.14331433264E+03  0.18768324601E+03  0.00000000000E+00 0.  1.
<scales pt_clust_3="67.65364" pt_clust_4="114.08175" pt_clust_5="39.99503" pt_clust_6="14000.00000"></scales>
<clustering>
<clus scale="   39.995">  1  5  2 -1</clus>
<clus scale="   67.654">  2  3  1 -1</clus>
<clus scale="  114.082">  2  4  1 -1</clus>
<clus scale="   67.654">  2  3  1 -1</clus>
</clustering>
</event>
<event>
 6    0  0.3082502E+002  0.1770027E+03  0.7546771E-02  0.1170736E+00
          1   -1    0    0  503    0 -0.00000000000E+00  0.00000000000E+00  0.55483591075E+03  0.55483591075E+03  0.00000000000E+00 0.  1.
         21   -1    0    0  504  502  0.00000000000E+00 -0.00000000000E+00 -0.34130568127E+03  0.34130568127E+03  0.00000000000E+00 0.  1.
         21    1    1    2  503  505 -0.32158905810E+02 -0.16214541778E+02  0.37398043278E+02  0.51920325779E+02  0.00000000000E+00 0.  1.
         21    1    1    2  504  501  0.14640009861E+03 -0.81099111209E+02 -0.27290897973E+03  0.32013960382E+03  0.00000000000E+00 0.  1.
         21    1    1    2  505  502  0.26115357048E+02  0.29211711577E+02 -0.89985483453E+01  0.40203356070E+02  0.00000000000E+00 0.  1.
          1    1    1    2  501    0 -0.14035654985E+03  0.68101941410E+02  0.45803971427E+03  0.48387830635E+03  0.00000000000E+00 0.  1.
<scales pt_clust_3="36.01537" pt_clust_4="14000.00000" pt_clust_5="38.16031" pt_clust_6="177.00268"></scales>
<clustering>
<clus scale="   36.015">  1  3  2 -1</clus>
<clus scale="   38.160">  2  5  1 -1</clus>
<clus scale="  177.003">  1  6  2 -1</clus>
<clus scale="   38.160">  2  3  1 -1</clus>
</clustering>
</event>
<event>
 6    0  0.3082502E+002  0.8418359E+02  0.7546771E-02  0.1317581E+00
          2   -1    0    0  504    0 -0.00000000000E+00  0.00000000000E+00  0.17368828223E+04  0.17368828223E+04  0.00000000000E+00 0.  1.
         21   -1    0    0  501  502  0.00000000000E+00 -0.00000000000E+00 -0.26989495902E+02  0.26989495902E+02  0.00000000000E+00 0. -1.
         21    1    1    2  503  505 -0.49364543830E+02  0.41039071482E+01  0.97176179136E+03  0.97302347320E+03  0.00000000000E+00 0.  1.
         21    1    1    2  504  503  0.32522542237E+02  0.33993519406E+02  0.45130399825E+03  0.45374946166E+03  0.00000000000E+00 0.  1.
         21    1    1    2  505  502  0.64818902489E+02 -0.87050253000E+02  0.17281712679E+03  0.20407105620E+03  0.00000000000E+00 0. -1.
          2    1    1    2  501    0 -0.47976900896E+02  0.48952826446E+02  0.11401041000E+03  0.13302832715E+03  0.00000000000E+00 0.  1.
<scales pt_clust_3="38.76345" pt_clust_4="47.04546" pt_clust_5="84.18359" pt_clust_6="14000.00000"></scales>
<clustering>
<clus scale="   47.045">  1  4  2 -1</clus>
<clus scale="   38.763">  1  3  2 -1</clus>
<clus scale="   84.184">  1  5  2 -1</clus>
<clus scale="   84.184">  2  3  1 -1</clus>
</clustering>
</event>
<event>
 6    0  0.3082502E+002  0.1080497E+03  0.7546771E-02  0.1264225E+00
          2   -1    0    0  504    0 -0.00000000000E+00  0.00000000000E+00  0.12075212856E+04  0.12075212856E+04  0.00000000000E+00 0.  1.
         21   -1    0    0  505  502  0.00000000000E+00 -0.00000000000E+00 -0.26087043984E+03  0.26087043984E+03  0.00000000000E+00 0. -1.
         21    1    1    2  503  501 -0.98974301719E+02 -0.15270167270E+02 -0.56829323223E+02  0.11514626519E+03  0.00000000000E+00 0. -1.
         21    1    1    2  504  502  0.72497127114E+02  0.77150622838E+02  0.32185320689E+03  0.33881785494E+03  0.00000000000E+00 0. -1.
         21    1    1    2  505  503 -0.20042836570E+01 -0.30265695667E+02 -0.16447894474E+03  0.16725236246E+03  0.00000000000E+00 0. -1.
          2    1    1    2  501    0  0.28481458262E+02 -0.31614759900E+02  0.84610590688E+03  0.84717524289E+03  0.00000000000E+00 0.  1.
<scales pt_clust_3="108.04967" pt_clust_4="14000.00000" pt_clust_5="30.33199" pt_clust_6="42.67134"></scales>
<clustering>
<clus scale="   30.332">  2  5  1 -1</clus>
<clus scale="   42.671">  1  6  2 -1</clus>
<clus scale="  108.050">  2  3  1 -1</clus>
<clus scale="   30.332">  2  3  1 -1</clus>
</clustering>
</event>
<event>
 6    0  0.3082502E+002  0.9186268E+02  0.7546771E-02  0.1298403E+00
         -1   -1    0    0    0  501 -0.00000000000E+00  0.00000000000E+00  0.67928889289E+03  0.67928889289E+03  0.00000000000E+00 0.  1.
         21   -1    0    0  505  502  0.00000000000E+00 -0.00000000000E+00 -0.29355100163E+03  0.29355100163E+03  0.00000000000E+00 0.  1.
         21    1    1    2  503  501  0.46725518805E+02  0.10430962422E+02  0.18471505320E+03  0.19081857866E+03  0.00000000000E+00 0. -1.
         21    1    1    2  504  502 -0.60125220802E+02  0.99334969801E+02 -0.15473028954E+03  0.19345268389E+03  0.00000000000E+00 0.  1.
         21    1    1    2  505  503  0.27220732333E+02 -0.14408387031E+02 -0.10934234688E+03  0.11359717737E+03  0.00000000000E+00 0.  1.
         -1    1    1    2    0  504 -0.13821030336E+02 -0.95357545192E+02  0.46509547448E+03  0.47497145461E+03  0.00000000000E+00 0.  1.
<scales pt_clust_3="48.26948" pt_clust_4="14000.00000" pt_clust_5="30.79886" pt_clust_6="91.86268"></scales>
<clustering>
<clus scale="   30.799">  2  5  1 -1</clus>
<clus scale="   48.269">  1  3  2 -1</clus>
<clus scale="   91.863">  1  6  2 -1</clus>
<clus scale="   30.799">  2  3  1 -1</clus>
</clustering>
</event>
<event>
 6    0  0.3082502E+002  0.7186047E+02  0.7546771E-02  0.1353878E+00
         -4   -1    0    0    0  501 -0.00000000000E+00  0.00000000000E+00  0.18120005970E+04  0.18120005970E+04  0.00000000000E+00 0. -1.
         21   -1    0    0  505  502  0.00000000000E+00 -0.00000000000E+00 -0.45502982739E+02  0.45502982739E+02  0.00000000000E+00 0. -1.
         21    1    1    2  503  501 -0.45221221169E+02 -0.12524912325E+02  0.57948118955E+03  0.58137791609E+03  0.00000000000E+00 0.  1.
         21    1    1    2  504  502 -0.57475855484E+02 -0.52837365300E+02  0.74154798280E+02  0.10767634486E+03  0.00000000000E+00 0. -1.
         21    1    1    2  505  503 -0.85102291816E+01  0.81206353901E+02  0.42200767009E+02  0.91911917893E+02  0.00000000000E+00 0. -1.
         -4    1    1    2    0  504  0.11120730583E+03 -0.15844076276E+02  0.10706608594E+04  0.10765374009E+04  0.00000000000E+00 0. -1.
<scales pt_clust_3="46.92369" pt_clust_4="14000.00000" pt_clust_5="71.86047" pt_clust_6="76.61290"></scales>
<clustering>
<clus scale="   46.924">  1  3  2 -1</clus>
<clus scale="   76.613">  1  6  2 -1</clus>
<clus scale="   71.860">  2  5  1 -1</clus>
<clus scale="   71.860">  2  3  1 -1</clus>
</clustering>
</event>
<event>
 6    0  0.3082502E+002  0.7462228E+02  0.7546771E-02  0.1345045E+00
         -4   -1    0    0    0  501 -0.00000000000E+00  0.00000000000E+00  0.39272478080E+03  0.39272478080E+03  0.00000000000E+00 0. -1.
         21   -1    0    0  503  502  0.00000000000E+00 -0.00000000000E+00 -0.54130738166E+03  0.54130738166E+03  0.00000000000E+00 0.  1.
         21    1    1    2  503  505 -0.34375038055E+02 -0.14934477487E+00 -0.13028407998E+03  0.13474274392E+03  0.00000000000E+00 0.  1.
         21    1    1    2  504  502  0.57880247598E+02 -0.70203089359E+02 -0.39176755784E+03  0.40219450045E+03  0.00000000000E+00 0.  1.
         21    1    1    2  505  501  0.42671968391E+02  0.99286538624E+01  0.15184407598E+03  0.15803828165E+03  0.00000000000E+00 0.  1.
         -4    1    1    2    0  504 -0.66177177933E+02  0.60423780271E+02  0.22162496097E+03  0.23905663644E+03  0.00000000000E+00 0. -1.
<scales pt_clust_3="34.37536" pt_clust_4="74.62228" pt_clust_5="43.55794" pt_clust_6="14000.00000"></scales>
<clustering>
<clus scale="   34.375">  2  3  1 -1</clus>
<clus scale="   43.558">  1  5  2 -1</clus>
<clus scale="   74.622">  2  4  1 -1</clus>
<clus scale="   34.375">  2  3  1 -1</clus>
</clustering>
</event>
<event>
 6    0  0.3082502E+002  0.7135530E+02  0.7546771E-02  0.1355544E+00
          2   -1    0    0  504    0 -0.00000000000E+00  0.00000000000E+00  0.23035093097E+04  0.23035093097E+04  0.00000000000E+00 0. -1.
         21   -1    0    0  505  502  0.00000000000E+00 -0.00000000000E+00 -0.11561573649E+02  0.11561573649E+02  0.00000000000E+00 0. -1.
         21    1    1    2  503  502  0.38952662625E+02  0.14995997973E+02  0.21832177491E+03  0.22227592600E+03  0.00000000000E+00 0. -1.
         21    1    1    2  504  503  0.45408305652E+02  0.41529462491E+02  0.10141952417E+04  0.10160603322E+04  0.00000000000E+00 0. -1.
         21    1    1    2  505  501 -0.23996287353E+02  0.54588274775E+02  0.22457859143E+03  0.23236016285E+03  0.00000000000E+00 0. -1.
          2    1    1    2  501    0 -0.60364680923E+02 -0.11111373524E+03  0.83485212805E+03  0.84437446230E+03  0.00000000000E+00 0. -1.
<scales pt_clust_3="41.73955" pt_clust_4="71.35530" pt_clust_5="61.22523" pt_clust_6="14000.00000"></scales>
<clustering>
<clus scale="   41.740">  2  3  1 -1</clus>
<clus scale="   61.225">  2  5  1 -1</clus>
<clus scale="   71.355">  1  4  2 -1</clus>
<clus scale="   41.740">  2  3  1 -1</clus>
</clustering>
</event>
<event>
 6    0  0.3082502E+002  0.1109676E+03  0.7546771E-02  0.1258788E+00
          2   -1    0    0  505    0 -0.00000000000E+00  0.00000000000E+00  0.83927276857E+03  0.83927276857E+03  0.00000000000E+00 0. -1.
         21   -1    0    0  504  502  0.00000000000E+00 -0.00000000000E+00 -0.40715323785E+02  0.40715323785E+02  0.00000000000E+00 0. -1.
         21    1    1    2  503  502  0.10052546461E+02 -0.94300734225E+02  0.67601509432E+02  0.11646306815E+03  0.00000000000E+00 0. -1.
         21    1    1    2  504  501 -0.34941701145E+02  0.44716697795E+02  0.88942762640E+02  0.10550507365E+03  0.00000000000E+00 0. -1.
         21    1    1    2  505  503  0.48316647485E+02 -0.23283651323E+02  0.41497789631E+03  0.41842954158E+03  0.00000000000E+00 0. -1.
          2    1    1    2  501    0 -0.23427492802E+02  0.72867687753E+02  0.22703527641E+03  0.23959040897E+03  0.00000000000E+00 0. -1.
<scales pt_clust_3="101.47953" pt_clust_4="38.65883" pt_clust_5="53.63419" pt_clust_6="38.65883"></scales>
<clustering>
<clus scale="   38.659">  4  6 -1 -1</clus>
<clus scale="   53.634">  1  5  2 -1</clus>
<clus scale="  101.480">  2  3  1 -1</clus>
<clus scale="  101.480">  2  3  1 -1</clus>
</clustering>
</event>
<event>
 6    0  0.3082502E+002  0.8350851E+02  0.7546771E-02  0.1319380E+00
          2   -1    0    0  505    0 -0.00000000000E+00  0.00000000000E+00  0.50061733642E+04  0.50061733642E+04  0.00000000000E+00 0.  1.
         21   -1    0    0  504  502  0.00000000000E+00 -0.00000000000E+00 -0.14469146759E+02  0.14469146759E+02  0.00000000000E+00 0. -1.
         21    1    1    2  503  502 -0.44543949555E+02  0.94511511064E+01  0.68153650762E+02  0.81965894196E+02  0.00000000000E+00 0. -1.
         21    1    1    2  504  501  0.26064380143E+02 -0.92348877858E+02  0.33443926046E+03  0.34793287584E+03  0.00000000000E+00 0. -1.
         21    1    1    2  505  503 -0.29723715220E+02  0.16609978506E+02  0.21177516230E+04  0.21180253368E+04  0.00000000000E+00 0. -1.
          2    1    1    2  501    0  0.48203284631E+02  0.66287748245E+02  0.24713596833E+04  0.24727184042E+04  0.00000000000E+00 0.  1.
<scales pt_clust_3="46.38153" pt_clust_4="14000.00000" pt_clust_5="34.04983" pt_clust_6="83.50851"></scales>
<clustering>
<clus scale="   34.050">  1  5  2 -1</clus>
<clus scale="   46.382">  2  3  1 -1</clus>
<clus scale="   83.509">  1  6  2 -1</clus>
<clus scale="   46.382">  2  3  1 -1</clus>
</clustering>
</event>
<event>
 6    0  0.3082502E+002  0.1140523E+03  0.7546771E-02  0.1253245E+00
          2   -1    0    0  503    0 -0.00000000000E+00  0.00000000000E+00  0.44553851568E+04  0.44553851568E+04  0.00000000000E+00 0.  1.
         21   -1    0    0  505  502  0.00000000000E+00 -0.00000000000E+00 -0.77843980994E+01  0.77843980994E+01  0.00000000000E+00 0.  1.
         21    1    1    2  503  504  0.38313481175E+02 -0.12298815037E+02  0.26642596015E+03  0.26944753837E+03  0.00000000000E+00 0.  1.
         21    1    1    2  504  502  0.32933868203E+02 -0.71614325450E+02  0.70607810443E+03  0.71046431356E+03  0.00000000000E+00 0.  1.
         21    1    1    2  505  501  0.43798621664E+02  0.10138334775E+03  0.11621742328E+04  0.11674098894E+04  0.00000000000E+00 0.  1.
          2    1    1    2  501    0 -0.11504597104E+03 -0.17470207263E+02  0.23129224613E+04  0.23158478136E+04  0.00000000000E+00 0.  1.
<scales pt_clust_3="34.60273" pt_clust_4="34.60273" pt_clust_5="110.43959" pt_clust_6="103.25909"></scales>
<clustering>
<clus scale="   34.603">  3  4 -1 -1</clus>
<clus scale="  110.440">  2  5  1 -1</clus>
<clus scale="  103.259">  1  6  2 -1</clus>
<clus scale="  110.440">  2  3  1 -1</clus>
</clustering>
</event>
<event>
 6    0  0.3082502E+002  0.6952889E+02  0.7546771E-02  0.1361702E+00
          1   -1    0    0  503    0 -0.00000000000E+00  0.00000000000E+00  0.26776626440E+03  0.26776626440E+03  0.00000000000E+00 0. -1.
         21   -1    0    0  505  502  0.00000000000E+00 -0.00000000000E+00 -0.14972721014E+03  0.14972721014E+03  0.00000000000E+00 0.  1.
         21    1    1    2  503  504  0.13308256460E+02  0.53284058587E+02  0.57382176350E+02  0.79429306633E+02  0.00000000000E+00 0. -1.
         21    1    1    2  504  502  0.23341124347E+02  0.77294655557E+02 -0.15560541426E+02  0.82227746612E+02  0.00000000000E+00 0.  1.
         21    1    1    2  505  501  0.13070104652E+02 -0.36156025821E+02 -0.66992136118E+02  0.77240094125E+02  0.00000000000E+00 0.  1.
          1    1    1    2  501    0 -0.49719485459E+02 -0.94422688323E+02  0.14320955545E+03  0.17859632717E+03  0.00000000000E+00 0. -1.
<scales pt_clust_3="50.48025" pt_clust_4="69.52889" pt_clust_5="38.44588" pt_clust_6="14000.00000"></scales>
<clustering>
<clus scale="   38.446">  2  5  1 -1</clus>
<clus scale="   50.480">  1  3  2 -1</clus>
<clus scale="   69.529">  2  4  1 -1</clus>
<clus scale="   38.446">  2  3  1 -1</clus>
</clustering>
</event>
<event>
 6    0  0.3082502E+002  0.1055150E+03  0.7546771E-02  0.1269108E+00
         21   -1    0    0  501  502  0.00000000000E+00  0.00000000000E+00  0.14490125625E+04  0.14490125625E+04  0.00000000000E+00 0.  1.
          2   -1    0    0  504    0 -0.00000000000E+00 -0.00000000000E+00 -0.13263398074E+03  0.13263398074E+03  0.00000000000E+00 0. -1.
         21    1    1    2  503  502 -0.34723293931E+02  0.28886765181E+02  0.76056622050E+03  0.76190624628E+03  0.00000000000E+00 0.  1.
         21    1    1    2  504  505 -0.74596626539E+01  0.41541935578E+02  0.32220070915E+02  0.53099076717E+02  0.00000000000E+00 0. -1.
         21    1    1    2  505  503  0.12507248880E+02  0.76786073090E+02  0.59520261570E+03  0.60026551295E+03  0.00000000000E+00 0. -1.
          2    1    1    2  501    0  0.29675707705E+02 -0.14721477385E+03 -0.71610325391E+02  0.16637570727E+03  0.00000000000E+00 0. -1.
<scales pt_clust_3="45.34541" pt_clust_4="42.20639" pt_clust_5="14000.00000" pt_clust_6="105.51499"></scales>
<clustering>
<clus scale="   42.206">  2  4  1 -1</clus>
<clus scale="   45.345">  1  3  2 -1</clus>
<clus scale="  105.515">  2  6  1 -1</clus>
<clus scale="   45.345">  1  3  2 -1</clus>
</clustering>
</event>
<event>
 6    0  0.3082502E+002  0.1181255E+03  0.7546771E-02  0.1246222E+00
         21   -1    0    0  503  502  0.00000000000E+00  0.00000000000E+00  0.35226037696E+03  0.35226037696E+03  0.00000000000E+00 0. -1.
         -1   -1    0    0    0  501 -0.00000000000E+00 -0.00000000000E+00 -0.40054824248E+03  0.40054824248E+03  0.00000000000E+00 0. -1.
         21    1    1    2  503  501 -0.42926645236E+02  0.13389763466E+02  0.40374627838E+02  0.60432550913E+02  0.00000000000E+00 0. -1.
         21    1    1    2  504  502  0.86051858781E+02  0.29218799722E+02  0.24288013869E+03  0.25932493599E+03  0.00000000000E+00 0. -1.
         21    1    1    2  505  504  0.54550987108E+02  0.48281371261E+02  0.29729154913E+01  0.72909116246E+02  0.00000000000E+00 0.  1.
         -1    1    1    2    0  505 -0.97676200653E+02 -0.90889934449E+02 -0.33451554753E+03  0.36014201629E+03  0.00000000000E+00 0. -1.
<scales pt_clust_3="44.96646" pt_clust_4="64.52218" pt_clust_5="118.12554" pt_clust_6="14000.00000"></scales>
<clustering>
<clus scale="   44.966">  1  3  2 -1</clus>
<clus scale="   64.522">  1  4  2 -1</clus>
<clus scale="  118.126">  1  5  2 -1</clus>
<clus scale="   44.966">  1  3  2 -1</clus>
</clustering>
</event>
<event>
 6    0  0.3082502E+002  0.6918344E+02  0.7546771E-02  0.1362892E+00
         -2   -1    0    0    0  501 -0.00000000000E+00  0.00000000000E+00  0.34165581506E+02  0.34165581506E+02  0.00000000000E+00 0. -1.
         21   -1    0    0  504  502  0.00000000000E+00 -0.00000000000E+00 -0.20160217403E+04  0.20160217403E+04  0.00000000000E+00 0. -1.
         21    1    1    2  503  501 -0.21969831295E+02 -0.23470486963E+02 -0.19534236499E+02  0.37618129154E+02  0.00000000000E+00 0.  1.
         21    1    1    2  504  505  0.82485710952E+00 -0.59186068359E+02 -0.17185435405E+04  0.17195626106E+04  0.00000000000E+00 0. -1.
         21    1    1    2  505  503 -0.58500502550E+02  0.41677786194E+02 -0.91317930526E+02  0.11618223227E+03  0.00000000000E+00 0.  1.
         -2    1    1    2    0  502  0.79645476736E+02  0.40978769128E+02 -0.15246045127E+03  0.17682434981E+03  0.00000000000E+00 0. -1.
<scales pt_clust_3="32.14867" pt_clust_4="59.66328" pt_clust_5="69.18344" pt_clust_6="14000.00000"></scales>
<clustering>
<clus scale="   32.149">  1  3  2 -1</clus>
<clus scale="   59.663">  2  4  1 -1</clus>
<clus scale="   69.183">  1  5  2 -1</clus>
<clus scale="   59.663">  2  3  1 -1</clus>
</clustering>
</event>
<event>
 6    0  0.3082502E+002  0.9265818E+02  0.7546771E-02  0.1296539E+00
          2   -1    0    0  504    0 -0.00000000000E+00  0.00000000000E+00  0.28252787716E+03  0.28252787716E+03  0.00000000000E+00 0.  1.
         21   -1    0    0  505  502  0.00000000000E+00 -0.00000000000E+00 -0.53040136162E+03  0.53040136162E+03  0.00000000000E+00 0. -1.
         21    1    1    2  503  502  0.80306816650E+02  0.34485825721E+02 -0.42613633766E+03  0.43500647725E+03  0.00000000000E+00 0. -1.
         21    1    1    2  504  503 -0.15872985038E+03 -0.25861778475E+02  0.86349631462E+02  0.18253836813E+03  0.00000000000E+00 0.  1.
         21    1    1    2  505  501  0.78561180569E+01 -0.29033554999E+02 -0.36590548773E+02  0.47365959995E+02  0.00000000000E+00 0. -1.
          2    1    1    2  501    0  0.70566915669E+02  0.20409507752E+02  0.12850377050E+03  0.14801843340E+03  0.00000000000E+00 0.  1.
<scales pt_clust_3="92.65818" pt_clust_4="14000.00000" pt_clust_5="30.07766" pt_clust_6="73.45116"></scales>
<clustering>
<clus scale="   30.078">  2  5  1 -1</clus>
<clus scale="   73.451">  1  6  2 -1</clus>
<clus scale="   92.658">  2  3  1 -1</clus>
<clus scale="   30.078">  2  3  1 -1</clus>
</clustering>
</event>
<event>
 6    0  0.3082502E+002  0.1545957E+03  0.7546771E-02  0.1194937E+00
         21   -1    0    0  501  502  0.00000000000E+00  0.00000000000E+00  0.71176893709E+02  0.71176893709E+02  0.00000000000E+00 0. -1.
          2   -1    0    0  504    0 -0.00000000000E+00 -0.00000000000E+00 -0.24428048189E+04  0.24428048189E+04  0.00000000000E+00 0. -1.
         21    1    1    2  503  502  0.79187474194E+01  0.34557605408E+02  0.79901667503E+01  0.36342501523E+02  0.00000000000E+00 0. -1.
         21    1    1    2  504  505  0.42794699640E+02 -0.24475742646E+01 -0.12272871912E+04  0.12280355152E+04  0.00000000000E+00 0. -1.
         21    1    1    2  505  503  0.14069744260E+03 -0.37871495435E+01 -0.84037064071E+02  0.16392785302E+03  0.00000000000E+00 0. -1.
          2    1    1    2  501    0 -0.19141088966E+03 -0.28322881600E+02 -0.10682938367E+04  0.10856758429E+04  0.00000000000E+00 0. -1.
<scales pt_clust_3="35.45327" pt_clust_4="42.91076" pt_clust_5="14000.00000" pt_clust_6="154.59572"></scales>
<clustering>
<clus scale="   35.453">  1  3  2 -1</clus>
<clus scale="   42.911">  2  4  1 -1</clus>
<clus scale="  154.596">  2  6  1 -1</clus>
<clus scale="   35.453">  1  3  2 -1</clus>
</clustering>
</event>
<event>
 6    0  0.3082502E+002  0.1355573E+03  0.7546771E-02  0.1219435E+00
          2   -1    0    0  505    0 -0.00000000000E+00  0.00000000000E+00  0.25439980853E+04  0.25439980853E+04  0.00000000000E+00 0.  1.
         21   -1    0    0  504  502  0.00000000000E+00 -0.00000000000E+00 -0.87064698581E+02  0.87064698581E+02  0.00000000000E+00 0. -1.
         21    1    1    2  503  502 -0.87328511908E+02  0.49778438141E+02  0.99419801865E+01  0.10100992459E+03  0.00000000000E+00 0. -1.
         21    1    1    2  504  501  0.18187720763E+02  0.71587396670E+02  0.11683490746E+02  0.74780027444E+02  0.00000000000E+00 0.  1.
         21    1    1    2  505  503 -0.72296031501E+02 -0.11929883768E+02  0.15684598546E+04  0.15701704856E+04  0.00000000000E+00 0.  1.
          2    1    1    2  501    0  0.14143682265E+03 -0.10943595104E+03  0.86684806125E+03  0.88510234633E+03  0.00000000000E+00 0.  1.
<scales pt_clust_3="135.55731" pt_clust_4="72.62029" pt_clust_5="73.27372" pt_clust_6="14000.00000"></scales>
<clustering>
<clus scale="   73.274">  1  5  2 -1</clus>
<clus scale="   72.620">  2  4  1 -1</clus>
<clus scale="  135.557">  2  3  1 -1</clus>
<clus scale="   72.620">  2  3  1 -1</clus>
</clustering>
</event>
<event>
 6    0  0.3082502E+002  0.2476123E+03  0.7546771E-02  0.1114823E+00
         21   -1    0    0  501  502  0.00000000000E+00  0.00000000000E+00  0.44637952739E+03  0.44637952739E+03  0.00000000000E+00 0. -1.
          1   -1    0    0  504    0 -0.00000000000E+00 -0.00000000000E+00 -0.22346105718E+04  0.22346105718E+04  0.00000000000E+00 0.  1.
         21    1    1    2  503  505  0.60198921168E+02  0.14290075308E+03  0.17630209957E+03  0.23479132363E+03  0.00000000000E+00 0. -1.
         21    1    1    2  504  503  0.51649984724E+01  0.44984130837E+02 -0.30068032958E+03  0.30407056719E+03  0.00000000000E+00 0. -1.
         21    1    1    2  505  502  0.17173502513E+02  0.70812677562E+02  0.22363557697E+03  0.23520679365E+03  0.00000000000E+00 0. -1.
          1    1    1    2  501    0 -0.82537422154E+02 -0.25869756148E+03 -0.18874883914E+04  0.19069214147E+04  0.00000000000E+00 0.  1.
<scales pt_clust_3="65.98613" pt_clust_4="45.27968" pt_clust_5="65.98613" pt_clust_6="228.08697"></scales>
<clustering>
<clus scale="   45.280">  2  4  1 -1</clus>
<clus scale="   65.986">  3  5 -1 -1</clus>
<clus scale="  228.087">  2  6  1 -1</clus>
<clus scale="  247.612">  1  3  2 -1</clus>
</clustering>
</event>
<event>
 6    0  0.3082502E+002  0.9845142E+02  0.7546771E-02  0.1283587E+00
         21   -1    0    0  505  502  0.00000000000E+00  0.00000000000E+00  0.24914933842E+03  0.24914933842E+03  0.00000000000E+00 0.  1.
          2   -1    0    0  503    0 -0.00000000000E+00 -0.00000000000E+00 -0.13651825015E+04  0.13651825015E+04  0.00000000000E+00 0.  1.
         21    1    1    2  503  502 -0.11207171632E+01 -0.37213294348E+02 -0.80188577943E+02  0.88409803278E+02  0.00000000000E+00 0. -1.
         21    1    1    2  504  501 -0.69496495809E+02 -0.17703210580E+02  0.63676687645E+02  0.95905615810E+02  0.00000000000E+00 0.  1.
         21    1    1    2  505  504 -0.29952363026E+01 -0.52341281979E+02  0.15764674002E+03  0.16613571524E+03  0.00000000000E+00 0.  1.
          2    1    1    2  501    0  0.73612449275E+02  0.10725778691E+03 -0.12571680128E+04  0.12638807056E+04  0.00000000000E+00 0.  1.
<scales pt_clust_3="37.23017" pt_clust_4="98.45142" pt_clust_5="52.55024" pt_clust_6="14000.00000"></scales>
<clustering>
<clus scale="   37.230">  2  3  1 -1</clus>
<clus scale="   52.550">  1  5  2 -1</clus>
<clus scale="   98.451">  1  4  2 -1</clus>
<clus scale="   52.550">  1  3  2 -1</clus>
</clustering>
</event>
<event>
 6    0  0.3082502E+002  0.7066119E+02  0.7546771E-02  0.1357859E+00
         21   -1    0    0  505  502  0.00000000000E+00  0.00000000000E+00  0.66053657443E+03  0.66053657443E+03  0.00000000000E+00 0. -1.
         -2   -1    0    0    0  501 -0.00000000000E+00 -0.00000000000E+00 -0.40841031159E+02  0.40841031159E+02  0.00000000000E+00 0. -1.
         21    1    1    2  503  502  0.33542298820E+02  0.18415542877E+02  0.76663852567E+02  0.85682928988E+02  0.00000000000E+00 0. -1.
         21    1    1    2  504  501  0.29278079523E+02 -0.30394138136E+02  0.63956781794E+02  0.76625580005E+02  0.00000000000E+00 0. -1.
         21    1    1    2  505  504 -0.22486823600E+02 -0.77934897267E+02  0.41188835144E+03  0.41979938007E+03  0.00000000000E+00 0. -1.
         -2    1    1    2    0  503 -0.40333554744E+02  0.89913492527E+02  0.67186557461E+02  0.11926971653E+03  0.00000000000E+00 0. -1.
<scales pt_clust_3="38.26510" pt_clust_4="43.64677" pt_clust_5="14000.00000" pt_clust_6="70.66119"></scales>
<clustering>
<clus scale="   38.265">  1  3  2 -1</clus>
<clus scale="   43.647">  2  4  1 -1</clus>
<clus scale="   70.661">  2  6  1 -1</clus>
<clus scale="   38.265">  1  3  2 -1</clus>
</clustering>
</event>
<event>
 6    0  0.3082502E+002  0.9555122E+02  0.7546771E-02  0.1289939E+00
          2   -1    0    0  504    0 -0.00000000000E+00  0.00000000000E+00  0.37231352015E+04  0.37231352015E+04  0.00000000000E+00 0.  1.
         21   -1    0    0  503  502  0.00000000000E+00 -0.00000000000E+00 -0.40241407682E+03  0.40241407682E+03  0.00000000000E+00 0. -1.
         21    1    1    2  503  501  0.13935737026E+03 -0.50832904624E+02  0.19321967185E+03  0.24359454516E+03  0.00000000000E+00 0.  1.
         21    1    1    2  504  505  0.82232030792E+01 -0.48000516233E+02  0.69473709124E+03  0.69644188312E+03  0.00000000000E+00 0.  1.
         21    1    1    2  505  502 -0.47448574884E+02  0.56669398794E+02 -0.37168363128E+03  0.37896109270E+03  0.00000000000E+00 0. -1.
          2    1    1    2  501    0 -0.10013199846E+03  0.42164022063E+02  0.28044479929E+04  0.28065517573E+04  0.00000000000E+00 0.  1.
<scales pt_clust_3="14000.00000" pt_clust_4="48.69980" pt_clust_5="73.86010" pt_clust_6="95.55122"></scales>
<clustering>
<clus scale="   48.700">  1  4  2 -1</clus>
<clus scale="   73.860">  2  5  1 -1</clus>
<clus scale="   95.551">  1  6  2 -1</clus>
<clus scale="   73.860">  2  3  1 -1</clus>
</clustering>
</event>
<event>
 6    0  0.3082502E+002  0.1052476E+03  0.7546771E-02  0.1269632E+00
          1   -1    0    0  505    0 -0.00000000000E+00  0.00000000000E+00  0.13412023853E+03  0.13412023853E+03  0.00000000000E+00 0. -1.
         21   -1    0    0  504  502  0.00000000000E+00 -0.00000000000E+00 -0.17230370277E+04  0.17230370277E+04  0.00000000000E+00 0. -1.
         21    1    1    2  503  501 -0.59538344315E+02 -0.29716742897E+02 -0.47544433628E+02  0.81782470134E+02  0.00000000000E+00 0.  1.
         21    1    1    2  504  503  0.34958223603E+02 -0.39758379522E+02 -0.92715895197E+03  0.92866922441E+03  0.00000000000E+00 0. -1.
         21    1    1    2  505  502 -0.88868434631E+02  0.13933637886E+02 -0.69235507287E+03  0.69817425609E+03  0.00000000000E+00 0. -1.
          1    1    1    2  501    0  0.11344855534E+03  0.55541484533E+02  0.78141669342E+02  0.14853131556E+03  0.00000000000E+00 0. -1.
<scales pt_clust_3="105.24764" pt_clust_4="52.94154" pt_clust_5="61.91049" pt_clust_6="14000.00000"></scales>
<clustering>
<clus scale="   52.942">  2  4  1 -1</clus>
<clus scale="   61.910">  2  5  1 -1</clus>
<clus scale="  105.248">  2  3  1 -1</clus>
<clus scale="   52.942">  2  3  1 -1</clus>
</clustering>
</event>
<event>
 6    0  0.3082502E+002  0.1159188E+03  0.7546771E-02  0.1249986E+00
         21   -1    0    0  504  502  0.00000000000E+00  0.00000000000E+00  0.10426363615E+04  0.10426363615E+04  0.00000000000E+00 0. -1.
         -2   -1    0    0    0  501 -0.00000000000E+00 -0.00000000000E+00 -0.24063329283E+02  0.24063329283E+02  0.00000000000E+00 0. -1.
         21    1    1    2  503  501 -0.37352853684E+01  0.37491910440E+02  0.18538993261E+02  0.41991546487E+02  0.00000000000E+00 0. -1.
         21    1    1    2  504  503  0.18007544102E+02  0.86142127935E+02  0.35268877226E+03  0.36350255560E+03  0.00000000000E+00 0. -1.
         21    1    1    2  505  502  0.16434452988E+02 -0.75400802529E+02  0.39427864603E+03  0.40175990714E+03  0.00000000000E+00 0. -1.
         -2    1    1    2    0  505 -0.30706711721E+02 -0.48233235845E+02  0.25306662069E+03  0.25944568159E+03  0.00000000000E+00 0. -1.
<scales pt_clust_3="37.67752" pt_clust_4="103.87163" pt_clust_5="44.79197" pt_clust_6="44.79197"></scales>
<clustering>
<clus scale="   37.678">  2  3  1 -1</clus>
<clus scale="   44.792">  5  6 -1 -1</clus>
<clus scale="  103.872">  1  4  2 -1</clus>
<clus scale="  103.872">  1  3  2 -1</clus>
</clustering>
</event>
<event>
 6    0  0.3082502E+002  0.9892649E+02  0.7546771E-02  0.1282570E+00
          1   -1    0    0  505    0 -0.00000000000E+00  0.00000000000E+00  0.34877545776E+04  0.34877545776E+04  0.00000000000E+00 0.  1.
         21   -1    0    0  503  502  0.00000000000E+00 -0.00000000000E+00 -0.11374485447E+03  0.11374485447E+03  0.00000000000E+00 0. -1.
         21    1    1    2  503  501 -0.39893386080E+02 -0.56104981779E+01 -0.80945321457E+02  0.90416287297E+02  0.00000000000E+00 0. -1.
         21    1    1    2  504  502  0.10230814187E+02 -0.29070116648E+02 -0.11640152666E+02  0.32942895971E+02  0.00000000000E+00 0.  1.
         21    1    1    2  505  504  0.74622611406E+02  0.11534327224E+03  0.95315647195E+03  0.96300564100E+03  0.00000000000E+00 0.  1.
          1    1    1    2  501    0 -0.44960039513E+02 -0.80662657419E+02  0.25134387253E+04  0.25151346078E+04  0.00000000000E+00 0.  1.
<scales pt_clust_3="44.69269" pt_clust_4="30.81787" pt_clust_5="98.92649" pt_clust_6="14000.00000"></scales>
<clustering>
<clus scale="   30.818">  2  4  1 -1</clus>
<clus scale="   44.693">  2  3  1 -1</clus>
<clus scale="   98.926">  2  5  1 -1</clus>
<clus scale="   30.818">  2  3  1 -1</clus>
</clustering>
</event>
<event>
 6    0  0.3082502E+002  0.1734952E+03  0.7546771E-02  0.1174251E+00
         21   -1    0    0  503  502  0.00000000000E+00  0.00000000000E+00  0.49325890272E+03  0.49325890272E+03  0.00000000000E+00 0.  1.
          2   -1    0    0  505    0 -0.00000000000E+00 -0.00000000000E+00 -0.13970222816E+04  0.13970222816E+04  0.00000000000E+00 0.  1.
         21    1    1    2  503  501  0.18878047803E+02 -0.13068905818E+03  0.38175417941E+02  0.13745316712E+03  0.00000000000E+00 0.  1.
         21    1    1    2  504  502  0.40703497021E+02 -0.37163149872E+02  0.38628572001E+03  0.39019806748E+03  0.00000000000E+00 0.  1.
         21    1    1    2  505  504  0.42158253238E+02 -0.31819516497E+02 -0.90532024256E+02  0.10481339305E+03  0.00000000000E+00 0. -1.
          2    1    1    2  501    0 -0.10173979806E+03  0.19967172455E+03 -0.12376924926E+04  0.12578165567E+04  0.00000000000E+00 0.  1.
<scales pt_clust_3="173.49517" pt_clust_4="55.19609" pt_clust_5="52.81856" pt_clust_6="14000.00000"></scales>
<clustering>
<clus scale="   52.819">  2  5  1 -1</clus>
<clus scale="   55.196">  1  4  2 -1</clus>
<clus scale="  173.495">  1  3  2 -1</clus>
<clus scale="   55.196">  1  3  2 -1</clus>
</clustering>
</event>
<event>
 6    0  0.3082502E+002  0.7377860E+02  0.7546771E-02  0.1347696E+00
         21   -1    0    0  505  502  0.00000000000E+00  0.00000000000E+00  0.99150292157E+02  0.99150292157E+02  0.00000000000E+00 0.  1.
          2   -1    0    0  503    0 -0.00000000000E+00 -0.00000000000E+00 -0.19022825759E+04  0.19022825759E+04  0.00000000000E+00 0.  1.
         21    1    1    2  503  504  0.23419583545E+02 -0.19245561424E+02 -0.12470078883E+04  0.12473762632E+04  0.00000000000E+00 0.  1.
         21    1    1    2  504  502  0.29859847498E+02 -0.49390664979E+02 -0.13629953906E+03  0.14801558238E+03  0.00000000000E+00 0.  1.
         21    1    1    2  505  501  0.49799679936E+02  0.54998647600E+02  0.71975144156E+02  0.10336963159E+03  0.00000000000E+00 0.  1.
          2    1    1    2  501    0 -0.10307911098E+03  0.13637578804E+02 -0.49180000055E+03  0.50267139089E+03  0.00000000000E+00 0.  1.
<scales pt_clust_3="30.31284" pt_clust_4="63.95601" pt_clust_5="14000.00000" pt_clust_6="73.77860"></scales>
<clustering>
<clus scale="   30.313">  2  3  1 -1</clus>
<clus scale="   63.956">  2  4  1 -1</clus>
<clus scale="   73.779">  2  6  1 -1</clus>
<clus scale="   73.779">  1  3  2 -1</clus>
</clustering>
</event>
<event>
 6    0  0.3082502E+002  0.1875151E+03  0.7546771E-02  0.1160722E+00
         21   -1    0    0  501  502  0.00000000000E+00  0.00000000000E+00  0.60244478348E+02  0.60244478348E+02  0.00000000000E+00 0. -1.
          2   -1    0    0  505    0 -0.00000000000E+00 -0.00000000000E+00 -0.17493580792E+04  0.17493580792E+04  0.00000000000E+00 0. -1.
         21    1    1    2  503  504 -0.15894056934E+03  0.65758536967E+02 -0.15436143892E+03  0.23111413542E+03  0.00000000000E+00 0. -1.
         21    1    1    2  504  502 -0.32321998751E+02 -0.28238914894E+02 -0.26217750667E+02  0.50294317450E+02  0.00000000000E+00 0.  1.
         21    1    1    2  505  503  0.10314911051E+01 -0.50713317772E+02 -0.42401699867E+03  0.42704018515E+03  0.00000000000E+00 0.  1.
          2    1    1    2  501    0  0.19023107699E+03  0.13193695699E+02 -0.10845174126E+04  0.11011539195E+04  0.00000000000E+00 0. -1.
<scales pt_clust_3="187.51509" pt_clust_4="42.92025" pt_clust_5="51.59880" pt_clust_6="14000.00000"></scales>
<clustering>
<clus scale="   42.920">  1  4  2 -1</clus>
<clus scale="   51.599">  2  5  1 -1</clus>
<clus scale="  187.515">  1  3  2 -1</clus>
<clus scale="   42.920">  1  3  2 -1</clus>
</clustering>
</event>
<event>
 6    0  0.3082502E+002  0.6844322E+02  0.7546771E-02  0.1365468E+00
         -1   -1    0    0    0  501 -0.00000000000E+00  0.00000000000E+00  0.49026951590E+03  0.49026951590E+03  0.00000000000E+00 0. -1.
         21   -1    0    0  504  502  0.00000000000E+00 -0.00000000000E+00 -0.56572480005E+03  0.56572480005E+03  0.00000000000E+00 0.  1.
         21    1    1    2  503  501 -0.23185712764E+02  0.37689719547E+02  0.72032949146E+02  0.84538973253E+02  0.00000000000E+00 0.  1.
         21    1    1    2  504  503 -0.35918229084E+02  0.61698966441E+02 -0.37051674783E+03  0.37733213759E+03  0.00000000000E+00 0.  1.
         21    1    1    2  505  502  0.84671669571E+02 -0.96818526371E+01 -0.17000606684E+03  0.19017121933E+03  0.00000000000E+00 0.  1.
         -1    1    1    2    0  505 -0.25567727722E+02 -0.89706833350E+02  0.39303458137E+03  0.40395198577E+03  0.00000000000E+00 0. -1.
<scales pt_clust_3="44.25034" pt_clust_4="14000.00000" pt_clust_5="68.44322" pt_clust_6="71.68781"></scales>
<clustering>
<clus scale="   44.250">  1  3  2 -1</clus>
<clus scale="   71.688">  1  6  2 -1</clus>
<clus scale="   68.443">  1  5  2 -1</clus>
<clus scale="   68.443">  2  3  1 -1</clus>
</clustering>
</event>
<event>
 6    0  0.3082502E+002  0.8224866E+02  0.7546771E-02  0.1322789E+00
         21   -1    0    0  501  502  0.00000000000E+00  0.00000000000E+00  0.11075861403E+03  0.11075861403E+03  0.00000000000E+00 0.  1.
          2   -1    0    0  504    0 -0.00000000000E+00 -0.00000000000E+00 -0.21580693122E+04  0.21580693122E+04  0.00000000000E+00 0. -1.
         21    1    1    2  503  505  0.48416249222E+02  0.31751330062E+02  0.25102368100E+02  0.63106331169E+02  0.00000000000E+00 0.  1.
         21    1    1    2  504  503  0.58041959260E+02  0.19780645158E+02 -0.26339616503E+03  0.27043979498E+03  0.00000000000E+00 0. -1.
         21    1    1    2  505  502  0.65718385680E+00  0.37120522269E+02  0.54851236673E+02  0.66234607485E+02  0.00000000000E+00 0.  1.
          2    1    1    2  501    0 -0.10711539234E+03 -0.88652497490E+02 -0.18638681380E+04  0.18690471926E+04  0.00000000000E+00 0. -1.
<scales pt_clust_3="14000.00000" pt_clust_4="62.25164" pt_clust_5="37.12634" pt_clust_6="82.24866"></scales>
<clustering>
<clus scale="   37.126">  1  5  2 -1</clus>
<clus scale="   62.252">  2  4  1 -1</clus>
<clus scale="   82.249">  2  6  1 -1</clus>
<clus scale="   37.126">  1  3  2 -1</clus>
</clustering>
</event>
<event>
 6    0  0.3082502E+002  0.1538483E+03  0.7546771E-02  0.1195822E+00
          2   -1    0    0  503    0 -0.00000000000E+00  0.00000000000E+00  0.53774322977E+03  0.53774322977E+03  0.00000000000E+00 0. -1.
         21   -1    0    0  504  502  0.00000000000E+00 -0.00000000000E+00 -0.30910385592E+03  0.30910385592E+03  0.00000000000E+00 0.  1.
         21    1    1    2  503  502 -0.90426280849E+02  0.10958947280E+03  0.25372217611E+03  0.29079495777E+03  0.00000000000E+00 0.  1.
         21    1    1    2  504  505 -0.30371564684E+02  0.10264495967E+02 -0.19434465993E+03  0.19697116201E+03  0.00000000000E+00 0.  1.
         21    1    1    2  505  501  0.41266603708E+02  0.36816753267E+02 -0.52430234174E+02  0.76205874828E+02  0.00000000000E+00 0.  1.
          2    1    1    2  501    0  0.79531241826E+02 -0.15667072204E+03  0.22169209185E+03  0.28287509109E+03  0.00000000000E+00 0. -1.
<scales pt_clust_3="14000.00000" pt_clust_4="32.05919" pt_clust_5="48.95025" pt_clust_6="153.84835"></scales>
<clustering>
<clus scale="   32.059">  2  4  1 -1</clus>
<clus scale="   48.950">  2  5  1 -1</clus>
<clus scale="  153.848">  2  6  1 -1</clus>
<clus scale="   32.059">  2  3  1 -1</clus>
</clustering>
</event>
<event>
 6    0  0.3082502E+002  0.7349272E+02  0.7546771E-02  0.1348603E+00
         21   -1    0    0  504  502  0.00000000000E+00  0.00000000000E+00  0.45974156909E+02  0.45974156909E+02  0.00000000000E+00 0.  1.
          2   -1    0    0  503    0 -0.00000000000E+00 -0.00000000000E+00 -0.27329761575E+04  0.27329761575E+04  0.00000000000E+00 0. -1.
         21    1    1    2  503  505  0.43504487410E+02 -0.15047578334E+01 -0.10155125847E+04  0.10164451360E+04  0.00000000000E+00 0.  1.
         21    1    1    2  504  501 -0.28697376340E+02 -0.10221062280E+03 -0.42594787447E+02  0.11438910236E+03  0.00000000000E+00 0.  1.
         21    1    1    2  505  502 -0.29908007946E+02  0.53547805870E+02 -0.93462670910E+02  0.11179055106E+03  0.00000000000E+00 0.  1.
          2    1    1    2  501    0  0.15100896877E+02  0.50167574762E+02 -0.15354319575E+04  0.15363255250E+04  0.00000000000E+00 0. -1.
<scales pt_clust_3="43.53050" pt_clust_4="73.49272" pt_clust_5="60.02878" pt_clust_6="14000.00000"></scales>
<clustering>
<clus scale="   43.531">  2  3  1 -1</clus>
<clus scale="   60.029">  1  5  2 -1</clus>
<clus scale="   73.493">  1  4  2 -1</clus>
<clus scale="   60.029">  1  3  2 -1</clus>
</clustering>
</event>
<event>
 6    0  0.3082502E+002  0.9808876E+02  0.7546771E-02  0.1284367E+00
         21   -1    0    0  503  502  0.00000000000E+00  0.00000000000E+00  0.91448804936E+02  0.91448804936E+02  0.00000000000E+00 0. -1.
          2   -1    0    0  505    0 -0.00000000000E+00 -0.00000000000E+00 -0.31749437445E+04  0.31749437445E+04  0.00000000000E+00 0. -1.
         21    1    1    2  503  501  0.89250383342E+02  0.23588238110E+02  0.27717335459E+02  0.96386132762E+02  0.00000000000E+00 0. -1.
         21    1    1    2  504  502 -0.32906390703E+02  0.86585904265E+01  0.12398232980E+02  0.36214885314E+02  0.00000000000E+00 0. -1.
         21    1    1    2  505  504  0.24036866714E+02  0.24222916293E+02 -0.63364750613E+02  0.71969523101E+02  0.00000000000E+00 0. -1.
          2    1    1    2  501    0 -0.80380859353E+02 -0.56469744830E+02 -0.30602457574E+04  0.30618220083E+04  0.00000000000E+00 0. -1.
<scales pt_clust_3="14000.00000" pt_clust_4="34.02649" pt_clust_5="33.08755" pt_clust_6="98.08876"></scales>
<clustering>
<clus scale="   34.026">  1  4  2 -1</clus>
<clus scale="   33.088">  1  5  2 -1</clus>
<clus scale="   98.089">  2  6  1 -1</clus>
<clus scale="   34.026">  1  3  2 -1</clus>
</clustering>
</event>
<event>
 6    0  0.3082502E+002  0.1096159E+03  0.7546771E-02  0.1261283E+00
          1   -1    0    0  503    0 -0.00000000000E+00  0.00000000000E+00  0.77239528515E+03  0.77239528515E+03  0.00000000000E+00 0.  1.
         21   -1    0    0  505  502  0.00000000000E+00 -0.00000000000E+00 -0.16547120064E+04  0.16547120064E+04  0.00000000000E+00 0.  1.
         21    1    1    2  503  502  0.61279704874E+02  0.39974947607E+02  0.92584804893E+02  0.11800485059E+03  0.00000000000E+00 0.  1.
         21    1    1    2  504  501  0.79376463502E+02  0.16420790690E+02 -0.13239496731E+03  0.15523753635E+03  0.00000000000E+00 0.  1.
         21    1    1    2  505  504  0.32507073684E+02 -0.29445735544E+02 -0.14861464822E+04  0.14867935727E+04  0.00000000000E+00 0.  1.
          1    1    1    2  501    0 -0.17316324206E+03 -0.26950002753E+02  0.64363992332E+03  0.66707133198E+03  0.00000000000E+00 0.  1.
<scales pt_clust_3="74.07636" pt_clust_4="14000.00000" pt_clust_5="43.86070" pt_clust_6="109.61590"></scales>
<clustering>
<clus scale="   43.861">  2  5  1 -1</clus>
<clus scale="   74.076">  1  3  2 -1</clus>
<clus scale="  109.616">  1  6  2 -1</clus>
<clus scale="   43.861">  2  3  1 -1</clus>
</clustering>
</event>
<event>
 6    0  0.3082502E+002  0.1483697E+03  0.7546771E-02  0.1202491E+00
         21   -1    0    0  505  502  0.00000000000E+00  0.00000000000E+00  0.39127865387E+03  0.39127865387E+03  0.00000000000E+00 0. -1.
          1   -1    0    0  503    0 -0.00000000000E+00 -0.00000000000E+00 -0.49787527514E+03  0.49787527514E+03  0.00000000000E+00 0. -1.
         21    1    1    2  503  504 -0.28634849819E+02  0.19382707811E+02 -0.35669838606E+03  0.35837045442E+03  0.00000000000E+00 0. -1.
         21    1    1    2  504  502  0.14230860189E+03 -0.30256867607E+02  0.23550366048E+03  0.27681977948E+03  0.00000000000E+00 0. -1.
         21    1    1    2  505  501  0.12979823938E+02  0.53850139336E+02  0.86042806353E+02  0.10233121645E+03  0.00000000000E+00 0. -1.
          1    1    1    2  501    0 -0.12665357601E+03 -0.42975979540E+02 -0.71444702040E+02  0.15163247866E+03  0.00000000000E+00 0. -1.
<scales pt_clust_3="34.57809" pt_clust_4="14000.00000" pt_clust_5="56.12793" pt_clust_6="148.36969"></scales>
<clustering>
<clus scale="   34.578">  2  3  1 -1</clus>
<clus scale="   56.128">  1  5  2 -1</clus>
<clus scale="  148.370">  2  6  1 -1</clus>
<clus scale="   56.128">  1  3  2 -1</clus>
</clustering>
</event>
<event>
 6    0  0.3082502E+002  0.7103767E+02  0.7546771E-02  0.1356600E+00
         21   -1    0    0  505  502  0.00000000000E+00  0.00000000000E+00  0.84616576003E+03  0.84616576003E+03  0.00000000000E+00 0.  1.
          1   -1    0    0  503    0 -0.00000000000E+00 -0.00000000000E+00 -0.35180024335E+02  0.35180024335E+02  0.00000000000E+00 0.  1.
         21    1    1    2  503  504  0.48736552398E+02 -0.47018721800E+01  0.22799531991E+02  0.54010904461E+02  0.00000000000E+00 0.  1.
         21    1    1    2  504  502  0.81044812981E+02  0.62437703221E+01  0.31908025715E+03  0.32927109937E+03  0.00000000000E+00 0.  1.
         21    1    1    2  505  501 -0.63665529613E+02  0.21816977925E+02  0.37341473720E+03  0.37943095043E+03  0.00000000000E+00 0.  1.
          1    1    1    2  501    0 -0.66115835766E+02 -0.23358876067E+02  0.95691209351E+02  0.11863283010E+03  0.00000000000E+00 0.  1.
<scales pt_clust_3="48.96283" pt_clust_4="71.03767" pt_clust_5="14000.00000" pt_clust_6="45.74250"></scales>
<clustering>
<clus scale="   48.963">  2  3  1 -1</clus>
<clus scale="   45.742">  2  6  1 -1</clus>
<clus scale="   71.038">  2  4  1 -1</clus>
<clus scale="   71.038">  1  3  2 -1</clus>
</clustering>
</event>
<event>
 6    0  0.3082502E+002  0.8791068E+02  0.7546771E-02  0.1307992E+00
         21   -1    0    0  501  502  0.00000000000E+00  0.00000000000E+00  0.56169361369E+02  0.56169361369E+02  0.00000000000E+00 0. -1.
          1   -1    0    0  503    0 -0.00000000000E+00 -0.00000000000E+00 -0.14865174373E+04  0.14865174373E+04  0.00000000000E+00 0. -1.
         21    1    1    2  503  505  0.44184098870E+02 -0.41889128320E+02 -0.20743122344E+03  0.21618197456E+03  0.00000000000E+00 0. -1.
         21    1    1    2  504  502 -0.85966126486E+02  0.29295678148E+02 -0.23912485217E+01  0.90852241198E+02  0.00000000000E+00 0. -1.
         21    1    1    2  505  504  0.79731826625E+01 -0.69712264866E+02 -0.90800275096E+03  0.91070981507E+03  0.00000000000E+00 0.  1.
          1    1    1    2  501    0  0.33808844953E+02  0.82305715037E+02 -0.31252285306E+03  0.32494276790E+03  0.00000000000E+00 0. -1.
<scales pt_clust_3="60.88459" pt_clust_4="14000.00000" pt_clust_5="87.91068" pt_clust_6="84.68715"></scales>
<clustering>
<clus scale="   60.885">  2  3  1 -1</clus>
<clus scale="   84.687">  2  6  1 -1</clus>
<clus scale="   87.911">  2  5  1 -1</clus>
<clus scale="   87.911">  1  3  2 -1</clus>
</clustering>
</event>
<event>
 6    0  0.3082502E+002  0.5648994E+02  0.7546771E-02  0.1413181E+00
         21   -1    0    0  505  502  0.00000000000E+00  0.00000000000E+00  0.57624306941E+03  0.57624306941E+03  0.00000000000E+00 0.  1.
         -3   -1    0    0    0  501 -0.00000000000E+00 -0.00000000000E+00 -0.87118350280E+03  0.87118350280E+03  0.00000000000E+00 0.  1.
         21    1    1    2  503  502  0.14645013085E+02  0.74630457704E+02  0.46256221865E+03  0.46877285304E+03  0.00000000000E+00 0.  1.
         21    1    1    2  504  501 -0.14597428784E+02 -0.84058091169E+02 -0.40230639347E+02  0.94325775694E+02  0.00000000000E+00 0.  1.
         21    1    1    2  505  504  0.25795941040E+02 -0.40301757844E+02  0.75603743850E+02  0.89473953437E+02  0.00000000000E+00 0.  1.
         -3    1    1    2    0  503 -0.25843525341E+02  0.49729391309E+02 -0.79287575654E+03  0.79485399004E+03  0.00000000000E+00 0.  1.
<scales pt_clust_3="53.47863" pt_clust_4="14000.00000" pt_clust_5="47.85042" pt_clust_6="56.48994"></scales>
<clustering>
<clus scale="   47.850">  1  5  2 -1</clus>
<clus scale="   53.479">  1  3  2 -1</clus>
<clus scale="   56.490">  2  6  1 -1</clus>
<clus scale="   47.850">  1  3  2 -1</clus>
</clustering>
</event>
<event>
 6    0  0.3082502E+002  0.1368749E+03  0.7546771E-02  0.1217597E+00
          2   -1    0    0  504    0 -0.00000000000E+00  0.00000000000E+00  0.80627954908E+03  0.80627954908E+03  0.00000000000E+00 0. -1.
         21   -1    0    0  503  502  0.00000000000E+00 -0.00000000000E+00 -0.92183008556E+02  0.92183008556E+02  0.00000000000E+00 0.  1.
         21    1    1    2  503  501 -0.13864205026E+03 -0.39792194515E+02 -0.52452860409E+01  0.14433485328E+03  0.00000000000E+00 0.  1.
         21    1    1    2  504  505  0.27205352369E+02 -0.22847227441E+02  0.82231224757E+02  0.89577348277E+02  0.00000000000E+00 0. -1.
         21    1    1    2  505  502  0.23345857135E+02  0.70852693322E+02  0.13088720883E+03  0.15065389020E+03  0.00000000000E+00 0.  1.
          2    1    1    2  501    0  0.88090840756E+02 -0.82132713661E+01  0.50622339298E+03  0.51389646589E+03  0.00000000000E+00 0. -1.
<scales pt_clust_3="136.87491" pt_clust_4="35.52643" pt_clust_5="72.31107" pt_clust_6="14000.00000"></scales>
<clustering>
<clus scale="   35.526">  1  4  2 -1</clus>
<clus scale="   72.311">  1  5  2 -1</clus>
<clus scale="  136.875">  2  3  1 -1</clus>
<clus scale="  136.875">  2  3  1 -1</clus>
</clustering>
</event>
<event>
 6    0  0.3082502E+002  0.9930474E+02  0.7546771E-02  0.1281765E+00
          2   -1    0    0  504    0 -0.00000000000E+00  0.00000000000E+00  0.25748397771E+04  0.25748397771E+04  0.00000000000E+00 0.  1.
         21   -1    0    0  505  502  0.00000000000E+00 -0.00000000000E+00 -0.10956613271E+03  0.10956613271E+03  0.00000000000E+00 0.  1.
         21    1    1    2  503  501  0.73290148547E+01 -0.10658805419E+03  0.63173655979E+02  0.12411945281E+03  0.00000000000E+00 0.  1.
         21    1    1    2  504  502 -0.86348116823E+01  0.48535409649E+02  0.15624026952E+03  0.16383304850E+03  0.00000000000E+00 0.  1.
         21    1    1    2  505  503  0.53703270299E+02  0.23935882867E+02 -0.63331005889E+02  0.86416341257E+02  0.00000000000E+00 0.  1.
          2    1    1    2  501    0 -0.52397473472E+02  0.34116761676E+02  0.23091907248E+04  0.23100370673E+04  0.00000000000E+00 0.  1.
<scales pt_clust_3="14000.00000" pt_clust_4="49.29752" pt_clust_5="58.85318" pt_clust_6="99.30474"></scales>
<clustering>
<clus scale="   49.298">  1  4  2 -1</clus>
<clus scale="   58.853">  2  5  1 -1</clus>
<clus scale="   99.305">  1  6  2 -1</clus>
<clus scale="   58.853">  2  3  1 -1</clus>
</clustering>
</event>
<event>
 6    0  0.3082502E+002  0.8802326E+02  0.7546771E-02  0.1307711E+00
         21   -1    0    0  505  502  0.00000000000E+00  0.00000000000E+00  0.95223984471E+03  0.95223984471E+03  0.00000000000E+00 0. -1.
          3   -1    0    0  503    0 -0.00000000000E+00 -0.00000000000E+00 -0.67594750585E+02  0.67594750585E+02  0.00000000000E+00 0.  1.
         21    1    1    2  503  504  0.56576058116E+02  0.11815820912E+03  0.19079375393E+03  0.23143999065E+03  0.00000000000E+00 0. -1.
         21    1    1    2  504  502  0.37654426183E+02 -0.57524020506E+02  0.40421329558E+03  0.41001860576E+03  0.00000000000E+00 0. -1.
         21    1    1    2  505  501 -0.33966937164E+02 -0.56621613873E+01  0.29464718731E+03  0.29665262156E+03  0.00000000000E+00 0. -1.
          3    1    1    2  501    0 -0.60263547134E+02 -0.54972027229E+02 -0.50091426863E+01  0.81723377325E+02  0.00000000000E+00 0.  1.
<scales pt_clust_3="88.02326" pt_clust_4="63.25021" pt_clust_5="34.43563" pt_clust_6="14000.00000"></scales>
<clustering>
<clus scale="   34.436">  1  5  2 -1</clus>
<clus scale="   63.250">  1  4  2 -1</clus>
<clus scale="   88.023">  1  3  2 -1</clus>
<clus scale="   34.436">  1  3  2 -1</clus>
</clustering>
</event>
<event>
 6    0  0.3082502E+002  0.7437017E+02  0.7546771E-02  0.1345833E+00
          2   -1    0    0  505    0 -0.00000000000E+00  0.00000000000E+00  0.48291337229E+03  0.48291337229E+03  0.00000000000E+00 0.  1.
         21   -1    0    0  503  502  0.00000000000E+00 -0.00000000000E+00 -0.21670037519E+03  0.21670037519E+03  0.00000000000E+00 0. -1.
         21    1    1    2  503  501  0.30378878989E+02  0.68243108010E+02 -0.17384103422E+03  0.18921073770E+03  0.00000000000E+00 0. -1.
         21    1    1    2  504  502 -0.47290455992E+02  0.14395243638E+02  0.33539652398E+03  0.33901982032E+03  0.00000000000E+00 0.  1.
         21    1    1    2  505  504 -0.29200408377E+02  0.11093498042E+02  0.22874723211E+02  0.38716695496E+02  0.00000000000E+00 0.  1.
          2    1    1    2  501    0  0.46111985380E+02 -0.93731849691E+02  0.81782784130E+02  0.13266649397E+03  0.00000000000E+00 0.  1.
<scales pt_clust_3="14000.00000" pt_clust_4="72.69434" pt_clust_5="31.23667" pt_clust_6="74.37017"></scales>
<clustering>
<clus scale="   31.237">  1  5  2 -1</clus>
<clus scale="   72.694">  1  4  2 -1</clus>
<clus scale="   74.370">  1  6  2 -1</clus>
<clus scale="   74.370">  2  3  1 -1</clus>
</clustering>
</event>
<event>
 6    0  0.3082502E+002  0.1214738E+03  0.7546771E-02  0.1240685E+00
         21   -1    0    0  503  502  0.00000000000E+00  0.00000000000E+00  0.84473706892E+03  0.84473706892E+03  0.00000000000E+00 0. -1.
         -1   -1    0    0    0  501 -0.00000000000E+00 -0.00000000000E+00 -0.16664946078E+03  0.16664946078E+03  0.00000000000E+00 0. -1.
         21    1    1    2  503  505  0.59472383337E+02  0.20043044112E+02  0.66886407665E+03  0.67180193587E+03  0.00000000000E+00 0. -1.
         21    1    1    2  504  502 -0.16439483410E+03 -0.64894275232E+02  0.72296703868E+02  0.19095481619E+03  0.00000000000E+00 0. -1.
         21    1    1    2  505  501  0.13085237735E+02  0.34193171264E+02  0.17514486825E+00  0.36611843486E+02  0.00000000000E+00 0.  1.
         -1    1    1    2    0  504  0.91837213031E+02  0.10658059855E+02 -0.63248317249E+02  0.11201793415E+03  0.00000000000E+00 0. -1.
<scales pt_clust_3="62.99037" pt_clust_4="121.47378" pt_clust_5="36.61142" pt_clust_6="14000.00000"></scales>
<clustering>
<clus scale="   36.611">  2  5  1 -1</clus>
<clus scale="   62.990">  1  3  2 -1</clus>
<clus scale="  121.474">  1  4  2 -1</clus>
<clus scale="   62.990">  1  3  2 -1</clus>
</clustering>
</event>
<event>
 6    0  0.3082502E+002  0.9407663E+02  0.7546771E-02  0.1293269E+00
         21   -1    0    0  504  502  0.00000000000E+00  0.00000000000E+00  0.84480030159E+02  0.84480030159E+02  0.00000000000E+00 0. -1.
         -1   -1    0    0    0  501 -0.00000000000E+00 -0.00000000000E+00 -0.60438358570E+03  0.60438358570E+03  0.00000000000E+00 0.  1.
         21    1    1    2  503  502 -0.40853867669E+02 -0.28297970347E+02  0.70724379705E+00  0.49702251690E+02  0.00000000000E+00 0. -1.
         21    1    1    2  504  501  0.27970591224E+02 -0.12047451812E+02  0.34531474326E+02  0.46042564956E+02  0.00000000000E+00 0. -1.
         21    1    1    2  505  503 -0.11025122529E+02 -0.63856437803E+02 -0.66246814082E+02  0.92670590544E+02  0.00000000000E+00 0. -1.
         -1    1    1    2    0  505  0.23908398975E+02  0.10420185996E+03 -0.48889545958E+03  0.50044820866E+03  0.00000000000E+00 0.  1.
<scales pt_clust_3="43.09218" pt_clust_4="30.45480" pt_clust_5="94.07663" pt_clust_6="14000.00000"></scales>
<clustering>
<clus scale="   30.455">  1  4  2 -1</clus>
<clus scale="   43.092">  1  3  2 -1</clus>
<clus scale="   94.077">  1  5  2 -1</clus>
<clus scale="   30.455">  1  3  2 -1</clus>
</clustering>
</event>
<event>
 6    0  0.3082502E+002  0.1552185E+03  0.7546771E-02  0.1194203E+00
          1   -1    0    0  505    0 -0.00000000000E+00  0.00000000000E+00  0.67793699685E+03  0.67793699685E+03  0.00000000000E+00 0.  1.
         21   -1    0    0  504  502  0.00000000000E+00 -0.00000000000E+00 -0.58369034198E+03  0.58369034198E+03  0.00000000000E+00 0.  1.
         21    1    1    2  503  502 -0.18164091889E+03  0.14007880119E+02 -0.31794428372E+03  0.36643991550E+03  0.00000000000E+00 0.  1.
         21    1    1    2  504  501  0.28130714297E+02  0.18282143513E+02 -0.22361541974E+03  0.22611817664E+03  0.00000000000E+00 0. -1.
         21    1    1    2  505  503  0.32239266247E+02 -0.60859641185E+02  0.35856305454E+03  0.36511741988E+03  0.00000000000E+00 0.  1.
          1    1    1    2  501    0  0.12127093834E+03  0.28569617553E+02  0.27724330379E+03  0.30395182682E+03  0.00000000000E+00 0.  1.
<scales pt_clust_3="155.21854" pt_clust_4="33.54957" pt_clust_5="68.84477" pt_clust_6="14000.00000"></scales>
<clustering>
<clus scale="   33.550">  2  4  1 -1</clus>
<clus scale="   68.845">  1  5  2 -1</clus>
<clus scale="  155.219">  2  3  1 -1</clus>
<clus scale="   33.550">  2  3  1 -1</clus>
</clustering>
</event>
<event>
 6    0  0.3082502E+002  0.1097607E+03  0.7546771E-02  0.1261014E+00
          2   -1    0    0  504    0 -0.00000000000E+00  0.00000000000E+00  0.24156170147E+04  0.24156170147E+04  0.00000000000E+00 0.  1.
         21   -1    0    0  503  502  0.00000000000E+00 -0.00000000000E+00 -0.16363711282E+03  0.16363711282E+03  0.00000000000E+00 0.  1.
         21    1    1    2  503  501  0.31646310038E+01  0.33521518911E+02 -0.12297832118E+03  0.12750441012E+03  0.00000000000E+00 0.  1.
         21    1    1    2  504  505 -0.32614258690E+02  0.14025794578E+02  0.23128958831E+03  0.23399847531E+03  0.00000000000E+00 0. -1.
         21    1    1    2  505  502 -0.10777953182E+03 -0.35977236884E+01  0.49545755582E+02  0.11867667417E+03  0.00000000000E+00 0.  1.
          2    1    1    2  501    0  0.13722915951E+03 -0.43949589801E+02  0.20941228792E+04  0.20990745679E+04  0.00000000000E+00 0.  1.
<scales pt_clust_3="33.67057" pt_clust_4="35.88472" pt_clust_5="14000.00000" pt_clust_6="109.76070"></scales>
<clustering>
<clus scale="   33.671">  2  3  1 -1</clus>
<clus scale="   35.885">  1  4  2 -1</clus>
<clus scale="  109.761">  1  6  2 -1</clus>
<clus scale="   33.671">  2  3  1 -1</clus>
</clustering>
</event>
<event>
 6    0  0.3082502E+002  0.2452858E+03  0.7546771E-02  0.1116321E+00
          1   -1    0    0  503    0 -0.00000000000E+00  0.00000000000E+00  0.14929203019E+04  0.14929203019E+04  0.00000000000E+00 0.  1.
         21   -1    0    0  501  502  0.00000000000E+00 -0.00000000000E+00 -0.63951516349E+03  0.63951516349E+03  0.00000000000E+00 0. -1.
         21    1    1    2  503  504  0.31948097173E+02  0.93413998317E+01  0.27183654257E+02  0.42975501423E+02  0.00000000000E+00 0. -1.
         21    1    1    2  504  505 -0.43936797531E+02 -0.56270493381E+02  0.16941430592E+03  0.18384237176E+03  0.00000000000E+00 0.  1.
         21    1    1    2  505  502 -0.16680015653E+03  0.18052777049E+03 -0.58991685519E+03  0.63907312897E+03  0.00000000000E+00 0. -1.
          1    1    1    2  501    0  0.17878885689E+03 -0.13359867695E+03  0.12467240334E+04  0.12665444632E+04  0.00000000000E+00 0.  1.
<scales pt_clust_3="33.28577" pt_clust_4="68.15839" pt_clust_5="14000.00000" pt_clust_6="245.28577"></scales>
<clustering>
<clus scale="   33.286">  1  3  2 -1</clus>
<clus scale="   68.158">  1  4  2 -1</clus>
<clus scale="  245.286">  1  6  2 -1</clus>
<clus scale="  245.286">  2  3  1 -1</clus>
</clustering>
</event>
<event>
 6    0  0.3082502E+002  0.8781332E+02  0.7546771E-02  0.1308235E+00
         21   -1    0    0  505  502  0.00000000000E+00  0.00000000000E+00  0.57725539315E+03  0.57725539315E+03  0.00000000000E+00 0.  1.
          2   -1    0    0  503    0 -0.00000000000E+00 -0.00000000000E+00 -0.61820789752E+03  0.61820789752E+03  0.00000000000E+00 0.  1.
         21    1    1    2  503  504 -0.35478302222E+02 -0.79599433737E+01 -0.18736245575E+02  0.40903759306E+02  0.00000000000E+00 0.  1.
         21    1    1    2  504  502 -0.36964465611E+02 -0.29050250967E+02  0.49126813875E+03  0.49351258641E+03  0.00000000000E+00 0.  1.
         21    1    1    2  505  501  0.58766908431E+02  0.10916197960E+03  0.17326497415E+02  0.12518024936E+03  0.00000000000E+00 0.  1.
          2    1    1    2  501    0  0.13675859402E+02 -0.72151785259E+02 -0.53081089496E+03  0.53586669560E+03  0.00000000000E+00 0.  1.
<scales pt_clust_3="36.36029" pt_clust_4="47.07630" pt_clust_5="14000.00000" pt_clust_6="87.81332"></scales>
<clustering>
<clus scale="   36.360">  2  3  1 -1</clus>
<clus scale="   47.076">  1  4  2 -1</clus>
<clus scale="   87.813">  2  6  1 -1</clus>
<clus scale="   47.076">  1  3  2 -1</clus>
</clustering>
</event>
<event>
 6    0  0.3082502E+002  0.1354248E+03  0.7546771E-02  0.1219621E+00
          3   -1    0    0  504    0 -0.00000000000E+00  0.00000000000E+00  0.41906683094E+03  0.41906683094E+03  0.00000000000E+00 0.  1.
         21   -1    0    0  501  502  0.00000000000E+00 -0.00000000000E+00 -0.14153270401E+03  0.14153270401E+03  0.00000000000E+00 0. -1.
         21    1    1    2  503  505 -0.29414982484E+02 -0.52423734403E+02 -0.15235497413E+02  0.62012978519E+02  0.00000000000E+00 0. -1.
         21    1    1    2  504  503 -0.32248054182E+02  0.34612248371E+02  0.46408321994E+02  0.66269729788E+02  0.00000000000E+00 0. -1.
         21    1    1    2  505  502 -0.59565696045E+02 -0.37178762316E+02 -0.63751933228E+02  0.94840083841E+02  0.00000000000E+00 0. -1.
          3    1    1    2  501    0  0.12122873271E+03  0.54990248349E+02  0.31011323557E+03  0.33747674279E+03  0.00000000000E+00 0.  1.
<scales pt_clust_3="45.49502" pt_clust_4="47.30692" pt_clust_5="45.49502" pt_clust_6="126.18309"></scales>
<clustering>
<clus scale="   45.495">  3  5 -1 -1</clus>
<clus scale="   47.307">  1  4  2 -1</clus>
<clus scale="  126.183">  1  6  2 -1</clus>
<clus scale="  135.425">  2  3  1 -1</clus>
</clustering>
</event>
<event>
 6    0  0.3082502E+002  0.1057094E+03  0.7546771E-02  0.1268728E+00
          3   -1    0    0  503    0 -0.00000000000E+00  0.00000000000E+00  0.47563817028E+03  0.47563817028E+03  0.00000000000E+00 0. -1.
         21   -1    0    0  505  502  0.00000000000E+00 -0.00000000000E+00 -0.41426655201E+03  0.41426655201E+03  0.00000000000E+00 0. -1.
         21    1    1    2  503  502  0.29838453973E+02 -0.46367328184E+02  0.45869592120E+02  0.71723649794E+02  0.00000000000E+00 0.  1.
         21    1    1    2  504  501 -0.58272974808E+02 -0.71350972970E+02 -0.14609016560E+01  0.92134874886E+02  0.00000000000E+00 0. -1.
         21    1    1    2  505  504  0.40163501887E+02  0.57290495539E+01 -0.34479260980E+03  0.34717124401E+03  0.00000000000E+00 0. -1.
          3    1    1    2  501    0 -0.11728981052E+02  0.11198925160E+03  0.36175553761E+03  0.37887495360E+03  0.00000000000E+00 0. -1.
<scales pt_clust_3="58.75730" pt_clust_4="14000.00000" pt_clust_5="40.57005" pt_clust_6="105.70940"></scales>
<clustering>
<clus scale="   40.570">  2  5  1 -1</clus>
<clus scale="   58.757">  2  3  1 -1</clus>
<clus scale="  105.709">  1  6  2 -1</clus>
<clus scale="   40.570">  2  3  1 -1</clus>
</clustering>
</event>
<event>
 6    0  0.3082502E+002  0.6179706E+02  0.7546771E-02  0.1390441E+00
          2   -1    0    0  505    0 -0.00000000000E+00  0.00000000000E+00  0.57749350924E+03  0.57749350924E+03  0.00000000000E+00 0.  1.
         21   -1    0    0  504  502  0.00000000000E+00 -0.00000000000E+00 -0.17092387443E+03  0.17092387443E+03  0.00000000000E+00 0.  1.
         21    1    1    2  503  502  0.86106707236E+02  0.29394232102E+02  0.21052073517E+02  0.93389376865E+02  0.00000000000E+00 0.  1.
         21    1    1    2  504  501 -0.50632051609E+02  0.12611759777E+02 -0.12208678608E+03  0.13276989294E+03  0.00000000000E+00 0.  1.
         21    1    1    2  505  503 -0.44758268766E+01  0.36624792952E+02  0.19316555908E+03  0.19665793068E+03  0.00000000000E+00 0. -1.
          2    1    1    2  501    0 -0.30998828751E+02 -0.78630784831E+02  0.31443878830E+03  0.32560018319E+03  0.00000000000E+00 0.  1.
<scales pt_clust_3="61.79706" pt_clust_4="52.36557" pt_clust_5="36.89727" pt_clust_6="14000.00000"></scales>
<clustering>
<clus scale="   36.897">  1  5  2 -1</clus>
<clus scale="   52.366">  2  4  1 -1</clus>
<clus scale="   61.797">  2  3  1 -1</clus>
<clus scale="   52.366">  2  3  1 -1</clus>
</clustering>
</event>
<event>
 6    0  0.3082502E+002  0.6170793E+02  0.7546771E-02  0.1390801E+00
         21   -1    0    0  504  502  0.00000000000E+00  0.00000000000E+00  0.56796909567E+03  0.56796909567E+03  0.00000000000E+00 0.  1.
         -4   -1    0    0    0  501 -0.00000000000E+00 -0.00000000000E+00 -0.98475882899E+02  0.98475882899E+02  0.00000000000E+00 0.  1.
         21    1    1    2  503  502  0.14295032978E+02 -0.34597687069E+02  0.18593301886E+03  0.18966400666E+03  0.00000000000E+00 0.  1.
         21    1    1    2  504  505 -0.60400625611E+02  0.57640279959E+02  0.29569598610E+03  0.30725682034E+03  0.00000000000E+00 0.  1.
         21    1    1    2  505  501 -0.48723632179E+02  0.32920584632E+02 -0.55089378024E+00  0.58805277903E+02  0.00000000000E+00 0.  1.
         -4    1    1    2    0  503  0.94829224812E+02 -0.55963177522E+02 -0.11584898408E+02  0.11071887368E+03  0.00000000000E+00 0.  1.
<scales pt_clust_3="37.43458" pt_clust_4="61.70793" pt_clust_5="56.43340" pt_clust_6="14000.00000"></scales>
<clustering>
<clus scale="   37.435">  1  3  2 -1</clus>
<clus scale="   56.433">  2  5  1 -1</clus>
<clus scale="   61.708">  1  4  2 -1</clus>
<clus scale="   37.435">  1  3  2 -1</clus>
</clustering>
</event>
<event>
 6    0  0.3082502E+002  0.8996993E+02  0.7546771E-02  0.1302925E+00
          2   -1    0    0  504    0 -0.00000000000E+00  0.00000000000E+00  0.24178372760E+04  0.24178372760E+04  0.00000000000E+00 0.  1.
         21   -1    0    0  505  502  0.00000000000E+00 -0.00000000000E+00 -0.51413478831E+02  0.51413478831E+02  0.00000000000E+00 0. -1.
         21    1    1    2  503  502 -0.41872231093E+01 -0.11446964865E+03  0.38469611067E+03  0.40138750710E+03  0.00000000000E+00 0. -1.
         21    1    1    2  504  503  0.36605057643E+02  0.38434250613E+01  0.23382770745E+03  0.23670677839E+03  0.00000000000E+00 0.  1.
         21    1    1    2  505  501  0.41411269550E+02  0.39597767107E+02 -0.19701166671E+02  0.60588879951E+02  0.00000000000E+00 0. -1.
          2    1    1    2  501    0 -0.73829104083E+02  0.71028456479E+02  0.17676011457E+04  0.17705675894E+04  0.00000000000E+00 0.  1.
<scales pt_clust_3="14000.00000" pt_clust_4="36.80628" pt_clust_5="57.56947" pt_clust_6="89.96993"></scales>
<clustering>
<clus scale="   36.806">  1  4  2 -1</clus>
<clus scale="   57.569">  2  5  1 -1</clus>
<clus scale="   89.970">  1  6  2 -1</clus>
<clus scale="   57.569">  2  3  1 -1</clus>
</clustering>
</event>
<event>
 6    0  0.3082502E+002  0.2189514E+03  0.7546771E-02  0.1134667E+00
          1   -1    0    0  504    0 -0.00000000000E+00  0.00000000000E+00  0.10814940943E+04  0.10814940943E+04  0.00000000000E+00 0. -1.
         21   -1    0    0  503  502  0.00000000000E+00 -0.00000000000E+00 -0.35288343764E+03  0.35288343764E+03  0.00000000000E+00 0. -1.
         21    1    1    2  503  501 -0.68013515378E+02  0.17883865561E+03 -0.22606275331E+03  0.29616460195E+03  0.00000000000E+00 0. -1.
         21    1    1    2  504  505  0.55318198624E+02  0.20349667964E+02  0.29306917813E+03  0.29893771133E+03  0.00000000000E+00 0. -1.
         21    1    1    2  505  502  0.23996895601E+03 -0.10767639585E+03  0.26695814997E+03  0.37476120384E+03  0.00000000000E+00 0. -1.
          1    1    1    2  501    0 -0.22727363926E+03 -0.91511927725E+02  0.39464608184E+03  0.46451401478E+03  0.00000000000E+00 0. -1.
<scales pt_clust_3="191.32443" pt_clust_4="58.94245" pt_clust_5="218.95142" pt_clust_6="14000.00000"></scales>
<clustering>
<clus scale="   58.942">  1  4  2 -1</clus>
<clus scale="  191.324">  2  3  1 -1</clus>
<clus scale="  218.951">  2  5  1 -1</clus>
<clus scale="  191.324">  2  3  1 -1</clus>
</clustering>
</event>
<event>
 6    0  0.3082502E+002  0.7601533E+02  0.7546771E-02  0.1340755E+00
          1   -1    0    0  505    0 -0.00000000000E+00  0.00000000000E+00  0.55985059311E+03  0.55985059311E+03  0.00000000000E+00 0.  1.
         21   -1    0    0  504  502  0.00000000000E+00 -0.00000000000E+00 -0.14015893675E+04  0.14015893675E+04  0.00000000000E+00 0.  1.
         21    1    1    2  503  501 -0.34526185519E+01  0.12116058656E+03 -0.49270170006E+02  0.13084096439E+03  0.00000000000E+00 0.  1.
         21    1    1    2  504  503 -0.42522076365E+02 -0.59690461235E+02 -0.13051652271E+04  0.13072212315E+04  0.00000000000E+00 0.  1.
         21    1    1    2  505  502  0.56955926087E+02 -0.21968785294E+02  0.36614879193E+03  0.37120283252E+03  0.00000000000E+00 0.  1.
          1    1    1    2  501    0 -0.10981231170E+02 -0.39501340033E+02  0.14654783073E+03  0.15217493221E+03  0.00000000000E+00 0.  1.
<scales pt_clust_3="76.01533" pt_clust_4="73.38418" pt_clust_5="14000.00000" pt_clust_6="40.99931"></scales>
<clustering>
<clus scale="   40.999">  1  6  2 -1</clus>
<clus scale="   73.384">  2  4  1 -1</clus>
<clus scale="   76.015">  2  3  1 -1</clus>
<clus scale="   73.384">  2  3  1 -1</clus>
</clustering>
</event>
<event>
 6    0  0.3082502E+002  0.1738638E+03  0.7546771E-02  0.1173877E+00
         21   -1    0    0  503  502  0.00000000000E+00  0.00000000000E+00  0.29635255870E+03  0.29635255870E+03  0.00000000000E+00 0. -1.
          2   -1    0    0  505    0 -0.00000000000E+00 -0.00000000000E+00 -0.14529941525E+04  0.14529941525E+04  0.00000000000E+00 0. -1.
         21    1    1    2  503  501 -0.10516422887E+03  0.75448230867E+02 -0.21944588530E+02  0.13127648510E+03  0.00000000000E+00 0. -1.
         21    1    1    2  504  502  0.14406525517E+03 -0.13614630913E+03  0.19732062777E+03  0.27968919425E+03  0.00000000000E+00 0. -1.
         21    1    1    2  505  504 -0.35708944048E+02 -0.25438103139E+02 -0.49433208146E+03  0.49627253857E+03  0.00000000000E+00 0. -1.
          2    1    1    2  501    0 -0.31920822543E+01  0.86136181397E+02 -0.83768555158E+03  0.84210849328E+03  0.00000000000E+00 0. -1.
<scales pt_clust_3="14000.00000" pt_clust_4="173.86381" pt_clust_5="43.84320" pt_clust_6="72.55852"></scales>
<clustering>
<clus scale="   43.843">  2  5  1 -1</clus>
<clus scale="   72.559">  2  6  1 -1</clus>
<clus scale="  173.864">  1  4  2 -1</clus>
<clus scale="  173.864">  1  3  2 -1</clus>
</clustering>
</event>
<event>
 6    0  0.3082502E+002  0.1420875E+03  0.7546771E-02  0.1210547E+00
         21   -1    0    0  501  502  0.00000000000E+00  0.00000000000E+00  0.26448507825E+03  0.26448507825E+03  0.00000000000E+00 0.  1.
          2   -1    0    0  504    0 -0.00000000000E+00 -0.00000000000E+00 -0.29064093860E+04  0.29064093860E+04  0.00000000000E+00 0. -1.
         21    1    1    2  503  502 -0.28675206512E+02 -0.17004410502E+02  0.36132457217E+02  0.49162708525E+02  0.00000000000E+00 0. -1.
         21    1    1    2  504  505  0.49238805260E+02  0.85219664318E+02 -0.45574264647E+03  0.46624908679E+03  0.00000000000E+00 0.  1.
         21    1    1    2  505  503 -0.26167839431E+02  0.14702085790E+03  0.18545619019E+03  0.23810478147E+03  0.00000000000E+00 0.  1.
          2    1    1    2  501    0  0.56042406830E+01 -0.21523611172E+03 -0.24077703087E+04  0.24173778874E+04  0.00000000000E+00 0. -1.
<scales pt_clust_3="33.33793" pt_clust_4="97.73419" pt_clust_5="142.08754" pt_clust_6="14000.00000"></scales>
<clustering>
<clus scale="   33.338">  1  3  2 -1</clus>
<clus scale="   97.734">  2  4  1 -1</clus>
<clus scale="  142.088">  1  5  2 -1</clus>
<clus scale="   33.338">  1  3  2 -1</clus>
</clustering>
</event>
<event>
 6    0  0.3082502E+002  0.1022071E+03  0.7546771E-02  0.1275722E+00
          2   -1    0    0  505    0 -0.00000000000E+00  0.00000000000E+00  0.13001742570E+04  0.13001742570E+04  0.00000000000E+00 0.  1.
         21   -1    0    0  503  502  0.00000000000E+00 -0.00000000000E+00 -0.30752097375E+02  0.30752097375E+02  0.00000000000E+00 0. -1.
         21    1    1    2  503  504  0.17627816092E+02 -0.37377626975E+02  0.10688553370E+03  0.11459644066E+03  0.00000000000E+00 0. -1.
         21    1    1    2  504  501 -0.34064107589E+02 -0.38276335828E+02  0.14931612977E+03  0.15786306700E+03  0.00000000000E+00 0. -1.
         21    1    1    2  505  502  0.11066452787E+03  0.31524119737E+02  0.15026773394E+03  0.18926383626E+03  0.00000000000E+00 0. -1.
          2    1    1    2  501    0 -0.94228236368E+02  0.44129843066E+02  0.86295276219E+03  0.86920301044E+03  0.00000000000E+00 0.  1.
<scales pt_clust_3="41.32586" pt_clust_4="54.15134" pt_clust_5="102.20708" pt_clust_6="14000.00000"></scales>
<clustering>
<clus scale="   41.326">  2  3  1 -1</clus>
<clus scale="   54.151">  2  4  1 -1</clus>
<clus scale="  102.207">  2  5  1 -1</clus>
<clus scale="   41.326">  2  3  1 -1</clus>
</clustering>
</event>
<event>
 6    0  0.3082502E+002  0.1128271E+03  0.7546771E-02  0.1255422E+00
         21   -1    0    0  503  502  0.00000000000E+00  0.00000000000E+00  0.17157830391E+03  0.17157830391E+03  0.00000000000E+00 0. -1.
         -3   -1    0    0    0  501 -0.00000000000E+00 -0.00000000000E+00 -0.17560758001E+03  0.17560758001E+03  0.00000000000E+00 0.  1.
         21    1    1    2  503  505  0.10781012492E+02  0.13315079740E+03 -0.27468947001E+02  0.13638148015E+03  0.00000000000E+00 0. -1.
         21    1    1    2  504  502  0.97447795622E+01 -0.41355389885E+02  0.58097097979E+02  0.71975702809E+02  0.00000000000E+00 0. -1.
         21    1    1    2  505  501 -0.32702943090E+02  0.77725242070E+01 -0.35221236961E+01  0.33797928555E+02  0.00000000000E+00 0. -1.
         -3    1    1    2    0  504  0.12177151036E+02 -0.99567931724E+02 -0.31135303383E+02  0.10503077240E+03  0.00000000000E+00 0.  1.
<scales pt_clust_3="112.82714" pt_clust_4="41.84296" pt_clust_5="33.61391" pt_clust_6="14000.00000"></scales>
<clustering>
<clus scale="   33.614">  2  5  1 -1</clus>
<clus scale="   41.843">  1  4  2 -1</clus>
<clus scale="  112.827">  1  3  2 -1</clus>
<clus scale="   41.843">  1  3  2 -1</clus>
</clustering>
</event>
<event>
 6    0  0.3082502E+002  0.7928800E+02  0.7546771E-02  0.1331084E+00
         21   -1    0    0  504  502  0.00000000000E+00  0.00000000000E+00  0.20659311807E+03  0.20659311807E+03  0.00000000000E+00 0.  1.
          2   -1    0    0  505    0 -0.00000000000E+00 -0.00000000000E+00 -0.70689341342E+03  0.70689341342E+03  0.00000000000E+00 0.  1.
         21    1    1    2  503  502 -0.23212823061E+02 -0.74380829997E+02  0.51073005658E+02  0.93165417041E+02  0.00000000000E+00 0.  1.
         21    1    1    2  504  501  0.28696069045E+02  0.33201821346E+02  0.10831906449E+03  0.11687106165E+03  0.00000000000E+00 0.  1.
         21    1    1    2  505  503 -0.44851101073E+02 -0.60742703389E+02 -0.52316408388E+03  0.52858486163E+03  0.00000000000E+00 0.  1.
          2    1    1    2  501    0  0.39367855088E+02  0.10192171204E+03 -0.13652828163E+03  0.17486519117E+03  0.00000000000E+00 0.  1.
<scales pt_clust_3="48.92164" pt_clust_4="43.88423" pt_clust_5="79.28800" pt_clust_6="14000.00000"></scales>
<clustering>
<clus scale="   43.884">  1  4  2 -1</clus>
<clus scale="   48.922">  1  3  2 -1</clus>
<clus scale="   79.288">  2  5  1 -1</clus>
<clus scale="   43.884">  1  3  2 -1</clus>
</clustering>
</event>
<event>
 6    0  0.3082502E+002  0.1516366E+03  0.7546771E-02  0.1198476E+00
         21   -1    0    0  503  502  0.00000000000E+00  0.00000000000E+00  0.11666663236E+03  0.11666663236E+03  0.00000000000E+00 0.  1.
          2   -1    0    0  504    0 -0.00000000000E+00 -0.00000000000E+00 -0.49792472267E+03  0.49792472267E+03  0.00000000000E+00 0.  1.
         21    1    1    2  503  505 -0.42038488283E+02  0.53131827047E+00 -0.13746440933E+02  0.44232131246E+02  0.00000000000E+00 0.  1.
         21    1    1    2  504  502  0.18643134648E+02 -0.58228870198E+02 -0.17294927406E+03  0.18343832531E+03  0.00000000000E+00 0.  1.
         21    1    1    2  505  501  0.94042265478E+02 -0.11107370484E+03 -0.50500608695E+02  0.15405072892E+03  0.00000000000E+00 0.  1.
          2    1    1    2  501    0 -0.70646911843E+02  0.16877125677E+03 -0.14406176662E+03  0.23287016955E+03  0.00000000000E+00 0.  1.
<scales pt_clust_3="42.04185" pt_clust_4="60.48671" pt_clust_5="14000.00000" pt_clust_6="151.63656"></scales>
<clustering>
<clus scale="   42.042">  1  3  2 -1</clus>
<clus scale="   60.487">  2  4  1 -1</clus>
<clus scale="  151.637">  2  6  1 -1</clus>
<clus scale="   42.042">  1  3  2 -1</clus>
</clustering>
</event>
<event>
 6    0  0.3082502E+002  0.1539166E+03  0.7546771E-02  0.1195741E+00
          2   -1    0    0  504    0 -0.00000000000E+00  0.00000000000E+00  0.29951958930E+04  0.29951958930E+04  0.00000000000E+00 0.  1.
         21   -1    0    0  503  502  0.00000000000E+00 -0.00000000000E+00 -0.61193455787E+03  0.61193455787E+03  0.00000000000E+00 0.  1.
         21    1    1    2  503  501 -0.36545513178E+02 -0.26275230159E+02 -0.20687939619E+03  0.21171926417E+03  0.00000000000E+00 0.  1.
         21    1    1    2  504  505  0.36404897064E+02  0.48499205240E+02  0.33152575010E+03  0.33702642688E+03  0.00000000000E+00 0. -1.
         21    1    1    2  505  502  0.15735443439E+03 -0.68842060361E+02 -0.37877770383E+03  0.41589926210E+03  0.00000000000E+00 0.  1.
          2    1    1    2  501    0 -0.15721381827E+03  0.46618085279E+02  0.26373926851E+04  0.26424854977E+04  0.00000000000E+00 0.  1.
<scales pt_clust_3="45.01069" pt_clust_4="60.34897" pt_clust_5="14000.00000" pt_clust_6="153.91662"></scales>
<clustering>
<clus scale="   45.011">  2  3  1 -1</clus>
<clus scale="   60.349">  1  4  2 -1</clus>
<clus scale="  153.917">  1  6  2 -1</clus>
<clus scale="   45.011">  2  3  1 -1</clus>
</clustering>
</event>
<event>
 6    0  0.3082502E+002  0.2494875E+03  0.7546771E-02  0.1113629E+00
          1   -1    0    0  504    0 -0.00000000000E+00  0.00000000000E+00  0.81334305554E+03  0.81334305554E+03  0.00000000000E+00 0. -1.
         21   -1    0    0  501  502  0.00000000000E+00 -0.00000000000E+00 -0.36555669513E+03  0.36555669513E+03  0.00000000000E+00 0.  1.
         21    1    1    2  503  502  0.47204305004E+02 -0.11430518249E+03 -0.11514339810E+03  0.16897314366E+03  0.00000000000E+00 0.  1.
         21    1    1    2  504  505  0.17406843366E+03  0.90125562851E+02  0.19849026638E+03  0.27896383730E+03  0.00000000000E+00 0.  1.
         21    1    1    2  505  503  0.55094770258E+02  0.22898451878E+03  0.80640704997E+01  0.23565732066E+03  0.00000000000E+00 0.  1.
          1    1    1    2  501    0 -0.27636750892E+03 -0.20480489914E+03  0.35637542163E+03  0.49530544903E+03  0.00000000000E+00 0. -1.
<scales pt_clust_3="123.66859" pt_clust_4="249.48750" pt_clust_5="188.22567" pt_clust_6="14000.00000"></scales>
<clustering>
<clus scale="  123.669">  2  3  1 -1</clus>
<clus scale="  188.226">  2  5  1 -1</clus>
<clus scale="  249.487">  1  4  2 -1</clus>
<clus scale="  123.669">  2  3  1 -1</clus>
</clustering>
</event>
<event>
 6    0  0.3082502E+002  0.1750341E+03  0.7546771E-02  0.1172697E+00
         21   -1    0    0  505  502  0.00000000000E+00  0.00000000000E+00  0.13297743048E+03  0.13297743048E+03  0.00000000000E+00 0.  1.
          2   -1    0    0  503    0 -0.00000000000E+00 -0.00000000000E+00 -0.15209275922E+04  0.15209275922E+04  0.00000000000E+00 0.  1.
         21    1    1    2  503  502 -0.14589064087E+03  0.40071382456E+02 -0.13532436004E+03  0.20298393337E+03  0.00000000000E+00 0.  1.
         21    1    1    2  504  501 -0.76698778184E+01 -0.39206872920E+02 -0.63347922498E+03  0.63473768944E+03  0.00000000000E+00 0.  1.
         21    1    1    2  505  504  0.19115881245E+03  0.15924378911E+02  0.38185220620E+01  0.19185895478E+03  0.00000000000E+00 0.  1.
          2    1    1    2  501    0 -0.37598293756E+02 -0.16788888447E+02 -0.62296509878E+03  0.62432444512E+03  0.00000000000E+00 0.  1.
<scales pt_clust_3="14000.00000" pt_clust_4="36.86026" pt_clust_5="175.03412" pt_clust_6="81.14875"></scales>
<clustering>
<clus scale="   36.860">  4  6 -1 -1</clus>
<clus scale="   81.149">  2  4  1 -1</clus>
<clus scale="  175.034">  1  5  2 -1</clus>
<clus scale="  175.034">  1  3  2 -1</clus>
</clustering>
</event>
<event>
 6    0  0.3082502E+002  0.7487118E+02  0.7546771E-02  0.1344270E+00
          2   -1    0    0  505    0 -0.00000000000E+00  0.00000000000E+00  0.13546200287E+04  0.13546200287E+04  0.00000000000E+00 0. -1.
         21   -1    0    0  504  502  0.00000000000E+00 -0.00000000000E+00 -0.11686281388E+03  0.11686281388E+03  0.00000000000E+00 0. -1.
         21    1    1    2  503  502  0.61992399622E+02  0.71179277997E+02  0.14342601429E+02  0.95473857379E+02  0.00000000000E+00 0. -1.
         21    1    1    2  504  501  0.75126078857E+01 -0.41552456596E+02 -0.66725403146E+02  0.78964076335E+02  0.00000000000E+00 0. -1.
         21    1    1    2  505  503 -0.56124733621E+01 -0.55478221057E+02  0.35334665637E+03  0.35771943257E+03  0.00000000000E+00 0. -1.
          2    1    1    2  501    0 -0.63892534146E+02  0.25851399657E+02  0.93679336017E+03  0.93932547631E+03  0.00000000000E+00 0. -1.
<scales pt_clust_3="14000.00000" pt_clust_4="42.22613" pt_clust_5="57.78017" pt_clust_6="74.87118"></scales>
<clustering>
<clus scale="   42.226">  2  4  1 -1</clus>
<clus scale="   57.780">  1  5  2 -1</clus>
<clus scale="   74.871">  1  6  2 -1</clus>
<clus scale="   42.226">  2  3  1 -1</clus>
</clustering>
</event>
<event>
 6    0  0.3082502E+002  0.9826285E+02  0.7546771E-02  0.1283992E+00
         21   -1    0    0  505  502  0.00000000000E+00  0.00000000000E+00  0.39892032233E+03  0.39892032233E+03  0.00000000000E+00 0.  1.
          3   -1    0    0  504    0 -0.00000000000E+00 -0.00000000000E+00 -0.96321056968E+02  0.96321056968E+02  0.00000000000E+00 0. -1.
         21    1    1    2  503  502  0.35026289237E+02 -0.10984190467E+03  0.17014503900E+02  0.11654002876E+03  0.00000000000E+00 0. -1.
         21    1    1    2  504  503  0.31051250370E+02 -0.10321164434E+01 -0.53609389252E+01  0.31527528924E+02  0.00000000000E+00 0. -1.
         21    1    1    2  505  501 -0.27465044013E+02  0.91595310112E+02  0.28851359977E+03  0.30394757233E+03  0.00000000000E+00 0.  1.
          3    1    1    2  501    0 -0.38612495593E+02  0.19278711004E+02  0.24321006226E+01  0.43226249286E+02  0.00000000000E+00 0. -1.
<scales pt_clust_3="98.26285" pt_clust_4="31.06840" pt_clust_5="14000.00000" pt_clust_6="35.92119"></scales>
<clustering>
<clus scale="   31.068">  2  4  1 -1</clus>
<clus scale="   35.921">  2  6  1 -1</clus>
<clus scale="   98.263">  2  3  1 -1</clus>
<clus scale="   98.263">  1  3  2 -1</clus>
</clustering>
</event>
<event>
 6    0  0.3082502E+002  0.9217705E+02  0.7546771E-02  0.1297664E+00
         21   -1    0    0  504  502  0.00000000000E+00  0.00000000000E+00  0.11725959300E+04  0.11725959300E+04  0.00000000000E+00 0. -1.
          1   -1    0    0  505    0 -0.00000000000E+00 -0.00000000000E+00 -0.67327043911E+03  0.67327043911E+03  0.00000000000E+00 0.  1.
         21    1    1    2  503  502 -0.28060792361E+02 -0.97325104526E+02  0.10182030627E+04  0.10232287432E+04  0.00000000000E+00 0. -1.
         21    1    1    2  504  501  0.59210287953E+02  0.41895064381E+02  0.13492132044E+03  0.15318230096E+03  0.00000000000E+00 0. -1.
         21    1    1    2  505  503  0.29203471347E+02  0.12446735492E+02 -0.39366979089E+02  0.50571958690E+02  0.00000000000E+00 0.  1.
          1    1    1    2  501    0 -0.60352966939E+02  0.42983304654E+02 -0.61443191317E+03  0.61888336625E+03  0.00000000000E+00 0.  1.
<scales pt_clust_3="92.17705" pt_clust_4="14000.00000" pt_clust_5="31.74530" pt_clust_6="63.64960"></scales>
<clustering>
<clus scale="   31.745">  2  5  1 -1</clus>
<clus scale="   63.650">  2  6  1 -1</clus>
<clus scale="   92.177">  1  3  2 -1</clus>
<clus scale="   92.177">  1  3  2 -1</clus>
</clustering>
</event>
<event>
 6    0  0.3082502E+002  0.1212690E+03  0.7546771E-02  0.1241018E+00
          2   -1    0    0  505    0 -0.00000000000E+00  0.00000000000E+00  0.20702772767E+04  0.20702772767E+04  0.00000000000E+00 0. -1.
         21   -1    0    0  503  502  0.00000000000E+00 -0.00000000000E+00 -0.37642138880E+03  0.37642138880E+03  0.00000000000E+00 0.  1.
         21    1    1    2  503  501 -0.58868690179E+02 -0.51917807301E+02 -0.32044213342E+03  0.32991535622E+03  0.00000000000E+00 0.  1.
         21    1    1    2  504  502 -0.57204866480E+02  0.86241538840E+02  0.33707435261E+02  0.10884020839E+03  0.00000000000E+00 0. -1.
         21    1    1    2  505  504 -0.50412531051E+02  0.66047577658E+02  0.12226104031E+04  0.12254304972E+04  0.00000000000E+00 0. -1.
          2    1    1    2  501    0  0.16648608771E+03 -0.10037130920E+03  0.75798018303E+03  0.78251260372E+03  0.00000000000E+00 0. -1.
<scales pt_clust_3="78.49192" pt_clust_4="14000.00000" pt_clust_5="82.96374" pt_clust_6="121.26899"></scales>
<clustering>
<clus scale="   78.492">  2  3  1 -1</clus>
<clus scale="   82.964">  1  5  2 -1</clus>
<clus scale="  121.269">  1  6  2 -1</clus>
<clus scale="   78.492">  2  3  1 -1</clus>
</clustering>
</event>
<event>
 6    0  0.3082502E+002  0.1459381E+03  0.7546771E-02  0.1205555E+00
         21   -1    0    0  505  502  0.00000000000E+00  0.00000000000E+00  0.67350843681E+03  0.67350843681E+03  0.00000000000E+00 0.  1.
          1   -1    0    0  503    0 -0.00000000000E+00 -0.00000000000E+00 -0.68979789077E+03  0.68979789077E+03  0.00000000000E+00 0.  1.
         21    1    1    2  503  502  0.12788580085E+01  0.98859747019E+02 -0.11639605168E+03  0.15271845306E+03  0.00000000000E+00 0.  1.
         21    1    1    2  504  501  0.41716524706E+02 -0.10228312084E+02 -0.31991407390E+03  0.32278460539E+03  0.00000000000E+00 0. -1.
         21    1    1    2  505  504 -0.96419336775E+02 -0.10372491004E+03  0.64279784453E+03  0.65821319828E+03  0.00000000000E+00 0.  1.
          1    1    1    2  501    0  0.53423954060E+02  0.15093475102E+02 -0.22277717292E+03  0.22959007085E+03  0.00000000000E+00 0.  1.
<scales pt_clust_3="98.86802" pt_clust_4="34.39026" pt_clust_5="140.60339" pt_clust_6="34.39026"></scales>
<clustering>
<clus scale="   34.390">  4  6 -1 -1</clus>
<clus scale="   98.868">  2  3  1 -1</clus>
<clus scale="  140.603">  1  5  2 -1</clus>
<clus scale="  140.603">  1  3  2 -1</clus>
</clustering>
</event>
<event>
 6    0  0.3082502E+002  0.1030004E+03  0.7546771E-02  0.1274110E+00
         21   -1    0    0  504  502  0.00000000000E+00  0.00000000000E+00  0.50928608045E+03  0.50928608045E+03  0.00000000000E+00 0. -1.
          1   -1    0    0  505    0 -0.00000000000E+00 -0.00000000000E+00 -0.12278715031E+04  0.12278715031E+04  0.00000000000E+00 0. -1.
         21    1    1    2  503  502 -0.98052300910E+02 -0.24335982361E+02  0.10702561872E+03  0.14717668570E+03  0.00000000000E+00 0. -1.
         21    1    1    2  504  501  0.16233986792E+03  0.10137826424E+03  0.34965037844E+03  0.39860653823E+03  0.00000000000E+00 0. -1.
         21    1    1    2  505  503  0.28462477311E+02  0.19523261451E+02 -0.70148175451E+02  0.78179516956E+02  0.00000000000E+00 0.  1.
          1    1    1    2  501    0 -0.92750044318E+02 -0.96565543333E+02 -0.11051132444E+04  0.11131948427E+04  0.00000000000E+00 0. -1.
<scales pt_clust_3="100.46489" pt_clust_4="14000.00000" pt_clust_5="34.51478" pt_clust_6="103.00038"></scales>
<clustering>
<clus scale="   34.515">  2  5  1 -1</clus>
<clus scale="  100.465">  1  3  2 -1</clus>
<clus scale="  103.000">  2  6  1 -1</clus>
<clus scale="  100.465">  1  3  2 -1</clus>
</clustering>
</event>
<event>
 6    0  0.3082502E+002  0.8948303E+02  0.7546771E-02  0.1304108E+00
          2   -1    0    0  503    0 -0.00000000000E+00  0.00000000000E+00  0.36576208861E+04  0.36576208861E+04  0.00000000000E+00 0. -1.
         21   -1    0    0  505  502  0.00000000000E+00 -0.00000000000E+00 -0.36474557952E+03  0.36474557952E+03  0.00000000000E+00 0.  1.
         21    1    1    2  503  504 -0.97010799166E+02  0.61697934849E+02  0.42728254446E+03  0.44247949457E+03  0.00000000000E+00 0. -1.
         21    1    1    2  504  502 -0.17549745808E+02 -0.44653818290E+02 -0.33705834172E+03  0.34045599244E+03  0.00000000000E+00 0.  1.
         21    1    1    2  505  501  0.55216965725E+02  0.47551572130E+02  0.56890857847E+02  0.92448012539E+02  0.00000000000E+00 0. -1.
          2    1    1    2  501    0  0.59343579250E+02 -0.64595688689E+02  0.31457602460E+04  0.31469829660E+04  0.00000000000E+00 0. -1.
<scales pt_clust_3="89.48303" pt_clust_4="47.97871" pt_clust_5="46.43652" pt_clust_6="14000.00000"></scales>
<clustering>
<clus scale="   47.979">  2  4  1 -1</clus>
<clus scale="   46.437">  2  5  1 -1</clus>
<clus scale="   89.483">  2  3  1 -1</clus>
<clus scale="   47.979">  2  3  1 -1</clus>
</clustering>
</event>
<event>
 6    0  0.3082502E+002  0.9020926E+02  0.7546771E-02  0.1302346E+00
         21   -1    0    0  504  502  0.00000000000E+00  0.00000000000E+00  0.10088348547E+03  0.10088348547E+03  0.00000000000E+00 0.  1.
          2   -1    0    0  505    0 -0.00000000000E+00 -0.00000000000E+00 -0.12220114173E+04  0.12220114173E+04  0.00000000000E+00 0. -1.
         21    1    1    2  503  502  0.25483620234E+02 -0.15869252943E+02 -0.14349340614E+02  0.33273888641E+02  0.00000000000E+00 0. -1.
         21    1    1    2  504  501 -0.19725103076E+02 -0.73288368656E+02  0.65595755246E+02  0.10031484326E+03  0.00000000000E+00 0.  1.
         21    1    1    2  505  503 -0.36294129668E+02 -0.47267547274E+02 -0.31050887121E+03  0.31617596995E+03  0.00000000000E+00 0. -1.
          2    1    1    2  501    0  0.30535612509E+02  0.13642516887E+03 -0.86186547522E+03  0.87313020089E+03  0.00000000000E+00 0. -1.
<scales pt_clust_3="30.02079" pt_clust_4="90.20926" pt_clust_5="59.51063" pt_clust_6="14000.00000"></scales>
<clustering>
<clus scale="   30.021">  1  3  2 -1</clus>
<clus scale="   59.511">  2  5  1 -1</clus>
<clus scale="   90.209">  1  4  2 -1</clus>
<clus scale="   30.021">  1  3  2 -1</clus>
</clustering>
</event>
<event>
 6    0  0.3082502E+002  0.1380178E+03  0.7546771E-02  0.1216021E+00
         21   -1    0    0  503  502  0.00000000000E+00  0.00000000000E+00  0.62334717776E+03  0.62334717776E+03  0.00000000000E+00 0. -1.
         -1   -1    0    0    0  501 -0.00000000000E+00 -0.00000000000E+00 -0.10824711222E+04  0.10824711222E+04  0.00000000000E+00 0.  1.
         21    1    1    2  503  504  0.17615913311E+02  0.17160530510E+03 -0.14782484041E+03  0.22718029093E+03  0.00000000000E+00 0. -1.
         21    1    1    2  504  501  0.50258935003E+02  0.65647937756E+01 -0.14506916594E+03  0.15366886468E+03  0.00000000000E+00 0. -1.
         21    1    1    2  505  502 -0.34844107138E+02 -0.43270284189E+02  0.57154342068E+03  0.57423715572E+03  0.00000000000E+00 0. -1.
         -1    1    1    2    0  505 -0.33030741176E+02 -0.13489981469E+03 -0.73777335880E+03  0.75073198867E+03  0.00000000000E+00 0.  1.
<scales pt_clust_3="138.01784" pt_clust_4="50.68587" pt_clust_5="55.50278" pt_clust_6="14000.00000"></scales>
<clustering>
<clus scale="   50.686">  2  4  1 -1</clus>
<clus scale="   55.503">  1  5  2 -1</clus>
<clus scale="  138.018">  1  3  2 -1</clus>
<clus scale="   55.503">  1  3  2 -1</clus>
</clustering>
</event>
<event>
 6    0  0.3082502E+002  0.8815393E+02  0.7546771E-02  0.1307385E+00
         21   -1    0    0  505  502  0.00000000000E+00  0.00000000000E+00  0.11779276005E+03  0.11779276005E+03  0.00000000000E+00 0.  1.
         -1   -1    0    0    0  501 -0.00000000000E+00 -0.00000000000E+00 -0.56850522715E+03  0.56850522715E+03  0.00000000000E+00 0. -1.
         21    1    1    2  503  502  0.13166277090E+01  0.38469965507E+02  0.22722636156E+02  0.44698880842E+02  0.00000000000E+00 0.  1.
         21    1    1    2  504  501  0.38379483521E+02  0.10311200709E+02 -0.10102118419E+03  0.10855682969E+03  0.00000000000E+00 0. -1.
         21    1    1    2  505  504  0.82718648919E+02 -0.19867458862E+02  0.45594510063E+02  0.96519169850E+02  0.00000000000E+00 0.  1.
         -1    1    1    2    0  503 -0.12241476015E+03 -0.28913707354E+02 -0.41800842913E+03  0.43652310683E+03  0.00000000000E+00 0. -1.
<scales pt_clust_3="38.49249" pt_clust_4="40.27853" pt_clust_5="88.15393" pt_clust_6="14000.00000"></scales>
<clustering>
<clus scale="   38.492">  1  3  2 -1</clus>
<clus scale="   40.279">  2  4  1 -1</clus>
<clus scale="   88.154">  1  5  2 -1</clus>
<clus scale="   38.492">  1  3  2 -1</clus>
</clustering>
</event>
<event>
 6    0  0.3082502E+002  0.1463316E+03  0.7546771E-02  0.1205055E+00
         21   -1    0    0  504  502  0.00000000000E+00  0.00000000000E+00  0.22024899186E+03  0.22024899186E+03  0.00000000000E+00 0. -1.
          1   -1    0    0  503    0 -0.00000000000E+00 -0.00000000000E+00 -0.95338256244E+03  0.95338256244E+03  0.00000000000E+00 0.  1.
         21    1    1    2  503  505 -0.34029620445E+02  0.18880560188E+02 -0.56427657687E+02  0.68546124418E+02  0.00000000000E+00 0. -1.
         21    1    1    2  504  501 -0.62090334212E+02  0.39455236237E+02  0.11779654924E+02  0.74502923024E+02  0.00000000000E+00 0.  1.
         21    1    1    2  505  502 -0.86267786341E+02 -0.52374604579E+02  0.14538362259E+03  0.17697917358E+03  0.00000000000E+00 0. -1.
          1    1    1    2  501    0  0.18238774100E+03 -0.59611918462E+01 -0.83386919041E+03  0.85360333328E+03  0.00000000000E+00 0.  1.
<scales pt_clust_3="38.91646" pt_clust_4="74.93336" pt_clust_5="146.33157" pt_clust_6="14000.00000"></scales>
<clustering>
<clus scale="   38.916">  2  3  1 -1</clus>
<clus scale="   74.933">  1  4  2 -1</clus>
<clus scale="  146.332">  1  5  2 -1</clus>
<clus scale="   74.933">  1  3  2 -1</clus>
</clustering>
</event>
<event>
 6    0  0.3082502E+002  0.7078433E+02  0.7546771E-02  0.1357446E+00
          1   -1    0    0  504    0 -0.00000000000E+00  0.00000000000E+00  0.11585640167E+04  0.11585640167E+04  0.00000000000E+00 0.  1.
         21   -1    0    0  505  502  0.00000000000E+00 -0.00000000000E+00 -0.46249718435E+03  0.46249718435E+03  0.00000000000E+00 0. -1.
         21    1    1    2  503  502  0.47512119143E+02 -0.49039862266E+02 -0.41632835210E+03  0.42189051461E+03  0.00000000000E+00 0. -1.
         21    1    1    2  504  503 -0.43396677477E+02  0.35753933238E+01  0.19882637074E+03  0.20353864684E+03  0.00000000000E+00 0.  1.
         21    1    1    2  505  501  0.73988846509E+01  0.96522685891E+02  0.17914254275E+02  0.98449443329E+02  0.00000000000E+00 0.  1.
          1    1    1    2  501    0 -0.11514326317E+02 -0.51058216949E+02  0.89565455945E+03  0.89718259630E+03  0.00000000000E+00 0.  1.
<scales pt_clust_3="68.18598" pt_clust_4="43.54371" pt_clust_5="70.78433" pt_clust_6="14000.00000"></scales>
<clustering>
<clus scale="   43.544">  1  4  2 -1</clus>
<clus scale="   68.186">  2  3  1 -1</clus>
<clus scale="   70.784">  2  5  1 -1</clus>
<clus scale="   68.186">  2  3  1 -1</clus>
</clustering>
</event>
<event>
 6    0  0.3082502E+002  0.1291441E+03  0.7546771E-02  0.1228731E+00
         21   -1    0    0  504  502  0.00000000000E+00  0.00000000000E+00  0.25731723162E+03  0.25731723162E+03  0.00000000000E+00 0. -1.
          1   -1    0    0  503    0 -0.00000000000E+00 -0.00000000000E+00 -0.87553524618E+03  0.87553524618E+03  0.00000000000E+00 0.  1.
         21    1    1    2  503  505 -0.27971447360E+02 -0.13697888059E+02 -0.33832037993E+03  0.33975095803E+03  0.00000000000E+00 0.  1.
         21    1    1    2  504  501 -0.40964652476E+02  0.12472050485E+03  0.22404272358E+03  0.25966988480E+03  0.00000000000E+00 0. -1.
         21    1    1    2  505  502  0.52758833926E+02 -0.34554519768E+02 -0.77650183371E+02  0.10003529563E+03  0.00000000000E+00 0. -1.
          1    1    1    2  501    0  0.16177265910E+02 -0.76468097025E+02 -0.42629017483E+03  0.43339633934E+03  0.00000000000E+00 0.  1.
<scales pt_clust_3="31.14537" pt_clust_4="14000.00000" pt_clust_5="60.59798" pt_clust_6="129.14411"></scales>
<clustering>
<clus scale="   31.145">  2  3  1 -1</clus>
<clus scale="   60.598">  2  5  1 -1</clus>
<clus scale="  129.144">  2  6  1 -1</clus>
<clus scale="  129.144">  1  3  2 -1</clus>
</clustering>
</event>
<event>
 6    0  0.3833010E+002  0.1804334E+03  0.7546771E-02  0.1167384E+00
         21   -1    0    0  505  502  0.00000000000E+00  0.00000000000E+00  0.12838754508E+04  0.12838754508E+04  0.00000000000E+00 0.  1.
          2   -1    0    0  503    0 -0.00000000000E+00 -0.00000000000E+00 -0.14165615448E+04  0.14165615448E+04  0.00000000000E+00 0. -1.
         21    1    1    2  503  504  0.71756832634E+02 -0.79331710195E+02 -0.10975955982E+03  0.15326357768E+03  0.00000000000E+00 0.  1.
         21    1    1    2  504  502 -0.17150024786E+03 -0.23790571432E+02  0.10800486678E+04  0.10938388598E+04  0.00000000000E+00 0.  1.
         21    1    1    2  505  501  0.66882096602E+01 -0.51308195514E+02  0.16483639306E+03  0.17276660428E+03  0.00000000000E+00 0. -1.
          2    1    1    2  501    0  0.93055205563E+02  0.15443047714E+03 -0.12678115951E+04  0.12805679538E+04  0.00000000000E+00 0. -1.
<scales pt_clust_3="107.80125" pt_clust_4="180.43342" pt_clust_5="51.74228" pt_clust_6="14000.00000"></scales>
<clustering>
<clus scale="   51.742">  1  5  2 -1</clus>
<clus scale="  107.801">  2  3  1 -1</clus>
<clus scale="  180.433">  1  4  2 -1</clus>
<clus scale="   51.742">  1  3  2 -1</clus>
</clustering>
</event>
<event>
 6    0  0.3082502E+002  0.7343377E+02  0.7546771E-02  0.1348791E+00
         21   -1    0    0  503  502  0.00000000000E+00  0.00000000000E+00  0.10525934846E+04  0.10525934846E+04  0.00000000000E+00 0. -1.
          3   -1    0    0  504    0 -0.00000000000E+00 -0.00000000000E+00 -0.32564513417E+03  0.32564513417E+03  0.00000000000E+00 0.  1.
         21    1    1    2  503  505 -0.31974592561E+02  0.19831346199E+02  0.85539084244E+03  0.85621793382E+03  0.00000000000E+00 0. -1.
         21    1    1    2  504  502 -0.39595382034E+02 -0.22480010654E+02 -0.41835125267E+02  0.61833024053E+02  0.00000000000E+00 0.  1.
         21    1    1    2  505  501  0.97448407865E+02 -0.49552936731E+02  0.16720547452E+03  0.19977326259E+03  0.00000000000E+00 0.  1.
          3    1    1    2  501    0 -0.25878433269E+02  0.52201601187E+02 -0.25381284125E+03  0.26041439833E+03  0.00000000000E+00 0.  1.
<scales pt_clust_3="37.62522" pt_clust_4="46.47745" pt_clust_5="73.43377" pt_clust_6="14000.00000"></scales>
<clustering>
<clus scale="   37.625">  1  3  2 -1</clus>
<clus scale="   46.477">  2  4  1 -1</clus>
<clus scale="   73.434">  1  5  2 -1</clus>
<clus scale="   37.625">  1  3  2 -1</clus>
</clustering>
</event>
<event>
 6    0  0.3082502E+002  0.1618223E+03  0.7546771E-02  0.1186655E+00
         21   -1    0    0  503  502  0.00000000000E+00  0.00000000000E+00  0.39927446115E+02  0.39927446115E+02  0.00000000000E+00 0. -1.
          2   -1    0    0  505    0 -0.00000000000E+00 -0.00000000000E+00 -0.15563814768E+04  0.15563814768E+04  0.00000000000E+00 0.  1.
         21    1    1    2  503  504 -0.49635090131E+02  0.30413641529E+02 -0.54128572762E+02  0.79489207774E+02  0.00000000000E+00 0. -1.
         21    1    1    2  504  501 -0.14541655935E+02  0.70874750706E+02 -0.36599872264E+03  0.37308143215E+03  0.00000000000E+00 0. -1.
         21    1    1    2  505  502  0.12570126717E+03 -0.13873138381E+03 -0.37809094976E+03  0.42190042867E+03  0.00000000000E+00 0. -1.
          2    1    1    2  501    0 -0.61524521101E+02  0.37442991577E+02 -0.71823578556E+03  0.72183785435E+03  0.00000000000E+00 0.  1.
<scales pt_clust_3="58.21196" pt_clust_4="75.02012" pt_clust_5="142.90374" pt_clust_6="75.02012"></scales>
<clustering>
<clus scale="   58.212">  1  3  2 -1</clus>
<clus scale="   75.020">  4  6 -1 -1</clus>
<clus scale="  142.904">  1  5  2 -1</clus>
<clus scale="   58.212">  1  3  2 -1</clus>
</clustering>
</event>
<event>
 6    0  0.3082502E+002  0.4995236E+02  0.7546771E-02  0.1445599E+00
         21   -1    0    0  503  502  0.00000000000E+00  0.00000000000E+00  0.49669303007E+03  0.49669303007E+03  0.00000000000E+00 0.  1.
          1   -1    0    0  504    0 -0.00000000000E+00 -0.00000000000E+00 -0.23016198642E+04  0.23016198642E+04  0.00000000000E+00 0.  1.
         21    1    1    2  503  505  0.17683536743E+02 -0.33754871791E+02  0.83871865814E+02  0.92122682964E+02  0.00000000000E+00 0.  1.
         21    1    1    2  504  502 -0.31780830315E+02  0.80831974035E+02  0.40021410767E+03  0.40953041545E+03  0.00000000000E+00 0.  1.
         21    1    1    2  505  501  0.21716904724E+02 -0.86942374096E+02 -0.55629518937E+03  0.56346689173E+03  0.00000000000E+00 0.  1.
          1    1    1    2  501    0 -0.76196111522E+01  0.39865271853E+02 -0.17327176182E+04  0.17331929041E+04  0.00000000000E+00 0.  1.
<scales pt_clust_3="38.10641" pt_clust_4="49.95236" pt_clust_5="14000.00000" pt_clust_6="40.56572"></scales>
<clustering>
<clus scale="   38.106">  1  3  2 -1</clus>
<clus scale="   40.566">  2  6  1 -1</clus>
<clus scale="   49.952">  1  4  2 -1</clus>
<clus scale="   38.106">  1  3  2 -1</clus>
</clustering>
</event>
<event>
 6    0  0.3082502E+002  0.1518442E+03  0.7546771E-02  0.1198225E+00
         21   -1    0    0  505  502  0.00000000000E+00  0.00000000000E+00  0.26445704933E+03  0.26445704933E+03  0.00000000000E+00 0.  1.
         -3   -1    0    0    0  501 -0.00000000000E+00 -0.00000000000E+00 -0.55157675163E+03  0.55157675163E+03  0.00000000000E+00 0. -1.
         21    1    1    2  503  502  0.43190723180E+02  0.13544918436E+03  0.82499744585E+02  0.16437191965E+03  0.00000000000E+00 0.  1.
         21    1    1    2  504  501  0.47575048963E+01 -0.43528506656E+02 -0.21749934414E+03  0.22186331253E+03  0.00000000000E+00 0. -1.
         21    1    1    2  505  504  0.57732077704E+02 -0.98565743946E+01  0.11611189198E+03  0.13004659286E+03  0.00000000000E+00 0.  1.
         -3    1    1    2    0  503 -0.10568030578E+03 -0.82064103311E+02 -0.26823199472E+03  0.29975197593E+03  0.00000000000E+00 0. -1.
<scales pt_clust_3="151.84425" pt_clust_4="43.78772" pt_clust_5="58.82631" pt_clust_6="14000.00000"></scales>
<clustering>
<clus scale="   43.788">  2  4  1 -1</clus>
<clus scale="   58.826">  1  5  2 -1</clus>
<clus scale="  151.844">  1  3  2 -1</clus>
<clus scale="   58.826">  1  3  2 -1</clus>
</clustering>
</event>
<event>
 6    0  0.3082502E+002  0.2901450E+03  0.7546771E-02  0.1090273E+00
          3   -1    0    0  503    0 -0.00000000000E+00  0.00000000000E+00  0.15902346542E+04  0.15902346542E+04  0.00000000000E+00 0.  1.
         21   -1    0    0  505  502  0.00000000000E+00 -0.00000000000E+00 -0.60967048690E+03  0.60967048690E+03  0.00000000000E+00 0.  1.
         21    1    1    2  503  504 -0.29260789038E+03 -0.13230082575E+03 -0.25485121904E+03  0.40996588864E+03  0.00000000000E+00 0.  1.
         21    1    1    2  504  502  0.19268429874E+02 -0.49462886798E+02 -0.24090982494E+03  0.24668885933E+03  0.00000000000E+00 0.  1.
         21    1    1    2  505  501  0.37863434668E+02  0.14077814778E+02  0.15665885654E+01  0.40426213692E+02  0.00000000000E+00 0.  1.
          3    1    1    2  501    0  0.23547602584E+03  0.16768589777E+03  0.14747586227E+04  0.15028241795E+04  0.00000000000E+00 0.  1.
<scales pt_clust_3="290.14496" pt_clust_4="55.89021" pt_clust_5="40.39585" pt_clust_6="14000.00000"></scales>
<clustering>
<clus scale="   40.396">  2  5  1 -1</clus>
<clus scale="   55.890">  2  4  1 -1</clus>
<clus scale="  290.145">  2  3  1 -1</clus>
<clus scale="   40.396">  2  3  1 -1</clus>
</clustering>
</event>
<event>
 6    0  0.3082502E+002  0.8882715E+02  0.7546771E-02  0.1305717E+00
         21   -1    0    0  501  502  0.00000000000E+00  0.00000000000E+00  0.84662732999E+03  0.84662732999E+03  0.00000000000E+00 0.  1.
          1   -1    0    0  504    0 -0.00000000000E+00 -0.00000000000E+00 -0.18092057092E+03  0.18092057092E+03  0.00000000000E+00 0.  1.
         21    1    1    2  503  502  0.17688008654E+01  0.32991033306E+02  0.31508139089E+03  0.31680880641E+03  0.00000000000E+00 0.  1.
         21    1    1    2  504  505  0.95970351435E+01  0.79069011064E+02  0.39623024461E+01  0.79747798934E+02  0.00000000000E+00 0.  1.
         21    1    1    2  505  503 -0.53162265848E+02 -0.25363023002E+02  0.47048777425E+03  0.47416057951E+03  0.00000000000E+00 0.  1.
          1    1    1    2  501    0  0.41796429839E+02 -0.86697021367E+02 -0.12382470851E+03  0.15683071606E+03  0.00000000000E+00 0.  1.
<scales pt_clust_3="33.03842" pt_clust_4="14000.00000" pt_clust_5="51.74282" pt_clust_6="88.82715"></scales>
<clustering>
<clus scale="   33.038">  1  3  2 -1</clus>
<clus scale="   51.743">  1  5  2 -1</clus>
<clus scale="   88.827">  2  6  1 -1</clus>
<clus scale="   33.038">  1  3  2 -1</clus>
</clustering>
</event>
<event>
 6    0  0.3082502E+002  0.1439123E+03  0.7546771E-02  0.1208160E+00
         -1   -1    0    0    0  501 -0.00000000000E+00  0.00000000000E+00  0.14481588556E+04  0.14481588556E+04  0.00000000000E+00 0. -1.
         21   -1    0    0  505  502  0.00000000000E+00 -0.00000000000E+00 -0.26921401715E+03  0.26921401715E+03  0.00000000000E+00 0. -1.
         21    1    1    2  503  501 -0.43056835981E+02 -0.26298400831E+02  0.97838621088E+02  0.11008130081E+03  0.00000000000E+00 0.  1.
         21    1    1    2  504  502  0.51588335420E+02  0.44232796040E+02 -0.28147904742E+02  0.73554069488E+02  0.00000000000E+00 0. -1.
         21    1    1    2  505  503  0.80638370710E+02  0.22635848469E+02 -0.20207991899E+03  0.21874922200E+03  0.00000000000E+00 0. -1.
         -1    1    1    2    0  504 -0.89169870149E+02 -0.40570243678E+02  0.13113340411E+04  0.13149882804E+04  0.00000000000E+00 0. -1.
<scales pt_clust_3="50.45292" pt_clust_4="67.11406" pt_clust_5="14000.00000" pt_clust_6="143.91231"></scales>
<clustering>
<clus scale="   50.453">  1  3  2 -1</clus>
<clus scale="   67.114">  2  4  1 -1</clus>
<clus scale="  143.912">  1  6  2 -1</clus>
<clus scale="   67.114">  2  3  1 -1</clus>
</clustering>
</event>
<event>
 6    0  0.3082502E+002  0.2300894E+03  0.7546771E-02  0.1126577E+00
          2   -1    0    0  505    0 -0.00000000000E+00  0.00000000000E+00  0.49042655889E+03  0.49042655889E+03  0.00000000000E+00 0. -1.
         21   -1    0    0  501  502  0.00000000000E+00 -0.00000000000E+00 -0.53786957920E+03  0.53786957920E+03  0.00000000000E+00 0. -1.
         21    1    1    2  503  504 -0.20499795704E+03 -0.99163912053E+02 -0.31945071052E+03  0.39230906221E+03  0.00000000000E+00 0. -1.
         21    1    1    2  504  502 -0.20762348342E+02  0.21914162096E+02 -0.13467407171E+03  0.13801598168E+03  0.00000000000E+00 0. -1.
         21    1    1    2  505  503  0.31496208904E+02  0.50764997738E+02  0.21736706461E+03  0.22542745385E+03  0.00000000000E+00 0. -1.
          2    1    1    2  501    0  0.19426409648E+03  0.26484752219E+02  0.18931469730E+03  0.27254364035E+03  0.00000000000E+00 0. -1.
<scales pt_clust_3="230.08941" pt_clust_4="30.18784" pt_clust_5="59.81967" pt_clust_6="14000.00000"></scales>
<clustering>
<clus scale="   30.188">  2  4  1 -1</clus>
<clus scale="   59.820">  1  5  2 -1</clus>
<clus scale="  230.089">  2  3  1 -1</clus>
<clus scale="   30.188">  2  3  1 -1</clus>
</clustering>
</event>
<event>
 6    0  0.3082502E+002  0.1296617E+03  0.7546771E-02  0.1227959E+00
          2   -1    0    0  504    0 -0.00000000000E+00  0.00000000000E+00  0.13309161868E+04  0.13309161868E+04  0.00000000000E+00 0. -1.
         21   -1    0    0  503  502  0.00000000000E+00 -0.00000000000E+00 -0.18113695620E+03  0.18113695620E+03  0.00000000000E+00 0. -1.
         21    1    1    2  503  501 -0.11566262292E+03  0.33505003782E+02 -0.13384374981E+03  0.18004048706E+03  0.00000000000E+00 0. -1.
         21    1    1    2  504  505  0.40442317304E+02  0.23907521528E+02  0.78469564632E+02  0.91458313936E+02  0.00000000000E+00 0. -1.
         21    1    1    2  505  502  0.79999389109E+02 -0.13153609388E+02  0.77937189053E+02  0.11245943773E+03  0.00000000000E+00 0.  1.
          2    1    1    2  501    0 -0.47790834961E+01 -0.44258915922E+02  0.11272162267E+04  0.11280949043E+04  0.00000000000E+00 0. -1.
<scales pt_clust_3="119.64372" pt_clust_4="38.04288" pt_clust_5="38.04288" pt_clust_6="44.51619"></scales>
<clustering>
<clus scale="   38.043">  4  5 -1 -1</clus>
<clus scale="   44.516">  1  6  2 -1</clus>
<clus scale="  119.644">  2  3  1 -1</clus>
<clus scale="  119.644">  2  3  1 -1</clus>
</clustering>
</event>
<event>
 6    0  0.3082502E+002  0.8860329E+02  0.7546771E-02  0.1306270E+00
         21   -1    0    0  505  502  0.00000000000E+00  0.00000000000E+00  0.24867087894E+03  0.24867087894E+03  0.00000000000E+00 0. -1.
          1   -1    0    0  503    0 -0.00000000000E+00 -0.00000000000E+00 -0.72070959496E+03  0.72070959496E+03  0.00000000000E+00 0.  1.
         21    1    1    2  503  504  0.42331333012E+02 -0.77271006235E+00 -0.29032326023E+03  0.29339416195E+03  0.00000000000E+00 0.  1.
         21    1    1    2  504  502  0.31061640316E+02  0.36332403979E+02  0.22069519643E+03  0.22581239737E+03  0.00000000000E+00 0. -1.
         21    1    1    2  505  501 -0.29834906395E+02  0.67155553206E+02 -0.78226583173E+02  0.10732841320E+03  0.00000000000E+00 0. -1.
          1    1    1    2  501    0 -0.43558066933E+02 -0.10271524712E+03 -0.32418406905E+03  0.34284550138E+03  0.00000000000E+00 0.  1.
<scales pt_clust_3="42.33838" pt_clust_4="47.96131" pt_clust_5="88.60329" pt_clust_6="14000.00000"></scales>
<clustering>
<clus scale="   42.338">  2  3  1 -1</clus>
<clus scale="   47.961">  1  4  2 -1</clus>
<clus scale="   88.603">  1  5  2 -1</clus>
<clus scale="   47.961">  1  3  2 -1</clus>
</clustering>
</event>
<event>
 6    0  0.3082502E+002  0.3427802E+03  0.7546771E-02  0.1065618E+00
         21   -1    0    0  505  502  0.00000000000E+00  0.00000000000E+00  0.74877505671E+03  0.74877505671E+03  0.00000000000E+00 0. -1.
          2   -1    0    0  504    0 -0.00000000000E+00 -0.00000000000E+00 -0.14175924582E+04  0.14175924582E+04  0.00000000000E+00 0. -1.
         21    1    1    2  503  502  0.38073000063E+02  0.82007301801E+02  0.50521744513E+03  0.51324401384E+03  0.00000000000E+00 0. -1.
         21    1    1    2  504  503  0.13755314649E+03  0.62923256140E+02 -0.12319219894E+03  0.19508080929E+03  0.00000000000E+00 0. -1.
         21    1    1    2  505  501  0.28247662670E+02  0.16778243834E+03  0.13349668570E+03  0.21626428775E+03  0.00000000000E+00 0. -1.
          2    1    1    2  501    0 -0.20387380922E+03 -0.31271299628E+03 -0.11843393333E+04  0.12417784040E+04  0.00000000000E+00 0. -1.
<scales pt_clust_3="90.41433" pt_clust_4="161.81635" pt_clust_5="14000.00000" pt_clust_6="342.78015"></scales>
<clustering>
<clus scale="   90.414">  1  3  2 -1</clus>
<clus scale="  161.816">  1  4  2 -1</clus>
<clus scale="  342.780">  2  6  1 -1</clus>
<clus scale="   90.414">  1  3  2 -1</clus>
</clustering>
</event>
<event>
 6    0  0.3082502E+002  0.1707939E+03  0.7546771E-02  0.1177022E+00
          2   -1    0    0  505    0 -0.00000000000E+00  0.00000000000E+00  0.26750137572E+04  0.26750137572E+04  0.00000000000E+00 0.  1.
         21   -1    0    0  504  502  0.00000000000E+00 -0.00000000000E+00 -0.18338356285E+03  0.18338356285E+03  0.00000000000E+00 0.  1.
         21    1    1    2  503  502 -0.39546401745E+02  0.31050263905E+02 -0.78928018080E+02  0.93582417246E+02  0.00000000000E+00 0.  1.
         21    1    1    2  504  501  0.65127164863E+01 -0.29705803298E+02 -0.63539423068E+02  0.70442235267E+02  0.00000000000E+00 0.  1.
         21    1    1    2  505  503 -0.12823201515E+03 -0.66271830063E+02  0.16526295216E+03  0.21942481292E+03  0.00000000000E+00 0.  1.
          2    1    1    2  501    0  0.16126570041E+03  0.64927369457E+02  0.24688346833E+04  0.24749478546E+04  0.00000000000E+00 0.  1.
<scales pt_clust_3="35.87662" pt_clust_4="30.41135" pt_clust_5="170.79390" pt_clust_6="14000.00000"></scales>
<clustering>
<clus scale="   30.411">  2  4  1 -1</clus>
<clus scale="   35.877">  2  3  1 -1</clus>
<clus scale="  170.794">  2  5  1 -1</clus>
<clus scale="   30.411">  2  3  1 -1</clus>
</clustering>
</event>
<event>
 6    0  0.4544669E+002  0.8566270E+02  0.7546771E-02  0.1313709E+00
         21   -1    0    0  504  502  0.00000000000E+00  0.00000000000E+00  0.23675828374E+03  0.23675828374E+03  0.00000000000E+00 0. -1.
          2   -1    0    0  505    0 -0.00000000000E+00 -0.00000000000E+00 -0.31167932167E+04  0.31167932167E+04  0.00000000000E+00 0. -1.
         21    1    1    2  503  502 -0.89203907282E+01  0.69120082436E+02 -0.10598248028E+03  0.12684417721E+03  0.00000000000E+00 0.  1.
         21    1    1    2  504  501  0.84011482234E+02 -0.30789010556E+02  0.21202159797E+03  0.23012833447E+03  0.00000000000E+00 0. -1.
         21    1    1    2  505  503  0.34655059358E+02  0.28672177931E+02 -0.12906493787E+03  0.13667781500E+03  0.00000000000E+00 0. -1.
          2    1    1    2  501    0 -0.10974615086E+03 -0.67003249811E+02 -0.28570091128E+04  0.28599011738E+04  0.00000000000E+00 0. -1.
<scales pt_clust_3="70.64526" pt_clust_4="14000.00000" pt_clust_5="44.97852" pt_clust_6="85.66270"></scales>
<clustering>
<clus scale="   44.979">  2  5  1 -1</clus>
<clus scale="   70.645">  1  3  2 -1</clus>
<clus scale="   85.663">  2  6  1 -1</clus>
<clus scale="   70.645">  1  3  2 -1</clus>
</clustering>
</event>
<event>
 6    0  0.3082502E+002  0.8470345E+02  0.7546771E-02  0.1316210E+00
         21   -1    0    0  503  502  0.00000000000E+00  0.00000000000E+00  0.71800475543E+03  0.71800475543E+03  0.00000000000E+00 0.  1.
         -2   -1    0    0    0  501 -0.00000000000E+00 -0.00000000000E+00 -0.66918766983E+03  0.66918766983E+03  0.00000000000E+00 0.  1.
         21    1    1    2  503  505 -0.30464855448E+02  0.15447818273E+02  0.44243636748E+03  0.44375295129E+03  0.00000000000E+00 0.  1.
         21    1    1    2  504  501 -0.33143602487E+02 -0.44688542537E+02 -0.57332898972E+02  0.79891335728E+02  0.00000000000E+00 0. -1.
         21    1    1    2  505  504 -0.55159986158E+02 -0.42246567403E+01  0.25428010523E+03  0.26022844524E+03  0.00000000000E+00 0.  1.
         -2    1    1    2    0  502  0.11876844409E+03  0.33465381005E+02 -0.59056648814E+03  0.60331969299E+03  0.00000000000E+00 0.  1.
<scales pt_clust_3="34.15761" pt_clust_4="55.89039" pt_clust_5="14000.00000" pt_clust_6="84.70345"></scales>
<clustering>
<clus scale="   34.158">  1  3  2 -1</clus>
<clus scale="   55.890">  2  4  1 -1</clus>
<clus scale="   84.703">  2  6  1 -1</clus>
<clus scale="   34.158">  1  3  2 -1</clus>
</clustering>
</event>
<event>
 6    0  0.3082502E+002  0.1777777E+03  0.7546771E-02  0.1169971E+00
         21   -1    0    0  501  502  0.00000000000E+00  0.00000000000E+00  0.66032606475E+03  0.66032606475E+03  0.00000000000E+00 0.  1.
          1   -1    0    0  504    0 -0.00000000000E+00 -0.00000000000E+00 -0.13760372215E+04  0.13760372215E+04  0.00000000000E+00 0.  1.
         21    1    1    2  503  505 -0.92992320776E+02  0.24405022358E+01  0.72360145073E+02  0.11785380083E+03  0.00000000000E+00 0.  1.
         21    1    1    2  504  503 -0.10000489893E+03  0.85408435846E+02 -0.74502388725E+02  0.15114955061E+03  0.00000000000E+00 0.  1.
         21    1    1    2  505  502  0.46540442687E+02  0.27205021206E+02  0.51849944477E+03  0.52129435084E+03  0.00000000000E+00 0.  1.
          1    1    1    2  501    0  0.14645677702E+03 -0.11505395929E+03 -0.12320683578E+04  0.12460655839E+04  0.00000000000E+00 0.  1.
<scales pt_clust_3="64.91699" pt_clust_4="177.77775" pt_clust_5="53.90850" pt_clust_6="14000.00000"></scales>
<clustering>
<clus scale="   53.908">  1  5  2 -1</clus>
<clus scale="   64.917">  1  3  2 -1</clus>
<clus scale="  177.778">  1  4  2 -1</clus>
<clus scale="   53.908">  1  3  2 -1</clus>
</clustering>
</event>
<event>
 6    0  0.3082502E+002  0.1677851E+03  0.7546771E-02  0.1180178E+00
         21   -1    0    0  503  502  0.00000000000E+00  0.00000000000E+00  0.88982535776E+03  0.88982535776E+03  0.00000000000E+00 0. -1.
         -2   -1    0    0    0  501 -0.00000000000E+00 -0.00000000000E+00 -0.30531492081E+03  0.30531492081E+03  0.00000000000E+00 0. -1.
         21    1    1    2  503  501  0.14086618981E+03 -0.13528643066E+03  0.59225883732E+03  0.62363148745E+03  0.00000000000E+00 0. -1.
         21    1    1    2  504  502 -0.77375448142E+02  0.11559478978E+03  0.25939941137E+03  0.29434192705E+03  0.00000000000E+00 0.  1.
         21    1    1    2  505  504 -0.29298594257E+02  0.14294425008E+02 -0.72874600665E+02  0.79833862701E+02  0.00000000000E+00 0.  1.
         -2    1    1    2    0  505 -0.34192147408E+02  0.53972158735E+01 -0.19427321108E+03  0.19733300137E+03  0.00000000000E+00 0. -1.
<scales pt_clust_3="167.78507" pt_clust_4="14000.00000" pt_clust_5="31.21582" pt_clust_6="73.84793"></scales>
<clustering>
<clus scale="   31.216">  5  6 -1 -1</clus>
<clus scale="   73.848">  2  5  1 -1</clus>
<clus scale="  167.785">  1  3  2 -1</clus>
<clus scale="  167.785">  1  3  2 -1</clus>
</clustering>
</event>
<event>
 6    0  0.3082502E+002  0.9237387E+02  0.7546771E-02  0.1297203E+00
          2   -1    0    0  504    0 -0.00000000000E+00  0.00000000000E+00  0.25071041491E+04  0.25071041491E+04  0.00000000000E+00 0.  1.
         21   -1    0    0  505  502  0.00000000000E+00 -0.00000000000E+00 -0.54128758875E+02  0.54128758875E+02  0.00000000000E+00 0. -1.
         21    1    1    2  503  502  0.75206101945E+02 -0.24149325880E+02  0.95794454135E+02  0.12416007874E+03  0.00000000000E+00 0. -1.
         21    1    1    2  504  503  0.44996254271E+02 -0.27836158817E+02  0.24216206985E+03  0.24787493361E+03  0.00000000000E+00 0.  1.
         21    1    1    2  505  501 -0.23206389539E+02 -0.56744547852E+02 -0.74286274480E+01  0.61754876181E+02  0.00000000000E+00 0. -1.
          2    1    1    2  501    0 -0.96995966677E+02  0.10873003255E+03  0.21224474937E+04  0.21274430194E+04  0.00000000000E+00 0.  1.
<scales pt_clust_3="92.37387" pt_clust_4="52.91044" pt_clust_5="61.41450" pt_clust_6="14000.00000"></scales>
<clustering>
<clus scale="   52.910">  1  4  2 -1</clus>
<clus scale="   61.415">  2  5  1 -1</clus>
<clus scale="   92.374">  2  3  1 -1</clus>
<clus scale="   61.415">  2  3  1 -1</clus>
</clustering>
</event>
<event>
 6    0  0.3082502E+002  0.9256988E+02  0.7546771E-02  0.1296745E+00
          1   -1    0    0  503    0 -0.00000000000E+00  0.00000000000E+00  0.33506444406E+04  0.33506444406E+04  0.00000000000E+00 0.  1.
         21   -1    0    0  504  502  0.00000000000E+00 -0.00000000000E+00 -0.25681813532E+02  0.25681813532E+02  0.00000000000E+00 0. -1.
         21    1    1    2  503  505 -0.38041968801E+01 -0.45681802341E+02  0.64808996134E+03  0.64970908641E+03  0.00000000000E+00 0.  1.
         21    1    1    2  504  501 -0.28568648163E+02  0.37234368967E+02  0.57260340275E+02  0.74035886290E+02  0.00000000000E+00 0.  1.
         21    1    1    2  505  502  0.89270392150E+02 -0.95497694523E+02  0.26998955210E+03  0.29997228342E+03  0.00000000000E+00 0. -1.
          1    1    1    2  501    0 -0.56897547107E+02  0.10394512790E+03  0.23496227734E+04  0.23526089980E+04  0.00000000000E+00 0.  1.
<scales pt_clust_3="45.83993" pt_clust_4="46.11321" pt_clust_5="14000.00000" pt_clust_6="92.56988"></scales>
<clustering>
<clus scale="   45.840">  1  3  2 -1</clus>
<clus scale="   46.113">  2  4  1 -1</clus>
<clus scale="   92.570">  1  6  2 -1</clus>
<clus scale="   46.113">  2  3  1 -1</clus>
</clustering>
</event>
<event>
 6    0  0.3082502E+002  0.3212111E+03  0.7546771E-02  0.1075093E+00
          1   -1    0    0  504    0 -0.00000000000E+00  0.00000000000E+00  0.17445848608E+03  0.17445848608E+03  0.00000000000E+00 0. -1.
         21   -1    0    0  501  502  0.00000000000E+00 -0.00000000000E+00 -0.20162317368E+04  0.20162317368E+04  0.00000000000E+00 0.  1.
         21    1    1    2  503  505  0.33401175757E+02  0.96624284946E+02 -0.49677965236E+03  0.50719021479E+03  0.00000000000E+00 0.  1.
         21    1    1    2  504  503  0.16487641246E+03  0.84682248119E+02 -0.88548012131E+03  0.90467140983E+03  0.00000000000E+00 0.  1.
         21    1    1    2  505  502 -0.66457560060E+02  0.99887832177E+02 -0.45255880151E+03  0.46819189990E+03  0.00000000000E+00 0.  1.
          1    1    1    2  501    0 -0.13182002816E+03 -0.28119436524E+03 -0.69546755725E+01  0.31063669838E+03  0.00000000000E+00 0. -1.
<scales pt_clust_3="76.19271" pt_clust_4="76.19271" pt_clust_5="119.97577" pt_clust_6="304.38707"></scales>
<clustering>
<clus scale="   76.193">  3  4 -1 -1</clus>
<clus scale="  119.976">  2  5  1 -1</clus>
<clus scale="  304.387">  1  6  2 -1</clus>
<clus scale="  119.976">  2  3  1 -1</clus>
</clustering>
</event>
<event>
 6    0  0.3082502E+002  0.3229681E+03  0.7546771E-02  0.1074291E+00
         21   -1    0    0  504  502  0.00000000000E+00  0.00000000000E+00  0.86586234041E+03  0.86586234041E+03  0.00000000000E+00 0. -1.
         -2   -1    0    0    0  501 -0.00000000000E+00 -0.00000000000E+00 -0.48738030536E+03  0.48738030536E+03  0.00000000000E+00 0.  1.
         21    1    1    2  503  502 -0.11766823074E+03 -0.31907756706E+03  0.61210849118E+03  0.70023789622E+03  0.00000000000E+00 0. -1.
         21    1    1    2  504  505  0.10618370355E+03  0.26108717336E+03  0.80948994842E+02  0.29324772934E+03  0.00000000000E+00 0. -1.
         21    1    1    2  505  501 -0.55692331317E+02 -0.23174472061E+02 -0.17345791148E+03  0.18364732228E+03  0.00000000000E+00 0.  1.
         -2    1    1    2    0  503  0.67176858510E+02  0.81164865760E+02 -0.14111753950E+03  0.17610969793E+03  0.00000000000E+00 0.  1.
<scales pt_clust_3="322.96809" pt_clust_4="14000.00000" pt_clust_5="60.32157" pt_clust_6="79.27921"></scales>
<clustering>
<clus scale="   60.322">  2  5  1 -1</clus>
<clus scale="   79.279">  2  6  1 -1</clus>
<clus scale="  322.968">  1  3  2 -1</clus>
<clus scale="  322.968">  1  3  2 -1</clus>
</clustering>
</event>
<event>
 6    0  0.3082502E+002  0.8283233E+02  0.7546771E-02  0.1321201E+00
          1   -1    0    0  504    0 -0.00000000000E+00  0.00000000000E+00  0.10507119510E+04  0.10507119510E+04  0.00000000000E+00 0. -1.
         21   -1    0    0  503  502  0.00000000000E+00 -0.00000000000E+00 -0.14412430332E+03  0.14412430332E+03  0.00000000000E+00 0.  1.
         21    1    1    2  503  501  0.32069628631E+02 -0.77342464990E+02  0.12304023317E+03  0.14882612993E+03  0.00000000000E+00 0. -1.
         21    1    1    2  504  505 -0.14234048707E+02 -0.26551181340E+02  0.36421216510E+03  0.36545598173E+03  0.00000000000E+00 0. -1.
         21    1    1    2  505  502 -0.84229998003E+02  0.18868233592E+02 -0.11029106172E+03  0.14005292249E+03  0.00000000000E+00 0.  1.
          1    1    1    2  501    0  0.66394418079E+02  0.85025412738E+02  0.52962631109E+03  0.54050122013E+03  0.00000000000E+00 0. -1.
<scales pt_clust_3="14000.00000" pt_clust_4="30.12596" pt_clust_5="82.83233" pt_clust_6="84.81213"></scales>
<clustering>
<clus scale="   30.126">  1  4  2 -1</clus>
<clus scale="   84.812">  1  6  2 -1</clus>
<clus scale="   82.832">  2  5  1 -1</clus>
<clus scale="   82.832">  2  3  1 -1</clus>
</clustering>
</event>
<event>
 6    0  0.3082502E+002  0.1891879E+03  0.7546771E-02  0.1159196E+00
          2   -1    0    0  505    0 -0.00000000000E+00  0.00000000000E+00  0.52950244767E+03  0.52950244767E+03  0.00000000000E+00 0. -1.
         21   -1    0    0  501  502  0.00000000000E+00 -0.00000000000E+00 -0.20865619992E+03  0.20865619992E+03  0.00000000000E+00 0. -1.
         21    1    1    2  503  504  0.11296318276E+03 -0.29625479131E+02 -0.58535615953E+02  0.13063218595E+03  0.00000000000E+00 0.  1.
         21    1    1    2  504  502  0.54314865377E+02  0.35325034412E+02 -0.70156776610E+02  0.95498355805E+02  0.00000000000E+00 0. -1.
         21    1    1    2  505  503  0.35785142973E+02 -0.14047331146E+02  0.44105428149E+02  0.58508057241E+02  0.00000000000E+00 0. -1.
          2    1    1    2  501    0 -0.20306319110E+03  0.83477758652E+01  0.40543321217E+03  0.45352004859E+03  0.00000000000E+00 0. -1.
<scales pt_clust_3="59.86711" pt_clust_4="59.86711" pt_clust_5="38.44352" pt_clust_6="170.97716"></scales>
<clustering>
<clus scale="   38.444">  1  5  2 -1</clus>
<clus scale="   59.867">  3  4 -1 -1</clus>
<clus scale="  170.977">  1  6  2 -1</clus>
<clus scale="  189.188">  2  3  1 -1</clus>
</clustering>
</event>
<event>
 6    0  0.3082502E+002  0.6611141E+02  0.7546771E-02  0.1373839E+00
         21   -1    0    0  504  502  0.00000000000E+00  0.00000000000E+00  0.78315413864E+03  0.78315413864E+03  0.00000000000E+00 0. -1.
          2   -1    0    0  505    0 -0.00000000000E+00 -0.00000000000E+00 -0.26370934916E+03  0.26370934916E+03  0.00000000000E+00 0.  1.
         21    1    1    2  503  502 -0.41804389008E+02  0.69788514287E+01  0.50285862514E+03  0.50464156407E+03  0.00000000000E+00 0. -1.
         21    1    1    2  504  501 -0.54594057508E+02  0.40105864130E+02 -0.15730769289E+03  0.17127376242E+03  0.00000000000E+00 0.  1.
         21    1    1    2  505  503  0.10651768648E+03 -0.66246093027E+01  0.25682695147E+03  0.27811865450E+03  0.00000000000E+00 0. -1.
          2    1    1    2  501    0 -0.10119239966E+02 -0.40460106256E+02 -0.82933094240E+02  0.92829506817E+02  0.00000000000E+00 0.  1.
<scales pt_clust_3="42.40026" pt_clust_4="14000.00000" pt_clust_5="66.11141" pt_clust_6="41.70635"></scales>
<clustering>
<clus scale="   41.706">  2  6  1 -1</clus>
<clus scale="   42.400">  1  3  2 -1</clus>
<clus scale="   66.111">  1  5  2 -1</clus>
<clus scale="   42.400">  1  3  2 -1</clus>
</clustering>
</event>
<event>
 6    0  0.3082502E+002  0.4037506E+03  0.7546771E-02  0.1042489E+00
          2   -1    0    0  504    0 -0.00000000000E+00  0.00000000000E+00  0.18720640413E+04  0.18720640413E+04  0.00000000000E+00 0. -1.
         21   -1    0    0  503  502  0.00000000000E+00 -0.00000000000E+00 -0.13556128788E+04  0.13556128788E+04  0.00000000000E+00 0. -1.
         21    1    1    2  503  501  0.22351481016E+03  0.36397021141E+03 -0.86046588329E+03  0.96064286885E+03  0.00000000000E+00 0. -1.
         21    1    1    2  504  505  0.46671271021E+02 -0.26758961734E+01  0.83661266963E+03  0.83791773280E+03  0.00000000000E+00 0.  1.
         21    1    1    2  505  502 -0.86615439857E+02  0.14303935692E+02 -0.39499728987E+03  0.40463526293E+03  0.00000000000E+00 0. -1.
          2    1    1    2  501    0 -0.18357064132E+03 -0.37559825093E+03  0.93530166607E+03  0.10244810555E+04  0.00000000000E+00 0. -1.
<scales pt_clust_3="14000.00000" pt_clust_4="46.74792" pt_clust_5="87.57212" pt_clust_6="403.75063"></scales>
<clustering>
<clus scale="   46.748">  1  4  2 -1</clus>
<clus scale="   87.572">  2  5  1 -1</clus>
<clus scale="  403.751">  1  6  2 -1</clus>
<clus scale="   87.572">  2  3  1 -1</clus>
</clustering>
</event>
<event>
 6    0  0.3082502E+002  0.1247684E+03  0.7546771E-02  0.1235432E+00
         21   -1    0    0  504  502  0.00000000000E+00  0.00000000000E+00  0.16844071073E+04  0.16844071073E+04  0.00000000000E+00 0. -1.
          1   -1    0    0  505    0 -0.00000000000E+00 -0.00000000000E+00 -0.17576149624E+03  0.17576149624E+03  0.00000000000E+00 0.  1.
         21    1    1    2  503  501  0.89278048803E+02 -0.66342325896E+00  0.61277788200E+02  0.10828655251E+03  0.00000000000E+00 0. -1.
         21    1    1    2  504  503 -0.27321415957E+02  0.14538411601E+02  0.14149705134E+04  0.14153089342E+04  0.00000000000E+00 0. -1.
         21    1    1    2  505  502 -0.13056775076E+03 -0.10769620435E+03  0.10533284490E+03  0.19935249732E+03  0.00000000000E+00 0. -1.
          1    1    1    2  501    0  0.68611117915E+02  0.93821216010E+02 -0.72935535528E+02  0.13722061951E+03  0.00000000000E+00 0.  1.
<scales pt_clust_3="80.77046" pt_clust_4="30.94875" pt_clust_5="124.76835" pt_clust_6="14000.00000"></scales>
<clustering>
<clus scale="   30.949">  1  4  2 -1</clus>
<clus scale="   80.770">  1  3  2 -1</clus>
<clus scale="  124.768">  1  5  2 -1</clus>
<clus scale="   30.949">  1  3  2 -1</clus>
</clustering>
</event>
<event>
 6    0  0.3082502E+002  0.9727961E+02  0.7546771E-02  0.1286123E+00
         21   -1    0    0  503  502  0.00000000000E+00  0.00000000000E+00  0.48188992558E+02  0.48188992558E+02  0.00000000000E+00 0. -1.
          1   -1    0    0  505    0 -0.00000000000E+00 -0.00000000000E+00 -0.23774128146E+04  0.23774128146E+04  0.00000000000E+00 0. -1.
         21    1    1    2  503  501  0.44112848550E+02 -0.51689096723E+02 -0.50591117501E+02  0.84718163916E+02  0.00000000000E+00 0. -1.
         21    1    1    2  504  502 -0.68794915612E+02 -0.42708480488E+02 -0.32376180153E+02  0.87206489213E+02  0.00000000000E+00 0. -1.
         21    1    1    2  505  504 -0.23627753814E+02 -0.36336949153E+02 -0.51968656159E+03  0.52149090780E+03  0.00000000000E+00 0. -1.
          1    1    1    2  501    0  0.48309820875E+02  0.13073452636E+03 -0.17265699628E+04  0.17321862462E+04  0.00000000000E+00 0. -1.
<scales pt_clust_3="68.41868" pt_clust_4="97.27961" pt_clust_5="43.34333" pt_clust_6="14000.00000"></scales>
<clustering>
<clus scale="   43.343">  2  5  1 -1</clus>
<clus scale="   68.419">  1  3  2 -1</clus>
<clus scale="   97.280">  1  4  2 -1</clus>
<clus scale="   68.419">  1  3  2 -1</clus>
</clustering>
</event>
<event>
 6    0  0.3082502E+002  0.1169503E+03  0.7546771E-02  0.1248215E+00
          2   -1    0    0  504    0 -0.00000000000E+00  0.00000000000E+00  0.29600013089E+04  0.29600013089E+04  0.00000000000E+00 0. -1.
         21   -1    0    0  505  502  0.00000000000E+00 -0.00000000000E+00 -0.67815640243E+02  0.67815640243E+02  0.00000000000E+00 0.  1.
         21    1    1    2  503  502  0.65135256356E+02  0.85969397456E+02  0.54207465157E+02  0.12071366202E+03  0.00000000000E+00 0.  1.
         21    1    1    2  504  503  0.29589837881E+02  0.73968393987E+02  0.33807715205E+03  0.34733707340E+03  0.00000000000E+00 0.  1.
         21    1    1    2  505  501 -0.46186465450E+02 -0.38559925703E+02  0.38452754108E+01  0.60289664155E+02  0.00000000000E+00 0. -1.
          2    1    1    2  501    0 -0.48538628786E+02 -0.12137786574E+03  0.24960557760E+04  0.24994765495E+04  0.00000000000E+00 0. -1.
<scales pt_clust_3="59.71041" pt_clust_4="116.95033" pt_clust_5="60.16691" pt_clust_6="14000.00000"></scales>
<clustering>
<clus scale="   60.167">  2  5  1 -1</clus>
<clus scale="   59.710">  2  3  1 -1</clus>
<clus scale="  116.950">  2  4  1 -1</clus>
<clus scale="   60.167">  2  3  1 -1</clus>
</clustering>
</event>
<event>
 6    0  0.3082502E+002  0.9068848E+02  0.7546771E-02  0.1301193E+00
          2   -1    0    0  504    0 -0.00000000000E+00  0.00000000000E+00  0.30388735513E+03  0.30388735513E+03  0.00000000000E+00 0. -1.
         21   -1    0    0  503  502  0.00000000000E+00 -0.00000000000E+00 -0.64108473962E+03  0.64108473962E+03  0.00000000000E+00 0.  1.
         21    1    1    2  503  501  0.53626775282E+02  0.17304553601E+02 -0.21089289317E+03  0.21829129848E+03  0.00000000000E+00 0.  1.
         21    1    1    2  504  505  0.46813699350E+02 -0.21923467248E+01  0.67725252935E+01  0.47351831325E+02  0.00000000000E+00 0. -1.
         21    1    1    2  505  502  0.39770552420E+02 -0.26324469018E+01 -0.38697403391E+03  0.38902124561E+03  0.00000000000E+00 0.  1.
          2    1    1    2  501    0 -0.14021102705E+03 -0.12479759974E+02  0.25389701729E+03  0.29030771933E+03  0.00000000000E+00 0. -1.
<scales pt_clust_3="90.68848" pt_clust_4="50.05978" pt_clust_5="39.85758" pt_clust_6="14000.00000"></scales>
<clustering>
<clus scale="   39.858">  2  5  1 -1</clus>
<clus scale="   50.060">  1  4  2 -1</clus>
<clus scale="   90.688">  2  3  1 -1</clus>
<clus scale="   39.858">  2  3  1 -1</clus>
</clustering>
</event>
<event>
 6    0  0.3082502E+002  0.1445301E+03  0.7546771E-02  0.1207360E+00
         21   -1    0    0  505  502  0.00000000000E+00  0.00000000000E+00  0.26938269135E+03  0.26938269135E+03  0.00000000000E+00 0. -1.
          2   -1    0    0  504    0 -0.00000000000E+00 -0.00000000000E+00 -0.13460026582E+04  0.13460026582E+04  0.00000000000E+00 0.  1.
         21    1    1    2  503  502  0.36382110918E+02 -0.10126458388E+02  0.49409963414E+02  0.62189610378E+02  0.00000000000E+00 0. -1.
         21    1    1    2  504  503  0.45425505255E+02  0.12307388788E+03  0.18908420692E+03  0.23013799276E+03  0.00000000000E+00 0. -1.
         21    1    1    2  505  501 -0.32583627395E+02 -0.47515832820E+02 -0.37699155436E+03  0.38136869196E+03  0.00000000000E+00 0. -1.
          2    1    1    2  501    0 -0.49223988779E+02 -0.65431596675E+02 -0.93812258286E+03  0.94168905451E+03  0.00000000000E+00 0.  1.
<scales pt_clust_3="37.76510" pt_clust_4="139.21905" pt_clust_5="32.56376" pt_clust_6="32.56376"></scales>
<clustering>
<clus scale="   32.564">  5  6 -1 -1</clus>
<clus scale="   37.765">  1  3  2 -1</clus>
<clus scale="  139.219">  1  4  2 -1</clus>
<clus scale="   37.765">  1  3  2 -1</clus>
</clustering>
</event>
<event>
 6    0  0.3082502E+002  0.1358992E+03  0.7546771E-02  0.1218956E+00
         21   -1    0    0  504  502  0.00000000000E+00  0.00000000000E+00  0.13546179673E+04  0.13546179673E+04  0.00000000000E+00 0. -1.
          2   -1    0    0  505    0 -0.00000000000E+00 -0.00000000000E+00 -0.16172019651E+03  0.16172019651E+03  0.00000000000E+00 0.  1.
         21    1    1    2  503  501  0.89193972791E+02 -0.12718231522E+02  0.11791788195E+03  0.14839792815E+03  0.00000000000E+00 0. -1.
         21    1    1    2  504  503  0.81536776963E+02  0.10683115147E+02  0.10111057754E+04  0.10144443129E+04  0.00000000000E+00 0. -1.
         21    1    1    2  505  502 -0.27089286420E+02  0.56079880245E+02  0.16048585394E+03  0.17214671569E+03  0.00000000000E+00 0. -1.
          2    1    1    2  501    0 -0.14364146333E+03 -0.54044763870E+02 -0.96611740517E+02  0.18134920705E+03  0.00000000000E+00 0.  1.
<scales pt_clust_3="14000.00000" pt_clust_4="82.68074" pt_clust_5="62.27987" pt_clust_6="135.89925"></scales>
<clustering>
<clus scale="   62.280">  1  5  2 -1</clus>
<clus scale="   82.681">  1  4  2 -1</clus>
<clus scale="  135.899">  2  6  1 -1</clus>
<clus scale="   62.280">  1  3  2 -1</clus>
</clustering>
</event>
<event>
 6    0  0.3082502E+002  0.1386317E+03  0.7546771E-02  0.1215182E+00
         21   -1    0    0  503  502  0.00000000000E+00  0.00000000000E+00  0.10863562401E+04  0.10863562401E+04  0.00000000000E+00 0. -1.
         -4   -1    0    0    0  501 -0.00000000000E+00 -0.00000000000E+00 -0.15622952017E+03  0.15622952017E+03  0.00000000000E+00 0.  1.
         21    1    1    2  503  504  0.25947848277E+02  0.32025735527E+02  0.62917024769E+03  0.63051894432E+03  0.00000000000E+00 0. -1.
         21    1    1    2  504  505  0.33141064160E+02  0.10232457725E+03  0.28406528928E+03  0.30374617334E+03  0.00000000000E+00 0. -1.
         21    1    1    2  505  501 -0.83205710717E+02  0.65758901054E+02  0.11691344881E+02  0.10669634909E+03  0.00000000000E+00 0. -1.
         -4    1    1    2    0  502  0.24116798280E+02 -0.20010921383E+03  0.51998380736E+01  0.20162429351E+03  0.00000000000E+00 0.  1.
<scales pt_clust_3="41.21818" pt_clust_4="138.63169" pt_clust_5="106.12368" pt_clust_6="14000.00000"></scales>
<clustering>
<clus scale="   41.218">  1  3  2 -1</clus>
<clus scale="  106.124">  2  5  1 -1</clus>
<clus scale="  138.632">  1  4  2 -1</clus>
<clus scale="   41.218">  1  3  2 -1</clus>
</clustering>
</event>
<event>
 6    0  0.3082502E+002  0.7829486E+02  0.7546771E-02  0.1333961E+00
         21   -1    0    0  503  502  0.00000000000E+00  0.00000000000E+00  0.56554566519E+03  0.56554566519E+03  0.00000000000E+00 0. -1.
          2   -1    0    0  505    0 -0.00000000000E+00 -0.00000000000E+00 -0.84376634655E+02  0.84376634655E+02  0.00000000000E+00 0.  1.
         21    1    1    2  503  501 -0.22850185901E+02  0.25904501340E+02  0.42130421624E+02  0.54480699442E+02  0.00000000000E+00 0.  1.
         21    1    1    2  504  502 -0.48337916767E+02 -0.58745186873E+02  0.42171810838E+03  0.42852504491E+03  0.00000000000E+00 0. -1.
         21    1    1    2  505  504 -0.32502791282E+02  0.51069086714E+02  0.23893991542E+01  0.60582111941E+02  0.00000000000E+00 0.  1.
          2    1    1    2  501    0  0.10369089395E+03 -0.18228401181E+02  0.14931101376E+02  0.10633444355E+03  0.00000000000E+00 0.  1.
<scales pt_clust_3="34.54235" pt_clust_4="14000.00000" pt_clust_5="62.61296" pt_clust_6="78.29486"></scales>
<clustering>
<clus scale="   34.542">  1  3  2 -1</clus>
<clus scale="   62.613">  2  5  1 -1</clus>
<clus scale="   78.295">  2  6  1 -1</clus>
<clus scale="   34.542">  1  3  2 -1</clus>
</clustering>
</event>
<event>
 6    0  0.3082502E+002  0.1341534E+03  0.7546771E-02  0.1221420E+00
          2   -1    0    0  505    0 -0.00000000000E+00  0.00000000000E+00  0.20179902437E+04  0.20179902437E+04  0.00000000000E+00 0. -1.
         21   -1    0    0  503  502  0.00000000000E+00 -0.00000000000E+00 -0.15810108511E+03  0.15810108511E+03  0.00000000000E+00 0. -1.
         21    1    1    2  503  501  0.18002941845E+03 -0.15283901480E+02 -0.69419852331E+02  0.19355439817E+03  0.00000000000E+00 0. -1.
         21    1    1    2  504  502 -0.49769846252E+02 -0.22513969457E+02  0.11046211036E+02  0.55730917765E+02  0.00000000000E+00 0. -1.
         21    1    1    2  505  504 -0.67086023340E+02 -0.54256894234E+01  0.33501750621E+03  0.34171143104E+03  0.00000000000E+00 0.  1.
          2    1    1    2  501    0 -0.63173548860E+02  0.43223560361E+02  0.15832452937E+04  0.15850945819E+04  0.00000000000E+00 0. -1.
<scales pt_clust_3="14000.00000" pt_clust_4="54.62524" pt_clust_5="68.57434" pt_clust_6="134.15336"></scales>
<clustering>
<clus scale="   54.625">  2  4  1 -1</clus>
<clus scale="   68.574">  1  5  2 -1</clus>
<clus scale="  134.153">  1  6  2 -1</clus>
<clus scale="   54.625">  2  3  1 -1</clus>
</clustering>
</event>
<event>
 6    0  0.3082502E+002  0.1579972E+03  0.7546771E-02  0.1190977E+00
          2   -1    0    0  503    0 -0.00000000000E+00  0.00000000000E+00  0.69523851198E+03  0.69523851198E+03  0.00000000000E+00 0.  1.
         21   -1    0    0  501  502  0.00000000000E+00 -0.00000000000E+00 -0.95421936830E+02  0.95421936830E+02  0.00000000000E+00 0.  1.
         21    1    1    2  503  504 -0.36346929942E+02 -0.29301672109E+02  0.85913170327E+02  0.97779139596E+02  0.00000000000E+00 0.  1.
         21    1    1    2  504  505  0.17218038209E+02 -0.86913443723E+02  0.29703884759E+02  0.93449067997E+02  0.00000000000E+00 0. -1.
         21    1    1    2  505  502 -0.16623049980E+02 -0.52830154457E+02 -0.25697895472E+02  0.61055162290E+02  0.00000000000E+00 0.  1.
          2    1    1    2  501    0  0.35751941712E+02  0.16904527029E+03  0.50989741554E+03  0.53837707893E+03  0.00000000000E+00 0.  1.
<scales pt_clust_3="46.68712" pt_clust_4="51.86852" pt_clust_5="51.86852" pt_clust_6="143.65315"></scales>
<clustering>
<clus scale="   46.687">  1  3  2 -1</clus>
<clus scale="   51.869">  4  5 -1 -1</clus>
<clus scale="  143.653">  1  6  2 -1</clus>
<clus scale="  157.997">  2  3  1 -1</clus>
</clustering>
</event>
<event>
 6    0  0.3082502E+002  0.1057967E+03  0.7546771E-02  0.1268558E+00
         21   -1    0    0  501  502  0.00000000000E+00  0.00000000000E+00  0.14456940100E+03  0.14456940100E+03  0.00000000000E+00 0.  1.
          1   -1    0    0  504    0 -0.00000000000E+00 -0.00000000000E+00 -0.16793090885E+04  0.16793090885E+04  0.00000000000E+00 0. -1.
         21    1    1    2  503  502  0.97910598165E+02  0.37745381523E+02  0.10905897969E+03  0.15134417765E+03  0.00000000000E+00 0.  1.
         21    1    1    2  504  505  0.59077692471E+01 -0.43214757956E+02 -0.91491281433E+02  0.10135616223E+03  0.00000000000E+00 0. -1.
         21    1    1    2  505  503  0.48864375429E+01  0.79461202137E+02 -0.10109220166E+04  0.10140519136E+04  0.00000000000E+00 0. -1.
          1    1    1    2  501    0 -0.10870480495E+03 -0.73991825703E+02 -0.54138536915E+03  0.55712623599E+03  0.00000000000E+00 0. -1.
<scales pt_clust_3="14000.00000" pt_clust_4="43.61671" pt_clust_5="52.53856" pt_clust_6="105.79667"></scales>
<clustering>
<clus scale="   43.617">  2  4  1 -1</clus>
<clus scale="   52.539">  2  5  1 -1</clus>
<clus scale="  105.797">  2  6  1 -1</clus>
<clus scale="  105.797">  1  3  2 -1</clus>
</clustering>
</event>
<event>
 6    0  0.3082502E+002  0.1185222E+03  0.7546771E-02  0.1245555E+00
          2   -1    0    0  503    0 -0.00000000000E+00  0.00000000000E+00  0.21899090670E+04  0.21899090670E+04  0.00000000000E+00 0. -1.
         21   -1    0    0  504  502  0.00000000000E+00 -0.00000000000E+00 -0.16923414536E+03  0.16923414536E+03  0.00000000000E+00 0.  1.
         21    1    1    2  503  505 -0.25705406773E+02 -0.42283292030E+02  0.37275808158E+03  0.37602823312E+03  0.00000000000E+00 0. -1.
         21    1    1    2  504  501  0.30242292727E+02  0.13683391578E+03 -0.22389017137E+02  0.14191330052E+03  0.00000000000E+00 0.  1.
         21    1    1    2  505  502  0.15936062788E+02 -0.26787655520E+02 -0.81866781695E+02  0.87599694809E+02  0.00000000000E+00 0.  1.
          2    1    1    2  501    0 -0.20472948742E+02 -0.67762968228E+02  0.17521726389E+04  0.17536019839E+04  0.00000000000E+00 0. -1.
<scales pt_clust_3="49.76936" pt_clust_4="14000.00000" pt_clust_5="31.16948" pt_clust_6="118.52223"></scales>
<clustering>
<clus scale="   31.169">  2  5  1 -1</clus>
<clus scale="   49.769">  1  3  2 -1</clus>
<clus scale="  118.522">  1  6  2 -1</clus>
<clus scale="   31.169">  2  3  1 -1</clus>
</clustering>
</event>
<event>
 6    0  0.3082502E+002  0.1602729E+03  0.7546771E-02  0.1188389E+00
         21   -1    0    0  504  502  0.00000000000E+00  0.00000000000E+00  0.22363528344E+03  0.22363528344E+03  0.00000000000E+00 0. -1.
          2   -1    0    0  505    0 -0.00000000000E+00 -0.00000000000E+00 -0.20184017477E+04  0.20184017477E+04  0.00000000000E+00 0.  1.
         21    1    1    2  503  501  0.53208421741E+02  0.10384703317E+03  0.36721127375E+02  0.12232654511E+03  0.00000000000E+00 0. -1.
         21    1    1    2  504  503  0.82577603302E+02 -0.92372373087E+01  0.12305372127E+03  0.14848099353E+03  0.00000000000E+00 0. -1.
         21    1    1    2  505  502  0.22194983975E+02 -0.21215290576E+02 -0.10278024115E+04  0.10282609119E+04  0.00000000000E+00 0.  1.
          2    1    1    2  501    0 -0.15798100902E+03 -0.73394505288E+02 -0.92673890143E+03  0.94296858062E+03  0.00000000000E+00 0.  1.
<scales pt_clust_3="14000.00000" pt_clust_4="83.40642" pt_clust_5="30.70352" pt_clust_6="160.27290"></scales>
<clustering>
<clus scale="   30.704">  2  5  1 -1</clus>
<clus scale="   83.406">  1  4  2 -1</clus>
<clus scale="  160.273">  2  6  1 -1</clus>
<clus scale="   83.406">  1  3  2 -1</clus>
</clustering>
</event>
<event>
 6    0  0.3082502E+002  0.7056500E+02  0.7546771E-02  0.1358182E+00
          2   -1    0    0  502    0 -0.00000000000E+00  0.00000000000E+00  0.99297153250E+03  0.99297153250E+03  0.00000000000E+00 0. -1.
         21   -1    0    0  503  502  0.00000000000E+00 -0.00000000000E+00 -0.22371470591E+02  0.22371470591E+02  0.00000000000E+00 0. -1.
         21    1    1    2  503  505 -0.36097393497E+02  0.23430938664E+02  0.54782279255E+02  0.69664401413E+02  0.00000000000E+00 0.  1.
         21    1    1    2  504  501 -0.65233931346E+02 -0.32138699822E+02  0.32990207584E+03  0.33782205593E+03  0.00000000000E+00 0. -1.
         21    1    1    2  505  504  0.84862697940E+02 -0.49154816131E+02  0.29799842638E+03  0.31372111114E+03  0.00000000000E+00 0. -1.
          2    1    1    2  501    0  0.16468626903E+02  0.57862577289E+02  0.28791728042E+03  0.29413543460E+03  0.00000000000E+00 0. -1.
<scales pt_clust_3="43.03523" pt_clust_4="70.56500" pt_clust_5="14000.00000" pt_clust_6="63.37717"></scales>
<clustering>
<clus scale="   43.035">  2  3  1 -1</clus>
<clus scale="   63.377">  1  6  2 -1</clus>
<clus scale="   70.565">  1  4  2 -1</clus>
<clus scale="   43.035">  2  3  1 -1</clus>
</clustering>
</event>
<event>
 6    0  0.3082502E+002  0.1327947E+03  0.7546771E-02  0.1223367E+00
         -1   -1    0    0    0  501 -0.00000000000E+00  0.00000000000E+00  0.24112589541E+03  0.24112589541E+03  0.00000000000E+00 0. -1.
         21   -1    0    0  505  502  0.00000000000E+00 -0.00000000000E+00 -0.51769897241E+03  0.51769897241E+03  0.00000000000E+00 0. -1.
         21    1    1    2  503  501  0.27524575733E+02  0.38412214363E+02  0.72864443502E+02  0.86846575110E+02  0.00000000000E+00 0. -1.
         21    1    1    2  504  502  0.34623770526E+02  0.54171450330E+02 -0.33993810676E+03  0.34596425818E+03  0.00000000000E+00 0. -1.
         21    1    1    2  505  503 -0.46997907418E+02  0.87105113550E+02 -0.85052999663E+02  0.13049948988E+03  0.00000000000E+00 0. -1.
         -1    1    1    2    0  504 -0.15150438841E+02 -0.17968877824E+03  0.75553585909E+02  0.19551454464E+03  0.00000000000E+00 0. -1.
<scales pt_clust_3="47.25569" pt_clust_4="65.17282" pt_clust_5="14000.00000" pt_clust_6="132.79473"></scales>
<clustering>
<clus scale="   47.256">  1  3  2 -1</clus>
<clus scale="   65.173">  2  4  1 -1</clus>
<clus scale="  132.795">  1  6  2 -1</clus>
<clus scale="   65.173">  2  3  1 -1</clus>
</clustering>
</event>
<event>
 6    0  0.3082502E+002  0.1036358E+03  0.7546771E-02  0.1272831E+00
         21   -1    0    0  504  502  0.00000000000E+00  0.00000000000E+00  0.18722024026E+03  0.18722024026E+03  0.00000000000E+00 0. -1.
          1   -1    0    0  503    0 -0.00000000000E+00 -0.00000000000E+00 -0.92745920548E+03  0.92745920548E+03  0.00000000000E+00 0.  1.
         21    1    1    2  503  505 -0.85305584039E+02 -0.46141300770E+02 -0.48719754994E+03  0.49675699791E+03  0.00000000000E+00 0.  1.
         21    1    1    2  504  501  0.66275777015E+01 -0.96089647136E+02  0.13960586194E+03  0.16960820075E+03  0.00000000000E+00 0. -1.
         21    1    1    2  505  502  0.52141760034E+02  0.85277847760E+01 -0.29690975240E+02  0.60605612474E+02  0.00000000000E+00 0. -1.
          1    1    1    2  501    0  0.26536246304E+02  0.13370316313E+03 -0.36295630199E+03  0.38770863461E+03  0.00000000000E+00 0.  1.
<scales pt_clust_3="95.59693" pt_clust_4="14000.00000" pt_clust_5="52.83452" pt_clust_6="103.63581"></scales>
<clustering>
<clus scale="   52.835">  1  5  2 -1</clus>
<clus scale="   95.597">  2  3  1 -1</clus>
<clus scale="  103.636">  2  6  1 -1</clus>
<clus scale="   52.835">  1  3  2 -1</clus>
</clustering>
</event>
<event>
 6    0  0.3082502E+002  0.1569349E+03  0.7546771E-02  0.1192201E+00
         21   -1    0    0  504  502  0.00000000000E+00  0.00000000000E+00  0.26005505341E+03  0.26005505341E+03  0.00000000000E+00 0. -1.
          2   -1    0    0  505    0 -0.00000000000E+00 -0.00000000000E+00 -0.17947049214E+04  0.17947049214E+04  0.00000000000E+00 0. -1.
         21    1    1    2  503  502  0.37189653810E+01  0.31729688985E+02  0.22966396293E+03  0.23187526762E+03  0.00000000000E+00 0. -1.
         21    1    1    2  504  501  0.12832488909E+03  0.20230595090E+02 -0.47447454676E+03  0.49193764814E+03  0.00000000000E+00 0. -1.
         21    1    1    2  505  503  0.35443469310E+02  0.34508232159E+01 -0.73254213878E+01  0.36356698092E+02  0.00000000000E+00 0.  1.
          2    1    1    2  501    0 -0.16748732378E+03 -0.55411107291E+02 -0.12825138628E+04  0.12945903610E+04  0.00000000000E+00 0. -1.
<scales pt_clust_3="31.94689" pt_clust_4="14000.00000" pt_clust_5="41.92972" pt_clust_6="156.93486"></scales>
<clustering>
<clus scale="   31.947">  1  3  2 -1</clus>
<clus scale="   41.930">  1  5  2 -1</clus>
<clus scale="  156.935">  2  6  1 -1</clus>
<clus scale="   31.947">  1  3  2 -1</clus>
</clustering>
</event>
<event>
 6    0  0.3082502E+002  0.8326020E+02  0.7546771E-02  0.1320046E+00
         21   -1    0    0  504  502  0.00000000000E+00  0.00000000000E+00  0.58627941767E+03  0.58627941767E+03  0.00000000000E+00 0. -1.
         -2   -1    0    0    0  501 -0.00000000000E+00 -0.00000000000E+00 -0.51739890503E+03  0.51739890503E+03  0.00000000000E+00 0. -1.
         21    1    1    2  503  502  0.11605793649E+03 -0.13333712785E+02  0.40003427649E+03  0.41674291222E+03  0.00000000000E+00 0. -1.
         21    1    1    2  504  505 -0.35280639447E+02  0.20905783895E+01  0.16041434538E+03  0.16426154827E+03  0.00000000000E+00 0. -1.
         21    1    1    2  505  501  0.31839185193E+02  0.87054807533E+01 -0.21724266811E+02  0.39515349895E+02  0.00000000000E+00 0.  1.
         -2    1    1    2    0  503 -0.11261648223E+03  0.25376536420E+01 -0.46984384242E+03  0.48315851231E+03  0.00000000000E+00 0. -1.
<scales pt_clust_3="83.26020" pt_clust_4="35.21899" pt_clust_5="33.00786" pt_clust_6="14000.00000"></scales>
<clustering>
<clus scale="   33.008">  2  5  1 -1</clus>
<clus scale="   35.219">  1  4  2 -1</clus>
<clus scale="   83.260">  1  3  2 -1</clus>
<clus scale="   35.219">  1  3  2 -1</clus>
</clustering>
</event>
<event>
 6    0  0.3082502E+002  0.7132570E+02  0.7546771E-02  0.1355642E+00
          2   -1    0    0  503    0 -0.00000000000E+00  0.00000000000E+00  0.36811276926E+03  0.36811276926E+03  0.00000000000E+00 0. -1.
         21   -1    0    0  505  502  0.00000000000E+00 -0.00000000000E+00 -0.74444763346E+02  0.74444763346E+02  0.00000000000E+00 0. -1.
         21    1    1    2  503  502 -0.49369890876E+02  0.45169983279E+02  0.20517696893E+03  0.21581311844E+03  0.00000000000E+00 0. -1.
         21    1    1    2  504  501 -0.41885626590E+02 -0.36885414068E+02  0.35493614464E+02  0.66141788255E+02  0.00000000000E+00 0. -1.
         21    1    1    2  505  504  0.16798261001E+02  0.46262382229E+02 -0.81466501056E+01  0.49887448222E+02  0.00000000000E+00 0. -1.
          2    1    1    2  501    0  0.74457256465E+02 -0.54546951439E+02  0.61144072624E+02  0.11071517768E+03  0.00000000000E+00 0. -1.
<scales pt_clust_3="71.32570" pt_clust_4="42.00775" pt_clust_5="49.21778" pt_clust_6="14000.00000"></scales>
<clustering>
<clus scale="   49.218">  2  5  1 -1</clus>
<clus scale="   42.008">  2  4  1 -1</clus>
<clus scale="   71.326">  1  3  2 -1</clus>
<clus scale="   49.218">  2  3  1 -1</clus>
</clustering>
</event>
<event>
 6    0  0.3082502E+002  0.2320249E+03  0.7546771E-02  0.1125223E+00
          2   -1    0    0  505    0 -0.00000000000E+00  0.00000000000E+00  0.22935173933E+03  0.22935173933E+03  0.00000000000E+00 0. -1.
         21   -1    0    0  504  502  0.00000000000E+00 -0.00000000000E+00 -0.63859808352E+03  0.63859808352E+03  0.00000000000E+00 0. -1.
         21    1    1    2  503  502  0.15663074337E+03  0.17675484110E+03 -0.26304214338E+03  0.35350619912E+03  0.00000000000E+00 0. -1.
         21    1    1    2  504  501 -0.17215249279E+03 -0.15078703620E+03 -0.24817517417E+03  0.33758573449E+03  0.00000000000E+00 0. -1.
         21    1    1    2  505  503  0.65139406669E+02 -0.49405558900E+02  0.31670216498E+02  0.87675847099E+02  0.00000000000E+00 0. -1.
          2    1    1    2  501    0 -0.49617657251E+02  0.23437754007E+02  0.70300756863E+02  0.89182042135E+02  0.00000000000E+00 0. -1.
<scales pt_clust_3="232.02493" pt_clust_4="14000.00000" pt_clust_5="60.50722" pt_clust_6="54.87477"></scales>
<clustering>
<clus scale="   54.875">  1  6  2 -1</clus>
<clus scale="   60.507">  1  5  2 -1</clus>
<clus scale="  232.025">  1  3  2 -1</clus>
<clus scale="  232.025">  2  3  1 -1</clus>
</clustering>
</event>
<event>
 6    0  0.3082502E+002  0.1936653E+03  0.7546771E-02  0.1155196E+00
         21   -1    0    0  505  502  0.00000000000E+00  0.00000000000E+00  0.48431367783E+02  0.48431367783E+02  0.00000000000E+00 0.  1.
          2   -1    0    0  503    0 -0.00000000000E+00 -0.00000000000E+00 -0.55553359617E+04  0.55553359617E+04  0.00000000000E+00 0.  1.
         21    1    1    2  503  502  0.15212689015E+03 -0.12729948664E+03 -0.11912113245E+04  0.12076142470E+04  0.00000000000E+00 0.  1.
         21    1    1    2  504  501  0.57381562472E+02  0.12056626767E+03 -0.12953358308E+03  0.18603176545E+03  0.00000000000E+00 0.  1.
         21    1    1    2  505  504 -0.17277651474E+02 -0.37181417954E+02 -0.33947446051E+02  0.53229730179E+02  0.00000000000E+00 0.  1.
          2    1    1    2  501    0 -0.19223080115E+03  0.43914636927E+02 -0.41522122403E+04  0.41568915869E+04  0.00000000000E+00 0.  1.
<scales pt_clust_3="14000.00000" pt_clust_4="103.66827" pt_clust_5="40.99970" pt_clust_6="193.66533"></scales>
<clustering>
<clus scale="   41.000">  1  5  2 -1</clus>
<clus scale="  103.668">  1  4  2 -1</clus>
<clus scale="  193.665">  2  6  1 -1</clus>
<clus scale="   41.000">  1  3  2 -1</clus>
</clustering>
</event>
<event>
 6    0  0.3082502E+002  0.9861672E+02  0.7546771E-02  0.1283232E+00
         -2   -1    0    0    0  501 -0.00000000000E+00  0.00000000000E+00  0.54707949280E+03  0.54707949280E+03  0.00000000000E+00 0. -1.
         21   -1    0    0  504  502  0.00000000000E+00 -0.00000000000E+00 -0.30607942946E+03  0.30607942946E+03  0.00000000000E+00 0. -1.
         21    1    1    2  503  502 -0.36089778125E+02  0.24839082353E+02 -0.21607655090E+03  0.22047341778E+03  0.00000000000E+00 0. -1.
         21    1    1    2  504  501  0.27677837433E+01  0.30969577968E+02  0.36697303746E+02  0.48098518569E+02  0.00000000000E+00 0. -1.
         21    1    1    2  505  503 -0.59099645473E+02  0.16761408165E+02 -0.62488222738E+02  0.87626998577E+02  0.00000000000E+00 0. -1.
         -2    1    1    2    0  505  0.92421639855E+02 -0.72570068486E+02  0.48286753324E+03  0.49695998734E+03  0.00000000000E+00 0. -1.
<scales pt_clust_3="43.87826" pt_clust_4="31.09301" pt_clust_5="14000.00000" pt_clust_6="98.61672"></scales>
<clustering>
<clus scale="   31.093">  1  4  2 -1</clus>
<clus scale="   43.878">  2  3  1 -1</clus>
<clus scale="   98.617">  1  6  2 -1</clus>
<clus scale="   43.878">  2  3  1 -1</clus>
</clustering>
</event>
<event>
 6    0  0.3082502E+002  0.1154175E+03  0.7546771E-02  0.1250854E+00
         -4   -1    0    0    0  501 -0.00000000000E+00  0.00000000000E+00  0.16300911365E+03  0.16300911365E+03  0.00000000000E+00 0.  1.
         21   -1    0    0  505  502  0.00000000000E+00 -0.00000000000E+00 -0.18067018916E+04  0.18067018916E+04  0.00000000000E+00 0. -1.
         21    1    1    2  503  502 -0.66479293455E+02  0.12333400411E+02 -0.35085434629E+03  0.35730992365E+03  0.00000000000E+00 0. -1.
         21    1    1    2  504  501 -0.18035147898E+02 -0.40100005377E+02  0.77828142976E+02  0.89389578979E+02  0.00000000000E+00 0.  1.
         21    1    1    2  505  504 -0.51556490751E+02  0.22766781658E+02 -0.13849548477E+04  0.13861011249E+04  0.00000000000E+00 0. -1.
         -4    1    1    2    0  503  0.13607093210E+03  0.49998233082E+01  0.14288273073E+02  0.13691037778E+03  0.00000000000E+00 0.  1.
<scales pt_clust_3="115.41754" pt_clust_4="43.96905" pt_clust_5="56.36260" pt_clust_6="14000.00000"></scales>
<clustering>
<clus scale="   43.969">  1  4  2 -1</clus>
<clus scale="   56.363">  2  5  1 -1</clus>
<clus scale="  115.418">  2  3  1 -1</clus>
<clus scale="   56.363">  2  3  1 -1</clus>
</clustering>
</event>
<event>
 6    0  0.3082502E+002  0.6629471E+02  0.7546771E-02  0.1373166E+00
          2   -1    0    0  504    0 -0.00000000000E+00  0.00000000000E+00  0.39630398743E+04  0.39630398743E+04  0.00000000000E+00 0. -1.
         21   -1    0    0  505  502  0.00000000000E+00 -0.00000000000E+00 -0.15240153692E+03  0.15240153692E+03  0.00000000000E+00 0.  1.
         21    1    1    2  503  501  0.53489331295E+02  0.80120872450E+02  0.54040791024E+03  0.54892729229E+03  0.00000000000E+00 0. -1.
         21    1    1    2  504  502  0.55984348508E+02  0.18362989019E+02 -0.10631555670E+03  0.12155017170E+03  0.00000000000E+00 0.  1.
         21    1    1    2  505  503 -0.69492822680E+02 -0.76385416333E+02  0.44238489238E+02  0.11234334944E+03  0.00000000000E+00 0. -1.
          2    1    1    2  501    0 -0.39980857123E+02 -0.22098445136E+02  0.33323074946E+04  0.33326205978E+04  0.00000000000E+00 0. -1.
<scales pt_clust_3="14000.00000" pt_clust_4="58.37697" pt_clust_5="66.29471" pt_clust_6="45.68162"></scales>
<clustering>
<clus scale="   45.682">  1  6  2 -1</clus>
<clus scale="   58.377">  2  4  1 -1</clus>
<clus scale="   66.295">  2  5  1 -1</clus>
<clus scale="   58.377">  2  3  1 -1</clus>
</clustering>
</event>
<event>
 6    0  0.3082502E+002  0.1833487E+03  0.7546771E-02  0.1164601E+00
         21   -1    0    0  504  502  0.00000000000E+00  0.00000000000E+00  0.15865607129E+03  0.15865607129E+03  0.00000000000E+00 0.  1.
          1   -1    0    0  503    0 -0.00000000000E+00 -0.00000000000E+00 -0.56624225139E+03  0.56624225139E+03  0.00000000000E+00 0.  1.
         21    1    1    2  503  502 -0.10103931656E+03  0.18460888321E+03 -0.57732953708E+02  0.21822574823E+03  0.00000000000E+00 0.  1.
         21    1    1    2  504  505  0.20942947378E+02 -0.44737501411E+02  0.49974619387E+02  0.70267443815E+02  0.00000000000E+00 0.  1.
         21    1    1    2  505  501  0.54800671030E+01 -0.35655746706E+02 -0.37321181026E+02  0.51906010844E+02  0.00000000000E+00 0.  1.
          1    1    1    2  501    0  0.74616302074E+02 -0.10421563509E+03 -0.36250666475E+03  0.38449911979E+03  0.00000000000E+00 0.  1.
<scales pt_clust_3="170.32038" pt_clust_4="49.39687" pt_clust_5="36.01159" pt_clust_6="36.01159"></scales>
<clustering>
<clus scale="   36.012">  5  6 -1 -1</clus>
<clus scale="   49.397">  1  4  2 -1</clus>
<clus scale="  170.320">  1  3  2 -1</clus>
<clus scale="   49.397">  1  3  2 -1</clus>
</clustering>
</event>
<event>
 6    0  0.3082502E+002  0.1624589E+03  0.7546771E-02  0.1185948E+00
         21   -1    0    0  505  502  0.00000000000E+00  0.00000000000E+00  0.81826166088E+02  0.81826166088E+02  0.00000000000E+00 0.  1.
          2   -1    0    0  503    0 -0.00000000000E+00 -0.00000000000E+00 -0.83389938657E+03  0.83389938657E+03  0.00000000000E+00 0.  1.
         21    1    1    2  503  504  0.45654397425E+02  0.19586899209E+01 -0.33221474796E+03  0.33534280853E+03  0.00000000000E+00 0.  1.
         21    1    1    2  504  502  0.14923162279E+03 -0.38133678817E+02 -0.22385289193E+03  0.27172480918E+03  0.00000000000E+00 0.  1.
         21    1    1    2  505  501 -0.20662692231E+02  0.26191269842E+02  0.13504063815E+02  0.35990126503E+02  0.00000000000E+00 0.  1.
          2    1    1    2  501    0 -0.17422332798E+03  0.99837190544E+01 -0.20950964441E+03  0.27266780844E+03  0.00000000000E+00 0.  1.
<scales pt_clust_3="45.16758" pt_clust_4="162.45891" pt_clust_5="33.36060" pt_clust_6="14000.00000"></scales>
<clustering>
<clus scale="   33.361">  1  5  2 -1</clus>
<clus scale="   45.168">  2  3  1 -1</clus>
<clus scale="  162.459">  1  4  2 -1</clus>
<clus scale="   33.361">  1  3  2 -1</clus>
</clustering>
</event>
<event>
 6    0  0.3082502E+002  0.1303861E+03  0.7546771E-02  0.1226884E+00
         21   -1    0    0  505  502  0.00000000000E+00  0.00000000000E+00  0.34286657968E+02  0.34286657968E+02  0.00000000000E+00 0. -1.
          2   -1    0    0  503    0 -0.00000000000E+00 -0.00000000000E+00 -0.29126189384E+04  0.29126189384E+04  0.00000000000E+00 0.  1.
         21    1    1    2  503  502 -0.12820539100E+02 -0.13992868198E+03 -0.14345165583E+03  0.20080532818E+03  0.00000000000E+00 0. -1.
         21    1    1    2  504  501 -0.13735537131E+02  0.33234403045E+02 -0.59236142364E+03  0.59345197509E+03  0.00000000000E+00 0.  1.
         21    1    1    2  505  504 -0.22702904379E+02  0.28706129788E+02 -0.78971741308E+02  0.87040218749E+02  0.00000000000E+00 0. -1.
          2    1    1    2  501    0  0.49258980610E+02  0.77988149146E+02 -0.20635474596E+04  0.20656080743E+04  0.00000000000E+00 0.  1.
<scales pt_clust_3="117.83279" pt_clust_4="34.85366" pt_clust_5="36.59869" pt_clust_6="34.85366"></scales>
<clustering>
<clus scale="   34.854">  4  6 -1 -1</clus>
<clus scale="   36.599">  1  5  2 -1</clus>
<clus scale="  117.833">  1  3  2 -1</clus>
<clus scale="   36.599">  1  3  2 -1</clus>
</clustering>
</event>
<event>
 6    0  0.3082502E+002  0.9200223E+02  0.7546771E-02  0.1298074E+00
         21   -1    0    0  503  502  0.00000000000E+00  0.00000000000E+00  0.14022102888E+03  0.14022102888E+03  0.00000000000E+00 0. -1.
          2   -1    0    0  504    0 -0.00000000000E+00 -0.00000000000E+00 -0.29020515008E+04  0.29020515008E+04  0.00000000000E+00 0. -1.
         21    1    1    2  503  505  0.91540461246E+01 -0.28596562544E+02 -0.63785546646E+02  0.70499332697E+02  0.00000000000E+00 0. -1.
         21    1    1    2  504  502  0.31729402209E+02  0.63552693977E+00  0.12620600583E+03  0.13013498672E+03  0.00000000000E+00 0. -1.
         21    1    1    2  505  501 -0.11473938071E+03 -0.23800640203E+02 -0.42976262997E+03  0.44545203342E+03  0.00000000000E+00 0. -1.
          2    1    1    2  501    0  0.73855932376E+02  0.51761675808E+02 -0.23944883011E+04  0.23961861768E+04  0.00000000000E+00 0. -1.
<scales pt_clust_3="30.02599" pt_clust_4="48.03945" pt_clust_5="14000.00000" pt_clust_6="92.00223"></scales>
<clustering>
<clus scale="   30.026">  1  3  2 -1</clus>
<clus scale="   48.039">  1  4  2 -1</clus>
<clus scale="   92.002">  2  6  1 -1</clus>
<clus scale="   30.026">  1  3  2 -1</clus>
</clustering>
</event>
<event>
 6    0  0.3082502E+002  0.1213900E+03  0.7546771E-02  0.1240821E+00
          2   -1    0    0  503    0 -0.00000000000E+00  0.00000000000E+00  0.38967406209E+04  0.38967406209E+04  0.00000000000E+00 0. -1.
         21   -1    0    0  505  502  0.00000000000E+00 -0.00000000000E+00 -0.23949739880E+03  0.23949739880E+03  0.00000000000E+00 0. -1.
         21    1    1    2  503  504 -0.31703017713E+02 -0.71852531305E+01  0.24361131895E+03  0.24577059204E+03  0.00000000000E+00 0. -1.
         21    1    1    2  504  502 -0.27825831868E+02  0.44950078060E+02  0.23387893208E+02  0.57808130790E+02  0.00000000000E+00 0. -1.
         21    1    1    2  505  501 -0.91253067254E+02 -0.21689911524E+02 -0.20959657433E+03  0.22962643253E+03  0.00000000000E+00 0. -1.
          2    1    1    2  501    0  0.15078191684E+03 -0.16074913405E+02  0.35998405843E+04  0.36030328643E+04  0.00000000000E+00 0. -1.
<scales pt_clust_3="32.50706" pt_clust_4="52.98443" pt_clust_5="14000.00000" pt_clust_6="121.39005"></scales>
<clustering>
<clus scale="   32.507">  1  3  2 -1</clus>
<clus scale="   52.984">  2  4  1 -1</clus>
<clus scale="  121.390">  1  6  2 -1</clus>
<clus scale="   52.984">  2  3  1 -1</clus>
</clustering>
</event>
<event>
 6    0  0.3082502E+002  0.7988983E+02  0.7546771E-02  0.1329364E+00
          2   -1    0    0  503    0 -0.00000000000E+00  0.00000000000E+00  0.11884439788E+04  0.11884439788E+04  0.00000000000E+00 0. -1.
         21   -1    0    0  505  502  0.00000000000E+00 -0.00000000000E+00 -0.59321079559E+02  0.59321079559E+02  0.00000000000E+00 0. -1.
         21    1    1    2  503  504 -0.14337958433E+02  0.33670487256E+02  0.42226309446E+03  0.42384596224E+03  0.00000000000E+00 0. -1.
         21    1    1    2  504  502 -0.19753593329E+02  0.61888960395E+02  0.19801043889E+02  0.67915603562E+02  0.00000000000E+00 0. -1.
         21    1    1    2  505  501  0.38315317256E+01 -0.11616682205E+03  0.65594483934E+02  0.13346178293E+03  0.00000000000E+00 0. -1.
          2    1    1    2  501    0  0.30260020036E+02  0.20607374395E+02  0.62146427696E+03  0.62254170964E+03  0.00000000000E+00 0. -1.
<scales pt_clust_3="36.59616" pt_clust_4="79.88983" pt_clust_5="14000.00000" pt_clust_6="51.45282"></scales>
<clustering>
<clus scale="   36.596">  1  3  2 -1</clus>
<clus scale="   51.453">  1  6  2 -1</clus>
<clus scale="   79.890">  2  4  1 -1</clus>
<clus scale="   79.890">  2  3  1 -1</clus>
</clustering>
</event>
<event>
 6    0  0.3082502E+002  0.1422269E+03  0.7546771E-02  0.1210364E+00
         21   -1    0    0  503  502  0.00000000000E+00  0.00000000000E+00  0.13387063260E+03  0.13387063260E+03  0.00000000000E+00 0. -1.
          2   -1    0    0  504    0 -0.00000000000E+00 -0.00000000000E+00 -0.29241839705E+04  0.29241839705E+04  0.00000000000E+00 0. -1.
         21    1    1    2  503  501 -0.36813804735E+02 -0.74759481752E+02  0.14716055680E+02  0.84621502147E+02  0.00000000000E+00 0. -1.
         21    1    1    2  504  505 -0.11979386744E+03  0.11993599079E+03 -0.14095854488E+04  0.14197416490E+04  0.00000000000E+00 0. -1.
         21    1    1    2  505  502  0.32293249000E+02 -0.10737990059E+01  0.72740310582E+02  0.79593716830E+02  0.00000000000E+00 0. -1.
          2    1    1    2  501    0  0.12431442318E+03 -0.44102710037E+02 -0.14681842554E+04  0.14740977351E+04  0.00000000000E+00 0. -1.
<scales pt_clust_3="76.21903" pt_clust_4="14000.00000" pt_clust_5="32.31110" pt_clust_6="142.22687"></scales>
<clustering>
<clus scale="   32.311">  1  5  2 -1</clus>
<clus scale="   76.219">  1  3  2 -1</clus>
<clus scale="  142.227">  2  6  1 -1</clus>
<clus scale="   32.311">  1  3  2 -1</clus>
</clustering>
</event>
<event>
 6    0  0.3082502E+002  0.6964085E+02  0.7546771E-02  0.1361319E+00
          2   -1    0    0  505    0 -0.00000000000E+00  0.00000000000E+00  0.30214899413E+03  0.30214899413E+03  0.00000000000E+00 0.  1.
         21   -1    0    0  504  502  0.00000000000E+00 -0.00000000000E+00 -0.79965850424E+03  0.79965850424E+03  0.00000000000E+00 0.  1.
         21    1    1    2  503  502  0.58167708873E+02 -0.13618560469E+02 -0.60139431277E+03  0.60435425619E+03  0.00000000000E+00 0.  1.
         21    1    1    2  504  501  0.52198646324E+01  0.39829792200E+02 -0.15630410892E+03  0.16138349915E+03  0.00000000000E+00 0.  1.
         21    1    1    2  505  503 -0.12685465313E+03 -0.37597071008E+02  0.10802291210E+03  0.17080571509E+03  0.00000000000E+00 0.  1.
          2    1    1    2  501    0  0.63467079622E+02  0.11385839276E+02  0.15216599949E+03  0.16526402794E+03  0.00000000000E+00 0.  1.
<scales pt_clust_3="69.64085" pt_clust_4="40.17038" pt_clust_5="14000.00000" pt_clust_6="64.60586"></scales>
<clustering>
<clus scale="   40.170">  2  4  1 -1</clus>
<clus scale="   64.606">  1  6  2 -1</clus>
<clus scale="   69.641">  2  3  1 -1</clus>
<clus scale="   40.170">  2  3  1 -1</clus>
</clustering>
</event>
<event>
 6    0  0.3082502E+002  0.1175384E+03  0.7546771E-02  0.1247214E+00
         21   -1    0    0  503  502  0.00000000000E+00  0.00000000000E+00  0.29001000649E+03  0.29001000649E+03  0.00000000000E+00 0. -1.
          2   -1    0    0  505    0 -0.00000000000E+00 -0.00000000000E+00 -0.19794136048E+04  0.19794136048E+04  0.00000000000E+00 0.  1.
         21    1    1    2  503  504  0.42250094008E+02  0.63985756502E+02  0.26069479584E+03  0.27173704948E+03  0.00000000000E+00 0. -1.
         21    1    1    2  504  501 -0.13923231198E+03  0.13986199258E+02 -0.22455677562E+03  0.26458835187E+03  0.00000000000E+00 0.  1.
         21    1    1    2  505  502  0.22035529119E+02 -0.49431428204E+02 -0.27121699072E+03  0.27656407340E+03  0.00000000000E+00 0. -1.
          2    1    1    2  501    0  0.74946688850E+02 -0.28540527556E+02 -0.14543246278E+04  0.14565341366E+04  0.00000000000E+00 0.  1.
<scales pt_clust_3="76.58216" pt_clust_4="117.53837" pt_clust_5="54.12052" pt_clust_6="14000.00000"></scales>
<clustering>
<clus scale="   54.121">  2  5  1 -1</clus>
<clus scale="   76.582">  1  3  2 -1</clus>
<clus scale="  117.538">  1  4  2 -1</clus>
<clus scale="   76.582">  1  3  2 -1</clus>
</clustering>
</event>
<event>
 6    0  0.3082502E+002  0.7221683E+02  0.7546771E-02  0.1352713E+00
         21   -1    0    0  504  502  0.00000000000E+00  0.00000000000E+00  0.44102465639E+03  0.44102465639E+03  0.00000000000E+00 0. -1.
         -4   -1    0    0    0  501 -0.00000000000E+00 -0.00000000000E+00 -0.10704002279E+03  0.10704002279E+03  0.00000000000E+00 0. -1.
         21    1    1    2  503  505 -0.52530356445E+02  0.43095493651E+02  0.92003579932E+02  0.11437359241E+03  0.00000000000E+00 0. -1.
         21    1    1    2  504  501 -0.48777180680E+02 -0.47358815492E+02  0.24310908189E+02  0.72201738324E+02  0.00000000000E+00 0. -1.
         21    1    1    2  505  502  0.65408812521E+02 -0.35656467653E+02  0.27383801088E+03  0.28379033219E+03  0.00000000000E+00 0. -1.
         -4    1    1    2    0  503  0.35898724605E+02  0.39919789495E+02 -0.56167865407E+02  0.77699016248E+02  0.00000000000E+00 0. -1.
<scales pt_clust_3="14000.00000" pt_clust_4="36.07102" pt_clust_5="72.21683" pt_clust_6="53.68713"></scales>
<clustering>
<clus scale="   53.687">  2  6  1 -1</clus>
<clus scale="   36.071">  2  4  1 -1</clus>
<clus scale="   72.217">  1  5  2 -1</clus>
<clus scale="   72.217">  1  3  2 -1</clus>
</clustering>
</event>
<event>
 6    0  0.3082502E+002  0.1106208E+03  0.7546771E-02  0.1259425E+00
          2   -1    0    0  505    0 -0.00000000000E+00  0.00000000000E+00  0.79620187100E+03  0.79620187100E+03  0.00000000000E+00 0.  1.
         21   -1    0    0  503  502  0.00000000000E+00 -0.00000000000E+00 -0.43157145634E+02  0.43157145634E+02  0.00000000000E+00 0.  1.
         21    1    1    2  503  501  0.10854014003E+03 -0.71698664901E+02  0.16403270383E+03  0.20935230707E+03  0.00000000000E+00 0.  1.
         21    1    1    2  504  502  0.16728448848E+02  0.61154954360E+02  0.10958895149E+03  0.12660769224E+03  0.00000000000E+00 0.  1.
         21    1    1    2  505  504 -0.30026656714E+02  0.40336709469E+00  0.28587947785E+03  0.28745232417E+03  0.00000000000E+00 0.  1.
          2    1    1    2  501    0 -0.95241932166E+02  0.10140343446E+02  0.19354359219E+03  0.21594669316E+03  0.00000000000E+00 0.  1.
<scales pt_clust_3="110.62078" pt_clust_4="62.02262" pt_clust_5="30.02937" pt_clust_6="14000.00000"></scales>
<clustering>
<clus scale="   30.029">  1  5  2 -1</clus>
<clus scale="   62.023">  1  4  2 -1</clus>
<clus scale="  110.621">  2  3  1 -1</clus>
<clus scale="  110.621">  2  3  1 -1</clus>
</clustering>
</event>
<event>
 6    0  0.3082502E+002  0.1243437E+03  0.7546771E-02  0.1236099E+00
          1   -1    0    0  503    0 -0.00000000000E+00  0.00000000000E+00  0.21092331039E+04  0.21092331039E+04  0.00000000000E+00 0.  1.
         21   -1    0    0  505  502  0.00000000000E+00 -0.00000000000E+00 -0.26148900660E+02  0.26148900660E+02  0.00000000000E+00 0.  1.
         21    1    1    2  503  502 -0.21192456537E+02 -0.28852843097E+02  0.68249868026E+02  0.77069132955E+02  0.00000000000E+00 0. -1.
         21    1    1    2  504  501  0.12234944684E+02 -0.52499487887E+02  0.73229828379E+03  0.73427969231E+03  0.00000000000E+00 0.  1.
         21    1    1    2  505  504  0.38410242345E+02  0.14191800904E+03  0.25542718640E+03  0.29471870582E+03  0.00000000000E+00 0.  1.
          1    1    1    2  501    0 -0.29452730491E+02 -0.60565678060E+02  0.10271088650E+04  0.10293144735E+04  0.00000000000E+00 0.  1.
<scales pt_clust_3="35.79954" pt_clust_4="36.45090" pt_clust_5="117.43365" pt_clust_6="36.45090"></scales>
<clustering>
<clus scale="   35.800">  2  3  1 -1</clus>
<clus scale="   36.451">  4  6 -1 -1</clus>
<clus scale="  117.434">  2  5  1 -1</clus>
<clus scale="   35.800">  2  3  1 -1</clus>
</clustering>
</event>
<event>
 6    0  0.3082502E+002  0.1105540E+03  0.7546771E-02  0.1259547E+00
         21   -1    0    0  503  502  0.00000000000E+00  0.00000000000E+00  0.99915901867E+02  0.99915901867E+02  0.00000000000E+00 0.  1.
          1   -1    0    0  505    0 -0.00000000000E+00 -0.00000000000E+00 -0.30596288840E+04  0.30596288840E+04  0.00000000000E+00 0.  1.
         21    1    1    2  503  501  0.34352630696E+02  0.92662995485E+02  0.22455306363E+02  0.10134483091E+03  0.00000000000E+00 0.  1.
         21    1    1    2  504  502 -0.20035486775E+02 -0.17919115330E+03 -0.18427714649E+03  0.25781574209E+03  0.00000000000E+00 0. -1.
         21    1    1    2  505  504  0.24223408282E+02  0.39554046527E+02 -0.65901542571E+03  0.66064561410E+03  0.00000000000E+00 0.  1.
          1    1    1    2  501    0 -0.38540552202E+02  0.46974111289E+02 -0.21388757163E+04  0.21397385988E+04  0.00000000000E+00 0.  1.
<scales pt_clust_3="110.55401" pt_clust_4="14000.00000" pt_clust_5="46.38207" pt_clust_6="83.96265"></scales>
<clustering>
<clus scale="   46.382">  2  5  1 -1</clus>
<clus scale="   83.963">  2  6  1 -1</clus>
<clus scale="  110.554">  1  3  2 -1</clus>
<clus scale="  110.554">  1  3  2 -1</clus>
</clustering>
</event>
<event>
 6    0  0.6561106E+002  0.1340081E+03  0.7546771E-02  0.1221627E+00
         21   -1    0    0  504  502  0.00000000000E+00  0.00000000000E+00  0.36673801786E+03  0.36673801786E+03  0.00000000000E+00 0. -1.
          2   -1    0    0  505    0 -0.00000000000E+00 -0.00000000000E+00 -0.34230352791E+04  0.34230352791E+04  0.00000000000E+00 0. -1.
         21    1    1    2  503  502  0.37120323749E+02  0.13834639243E+03  0.34385602159E+03  0.37249779371E+03  0.00000000000E+00 0. -1.
         21    1    1    2  504  501  0.31235610980E+02 -0.22246763170E+02 -0.46576254498E+02  0.60331826990E+02  0.00000000000E+00 0. -1.
         21    1    1    2  505  503 -0.24814548585E+02 -0.24441832333E+02 -0.36850677552E+03  0.37014917073E+03  0.00000000000E+00 0. -1.
          2    1    1    2  501    0 -0.43541386144E+02 -0.91657796931E+02 -0.29850702528E+04  0.29867945055E+04  0.00000000000E+00 0. -1.
<scales pt_clust_3="14000.00000" pt_clust_4="38.24728" pt_clust_5="34.83052" pt_clust_6="134.00809"></scales>
<clustering>
<clus scale="   34.831">  2  5  1 -1</clus>
<clus scale="   38.247">  1  4  2 -1</clus>
<clus scale="  134.008">  2  6  1 -1</clus>
<clus scale="   38.247">  1  3  2 -1</clus>
</clustering>
</event>
<event>
 6    0  0.3082502E+002  0.8822713E+02  0.7546771E-02  0.1307203E+00
         21   -1    0    0  505  502  0.00000000000E+00  0.00000000000E+00  0.46723656547E+02  0.46723656547E+02  0.00000000000E+00 0.  1.
          1   -1    0    0  503    0 -0.00000000000E+00 -0.00000000000E+00 -0.18844187379E+04  0.18844187379E+04  0.00000000000E+00 0. -1.
         21    1    1    2  503  504 -0.36116848578E+02  0.12903093440E+03 -0.14301553319E+03  0.19597666064E+03  0.00000000000E+00 0.  1.
         21    1    1    2  504  502  0.12730746817E+02 -0.34490446508E+02 -0.10043170244E+02  0.38112046434E+02  0.00000000000E+00 0.  1.
         21    1    1    2  505  501  0.46478137431E+02 -0.10691541931E+02 -0.10849357621E+03  0.11851321616E+03  0.00000000000E+00 0.  1.
          1    1    1    2  501    0 -0.23092035670E+02 -0.83848945958E+02 -0.15761428017E+04  0.15785404712E+04  0.00000000000E+00 0. -1.
<scales pt_clust_3="14000.00000" pt_clust_4="36.76497" pt_clust_5="50.99672" pt_clust_6="88.22713"></scales>
<clustering>
<clus scale="   36.765">  1  4  2 -1</clus>
<clus scale="   50.997">  1  5  2 -1</clus>
<clus scale="   88.227">  2  6  1 -1</clus>
<clus scale="   36.765">  1  3  2 -1</clus>
</clustering>
</event>
<event>
 6    0  0.3082502E+002  0.2203855E+03  0.7546771E-02  0.1133596E+00
         21   -1    0    0  504  502  0.00000000000E+00  0.00000000000E+00  0.23554158652E+02  0.23554158652E+02  0.00000000000E+00 0. -1.
          2   -1    0    0  505    0 -0.00000000000E+00 -0.00000000000E+00 -0.34028606756E+04  0.34028606756E+04  0.00000000000E+00 0. -1.
         21    1    1    2  503  502  0.22521944424E+03  0.19824667718E+02 -0.91513017331E+03  0.94264524060E+03  0.00000000000E+00 0. -1.
         21    1    1    2  504  501 -0.94593211341E+02  0.22401715534E+02 -0.43853394636E+03  0.44917895610E+03  0.00000000000E+00 0.  1.
         21    1    1    2  505  503 -0.23239856933E+02 -0.31447120966E+02 -0.13344645729E+04  0.13350373436E+04  0.00000000000E+00 0. -1.
          2    1    1    2  501    0 -0.10738637597E+03 -0.10779262286E+02 -0.69117782441E+03  0.69955329403E+03  0.00000000000E+00 0. -1.
<scales pt_clust_3="214.85693" pt_clust_4="45.50038" pt_clust_5="39.10259" pt_clust_6="45.50038"></scales>
<clustering>
<clus scale="   39.103">  2  5  1 -1</clus>
<clus scale="   45.500">  4  6 -1 -1</clus>
<clus scale="  214.857">  1  3  2 -1</clus>
<clus scale="  214.857">  1  3  2 -1</clus>
</clustering>
</event>
<event>
 6    0  0.3082502E+002  0.9866921E+02  0.7546771E-02  0.1283120E+00
         21   -1    0    0  501  502  0.00000000000E+00  0.00000000000E+00  0.36260655718E+02  0.36260655718E+02  0.00000000000E+00 0. -1.
          4   -1    0    0  503    0 -0.00000000000E+00 -0.00000000000E+00 -0.11297922392E+04  0.11297922392E+04  0.00000000000E+00 0. -1.
         21    1    1    2  503  505  0.47693527681E+02 -0.50702076255E+02 -0.25968600938E+03  0.26885348536E+03  0.00000000000E+00 0. -1.
         21    1    1    2  504  502  0.34423610021E+02  0.12196585304E+02 -0.64468684263E+01  0.37085087737E+02  0.00000000000E+00 0. -1.
         21    1    1    2  505  504  0.25072741928E+02 -0.50698052733E+02 -0.70045989275E+02  0.90029859225E+02  0.00000000000E+00 0. -1.
          4    1    1    2  501    0 -0.10718987963E+03  0.89203543684E+02 -0.75735271637E+03  0.77008446257E+03  0.00000000000E+00 0. -1.
<scales pt_clust_3="98.66921" pt_clust_4="36.52043" pt_clust_5="61.12389" pt_clust_6="14000.00000"></scales>
<clustering>
<clus scale="   36.520">  1  4  2 -1</clus>
<clus scale="   61.124">  1  5  2 -1</clus>
<clus scale="   98.669">  2  3  1 -1</clus>
<clus scale="   36.520">  1  3  2 -1</clus>
</clustering>
</event>
<event>
 6    0  0.3082502E+002  0.1630919E+03  0.7546771E-02  0.1185250E+00
         21   -1    0    0  504  502  0.00000000000E+00  0.00000000000E+00  0.13590242904E+04  0.13590242904E+04  0.00000000000E+00 0. -1.
          2   -1    0    0  503    0 -0.00000000000E+00 -0.00000000000E+00 -0.34807781486E+04  0.34807781486E+04  0.00000000000E+00 0.  1.
         21    1    1    2  503  505  0.12870358099E+03 -0.33012487044E+02 -0.11709601668E+04  0.11784745005E+04  0.00000000000E+00 0.  1.
         21    1    1    2  504  501  0.47627516494E+02 -0.19438302363E+02  0.29307693675E+02  0.59204466340E+02  0.00000000000E+00 0. -1.
         21    1    1    2  505  502 -0.36613559526E+01 -0.55948372623E+02  0.13058728205E+04  0.13070759156E+04  0.00000000000E+00 0. -1.
          2    1    1    2  501    0 -0.17266974153E+03  0.10839916203E+03 -0.22859742055E+04  0.22950475564E+04  0.00000000000E+00 0.  1.
<scales pt_clust_3="163.09187" pt_clust_4="51.44150" pt_clust_5="87.01363" pt_clust_6="14000.00000"></scales>
<clustering>
<clus scale="   51.442">  1  4  2 -1</clus>
<clus scale="   87.014">  1  5  2 -1</clus>
<clus scale="  163.092">  2  3  1 -1</clus>
<clus scale="   51.442">  1  3  2 -1</clus>
</clustering>
</event>
<event>
 6    0  0.3082502E+002  0.1152107E+03  0.7546771E-02  0.1251214E+00
         21   -1    0    0  503  502  0.00000000000E+00  0.00000000000E+00  0.40677438636E+03  0.40677438636E+03  0.00000000000E+00 0.  1.
          1   -1    0    0  504    0 -0.00000000000E+00 -0.00000000000E+00 -0.35188647638E+04  0.35188647638E+04  0.00000000000E+00 0. -1.
         21    1    1    2  503  501  0.42366127772E+02  0.20827809336E+02  0.36091075525E+03  0.36398524652E+03  0.00000000000E+00 0.  1.
         21    1    1    2  504  505 -0.60233161067E+02  0.14482054093E+02 -0.93467822232E+03  0.93672895912E+03  0.00000000000E+00 0.  1.
         21    1    1    2  505  502  0.34803064974E+02  0.68739668821E+02  0.70500780685E+01  0.77369884335E+02  0.00000000000E+00 0.  1.
          1    1    1    2  501    0 -0.16936031678E+02 -0.10404953225E+03 -0.25453729885E+04  0.25475550602E+04  0.00000000000E+00 0. -1.
<scales pt_clust_3="47.20897" pt_clust_4="61.11343" pt_clust_5="115.21068" pt_clust_6="14000.00000"></scales>
<clustering>
<clus scale="   47.209">  1  3  2 -1</clus>
<clus scale="   61.113">  2  4  1 -1</clus>
<clus scale="  115.211">  1  5  2 -1</clus>
<clus scale="   47.209">  1  3  2 -1</clus>
</clustering>
</event>
<event>
 6    0  0.3082502E+002  0.9923860E+02  0.7546771E-02  0.1281905E+00
         21   -1    0    0  504  502  0.00000000000E+00  0.00000000000E+00  0.78563433870E+02  0.78563433870E+02  0.00000000000E+00 0.  1.
          2   -1    0    0  505    0 -0.00000000000E+00 -0.00000000000E+00 -0.86542253332E+03  0.86542253332E+03  0.00000000000E+00 0.  1.
         21    1    1    2  503  501  0.86786153646E+02  0.75281434994E+01  0.18107433939E+02  0.88974089336E+02  0.00000000000E+00 0.  1.
         21    1    1    2  504  503  0.33309541547E+02 -0.51451959987E+01 -0.35568466605E+02  0.49001167503E+02  0.00000000000E+00 0. -1.
         21    1    1    2  505  502 -0.23829276494E+02 -0.30668459650E+02 -0.10124050809E+02  0.40135834865E+02  0.00000000000E+00 0.  1.
          2    1    1    2  501    0 -0.96266418699E+02  0.28285512149E+02 -0.75927401597E+03  0.76587487548E+03  0.00000000000E+00 0.  1.
<scales pt_clust_3="99.23860" pt_clust_4="33.70458" pt_clust_5="35.94853" pt_clust_6="14000.00000"></scales>
<clustering>
<clus scale="   33.705">  1  4  2 -1</clus>
<clus scale="   35.949">  1  5  2 -1</clus>
<clus scale="   99.239">  1  3  2 -1</clus>
<clus scale="   33.705">  1  3  2 -1</clus>
</clustering>
</event>
<event>
 6    0  0.3082502E+002  0.1846738E+03  0.7546771E-02  0.1163355E+00
          2   -1    0    0  503    0 -0.00000000000E+00  0.00000000000E+00  0.47825571959E+04  0.47825571959E+04  0.00000000000E+00 0. -1.
         21   -1    0    0  501  502  0.00000000000E+00 -0.00000000000E+00 -0.10043223599E+03  0.10043223599E+03  0.00000000000E+00 0.  1.
         21    1    1    2  503  505 -0.28752219147E+02  0.14432326674E+03  0.10765322072E+04  0.10865438272E+04  0.00000000000E+00 0. -1.
         21    1    1    2  504  502 -0.59352629956E+02 -0.20719627569E+02 -0.74820014004E+02  0.97724470553E+02  0.00000000000E+00 0.  1.
         21    1    1    2  505  504 -0.63268971287E+02  0.39383442628E+02  0.24425935507E+03  0.25537550944E+03  0.00000000000E+00 0. -1.
          2    1    1    2  501    0  0.15137382039E+03 -0.16298708180E+03  0.34361534117E+04  0.34433456247E+04  0.00000000000E+00 0. -1.
<scales pt_clust_3="184.67377" pt_clust_4="62.86523" pt_clust_5="92.03412" pt_clust_6="14000.00000"></scales>
<clustering>
<clus scale="   62.865">  2  4  1 -1</clus>
<clus scale="   92.034">  2  5  1 -1</clus>
<clus scale="  184.674">  2  3  1 -1</clus>
<clus scale="   62.865">  2  3  1 -1</clus>
</clustering>
</event>
<event>
 6    0  0.3082502E+002  0.1082640E+03  0.7546771E-02  0.1263819E+00
         21   -1    0    0  504  502  0.00000000000E+00  0.00000000000E+00  0.78487865612E+03  0.78487865612E+03  0.00000000000E+00 0. -1.
          1   -1    0    0  505    0 -0.00000000000E+00 -0.00000000000E+00 -0.54307941903E+03  0.54307941903E+03  0.00000000000E+00 0.  1.
         21    1    1    2  503  502  0.37002431409E+02  0.10610643711E+02 -0.11920997553E+03  0.12527084240E+03  0.00000000000E+00 0.  1.
         21    1    1    2  504  501  0.86026503688E+01  0.10774159386E+03  0.75771418223E+03  0.76538424245E+03  0.00000000000E+00 0. -1.
         21    1    1    2  505  503 -0.37062849833E+02  0.74574698631E+01 -0.26385266551E+02  0.46102613651E+02  0.00000000000E+00 0.  1.
          1    1    1    2  501    0 -0.85422319446E+01 -0.12580970744E+03 -0.37031970306E+03  0.39120037664E+03  0.00000000000E+00 0.  1.
<scales pt_clust_3="30.68467" pt_clust_4="108.26404" pt_clust_5="37.80567" pt_clust_6="14000.00000"></scales>
<clustering>
<clus scale="   37.806">  2  5  1 -1</clus>
<clus scale="   30.685">  2  3  1 -1</clus>
<clus scale="  108.264">  1  4  2 -1</clus>
<clus scale="  108.264">  1  3  2 -1</clus>
</clustering>
</event>
<event>
 6    0  0.3082502E+002  0.2169733E+03  0.7546771E-02  0.1136160E+00
         21   -1    0    0  505  502  0.00000000000E+00  0.00000000000E+00  0.70780605777E+03  0.70780605777E+03  0.00000000000E+00 0.  1.
          1   -1    0    0  504    0 -0.00000000000E+00 -0.00000000000E+00 -0.11282994005E+04  0.11282994005E+04  0.00000000000E+00 0. -1.
         21    1    1    2  503  502  0.40885431496E+02  0.15815098600E+03  0.60573532301E+03  0.62737439733E+03  0.00000000000E+00 0.  1.
         21    1    1    2  504  503 -0.35430824611E+02 -0.54229869282E+02 -0.93491843140E+02  0.11374069979E+03  0.00000000000E+00 0.  1.
         21    1    1    2  505  501  0.12258873445E+03 -0.54231974071E+01  0.23725762860E+02  0.12498128143E+03  0.00000000000E+00 0.  1.
          1    1    1    2  501    0 -0.12804334133E+03 -0.98497919314E+02 -0.95646258545E+03  0.97000907972E+03  0.00000000000E+00 0. -1.
<scales pt_clust_3="14000.00000" pt_clust_4="64.77825" pt_clust_5="121.10951" pt_clust_6="216.97333"></scales>
<clustering>
<clus scale="   64.778">  2  4  1 -1</clus>
<clus scale="  121.110">  1  5  2 -1</clus>
<clus scale="  216.973">  2  6  1 -1</clus>
<clus scale="  121.110">  1  3  2 -1</clus>
</clustering>
</event>
<event>
 6    0  0.3082502E+002  0.2261682E+03  0.7546771E-02  0.1129366E+00
          1   -1    0    0  505    0 -0.00000000000E+00  0.00000000000E+00  0.20053612378E+04  0.20053612378E+04  0.00000000000E+00 0.  1.
         21   -1    0    0  501  502  0.00000000000E+00 -0.00000000000E+00 -0.11270332098E+03  0.11270332098E+03  0.00000000000E+00 0.  1.
         21    1    1    2  503  502 -0.63717886642E+02  0.47911058490E+02  0.72592341575E+01  0.80050828130E+02  0.00000000000E+00 0.  1.
         21    1    1    2  504  503 -0.10419672715E+03  0.76900272252E+02  0.68264184171E+02  0.14639196926E+03  0.00000000000E+00 0.  1.
         21    1    1    2  505  504 -0.26376227246E+02  0.53870132151E+02  0.13776807176E+04  0.13789858071E+04  0.00000000000E+00 0.  1.
          1    1    1    2  501    0  0.19429084104E+03 -0.17868146289E+03  0.43945378083E+03  0.51263595424E+03  0.00000000000E+00 0.  1.
<scales pt_clust_3="33.28198" pt_clust_4="33.28198" pt_clust_5="59.98080" pt_clust_6="222.15460"></scales>
<clustering>
<clus scale="   33.282">  3  4 -1 -1</clus>
<clus scale="   59.981">  1  5  2 -1</clus>
<clus scale="  222.155">  1  6  2 -1</clus>
<clus scale="  226.168">  2  3  1 -1</clus>
</clustering>
</event>
<event>
 6    0  0.3082502E+002  0.1285243E+03  0.7546771E-02  0.1229662E+00
          2   -1    0    0  504    0 -0.00000000000E+00  0.00000000000E+00  0.15302382044E+04  0.15302382044E+04  0.00000000000E+00 0. -1.
         21   -1    0    0  503  502  0.00000000000E+00 -0.00000000000E+00 -0.27686670213E+02  0.27686670213E+02  0.00000000000E+00 0. -1.
         21    1    1    2  503  501  0.67782179150E+02  0.12902680373E+03  0.28014535987E+03  0.31579069420E+03  0.00000000000E+00 0. -1.
         21    1    1    2  504  505  0.10510766113E+02 -0.53412445144E+02  0.31841621877E+03  0.32303599471E+03  0.00000000000E+00 0. -1.
         21    1    1    2  505  502  0.25495684525E+02 -0.41002431226E+02  0.16061677692E+03  0.16771695896E+03  0.00000000000E+00 0. -1.
          2    1    1    2  501    0 -0.10378862979E+03 -0.34611927359E+02  0.74337317864E+03  0.75138122675E+03  0.00000000000E+00 0. -1.
<scales pt_clust_3="128.52426" pt_clust_4="106.61074" pt_clust_5="32.00971" pt_clust_6="14000.00000"></scales>
<clustering>
<clus scale="   32.010">  4  5 -1 -1</clus>
<clus scale="  106.611">  1  4  2 -1</clus>
<clus scale="  128.524">  2  3  1 -1</clus>
<clus scale="  128.524">  2  3  1 -1</clus>
</clustering>
</event>
<event>
 6    0  0.3082502E+002  0.8077604E+02  0.7546771E-02  0.1326863E+00
          2   -1    0    0  503    0 -0.00000000000E+00  0.00000000000E+00  0.14694362576E+03  0.14694362576E+03  0.00000000000E+00 0.  1.
         21   -1    0    0  504  502  0.00000000000E+00 -0.00000000000E+00 -0.23019608049E+04  0.23019608049E+04  0.00000000000E+00 0. -1.
         21    1    1    2  503  505  0.69873384388E+01  0.30512953218E+02  0.96564285058E+02  0.10151120313E+03  0.00000000000E+00 0.  1.
         21    1    1    2  504  501  0.68392073382E+01 -0.52347876849E+02 -0.30612859827E+03  0.31064737830E+03  0.00000000000E+00 0. -1.
         21    1    1    2  505  502 -0.11040500356E+02  0.94391590410E+02 -0.19603258583E+04  0.19626281196E+04  0.00000000000E+00 0. -1.
          2    1    1    2  501    0 -0.27860454213E+01 -0.72556666779E+02  0.14872992391E+02  0.74117729633E+02  0.00000000000E+00 0.  1.
<scales pt_clust_3="31.30277" pt_clust_4="14000.00000" pt_clust_5="80.77604" pt_clust_6="44.37085"></scales>
<clustering>
<clus scale="   31.303">  1  3  2 -1</clus>
<clus scale="   44.371">  1  6  2 -1</clus>
<clus scale="   80.776">  2  5  1 -1</clus>
<clus scale="   80.776">  2  3  1 -1</clus>
</clustering>
</event>
<event>
 6    0  0.3082502E+002  0.7705765E+02  0.7546771E-02  0.1337615E+00
         21   -1    0    0  505  502  0.00000000000E+00  0.00000000000E+00  0.35681735858E+02  0.35681735858E+02  0.00000000000E+00 0.  1.
         -2   -1    0    0    0  501 -0.00000000000E+00 -0.00000000000E+00 -0.19099153538E+04  0.19099153538E+04  0.00000000000E+00 0.  1.
         21    1    1    2  503  502  0.34215212949E+02 -0.35385612801E+02 -0.79406039789E+02  0.93424523255E+02  0.00000000000E+00 0.  1.
         21    1    1    2  504  503  0.79948177741E+02  0.33972371428E+02 -0.75535358544E+03  0.76033208021E+03  0.00000000000E+00 0.  1.
         21    1    1    2  505  501 -0.39948650019E+02  0.10811992840E+01  0.88180841833E+01  0.40924592104E+02  0.00000000000E+00 0.  1.
         -2    1    1    2    0  504 -0.74214740670E+02  0.33204208890E+00 -0.10482920769E+04  0.10509158941E+04  0.00000000000E+00 0.  1.
<scales pt_clust_3="35.66696" pt_clust_4="77.05765" pt_clust_5="39.96328" pt_clust_6="14000.00000"></scales>
<clustering>
<clus scale="   39.963">  1  5  2 -1</clus>
<clus scale="   35.667">  1  3  2 -1</clus>
<clus scale="   77.058">  1  4  2 -1</clus>
<clus scale="   39.963">  1  3  2 -1</clus>
</clustering>
</event>
<event>
 6    0  0.3082502E+002  0.1568504E+03  0.7546771E-02  0.1192299E+00
         21   -1    0    0  504  502  0.00000000000E+00  0.00000000000E+00  0.99473076917E+02  0.99473076917E+02  0.00000000000E+00 0.  1.
          1   -1    0    0  503    0 -0.00000000000E+00 -0.00000000000E+00 -0.11275015654E+04  0.11275015654E+04  0.00000000000E+00 0. -1.
         21    1    1    2  503  502  0.39911428246E+02 -0.16962671013E+02 -0.88369838998E+02  0.98437202099E+02  0.00000000000E+00 0. -1.
         21    1    1    2  504  505  0.77565363079E+02 -0.50112863787E+02  0.28108350333E+02  0.96528565849E+02  0.00000000000E+00 0.  1.
         21    1    1    2  505  501  0.51230648378E+02 -0.24408238439E+02 -0.13097037349E+02  0.58239795881E+02  0.00000000000E+00 0.  1.
          1    1    1    2  501    0 -0.16870743970E+03  0.91483773238E+02 -0.95466996243E+03  0.97376907845E+03  0.00000000000E+00 0. -1.
<scales pt_clust_3="43.36651" pt_clust_4="31.22000" pt_clust_5="31.22000" pt_clust_6="151.71011"></scales>
<clustering>
<clus scale="   31.220">  4  5 -1 -1</clus>
<clus scale="   43.367">  2  3  1 -1</clus>
<clus scale="  151.710">  2  6  1 -1</clus>
<clus scale="  156.850">  1  3  2 -1</clus>
</clustering>
</event>
<event>
 6    0  0.3082502E+002  0.1302169E+03  0.7546771E-02  0.1227134E+00
          2   -1    0    0  504    0 -0.00000000000E+00  0.00000000000E+00  0.17558541695E+04  0.17558541695E+04  0.00000000000E+00 0.  1.
         21   -1    0    0  505  502  0.00000000000E+00 -0.00000000000E+00 -0.26332717318E+03  0.26332717318E+03  0.00000000000E+00 0.  1.
         21    1    1    2  503  502  0.13857529875E+03  0.65478323478E+02 -0.39930106251E+00  0.15326670777E+03  0.00000000000E+00 0.  1.
         21    1    1    2  504  503 -0.35221298075E+02  0.90193173526E+01  0.90543967149E+03  0.90616934766E+03  0.00000000000E+00 0.  1.
         21    1    1    2  505  501 -0.70471255784E+01 -0.50740952177E+02 -0.17934845007E+03  0.18652123940E+03  0.00000000000E+00 0.  1.
          2    1    1    2  501    0 -0.96306875095E+02 -0.23756688654E+02  0.76683507594E+03  0.77322404782E+03  0.00000000000E+00 0.  1.
<scales pt_clust_3="14000.00000" pt_clust_4="36.35778" pt_clust_5="51.21096" pt_clust_6="130.21690"></scales>
<clustering>
<clus scale="   36.358">  1  4  2 -1</clus>
<clus scale="   51.211">  2  5  1 -1</clus>
<clus scale="  130.217">  1  6  2 -1</clus>
<clus scale="   51.211">  2  3  1 -1</clus>
</clustering>
</event>
<event>
 6    0  0.3082502E+002  0.8797126E+02  0.7546771E-02  0.1307840E+00
         21   -1    0    0  504  502  0.00000000000E+00  0.00000000000E+00  0.47858050023E+02  0.47858050023E+02  0.00000000000E+00 0.  1.
          1   -1    0    0  503    0 -0.00000000000E+00 -0.00000000000E+00 -0.21171107352E+04  0.21171107352E+04  0.00000000000E+00 0.  1.
         21    1    1    2  503  505 -0.33666313637E+02  0.45625799912E+02 -0.69488266950E+03  0.69719226807E+03  0.00000000000E+00 0. -1.
         21    1    1    2  504  501  0.73057222549E+02 -0.20318263283E+02 -0.24037091832E+01  0.75868092156E+02  0.00000000000E+00 0.  1.
         21    1    1    2  505  502 -0.58311412867E+02  0.87586171291E+02 -0.41547291194E+03  0.42858989585E+03  0.00000000000E+00 0. -1.
          1    1    1    2  501    0  0.18920503954E+02 -0.11289370792E+03 -0.95649339453E+03  0.96331852911E+03  0.00000000000E+00 0.  1.
<scales pt_clust_3="56.70215" pt_clust_4="74.60627" pt_clust_5="87.97126" pt_clust_6="14000.00000"></scales>
<clustering>
<clus scale="   56.702">  2  3  1 -1</clus>
<clus scale="   74.606">  1  4  2 -1</clus>
<clus scale="   87.971">  1  5  2 -1</clus>
<clus scale="   74.606">  1  3  2 -1</clus>
</clustering>
</event>
<event>
 6    0  0.3082502E+002  0.7348584E+02  0.7546771E-02  0.1348625E+00
          1   -1    0    0  504    0 -0.00000000000E+00  0.00000000000E+00  0.52808820845E+03  0.52808820845E+03  0.00000000000E+00 0.  1.
         21   -1    0    0  505  502  0.00000000000E+00 -0.00000000000E+00 -0.62484170737E+03  0.62484170737E+03  0.00000000000E+00 0.  1.
         21    1    1    2  503  501 -0.98319519095E+02  0.30902603646E+02 -0.32146429779E+03  0.33758109174E+03  0.00000000000E+00 0.  1.
         21    1    1    2  504  502 -0.19997551476E+02  0.31355773997E+02  0.25820611067E+02  0.45274613017E+02  0.00000000000E+00 0.  1.
         21    1    1    2  505  503  0.26708625111E+02 -0.23844675662E+02 -0.27934550601E+03  0.28163066406E+03  0.00000000000E+00 0.  1.
          1    1    1    2  501    0  0.91608445460E+02 -0.38413701981E+02  0.47823569380E+03  0.48844354700E+03  0.00000000000E+00 0.  1.
<scales pt_clust_3="14000.00000" pt_clust_4="36.21735" pt_clust_5="35.80390" pt_clust_6="73.48584"></scales>
<clustering>
<clus scale="   35.804">  2  5  1 -1</clus>
<clus scale="   36.217">  1  4  2 -1</clus>
<clus scale="   73.486">  1  6  2 -1</clus>
<clus scale="   35.804">  2  3  1 -1</clus>
</clustering>
</event>
<event>
 6    0  0.3082502E+002  0.8587236E+02  0.7546771E-02  0.1313167E+00
         21   -1    0    0  501  502  0.00000000000E+00  0.00000000000E+00  0.22040994549E+02  0.22040994549E+02  0.00000000000E+00 0. -1.
          2   -1    0    0  504    0 -0.00000000000E+00 -0.00000000000E+00 -0.16888667560E+04  0.16888667560E+04  0.00000000000E+00 0.  1.
         21    1    1    2  503  502  0.63531856502E+02  0.13767577274E+02 -0.15638830928E+03  0.16936099390E+03  0.00000000000E+00 0. -1.
         21    1    1    2  504  505  0.87383061956E+01  0.42297046534E+02 -0.30115777455E+03  0.30423905619E+03  0.00000000000E+00 0. -1.
         21    1    1    2  505  503 -0.12118281892E+03 -0.21546641394E+02 -0.27708155422E+03  0.30318924956E+03  0.00000000000E+00 0. -1.
          2    1    1    2  501    0  0.48912656223E+02 -0.34517982414E+02 -0.93219812336E+03  0.93411845086E+03  0.00000000000E+00 0.  1.
<scales pt_clust_3="14000.00000" pt_clust_4="43.19026" pt_clust_5="85.87236" pt_clust_6="55.12753"></scales>
<clustering>
<clus scale="   43.190">  2  4  1 -1</clus>
<clus scale="   55.128">  2  6  1 -1</clus>
<clus scale="   85.872">  2  5  1 -1</clus>
<clus scale="   85.872">  1  3  2 -1</clus>
</clustering>
</event>
<event>
 6    0  0.3082502E+002  0.1587000E+03  0.7546771E-02  0.1190172E+00
          1   -1    0    0  502    0 -0.00000000000E+00  0.00000000000E+00  0.20008139443E+04  0.20008139443E+04  0.00000000000E+00 0. -1.
         21   -1    0    0  503  502  0.00000000000E+00 -0.00000000000E+00 -0.60078715184E+02  0.60078715184E+02  0.00000000000E+00 0. -1.
         21    1    1    2  503  505  0.30109794508E+02 -0.96996968954E+01 -0.28062500879E+02  0.42286969633E+02  0.00000000000E+00 0. -1.
         21    1    1    2  504  501 -0.58609907817E+01  0.38135064043E+02  0.36359497201E+03  0.36563634665E+03  0.00000000000E+00 0. -1.
         21    1    1    2  505  504  0.76936553568E+02 -0.98844144001E+02  0.16329820988E+03  0.20580501313E+03  0.00000000000E+00 0. -1.
          1    1    1    2  501    0 -0.10118535729E+03  0.70408776853E+02  0.14419045481E+04  0.14471643301E+04  0.00000000000E+00 0. -1.
<scales pt_clust_3="31.63359" pt_clust_4="31.53410" pt_clust_5="148.35292" pt_clust_6="31.53410"></scales>
<clustering>
<clus scale="   31.534">  4  6 -1 -1</clus>
<clus scale="   31.634">  2  3  1 -1</clus>
<clus scale="  148.353">  2  5  1 -1</clus>
<clus scale="   31.634">  2  3  1 -1</clus>
</clustering>
</event>
<event>
 6    0  0.3082502E+002  0.7829476E+02  0.7546771E-02  0.1333961E+00
         21   -1    0    0  505  502  0.00000000000E+00  0.00000000000E+00  0.56734976923E+03  0.56734976923E+03  0.00000000000E+00 0. -1.
          3   -1    0    0  504    0 -0.00000000000E+00 -0.00000000000E+00 -0.48729460030E+03  0.48729460030E+03  0.00000000000E+00 0. -1.
         21    1    1    2  503  502 -0.16286168860E+02 -0.27797521960E+02  0.31300577617E+03  0.31465943087E+03  0.00000000000E+00 0. -1.
         21    1    1    2  504  503 -0.35474500923E+02  0.31893840562E+01 -0.30025426065E+01  0.35743917644E+02  0.00000000000E+00 0. -1.
         21    1    1    2  505  501  0.12839387396E+03  0.36290365886E+02  0.21475761488E+03  0.25282960799E+03  0.00000000000E+00 0. -1.
          3    1    1    2  501    0 -0.76633204172E+02 -0.11682227982E+02 -0.44470567951E+03  0.45141141304E+03  0.00000000000E+00 0. -1.
<scales pt_clust_3="32.21710" pt_clust_4="36.55277" pt_clust_5="14000.00000" pt_clust_6="78.29476"></scales>
<clustering>
<clus scale="   32.217">  1  3  2 -1</clus>
<clus scale="   36.553">  1  4  2 -1</clus>
<clus scale="   78.295">  2  6  1 -1</clus>
<clus scale="   32.217">  1  3  2 -1</clus>
</clustering>
</event>
<event>
 6    0  0.3082502E+002  0.8001442E+02  0.7546771E-02  0.1329011E+00
         21   -1    0    0  503  502  0.00000000000E+00  0.00000000000E+00  0.62314430401E+03  0.62314430401E+03  0.00000000000E+00 0.  1.
          2   -1    0    0  504    0 -0.00000000000E+00 -0.00000000000E+00 -0.36769426015E+03  0.36769426015E+03  0.00000000000E+00 0. -1.
         21    1    1    2  503  505 -0.13746536735E+01 -0.80111764034E+02  0.57553261704E+03  0.58108310739E+03  0.00000000000E+00 0.  1.
         21    1    1    2  504  502 -0.38009886915E+02 -0.24532794295E+02 -0.24519456199E+02  0.51456906548E+02  0.00000000000E+00 0. -1.
         21    1    1    2  505  501  0.82580385125E+02  0.73312321136E+02 -0.80344455337E+02  0.13656298159E+03  0.00000000000E+00 0. -1.
          2    1    1    2  501    0 -0.43195844536E+02  0.31332237193E+02 -0.21521866165E+03  0.22173556863E+03  0.00000000000E+00 0. -1.
<scales pt_clust_3="80.01442" pt_clust_4="45.23947" pt_clust_5="14000.00000" pt_clust_6="70.02489"></scales>
<clustering>
<clus scale="   45.239">  2  4  1 -1</clus>
<clus scale="   70.025">  2  6  1 -1</clus>
<clus scale="   80.014">  1  3  2 -1</clus>
<clus scale="   80.014">  1  3  2 -1</clus>
</clustering>
</event>
<event>
 6    0  0.3082502E+002  0.1146440E+03  0.7546771E-02  0.1252204E+00
         21   -1    0    0  503  502  0.00000000000E+00  0.00000000000E+00  0.54062225446E+03  0.54062225446E+03  0.00000000000E+00 0. -1.
          2   -1    0    0  504    0 -0.00000000000E+00 -0.00000000000E+00 -0.28460729931E+03  0.28460729931E+03  0.00000000000E+00 0.  1.
         21    1    1    2  503  505 -0.22855725022E+02  0.37660908015E+02  0.43874897424E+02  0.62175033436E+02  0.00000000000E+00 0. -1.
         21    1    1    2  504  502 -0.79244638303E+02  0.30403699200E+02  0.46429342707E+03  0.47198780074E+03  0.00000000000E+00 0. -1.
         21    1    1    2  505  501  0.58423598467E+02 -0.55768122188E+02 -0.82515157205E+02  0.11546493614E+03  0.00000000000E+00 0. -1.
          2    1    1    2  501    0  0.43676764858E+02 -0.12296485028E+02 -0.16963821215E+03  0.17560178345E+03  0.00000000000E+00 0.  1.
<scales pt_clust_3="44.05370" pt_clust_4="114.64401" pt_clust_5="14000.00000" pt_clust_6="45.17812"></scales>
<clustering>
<clus scale="   44.054">  1  3  2 -1</clus>
<clus scale="   45.178">  2  6  1 -1</clus>
<clus scale="  114.644">  1  4  2 -1</clus>
<clus scale="   44.054">  1  3  2 -1</clus>
</clustering>
</event>
<event>
 6    0  0.3082502E+002  0.1173255E+03  0.7546771E-02  0.1247575E+00
         21   -1    0    0  501  502  0.00000000000E+00  0.00000000000E+00  0.98356327879E+02  0.98356327879E+02  0.00000000000E+00 0. -1.
          1   -1    0    0  503    0 -0.00000000000E+00 -0.00000000000E+00 -0.64176449915E+03  0.64176449915E+03  0.00000000000E+00 0.  1.
         21    1    1    2  503  504 -0.12686100877E+03  0.46505780240E+02 -0.18498291276E+03  0.22907461919E+03  0.00000000000E+00 0. -1.
         21    1    1    2  504  505  0.53959591689E+02 -0.48485663990E+02  0.16657112909E+02  0.74430884439E+02  0.00000000000E+00 0. -1.
         21    1    1    2  505  502 -0.36468058321E+02  0.22648218371E+02  0.24683950486E+01  0.42999465662E+02  0.00000000000E+00 0. -1.
          1    1    1    2  501    0  0.10936947540E+03 -0.20668334621E+02 -0.37755076647E+03  0.39361585774E+03  0.00000000000E+00 0.  1.
<scales pt_clust_3="117.32554" pt_clust_4="47.30746" pt_clust_5="42.92856" pt_clust_6="14000.00000"></scales>
<clustering>
<clus scale="   42.929">  1  5  2 -1</clus>
<clus scale="   47.307">  1  4  2 -1</clus>
<clus scale="  117.326">  1  3  2 -1</clus>
<clus scale="   42.929">  1  3  2 -1</clus>
</clustering>
</event>
<event>
 6    0  0.3082502E+002  0.1476796E+03  0.7546771E-02  0.1203354E+00
          2   -1    0    0  505    0 -0.00000000000E+00  0.00000000000E+00  0.18444158976E+03  0.18444158976E+03  0.00000000000E+00 0.  1.
         21   -1    0    0  504  502  0.00000000000E+00 -0.00000000000E+00 -0.54157916952E+03  0.54157916952E+03  0.00000000000E+00 0.  1.
         21    1    1    2  503  501  0.25982348413E+01 -0.76834181842E+02  0.53079632060E+02  0.93422104790E+02  0.00000000000E+00 0.  1.
         21    1    1    2  504  503  0.93154450755E+00  0.11406516408E+03 -0.31238105425E+03  0.33255623959E+03  0.00000000000E+00 0.  1.
         21    1    1    2  505  502 -0.46276242740E+02  0.19748616799E+02 -0.18255243829E+03  0.18935915936E+03  0.00000000000E+00 0.  1.
          2    1    1    2  501    0  0.42746463391E+02 -0.56979599040E+02  0.84716280716E+02  0.11068325554E+03  0.00000000000E+00 0.  1.
<scales pt_clust_3="50.10033" pt_clust_4="138.20370" pt_clust_5="50.31400" pt_clust_6="50.10033"></scales>
<clustering>
<clus scale="   50.100">  3  6 -1 -1</clus>
<clus scale="   50.314">  2  5  1 -1</clus>
<clus scale="  138.204">  2  4  1 -1</clus>
<clus scale="   50.314">  2  3  1 -1</clus>
</clustering>
</event>
<event>
 6    0  0.3082502E+002  0.9944839E+02  0.7546771E-02  0.1281460E+00
         21   -1    0    0  504  502  0.00000000000E+00  0.00000000000E+00  0.64269669582E+03  0.64269669582E+03  0.00000000000E+00 0.  1.
         -1   -1    0    0    0  501 -0.00000000000E+00 -0.00000000000E+00 -0.27414959401E+03  0.27414959401E+03  0.00000000000E+00 0.  1.
         21    1    1    2  503  501 -0.32443333278E+02 -0.13601649500E+02 -0.54139871103E+02  0.64565473640E+02  0.00000000000E+00 0. -1.
         21    1    1    2  504  503 -0.45466596943E+02  0.62748358960E+01  0.32624028296E+02  0.56310853530E+02  0.00000000000E+00 0. -1.
         21    1    1    2  505  502  0.69270065812E+02  0.91844336163E+02  0.57820368274E+03  0.58953644742E+03  0.00000000000E+00 0.  1.
         -1    1    1    2    0  505  0.86398644083E+01 -0.84517522559E+02 -0.18814073812E+03  0.20643351524E+03  0.00000000000E+00 0.  1.
<scales pt_clust_3="35.17918" pt_clust_4="47.57732" pt_clust_5="14000.00000" pt_clust_6="99.44839"></scales>
<clustering>
<clus scale="   35.179">  2  3  1 -1</clus>
<clus scale="   47.577">  1  4  2 -1</clus>
<clus scale="   99.448">  2  6  1 -1</clus>
<clus scale="   47.577">  1  3  2 -1</clus>
</clustering>
</event>
<event>
 6    0  0.3082502E+002  0.1310418E+03  0.7546771E-02  0.1225918E+00
         21   -1    0    0  503  502  0.00000000000E+00  0.00000000000E+00  0.15025377275E+03  0.15025377275E+03  0.00000000000E+00 0. -1.
          2   -1    0    0  504    0 -0.00000000000E+00 -0.00000000000E+00 -0.37198583428E+03  0.37198583428E+03  0.00000000000E+00 0.  1.
         21    1    1    2  503  501  0.11489470473E+03  0.57328686578E+02  0.13492072688E+02  0.12911005966E+03  0.00000000000E+00 0. -1.
         21    1    1    2  504  505 -0.66785016577E+02  0.76117038581E+01 -0.10865055895E+03  0.12776196787E+03  0.00000000000E+00 0. -1.
         21    1    1    2  505  502 -0.11248561226E+03 -0.74726384083E+02 -0.14592451240E+02  0.13583072214E+03  0.00000000000E+00 0. -1.
          2    1    1    2  501    0  0.64375924109E+02  0.97859936465E+01 -0.11198112402E+03  0.12953685736E+03  0.00000000000E+00 0.  1.
<scales pt_clust_3="14000.00000" pt_clust_4="38.48543" pt_clust_5="131.04181" pt_clust_6="65.11548"></scales>
<clustering>
<clus scale="   65.115">  2  6  1 -1</clus>
<clus scale="   38.485">  2  4  1 -1</clus>
<clus scale="  131.042">  2  5  1 -1</clus>
<clus scale="  131.042">  1  3  2 -1</clus>
</clustering>
</event>
<event>
 6    0  0.3082502E+002  0.1075669E+03  0.7546771E-02  0.1265143E+00
          2   -1    0    0  503    0 -0.00000000000E+00  0.00000000000E+00  0.22042964826E+03  0.22042964826E+03  0.00000000000E+00 0. -1.
         21   -1    0    0  505  502  0.00000000000E+00 -0.00000000000E+00 -0.11196885591E+04  0.11196885591E+04  0.00000000000E+00 0. -1.
         21    1    1    2  503  504 -0.11026447160E+03  0.77201476712E+01  0.15328372278E+02  0.11159217434E+03  0.00000000000E+00 0. -1.
         21    1    1    2  504  502  0.91360156975E+00 -0.96768392804E+02 -0.10095983417E+04  0.10142256988E+04  0.00000000000E+00 0. -1.
         21    1    1    2  505  501  0.14516223047E+02  0.26745707123E+02 -0.31881895226E+02  0.44073901850E+02  0.00000000000E+00 0. -1.
          2    1    1    2  501    0  0.94834646983E+02  0.62302538010E+02  0.12689295389E+03  0.17022643231E+03  0.00000000000E+00 0. -1.
<scales pt_clust_3="14000.00000" pt_clust_4="73.19765" pt_clust_5="30.43113" pt_clust_6="107.56686"></scales>
<clustering>
<clus scale="   30.431">  2  5  1 -1</clus>
<clus scale="   73.198">  2  4  1 -1</clus>
<clus scale="  107.567">  1  6  2 -1</clus>
<clus scale="   30.431">  2  3  1 -1</clus>
</clustering>
</event>
<event>
 6    0  0.3082502E+002  0.1084887E+03  0.7546771E-02  0.1263395E+00
         21   -1    0    0  504  502  0.00000000000E+00  0.00000000000E+00  0.22416944544E+03  0.22416944544E+03  0.00000000000E+00 0. -1.
          2   -1    0    0  505    0 -0.00000000000E+00 -0.00000000000E+00 -0.56418299059E+03  0.56418299059E+03  0.00000000000E+00 0. -1.
         21    1    1    2  503  502  0.66226418317E+02 -0.11150663535E+03 -0.42096049073E+02  0.13635155136E+03  0.00000000000E+00 0. -1.
         21    1    1    2  504  501  0.27919556178E+02  0.59720228033E+02  0.15312454471E+03  0.16671272731E+03  0.00000000000E+00 0. -1.
         21    1    1    2  505  503 -0.29661589219E+02 -0.24973328709E+02 -0.21775704821E+02  0.44470870716E+02  0.00000000000E+00 0. -1.
          2    1    1    2  501    0 -0.64484385276E+02  0.76759736028E+02 -0.42926633596E+03  0.44081728665E+03  0.00000000000E+00 0. -1.
<scales pt_clust_3="14000.00000" pt_clust_4="65.47445" pt_clust_5="38.77470" pt_clust_6="108.48866"></scales>
<clustering>
<clus scale="   38.775">  2  5  1 -1</clus>
<clus scale="   65.474">  1  4  2 -1</clus>
<clus scale="  108.489">  2  6  1 -1</clus>
<clus scale="   65.474">  1  3  2 -1</clus>
</clustering>
</event>
<event>
 6    0  0.3082502E+002  0.7497843E+02  0.7546771E-02  0.1343938E+00
         21   -1    0    0  505  502  0.00000000000E+00  0.00000000000E+00  0.13262415373E+04  0.13262415373E+04  0.00000000000E+00 0.  1.
          1   -1    0    0  504    0 -0.00000000000E+00 -0.00000000000E+00 -0.83205325944E+03  0.83205325944E+03  0.00000000000E+00 0.  1.
         21    1    1    2  503  502 -0.32752106606E+02  0.45037351475E+02  0.16464470399E+03  0.17380719798E+03  0.00000000000E+00 0.  1.
         21    1    1    2  504  503  0.19358000207E+02 -0.65493829945E+02 -0.11024848745E+03  0.12968771306E+03  0.00000000000E+00 0. -1.
         21    1    1    2  505  501  0.88028870660E+02  0.61086693426E+01  0.11435502911E+04  0.11469497226E+04  0.00000000000E+00 0.  1.
          1    1    1    2  501    0 -0.74634764262E+02  0.14347809127E+02 -0.70375822970E+03  0.70785016319E+03  0.00000000000E+00 0.  1.
<scales pt_clust_3="55.68719" pt_clust_4="67.85413" pt_clust_5="14000.00000" pt_clust_6="74.97843"></scales>
<clustering>
<clus scale="   55.687">  1  3  2 -1</clus>
<clus scale="   67.854">  2  4  1 -1</clus>
<clus scale="   74.978">  2  6  1 -1</clus>
<clus scale="   55.687">  1  3  2 -1</clus>
</clustering>
</event>
<event>
 6    0  0.3082502E+002  0.2227804E+03  0.7546771E-02  0.1131827E+00
         21   -1    0    0  504  502  0.00000000000E+00  0.00000000000E+00  0.58392899939E+03  0.58392899939E+03  0.00000000000E+00 0. -1.
         -1   -1    0    0    0  501 -0.00000000000E+00 -0.00000000000E+00 -0.34922777527E+03  0.34922777527E+03  0.00000000000E+00 0. -1.
         21    1    1    2  503  501 -0.30429157455E+02 -0.13022108083E+02 -0.82621986897E+02  0.89005065256E+02  0.00000000000E+00 0. -1.
         21    1    1    2  504  503 -0.16161721963E+03  0.16710507080E+03  0.29094290833E+03  0.37241375683E+03  0.00000000000E+00 0. -1.
         21    1    1    2  505  502  0.12478393632E+03 -0.17243329311E+03  0.19537783442E+03  0.28892346655E+03  0.00000000000E+00 0. -1.
         -1    1    1    2    0  505  0.67262440771E+02  0.18350330395E+02 -0.16899753175E+03  0.18281448602E+03  0.00000000000E+00 0. -1.
<scales pt_clust_3="33.09847" pt_clust_4="222.78044" pt_clust_5="14000.00000" pt_clust_6="47.92457"></scales>
<clustering>
<clus scale="   33.098">  2  3  1 -1</clus>
<clus scale="   47.925">  2  6  1 -1</clus>
<clus scale="  222.780">  1  4  2 -1</clus>
<clus scale="  222.780">  1  3  2 -1</clus>
</clustering>
</event>
<event>
 6    0  0.3082502E+002  0.1263269E+03  0.7546771E-02  0.1233010E+00
         21   -1    0    0  501  502  0.00000000000E+00  0.00000000000E+00  0.91757575852E+02  0.91757575852E+02  0.00000000000E+00 0.  1.
          4   -1    0    0  504    0 -0.00000000000E+00 -0.00000000000E+00 -0.29605936428E+03  0.29605936428E+03  0.00000000000E+00 0. -1.
         21    1    1    2  503  502 -0.17636450818E+02  0.55601760903E+02  0.27337578374E+02  0.64420054365E+02  0.00000000000E+00 0.  1.
         21    1    1    2  504  505  0.11612975313E+02  0.30448631277E+02 -0.61641381149E+02  0.69725463155E+02  0.00000000000E+00 0.  1.
         21    1    1    2  505  503 -0.27686715995E+02  0.42721313826E+02 -0.24587356280E+02  0.56534971357E+02  0.00000000000E+00 0.  1.
          4    1    1    2  501    0  0.33710191500E+02 -0.12877170601E+03 -0.14541062937E+03  0.19713645125E+03  0.00000000000E+00 0. -1.
<scales pt_clust_3="51.15557" pt_clust_4="32.58804" pt_clust_5="51.15557" pt_clust_6="114.26967"></scales>
<clustering>
<clus scale="   32.588">  2  4  1 -1</clus>
<clus scale="   51.156">  3  5 -1 -1</clus>
<clus scale="  114.270">  2  6  1 -1</clus>
<clus scale="  126.327">  1  3  2 -1</clus>
</clustering>
</event>
<event>
 6    0  0.3082502E+002  0.8790645E+02  0.7546771E-02  0.1308002E+00
          2   -1    0    0  503    0 -0.00000000000E+00  0.00000000000E+00  0.17372012161E+04  0.17372012161E+04  0.00000000000E+00 0. -1.
         21   -1    0    0  505  502  0.00000000000E+00 -0.00000000000E+00 -0.10527365241E+03  0.10527365241E+03  0.00000000000E+00 0.  1.
         21    1    1    2  503  504 -0.15596398781E+02 -0.28846952992E+02  0.45978230020E+03  0.46095027706E+03  0.00000000000E+00 0. -1.
         21    1    1    2  504  502  0.14416148620E+03  0.14751152922E+02  0.17101008330E+03  0.22415302631E+03  0.00000000000E+00 0. -1.
         21    1    1    2  505  501 -0.80403215677E+02  0.17454172604E+02 -0.55749497724E+02  0.99384766081E+02  0.00000000000E+00 0.  1.
          2    1    1    2  501    0 -0.48161871741E+02 -0.33583725346E+01  0.10568846779E+04  0.10579867990E+04  0.00000000000E+00 0. -1.
<scales pt_clust_3="32.79321" pt_clust_4="87.90645" pt_clust_5="14000.00000" pt_clust_6="66.88083"></scales>
<clustering>
<clus scale="   32.793">  1  3  2 -1</clus>
<clus scale="   66.881">  1  6  2 -1</clus>
<clus scale="   87.906">  1  4  2 -1</clus>
<clus scale="   87.906">  2  3  1 -1</clus>
</clustering>
</event>
<event>
 6    0  0.3082502E+002  0.8201401E+02  0.7546771E-02  0.1323431E+00
          4   -1    0    0  505    0 -0.00000000000E+00  0.00000000000E+00  0.94820230655E+03  0.94820230655E+03  0.00000000000E+00 0.  1.
         21   -1    0    0  503  502  0.00000000000E+00 -0.00000000000E+00 -0.23762710699E+03  0.23762710699E+03  0.00000000000E+00 0.  1.
         21    1    1    2  503  504 -0.58621197171E+02 -0.32527101411E+01 -0.16494320292E+03  0.17508079584E+03  0.00000000000E+00 0.  1.
         21    1    1    2  504  501  0.11911948826E+03 -0.52514364939E+02  0.10175089975E+01  0.13018543057E+03  0.00000000000E+00 0.  1.
         21    1    1    2  505  502 -0.17428830524E+02  0.34601107820E+02  0.16693654038E+03  0.17137330396E+03  0.00000000000E+00 0.  1.
          4    1    1    2  501    0 -0.43069460563E+02  0.21165967260E+02  0.70756435311E+03  0.70918988317E+03  0.00000000000E+00 0.  1.
<scales pt_clust_3="58.81258" pt_clust_4="14000.00000" pt_clust_5="38.74275" pt_clust_6="82.01401"></scales>
<clustering>
<clus scale="   38.743">  1  5  2 -1</clus>
<clus scale="   58.813">  2  3  1 -1</clus>
<clus scale="   82.014">  1  6  2 -1</clus>
<clus scale="   58.813">  2  3  1 -1</clus>
</clustering>
</event>
<event>
 6    0  0.3082502E+002  0.1345910E+03  0.7546771E-02  0.1220798E+00
          2   -1    0    0  503    0 -0.00000000000E+00  0.00000000000E+00  0.18778456207E+04  0.18778456207E+04  0.00000000000E+00 0. -1.
         21   -1    0    0  504  502  0.00000000000E+00 -0.00000000000E+00 -0.73955404061E+02  0.73955404061E+02  0.00000000000E+00 0.  1.
         21    1    1    2  503  505  0.62523421570E+02  0.92281215941E+02  0.10309150033E+03  0.15183167818E+03  0.00000000000E+00 0.  1.
         21    1    1    2  504  501 -0.10378506186E+03 -0.14040395308E+03  0.20112830399E+03  0.26634039080E+03  0.00000000000E+00 0.  1.
         21    1    1    2  505  502  0.26543513367E+02 -0.19342159649E+02  0.47754195622E+00  0.32846693716E+02  0.00000000000E+00 0.  1.
          2    1    1    2  501    0  0.14718126926E+02  0.67464896789E+02  0.14991928704E+04  0.15007822621E+04  0.00000000000E+00 0. -1.
<scales pt_clust_3="134.59097" pt_clust_4="14000.00000" pt_clust_5="32.84322" pt_clust_6="68.87080"></scales>
<clustering>
<clus scale="   32.843">  2  5  1 -1</clus>
<clus scale="   68.871">  1  6  2 -1</clus>
<clus scale="  134.591">  2  3  1 -1</clus>
<clus scale="   32.843">  2  3  1 -1</clus>
</clustering>
</event>
<event>
 6    0  0.3082502E+002  0.1419231E+03  0.7546771E-02  0.1210764E+00
          2   -1    0    0  504    0 -0.00000000000E+00  0.00000000000E+00  0.14709272916E+04  0.14709272916E+04  0.00000000000E+00 0.  1.
         21   -1    0    0  503  502  0.00000000000E+00 -0.00000000000E+00 -0.22629807018E+03  0.22629807018E+03  0.00000000000E+00 0. -1.
         21    1    1    2  503  505 -0.46184037180E+02  0.28906471624E+02  0.22042526416E+02  0.58774334218E+02  0.00000000000E+00 0.  1.
         21    1    1    2  504  502  0.38163568784E+02  0.96537619587E+02 -0.17780999495E+03  0.20589406082E+03  0.00000000000E+00 0. -1.
         21    1    1    2  505  501  0.55532177278E+02  0.90846837390E+01  0.51952317047E+02  0.76585882762E+02  0.00000000000E+00 0.  1.
          2    1    1    2  501    0 -0.47511708881E+02 -0.13452877495E+03  0.13484443729E+04  0.13559710840E+04  0.00000000000E+00 0.  1.
<scales pt_clust_3="54.48440" pt_clust_4="14000.00000" pt_clust_5="53.88917" pt_clust_6="141.92314"></scales>
<clustering>
<clus scale="   54.484">  2  3  1 -1</clus>
<clus scale="   53.889">  2  5  1 -1</clus>
<clus scale="  141.923">  1  6  2 -1</clus>
<clus scale="   54.484">  2  3  1 -1</clus>
</clustering>
</event>
<event>
 6    0  0.3082502E+002  0.1054938E+03  0.7546771E-02  0.1269150E+00
          1   -1    0    0  505    0 -0.00000000000E+00  0.00000000000E+00  0.19804431664E+04  0.19804431664E+04  0.00000000000E+00 0. -1.
         21   -1    0    0  503  502  0.00000000000E+00 -0.00000000000E+00 -0.10867893725E+03  0.10867893725E+03  0.00000000000E+00 0.  1.
         21    1    1    2  503  501  0.34070531222E+02  0.68853806695E+02 -0.82043630687E+02  0.11239575228E+03  0.00000000000E+00 0.  1.
         21    1    1    2  504  502  0.78457215213E+02  0.36685007614E+02  0.33097622520E+03  0.34212071854E+03  0.00000000000E+00 0.  1.
         21    1    1    2  505  504 -0.75090178885E+01 -0.31558817726E+02  0.89063532721E+03  0.89122591434E+03  0.00000000000E+00 0.  1.
          1    1    1    2  501    0 -0.10501872855E+03 -0.73979996583E+02  0.73219630744E+03  0.74337971850E+03  0.00000000000E+00 0. -1.
<scales pt_clust_3="76.38187" pt_clust_4="105.49376" pt_clust_5="32.43986" pt_clust_6="14000.00000"></scales>
<clustering>
<clus scale="   32.440">  1  5  2 -1</clus>
<clus scale="   76.382">  2  3  1 -1</clus>
<clus scale="  105.494">  1  4  2 -1</clus>
<clus scale="   76.382">  2  3  1 -1</clus>
</clustering>
</event>
<event>
 6    0  0.3082502E+002  0.1414257E+03  0.7546771E-02  0.1211423E+00
          2   -1    0    0  503    0 -0.00000000000E+00  0.00000000000E+00  0.19080320576E+04  0.19080320576E+04  0.00000000000E+00 0. -1.
         21   -1    0    0  504  502  0.00000000000E+00 -0.00000000000E+00 -0.12438834028E+03  0.12438834028E+03  0.00000000000E+00 0. -1.
         21    1    1    2  503  505 -0.77635609818E+02  0.54136333011E+01  0.58731214193E+03  0.59244590251E+03  0.00000000000E+00 0.  1.
         21    1    1    2  504  501  0.28035935242E+02 -0.16839633383E+02  0.27729694307E+02  0.42877999764E+02  0.00000000000E+00 0.  1.
         21    1    1    2  505  502  0.50314286356E+02  0.13728749592E+03 -0.62905234818E+02  0.15917428346E+03  0.00000000000E+00 0. -1.
          2    1    1    2  501    0 -0.71461177991E+00 -0.12586149584E+03  0.12315071159E+04  0.12379222122E+04  0.00000000000E+00 0. -1.
<scales pt_clust_3="77.18451" pt_clust_4="32.70454" pt_clust_5="14000.00000" pt_clust_6="141.42574"></scales>
<clustering>
<clus scale="   32.705">  2  4  1 -1</clus>
<clus scale="   77.185">  1  3  2 -1</clus>
<clus scale="  141.426">  1  6  2 -1</clus>
<clus scale="   32.705">  2  3  1 -1</clus>
</clustering>
</event>
<event>
 6    0  0.3082502E+002  0.1151330E+03  0.7546771E-02  0.1251349E+00
         21   -1    0    0  503  502  0.00000000000E+00  0.00000000000E+00  0.18588747407E+03  0.18588747407E+03  0.00000000000E+00 0.  1.
          2   -1    0    0  505    0 -0.00000000000E+00 -0.00000000000E+00 -0.46670137905E+04  0.46670137905E+04  0.00000000000E+00 0.  1.
         21    1    1    2  503  501 -0.50380424690E+02  0.46723582956E+02  0.55735603373E+02  0.88474504121E+02  0.00000000000E+00 0.  1.
         21    1    1    2  504  502  0.60496990344E+01 -0.15295903210E+03  0.60111448246E+02  0.16445805109E+03  0.00000000000E+00 0.  1.
         21    1    1    2  505  504 -0.23309114534E+02  0.33358730729E+02 -0.45888198563E+03  0.46068296742E+03  0.00000000000E+00 0. -1.
          2    1    1    2  501    0  0.67639840189E+02  0.72876718415E+02 -0.41380913824E+04  0.41392857420E+04  0.00000000000E+00 0.  1.
<scales pt_clust_3="68.86634" pt_clust_4="14000.00000" pt_clust_5="40.69545" pt_clust_6="115.13305"></scales>
<clustering>
<clus scale="   40.695">  2  5  1 -1</clus>
<clus scale="   68.866">  1  3  2 -1</clus>
<clus scale="  115.133">  2  6  1 -1</clus>
<clus scale="   68.866">  1  3  2 -1</clus>
</clustering>
</event>
<event>
 6    0  0.3082502E+002  0.1088034E+03  0.7546771E-02  0.1262802E+00
         21   -1    0    0  503  502  0.00000000000E+00  0.00000000000E+00  0.62320417323E+03  0.62320417323E+03  0.00000000000E+00 0. -1.
         -2   -1    0    0    0  501 -0.00000000000E+00 -0.00000000000E+00 -0.24081305609E+04  0.24081305609E+04  0.00000000000E+00 0. -1.
         21    1    1    2  503  505  0.99192632911E+02  0.85082740896E+02  0.37231223439E+02  0.13588382987E+03  0.00000000000E+00 0.  1.
         21    1    1    2  504  502 -0.56579770958E+02  0.15182723605E+02  0.53311907233E+03  0.53632800678E+03  0.00000000000E+00 0. -1.
         21    1    1    2  505  501  0.20089283346E+02 -0.24999124019E+02 -0.35390683699E+03  0.35535698217E+03  0.00000000000E+00 0.  1.
         -2    1    1    2    0  504 -0.62702145299E+02 -0.75266340482E+02 -0.20013698464E+04  0.20037659153E+04  0.00000000000E+00 0. -1.
<scales pt_clust_3="14000.00000" pt_clust_4="58.56122" pt_clust_5="32.07079" pt_clust_6="108.80338"></scales>
<clustering>
<clus scale="   32.071">  2  5  1 -1</clus>
<clus scale="   58.561">  1  4  2 -1</clus>
<clus scale="  108.803">  2  6  1 -1</clus>
<clus scale="   58.561">  1  3  2 -1</clus>
</clustering>
</event>
<event>
 6    0  0.3082502E+002  0.1153057E+03  0.7546771E-02  0.1251048E+00
         21   -1    0    0  503  502  0.00000000000E+00  0.00000000000E+00  0.12031375184E+03  0.12031375184E+03  0.00000000000E+00 0.  1.
         -1   -1    0    0    0  501 -0.00000000000E+00 -0.00000000000E+00 -0.18699975249E+04  0.18699975249E+04  0.00000000000E+00 0. -1.
         21    1    1    2  503  505  0.20680733287E+02  0.12088410779E+03  0.38021118102E+00  0.12264095893E+03  0.00000000000E+00 0.  1.
         21    1    1    2  504  502 -0.29029336528E+02 -0.95543181579E+01  0.45829253951E+02  0.55084552212E+02  0.00000000000E+00 0.  1.
         21    1    1    2  505  501  0.20516043896E+02  0.35977742200E+02 -0.11179308761E+04  0.11186977919E+04  0.00000000000E+00 0. -1.
         -1    1    1    2    0  504 -0.12167440655E+02 -0.14730753184E+03 -0.67796236215E+03  0.69388797369E+03  0.00000000000E+00 0. -1.
<scales pt_clust_3="115.30574" pt_clust_4="30.56121" pt_clust_5="41.29191" pt_clust_6="14000.00000"></scales>
<clustering>
<clus scale="   30.561">  1  4  2 -1</clus>
<clus scale="   41.292">  2  5  1 -1</clus>
<clus scale="  115.306">  1  3  2 -1</clus>
<clus scale="   30.561">  1  3  2 -1</clus>
</clustering>
</event>
<event>
 6    0  0.3082502E+002  0.1498322E+03  0.7546771E-02  0.1200679E+00
          2   -1    0    0  504    0 -0.00000000000E+00  0.00000000000E+00  0.22092469350E+04  0.22092469350E+04  0.00000000000E+00 0. -1.
         21   -1    0    0  501  502  0.00000000000E+00 -0.00000000000E+00 -0.10560960551E+03  0.10560960551E+03  0.00000000000E+00 0. -1.
         21    1    1    2  503  502 -0.15608072774E+03  0.67080193265E+02  0.30176831510E+01  0.16991189574E+03  0.00000000000E+00 0. -1.
         21    1    1    2  504  505  0.11339767870E+02 -0.34960085989E+02  0.21755192489E+03  0.22063462550E+03  0.00000000000E+00 0.  1.
         21    1    1    2  505  503  0.48387543059E+02 -0.11749203503E+03  0.20414956803E+03  0.24046367448E+03  0.00000000000E+00 0. -1.
          2    1    1    2  501    0  0.96353416813E+02  0.85371927759E+02  0.16789181534E+04  0.16838463448E+04  0.00000000000E+00 0. -1.
<scales pt_clust_3="14000.00000" pt_clust_4="36.75320" pt_clust_5="149.83220" pt_clust_6="119.74816"></scales>
<clustering>
<clus scale="   36.753">  1  4  2 -1</clus>
<clus scale="  119.748">  1  6  2 -1</clus>
<clus scale="  149.832">  1  5  2 -1</clus>
<clus scale="  149.832">  2  3  1 -1</clus>
</clustering>
</event>
<event>
 6    0  0.3082502E+002  0.1131510E+03  0.7546771E-02  0.1254844E+00
          2   -1    0    0  505    0 -0.00000000000E+00  0.00000000000E+00  0.62684923779E+03  0.62684923779E+03  0.00000000000E+00 0. -1.
         21   -1    0    0  504  502  0.00000000000E+00 -0.00000000000E+00 -0.24030997747E+03  0.24030997747E+03  0.00000000000E+00 0. -1.
         21    1    1    2  503  502 -0.81413743314E+02  0.38203102800E+02 -0.15736586956E+03  0.18125035605E+03  0.00000000000E+00 0. -1.
         21    1    1    2  504  501 -0.34470705162E+02 -0.29129855799E+02 -0.50194944397E+02  0.67500447822E+02  0.00000000000E+00 0. -1.
         21    1    1    2  505  503  0.23097549828E+02  0.24427657557E+02  0.27926060386E+02  0.43704371755E+02  0.00000000000E+00 0. -1.
          2    1    1    2  501    0  0.92786898647E+02 -0.33500904558E+02  0.56617401390E+03  0.57470403964E+03  0.00000000000E+00 0. -1.
<scales pt_clust_3="113.15098" pt_clust_4="44.64160" pt_clust_5="33.61856" pt_clust_6="14000.00000"></scales>
<clustering>
<clus scale="   33.619">  1  5  2 -1</clus>
<clus scale="   44.642">  2  4  1 -1</clus>
<clus scale="  113.151">  2  3  1 -1</clus>
<clus scale="   44.642">  2  3  1 -1</clus>
</clustering>
</event>
<event>
 6    0  0.3082502E+002  0.1526572E+03  0.7546771E-02  0.1197245E+00
          2   -1    0    0  503    0 -0.00000000000E+00  0.00000000000E+00  0.97447816903E+03  0.97447816903E+03  0.00000000000E+00 0. -1.
         21   -1    0    0  504  502  0.00000000000E+00 -0.00000000000E+00 -0.36278754362E+03  0.36278754362E+03  0.00000000000E+00 0.  1.
         21    1    1    2  503  505  0.27448303100E+02 -0.67543493925E+02  0.29583675780E+03  0.30468823440E+03  0.00000000000E+00 0.  1.
         21    1    1    2  504  501  0.57238585504E+02  0.53334983628E+02  0.10660500196E+02  0.78958991974E+02  0.00000000000E+00 0.  1.
         21    1    1    2  505  502 -0.20350958911E+03  0.17259676396E+01 -0.28569526457E+03  0.35077188602E+03  0.00000000000E+00 0.  1.
          2    1    1    2  501    0  0.11882270051E+03  0.12482542657E+02  0.59088863198E+03  0.60284660025E+03  0.00000000000E+00 0. -1.
<scales pt_clust_3="72.90770" pt_clust_4="76.64427" pt_clust_5="14000.00000" pt_clust_6="152.65717"></scales>
<clustering>
<clus scale="   72.908">  1  3  2 -1</clus>
<clus scale="   76.644">  2  4  1 -1</clus>
<clus scale="  152.657">  1  6  2 -1</clus>
<clus scale="   76.644">  2  3  1 -1</clus>
</clustering>
</event>
<event>
 6    0  0.3082502E+002  0.1179474E+03  0.7546771E-02  0.1246522E+00
          2   -1    0    0  505    0 -0.00000000000E+00  0.00000000000E+00  0.19519512293E+04  0.19519512293E+04  0.00000000000E+00 0. -1.
         21   -1    0    0  501  502  0.00000000000E+00 -0.00000000000E+00 -0.33535986377E+02  0.33535986377E+02  0.00000000000E+00 0. -1.
         21    1    1    2  503  502 -0.11737749192E+03  0.59418688724E+02  0.14948978726E+03  0.19913626660E+03  0.00000000000E+00 0. -1.
         21    1    1    2  504  503  0.50323269680E+02  0.30810817027E+02  0.85601323445E+03  0.85804451835E+03  0.00000000000E+00 0. -1.
         21    1    1    2  505  504  0.55909383714E+02  0.15980105942E+02  0.23818626191E+03  0.24518139884E+03  0.00000000000E+00 0. -1.
          2    1    1    2  501    0  0.11144838526E+02 -0.10620961169E+03  0.67472595928E+03  0.68312503187E+03  0.00000000000E+00 0. -1.
<scales pt_clust_3="117.94735" pt_clust_4="87.43011" pt_clust_5="58.14828" pt_clust_6="14000.00000"></scales>
<clustering>
<clus scale="   58.148">  1  5  2 -1</clus>
<clus scale="   87.430">  1  4  2 -1</clus>
<clus scale="  117.947">  2  3  1 -1</clus>
<clus scale="  117.947">  2  3  1 -1</clus>
</clustering>
</event>
<event>
 6    0  0.3082502E+002  0.1188441E+03  0.7546771E-02  0.1245016E+00
         21   -1    0    0  505  502  0.00000000000E+00  0.00000000000E+00  0.43657484358E+02  0.43657484358E+02  0.00000000000E+00 0.  1.
          2   -1    0    0  503    0 -0.00000000000E+00 -0.00000000000E+00 -0.32313366980E+04  0.32313366980E+04  0.00000000000E+00 0.  1.
         21    1    1    2  503  504 -0.50930169353E+01  0.39476387257E+02 -0.24317360373E+03  0.24640967011E+03  0.00000000000E+00 0.  1.
         21    1    1    2  504  502  0.30692868196E+02 -0.26853774566E+02 -0.41760662799E+02  0.58370628950E+02  0.00000000000E+00 0.  1.
         21    1    1    2  505  501 -0.13688204217E+03 -0.25222209061E+02 -0.11591055870E+03  0.18113009390E+03  0.00000000000E+00 0.  1.
          2    1    1    2  501    0  0.11128219091E+03  0.12599596370E+02 -0.27868343884E+04  0.27890837894E+04  0.00000000000E+00 0.  1.
<scales pt_clust_3="39.80357" pt_clust_4="40.28448" pt_clust_5="14000.00000" pt_clust_6="118.84405"></scales>
<clustering>
<clus scale="   39.804">  2  3  1 -1</clus>
<clus scale="   40.284">  1  4  2 -1</clus>
<clus scale="  118.844">  2  6  1 -1</clus>
<clus scale="   40.284">  1  3  2 -1</clus>
</clustering>
</event>
<event>
 6    0  0.3082502E+002  0.6911462E+02  0.7546771E-02  0.1363130E+00
         21   -1    0    0  504  502  0.00000000000E+00  0.00000000000E+00  0.10122651163E+02  0.10122651163E+02  0.00000000000E+00 0.  1.
          2   -1    0    0  502    0 -0.00000000000E+00 -0.00000000000E+00 -0.30204863646E+04  0.30204863646E+04  0.00000000000E+00 0.  1.
         21    1    1    2  503  505 -0.54789643966E+02 -0.64213971465E+02 -0.72522292471E+03  0.73011891479E+03  0.00000000000E+00 0.  1.
         21    1    1    2  504  503  0.19570894625E+02  0.63800869480E+02 -0.16812861893E+03  0.18088892550E+03  0.00000000000E+00 0.  1.
         21    1    1    2  505  501  0.69809464590E+02 -0.35706330172E+01 -0.13985060658E+04  0.14002518798E+04  0.00000000000E+00 0.  1.
          2    1    1    2  501    0 -0.34590715249E+02  0.39837350024E+01 -0.71850610399E+03  0.71934929568E+03  0.00000000000E+00 0.  1.
<scales pt_clust_3="14000.00000" pt_clust_4="69.11462" pt_clust_5="48.79136" pt_clust_6="34.81936"></scales>
<clustering>
<clus scale="   34.819">  2  6  1 -1</clus>
<clus scale="   48.791">  2  5  1 -1</clus>
<clus scale="   69.115">  1  4  2 -1</clus>
<clus scale="   69.115">  1  3  2 -1</clus>
</clustering>
</event>
<event>
 6    0  0.3082502E+002  0.7974030E+02  0.7546771E-02  0.1329790E+00
         21   -1    0    0  505  502  0.00000000000E+00  0.00000000000E+00  0.40884507713E+02  0.40884507713E+02  0.00000000000E+00 0. -1.
          1   -1    0    0  503    0 -0.00000000000E+00 -0.00000000000E+00 -0.15926803957E+04  0.15926803957E+04  0.00000000000E+00 0. -1.
         21    1    1    2  503  504 -0.20416487668E+02  0.47348328669E+02 -0.62397741654E+03  0.62610423537E+03  0.00000000000E+00 0. -1.
         21    1    1    2  504  502  0.80267830532E+02 -0.95918747728E+02 -0.13143816790E+03  0.18143682858E+03  0.00000000000E+00 0. -1.
         21    1    1    2  505  501 -0.86984426758E+01  0.51610176841E+02 -0.35093800181E+02  0.63014665513E+02  0.00000000000E+00 0.  1.
          1    1    1    2  501    0 -0.51152900188E+02 -0.30397577815E+01 -0.76128650339E+03  0.76300917397E+03  0.00000000000E+00 0. -1.
<scales pt_clust_3="14000.00000" pt_clust_4="79.74030" pt_clust_5="52.74905" pt_clust_6="51.24314"></scales>
<clustering>
<clus scale="   51.243">  2  6  1 -1</clus>
<clus scale="   52.749">  1  5  2 -1</clus>
<clus scale="   79.740">  1  4  2 -1</clus>
<clus scale="   52.749">  1  3  2 -1</clus>
</clustering>
</event>
<event>
 6    0  0.3082502E+002  0.9591267E+02  0.7546771E-02  0.1289134E+00
         21   -1    0    0  505  502  0.00000000000E+00  0.00000000000E+00  0.14693694533E+04  0.14693694533E+04  0.00000000000E+00 0.  1.
          2   -1    0    0  504    0 -0.00000000000E+00 -0.00000000000E+00 -0.58943765730E+03  0.58943765730E+03  0.00000000000E+00 0. -1.
         21    1    1    2  503  501  0.13577167001E+02 -0.63244810122E+02 -0.76045634088E+02  0.99835784842E+02  0.00000000000E+00 0.  1.
         21    1    1    2  504  502 -0.62671458356E+02 -0.23228381727E+02  0.13724534011E+04  0.13740799131E+04  0.00000000000E+00 0.  1.
         21    1    1    2  505  503  0.39459017130E+02 -0.27702806865E+02  0.70059413979E+02  0.85045758437E+02  0.00000000000E+00 0.  1.
          2    1    1    2  501    0  0.96352742246E+01  0.11417599871E+03 -0.48653538499E+03  0.49984565422E+03  0.00000000000E+00 0. -1.
<scales pt_clust_3="14000.00000" pt_clust_4="55.85715" pt_clust_5="48.21265" pt_clust_6="95.91267"></scales>
<clustering>
<clus scale="   48.213">  1  5  2 -1</clus>
<clus scale="   55.857">  1  4  2 -1</clus>
<clus scale="   95.913">  2  6  1 -1</clus>
<clus scale="   48.213">  1  3  2 -1</clus>
</clustering>
</event>
<event>
 6    0  0.3082502E+002  0.9916702E+02  0.7546771E-02  0.1282057E+00
         21   -1    0    0  504  502  0.00000000000E+00  0.00000000000E+00  0.14851725600E+03  0.14851725600E+03  0.00000000000E+00 0. -1.
          2   -1    0    0  503    0 -0.00000000000E+00 -0.00000000000E+00 -0.26032223290E+04  0.26032223290E+04  0.00000000000E+00 0.  1.
         21    1    1    2  503  505  0.44380503284E+02 -0.42465250416E+02 -0.11033044393E+04  0.11050129467E+04  0.00000000000E+00 0. -1.
         21    1    1    2  504  501 -0.90593528066E+02  0.43352744403E+02  0.10078090854E+03  0.14227944090E+03  0.00000000000E+00 0. -1.
         21    1    1    2  505  502  0.10966723930E+03  0.25342378200E+02 -0.10011736774E+03  0.15064072103E+03  0.00000000000E+00 0. -1.
          2    1    1    2  501    0 -0.63454214522E+02 -0.26229872186E+02 -0.13520641745E+04  0.13538064764E+04  0.00000000000E+00 0.  1.
<scales pt_clust_3="61.42415" pt_clust_4="99.16702" pt_clust_5="14000.00000" pt_clust_6="68.66574"></scales>
<clustering>
<clus scale="   61.424">  2  3  1 -1</clus>
<clus scale="   68.666">  2  6  1 -1</clus>
<clus scale="   99.167">  1  4  2 -1</clus>
<clus scale="   99.167">  1  3  2 -1</clus>
</clustering>
</event>
<event>
 6    0  0.3082502E+002  0.9596666E+02  0.7546771E-02  0.1289014E+00
          1   -1    0    0  503    0 -0.00000000000E+00  0.00000000000E+00  0.54087150812E+03  0.54087150812E+03  0.00000000000E+00 0. -1.
         21   -1    0    0  505  502  0.00000000000E+00 -0.00000000000E+00 -0.47167898314E+02  0.47167898314E+02  0.00000000000E+00 0. -1.
         21    1    1    2  503  504 -0.18114604175E+02 -0.51196257036E+02  0.16659464952E+03  0.17522263800E+03  0.00000000000E+00 0. -1.
         21    1    1    2  504  502 -0.91034158935E+01 -0.83495929399E+02  0.82312468584E+02  0.11760010583E+03  0.00000000000E+00 0. -1.
         21    1    1    2  505  501  0.31962532421E+02  0.70204162780E+01  0.25775846173E+02  0.41656739784E+02  0.00000000000E+00 0. -1.
          1    1    1    2  501    0 -0.47445123521E+01  0.12767177016E+03  0.21902064553E+03  0.25355992282E+03  0.00000000000E+00 0. -1.
<scales pt_clust_3="52.49521" pt_clust_4="95.96666" pt_clust_5="32.72445" pt_clust_6="14000.00000"></scales>
<clustering>
<clus scale="   32.724">  2  5  1 -1</clus>
<clus scale="   52.495">  1  3  2 -1</clus>
<clus scale="   95.967">  2  4  1 -1</clus>
<clus scale="   32.724">  2  3  1 -1</clus>
</clustering>
</event>
<event>
 6    0  0.3082502E+002  0.1972280E+03  0.7546771E-02  0.1152099E+00
         21   -1    0    0  501  502  0.00000000000E+00  0.00000000000E+00  0.35745606112E+02  0.35745606112E+02  0.00000000000E+00 0. -1.
          2   -1    0    0  503    0 -0.00000000000E+00 -0.00000000000E+00 -0.32938327638E+04  0.32938327638E+04  0.00000000000E+00 0. -1.
         21    1    1    2  503  505  0.52097237925E+02  0.98593266607E+01 -0.95910200512E+03  0.96056649159E+03  0.00000000000E+00 0. -1.
         21    1    1    2  504  502 -0.29208925222E+02 -0.10209092651E+02  0.75939539594E+00  0.30950986523E+02  0.00000000000E+00 0. -1.
         21    1    1    2  505  504  0.12675881612E+03  0.15340229557E+03 -0.87624340701E+03  0.89855582469E+03  0.00000000000E+00 0. -1.
          2    1    1    2  501    0 -0.14964712882E+03 -0.15305252958E+03 -0.14235011410E+04  0.14395050672E+04  0.00000000000E+00 0. -1.
<scales pt_clust_3="51.89581" pt_clust_4="30.94167" pt_clust_5="14000.00000" pt_clust_6="197.22798"></scales>
<clustering>
<clus scale="   30.942">  1  4  2 -1</clus>
<clus scale="   51.896">  2  3  1 -1</clus>
<clus scale="  197.228">  2  6  1 -1</clus>
<clus scale="   30.942">  1  3  2 -1</clus>
</clustering>
</event>
<event>
 6    0  0.3082502E+002  0.1879733E+03  0.7546771E-02  0.1160302E+00
         21   -1    0    0  503  502  0.00000000000E+00  0.00000000000E+00  0.20822266770E+03  0.20822266770E+03  0.00000000000E+00 0.  1.
          1   -1    0    0  504    0 -0.00000000000E+00 -0.00000000000E+00 -0.15726830312E+04  0.15726830312E+04  0.00000000000E+00 0. -1.
         21    1    1    2  503  501  0.72700612598E+02  0.26259822130E+02 -0.17066036834E+03  0.18734972285E+03  0.00000000000E+00 0.  1.
         21    1    1    2  504  505  0.21422889894E+02 -0.13380084162E+03 -0.19486616645E+03  0.23734874817E+03  0.00000000000E+00 0. -1.
         21    1    1    2  505  502 -0.95851648631E+02  0.17994539578E+03  0.11890690202E+03  0.23602274330E+03  0.00000000000E+00 0.  1.
          1    1    1    2  501    0  0.17281461383E+01 -0.72404376290E+02 -0.11178407307E+04  0.11201844846E+04  0.00000000000E+00 0. -1.
<scales pt_clust_3="73.41880" pt_clust_4="187.97325" pt_clust_5="14000.00000" pt_clust_6="72.42500"></scales>
<clustering>
<clus scale="   72.425">  2  6  1 -1</clus>
<clus scale="   73.419">  2  3  1 -1</clus>
<clus scale="  187.973">  2  4  1 -1</clus>
<clus scale="  187.973">  1  3  2 -1</clus>
</clustering>
</event>
<event>
 6    0  0.3082502E+002  0.1095347E+03  0.7546771E-02  0.1261434E+00
          2   -1    0    0  505    0 -0.00000000000E+00  0.00000000000E+00  0.13916347949E+04  0.13916347949E+04  0.00000000000E+00 0. -1.
         21   -1    0    0  503  502  0.00000000000E+00 -0.00000000000E+00 -0.89480360890E+02  0.89480360890E+02  0.00000000000E+00 0. -1.
         21    1    1    2  503  501 -0.75450989629E+01  0.30261608271E+02 -0.25737645190E+02  0.40436615009E+02  0.00000000000E+00 0. -1.
         21    1    1    2  504  502  0.83722273050E+02 -0.96984943342E+01 -0.72526636244E+01  0.84593622258E+02  0.00000000000E+00 0. -1.
         21    1    1    2  505  504 -0.40275116332E+02  0.96982724948E+02  0.43017854034E+03  0.44281069376E+03  0.00000000000E+00 0. -1.
          2    1    1    2  501    0 -0.35902057755E+02 -0.11754583888E+03  0.90496620251E+03  0.91327422480E+03  0.00000000000E+00 0. -1.
<scales pt_clust_3="31.18803" pt_clust_4="79.00438" pt_clust_5="109.53472" pt_clust_6="14000.00000"></scales>
<clustering>
<clus scale="   31.188">  2  3  1 -1</clus>
<clus scale="   79.004">  2  4  1 -1</clus>
<clus scale="  109.535">  2  5  1 -1</clus>
<clus scale="   31.188">  2  3  1 -1</clus>
</clustering>
</event>
<event>
 6    0  0.3082502E+002  0.8494197E+02  0.7546771E-02  0.1315584E+00
         21   -1    0    0  505  502  0.00000000000E+00  0.00000000000E+00  0.42380250680E+02  0.42380250680E+02  0.00000000000E+00 0.  1.
          1   -1    0    0  503    0 -0.00000000000E+00 -0.00000000000E+00 -0.54350330511E+03  0.54350330511E+03  0.00000000000E+00 0.  1.
         21    1    1    2  503  504  0.34290575010E+02 -0.22229890866E+02 -0.16073194069E+03  0.16584561598E+03  0.00000000000E+00 0.  1.
         21    1    1    2  504  502  0.58305489264E+02  0.12012708348E+02 -0.23470971144E+02  0.63990012710E+02  0.00000000000E+00 0.  1.
         21    1    1    2  505  501  0.18941043044E+02  0.35794232872E+02 -0.42399862061E+02  0.58632231079E+02  0.00000000000E+00 0.  1.
          1    1    1    2  501    0 -0.11153710732E+03 -0.25577050353E+02 -0.27452028054E+03  0.29741569602E+03  0.00000000000E+00 0.  1.
<scales pt_clust_3="40.71024" pt_clust_4="84.94197" pt_clust_5="40.49679" pt_clust_6="14000.00000"></scales>
<clustering>
<clus scale="   40.497">  1  5  2 -1</clus>
<clus scale="   40.710">  2  3  1 -1</clus>
<clus scale="   84.942">  1  4  2 -1</clus>
<clus scale="   40.497">  1  3  2 -1</clus>
</clustering>
</event>
<event>
 6    0  0.3082502E+002  0.7323570E+02  0.7546771E-02  0.1349423E+00
         21   -1    0    0  501  502  0.00000000000E+00  0.00000000000E+00  0.54409126068E+02  0.54409126068E+02  0.00000000000E+00 0. -1.
          1   -1    0    0  504    0 -0.00000000000E+00 -0.00000000000E+00 -0.24594043316E+04  0.24594043316E+04  0.00000000000E+00 0.  1.
         21    1    1    2  503  505 -0.46970074588E+02 -0.35616759689E+02 -0.10498363636E+02  0.59874511410E+02  0.00000000000E+00 0. -1.
         21    1    1    2  504  503 -0.45757268724E+02 -0.45589540836E+02 -0.47975444550E+03  0.48408311461E+03  0.00000000000E+00 0. -1.
         21    1    1    2  505  502  0.38222174590E+02 -0.39229119045E+02 -0.44026554139E+01  0.54947627665E+02  0.00000000000E+00 0. -1.
          1    1    1    2  501    0  0.54505168722E+02  0.12043541957E+03 -0.19103397410E+04  0.19149082040E+04  0.00000000000E+00 0.  1.
<scales pt_clust_3="73.23570" pt_clust_4="64.76538" pt_clust_5="54.77096" pt_clust_6="14000.00000"></scales>
<clustering>
<clus scale="   54.771">  1  5  2 -1</clus>
<clus scale="   64.765">  2  4  1 -1</clus>
<clus scale="   73.236">  1  3  2 -1</clus>
<clus scale="   54.771">  1  3  2 -1</clus>
</clustering>
</event>
<event>
 6    0  0.3082502E+002  0.1302793E+03  0.7546771E-02  0.1227042E+00
         21   -1    0    0  503  502  0.00000000000E+00  0.00000000000E+00  0.27997140777E+03  0.27997140777E+03  0.00000000000E+00 0. -1.
         -1   -1    0    0    0  501 -0.00000000000E+00 -0.00000000000E+00 -0.39756497886E+03  0.39756497886E+03  0.00000000000E+00 0.  1.
         21    1    1    2  503  505  0.76435694623E+01  0.14617387540E+03  0.15391065117E+03  0.21239989300E+03  0.00000000000E+00 0. -1.
         21    1    1    2  504  502  0.11478700662E+02 -0.72180898662E+02  0.84991586624E+01  0.73580421299E+02  0.00000000000E+00 0.  1.
         21    1    1    2  505  501  0.10411208510E+03  0.33677840506E+02 -0.99256832767E+02  0.14773436315E+03  0.00000000000E+00 0. -1.
         -1    1    1    2    0  504 -0.12323435522E+03 -0.10767081724E+03 -0.18074654816E+03  0.24382170918E+03  0.00000000000E+00 0.  1.
<scales pt_clust_3="92.31901" pt_clust_4="73.08791" pt_clust_5="14000.00000" pt_clust_6="130.27934"></scales>
<clustering>
<clus scale="   73.088">  1  4  2 -1</clus>
<clus scale="   92.319">  1  3  2 -1</clus>
<clus scale="  130.279">  1  6  2 -1</clus>
<clus scale="   73.088">  1  3  2 -1</clus>
</clustering>
</event>
<event>
 6    0  0.3082502E+002  0.1528144E+03  0.7546771E-02  0.1197057E+00
         -3   -1    0    0    0  501 -0.00000000000E+00  0.00000000000E+00  0.38509674499E+03  0.38509674499E+03  0.00000000000E+00 0. -1.
         21   -1    0    0  505  502  0.00000000000E+00 -0.00000000000E+00 -0.31504345159E+03  0.31504345159E+03  0.00000000000E+00 0. -1.
         21    1    1    2  503  501 -0.19829004543E+02  0.78208339261E+02  0.22774041532E+03  0.24161007951E+03  0.00000000000E+00 0. -1.
         21    1    1    2  504  503 -0.10888272739E+02 -0.80361216384E+02  0.70205955159E+01  0.81398822740E+02  0.00000000000E+00 0.  1.
         21    1    1    2  505  504 -0.14254655826E+03 -0.20428111637E+02 -0.13968265185E+03  0.20061922202E+03  0.00000000000E+00 0. -1.
         -3    1    1    2    0  502  0.17326383554E+03  0.22580988761E+02 -0.25025065593E+02  0.17651207230E+03  0.00000000000E+00 0. -1.
<scales pt_clust_3="80.68292" pt_clust_4="59.76086" pt_clust_5="14000.00000" pt_clust_6="152.81437"></scales>
<clustering>
<clus scale="   80.683">  1  3  2 -1</clus>
<clus scale="   59.761">  1  4  2 -1</clus>
<clus scale="  152.814">  1  6  2 -1</clus>
<clus scale="  152.814">  2  3  1 -1</clus>
</clustering>
</event>
<event>
 6    0  0.3082502E+002  0.8919553E+02  0.7546771E-02  0.1304812E+00
         21   -1    0    0  504  502  0.00000000000E+00  0.00000000000E+00  0.11032181281E+03  0.11032181281E+03  0.00000000000E+00 0. -1.
          3   -1    0    0  505    0 -0.00000000000E+00 -0.00000000000E+00 -0.18538139535E+04  0.18538139535E+04  0.00000000000E+00 0. -1.
         21    1    1    2  503  502 -0.34128225703E+02  0.26173597105E+02 -0.18887550421E+02  0.46973743049E+02  0.00000000000E+00 0. -1.
         21    1    1    2  504  501  0.11897248537E+03  0.33568142114E+01  0.57297527397E+02  0.13209363013E+03  0.00000000000E+00 0. -1.
         21    1    1    2  505  503 -0.26679720121E+02  0.15287200696E+02 -0.70173319972E+03  0.70240656998E+03  0.00000000000E+00 0. -1.
          3    1    1    2  501    0 -0.58164539543E+02 -0.44817612013E+02 -0.10801689180E+04  0.10826618232E+04  0.00000000000E+00 0. -1.
<scales pt_clust_3="43.88068" pt_clust_4="14000.00000" pt_clust_5="30.74908" pt_clust_6="89.19553"></scales>
<clustering>
<clus scale="   30.749">  2  5  1 -1</clus>
<clus scale="   43.881">  1  3  2 -1</clus>
<clus scale="   89.196">  2  6  1 -1</clus>
<clus scale="   43.881">  1  3  2 -1</clus>
</clustering>
</event>
<event>
 6    0  0.3082502E+002  0.1741158E+03  0.7546771E-02  0.1173622E+00
          1   -1    0    0  503    0 -0.00000000000E+00  0.00000000000E+00  0.11692516678E+04  0.11692516678E+04  0.00000000000E+00 0.  1.
         21   -1    0    0  501  502  0.00000000000E+00 -0.00000000000E+00 -0.24534896454E+03  0.24534896454E+03  0.00000000000E+00 0. -1.
         21    1    1    2  503  505 -0.18220840924E+02 -0.26267989071E+02  0.48941035275E+03  0.49045336136E+03  0.00000000000E+00 0.  1.
         21    1    1    2  504  502  0.20552273796E+02 -0.19847629433E+03 -0.16217749498E+03  0.25713182465E+03  0.00000000000E+00 0. -1.
         21    1    1    2  505  504 -0.67619252337E+01  0.11419570013E+03  0.82408985230E+02  0.14098802221E+03  0.00000000000E+00 0.  1.
          1    1    1    2  501    0  0.44304923618E+01  0.11054858327E+03  0.51426086029E+03  0.52602742415E+03  0.00000000000E+00 0.  1.
<scales pt_clust_3="31.96883" pt_clust_4="174.11579" pt_clust_5="14000.00000" pt_clust_6="90.93540"></scales>
<clustering>
<clus scale="   31.969">  1  3  2 -1</clus>
<clus scale="   90.935">  1  6  2 -1</clus>
<clus scale="  174.116">  2  4  1 -1</clus>
<clus scale="  174.116">  2  3  1 -1</clus>
</clustering>
</event>
<event>
 6    0  0.3082502E+002  0.9986871E+02  0.7546771E-02  0.1280572E+00
          2   -1    0    0  505    0 -0.00000000000E+00  0.00000000000E+00  0.21120846482E+03  0.21120846482E+03  0.00000000000E+00 0.  1.
         21   -1    0    0  501  502  0.00000000000E+00 -0.00000000000E+00 -0.27573746234E+03  0.27573746234E+03  0.00000000000E+00 0. -1.
         21    1    1    2  503  504 -0.25524358423E+02  0.71431616270E+02 -0.34950405317E+02  0.83519455863E+02  0.00000000000E+00 0. -1.
         21    1    1    2  504  502  0.10169393994E+02  0.33370160312E+02 -0.16514983173E+03  0.16879410859E+03  0.00000000000E+00 0. -1.
         21    1    1    2  505  503 -0.51074751850E+02  0.13348540396E+02  0.58136362165E+02  0.78528023106E+02  0.00000000000E+00 0.  1.
          2    1    1    2  501    0  0.66429716278E+02 -0.11815031698E+03  0.77434877366E+02  0.15610433959E+03  0.00000000000E+00 0.  1.
<scales pt_clust_3="99.86871" pt_clust_4="34.88530" pt_clust_5="52.76024" pt_clust_6="14000.00000"></scales>
<clustering>
<clus scale="   34.885">  2  4  1 -1</clus>
<clus scale="   52.760">  1  5  2 -1</clus>
<clus scale="   99.869">  2  3  1 -1</clus>
<clus scale="   34.885">  2  3  1 -1</clus>
</clustering>
</event>
<event>
 6    0  0.3082502E+002  0.1219794E+03  0.7546771E-02  0.1239867E+00
          2   -1    0    0  505    0 -0.00000000000E+00  0.00000000000E+00  0.43908925582E+03  0.43908925582E+03  0.00000000000E+00 0. -1.
         21   -1    0    0  504  502  0.00000000000E+00 -0.00000000000E+00 -0.11702894651E+04  0.11702894651E+04  0.00000000000E+00 0.  1.
         21    1    1    2  503  501  0.73445510221E+02  0.74788891079E+02 -0.32602426312E+03  0.34246086104E+03  0.00000000000E+00 0.  1.
         21    1    1    2  504  503 -0.76065431502E+01  0.29545942515E+02 -0.82156777144E+03  0.82213406771E+03  0.00000000000E+00 0.  1.
         21    1    1    2  505  502  0.20490378819E+02 -0.33478167097E+02  0.63610403394E+02  0.74745747145E+02  0.00000000000E+00 0. -1.
          2    1    1    2  501    0 -0.86329345890E+02 -0.70856666497E+02  0.35278142188E+03  0.37003804504E+03  0.00000000000E+00 0. -1.
<scales pt_clust_3="14000.00000" pt_clust_4="30.50938" pt_clust_5="38.78517" pt_clust_6="121.97940"></scales>
<clustering>
<clus scale="   30.509">  2  4  1 -1</clus>
<clus scale="   38.785">  1  5  2 -1</clus>
<clus scale="  121.979">  1  6  2 -1</clus>
<clus scale="   30.509">  2  3  1 -1</clus>
</clustering>
</event>
<event>
 6    0  0.3082502E+002  0.8710309E+02  0.7546771E-02  0.1310023E+00
         21   -1    0    0  503  502  0.00000000000E+00  0.00000000000E+00  0.60839213461E+03  0.60839213461E+03  0.00000000000E+00 0.  1.
          1   -1    0    0  505    0 -0.00000000000E+00 -0.00000000000E+00 -0.18969692345E+03  0.18969692345E+03  0.00000000000E+00 0.  1.
         21    1    1    2  503  504  0.45831373034E+02  0.26818450104E+02  0.44129970374E+03  0.44448303965E+03  0.00000000000E+00 0.  1.
         21    1    1    2  504  501  0.63289572789E+02 -0.33678381508E+02  0.85672916919E+02  0.11171236323E+03  0.00000000000E+00 0.  1.
         21    1    1    2  505  502 -0.21639423743E+02  0.33699245467E+02  0.46944860601E+02  0.61706756047E+02  0.00000000000E+00 0. -1.
          1    1    1    2  501    0 -0.87481522080E+02 -0.26839314063E+02 -0.15522227010E+03  0.18018689913E+03  0.00000000000E+00 0.  1.
<scales pt_clust_3="60.85949" pt_clust_4="87.10309" pt_clust_5="40.04877" pt_clust_6="14000.00000"></scales>
<clustering>
<clus scale="   40.049">  1  5  2 -1</clus>
<clus scale="   60.859">  1  3  2 -1</clus>
<clus scale="   87.103">  1  4  2 -1</clus>
<clus scale="   40.049">  1  3  2 -1</clus>
</clustering>
</event>
<event>
 6    0  0.3082502E+002  0.9587160E+02  0.7546771E-02  0.1289225E+00
         21   -1    0    0  505  502  0.00000000000E+00  0.00000000000E+00  0.15084201718E+03  0.15084201718E+03  0.00000000000E+00 0.  1.
          1   -1    0    0  504    0 -0.00000000000E+00 -0.00000000000E+00 -0.11700560370E+04  0.11700560370E+04  0.00000000000E+00 0. -1.
         21    1    1    2  503  502  0.48237308611E+02  0.22325728032E+02 -0.47420771762E+03  0.47717736275E+03  0.00000000000E+00 0. -1.
         21    1    1    2  504  503 -0.47626819386E+02 -0.14633096648E+02 -0.71875828871E+02  0.87456138825E+02  0.00000000000E+00 0. -1.
         21    1    1    2  505  501  0.28278328291E+02 -0.91809939024E+02  0.12157286380E+03  0.15494737806E+03  0.00000000000E+00 0.  1.
          1    1    1    2  501    0 -0.28888817516E+02  0.84117307640E+02 -0.59470333716E+03  0.60131717458E+03  0.00000000000E+00 0. -1.
<scales pt_clust_3="31.75182" pt_clust_4="49.82411" pt_clust_5="14000.00000" pt_clust_6="95.87160"></scales>
<clustering>
<clus scale="   49.824">  2  4  1 -1</clus>
<clus scale="   31.752">  2  3  1 -1</clus>
<clus scale="   95.872">  2  6  1 -1</clus>
<clus scale="   95.872">  1  3  2 -1</clus>
</clustering>
</event>
<event>
 6    0  0.3082502E+002  0.1153094E+03  0.7546771E-02  0.1251042E+00
          1   -1    0    0  503    0 -0.00000000000E+00  0.00000000000E+00  0.37644396258E+03  0.37644396258E+03  0.00000000000E+00 0.  1.
         21   -1    0    0  505  502  0.00000000000E+00 -0.00000000000E+00 -0.12271818867E+03  0.12271818867E+03  0.00000000000E+00 0.  1.
         21    1    1    2  503  504 -0.10289132199E+03 -0.55280702436E+02  0.15481409060E+03  0.19393293390E+03  0.00000000000E+00 0.  1.
         21    1    1    2  504  502 -0.39196555587E+02  0.46005481586E+02 -0.92529189126E+01  0.61143199248E+02  0.00000000000E+00 0.  1.
         21    1    1    2  505  501  0.61700239178E+02 -0.75135489351E+02  0.23511352731E+02  0.10002522173E+03  0.00000000000E+00 0.  1.
          1    1    1    2  501    0  0.80387638397E+02  0.84410710201E+02  0.84653249494E+02  0.14406079638E+03  0.00000000000E+00 0.  1.
<scales pt_clust_3="115.30945" pt_clust_4="60.43901" pt_clust_5="70.80950" pt_clust_6="14000.00000"></scales>
<clustering>
<clus scale="   60.439">  2  4  1 -1</clus>
<clus scale="   70.810">  2  5  1 -1</clus>
<clus scale="  115.309">  1  3  2 -1</clus>
<clus scale="   60.439">  2  3  1 -1</clus>
</clustering>
</event>
<event>
 6    0  0.3082502E+002  0.1584136E+03  0.7546771E-02  0.1190500E+00
          2   -1    0    0  503    0 -0.00000000000E+00  0.00000000000E+00  0.36606272682E+04  0.36606272682E+04  0.00000000000E+00 0.  1.
         21   -1    0    0  505  502  0.00000000000E+00 -0.00000000000E+00 -0.12752308320E+03  0.12752308320E+03  0.00000000000E+00 0.  1.
         21    1    1    2  503  502  0.37299072859E+02  0.90912303875E+01  0.24349580072E+03  0.24650370438E+03  0.00000000000E+00 0.  1.
         21    1    1    2  504  501  0.10102803005E+03  0.13437305909E+03  0.15845575737E+03  0.23102166328E+03  0.00000000000E+00 0.  1.
         21    1    1    2  505  504 -0.17704801175E+03  0.26153646438E+01  0.12456716634E+01  0.17707170947E+03  0.00000000000E+00 0.  1.
          2    1    1    2  501    0  0.38720908840E+02 -0.14607965412E+03  0.31299069552E+04  0.31335532742E+04  0.00000000000E+00 0.  1.
<scales pt_clust_3="38.39103" pt_clust_4="14000.00000" pt_clust_5="158.41356" pt_clust_6="155.85481"></scales>
<clustering>
<clus scale="   38.391">  1  3  2 -1</clus>
<clus scale="  155.855">  1  6  2 -1</clus>
<clus scale="  158.414">  2  5  1 -1</clus>
<clus scale="  158.414">  2  3  1 -1</clus>
</clustering>
</event>
<event>
 6    0  0.3082502E+002  0.9139272E+02  0.7546771E-02  0.1299514E+00
         21   -1    0    0  504  502  0.00000000000E+00  0.00000000000E+00  0.22365739100E+03  0.22365739100E+03  0.00000000000E+00 0. -1.
         -3   -1    0    0    0  501 -0.00000000000E+00 -0.00000000000E+00 -0.26931335377E+03  0.26931335377E+03  0.00000000000E+00 0. -1.
         21    1    1    2  503  502 -0.91219895763E+02 -0.69937715765E+01  0.95642851707E+02  0.13235383374E+03  0.00000000000E+00 0. -1.
         21    1    1    2  504  505  0.89103248426E+02  0.23319362365E+02  0.65185650863E+02  0.11283771807E+03  0.00000000000E+00 0. -1.
         21    1    1    2  505  501 -0.18171668342E+02  0.57301837417E+02 -0.80775735737E+02  0.10068976902E+03  0.00000000000E+00 0. -1.
         -3    1    1    2    0  503  0.20288315679E+02 -0.73627428205E+02 -0.12570872960E+03  0.14708942394E+03  0.00000000000E+00 0. -1.
<scales pt_clust_3="91.39272" pt_clust_4="14000.00000" pt_clust_5="60.11414" pt_clust_6="30.54055"></scales>
<clustering>
<clus scale="   60.114">  2  5  1 -1</clus>
<clus scale="   30.541">  2  6  1 -1</clus>
<clus scale="   91.393">  1  3  2 -1</clus>
<clus scale="   91.393">  1  3  2 -1</clus>
</clustering>
</event>
<event>
 6    0  0.3082502E+002  0.9966695E+02  0.7546771E-02  0.1280998E+00
         21   -1    0    0  503  502  0.00000000000E+00  0.00000000000E+00  0.13763357797E+04  0.13763357797E+04  0.00000000000E+00 0.  1.
         -1   -1    0    0    0  501 -0.00000000000E+00 -0.00000000000E+00 -0.30939407736E+03  0.30939407736E+03  0.00000000000E+00 0. -1.
         21    1    1    2  503  505  0.40170873520E+02 -0.11288970071E+03  0.39798538250E+03  0.41563222720E+03  0.00000000000E+00 0. -1.
         21    1    1    2  504  502 -0.57775812878E+02  0.15319790048E+02  0.93811305398E+03  0.94001534167E+03  0.00000000000E+00 0.  1.
         21    1    1    2  505  501  0.36785243496E+02 -0.57466184368E+01 -0.20193543539E+03  0.20533898273E+03  0.00000000000E+00 0. -1.
         -1    1    1    2    0  504 -0.19180304138E+02  0.10331652910E+03 -0.67221298756E+02  0.12474330546E+03  0.00000000000E+00 0. -1.
<scales pt_clust_3="14000.00000" pt_clust_4="59.43939" pt_clust_5="37.23141" pt_clust_6="99.66695"></scales>
<clustering>
<clus scale="   37.231">  2  5  1 -1</clus>
<clus scale="   59.439">  1  4  2 -1</clus>
<clus scale="   99.667">  2  6  1 -1</clus>
<clus scale="   59.439">  1  3  2 -1</clus>
</clustering>
</event>
<event>
 6    0  0.3082502E+002  0.8353517E+02  0.7546771E-02  0.1319308E+00
         21   -1    0    0  504  502  0.00000000000E+00  0.00000000000E+00  0.23044744011E+04  0.23044744011E+04  0.00000000000E+00 0.  1.
          1   -1    0    0  503    0 -0.00000000000E+00 -0.00000000000E+00 -0.13639734594E+03  0.13639734594E+03  0.00000000000E+00 0. -1.
         21    1    1    2  503  505  0.29236557310E+02 -0.98755183929E+01  0.39360157268E+01  0.31109393544E+02  0.00000000000E+00 0.  1.
         21    1    1    2  504  501 -0.84070526661E+01 -0.11348991221E+03  0.34866357349E+03  0.36676549209E+03  0.00000000000E+00 0.  1.
         21    1    1    2  505  502 -0.15617266102E+02  0.36282050382E+02  0.19122778129E+04  0.19126857347E+04  0.00000000000E+00 0.  1.
          1    1    1    2  501    0 -0.52122385427E+01  0.87083380220E+02 -0.96800346998E+02  0.13031112662E+03  0.00000000000E+00 0. -1.
<scales pt_clust_3="30.85939" pt_clust_4="83.53517" pt_clust_5="39.46621" pt_clust_6="14000.00000"></scales>
<clustering>
<clus scale="   30.859">  2  3  1 -1</clus>
<clus scale="   39.466">  1  5  2 -1</clus>
<clus scale="   83.535">  1  4  2 -1</clus>
<clus scale="   39.466">  1  3  2 -1</clus>
</clustering>
</event>
<event>
 6    0  0.3082502E+002  0.9409608E+02  0.7546771E-02  0.1293225E+00
         21   -1    0    0  503  502  0.00000000000E+00  0.00000000000E+00  0.26765529593E+03  0.26765529593E+03  0.00000000000E+00 0.  1.
         -1   -1    0    0    0  501 -0.00000000000E+00 -0.00000000000E+00 -0.44873490834E+03  0.44873490834E+03  0.00000000000E+00 0. -1.
         21    1    1    2  503  504  0.21056121722E+01  0.64839032466E+02  0.18790199193E+03  0.19878554350E+03  0.00000000000E+00 0.  1.
         21    1    1    2  504  501  0.44000879841E+02  0.86871861756E+00 -0.27198861705E+02  0.51735965989E+02  0.00000000000E+00 0.  1.
         21    1    1    2  505  502 -0.90555400022E+02 -0.98727808865E+02 -0.15432214043E+02  0.13485404683E+03  0.00000000000E+00 0.  1.
         -1    1    1    2    0  505  0.44448908009E+02  0.33020057781E+02 -0.32635052859E+03  0.33101464794E+03  0.00000000000E+00 0. -1.
<scales pt_clust_3="64.90638" pt_clust_4="44.00945" pt_clust_5="14000.00000" pt_clust_6="94.09608"></scales>
<clustering>
<clus scale="   44.009">  2  4  1 -1</clus>
<clus scale="   64.906">  1  3  2 -1</clus>
<clus scale="   94.096">  2  6  1 -1</clus>
<clus scale="   64.906">  1  3  2 -1</clus>
</clustering>
</event>
<event>
 6    0  0.3082502E+002  0.8413395E+02  0.7546771E-02  0.1317713E+00
         21   -1    0    0  503  502  0.00000000000E+00  0.00000000000E+00  0.11111934677E+03  0.11111934677E+03  0.00000000000E+00 0.  1.
          1   -1    0    0  505    0 -0.00000000000E+00 -0.00000000000E+00 -0.82013169314E+03  0.82013169314E+03  0.00000000000E+00 0.  1.
         21    1    1    2  503  501  0.19767909114E+02 -0.23211616305E+02  0.57740482790E+02  0.65295579598E+02  0.00000000000E+00 0.  1.
         21    1    1    2  504  502  0.45636343096E+02  0.33501258501E+01  0.25164587633E+02  0.52222175607E+02  0.00000000000E+00 0.  1.
         21    1    1    2  505  504  0.14767297229E+02 -0.67200704664E+02 -0.28895776619E+03  0.29703635875E+03  0.00000000000E+00 0.  1.
          1    1    1    2  501    0 -0.80171549439E+02  0.87062195118E+02 -0.50295965060E+03  0.51669692595E+03  0.00000000000E+00 0.  1.
<scales pt_clust_3="30.48851" pt_clust_4="62.81506" pt_clust_5="84.13395" pt_clust_6="14000.00000"></scales>
<clustering>
<clus scale="   30.489">  1  3  2 -1</clus>
<clus scale="   62.815">  1  4  2 -1</clus>
<clus scale="   84.134">  2  5  1 -1</clus>
<clus scale="   30.489">  1  3  2 -1</clus>
</clustering>
</event>
<event>
 6    0  0.3082502E+002  0.8135264E+02  0.7546771E-02  0.1325256E+00
          2   -1    0    0  503    0 -0.00000000000E+00  0.00000000000E+00  0.79171046508E+03  0.79171046508E+03  0.00000000000E+00 0. -1.
         21   -1    0    0  505  502  0.00000000000E+00 -0.00000000000E+00 -0.86699256213E+02  0.86699256213E+02  0.00000000000E+00 0. -1.
         21    1    1    2  503  504  0.20803456417E+02 -0.44991732102E+02  0.37192370752E+03  0.37521231853E+03  0.00000000000E+00 0. -1.
         21    1    1    2  504  502 -0.84805049977E+02 -0.33033808139E+01 -0.43499890260E+02  0.95367967783E+02  0.00000000000E+00 0. -1.
         21    1    1    2  505  501  0.62178438396E+02 -0.34059333005E+02  0.13338840491E+03  0.15105847521E+03  0.00000000000E+00 0.  1.
          2    1    1    2  501    0  0.18231551638E+01  0.82354445921E+02  0.24319898669E+03  0.25677095978E+03  0.00000000000E+00 0. -1.
<scales pt_clust_3="49.56854" pt_clust_4="81.35264" pt_clust_5="14000.00000" pt_clust_6="57.26047"></scales>
<clustering>
<clus scale="   49.569">  1  3  2 -1</clus>
<clus scale="   57.260">  1  6  2 -1</clus>
<clus scale="   81.353">  2  4  1 -1</clus>
<clus scale="   81.353">  2  3  1 -1</clus>
</clustering>
</event>
<event>
 6    0  0.3082502E+002  0.1124143E+03  0.7546771E-02  0.1256163E+00
         21   -1    0    0  501  502  0.00000000000E+00  0.00000000000E+00  0.15257733011E+03  0.15257733011E+03  0.00000000000E+00 0. -1.
          1   -1    0    0  505    0 -0.00000000000E+00 -0.00000000000E+00 -0.15329117742E+04  0.15329117742E+04  0.00000000000E+00 0. -1.
         21    1    1    2  503  502  0.14609857796E+02  0.31335049562E+02  0.12710357170E+03  0.13172187068E+03  0.00000000000E+00 0. -1.
         21    1    1    2  504  503 -0.26965014943E+02  0.37532435544E+02 -0.48420832559E+02  0.66935586757E+02  0.00000000000E+00 0. -1.
         21    1    1    2  505  504 -0.96655538907E+02 -0.18513633887E+02 -0.20845746146E+03  0.23052019668E+03  0.00000000000E+00 0. -1.
          1    1    1    2  501    0  0.10901069605E+03 -0.50353851220E+02 -0.12505597218E+04  0.12563114502E+04  0.00000000000E+00 0. -1.
<scales pt_clust_3="34.57359" pt_clust_4="54.33073" pt_clust_5="112.41427" pt_clust_6="14000.00000"></scales>
<clustering>
<clus scale="   34.574">  1  3  2 -1</clus>
<clus scale="   54.331">  1  4  2 -1</clus>
<clus scale="  112.414">  1  5  2 -1</clus>
<clus scale="   34.574">  1  3  2 -1</clus>
</clustering>
</event>
<event>
 6    0  0.3082502E+002  0.1037948E+03  0.7546771E-02  0.1272513E+00
         21   -1    0    0  503  502  0.00000000000E+00  0.00000000000E+00  0.14097920629E+03  0.14097920629E+03  0.00000000000E+00 0.  1.
          1   -1    0    0  504    0 -0.00000000000E+00 -0.00000000000E+00 -0.11226701513E+04  0.11226701513E+04  0.00000000000E+00 0. -1.
         21    1    1    2  503  501 -0.24580909376E+02  0.31762920441E+02  0.37662270152E+02  0.55059520645E+02  0.00000000000E+00 0. -1.
         21    1    1    2  504  505  0.35380571643E+02 -0.43271063586E+02 -0.25252514820E+03  0.25863704349E+03  0.00000000000E+00 0. -1.
         21    1    1    2  505  502  0.67184096011E+02  0.65382716990E+02  0.64144578235E+02  0.11359194230E+03  0.00000000000E+00 0.  1.
          1    1    1    2  501    0 -0.77983758277E+02 -0.53874573845E+02 -0.83097264516E+03  0.83636085111E+03  0.00000000000E+00 0. -1.
<scales pt_clust_3="40.16347" pt_clust_4="54.59757" pt_clust_5="103.79477" pt_clust_6="14000.00000"></scales>
<clustering>
<clus scale="   40.163">  1  3  2 -1</clus>
<clus scale="   54.598">  2  4  1 -1</clus>
<clus scale="  103.795">  1  5  2 -1</clus>
<clus scale="   40.163">  1  3  2 -1</clus>
</clustering>
</event>
<event>
 6    0  0.3082502E+002  0.4114696E+03  0.7546771E-02  0.1039879E+00
          2   -1    0    0  505    0 -0.00000000000E+00  0.00000000000E+00  0.33337546617E+04  0.33337546617E+04  0.00000000000E+00 0.  1.
         21   -1    0    0  503  502  0.00000000000E+00 -0.00000000000E+00 -0.25206284784E+03  0.25206284784E+03  0.00000000000E+00 0. -1.
         21    1    1    2  503  501  0.41163858223E+02 -0.72687093134E+02  0.46481633233E+02  0.95595078117E+02  0.00000000000E+00 0.  1.
         21    1    1    2  504  502 -0.77028086658E+02  0.92089144288E+02 -0.13190308951E+03  0.17835964132E+03  0.00000000000E+00 0. -1.
         21    1    1    2  505  504 -0.11187697905E+03  0.37239129535E+03  0.62928928341E+03  0.73972747516E+03  0.00000000000E+00 0.  1.
          2    1    1    2  501    0  0.14774120749E+03 -0.39179334650E+03  0.25378239868E+04  0.25721353150E+04  0.00000000000E+00 0.  1.
<scales pt_clust_3="83.53369" pt_clust_4="64.84930" pt_clust_5="14000.00000" pt_clust_6="411.46955"></scales>
<clustering>
<clus scale="   83.534">  2  3  1 -1</clus>
<clus scale="   64.849">  2  4  1 -1</clus>
<clus scale="  411.470">  1  6  2 -1</clus>
<clus scale="   83.534">  2  3  1 -1</clus>
</clustering>
</event>
<event>
 6    0  0.3082502E+002  0.1191806E+03  0.7546771E-02  0.1244455E+00
         21   -1    0    0  504  502  0.00000000000E+00  0.00000000000E+00  0.92096254946E+02  0.92096254946E+02  0.00000000000E+00 0. -1.
          1   -1    0    0  503    0 -0.00000000000E+00 -0.00000000000E+00 -0.19083836638E+04  0.19083836638E+04  0.00000000000E+00 0. -1.
         21    1    1    2  503  505 -0.36284692614E+02  0.54479699693E+02 -0.35439882013E+03  0.36039303587E+03  0.00000000000E+00 0. -1.
         21    1    1    2  504  501 -0.34331465486E+02 -0.18213151474E+02  0.33891380721E+01  0.39010955716E+02  0.00000000000E+00 0.  1.
         21    1    1    2  505  502  0.15166533272E+03  0.31946270638E+02 -0.25106145982E+02  0.15701355331E+03  0.00000000000E+00 0. -1.
          1    1    1    2  501    0 -0.81049174625E+02 -0.68212818857E+02 -0.14401715808E+04  0.14440623738E+04  0.00000000000E+00 0. -1.
<scales pt_clust_3="65.64104" pt_clust_4="38.86346" pt_clust_5="14000.00000" pt_clust_6="119.18064"></scales>
<clustering>
<clus scale="   38.863">  1  4  2 -1</clus>
<clus scale="   65.641">  2  3  1 -1</clus>
<clus scale="  119.181">  2  6  1 -1</clus>
<clus scale="   38.863">  1  3  2 -1</clus>
</clustering>
</event>
<event>
 6    0  0.3082502E+002  0.1770253E+03  0.7546771E-02  0.1170713E+00
         21   -1    0    0  504  502  0.00000000000E+00  0.00000000000E+00  0.11080748218E+04  0.11080748218E+04  0.00000000000E+00 0.  1.
          2   -1    0    0  503    0 -0.00000000000E+00 -0.00000000000E+00 -0.11610316200E+03  0.11610316200E+03  0.00000000000E+00 0.  1.
         21    1    1    2  503  505  0.60553416127E+02  0.10556866801E+02  0.12494646760E+02  0.62723837885E+02  0.00000000000E+00 0.  1.
         21    1    1    2  504  501 -0.18049354505E+03 -0.19333660311E+02  0.44810648851E+03  0.48347816422E+03  0.00000000000E+00 0.  1.
         21    1    1    2  505  502  0.13643384480E+03  0.13872167813E+03  0.50922305070E+03  0.54512935470E+03  0.00000000000E+00 0.  1.
          2    1    1    2  501    0 -0.16493715872E+02 -0.12994488462E+03  0.22147473799E+02  0.13284662697E+03  0.00000000000E+00 0.  1.
<scales pt_clust_3="61.46677" pt_clust_4="177.02526" pt_clust_5="14000.00000" pt_clust_6="125.18673"></scales>
<clustering>
<clus scale="   61.467">  2  3  1 -1</clus>
<clus scale="  125.187">  2  6  1 -1</clus>
<clus scale="  177.025">  1  4  2 -1</clus>
<clus scale="  177.025">  1  3  2 -1</clus>
</clustering>
</event>
<event>
 6    0  0.3082502E+002  0.8783215E+02  0.7546771E-02  0.1308188E+00
          2   -1    0    0  503    0 -0.00000000000E+00  0.00000000000E+00  0.10125277136E+04  0.10125277136E+04  0.00000000000E+00 0. -1.
         21   -1    0    0  505  502  0.00000000000E+00 -0.00000000000E+00 -0.37752803365E+03  0.37752803365E+03  0.00000000000E+00 0.  1.
         21    1    1    2  503  504  0.18975562685E+02 -0.72196584614E+02  0.39020906657E+03  0.39728520542E+03  0.00000000000E+00 0. -1.
         21    1    1    2  504  502  0.81690853003E+01 -0.30189797414E+02 -0.15921945427E+02  0.35095101777E+02  0.00000000000E+00 0. -1.
         21    1    1    2  505  501  0.78447801927E+02  0.17921515596E+02 -0.33617073794E+03  0.34566747518E+03  0.00000000000E+00 0.  1.
          2    1    1    2  501    0 -0.10559244991E+03  0.84464866432E+02  0.59688329676E+03  0.61200796489E+03  0.00000000000E+00 0. -1.
<scales pt_clust_3="74.96297" pt_clust_4="31.27551" pt_clust_5="87.83215" pt_clust_6="14000.00000"></scales>
<clustering>
<clus scale="   31.276">  2  4  1 -1</clus>
<clus scale="   74.963">  1  3  2 -1</clus>
<clus scale="   87.832">  2  5  1 -1</clus>
<clus scale="   31.276">  2  3  1 -1</clus>
</clustering>
</event>
<event>
 6    0  0.3082502E+002  0.7329083E+02  0.7546771E-02  0.1349247E+00
         21   -1    0    0  503  502  0.00000000000E+00  0.00000000000E+00  0.73669578284E+02  0.73669578284E+02  0.00000000000E+00 0. -1.
          1   -1    0    0  504    0 -0.00000000000E+00 -0.00000000000E+00 -0.19800878695E+04  0.19800878695E+04  0.00000000000E+00 0.  1.
         21    1    1    2  503  501  0.55758190615E+02 -0.33168164742E+02 -0.59151367137E+02  0.87795143415E+02  0.00000000000E+00 0.  1.
         21    1    1    2  504  505 -0.86518574013E+01  0.36678439749E+02 -0.54899351685E+03  0.55028542060E+03  0.00000000000E+00 0. -1.
         21    1    1    2  505  502 -0.11455182225E+03  0.68357396012E+02 -0.21516455507E+02  0.13512146916E+03  0.00000000000E+00 0. -1.
          1    1    1    2  501    0  0.67445489033E+02 -0.71867671019E+02 -0.12767569517E+04  0.12805554146E+04  0.00000000000E+00 0.  1.
<scales pt_clust_3="63.54777" pt_clust_4="37.68504" pt_clust_5="14000.00000" pt_clust_6="73.29083"></scales>
<clustering>
<clus scale="   37.685">  2  4  1 -1</clus>
<clus scale="   63.548">  1  3  2 -1</clus>
<clus scale="   73.291">  2  6  1 -1</clus>
<clus scale="   63.548">  1  3  2 -1</clus>
</clustering>
</event>
<event>
 6    0  0.3082502E+002  0.9318680E+02  0.7546771E-02  0.1295313E+00
         21   -1    0    0  501  502  0.00000000000E+00  0.00000000000E+00  0.37313048536E+03  0.37313048536E+03  0.00000000000E+00 0.  1.
          2   -1    0    0  503    0 -0.00000000000E+00 -0.00000000000E+00 -0.93579315933E+03  0.93579315933E+03  0.00000000000E+00 0.  1.
         21    1    1    2  503  504  0.34976416006E+02  0.11844684312E+03 -0.16202589829E+03  0.20372873150E+03  0.00000000000E+00 0.  1.
         21    1    1    2  504  505 -0.73141116011E+02  0.11699794008E+02 -0.70943500033E+02  0.10256455639E+03  0.00000000000E+00 0.  1.
         21    1    1    2  505  502 -0.37643991007E+01 -0.47260536465E+02  0.33153595427E+03  0.33490867111E+03  0.00000000000E+00 0.  1.
          2    1    1    2  501    0  0.41929099106E+02 -0.82886100664E+02 -0.66122922993E+03  0.66772168569E+03  0.00000000000E+00 0.  1.
<scales pt_clust_3="93.18680" pt_clust_4="74.96223" pt_clust_5="47.41022" pt_clust_6="14000.00000"></scales>
<clustering>
<clus scale="   47.410">  1  5  2 -1</clus>
<clus scale="   74.962">  1  4  2 -1</clus>
<clus scale="   93.187">  1  3  2 -1</clus>
<clus scale="   47.410">  1  3  2 -1</clus>
</clustering>
</event>
<event>
 6    0  0.3082502E+002  0.8593621E+02  0.7546771E-02  0.1313002E+00
          2   -1    0    0  503    0 -0.00000000000E+00  0.00000000000E+00  0.22903213847E+04  0.22903213847E+04  0.00000000000E+00 0. -1.
         21   -1    0    0  505  502  0.00000000000E+00 -0.00000000000E+00 -0.99737288522E+02  0.99737288522E+02  0.00000000000E+00 0. -1.
         21    1    1    2  503  504 -0.68556289710E+02  0.21650658769E+02  0.84454293863E+03  0.84759748175E+03  0.00000000000E+00 0. -1.
         21    1    1    2  504  502 -0.29313022001E+02  0.13213971805E+02 -0.52095337437E+02  0.61219167688E+02  0.00000000000E+00 0. -1.
         21    1    1    2  505  501 -0.18971319624E+02 -0.83985158388E+02  0.92639316715E+01  0.86598142172E+02  0.00000000000E+00 0. -1.
          2    1    1    2  501    0  0.11684063133E+03  0.49120527814E+02  0.13888725633E+04  0.13946438816E+04  0.00000000000E+00 0. -1.
<scales pt_clust_3="73.02594" pt_clust_4="32.15373" pt_clust_5="85.93621" pt_clust_6="14000.00000"></scales>
<clustering>
<clus scale="   32.154">  2  4  1 -1</clus>
<clus scale="   73.026">  1  3  2 -1</clus>
<clus scale="   85.936">  2  5  1 -1</clus>
<clus scale="   32.154">  2  3  1 -1</clus>
</clustering>
</event>
<event>
 6    0  0.3082502E+002  0.1316569E+03  0.7546771E-02  0.1225018E+00
         -1   -1    0    0    0  501 -0.00000000000E+00  0.00000000000E+00  0.16641886080E+03  0.16641886080E+03  0.00000000000E+00 0. -1.
         21   -1    0    0  503  502  0.00000000000E+00 -0.00000000000E+00 -0.34244944415E+03  0.34244944415E+03  0.00000000000E+00 0. -1.
         21    1    1    2  503  504 -0.58871984264E+02 -0.46171362984E+02 -0.92964423858E+02  0.11933184568E+03  0.00000000000E+00 0. -1.
         21    1    1    2  504  501 -0.54263605165E+02  0.51171518188E+01 -0.33637873530E+02  0.64048658252E+02  0.00000000000E+00 0. -1.
         21    1    1    2  505  502  0.19323259096E+02 -0.33730729382E+02 -0.15858996348E+03  0.16328480323E+03  0.00000000000E+00 0. -1.
         -1    1    1    2    0  505  0.93812330332E+02  0.74784940547E+02  0.10916167752E+03  0.16220299780E+03  0.00000000000E+00 0. -1.
<scales pt_clust_3="43.43596" pt_clust_4="43.43596" pt_clust_5="38.87352" pt_clust_6="119.24087"></scales>
<clustering>
<clus scale="   38.874">  2  5  1 -1</clus>
<clus scale="   43.436">  3  4 -1 -1</clus>
<clus scale="  119.241">  1  6  2 -1</clus>
<clus scale="   38.874">  2  3  1 -1</clus>
</clustering>
</event>
<event>
 6    0  0.3082502E+002  0.1474757E+03  0.7546771E-02  0.1203610E+00
          2   -1    0    0  505    0 -0.00000000000E+00  0.00000000000E+00  0.78148288030E+03  0.78148288030E+03  0.00000000000E+00 0. -1.
         21   -1    0    0  504  502  0.00000000000E+00 -0.00000000000E+00 -0.20948613014E+04  0.20948613014E+04  0.00000000000E+00 0.  1.
         21    1    1    2  503  502 -0.31027156743E+02  0.41796596195E+02 -0.24894783207E+03  0.25433179707E+03  0.00000000000E+00 0.  1.
         21    1    1    2  504  501 -0.53470491739E+02  0.79792818350E+02 -0.18259718904E+04  0.18284964676E+04  0.00000000000E+00 0.  1.
         21    1    1    2  505  503  0.37728994311E+02  0.47060703364E+01  0.26760245622E+02  0.46494460481E+02  0.00000000000E+00 0. -1.
          2    1    1    2  501    0  0.46768654172E+02 -0.12629548488E+03  0.73478105581E+03  0.74702145652E+03  0.00000000000E+00 0. -1.
<scales pt_clust_3="51.98672" pt_clust_4="147.47572" pt_clust_5="38.02136" pt_clust_6="14000.00000"></scales>
<clustering>
<clus scale="   38.021">  1  5  2 -1</clus>
<clus scale="   51.987">  2  3  1 -1</clus>
<clus scale="  147.476">  2  4  1 -1</clus>
<clus scale="   51.987">  2  3  1 -1</clus>
</clustering>
</event>
<event>
 6    0  0.3082502E+002  0.2507295E+03  0.7546771E-02  0.1112845E+00
         21   -1    0    0  505  502  0.00000000000E+00  0.00000000000E+00  0.62236798565E+03  0.62236798565E+03  0.00000000000E+00 0. -1.
         -1   -1    0    0    0  501 -0.00000000000E+00 -0.00000000000E+00 -0.35275676048E+03  0.35275676048E+03  0.00000000000E+00 0. -1.
         21    1    1    2  503  501 -0.23364892132E+03  0.18167794779E+03  0.23876312537E+03  0.38027164656E+03  0.00000000000E+00 0.  1.
         21    1    1    2  504  503  0.11294522118E+03  0.11854277213E+02  0.67602907649E+02  0.13216391337E+03  0.00000000000E+00 0. -1.
         21    1    1    2  505  504  0.70911389915E+02  0.55165659709E+02  0.13081817031E+03  0.15869804320E+03  0.00000000000E+00 0. -1.
         -1    1    1    2    0  502  0.49792310223E+02 -0.24869788471E+03 -0.16757297816E+03  0.30399114300E+03  0.00000000000E+00 0. -1.
<scales pt_clust_3="250.72945" pt_clust_4="212.67288" pt_clust_5="74.06881" pt_clust_6="14000.00000"></scales>
<clustering>
<clus scale="   74.069">  4  5 -1 -1</clus>
<clus scale="  212.673">  1  4  2 -1</clus>
<clus scale="  250.729">  1  3  2 -1</clus>
<clus scale="  212.673">  1  3  2 -1</clus>
</clustering>
</event>
<event>
 6    0  0.3082502E+002  0.1401247E+03  0.7546771E-02  0.1213161E+00
         21   -1    0    0  503  502  0.00000000000E+00  0.00000000000E+00  0.13302895946E+04  0.13302895946E+04  0.00000000000E+00 0.  1.
          4   -1    0    0  502    0 -0.00000000000E+00 -0.00000000000E+00 -0.99621969921E+03  0.99621969921E+03  0.00000000000E+00 0.  1.
         21    1    1    2  503  504 -0.15191204207E+02  0.31606986622E+02  0.45575090746E+03  0.45709809006E+03  0.00000000000E+00 0.  1.
         21    1    1    2  504  505 -0.11467656888E+02 -0.67839736584E+02  0.83895267113E+03  0.84176916160E+03  0.00000000000E+00 0.  1.
         21    1    1    2  505  501  0.16188362901E+03  0.31685898861E+02 -0.22121488968E+03  0.27594625010E+03  0.00000000000E+00 0.  1.
          4    1    1    2  501    0 -0.13522476792E+03  0.45468511010E+01 -0.73941879347E+03  0.75169579209E+03  0.00000000000E+00 0.  1.
<scales pt_clust_3="35.06814" pt_clust_4="45.62977" pt_clust_5="14000.00000" pt_clust_6="140.12471"></scales>
<clustering>
<clus scale="   35.068">  1  3  2 -1</clus>
<clus scale="   45.630">  1  4  2 -1</clus>
<clus scale="  140.125">  2  6  1 -1</clus>
<clus scale="   35.068">  1  3  2 -1</clus>
</clustering>
</event>
<event>
 6    0  0.3082502E+002  0.4022257E+03  0.7546771E-02  0.1043012E+00
         -3   -1    0    0    0  501 -0.00000000000E+00  0.00000000000E+00  0.48759130252E+03  0.48759130252E+03  0.00000000000E+00 0.  1.
         21   -1    0    0  503  502  0.00000000000E+00 -0.00000000000E+00 -0.41911702893E+03  0.41911702893E+03  0.00000000000E+00 0.  1.
         21    1    1    2  503  501  0.43918221473E+02  0.28347225898E+02  0.69498427390E+02  0.86962099809E+02  0.00000000000E+00 0.  1.
         21    1    1    2  504  505 -0.27006408250E+01  0.26343760508E+03 -0.19683002088E+02  0.26418570325E+03  0.00000000000E+00 0.  1.
         21    1    1    2  505  502  0.37390400105E+01  0.12233287634E+03 -0.52144444395E+02  0.13303516879E+03  0.00000000000E+00 0.  1.
         -3    1    1    2    0  504 -0.44956620659E+02 -0.41411770732E+03  0.70803292687E+02  0.42252535960E+03  0.00000000000E+00 0.  1.
<scales pt_clust_3="52.27213" pt_clust_4="42.04525" pt_clust_5="42.04525" pt_clust_6="397.46728"></scales>
<clustering>
<clus scale="   42.045">  4  5 -1 -1</clus>
<clus scale="   52.272">  1  3  2 -1</clus>
<clus scale="  397.467">  1  6  2 -1</clus>
<clus scale="  402.226">  2  3  1 -1</clus>
</clustering>
</event>
<event>
 6    0  0.3082502E+002  0.6914324E+02  0.7546771E-02  0.1363031E+00
         21   -1    0    0  505  502  0.00000000000E+00  0.00000000000E+00  0.28021051643E+03  0.28021051643E+03  0.00000000000E+00 0.  1.
          1   -1    0    0  503    0 -0.00000000000E+00 -0.00000000000E+00 -0.70237398613E+03  0.70237398613E+03  0.00000000000E+00 0. -1.
         21    1    1    2  503  504 -0.29966120411E+01  0.33785256453E+02 -0.15712749574E+03  0.16074661165E+03  0.00000000000E+00 0. -1.
         21    1    1    2  504  502 -0.41839905101E+02 -0.46302743886E+02  0.10307339978E+03  0.12049335040E+03  0.00000000000E+00 0. -1.
         21    1    1    2  505  501  0.58056956746E+02  0.11004801190E+03  0.13796776210E+03  0.18578557137E+03  0.00000000000E+00 0.  1.
          1    1    1    2  501    0 -0.13220439605E+02 -0.97530524471E+02 -0.50607713584E+03  0.51555896913E+03  0.00000000000E+00 0. -1.
<scales pt_clust_3="33.91789" pt_clust_4="62.03782" pt_clust_5="14000.00000" pt_clust_6="69.14324"></scales>
<clustering>
<clus scale="   33.918">  2  3  1 -1</clus>
<clus scale="   62.038">  1  4  2 -1</clus>
<clus scale="   69.143">  2  6  1 -1</clus>
<clus scale="   62.038">  1  3  2 -1</clus>
</clustering>
</event>
<event>
 6    0  0.3082502E+002  0.1891641E+03  0.7546771E-02  0.1159217E+00
          2   -1    0    0  503    0 -0.00000000000E+00  0.00000000000E+00  0.13086034278E+03  0.13086034278E+03  0.00000000000E+00 0. -1.
         21   -1    0    0  504  502  0.00000000000E+00 -0.00000000000E+00 -0.69916216735E+03  0.69916216735E+03  0.00000000000E+00 0. -1.
         21    1    1    2  503  505 -0.33673978550E+02 -0.22188241055E+02 -0.73711620660E+01  0.40994986312E+02  0.00000000000E+00 0. -1.
         21    1    1    2  504  501  0.57620661451E+02  0.49041793856E+01 -0.34521095011E+03  0.35002113033E+03  0.00000000000E+00 0. -1.
         21    1    1    2  505  502  0.91624246728E+01 -0.17833252578E+03 -0.65688453756E+02  0.19026668845E+03  0.00000000000E+00 0. -1.
          2    1    1    2  501    0 -0.33109107574E+02  0.19561658745E+03 -0.15003125864E+03  0.24873970503E+03  0.00000000000E+00 0. -1.
<scales pt_clust_3="40.32685" pt_clust_4="57.08318" pt_clust_5="189.16405" pt_clust_6="14000.00000"></scales>
<clustering>
<clus scale="   40.327">  1  3  2 -1</clus>
<clus scale="   57.083">  2  4  1 -1</clus>
<clus scale="  189.164">  1  5  2 -1</clus>
<clus scale="   57.083">  2  3  1 -1</clus>
</clustering>
</event>
<event>
 6    0  0.3082502E+002  0.1256241E+03  0.7546771E-02  0.1234097E+00
         21   -1    0    0  501  502  0.00000000000E+00  0.00000000000E+00  0.62126011805E+02  0.62126011805E+02  0.00000000000E+00 0. -1.
          2   -1    0    0  504    0 -0.00000000000E+00 -0.00000000000E+00 -0.35477386373E+04  0.35477386373E+04  0.00000000000E+00 0. -1.
         21    1    1    2  503  505  0.32558512131E+02 -0.94904960909E+02 -0.72399693557E+02  0.12372842820E+03  0.00000000000E+00 0. -1.
         21    1    1    2  504  503  0.29306545532E+02 -0.23706063426E+02 -0.30940134123E+03  0.31168901330E+03  0.00000000000E+00 0. -1.
         21    1    1    2  505  502 -0.25803511409E+02 -0.32331949767E+02  0.20580565257E+02  0.46203201654E+02  0.00000000000E+00 0. -1.
          2    1    1    2  501    0 -0.36061546254E+02  0.15094297410E+03 -0.31243921560E+04  0.31282440060E+04  0.00000000000E+00 0. -1.
<scales pt_clust_3="125.62414" pt_clust_4="37.69418" pt_clust_5="41.36762" pt_clust_6="14000.00000"></scales>
<clustering>
<clus scale="   37.694">  2  4  1 -1</clus>
<clus scale="   41.368">  1  5  2 -1</clus>
<clus scale="  125.624">  1  3  2 -1</clus>
<clus scale="   41.368">  1  3  2 -1</clus>
</clustering>
</event>
<event>
 6    0  0.3082502E+002  0.1022123E+03  0.7546771E-02  0.1275711E+00
         21   -1    0    0  505  502  0.00000000000E+00  0.00000000000E+00  0.55274929825E+03  0.55274929825E+03  0.00000000000E+00 0.  1.
         -3   -1    0    0    0  501 -0.00000000000E+00 -0.00000000000E+00 -0.60266928537E+02  0.60266928537E+02  0.00000000000E+00 0. -1.
         21    1    1    2  503  502 -0.11050152060E+03 -0.73587073479E+02  0.26464266117E+03  0.29607664810E+03  0.00000000000E+00 0.  1.
         21    1    1    2  504  501  0.51417146574E+02  0.78032462181E+01  0.49722837070E+02  0.71951192760E+02  0.00000000000E+00 0.  1.
         21    1    1    2  505  504  0.41950393935E+02 -0.12987627474E+02  0.15503644263E+03  0.16113600641E+03  0.00000000000E+00 0.  1.
         -3    1    1    2    0  503  0.17133980090E+02  0.78771454735E+02  0.23080428842E+02  0.83852379515E+02  0.00000000000E+00 0. -1.
<scales pt_clust_3="14000.00000" pt_clust_4="58.17375" pt_clust_5="43.91485" pt_clust_6="102.21229"></scales>
<clustering>
<clus scale="   43.915">  1  5  2 -1</clus>
<clus scale="   58.174">  2  4  1 -1</clus>
<clus scale="  102.212">  2  6  1 -1</clus>
<clus scale="   43.915">  1  3  2 -1</clus>
</clustering>
</event>
<event>
 6    0  0.3082502E+002  0.1045055E+03  0.7546771E-02  0.1271097E+00
         21   -1    0    0  504  502  0.00000000000E+00  0.00000000000E+00  0.14402313082E+04  0.14402313082E+04  0.00000000000E+00 0.  1.
          1   -1    0    0  505    0 -0.00000000000E+00 -0.00000000000E+00 -0.35408669711E+03  0.35408669711E+03  0.00000000000E+00 0.  1.
         21    1    1    2  503  502 -0.46886257256E+02 -0.64020405289E+02 -0.25755756655E+01  0.79395006158E+02  0.00000000000E+00 0.  1.
         21    1    1    2  504  501 -0.12087569810E+02  0.10610592282E+03  0.13833501506E+04  0.13874661133E+04  0.00000000000E+00 0.  1.
         21    1    1    2  505  503  0.58746883554E+02  0.44189531772E+01 -0.46628547490E+02  0.75132848446E+02  0.00000000000E+00 0. -1.
          1    1    1    2  501    0  0.22694351185E+00 -0.46504470710E+02 -0.24800141643E+03  0.25232403740E+03  0.00000000000E+00 0.  1.
<scales pt_clust_3="104.50550" pt_clust_4="14000.00000" pt_clust_5="63.14889" pt_clust_6="46.50502"></scales>
<clustering>
<clus scale="   46.505">  2  6  1 -1</clus>
<clus scale="   63.149">  2  5  1 -1</clus>
<clus scale="  104.506">  2  3  1 -1</clus>
<clus scale="  104.506">  1  3  2 -1</clus>
</clustering>
</event>
<event>
 6    0  0.3082502E+002  0.9124880E+02  0.7546771E-02  0.1299855E+00
         21   -1    0    0  503  502  0.00000000000E+00  0.00000000000E+00  0.17305225997E+04  0.17305225997E+04  0.00000000000E+00 0. -1.
          2   -1    0    0  504    0 -0.00000000000E+00 -0.00000000000E+00 -0.34683742087E+04  0.34683742087E+04  0.00000000000E+00 0. -1.
         21    1    1    2  503  501  0.19133169676E+02  0.85532115070E+02  0.58946207270E+03  0.59594241001E+03  0.00000000000E+00 0. -1.
         21    1    1    2  504  505  0.26657300530E+02 -0.40777104495E+02 -0.20216844800E+04  0.20222713766E+04  0.00000000000E+00 0. -1.
         21    1    1    2  505  502  0.43721746002E+02 -0.19263417218E+02  0.11355234753E+04  0.11365281490E+04  0.00000000000E+00 0. -1.
          2    1    1    2  501    0 -0.89512216208E+02 -0.25491593357E+02 -0.14411526771E+04  0.14441548729E+04  0.00000000000E+00 0. -1.
<scales pt_clust_3="14000.00000" pt_clust_4="48.73716" pt_clust_5="47.77730" pt_clust_6="91.24880"></scales>
<clustering>
<clus scale="   47.777">  1  5  2 -1</clus>
<clus scale="   48.737">  2  4  1 -1</clus>
<clus scale="   91.249">  2  6  1 -1</clus>
<clus scale="   47.777">  1  3  2 -1</clus>
</clustering>
</event>
<event>
 6    0  0.3082502E+002  0.8424915E+02  0.7546771E-02  0.1317408E+00
         21   -1    0    0  503  502  0.00000000000E+00  0.00000000000E+00  0.26732980741E+02  0.26732980741E+02  0.00000000000E+00 0.  1.
          1   -1    0    0  505    0 -0.00000000000E+00 -0.00000000000E+00 -0.13433855504E+04  0.13433855504E+04  0.00000000000E+00 0. -1.
         21    1    1    2  503  501  0.10076745107E+03 -0.15119189455E+02 -0.13646411146E+03  0.17030890406E+03  0.00000000000E+00 0.  1.
         21    1    1    2  504  502 -0.27531313743E+02 -0.20261558733E+02 -0.51915376080E+02  0.62158750569E+02  0.00000000000E+00 0. -1.
         21    1    1    2  505  504  0.14482079751E+02  0.53826503041E+02 -0.47397710276E+03  0.47724345674E+03  0.00000000000E+00 0.  1.
          1    1    1    2  501    0 -0.87718217081E+02 -0.18445754853E+02 -0.65429597938E+03  0.66040741979E+03  0.00000000000E+00 0. -1.
<scales pt_clust_3="14000.00000" pt_clust_4="34.18339" pt_clust_5="53.74569" pt_clust_6="84.24915"></scales>
<clustering>
<clus scale="   34.183">  1  4  2 -1</clus>
<clus scale="   53.746">  2  5  1 -1</clus>
<clus scale="   84.249">  2  6  1 -1</clus>
<clus scale="   34.183">  1  3  2 -1</clus>
</clustering>
</event>
<event>
 6    0  0.3082502E+002  0.1438167E+03  0.7546771E-02  0.1208284E+00
          2   -1    0    0  503    0 -0.00000000000E+00  0.00000000000E+00  0.12180031277E+04  0.12180031277E+04  0.00000000000E+00 0. -1.
         21   -1    0    0  501  502  0.00000000000E+00 -0.00000000000E+00 -0.14710549550E+03  0.14710549550E+03  0.00000000000E+00 0. -1.
         21    1    1    2  503  504 -0.13477364934E+02 -0.28779306459E+02  0.32172251779E+03  0.32328820934E+03  0.00000000000E+00 0. -1.
         21    1    1    2  504  505  0.24976642412E+02  0.40102413385E+02  0.23856352814E+03  0.24319661425E+03  0.00000000000E+00 0. -1.
         21    1    1    2  505  502  0.63837416202E+02 -0.12919789328E+03 -0.97913993415E+02  0.17422531803E+03  0.00000000000E+00 0. -1.
          2    1    1    2  501    0 -0.75336693680E+02  0.11787478636E+03  0.60852557966E+03  0.62439848155E+03  0.00000000000E+00 0. -1.
<scales pt_clust_3="31.77873" pt_clust_4="38.77008" pt_clust_5="14000.00000" pt_clust_6="143.81666"></scales>
<clustering>
<clus scale="   31.779">  1  3  2 -1</clus>
<clus scale="   38.770">  1  4  2 -1</clus>
<clus scale="  143.817">  1  6  2 -1</clus>
<clus scale="  143.817">  2  3  1 -1</clus>
</clustering>
</event>
<event>
 6    0  0.3082502E+002  0.1120276E+03  0.7546771E-02  0.1256861E+00
          2   -1    0    0  504    0 -0.00000000000E+00  0.00000000000E+00  0.36159759245E+04  0.36159759245E+04  0.00000000000E+00 0.  1.
         21   -1    0    0  501  502  0.00000000000E+00 -0.00000000000E+00 -0.16127490640E+02  0.16127490640E+02  0.00000000000E+00 0.  1.
         21    1    1    2  503  502 -0.70647560594E+02  0.74055892720E+02  0.22682208823E+03  0.24884455545E+03  0.00000000000E+00 0.  1.
         21    1    1    2  504  505 -0.53127910032E+02  0.83563850935E+01  0.94578588237E+03  0.94731374912E+03  0.00000000000E+00 0.  1.
         21    1    1    2  505  503  0.14801827584E+03 -0.53874125000E+02  0.22007706080E+04  0.22064004850E+04  0.00000000000E+00 0.  1.
          2    1    1    2  501    0 -0.24242805213E+02 -0.28538152813E+02  0.22646985528E+03  0.22954462555E+03  0.00000000000E+00 0.  1.
<scales pt_clust_3="14000.00000" pt_clust_4="54.82837" pt_clust_5="112.02757" pt_clust_6="37.44516"></scales>
<clustering>
<clus scale="   37.445">  2  6  1 -1</clus>
<clus scale="   54.828">  1  4  2 -1</clus>
<clus scale="  112.028">  1  5  2 -1</clus>
<clus scale="   37.445">  2  3  1 -1</clus>
</clustering>
</event>
<event>
 6    0  0.3082502E+002  0.8590617E+02  0.7546771E-02  0.1313080E+00
          2   -1    0    0  505    0 -0.00000000000E+00  0.00000000000E+00  0.60497865844E+03  0.60497865844E+03  0.00000000000E+00 0. -1.
         21   -1    0    0  504  502  0.00000000000E+00 -0.00000000000E+00 -0.30471520662E+03  0.30471520662E+03  0.00000000000E+00 0. -1.
         21    1    1    2  503  502 -0.18672753851E+02 -0.36865487323E+02 -0.27540101232E+03  0.27848420687E+03  0.00000000000E+00 0. -1.
         21    1    1    2  504  501  0.61724575215E+02 -0.33426996352E+02  0.23779580147E+03  0.24793977185E+03  0.00000000000E+00 0. -1.
         21    1    1    2  505  503 -0.37263595803E+02  0.10764381997E+03  0.13376203940E+03  0.17569305830E+03  0.00000000000E+00 0. -1.
          2    1    1    2  501    0 -0.57882255601E+01 -0.37351336299E+02  0.20410662326E+03  0.20757682803E+03  0.00000000000E+00 0. -1.
<scales pt_clust_3="41.46358" pt_clust_4="85.90617" pt_clust_5="14000.00000" pt_clust_6="37.79717"></scales>
<clustering>
<clus scale="   37.797">  1  6  2 -1</clus>
<clus scale="   41.464">  2  3  1 -1</clus>
<clus scale="   85.906">  1  4  2 -1</clus>
<clus scale="   41.464">  2  3  1 -1</clus>
</clustering>
</event>
<event>
 6    0  0.3082502E+002  0.9509816E+02  0.7546771E-02  0.1290955E+00
         21   -1    0    0  503  502  0.00000000000E+00  0.00000000000E+00  0.19540668533E+03  0.19540668533E+03  0.00000000000E+00 0. -1.
          2   -1    0    0  504    0 -0.00000000000E+00 -0.00000000000E+00 -0.80219209166E+03  0.80219209166E+03  0.00000000000E+00 0.  1.
         21    1    1    2  503  501  0.36276883806E+02  0.53029347625E+02 -0.82839083101E+01  0.64782305803E+02  0.00000000000E+00 0. -1.
         21    1    1    2  504  505 -0.41346084903E+02  0.12225404526E+02 -0.57409636027E+02  0.71797113879E+02  0.00000000000E+00 0.  1.
         21    1    1    2  505  502 -0.24644609830E+02 -0.11186629389E+03  0.13818923598E+03  0.17949286739E+03  0.00000000000E+00 0. -1.
          2    1    1    2  501    0  0.29713810926E+02  0.46611541739E+02 -0.67928109797E+03  0.68152648991E+03  0.00000000000E+00 0.  1.
<scales pt_clust_3="95.09816" pt_clust_4="43.11565" pt_clust_5="14000.00000" pt_clust_6="58.49923"></scales>
<clustering>
<clus scale="   43.116">  2  4  1 -1</clus>
<clus scale="   58.499">  2  6  1 -1</clus>
<clus scale="   95.098">  2  3  1 -1</clus>
<clus scale="   95.098">  1  3  2 -1</clus>
</clustering>
</event>
<event>
 6    0  0.3082502E+002  0.8800587E+02  0.7546771E-02  0.1307754E+00
          2   -1    0    0  505    0 -0.00000000000E+00  0.00000000000E+00  0.21082841816E+04  0.21082841816E+04  0.00000000000E+00 0.  1.
         21   -1    0    0  504  502  0.00000000000E+00 -0.00000000000E+00 -0.43953598978E+02  0.43953598978E+02  0.00000000000E+00 0.  1.
         21    1    1    2  503  502 -0.27447321926E+02 -0.13731939055E+02 -0.18563630868E+02  0.35868231377E+02  0.00000000000E+00 0.  1.
         21    1    1    2  504  501  0.37467718404E+02 -0.41950473245E+02  0.53346204220E+02  0.77520898038E+02  0.00000000000E+00 0.  1.
         21    1    1    2  505  503 -0.91351527884E+02  0.16261666365E+02  0.13697394311E+04  0.13728786009E+04  0.00000000000E+00 0.  1.
          2    1    1    2  501    0  0.81331131407E+02  0.39420745934E+02  0.65980857808E+03  0.66597005026E+03  0.00000000000E+00 0.  1.
<scales pt_clust_3="30.69074" pt_clust_4="54.78682" pt_clust_5="14000.00000" pt_clust_6="88.00587"></scales>
<clustering>
<clus scale="   30.691">  2  3  1 -1</clus>
<clus scale="   54.787">  2  4  1 -1</clus>
<clus scale="   88.006">  2  6  1 -1</clus>
<clus scale="   30.691">  2  3  1 -1</clus>
</clustering>
</event>
<event>
 6    0  0.3082502E+002  0.1142408E+03  0.7546771E-02  0.1252912E+00
          2   -1    0    0  503    0 -0.00000000000E+00  0.00000000000E+00  0.11475016866E+04  0.11475016866E+04  0.00000000000E+00 0. -1.
         21   -1    0    0  504  502  0.00000000000E+00 -0.00000000000E+00 -0.18238640860E+03  0.18238640860E+03  0.00000000000E+00 0.  1.
         21    1    1    2  503  502  0.23186963313E+02 -0.32403090340E+02  0.52087399057E+02  0.65579666603E+02  0.00000000000E+00 0. -1.
         21    1    1    2  504  505 -0.35086678355E+02 -0.49067646755E+02 -0.89354161113E+02  0.10780943866E+03  0.00000000000E+00 0.  1.
         21    1    1    2  505  501 -0.74646380267E+02 -0.13319542596E+01 -0.54763280557E+02  0.92589810922E+02  0.00000000000E+00 0. -1.
          2    1    1    2  501    0  0.86546095310E+02  0.82802691355E+02  0.10571453206E+04  0.10639091790E+04  0.00000000000E+00 0. -1.
<scales pt_clust_3="39.84464" pt_clust_4="60.43165" pt_clust_5="14000.00000" pt_clust_6="114.24082"></scales>
<clustering>
<clus scale="   39.845">  1  3  2 -1</clus>
<clus scale="   60.432">  2  4  1 -1</clus>
<clus scale="  114.241">  1  6  2 -1</clus>
<clus scale="   60.432">  2  3  1 -1</clus>
</clustering>
</event>
<event>
 6    0  0.3082502E+002  0.1153424E+03  0.7546771E-02  0.1250985E+00
         21   -1    0    0  504  502  0.00000000000E+00  0.00000000000E+00  0.33170040735E+03  0.33170040735E+03  0.00000000000E+00 0.  1.
          2   -1    0    0  505    0 -0.00000000000E+00 -0.00000000000E+00 -0.23350052398E+03  0.23350052398E+03  0.00000000000E+00 0. -1.
         21    1    1    2  503  502  0.32323705231E+02 -0.26383146160E+02 -0.69852821411E+02  0.81365281172E+02  0.00000000000E+00 0. -1.
         21    1    1    2  504  501  0.48917558914E+02 -0.10056341183E+03  0.25434887790E+03  0.27784758242E+03  0.00000000000E+00 0.  1.
         21    1    1    2  505  503 -0.27914461085E+02 -0.16984444141E+02 -0.78217468310E+01  0.33598633959E+02  0.00000000000E+00 0.  1.
          2    1    1    2  501    0 -0.53326803059E+02  0.14393100213E+03 -0.78474426286E+02  0.17238943378E+03  0.00000000000E+00 0. -1.
<scales pt_clust_3="39.40711" pt_clust_4="115.34241" pt_clust_5="32.67550" pt_clust_6="14000.00000"></scales>
<clustering>
<clus scale="   32.676">  2  5  1 -1</clus>
<clus scale="   39.407">  2  3  1 -1</clus>
<clus scale="  115.342">  1  4  2 -1</clus>
<clus scale="  115.342">  1  3  2 -1</clus>
</clustering>
</event>
<event>
 6    0  0.3082502E+002  0.1080395E+03  0.7546771E-02  0.1264244E+00
         21   -1    0    0  503  502  0.00000000000E+00  0.00000000000E+00  0.20354001665E+04  0.20354001665E+04  0.00000000000E+00 0.  1.
         -1   -1    0    0    0  501 -0.00000000000E+00 -0.00000000000E+00 -0.40209402501E+03  0.40209402501E+03  0.00000000000E+00 0. -1.
         21    1    1    2  503  504  0.71237892931E+02 -0.13166374797E+02  0.13561690201E+04  0.13581025741E+04  0.00000000000E+00 0.  1.
         21    1    1    2  504  501  0.48518537956E+02  0.17694932325E+02  0.58782629062E+03  0.59009059228E+03  0.00000000000E+00 0.  1.
         21    1    1    2  505  502 -0.36578574003E+02 -0.57226106794E+02  0.69138794329E+02  0.96917450731E+02  0.00000000000E+00 0. -1.
         -1    1    1    2    0  505 -0.83177856883E+02  0.52697549266E+02 -0.37982796353E+03  0.39238357439E+03  0.00000000000E+00 0. -1.
<scales pt_clust_3="37.53912" pt_clust_4="37.53912" pt_clust_5="67.91774" pt_clust_6="98.46729"></scales>
<clustering>
<clus scale="   37.539">  3  4 -1 -1</clus>
<clus scale="   67.918">  1  5  2 -1</clus>
<clus scale="   98.467">  2  6  1 -1</clus>
<clus scale="   67.918">  1  3  2 -1</clus>
</clustering>
</event>
<event>
 6    0  0.3082502E+002  0.1057979E+03  0.7546771E-02  0.1268555E+00
          2   -1    0    0  504    0 -0.00000000000E+00  0.00000000000E+00  0.93246723576E+03  0.93246723576E+03  0.00000000000E+00 0. -1.
         21   -1    0    0  503  502  0.00000000000E+00 -0.00000000000E+00 -0.40102751841E+03  0.40102751841E+03  0.00000000000E+00 0.  1.
         21    1    1    2  503  501  0.88406851552E+01 -0.49273417699E+02 -0.47402118530E+02  0.68941919374E+02  0.00000000000E+00 0. -1.
         21    1    1    2  504  505 -0.42745263280E+02 -0.28726756885E+01  0.10241410375E+03  0.11101377593E+03  0.00000000000E+00 0. -1.
         21    1    1    2  505  502  0.66076521231E+01 -0.56658155972E+02 -0.33225356645E+03  0.33711458011E+03  0.00000000000E+00 0.  1.
          2    1    1    2  501    0  0.27296926001E+02  0.10880424936E+03  0.80868129857E+03  0.81642447876E+03  0.00000000000E+00 0. -1.
<scales pt_clust_3="50.00174" pt_clust_4="42.84168" pt_clust_5="105.79790" pt_clust_6="14000.00000"></scales>
<clustering>
<clus scale="   42.842">  1  4  2 -1</clus>
<clus scale="   50.002">  2  3  1 -1</clus>
<clus scale="  105.798">  2  5  1 -1</clus>
<clus scale="   50.002">  2  3  1 -1</clus>
</clustering>
</event>
<event>
 6    0  0.3082502E+002  0.7699209E+02  0.7546771E-02  0.1337811E+00
          3   -1    0    0  505    0 -0.00000000000E+00  0.00000000000E+00  0.33237352620E+03  0.33237352620E+03  0.00000000000E+00 0. -1.
         21   -1    0    0  504  502  0.00000000000E+00 -0.00000000000E+00 -0.84912870714E+03  0.84912870714E+03  0.00000000000E+00 0.  1.
         21    1    1    2  503  502 -0.42580770330E+02 -0.90009585750E+01 -0.10394676258E+03  0.11269014468E+03  0.00000000000E+00 0. -1.
         21    1    1    2  504  501 -0.24208926177E+02  0.47660775855E+02 -0.71179124920E+03  0.71379577198E+03  0.00000000000E+00 0.  1.
         21    1    1    2  505  503 -0.28975042974E+02  0.36841671536E+02  0.20801577012E+02  0.51279308528E+02  0.00000000000E+00 0.  1.
          3    1    1    2  501    0  0.95764739481E+02 -0.75501488816E+02  0.27818125383E+03  0.30373700815E+03  0.00000000000E+00 0. -1.
<scales pt_clust_3="43.52171" pt_clust_4="76.99209" pt_clust_5="47.27346" pt_clust_6="14000.00000"></scales>
<clustering>
<clus scale="   43.522">  2  3  1 -1</clus>
<clus scale="   47.273">  1  5  2 -1</clus>
<clus scale="   76.992">  2  4  1 -1</clus>
<clus scale="   43.522">  2  3  1 -1</clus>
</clustering>
</event>
<event>
 6    0  0.3082502E+002  0.1255159E+03  0.7546771E-02  0.1234265E+00
          1   -1    0    0  505    0 -0.00000000000E+00  0.00000000000E+00  0.11264372155E+04  0.11264372155E+04  0.00000000000E+00 0. -1.
         21   -1    0    0  504  502  0.00000000000E+00 -0.00000000000E+00 -0.88824588899E+03  0.88824588899E+03  0.00000000000E+00 0. -1.
         21    1    1    2  503  501  0.24315198194E+02  0.30746709309E+02  0.33887272800E+03  0.34113240065E+03  0.00000000000E+00 0. -1.
         21    1    1    2  504  503  0.15390188651E+02 -0.11624432858E+03 -0.87974314843E+03  0.88752330057E+03  0.00000000000E+00 0. -1.
         21    1    1    2  505  502 -0.22624260389E+02  0.33817412215E+02  0.18213837600E+03  0.18662760390E+03  0.00000000000E+00 0. -1.
          1    1    1    2  501    0 -0.17081126455E+02  0.51680207060E+02  0.59692337099E+03  0.59939979940E+03  0.00000000000E+00 0. -1.
<scales pt_clust_3="38.32930" pt_clust_4="117.10802" pt_clust_5="40.68752" pt_clust_6="38.32930"></scales>
<clustering>
<clus scale="   38.329">  3  6 -1 -1</clus>
<clus scale="   40.688">  1  5  2 -1</clus>
<clus scale="  117.108">  2  4  1 -1</clus>
<clus scale="  117.108">  2  3  1 -1</clus>
</clustering>
</event>
<event>
 6    0  0.3082502E+002  0.1052356E+03  0.7546771E-02  0.1269656E+00
          1   -1    0    0  503    0 -0.00000000000E+00  0.00000000000E+00  0.15830238623E+04  0.15830238623E+04  0.00000000000E+00 0. -1.
         21   -1    0    0  504  502  0.00000000000E+00 -0.00000000000E+00 -0.34927374885E+02  0.34927374885E+02  0.00000000000E+00 0.  1.
         21    1    1    2  503  505  0.33910401868E+02  0.11819320997E+02  0.78714470036E+03  0.78796344523E+03  0.00000000000E+00 0. -1.
         21    1    1    2  504  501 -0.90720564699E+02  0.35946212768E+02  0.10639386267E+03  0.14436760400E+03  0.00000000000E+00 0.  1.
         21    1    1    2  505  502  0.63497341283E+01  0.40463204571E+02  0.25161050365E+02  0.48069413384E+02  0.00000000000E+00 0.  1.
          1    1    1    2  501    0  0.50460428702E+02 -0.88228738336E+02  0.62939687398E+03  0.63755077454E+03  0.00000000000E+00 0. -1.
<scales pt_clust_3="35.91116" pt_clust_4="105.23557" pt_clust_5="41.76329" pt_clust_6="14000.00000"></scales>
<clustering>
<clus scale="   35.911">  1  3  2 -1</clus>
<clus scale="   41.763">  2  5  1 -1</clus>
<clus scale="  105.236">  2  4  1 -1</clus>
<clus scale="   41.763">  2  3  1 -1</clus>
</clustering>
</event>
<event>
 6    0  0.3082502E+002  0.8145232E+02  0.7546771E-02  0.1324980E+00
          2   -1    0    0  505    0 -0.00000000000E+00  0.00000000000E+00  0.11092232499E+04  0.11092232499E+04  0.00000000000E+00 0.  1.
         21   -1    0    0  501  502  0.00000000000E+00 -0.00000000000E+00 -0.29825067217E+02  0.29825067217E+02  0.00000000000E+00 0.  1.
         21    1    1    2  503  502 -0.25978343744E+02 -0.32773027718E+02  0.18137402660E+02  0.45584109783E+02  0.00000000000E+00 0.  1.
         21    1    1    2  504  503  0.60305303720E+02  0.35813095289E+02  0.13275470328E+03  0.15014366019E+03  0.00000000000E+00 0.  1.
         21    1    1    2  505  504 -0.86468553585E+02 -0.43924809286E+02  0.63976283136E+03  0.64707239163E+03  0.00000000000E+00 0.  1.
          2    1    1    2  501    0  0.52141593609E+02  0.40884741715E+02  0.28874324537E+03  0.29624815550E+03  0.00000000000E+00 0.  1.
<scales pt_clust_3="41.82040" pt_clust_4="49.69746" pt_clust_5="81.45232" pt_clust_6="14000.00000"></scales>
<clustering>
<clus scale="   41.820">  2  3  1 -1</clus>
<clus scale="   49.697">  2  4  1 -1</clus>
<clus scale="   81.452">  1  5  2 -1</clus>
<clus scale="   41.820">  2  3  1 -1</clus>
</clustering>
</event>
<event>
 6    0  0.3082502E+002  0.1033375E+03  0.7546771E-02  0.1273430E+00
          2   -1    0    0  505    0 -0.00000000000E+00  0.00000000000E+00  0.30184776928E+04  0.30184776928E+04  0.00000000000E+00 0.  1.
         21   -1    0    0  504  502  0.00000000000E+00 -0.00000000000E+00 -0.29941996095E+02  0.29941996095E+02  0.00000000000E+00 0.  1.
         21    1    1    2  503  502  0.75388279589E+02  0.56422725343E+02  0.97425178358E+02  0.13549384493E+03  0.00000000000E+00 0.  1.
         21    1    1    2  504  501 -0.37479440398E+02  0.42922208969E+02  0.79926448372E+02  0.98159368502E+02  0.00000000000E+00 0.  1.
         21    1    1    2  505  503 -0.30100485873E+02  0.26599368481E+01  0.30450761279E+03  0.30600326920E+03  0.00000000000E+00 0.  1.
          2    1    1    2  501    0 -0.78083533175E+01 -0.10200487116E+03  0.25066764571E+04  0.25087632062E+04  0.00000000000E+00 0.  1.
<scales pt_clust_3="14000.00000" pt_clust_4="57.70225" pt_clust_5="30.21778" pt_clust_6="103.33747"></scales>
<clustering>
<clus scale="   30.218">  1  5  2 -1</clus>
<clus scale="   57.702">  2  4  1 -1</clus>
<clus scale="  103.337">  1  6  2 -1</clus>
<clus scale="   57.702">  2  3  1 -1</clus>
</clustering>
</event>
<event>
 6    0  0.3082502E+002  0.1675709E+03  0.7546771E-02  0.1180405E+00
         21   -1    0    0  501  502  0.00000000000E+00  0.00000000000E+00  0.56862897582E+03  0.56862897582E+03  0.00000000000E+00 0. -1.
          2   -1    0    0  503    0 -0.00000000000E+00 -0.00000000000E+00 -0.20140384815E+04  0.20140384815E+04  0.00000000000E+00 0.  1.
         21    1    1    2  503  504  0.33574852066E+02  0.53357867386E+02 -0.29717077211E+03  0.30378413471E+03  0.00000000000E+00 0. -1.
         21    1    1    2  504  505 -0.10709865140E+03  0.21746970945E+02  0.93929844216E+02  0.14410366932E+03  0.00000000000E+00 0. -1.
         21    1    1    2  505  502 -0.64501820156E+02 -0.39945298043E+02  0.44004976364E+03  0.44654216611E+03  0.00000000000E+00 0. -1.
          2    1    1    2  501    0  0.13802561948E+03 -0.35159540289E+02 -0.16822183414E+04  0.16882374872E+04  0.00000000000E+00 0.  1.
<scales pt_clust_3="63.04231" pt_clust_4="14000.00000" pt_clust_5="75.76177" pt_clust_6="167.57087"></scales>
<clustering>
<clus scale="   63.042">  2  3  1 -1</clus>
<clus scale="   75.762">  1  5  2 -1</clus>
<clus scale="  167.571">  2  6  1 -1</clus>
<clus scale="   75.762">  1  3  2 -1</clus>
</clustering>
</event>
<event>
 6    0  0.3082502E+002  0.8855268E+02  0.7546771E-02  0.1306395E+00
         21   -1    0    0  503  502  0.00000000000E+00  0.00000000000E+00  0.17438895306E+03  0.17438895306E+03  0.00000000000E+00 0.  1.
          3   -1    0    0  502    0 -0.00000000000E+00 -0.00000000000E+00 -0.94742923586E+03  0.94742923586E+03  0.00000000000E+00 0. -1.
         21    1    1    2  503  504  0.44844679898E+01 -0.85789828388E+02  0.13611474070E+03  0.16095722334E+03  0.00000000000E+00 0.  1.
         21    1    1    2  504  505 -0.45900519294E+02  0.15756670212E+03 -0.31552393060E+03  0.35565358717E+03  0.00000000000E+00 0. -1.
         21    1    1    2  505  501  0.18533595838E+02 -0.52274158200E+02 -0.14007023515E+03  0.15065109546E+03  0.00000000000E+00 0. -1.
          3    1    1    2  501    0  0.22882455466E+02 -0.19502715529E+02 -0.45356085776E+03  0.45455628295E+03  0.00000000000E+00 0. -1.
<scales pt_clust_3="14000.00000" pt_clust_4="88.55268" pt_clust_5="63.28657" pt_clust_6="30.06597"></scales>
<clustering>
<clus scale="   30.066">  2  6  1 -1</clus>
<clus scale="   63.287">  2  5  1 -1</clus>
<clus scale="   88.553">  2  4  1 -1</clus>
<clus scale="   88.553">  1  3  2 -1</clus>
</clustering>
</event>
<event>
 6    0  0.3082502E+002  0.9187677E+02  0.7546771E-02  0.1298369E+00
         21   -1    0    0  503  502  0.00000000000E+00  0.00000000000E+00  0.13457833396E+04  0.13457833396E+04  0.00000000000E+00 0.  1.
          2   -1    0    0  505    0 -0.00000000000E+00 -0.00000000000E+00 -0.25455323562E+04  0.25455323562E+04  0.00000000000E+00 0. -1.
         21    1    1    2  503  501 -0.38338090943E+02  0.10590039537E+03  0.11557036167E+04  0.11611785189E+04  0.00000000000E+00 0.  1.
         21    1    1    2  504  502  0.13452932009E+02 -0.55938166251E+02  0.17663257163E+03  0.18576631876E+03  0.00000000000E+00 0.  1.
         21    1    1    2  505  504 -0.38968107639E+02 -0.37633311517E+02 -0.12292329015E+03  0.13433136197E+03  0.00000000000E+00 0.  1.
          2    1    1    2  501    0  0.63853266574E+02 -0.12328917600E+02 -0.24091619148E+04  0.24100394963E+04  0.00000000000E+00 0. -1.
<scales pt_clust_3="14000.00000" pt_clust_4="91.87677" pt_clust_5="54.17361" pt_clust_6="55.76754"></scales>
<clustering>
<clus scale="   54.174">  2  5  1 -1</clus>
<clus scale="   55.768">  2  6  1 -1</clus>
<clus scale="   91.877">  2  4  1 -1</clus>
<clus scale="   91.877">  1  3  2 -1</clus>
</clustering>
</event>
<event>
 6    0  0.3082502E+002  0.1066101E+03  0.7546771E-02  0.1266979E+00
         21   -1    0    0  504  502  0.00000000000E+00  0.00000000000E+00  0.11662561930E+03  0.11662561930E+03  0.00000000000E+00 0. -1.
         -2   -1    0    0    0  501 -0.00000000000E+00 -0.00000000000E+00 -0.10523734673E+04  0.10523734673E+04  0.00000000000E+00 0.  1.
         21    1    1    2  503  501 -0.43282044107E+02 -0.18542952834E+03 -0.19626541234E+03  0.27345485442E+03  0.00000000000E+00 0. -1.
         21    1    1    2  504  503  0.34345223374E+02  0.89200878444E+02  0.41216944858E+02  0.10409239947E+03  0.00000000000E+00 0. -1.
         21    1    1    2  505  502  0.25775695722E+02  0.46803361981E+02 -0.16266745939E+03  0.17121811682E+03  0.00000000000E+00 0.  1.
         -2    1    1    2    0  505 -0.16838874989E+02  0.49425287916E+02 -0.61803192114E+03  0.62023371591E+03  0.00000000000E+00 0.  1.
<scales pt_clust_3="106.61012" pt_clust_4="14000.00000" pt_clust_5="68.61514" pt_clust_6="52.21501"></scales>
<clustering>
<clus scale="   52.215">  2  6  1 -1</clus>
<clus scale="   68.615">  2  5  1 -1</clus>
<clus scale="  106.610">  2  3  1 -1</clus>
<clus scale="  106.610">  1  3  2 -1</clus>
</clustering>
</event>
<event>
 6    0  0.3082502E+002  0.7573191E+02  0.7546771E-02  0.1341619E+00
          2   -1    0    0  503    0 -0.00000000000E+00  0.00000000000E+00  0.32307781830E+04  0.32307781830E+04  0.00000000000E+00 0. -1.
         21   -1    0    0  504  502  0.00000000000E+00 -0.00000000000E+00 -0.10129763321E+02  0.10129763321E+02  0.00000000000E+00 0. -1.
         21    1    1    2  503  505  0.47086794250E+02 -0.17430930720E+02  0.67021815741E+03  0.67209625952E+03  0.00000000000E+00 0. -1.
         21    1    1    2  504  501 -0.43754026512E+02 -0.88509140800E+02  0.68169909550E+03  0.68881197699E+03  0.00000000000E+00 0. -1.
         21    1    1    2  505  502 -0.16169883031E+02  0.35388488807E+02  0.72017237321E+02  0.81855315824E+02  0.00000000000E+00 0. -1.
          2    1    1    2  501    0  0.12837115293E+02  0.70551582714E+02  0.17967139295E+04  0.17981443940E+04  0.00000000000E+00 0. -1.
<scales pt_clust_3="45.53469" pt_clust_4="14000.00000" pt_clust_5="38.90771" pt_clust_6="75.73191"></scales>
<clustering>
<clus scale="   38.908">  2  5  1 -1</clus>
<clus scale="   45.535">  2  3  1 -1</clus>
<clus scale="   75.732">  1  6  2 -1</clus>
<clus scale="   38.908">  2  3  1 -1</clus>
</clustering>
</event>
<event>
 6    0  0.3082502E+002  0.1904250E+03  0.7546771E-02  0.1158079E+00
         -3   -1    0    0    0  501 -0.00000000000E+00  0.00000000000E+00  0.54503217815E+03  0.54503217815E+03  0.00000000000E+00 0.  1.
         21   -1    0    0  504  502  0.00000000000E+00 -0.00000000000E+00 -0.14404500377E+04  0.14404500377E+04  0.00000000000E+00 0. -1.
         21    1    1    2  503  501  0.26659350552E+02 -0.34011056359E+02  0.51277742048E+02  0.67058778367E+02  0.00000000000E+00 0.  1.
         21    1    1    2  504  503 -0.29267269310E+03  0.27235282304E+02 -0.12718749571E+04  0.13053983960E+04  0.00000000000E+00 0. -1.
         21    1    1    2  505  502  0.10570282340E+03 -0.62666418917E+02 -0.96722343964E+02  0.15638215613E+03  0.00000000000E+00 0. -1.
         -3    1    1    2    0  505  0.16031051915E+03  0.69442192973E+02  0.42190169945E+03  0.45664288532E+03  0.00000000000E+00 0.  1.
<scales pt_clust_3="43.21427" pt_clust_4="14000.00000" pt_clust_5="125.35924" pt_clust_6="190.42498"></scales>
<clustering>
<clus scale="   43.214">  1  3  2 -1</clus>
<clus scale="  125.359">  2  5  1 -1</clus>
<clus scale="  190.425">  1  6  2 -1</clus>
<clus scale="  125.359">  2  3  1 -1</clus>
</clustering>
</event>
<event>
 6    0  0.3082502E+002  0.7559825E+02  0.7546771E-02  0.1342028E+00
         21   -1    0    0  504  502  0.00000000000E+00  0.00000000000E+00  0.94225189809E+03  0.94225189809E+03  0.00000000000E+00 0. -1.
          1   -1    0    0  505    0 -0.00000000000E+00 -0.00000000000E+00 -0.15425526004E+03  0.15425526004E+03  0.00000000000E+00 0.  1.
         21    1    1    2  503  501  0.48712313732E+02  0.31124826989E+02 -0.29942044842E+01  0.57884450630E+02  0.00000000000E+00 0.  1.
         21    1    1    2  504  503  0.43700727493E+02 -0.60176860683E+02  0.84571898139E+03  0.84898268747E+03  0.00000000000E+00 0. -1.
         21    1    1    2  505  502 -0.14554266550E+01  0.30698398111E+02  0.45101615551E+02  0.54577153083E+02  0.00000000000E+00 0. -1.
          1    1    1    2  501    0 -0.90957614571E+02 -0.16463644173E+01 -0.99829754406E+02  0.13506286695E+03  0.00000000000E+00 0.  1.
<scales pt_clust_3="75.59825" pt_clust_4="52.47524" pt_clust_5="30.73288" pt_clust_6="14000.00000"></scales>
<clustering>
<clus scale="   30.733">  1  5  2 -1</clus>
<clus scale="   52.475">  1  4  2 -1</clus>
<clus scale="   75.598">  1  3  2 -1</clus>
<clus scale="   30.733">  1  3  2 -1</clus>
</clustering>
</event>
<event>
 6    0  0.3082502E+002  0.7839867E+02  0.7546771E-02  0.1333658E+00
         21   -1    0    0  504  502  0.00000000000E+00  0.00000000000E+00  0.29299963310E+03  0.29299963310E+03  0.00000000000E+00 0. -1.
          2   -1    0    0  505    0 -0.00000000000E+00 -0.00000000000E+00 -0.18047629212E+03  0.18047629212E+03  0.00000000000E+00 0.  1.
         21    1    1    2  503  502  0.93496901050E+02  0.43613661632E+02  0.13193971651E+03  0.16748704660E+03  0.00000000000E+00 0. -1.
         21    1    1    2  504  501 -0.38914851271E+02 -0.21160188817E+02  0.71590414651E+02  0.84186143219E+02  0.00000000000E+00 0.  1.
         21    1    1    2  505  503  0.23698076395E+01  0.47778115562E+02 -0.11809119020E+03  0.12741229736E+03  0.00000000000E+00 0.  1.
          2    1    1    2  501    0 -0.56951857419E+02 -0.70231588377E+02  0.27084400015E+02  0.94390438041E+02  0.00000000000E+00 0.  1.
<scales pt_clust_3="14000.00000" pt_clust_4="44.29582" pt_clust_5="47.34429" pt_clust_6="78.39867"></scales>
<clustering>
<clus scale="   44.296">  1  4  2 -1</clus>
<clus scale="   47.344">  2  5  1 -1</clus>
<clus scale="   78.399">  2  6  1 -1</clus>
<clus scale="   44.296">  1  3  2 -1</clus>
</clustering>
</event>
<event>
 6    0  0.3082502E+002  0.1923399E+03  0.7546771E-02  0.1156368E+00
         21   -1    0    0  503  502  0.00000000000E+00  0.00000000000E+00  0.47157787016E+03  0.47157787016E+03  0.00000000000E+00 0. -1.
          2   -1    0    0  504    0 -0.00000000000E+00 -0.00000000000E+00 -0.20013180736E+03  0.20013180736E+03  0.00000000000E+00 0.  1.
         21    1    1    2  503  501 -0.10938788669E+03 -0.22529991767E+03  0.93285529230E+02  0.26726008423E+03  0.00000000000E+00 0.  1.
         21    1    1    2  504  505  0.32161631545E+02  0.10809461733E+02 -0.61876071937E+00  0.33935201067E+02  0.00000000000E+00 0. -1.
         21    1    1    2  505  502  0.10427654490E+03  0.47104592879E+02  0.16446651819E+03  0.20035387716E+03  0.00000000000E+00 0. -1.
          2    1    1    2  501    0 -0.27050289749E+02  0.16738586306E+03  0.14312776097E+02  0.17016051507E+03  0.00000000000E+00 0.  1.
<scales pt_clust_3="192.33987" pt_clust_4="33.92956" pt_clust_5="117.73555" pt_clust_6="14000.00000"></scales>
<clustering>
<clus scale="   33.930">  2  4  1 -1</clus>
<clus scale="  117.736">  1  5  2 -1</clus>
<clus scale="  192.340">  1  3  2 -1</clus>
<clus scale="  117.736">  1  3  2 -1</clus>
</clustering>
</event>
<event>
 6    0  0.3082502E+002  0.8106869E+02  0.7546771E-02  0.1326046E+00
         -1   -1    0    0    0  501 -0.00000000000E+00  0.00000000000E+00  0.61410484123E+03  0.61410484123E+03  0.00000000000E+00 0. -1.
         21   -1    0    0  504  502  0.00000000000E+00 -0.00000000000E+00 -0.34185382306E+03  0.34185382306E+03  0.00000000000E+00 0.  1.
         21    1    1    2  503  501 -0.55079507568E+02  0.38765083514E+01  0.74452857556E+02  0.92693082100E+02  0.00000000000E+00 0. -1.
         21    1    1    2  504  503 -0.35570713337E+02  0.70792568076E+02 -0.28340114164E+03  0.29426700533E+03  0.00000000000E+00 0.  1.
         21    1    1    2  505  502  0.12859464681E+03 -0.72147969119E+02  0.83434876407E+02  0.16942045696E+03  0.00000000000E+00 0. -1.
         -1    1    1    2    0  505 -0.37944425904E+02 -0.25211073081E+01  0.39776442584E+03  0.39957811990E+03  0.00000000000E+00 0. -1.
<scales pt_clust_3="69.85941" pt_clust_4="14000.00000" pt_clust_5="81.06869" pt_clust_6="38.02809"></scales>
<clustering>
<clus scale="   38.028">  1  6  2 -1</clus>
<clus scale="   69.859">  1  3  2 -1</clus>
<clus scale="   81.069">  1  5  2 -1</clus>
<clus scale="   81.069">  2  3  1 -1</clus>
</clustering>
</event>
<event>
 6    0  0.3082502E+002  0.1643129E+03  0.7546771E-02  0.1183912E+00
         21   -1    0    0  504  502  0.00000000000E+00  0.00000000000E+00  0.15970258618E+04  0.15970258618E+04  0.00000000000E+00 0.  1.
          2   -1    0    0  505    0 -0.00000000000E+00 -0.00000000000E+00 -0.97621371688E+03  0.97621371688E+03  0.00000000000E+00 0. -1.
         21    1    1    2  503  502  0.30199801670E+02 -0.15885839526E+02  0.37236571852E+02  0.50506932213E+02  0.00000000000E+00 0. -1.
         21    1    1    2  504  501  0.34521584231E+02  0.37995800759E+02  0.14992635721E+04  0.15001422197E+04  0.00000000000E+00 0.  1.
         21    1    1    2  505  503  0.58013800239E+02 -0.13838337560E+03 -0.80144442891E+02  0.17011376013E+03  0.00000000000E+00 0. -1.
          2    1    1    2  501    0 -0.12273518614E+03  0.11627341437E+03 -0.83554355619E+03  0.85247666660E+03  0.00000000000E+00 0. -1.
<scales pt_clust_3="34.12313" pt_clust_4="67.59239" pt_clust_5="14000.00000" pt_clust_6="164.31287"></scales>
<clustering>
<clus scale="   34.123">  1  3  2 -1</clus>
<clus scale="   67.592">  1  4  2 -1</clus>
<clus scale="  164.313">  2  6  1 -1</clus>
<clus scale="   34.123">  1  3  2 -1</clus>
</clustering>
</event>
<event>
 6    0  0.3082502E+002  0.1278082E+03  0.7546771E-02  0.1230745E+00
          2   -1    0    0  503    0 -0.00000000000E+00  0.00000000000E+00  0.17811344099E+04  0.17811344099E+04  0.00000000000E+00 0. -1.
         21   -1    0    0  505  502  0.00000000000E+00 -0.00000000000E+00 -0.46452212685E+02  0.46452212685E+02  0.00000000000E+00 0. -1.
         21    1    1    2  503  502 -0.16482301859E+02  0.32513153268E+02  0.97465708146E+03  0.97533850423E+03  0.00000000000E+00 0.  1.
         21    1    1    2  504  501 -0.29319955094E+02  0.67287321492E+02  0.24885990147E+02  0.77501973562E+02  0.00000000000E+00 0. -1.
         21    1    1    2  505  504  0.42270104355E+01  0.66915585271E+02  0.13878154352E+03  0.15412942610E+03  0.00000000000E+00 0. -1.
          2    1    1    2  501    0  0.41575246517E+02 -0.16671606003E+03  0.59635758214E+03  0.62061671873E+03  0.00000000000E+00 0. -1.
<scales pt_clust_3="36.45232" pt_clust_4="127.80818" pt_clust_5="72.83287" pt_clust_6="14000.00000"></scales>
<clustering>
<clus scale="   36.452">  1  3  2 -1</clus>
<clus scale="   72.833">  2  5  1 -1</clus>
<clus scale="  127.808">  2  4  1 -1</clus>
<clus scale="   72.833">  2  3  1 -1</clus>
</clustering>
</event>
<event>
 6    0  0.3082502E+002  0.1004021E+03  0.7546771E-02  0.1279453E+00
         21   -1    0    0  503  502  0.00000000000E+00  0.00000000000E+00  0.20495191980E+03  0.20495191980E+03  0.00000000000E+00 0. -1.
          1   -1    0    0  504    0 -0.00000000000E+00 -0.00000000000E+00 -0.10734944778E+04  0.10734944778E+04  0.00000000000E+00 0. -1.
         21    1    1    2  503  505  0.67334354614E+02 -0.42184917137E+02  0.17892166037E+03  0.19577140520E+03  0.00000000000E+00 0. -1.
         21    1    1    2  504  502  0.15474798944E+02 -0.49486044358E+02 -0.78292711914E+03  0.78464209158E+03  0.00000000000E+00 0. -1.
         21    1    1    2  505  501 -0.16056065519E+02  0.43452237158E+02 -0.49632735598E+02  0.67891844849E+02  0.00000000000E+00 0.  1.
          1    1    1    2  501    0 -0.66753088039E+02  0.48218724337E+02 -0.21490436367E+03  0.23014105601E+03  0.00000000000E+00 0. -1.
<scales pt_clust_3="80.60876" pt_clust_4="51.84919" pt_clust_5="44.89421" pt_clust_6="44.89421"></scales>
<clustering>
<clus scale="   44.894">  5  6 -1 -1</clus>
<clus scale="   51.849">  2  4  1 -1</clus>
<clus scale="   80.609">  1  3  2 -1</clus>
<clus scale="   80.609">  1  3  2 -1</clus>
</clustering>
</event>
<event>
 6    0  0.3082502E+002  0.9393036E+02  0.7546771E-02  0.1293604E+00
         21   -1    0    0  504  502  0.00000000000E+00  0.00000000000E+00  0.12849699349E+02  0.12849699349E+02  0.00000000000E+00 0.  1.
          1   -1    0    0  505    0 -0.00000000000E+00 -0.00000000000E+00 -0.27871371856E+04  0.27871371856E+04  0.00000000000E+00 0.  1.
         21    1    1    2  503  502  0.21379130468E+01  0.85667012159E+02 -0.15861301450E+04  0.15884433401E+04  0.00000000000E+00 0.  1.
         21    1    1    2  504  501  0.29640316042E+02 -0.58063590220E+01 -0.41893138130E+02  0.51645882339E+02  0.00000000000E+00 0.  1.
         21    1    1    2  505  503  0.43893660457E+02 -0.91929799738E+00 -0.66138241079E+03  0.66283798310E+03  0.00000000000E+00 0. -1.
          1    1    1    2  501    0 -0.75671889547E+02 -0.78941355139E+02 -0.48488179232E+03  0.49705967946E+03  0.00000000000E+00 0.  1.
<scales pt_clust_3="14000.00000" pt_clust_4="30.20368" pt_clust_5="46.62169" pt_clust_6="93.93036"></scales>
<clustering>
<clus scale="   30.204">  1  4  2 -1</clus>
<clus scale="   46.622">  2  5  1 -1</clus>
<clus scale="   93.930">  1  6  2 -1</clus>
<clus scale="   30.204">  1  3  2 -1</clus>
</clustering>
</event>
<event>
 6    0  0.3082502E+002  0.1043319E+03  0.7546771E-02  0.1271442E+00
         21   -1    0    0  504  502  0.00000000000E+00  0.00000000000E+00  0.12493521623E+04  0.12493521623E+04  0.00000000000E+00 0.  1.
          2   -1    0    0  505    0 -0.00000000000E+00 -0.00000000000E+00 -0.92922872680E+03  0.92922872680E+03  0.00000000000E+00 0. -1.
         21    1    1    2  503  502  0.63588594799E+01 -0.31633172809E+02  0.66026852878E+03  0.66105644449E+03  0.00000000000E+00 0.  1.
         21    1    1    2  504  501 -0.11001370954E+03  0.29265258043E+02  0.56947923046E+03  0.58074612830E+03  0.00000000000E+00 0.  1.
         21    1    1    2  505  503 -0.50934924913E+02 -0.26398734617E+02 -0.37993965950E+03  0.38424654146E+03  0.00000000000E+00 0.  1.
          2    1    1    2  501    0  0.15458977497E+03  0.28766649383E+02 -0.52968466426E+03  0.55253177482E+03  0.00000000000E+00 0. -1.
<scales pt_clust_3="32.26597" pt_clust_4="104.33191" pt_clust_5="57.40221" pt_clust_6="14000.00000"></scales>
<clustering>
<clus scale="   32.266">  1  3  2 -1</clus>
<clus scale="   57.402">  2  5  1 -1</clus>
<clus scale="  104.332">  1  4  2 -1</clus>
<clus scale="   32.266">  1  3  2 -1</clus>
</clustering>
</event>
<event>
 6    0  0.3082502E+002  0.1150312E+03  0.7546771E-02  0.1251527E+00
          2   -1    0    0  503    0 -0.00000000000E+00  0.00000000000E+00  0.22881408355E+03  0.22881408355E+03  0.00000000000E+00 0.  1.
         21   -1    0    0  505  502  0.00000000000E+00 -0.00000000000E+00 -0.56264997665E+03  0.56264997665E+03  0.00000000000E+00 0.  1.
         21    1    1    2  503  504  0.17644321661E+02  0.44340432800E+02  0.41899951999E+02  0.63505921340E+02  0.00000000000E+00 0.  1.
         21    1    1    2  504  502  0.11434168546E+03  0.32274852682E+02 -0.49491483653E+03  0.50897581727E+03  0.00000000000E+00 0.  1.
         21    1    1    2  505  501 -0.58177613254E+02 -0.79800465064E+02  0.30071993660E+02  0.10323310376E+03  0.00000000000E+00 0.  1.
          2    1    1    2  501    0 -0.73808393870E+02  0.31851795822E+01  0.89106997781E+02  0.11574921783E+03  0.00000000000E+00 0.  1.
<scales pt_clust_3="47.72207" pt_clust_4="14000.00000" pt_clust_5="115.03124" pt_clust_6="69.83999"></scales>
<clustering>
<clus scale="   47.722">  1  3  2 -1</clus>
<clus scale="   69.840">  1  6  2 -1</clus>
<clus scale="  115.031">  1  5  2 -1</clus>
<clus scale="  115.031">  2  3  1 -1</clus>
</clustering>
</event>
<event>
 6    0  0.3082502E+002  0.1136574E+03  0.7546771E-02  0.1253943E+00
          1   -1    0    0  503    0 -0.00000000000E+00  0.00000000000E+00  0.41066061696E+03  0.41066061696E+03  0.00000000000E+00 0. -1.
         21   -1    0    0  505  502  0.00000000000E+00 -0.00000000000E+00 -0.33330615565E+03  0.33330615565E+03  0.00000000000E+00 0. -1.
         21    1    1    2  503  504 -0.10658609953E+03  0.26838481716E+02  0.23976883422E+03  0.26376124540E+03  0.00000000000E+00 0. -1.
         21    1    1    2  504  502 -0.35555652761E+02  0.67451706525E+02 -0.24409578894E+03  0.25572776802E+03  0.00000000000E+00 0. -1.
         21    1    1    2  505  501  0.29447891986E+02 -0.43376024124E+02 -0.27777011479E+02  0.59331443417E+02  0.00000000000E+00 0. -1.
          1    1    1    2  501    0  0.11269386031E+03 -0.50914164117E+02  0.10945842751E+03  0.16514631577E+03  0.00000000000E+00 0. -1.
<scales pt_clust_3="113.65741" pt_clust_4="31.71038" pt_clust_5="52.42764" pt_clust_6="14000.00000"></scales>
<clustering>
<clus scale="   52.428">  2  5  1 -1</clus>
<clus scale="   31.710">  2  4  1 -1</clus>
<clus scale="  113.657">  1  3  2 -1</clus>
<clus scale="   52.428">  2  3  1 -1</clus>
</clustering>
</event>
<event>
 6    0  0.3082502E+002  0.1273507E+03  0.7546771E-02  0.1231441E+00
          1   -1    0    0  503    0 -0.00000000000E+00  0.00000000000E+00  0.57001768514E+03  0.57001768514E+03  0.00000000000E+00 0.  1.
         21   -1    0    0  504  502  0.00000000000E+00 -0.00000000000E+00 -0.20142434146E+03  0.20142434146E+03  0.00000000000E+00 0.  1.
         21    1    1    2  503  502 -0.20122736784E+02 -0.42687657453E+02  0.62005453518E+02  0.77921992406E+02  0.00000000000E+00 0.  1.
         21    1    1    2  504  505 -0.10859023371E+03 -0.63730215078E+02 -0.13811396670E+03  0.18689260812E+03  0.00000000000E+00 0.  1.
         21    1    1    2  505  501  0.79210179026E+02  0.13948429541E+03  0.20863703319E+03  0.26317205921E+03  0.00000000000E+00 0. -1.
          1    1    1    2  501    0  0.49502791466E+02 -0.33066422879E+02  0.23606482367E+03  0.24345536687E+03  0.00000000000E+00 0.  1.
<scales pt_clust_3="47.19280" pt_clust_4="127.35067" pt_clust_5="14000.00000" pt_clust_6="66.74021"></scales>
<clustering>
<clus scale="   47.193">  1  3  2 -1</clus>
<clus scale="   66.740">  1  6  2 -1</clus>
<clus scale="  127.351">  2  4  1 -1</clus>
<clus scale="  127.351">  2  3  1 -1</clus>
</clustering>
</event>
<event>
 6    0  0.3082502E+002  0.1859592E+03  0.7546771E-02  0.1162157E+00
         21   -1    0    0  503  502  0.00000000000E+00  0.00000000000E+00  0.18301505806E+03  0.18301505806E+03  0.00000000000E+00 0.  1.
          2   -1    0    0  505    0 -0.00000000000E+00 -0.00000000000E+00 -0.20326516577E+04  0.20326516577E+04  0.00000000000E+00 0.  1.
         21    1    1    2  503  504 -0.12449124130E+03 -0.13644391196E+03 -0.24571830738E+03  0.30739631886E+03  0.00000000000E+00 0.  1.
         21    1    1    2  504  501 -0.38301958486E+02  0.25130546722E+02 -0.10626709675E+03  0.11572069933E+03  0.00000000000E+00 0.  1.
         21    1    1    2  505  502  0.17720099114E+03  0.68078509220E+02  0.85888225510E+02  0.20835465428E+03  0.00000000000E+00 0.  1.
          2    1    1    2  501    0 -0.14407791355E+02  0.43234856016E+02 -0.15835394210E+04  0.15841950433E+04  0.00000000000E+00 0.  1.
<scales pt_clust_3="14000.00000" pt_clust_4="55.10012" pt_clust_5="185.95925" pt_clust_6="45.57233"></scales>
<clustering>
<clus scale="   45.572">  2  6  1 -1</clus>
<clus scale="   55.100">  2  4  1 -1</clus>
<clus scale="  185.959">  1  5  2 -1</clus>
<clus scale="  185.959">  1  3  2 -1</clus>
</clustering>
</event>
<event>
 6    0  0.3082502E+002  0.9353180E+02  0.7546771E-02  0.1294517E+00
          2   -1    0    0  503    0 -0.00000000000E+00  0.00000000000E+00  0.26715091523E+04  0.26715091523E+04  0.00000000000E+00 0. -1.
         21   -1    0    0  505  502  0.00000000000E+00 -0.00000000000E+00 -0.10835014124E+03  0.10835014124E+03  0.00000000000E+00 0. -1.
         21    1    1    2  503  502  0.10711847743E+03 -0.50760225267E+02  0.31013894914E+03  0.33201978322E+03  0.00000000000E+00 0. -1.
         21    1    1    2  504  501  0.15372434947E+02  0.41355309923E+02 -0.68487255754E+02  0.81468261402E+02  0.00000000000E+00 0. -1.
         21    1    1    2  505  504 -0.30360877451E+02  0.62281608248E+01 -0.10362821000E+02  0.32679671448E+02  0.00000000000E+00 0. -1.
          2    1    1    2  501    0 -0.92130034926E+02  0.31767545188E+01  0.23318701387E+04  0.23336915775E+04  0.00000000000E+00 0. -1.
<scales pt_clust_3="14000.00000" pt_clust_4="47.97514" pt_clust_5="30.99311" pt_clust_6="93.53180"></scales>
<clustering>
<clus scale="   30.993">  2  5  1 -1</clus>
<clus scale="   47.975">  2  4  1 -1</clus>
<clus scale="   93.532">  1  6  2 -1</clus>
<clus scale="   30.993">  2  3  1 -1</clus>
</clustering>
</event>
<event>
 6    0  0.3082502E+002  0.1072612E+03  0.7546771E-02  0.1265727E+00
          1   -1    0    0  504    0 -0.00000000000E+00  0.00000000000E+00  0.88280788884E+03  0.88280788884E+03  0.00000000000E+00 0.  1.
         21   -1    0    0  503  502  0.00000000000E+00 -0.00000000000E+00 -0.80052635062E+03  0.80052635062E+03  0.00000000000E+00 0.  1.
         21    1    1    2  503  505 -0.39067150109E+02  0.53717026118E+01 -0.63431735984E+03  0.63554198162E+03  0.00000000000E+00 0.  1.
         21    1    1    2  504  502 -0.62014942478E+02 -0.22859177154E+02  0.36669479873E+03  0.37260363725E+03  0.00000000000E+00 0. -1.
         21    1    1    2  505  501 -0.21491007978E+02 -0.93278458161E+02 -0.13353558938E+03  0.16429999334E+03  0.00000000000E+00 0.  1.
          1    1    1    2  501    0  0.12257310057E+03  0.11076593270E+03  0.48343968871E+03  0.51088862725E+03  0.00000000000E+00 0.  1.
<scales pt_clust_3="39.43472" pt_clust_4="66.71550" pt_clust_5="14000.00000" pt_clust_6="107.26121"></scales>
<clustering>
<clus scale="   39.435">  2  3  1 -1</clus>
<clus scale="   66.715">  1  4  2 -1</clus>
<clus scale="  107.261">  1  6  2 -1</clus>
<clus scale="   39.435">  2  3  1 -1</clus>
</clustering>
</event>
<event>
 6    0  0.3082502E+002  0.1028638E+03  0.7546771E-02  0.1274386E+00
         21   -1    0    0  504  502  0.00000000000E+00  0.00000000000E+00  0.53092825012E+03  0.53092825012E+03  0.00000000000E+00 0.  1.
          2   -1    0    0  503    0 -0.00000000000E+00 -0.00000000000E+00 -0.26078632669E+03  0.26078632669E+03  0.00000000000E+00 0.  1.
         21    1    1    2  503  502  0.34038183978E+02 -0.13964235796E+02  0.10725307324E+03  0.11338791633E+03  0.00000000000E+00 0. -1.
         21    1    1    2  504  505 -0.72955526983E+02 -0.81196901682E+02  0.38043766458E+03  0.39578815343E+03  0.00000000000E+00 0.  1.
         21    1    1    2  505  501 -0.17615215738E+01  0.11240454197E+03 -0.79758745279E+02  0.13783809873E+03  0.00000000000E+00 0. -1.
          2    1    1    2  501    0  0.40678864578E+02 -0.17243404495E+02 -0.13779006912E+03  0.14470040832E+03  0.00000000000E+00 0.  1.
<scales pt_clust_3="36.79127" pt_clust_4="14000.00000" pt_clust_5="102.86381" pt_clust_6="44.48484"></scales>
<clustering>
<clus scale="   36.791">  1  3  2 -1</clus>
<clus scale="   44.485">  2  6  1 -1</clus>
<clus scale="  102.864">  2  5  1 -1</clus>
<clus scale="   36.791">  1  3  2 -1</clus>
</clustering>
</event>
<event>
 6    0  0.3082502E+002  0.1460292E+03  0.7546771E-02  0.1205439E+00
          2   -1    0    0  504    0 -0.00000000000E+00  0.00000000000E+00  0.21628507048E+04  0.21628507048E+04  0.00000000000E+00 0. -1.
         21   -1    0    0  505  502  0.00000000000E+00 -0.00000000000E+00 -0.14776962176E+03  0.14776962176E+03  0.00000000000E+00 0. -1.
         21    1    1    2  503  502  0.27029475172E+02  0.15621803546E+02 -0.27316880957E+02  0.41483071961E+02  0.00000000000E+00 0. -1.
         21    1    1    2  504  503  0.10648926580E+03  0.16077553571E+02  0.40209205708E+03  0.41626490823E+03  0.00000000000E+00 0. -1.
         21    1    1    2  505  501  0.34304197878E+02 -0.21304155019E+02 -0.98239329497E+02  0.10621492773E+03  0.00000000000E+00 0. -1.
          2    1    1    2  501    0 -0.16782293885E+03 -0.10395202098E+02  0.17385452364E+04  0.17466574186E+04  0.00000000000E+00 0. -1.
<scales pt_clust_3="31.21912" pt_clust_4="14000.00000" pt_clust_5="59.11934" pt_clust_6="146.02916"></scales>
<clustering>
<clus scale="   31.219">  2  3  1 -1</clus>
<clus scale="   59.119">  2  5  1 -1</clus>
<clus scale="  146.029">  1  6  2 -1</clus>
<clus scale="   31.219">  2  3  1 -1</clus>
</clustering>
</event>
<event>
 6    0  0.3588873E+002  0.1545188E+03  0.7546771E-02  0.1195028E+00
          2   -1    0    0  504    0 -0.00000000000E+00  0.00000000000E+00  0.14280234195E+04  0.14280234195E+04  0.00000000000E+00 0. -1.
         21   -1    0    0  505  502  0.00000000000E+00 -0.00000000000E+00 -0.54944030879E+03  0.54944030879E+03  0.00000000000E+00 0. -1.
         21    1    1    2  503  502 -0.56166651198E+02 -0.11127147747E+03 -0.49360627575E+03  0.50910037307E+03  0.00000000000E+00 0. -1.
         21    1    1    2  504  503  0.61968572987E+02 -0.71951025141E+01  0.87462630799E+02  0.10743177055E+03  0.00000000000E+00 0. -1.
         21    1    1    2  505  501 -0.19908767127E+02 -0.24578316406E+02 -0.26857640975E+02  0.41494403534E+02  0.00000000000E+00 0. -1.
          2    1    1    2  501    0  0.14106845338E+02  0.14304489639E+03  0.13115843966E+04  0.13194371811E+04  0.00000000000E+00 0. -1.
<scales pt_clust_3="154.51885" pt_clust_4="62.05876" pt_clust_5="31.62993" pt_clust_6="14000.00000"></scales>
<clustering>
<clus scale="   31.630">  2  5  1 -1</clus>
<clus scale="   62.059">  1  4  2 -1</clus>
<clus scale="  154.519">  2  3  1 -1</clus>
<clus scale="   31.630">  2  3  1 -1</clus>
</clustering>
</event>
<event>
 6    0  0.3082502E+002  0.1217546E+03  0.7546771E-02  0.1240230E+00
         21   -1    0    0  505  502  0.00000000000E+00  0.00000000000E+00  0.92446822652E+02  0.92446822652E+02  0.00000000000E+00 0. -1.
          1   -1    0    0  503    0 -0.00000000000E+00 -0.00000000000E+00 -0.49683485326E+03  0.49683485326E+03  0.00000000000E+00 0.  1.
         21    1    1    2  503  504  0.43983886490E+02  0.43237253077E+02 -0.12973896523E+03  0.14365319844E+03  0.00000000000E+00 0. -1.
         21    1    1    2  504  502  0.95274395394E+02 -0.79581959043E+02 -0.67615419817E+01  0.12432303517E+03  0.00000000000E+00 0. -1.
         21    1    1    2  505  501 -0.88426801744E+02  0.72682849391E+02 -0.18412750704E+03  0.21680644527E+03  0.00000000000E+00 0. -1.
          1    1    1    2  501    0 -0.50831480140E+02 -0.36338143425E+02 -0.83760016367E+02  0.10449899704E+03  0.00000000000E+00 0.  1.
<scales pt_clust_3="61.67692" pt_clust_4="14000.00000" pt_clust_5="121.75461" pt_clust_6="46.62764"></scales>
<clustering>
<clus scale="   61.677">  2  3  1 -1</clus>
<clus scale="   46.628">  2  6  1 -1</clus>
<clus scale="  121.755">  2  5  1 -1</clus>
<clus scale="  121.755">  1  3  2 -1</clus>
</clustering>
</event>
<event>
 6    0  0.3082502E+002  0.1513030E+03  0.7546771E-02  0.1198881E+00
          1   -1    0    0  504    0 -0.00000000000E+00  0.00000000000E+00  0.14681597162E+04  0.14681597162E+04  0.00000000000E+00 0.  1.
         21   -1    0    0  501  502  0.00000000000E+00 -0.00000000000E+00 -0.67726211651E+02  0.67726211651E+02  0.00000000000E+00 0.  1.
         21    1    1    2  503  505 -0.14469173819E+03 -0.36682782229E+02  0.29664722301E+03  0.33208568251E+03  0.00000000000E+00 0.  1.
         21    1    1    2  504  503  0.59822226351E-01 -0.45945464596E+02  0.10330646908E+03  0.11306288449E+03  0.00000000000E+00 0.  1.
         21    1    1    2  505  502 -0.97642118879E+01  0.63468280828E+02 -0.12888510946E+02  0.65495619850E+02  0.00000000000E+00 0.  1.
          1    1    1    2  501    0  0.15439612786E+03  0.19159965997E+02  0.10133683234E+04  0.10252417410E+04  0.00000000000E+00 0.  1.
<scales pt_clust_3="14000.00000" pt_clust_4="45.94550" pt_clust_5="63.33663" pt_clust_6="151.30304"></scales>
<clustering>
<clus scale="   45.946">  1  4  2 -1</clus>
<clus scale="   63.337">  2  5  1 -1</clus>
<clus scale="  151.303">  1  6  2 -1</clus>
<clus scale="   63.337">  2  3  1 -1</clus>
</clustering>
</event>
<event>
 6    0  0.3082502E+002  0.8651868E+02  0.7546771E-02  0.1311508E+00
         21   -1    0    0  503  502  0.00000000000E+00  0.00000000000E+00  0.12399727612E+04  0.12399727612E+04  0.00000000000E+00 0. -1.
         -3   -1    0    0    0  501 -0.00000000000E+00 -0.00000000000E+00 -0.36556271676E+03  0.36556271676E+03  0.00000000000E+00 0.  1.
         21    1    1    2  503  504  0.61147740924E+02 -0.21798540390E+01  0.71460177170E+03  0.71721648761E+03  0.00000000000E+00 0. -1.
         21    1    1    2  504  501 -0.80786862415E+02  0.11591527907E+03  0.47740244680E+03  0.49787143448E+03  0.00000000000E+00 0. -1.
         21    1    1    2  505  502  0.15911478289E+02 -0.27662131019E+02  0.22864330577E+02  0.39257435558E+02  0.00000000000E+00 0. -1.
         -3    1    1    2    0  505  0.37276432024E+01 -0.86073294009E+02 -0.34045850461E+03  0.35119012034E+03  0.00000000000E+00 0.  1.
<scales pt_clust_3="72.97054" pt_clust_4="86.51868" pt_clust_5="31.91189" pt_clust_6="14000.00000"></scales>
<clustering>
<clus scale="   31.912">  1  5  2 -1</clus>
<clus scale="   72.971">  1  3  2 -1</clus>
<clus scale="   86.519">  1  4  2 -1</clus>
<clus scale="   31.912">  1  3  2 -1</clus>
</clustering>
</event>
<event>
 6    0  0.3082502E+002  0.8153463E+02  0.7546771E-02  0.1324752E+00
         21   -1    0    0  504  502  0.00000000000E+00  0.00000000000E+00  0.11569206128E+04  0.11569206128E+04  0.00000000000E+00 0.  1.
          2   -1    0    0  505    0 -0.00000000000E+00 -0.00000000000E+00 -0.21627310905E+04  0.21627310905E+04  0.00000000000E+00 0. -1.
         21    1    1    2  503  501 -0.85243897591E+01 -0.87361033828E+02 -0.35236764156E+03  0.36313574634E+03  0.00000000000E+00 0.  1.
         21    1    1    2  504  503  0.59358563059E+02  0.41132912138E+02  0.11347580864E+04  0.11370537675E+04  0.00000000000E+00 0.  1.
         21    1    1    2  505  502  0.69971909375E+01 -0.52535709624E+02 -0.37263719260E+02  0.64788473047E+02  0.00000000000E+00 0.  1.
          2    1    1    2  501    0 -0.57831364237E+02  0.98763831314E+02 -0.17509372033E+04  0.17546737164E+04  0.00000000000E+00 0. -1.
<scales pt_clust_3="14000.00000" pt_clust_4="72.20428" pt_clust_5="52.99964" pt_clust_6="81.53463"></scales>
<clustering>
<clus scale="   53.000">  2  5  1 -1</clus>
<clus scale="   72.204">  1  4  2 -1</clus>
<clus scale="   81.535">  2  6  1 -1</clus>
<clus scale="   72.204">  1  3  2 -1</clus>
</clustering>
</event>
<event>
 6    0  0.3082502E+002  0.2076978E+03  0.7546771E-02  0.1143402E+00
          1   -1    0    0  505    0 -0.00000000000E+00  0.00000000000E+00  0.40634606495E+03  0.40634606495E+03  0.00000000000E+00 0.  1.
         21   -1    0    0  501  502  0.00000000000E+00 -0.00000000000E+00 -0.35003218174E+03  0.35003218174E+03  0.00000000000E+00 0.  1.
         21    1    1    2  503  504  0.15201578206E+03  0.90306546540E+02  0.16710160630E+03  0.24328382020E+03  0.00000000000E+00 0.  1.
         21    1    1    2  504  502 -0.14053920833E+03  0.76540668275E+02 -0.20114123142E+03  0.25703606353E+03  0.00000000000E+00 0.  1.
         21    1    1    2  505  503  0.66464443136E+02 -0.21260284018E+02  0.50618884508E+02  0.86207849682E+02  0.00000000000E+00 0.  1.
          1    1    1    2  501    0 -0.77941016870E+02 -0.14558693080E+03  0.39734623821E+02  0.16985051327E+03  0.00000000000E+00 0.  1.
<scales pt_clust_3="58.46663" pt_clust_4="160.03044" pt_clust_5="58.46663" pt_clust_6="185.67932"></scales>
<clustering>
<clus scale="   58.467">  3  5 -1 -1</clus>
<clus scale="  160.030">  2  4  1 -1</clus>
<clus scale="  185.679">  2  6  1 -1</clus>
<clus scale="  160.030">  2  3  1 -1</clus>
</clustering>
</event>
<event>
 6    0  0.3082502E+002  0.8869167E+02  0.7546771E-02  0.1306051E+00
         21   -1    0    0  504  502  0.00000000000E+00  0.00000000000E+00  0.63756557759E+02  0.63756557759E+02  0.00000000000E+00 0.  1.
          2   -1    0    0  503    0 -0.00000000000E+00 -0.00000000000E+00 -0.14288521246E+04  0.14288521246E+04  0.00000000000E+00 0.  1.
         21    1    1    2  503  502  0.31252770011E+02 -0.52674890468E+02 -0.12933672151E+03  0.14310613981E+03  0.00000000000E+00 0.  1.
         21    1    1    2  504  505 -0.67809876200E+02 -0.18054422673E+01  0.24880848119E+02  0.72252996721E+02  0.00000000000E+00 0.  1.
         21    1    1    2  505  501 -0.60822398545E+02  0.57539228742E+02 -0.29331476217E+03  0.30503061603E+03  0.00000000000E+00 0. -1.
          2    1    1    2  501    0  0.97379504734E+02 -0.30588960068E+01 -0.96732493125E+03  0.97221892977E+03  0.00000000000E+00 0.  1.
<scales pt_clust_3="61.24851" pt_clust_4="62.29023" pt_clust_5="14000.00000" pt_clust_6="88.69167"></scales>
<clustering>
<clus scale="   61.249">  1  3  2 -1</clus>
<clus scale="   62.290">  1  4  2 -1</clus>
<clus scale="   88.692">  2  6  1 -1</clus>
<clus scale="   61.249">  1  3  2 -1</clus>
</clustering>
</event>
<event>
 6    0  0.3082502E+002  0.8443865E+02  0.7546771E-02  0.1316907E+00
         21   -1    0    0  501  502  0.00000000000E+00  0.00000000000E+00  0.42193658191E+02  0.42193658191E+02  0.00000000000E+00 0. -1.
          1   -1    0    0  504    0 -0.00000000000E+00 -0.00000000000E+00 -0.17552858115E+04  0.17552858115E+04  0.00000000000E+00 0. -1.
         21    1    1    2  503  505 -0.12283716721E+02 -0.64430345767E+02 -0.60077471020E+02  0.88946397770E+02  0.00000000000E+00 0. -1.
         21    1    1    2  504  503  0.20072981265E+02 -0.39764672441E+02 -0.26297581804E+03  0.26672164259E+03  0.00000000000E+00 0.  1.
         21    1    1    2  505  502  0.29698303549E+02 -0.20356153138E+02  0.86972840035E+01  0.37040585218E+02  0.00000000000E+00 0. -1.
          1    1    1    2  501    0 -0.37487568093E+02  0.12455117135E+03 -0.13987361482E+04  0.14047708441E+04  0.00000000000E+00 0. -1.
<scales pt_clust_3="14000.00000" pt_clust_4="47.63176" pt_clust_5="36.00503" pt_clust_6="84.43865"></scales>
<clustering>
<clus scale="   36.005">  1  5  2 -1</clus>
<clus scale="   47.632">  2  4  1 -1</clus>
<clus scale="   84.439">  2  6  1 -1</clus>
<clus scale="   36.005">  1  3  2 -1</clus>
</clustering>
</event>
<event>
 6    0  0.3082502E+002  0.7187460E+02  0.7546771E-02  0.1353832E+00
         -1   -1    0    0    0  501 -0.00000000000E+00  0.00000000000E+00  0.16717242851E+03  0.16717242851E+03  0.00000000000E+00 0. -1.
         21   -1    0    0  503  502  0.00000000000E+00 -0.00000000000E+00 -0.15691035002E+04  0.15691035002E+04  0.00000000000E+00 0. -1.
         21    1    1    2  503  504 -0.37411490627E+02 -0.28582463943E+02 -0.35803087738E+02  0.59147594775E+02  0.00000000000E+00 0.  1.
         21    1    1    2  504  501 -0.33040175095E+02  0.32717860593E+02 -0.46424920356E+02  0.65706809405E+02  0.00000000000E+00 0.  1.
         21    1    1    2  505  502 -0.53276403511E+02 -0.47790314913E+02 -0.14349837993E+04  0.14367674807E+04  0.00000000000E+00 0. -1.
         -1    1    1    2    0  505  0.12372806923E+03  0.43654918263E+02  0.11528073570E+03  0.17465404383E+03  0.00000000000E+00 0. -1.
<scales pt_clust_3="47.67642" pt_clust_4="46.49851" pt_clust_5="14000.00000" pt_clust_6="71.87460"></scales>
<clustering>
<clus scale="   46.499">  1  4  2 -1</clus>
<clus scale="   47.676">  1  3  2 -1</clus>
<clus scale="   71.875">  1  6  2 -1</clus>
<clus scale="   71.875">  2  3  1 -1</clus>
</clustering>
</event>
<event>
 6    0  0.3082502E+002  0.1662161E+03  0.7546771E-02  0.1181852E+00
         21   -1    0    0  503  502  0.00000000000E+00  0.00000000000E+00  0.45020800131E+03  0.45020800131E+03  0.00000000000E+00 0.  1.
          2   -1    0    0  505    0 -0.00000000000E+00 -0.00000000000E+00 -0.10920968873E+04  0.10920968873E+04  0.00000000000E+00 0. -1.
         21    1    1    2  503  501  0.32149995039E+01  0.55205276086E+02  0.40213215990E+03  0.40591653423E+03  0.00000000000E+00 0.  1.
         21    1    1    2  504  502 -0.64364160695E+02  0.11554319390E+03 -0.95829134726E+02  0.16332849690E+03  0.00000000000E+00 0. -1.
         21    1    1    2  505  504 -0.25416935244E+02 -0.17927407553E+02 -0.29609469446E+03  0.29772383281E+03  0.00000000000E+00 0. -1.
          2    1    1    2  501    0  0.86566096435E+02 -0.15282106243E+03 -0.65209721674E+03  0.67533602470E+03  0.00000000000E+00 0. -1.
<scales pt_clust_3="55.25274" pt_clust_4="166.21614" pt_clust_5="31.10326" pt_clust_6="14000.00000"></scales>
<clustering>
<clus scale="   31.103">  2  5  1 -1</clus>
<clus scale="   55.253">  1  3  2 -1</clus>
<clus scale="  166.216">  1  4  2 -1</clus>
<clus scale="   55.253">  1  3  2 -1</clus>
</clustering>
</event>
<event>
 6    0  0.3082502E+002  0.1133580E+03  0.7546771E-02  0.1254475E+00
         21   -1    0    0  503  502  0.00000000000E+00  0.00000000000E+00  0.24593718911E+03  0.24593718911E+03  0.00000000000E+00 0. -1.
         -1   -1    0    0    0  501 -0.00000000000E+00 -0.00000000000E+00 -0.49346092695E+03  0.49346092695E+03  0.00000000000E+00 0. -1.
         21    1    1    2  503  505  0.32326610157E+02 -0.30818461258E+02  0.16649539416E+02  0.47665442842E+02  0.00000000000E+00 0. -1.
         21    1    1    2  504  502 -0.18273428854E+02 -0.24943139059E+02  0.18371386592E+03  0.18629778024E+03  0.00000000000E+00 0. -1.
         21    1    1    2  505  501 -0.23819706113E+02 -0.85694721984E+02 -0.13183192445E+03  0.15903024895E+03  0.00000000000E+00 0.  1.
         -1    1    1    2    0  504  0.97665248094E+01  0.14145632230E+03 -0.31605521872E+03  0.34640464403E+03  0.00000000000E+00 0. -1.
<scales pt_clust_3="49.48702" pt_clust_4="30.92052" pt_clust_5="14000.00000" pt_clust_6="113.35797"></scales>
<clustering>
<clus scale="   30.921">  1  4  2 -1</clus>
<clus scale="   49.487">  1  3  2 -1</clus>
<clus scale="  113.358">  1  6  2 -1</clus>
<clus scale="   30.921">  1  3  2 -1</clus>
</clustering>
</event>
<event>
 6    0  0.3082502E+002  0.1051975E+03  0.7546771E-02  0.1269731E+00
         21   -1    0    0  503  502  0.00000000000E+00  0.00000000000E+00  0.14692212915E+03  0.14692212915E+03  0.00000000000E+00 0. -1.
         -3   -1    0    0    0  501 -0.00000000000E+00 -0.00000000000E+00 -0.40407382160E+03  0.40407382160E+03  0.00000000000E+00 0. -1.
         21    1    1    2  503  504 -0.53388411037E+02  0.93005351127E+01  0.37655191240E+02  0.65990422137E+02  0.00000000000E+00 0. -1.
         21    1    1    2  504  501  0.51148088070E+01 -0.90347622695E+02 -0.13568733292E+03  0.16309477769E+03  0.00000000000E+00 0.  1.
         21    1    1    2  505  502  0.20760155386E+02 -0.41657751277E+02  0.55947966540E+02  0.72777244061E+02  0.00000000000E+00 0. -1.
         -3    1    1    2    0  505  0.27513446844E+02  0.12270483886E+03 -0.21506751730E+03  0.24913350685E+03  0.00000000000E+00 0. -1.
<scales pt_clust_3="43.73287" pt_clust_4="105.19754" pt_clust_5="46.54409" pt_clust_6="14000.00000"></scales>
<clustering>
<clus scale="   46.544">  1  5  2 -1</clus>
<clus scale="   43.733">  1  3  2 -1</clus>
<clus scale="  105.198">  2  4  1 -1</clus>
<clus scale="   46.544">  1  3  2 -1</clus>
</clustering>
</event>
<event>
 6    0  0.3082502E+002  0.7129499E+02  0.7546771E-02  0.1355744E+00
         21   -1    0    0  503  502  0.00000000000E+00  0.00000000000E+00  0.78917005286E+02  0.78917005286E+02  0.00000000000E+00 0.  1.
         -2   -1    0    0    0  501 -0.00000000000E+00 -0.00000000000E+00 -0.30540080922E+03  0.30540080922E+03  0.00000000000E+00 0. -1.
         21    1    1    2  503  505  0.48457372594E+02 -0.22313065377E+02  0.26495923820E+02  0.59565290433E+02  0.00000000000E+00 0.  1.
         21    1    1    2  504  502 -0.26513971071E+02  0.47865062564E+02 -0.48273216476E+02  0.72968200643E+02  0.00000000000E+00 0. -1.
         21    1    1    2  505  501  0.59910276568E+02 -0.11010574613E+02 -0.64009228293E+02  0.88360937628E+02  0.00000000000E+00 0. -1.
         -2    1    1    2    0  504 -0.81853678092E+02 -0.14541422575E+02 -0.14069728299E+03  0.16342338581E+03  0.00000000000E+00 0. -1.
<scales pt_clust_3="53.34782" pt_clust_4="41.37518" pt_clust_5="14000.00000" pt_clust_6="71.29499"></scales>
<clustering>
<clus scale="   53.348">  1  3  2 -1</clus>
<clus scale="   41.375">  1  4  2 -1</clus>
<clus scale="   71.295">  2  6  1 -1</clus>
<clus scale="   53.348">  1  3  2 -1</clus>
</clustering>
</event>
<event>
 6    0  0.3082502E+002  0.6532320E+02  0.7546771E-02  0.1376760E+00
          2   -1    0    0  504    0 -0.00000000000E+00  0.00000000000E+00  0.85863270161E+03  0.85863270161E+03  0.00000000000E+00 0.  1.
         21   -1    0    0  503  502  0.00000000000E+00 -0.00000000000E+00 -0.14727214897E+04  0.14727214897E+04  0.00000000000E+00 0.  1.
         21    1    1    2  503  505 -0.30070748248E+02  0.37292823237E+02 -0.94368578786E+03  0.94490098464E+03  0.00000000000E+00 0.  1.
         21    1    1    2  504  502  0.55990357147E+02 -0.51821671376E+02 -0.51900240669E+03  0.52457974024E+03  0.00000000000E+00 0. -1.
         21    1    1    2  505  501 -0.47173823081E+02 -0.48284320491E+02  0.22917930956E+03  0.23891400361E+03  0.00000000000E+00 0.  1.
          2    1    1    2  501    0  0.21254214181E+02  0.62813168630E+02  0.61942009695E+03  0.62295946279E+03  0.00000000000E+00 0.  1.
<scales pt_clust_3="47.90621" pt_clust_4="30.27317" pt_clust_5="14000.00000" pt_clust_6="65.32320"></scales>
<clustering>
<clus scale="   47.906">  2  3  1 -1</clus>
<clus scale="   30.273">  2  4  1 -1</clus>
<clus scale="   65.323">  1  6  2 -1</clus>
<clus scale="   47.906">  2  3  1 -1</clus>
</clustering>
</event>
<event>
 6    0  0.3082502E+002  0.1164510E+03  0.7546771E-02  0.1249069E+00
          2   -1    0    0  505    0 -0.00000000000E+00  0.00000000000E+00  0.27267171029E+04  0.27267171029E+04  0.00000000000E+00 0.  1.
         21   -1    0    0  504  502  0.00000000000E+00 -0.00000000000E+00 -0.52079818887E+03  0.52079818887E+03  0.00000000000E+00 0.  1.
         21    1    1    2  503  502 -0.48242249844E+02  0.50923092129E+02 -0.45481825260E+03  0.46019573975E+03  0.00000000000E+00 0.  1.
         21    1    1    2  504  501  0.96161021154E+02  0.56701613973E+02 -0.97412642575E+01  0.11205760682E+03  0.00000000000E+00 0.  1.
         21    1    1    2  505  503 -0.30515115640E+02  0.58783952209E+01  0.11634935224E+04  0.11639084605E+04  0.00000000000E+00 0.  1.
          2    1    1    2  501    0 -0.17403655670E+02 -0.11350310132E+03  0.15069849085E+04  0.15113534847E+04  0.00000000000E+00 0.  1.
<scales pt_clust_3="70.18955" pt_clust_4="116.45096" pt_clust_5="31.07616" pt_clust_6="14000.00000"></scales>
<clustering>
<clus scale="   31.076">  1  5  2 -1</clus>
<clus scale="   70.190">  2  3  1 -1</clus>
<clus scale="  116.451">  2  4  1 -1</clus>
<clus scale="   70.190">  2  3  1 -1</clus>
</clustering>
</event>
<event>
 6    0  0.3082502E+002  0.1028606E+03  0.7546771E-02  0.1274393E+00
          3   -1    0    0  503    0 -0.00000000000E+00  0.00000000000E+00  0.10136842002E+03  0.10136842002E+03  0.00000000000E+00 0.  1.
         21   -1    0    0  501  502  0.00000000000E+00 -0.00000000000E+00 -0.58968817470E+03  0.58968817470E+03  0.00000000000E+00 0.  1.
         21    1    1    2  503  505 -0.70487780410E+02  0.37993641287E+02 -0.11141414719E+02  0.80846614569E+02  0.00000000000E+00 0.  1.
         21    1    1    2  504  502 -0.31821336022E+02  0.46043439221E+02 -0.27239208357E+03  0.27808279867E+03  0.00000000000E+00 0.  1.
         21    1    1    2  505  504 -0.66166459716E+02 -0.25125419894E+02 -0.10791550804E+03  0.12905442260E+03  0.00000000000E+00 0.  1.
          3    1    1    2  501    0  0.16847557615E+03 -0.58911660613E+02 -0.96870748348E+02  0.20307275888E+03  0.00000000000E+00 0.  1.
<scales pt_clust_3="102.86061" pt_clust_4="55.96960" pt_clust_5="78.54263" pt_clust_6="14000.00000"></scales>
<clustering>
<clus scale="   55.970">  2  4  1 -1</clus>
<clus scale="   78.543">  2  5  1 -1</clus>
<clus scale="  102.861">  1  3  2 -1</clus>
<clus scale="   55.970">  2  3  1 -1</clus>
</clustering>
</event>
<event>
 6    0  0.3082502E+002  0.7381674E+02  0.7546771E-02  0.1347575E+00
          1   -1    0    0  505    0 -0.00000000000E+00  0.00000000000E+00  0.21206482838E+03  0.21206482838E+03  0.00000000000E+00 0. -1.
         21   -1    0    0  504  502  0.00000000000E+00 -0.00000000000E+00 -0.55545225131E+03  0.55545225131E+03  0.00000000000E+00 0. -1.
         21    1    1    2  503  502  0.40460604222E+02 -0.50324461585E+02 -0.47528123074E+02  0.80178141727E+02  0.00000000000E+00 0.  1.
         21    1    1    2  504  501 -0.71095602101E+02  0.29355203317E+02 -0.46899104087E+03  0.47525667698E+03  0.00000000000E+00 0. -1.
         21    1    1    2  505  503 -0.10995146092E+01 -0.43848165784E+02  0.34551700134E+02  0.55836283519E+02  0.00000000000E+00 0.  1.
          1    1    1    2  501    0  0.31734512488E+02  0.64817424053E+02  0.13858004087E+03  0.15624597746E+03  0.00000000000E+00 0. -1.
<scales pt_clust_3="73.81674" pt_clust_4="14000.00000" pt_clust_5="43.86195" pt_clust_6="40.33178"></scales>
<clustering>
<clus scale="   43.862">  1  5  2 -1</clus>
<clus scale="   40.332">  1  6  2 -1</clus>
<clus scale="   73.817">  1  3  2 -1</clus>
<clus scale="   73.817">  2  3  1 -1</clus>
</clustering>
</event>
<event>
 6    0  0.3082502E+002  0.1522801E+03  0.7546771E-02  0.1197699E+00
         -1   -1    0    0    0  501 -0.00000000000E+00  0.00000000000E+00  0.13680265288E+04  0.13680265288E+04  0.00000000000E+00 0. -1.
         21   -1    0    0  504  502  0.00000000000E+00 -0.00000000000E+00 -0.29331932039E+03  0.29331932039E+03  0.00000000000E+00 0. -1.
         21    1    1    2  503  501 -0.28325806716E+02  0.11832043167E+02  0.88922767169E+02  0.94072350309E+02  0.00000000000E+00 0. -1.
         21    1    1    2  504  503 -0.32326307552E+02 -0.32755319272E+02  0.78134000162E+02  0.90679783204E+02  0.00000000000E+00 0. -1.
         21    1    1    2  505  502  0.14839589692E+03  0.38847684326E+02 -0.26195553276E+03  0.30356413810E+03  0.00000000000E+00 0. -1.
         -1    1    1    2    0  505 -0.87743782652E+02 -0.17924408221E+02  0.11696059738E+04  0.11730295776E+04  0.00000000000E+00 0. -1.
<scales pt_clust_3="30.69770" pt_clust_4="46.81731" pt_clust_5="152.28008" pt_clust_6="14000.00000"></scales>
<clustering>
<clus scale="   30.698">  1  3  2 -1</clus>
<clus scale="   46.817">  1  4  2 -1</clus>
<clus scale="  152.280">  2  5  1 -1</clus>
<clus scale="  152.280">  2  3  1 -1</clus>
</clustering>
</event>
<event>
 6    0  0.3082502E+002  0.1312467E+03  0.7546771E-02  0.1225618E+00
         21   -1    0    0  505  502  0.00000000000E+00  0.00000000000E+00  0.38867185053E+03  0.38867185053E+03  0.00000000000E+00 0. -1.
          2   -1    0    0  503    0 -0.00000000000E+00 -0.00000000000E+00 -0.26773590795E+03  0.26773590795E+03  0.00000000000E+00 0. -1.
         21    1    1    2  503  502 -0.26273607039E+02  0.32964376967E+02 -0.66620634166E+01  0.42677109375E+02  0.00000000000E+00 0. -1.
         21    1    1    2  504  501  0.78829989435E+02 -0.17105577612E+03  0.13984339346E+03  0.23458563570E+03  0.00000000000E+00 0. -1.
         21    1    1    2  505  504  0.18159510592E+02  0.79962588698E+02  0.16242012836E+03  0.18194527065E+03  0.00000000000E+00 0. -1.
          2    1    1    2  501    0 -0.70715892988E+02  0.58128810459E+02 -0.17466551582E+03  0.19719974276E+03  0.00000000000E+00 0. -1.
<scales pt_clust_3="42.15392" pt_clust_4="14000.00000" pt_clust_5="83.06662" pt_clust_6="131.24669"></scales>
<clustering>
<clus scale="   42.154">  2  3  1 -1</clus>
<clus scale="   83.067">  1  5  2 -1</clus>
<clus scale="  131.247">  2  6  1 -1</clus>
<clus scale="   83.067">  1  3  2 -1</clus>
</clustering>
</event>
<event>
 6    0  0.3082502E+002  0.1108534E+03  0.7546771E-02  0.1258998E+00
          2   -1    0    0  503    0 -0.00000000000E+00  0.00000000000E+00  0.14956407480E+04  0.14956407480E+04  0.00000000000E+00 0.  1.
         21   -1    0    0  501  502  0.00000000000E+00 -0.00000000000E+00 -0.11485976235E+03  0.11485976235E+03  0.00000000000E+00 0.  1.
         21    1    1    2  503  505  0.80457054254E+01 -0.67429915328E+02  0.79655696102E+03  0.79944638282E+03  0.00000000000E+00 0.  1.
         21    1    1    2  504  502 -0.37117016339E+02 -0.23320414570E+00 -0.81129997327E+02  0.89217732276E+02  0.00000000000E+00 0.  1.
         21    1    1    2  505  504 -0.78685554853E+02 -0.28579064049E+02  0.69765193803E+02  0.10897413322E+03  0.00000000000E+00 0.  1.
          2    1    1    2  501    0  0.10775686577E+03  0.96242183523E+02  0.59558882811E+03  0.61286226200E+03  0.00000000000E+00 0.  1.
<scales pt_clust_3="67.72927" pt_clust_4="37.11775" pt_clust_5="14000.00000" pt_clust_6="110.85343"></scales>
<clustering>
<clus scale="   37.118">  2  4  1 -1</clus>
<clus scale="   67.729">  1  3  2 -1</clus>
<clus scale="  110.853">  1  6  2 -1</clus>
<clus scale="   37.118">  2  3  1 -1</clus>
</clustering>
</event>
<event>
 6    0  0.3082502E+002  0.1043633E+03  0.7546771E-02  0.1271379E+00
         21   -1    0    0  503  502  0.00000000000E+00  0.00000000000E+00  0.12938732037E+03  0.12938732037E+03  0.00000000000E+00 0. -1.
          1   -1    0    0  505    0 -0.00000000000E+00 -0.00000000000E+00 -0.83843918150E+03  0.83843918150E+03  0.00000000000E+00 0. -1.
         21    1    1    2  503  501 -0.15006157977E+02 -0.31274536039E+02 -0.22192240894E+01  0.34759262611E+02  0.00000000000E+00 0. -1.
         21    1    1    2  504  502  0.11232427239E+03 -0.53500447569E+01  0.75931248419E+02  0.13568684400E+03  0.00000000000E+00 0. -1.
         21    1    1    2  505  504 -0.82984727932E+01 -0.30888480792E+02 -0.86787408505E+02  0.92493335821E+02  0.00000000000E+00 0. -1.
          1    1    1    2  501    0 -0.89019641623E+02  0.67513061588E+02 -0.69597647696E+03  0.70488705944E+03  0.00000000000E+00 0. -1.
<scales pt_clust_3="35.46492" pt_clust_4="14000.00000" pt_clust_5="31.98379" pt_clust_6="104.36332"></scales>
<clustering>
<clus scale="   31.984">  2  5  1 -1</clus>
<clus scale="   35.465">  1  3  2 -1</clus>
<clus scale="  104.363">  2  6  1 -1</clus>
<clus scale="   35.465">  1  3  2 -1</clus>
</clustering>
</event>
<event>
 6    0  0.3082502E+002  0.8989945E+02  0.7546771E-02  0.1303095E+00
          1   -1    0    0  505    0 -0.00000000000E+00  0.00000000000E+00  0.68898299931E+03  0.68898299931E+03  0.00000000000E+00 0. -1.
         21   -1    0    0  504  502  0.00000000000E+00 -0.00000000000E+00 -0.28874077313E+03  0.28874077313E+03  0.00000000000E+00 0. -1.
         21    1    1    2  503  502 -0.42611251604E+02  0.11810340731E+03 -0.77921694990E+02  0.14776983499E+03  0.00000000000E+00 0. -1.
         21    1    1    2  504  501  0.43197648352E+02 -0.30782456116E+02 -0.16272989163E+03  0.17115669446E+03  0.00000000000E+00 0. -1.
         21    1    1    2  505  503  0.47034574429E+02  0.59383898566E+01  0.22301517689E+03  0.22799843155E+03  0.00000000000E+00 0. -1.
          1    1    1    2  501    0 -0.47620971178E+02 -0.93259341053E+02  0.41787863590E+03  0.43079881144E+03  0.00000000000E+00 0. -1.
<scales pt_clust_3="89.89945" pt_clust_4="53.36103" pt_clust_5="47.40797" pt_clust_6="14000.00000"></scales>
<clustering>
<clus scale="   47.408">  1  5  2 -1</clus>
<clus scale="   53.361">  2  4  1 -1</clus>
<clus scale="   89.899">  2  3  1 -1</clus>
<clus scale="   53.361">  2  3  1 -1</clus>
</clustering>
</event>
<event>
 6    0  0.3082502E+002  0.1584519E+03  0.7546771E-02  0.1190456E+00
         21   -1    0    0  505  502  0.00000000000E+00  0.00000000000E+00  0.27399894089E+04  0.27399894089E+04  0.00000000000E+00 0. -1.
         -2   -1    0    0    0  501 -0.00000000000E+00 -0.00000000000E+00 -0.22880028407E+03  0.22880028407E+03  0.00000000000E+00 0.  1.
         21    1    1    2  503  501 -0.30860628796E+02 -0.18933485297E+02 -0.49783567885E+01  0.36546399432E+02  0.00000000000E+00 0. -1.
         21    1    1    2  504  503 -0.39731477421E+02  0.26497251990E+02  0.43888086741E+03  0.44147152846E+03  0.00000000000E+00 0. -1.
         21    1    1    2  505  504 -0.91424560740E+02  0.30420801756E+02  0.22493435668E+04  0.22514063065E+04  0.00000000000E+00 0. -1.
         -2    1    1    2    0  502  0.16201666696E+03 -0.37984568449E+02 -0.17205695260E+03  0.23936545856E+03  0.00000000000E+00 0.  1.
<scales pt_clust_3="36.20574" pt_clust_4="47.76171" pt_clust_5="47.76171" pt_clust_6="143.20672"></scales>
<clustering>
<clus scale="   36.206">  2  3  1 -1</clus>
<clus scale="   47.762">  4  5 -1 -1</clus>
<clus scale="  143.207">  2  6  1 -1</clus>
<clus scale="  158.452">  1  3  2 -1</clus>
</clustering>
</event>
<event>
 6    0  0.3082502E+002  0.8203230E+02  0.7546771E-02  0.1323381E+00
          2   -1    0    0  505    0 -0.00000000000E+00  0.00000000000E+00  0.12394638034E+04  0.12394638034E+04  0.00000000000E+00 0. -1.
         21   -1    0    0  504  502  0.00000000000E+00 -0.00000000000E+00 -0.10978301762E+03  0.10978301762E+03  0.00000000000E+00 0.  1.
         21    1    1    2  503  501 -0.53691079776E+02 -0.44061103781E+01  0.20339553599E+03  0.21040886368E+03  0.00000000000E+00 0. -1.
         21    1    1    2  504  503 -0.13643329039E+02 -0.41275934512E+02  0.19719840998E+02  0.47735891383E+02  0.00000000000E+00 0.  1.
         21    1    1    2  505  502 -0.36120066036E+02  0.36223614184E+02 -0.82241532414E+02  0.96852873209E+02  0.00000000000E+00 0.  1.
          2    1    1    2  501    0  0.10345447485E+03  0.94584307060E+01  0.98880694124E+03  0.99424919277E+03  0.00000000000E+00 0. -1.
<scales pt_clust_3="82.03230" pt_clust_4="43.47233" pt_clust_5="48.93358" pt_clust_6="14000.00000"></scales>
<clustering>
<clus scale="   43.472">  2  4  1 -1</clus>
<clus scale="   48.934">  2  5  1 -1</clus>
<clus scale="   82.032">  2  3  1 -1</clus>
<clus scale="   43.472">  2  3  1 -1</clus>
</clustering>
</event>
<event>
 6    0  0.3082502E+002  0.1746438E+03  0.7546771E-02  0.1173090E+00
          1   -1    0    0  504    0 -0.00000000000E+00  0.00000000000E+00  0.34887383408E+03  0.34887383408E+03  0.00000000000E+00 0. -1.
         21   -1    0    0  503  502  0.00000000000E+00 -0.00000000000E+00 -0.19158378742E+03  0.19158378742E+03  0.00000000000E+00 0. -1.
         21    1    1    2  503  501  0.65273981376E+02  0.31019258116E+02 -0.91653309403E+02  0.11671853385E+03  0.00000000000E+00 0. -1.
         21    1    1    2  504  505 -0.15670938766E+03  0.31923696601E+02  0.17850180194E+03  0.23966611751E+03  0.00000000000E+00 0. -1.
         21    1    1    2  505  502 -0.31865398062E+02 -0.23923635823E+02  0.24770091152E+02  0.46918028095E+02  0.00000000000E+00 0.  1.
          1    1    1    2  501    0  0.12330080435E+03 -0.39019318895E+02  0.45671462967E+02  0.13715494205E+03  0.00000000000E+00 0. -1.
<scales pt_clust_3="72.26954" pt_clust_4="35.94782" pt_clust_5="35.94782" pt_clust_6="159.10339"></scales>
<clustering>
<clus scale="   35.948">  4  5 -1 -1</clus>
<clus scale="   72.270">  2  3  1 -1</clus>
<clus scale="  159.103">  2  6  1 -1</clus>
<clus scale="   72.270">  2  3  1 -1</clus>
</clustering>
</event>
<event>
 6    0  0.3082502E+002  0.7707097E+02  0.7546771E-02  0.1337575E+00
         -2   -1    0    0    0  501 -0.00000000000E+00  0.00000000000E+00  0.26930879458E+03  0.26930879458E+03  0.00000000000E+00 0. -1.
         21   -1    0    0  504  502  0.00000000000E+00 -0.00000000000E+00 -0.18190234742E+03  0.18190234742E+03  0.00000000000E+00 0.  1.
         21    1    1    2  503  502  0.52848293968E+02  0.40319012909E+02 -0.42961005801E+02  0.79146781342E+02  0.00000000000E+00 0. -1.
         21    1    1    2  504  505 -0.52355719715E+02 -0.78330127304E+02 -0.65444011436E+02  0.11471551274E+03  0.00000000000E+00 0.  1.
         21    1    1    2  505  501 -0.51183506133E+02 -0.44816530077E+02  0.99867920877E+02  0.12083821535E+03  0.00000000000E+00 0.  1.
         -2    1    1    2    0  503  0.50690931880E+02  0.82827644472E+02  0.95943543519E+02  0.13651063258E+03  0.00000000000E+00 0. -1.
<scales pt_clust_3="66.47229" pt_clust_4="49.98663" pt_clust_5="14000.00000" pt_clust_6="77.07097"></scales>
<clustering>
<clus scale="   66.472">  2  3  1 -1</clus>
<clus scale="   49.987">  2  4  1 -1</clus>
<clus scale="   77.071">  2  6  1 -1</clus>
<clus scale="   66.472">  2  3  1 -1</clus>
</clustering>
</event>
<event>
 6    0  0.3082502E+002  0.1094975E+03  0.7546771E-02  0.1261503E+00
         21   -1    0    0  503  502  0.00000000000E+00  0.00000000000E+00  0.28862933457E+03  0.28862933457E+03  0.00000000000E+00 0.  1.
          2   -1    0    0  504    0 -0.00000000000E+00 -0.00000000000E+00 -0.22538664103E+03  0.22538664103E+03  0.00000000000E+00 0. -1.
         21    1    1    2  503  501  0.10358600233E+02  0.32174435914E+02  0.12406594541E+03  0.12858792220E+03  0.00000000000E+00 0.  1.
         21    1    1    2  504  505  0.33341331436E+02  0.66913083961E+02 -0.49822256662E+01  0.74925481377E+02  0.00000000000E+00 0. -1.
         21    1    1    2  505  502 -0.26024112884E+02  0.38373812350E+02  0.94967962260E+02  0.10568215451E+03  0.00000000000E+00 0.  1.
          2    1    1    2  501    0 -0.17675818785E+02 -0.13746133223E+03 -0.15080898847E+03  0.20482041751E+03  0.00000000000E+00 0. -1.
<scales pt_clust_3="33.80081" pt_clust_4="14000.00000" pt_clust_5="61.47722" pt_clust_6="109.49751"></scales>
<clustering>
<clus scale="   33.801">  1  3  2 -1</clus>
<clus scale="   61.477">  1  5  2 -1</clus>
<clus scale="  109.498">  2  6  1 -1</clus>
<clus scale="   33.801">  1  3  2 -1</clus>
</clustering>
</event>
<event>
 6    0  0.3082502E+002  0.9765661E+02  0.7546771E-02  0.1285302E+00
         21   -1    0    0  505  502  0.00000000000E+00  0.00000000000E+00  0.82548438034E+03  0.82548438034E+03  0.00000000000E+00 0.  1.
         -4   -1    0    0    0  501 -0.00000000000E+00 -0.00000000000E+00 -0.28970308317E+03  0.28970308317E+03  0.00000000000E+00 0.  1.
         21    1    1    2  503  502 -0.25688874844E+02 -0.17203623886E+02  0.67365123450E+03  0.67436034040E+03  0.00000000000E+00 0.  1.
         21    1    1    2  504  501 -0.14612598376E+02 -0.27989870109E+02 -0.23598348260E+02  0.39418814043E+02  0.00000000000E+00 0.  1.
         21    1    1    2  505  504 -0.10161577819E+02 -0.75429440737E+02  0.11474603032E+03  0.13769353531E+03  0.00000000000E+00 0.  1.
         -4    1    1    2    0  503  0.50463051039E+02  0.12062293473E+03 -0.22901761939E+03  0.26371477375E+03  0.00000000000E+00 0.  1.
<scales pt_clust_3="30.91736" pt_clust_4="33.00096" pt_clust_5="97.65661" pt_clust_6="14000.00000"></scales>
<clustering>
<clus scale="   30.917">  1  3  2 -1</clus>
<clus scale="   33.001">  2  4  1 -1</clus>
<clus scale="   97.657">  1  5  2 -1</clus>
<clus scale="   30.917">  1  3  2 -1</clus>
</clustering>
</event>
<event>
 6    0  0.3082502E+002  0.1012376E+03  0.7546771E-02  0.1277715E+00
         -1   -1    0    0    0  501 -0.00000000000E+00  0.00000000000E+00  0.17083509542E+03  0.17083509542E+03  0.00000000000E+00 0.  1.
         21   -1    0    0  503  502  0.00000000000E+00 -0.00000000000E+00 -0.79939572270E+03  0.79939572270E+03  0.00000000000E+00 0. -1.
         21    1    1    2  503  501  0.98403439696E+01 -0.52254614543E+02 -0.55871708050E+01  0.53465817005E+02  0.00000000000E+00 0. -1.
         21    1    1    2  504  505  0.53808790897E+02  0.56038480751E+02 -0.14759373871E+03  0.16679211315E+03  0.00000000000E+00 0. -1.
         21    1    1    2  505  502 -0.71067678130E+02 -0.90325928653E+02 -0.59284427661E+03  0.60388221084E+03  0.00000000000E+00 0. -1.
         -1    1    1    2    0  504  0.74185432634E+01  0.86542062445E+02  0.11746455885E+03  0.14609067712E+03  0.00000000000E+00 0.  1.
<scales pt_clust_3="53.17309" pt_clust_4="101.23759" pt_clust_5="14000.00000" pt_clust_6="42.86349"></scales>
<clustering>
<clus scale="   53.173">  1  3  2 -1</clus>
<clus scale="   42.863">  1  6  2 -1</clus>
<clus scale="  101.238">  1  4  2 -1</clus>
<clus scale="  101.238">  2  3  1 -1</clus>
</clustering>
</event>
<event>
 6    0  0.3082502E+002  0.1168302E+03  0.7546771E-02  0.1248420E+00
         21   -1    0    0  503  502  0.00000000000E+00  0.00000000000E+00  0.31710390751E+03  0.31710390751E+03  0.00000000000E+00 0.  1.
          1   -1    0    0  505    0 -0.00000000000E+00 -0.00000000000E+00 -0.11254423995E+04  0.11254423995E+04  0.00000000000E+00 0. -1.
         21    1    1    2  503  501  0.50125971999E+02  0.57737812426E+02  0.52877080563E+02  0.92963722502E+02  0.00000000000E+00 0.  1.
         21    1    1    2  504  502 -0.85515938331E+02 -0.10125793196E+02  0.21538009889E+03  0.23195709602E+03  0.00000000000E+00 0.  1.
         21    1    1    2  505  504  0.72375054174E+02  0.69990426092E+02 -0.13721781278E+03  0.17019264483E+03  0.00000000000E+00 0.  1.
          1    1    1    2  501    0 -0.36985087841E+02 -0.11760244532E+03 -0.93937785871E+03  0.94743284369E+03  0.00000000000E+00 0. -1.
<scales pt_clust_3="76.46089" pt_clust_4="58.28192" pt_clust_5="116.83019" pt_clust_6="14000.00000"></scales>
<clustering>
<clus scale="   76.461">  1  3  2 -1</clus>
<clus scale="   58.282">  1  4  2 -1</clus>
<clus scale="  116.830">  1  5  2 -1</clus>
<clus scale="   76.461">  1  3  2 -1</clus>
</clustering>
</event>
<event>
 6    0  0.3082502E+002  0.9891507E+02  0.7546771E-02  0.1282594E+00
          2   -1    0    0  505    0 -0.00000000000E+00  0.00000000000E+00  0.18539448272E+04  0.18539448272E+04  0.00000000000E+00 0. -1.
         21   -1    0    0  504  502  0.00000000000E+00 -0.00000000000E+00 -0.28601685342E+03  0.28601685342E+03  0.00000000000E+00 0. -1.
         21    1    1    2  503  502  0.29907768029E+02 -0.11700927701E+02 -0.22693367338E+03  0.22919484813E+03  0.00000000000E+00 0. -1.
         21    1    1    2  504  501 -0.59458779275E+02  0.10598787812E+03  0.10522037168E+02  0.12198151503E+03  0.00000000000E+00 0. -1.
         21    1    1    2  505  503 -0.26977253097E+02 -0.27256544135E+02  0.54779105283E+03  0.54913179561E+03  0.00000000000E+00 0.  1.
          2    1    1    2  501    0  0.56528264343E+02 -0.67030406289E+02  0.12365485571E+04  0.12396535218E+04  0.00000000000E+00 0. -1.
<scales pt_clust_3="32.11520" pt_clust_4="98.91507" pt_clust_5="38.20395" pt_clust_6="14000.00000"></scales>
<clustering>
<clus scale="   32.115">  2  3  1 -1</clus>
<clus scale="   38.204">  1  5  2 -1</clus>
<clus scale="   98.915">  2  4  1 -1</clus>
<clus scale="   32.115">  2  3  1 -1</clus>
</clustering>
</event>
<event>
 6    0  0.3082502E+002  0.1082081E+03  0.7546771E-02  0.1263925E+00
          2   -1    0    0  505    0 -0.00000000000E+00  0.00000000000E+00  0.19337997517E+04  0.19337997517E+04  0.00000000000E+00 0.  1.
         21   -1    0    0  503  502  0.00000000000E+00 -0.00000000000E+00 -0.23008736872E+03  0.23008736872E+03  0.00000000000E+00 0. -1.
         21    1    1    2  503  501  0.86630855918E+02 -0.91541675204E+02 -0.15681713076E+03  0.20118746481E+03  0.00000000000E+00 0. -1.
         21    1    1    2  504  502 -0.54085617984E+02  0.61132250828E+02 -0.17159804990E+02  0.83407823801E+02  0.00000000000E+00 0. -1.
         21    1    1    2  505  504 -0.31822220811E+02 -0.12156539474E+02  0.69107079470E+03  0.69190987742E+03  0.00000000000E+00 0. -1.
          2    1    1    2  501    0 -0.72301712238E+00  0.42565963851E+02  0.11866185240E+04  0.11873819544E+04  0.00000000000E+00 0.  1.
<scales pt_clust_3="108.20812" pt_clust_4="14000.00000" pt_clust_5="34.06516" pt_clust_6="43.89675"></scales>
<clustering>
<clus scale="   34.065">  1  5  2 -1</clus>
<clus scale="   43.897">  1  6  2 -1</clus>
<clus scale="  108.208">  2  3  1 -1</clus>
<clus scale="  108.208">  2  3  1 -1</clus>
</clustering>
</event>
<event>
 6    0  0.3082502E+002  0.1083734E+03  0.7546771E-02  0.1263612E+00
         21   -1    0    0  505  502  0.00000000000E+00  0.00000000000E+00  0.31475385134E+03  0.31475385134E+03  0.00000000000E+00 0. -1.
         -2   -1    0    0    0  501 -0.00000000000E+00 -0.00000000000E+00 -0.60691177994E+03  0.60691177994E+03  0.00000000000E+00 0.  1.
         21    1    1    2  503  502  0.62157305295E+02 -0.10683936322E+03  0.23895349129E+03  0.26902964732E+03  0.00000000000E+00 0. -1.
         21    1    1    2  504  503 -0.55118764139E+00  0.82767197464E+02  0.17111924486E+02  0.84519410454E+02  0.00000000000E+00 0.  1.
         21    1    1    2  505  501  0.26848337463E+02  0.14200440199E+02 -0.31401193675E+02  0.43686619125E+02  0.00000000000E+00 0. -1.
         -2    1    1    2    0  504 -0.88454455116E+02  0.98717255593E+01 -0.51682215070E+03  0.52442995438E+03  0.00000000000E+00 0.  1.
<scales pt_clust_3="14000.00000" pt_clust_4="108.37338" pt_clust_5="30.37245" pt_clust_6="67.86905"></scales>
<clustering>
<clus scale="   30.372">  2  5  1 -1</clus>
<clus scale="   67.869">  2  6  1 -1</clus>
<clus scale="  108.373">  2  4  1 -1</clus>
<clus scale="  108.373">  1  3  2 -1</clus>
</clustering>
</event>
<event>
 6    0  0.3082502E+002  0.2022130E+03  0.7546771E-02  0.1147885E+00
         21   -1    0    0  505  502  0.00000000000E+00  0.00000000000E+00  0.33857566043E+03  0.33857566043E+03  0.00000000000E+00 0.  1.
          2   -1    0    0  503    0 -0.00000000000E+00 -0.00000000000E+00 -0.15704466542E+04  0.15704466542E+04  0.00000000000E+00 0. -1.
         21    1    1    2  503  504 -0.11500389051E+02 -0.44029712656E+02 -0.89619888083E+02  0.10051168531E+03  0.00000000000E+00 0. -1.
         21    1    1    2  504  502  0.71703807113E+01  0.71752829379E+02  0.28005661250E+03  0.28919126731E+03  0.00000000000E+00 0.  1.
         21    1    1    2  505  501  0.83722542151E+02  0.13273739880E+03 -0.10254134107E+03  0.18746575082E+03  0.00000000000E+00 0.  1.
          2    1    1    2  501    0 -0.79392533812E+02 -0.16046051552E+03 -0.13197663772E+04  0.13318536112E+04  0.00000000000E+00 0. -1.
<scales pt_clust_3="45.50686" pt_clust_4="71.97105" pt_clust_5="202.21295" pt_clust_6="14000.00000"></scales>
<clustering>
<clus scale="   45.507">  2  3  1 -1</clus>
<clus scale="   71.971">  1  4  2 -1</clus>
<clus scale="  202.213">  1  5  2 -1</clus>
<clus scale="   71.971">  1  3  2 -1</clus>
</clustering>
</event>
<event>
 6    0  0.3082502E+002  0.1285318E+03  0.7546771E-02  0.1229651E+00
         -1   -1    0    0    0  501 -0.00000000000E+00  0.00000000000E+00  0.12608214409E+03  0.12608214409E+03  0.00000000000E+00 0. -1.
         21   -1    0    0  504  502  0.00000000000E+00 -0.00000000000E+00 -0.11336392224E+04  0.11336392224E+04  0.00000000000E+00 0. -1.
         21    1    1    2  503  501  0.31244369738E+02  0.12280317484E+02 -0.11091173567E+02  0.35355777024E+02  0.00000000000E+00 0.  1.
         21    1    1    2  504  505 -0.16607438086E+02  0.36889221691E+02 -0.61069392459E+03  0.61203242660E+03  0.00000000000E+00 0. -1.
         21    1    1    2  505  503  0.10883164791E+03  0.51357410587E+02 -0.43045864701E+03  0.44696370993E+03  0.00000000000E+00 0.  1.
         -1    1    1    2    0  502 -0.12346857956E+03 -0.10052694976E+03  0.44686666857E+02  0.16536945293E+03  0.00000000000E+00 0. -1.
<scales pt_clust_3="33.57107" pt_clust_4="40.44610" pt_clust_5="128.53180" pt_clust_6="14000.00000"></scales>
<clustering>
<clus scale="   33.571">  1  3  2 -1</clus>
<clus scale="   40.446">  2  4  1 -1</clus>
<clus scale="  128.532">  2  5  1 -1</clus>
<clus scale="   40.446">  2  3  1 -1</clus>
</clustering>
</event>
<event>
 6    0  0.3082502E+002  0.8639626E+02  0.7546771E-02  0.1311821E+00
         21   -1    0    0  504  502  0.00000000000E+00  0.00000000000E+00  0.80332552329E+03  0.80332552329E+03  0.00000000000E+00 0.  1.
          2   -1    0    0  505    0 -0.00000000000E+00 -0.00000000000E+00 -0.11205434586E+03  0.11205434586E+03  0.00000000000E+00 0.  1.
         21    1    1    2  503  501 -0.42852689482E+02 -0.97324148932E+02 -0.13960340101E+02  0.10725313076E+03  0.00000000000E+00 0.  1.
         21    1    1    2  504  503 -0.40187403100E+02  0.65152442765E+02  0.16932325193E+03  0.18582311969E+03  0.00000000000E+00 0.  1.
         21    1    1    2  505  502  0.30090485854E+02 -0.20784087982E+02  0.54557192003E+03  0.54679624685E+03  0.00000000000E+00 0.  1.
          2    1    1    2  501    0  0.52949606728E+02  0.52955794150E+02 -0.96636544258E+01  0.75507371849E+02  0.00000000000E+00 0.  1.
<scales pt_clust_3="86.39626" pt_clust_4="54.38081" pt_clust_5="36.57069" pt_clust_6="14000.00000"></scales>
<clustering>
<clus scale="   36.571">  1  5  2 -1</clus>
<clus scale="   54.381">  1  4  2 -1</clus>
<clus scale="   86.396">  1  3  2 -1</clus>
<clus scale="   36.571">  1  3  2 -1</clus>
</clustering>
</event>
<event>
 6    0  0.3082502E+002  0.8808680E+02  0.7546771E-02  0.1307552E+00
         21   -1    0    0  505  502  0.00000000000E+00  0.00000000000E+00  0.25214726845E+04  0.25214726845E+04  0.00000000000E+00 0. -1.
         -3   -1    0    0    0  501 -0.00000000000E+00 -0.00000000000E+00 -0.33814678830E+02  0.33814678830E+02  0.00000000000E+00 0.  1.
         21    1    1    2  503  504  0.43049552640E+02 -0.70815730349E+02  0.20571386674E+03  0.22177990580E+03  0.00000000000E+00 0. -1.
         21    1    1    2  504  502  0.28951512262E+02  0.11372597925E+02  0.33015706667E+03  0.33161908075E+03  0.00000000000E+00 0. -1.
         21    1    1    2  505  501 -0.11065701299E+02  0.82016487476E+02  0.19322659422E+04  0.19340374416E+04  0.00000000000E+00 0. -1.
         -3    1    1    2    0  503 -0.60935363603E+02 -0.22573355052E+02  0.19521130102E+02  0.67850935264E+02  0.00000000000E+00 0.  1.
<scales pt_clust_3="88.08680" pt_clust_4="31.10508" pt_clust_5="14000.00000" pt_clust_6="64.36191"></scales>
<clustering>
<clus scale="   31.105">  1  4  2 -1</clus>
<clus scale="   64.362">  2  6  1 -1</clus>
<clus scale="   88.087">  2  3  1 -1</clus>
<clus scale="   31.105">  1  3  2 -1</clus>
</clustering>
</event>
<event>
 6    0  0.3082502E+002  0.9482365E+02  0.7546771E-02  0.1291574E+00
         21   -1    0    0  503  502  0.00000000000E+00  0.00000000000E+00  0.37559660233E+03  0.37559660233E+03  0.00000000000E+00 0. -1.
          2   -1    0    0  504    0 -0.00000000000E+00 -0.00000000000E+00 -0.21458211744E+04  0.21458211744E+04  0.00000000000E+00 0.  1.
         21    1    1    2  503  501  0.25265663674E+02 -0.29059511655E+02  0.32838082130E+03  0.33063087088E+03  0.00000000000E+00 0. -1.
         21    1    1    2  504  505  0.51560624965E+02 -0.57027919454E+01 -0.30862519209E+03  0.31295451598E+03  0.00000000000E+00 0.  1.
         21    1    1    2  505  502  0.65187099559E+02  0.57547477955E+02 -0.50332396865E+01  0.87099963661E+02  0.00000000000E+00 0. -1.
          2    1    1    2  501    0 -0.14201338820E+03 -0.22785174355E+02 -0.17849469616E+04  0.17907324262E+04  0.00000000000E+00 0.  1.
<scales pt_clust_3="38.50726" pt_clust_4="53.21862" pt_clust_5="14000.00000" pt_clust_6="94.82365"></scales>
<clustering>
<clus scale="   38.507">  1  3  2 -1</clus>
<clus scale="   53.219">  2  4  1 -1</clus>
<clus scale="   94.824">  2  6  1 -1</clus>
<clus scale="   38.507">  1  3  2 -1</clus>
</clustering>
</event>
<event>
 6    0  0.3082502E+002  0.6917489E+02  0.7546771E-02  0.1362922E+00
         21   -1    0    0  501  502  0.00000000000E+00  0.00000000000E+00  0.28744589139E+02  0.28744589139E+02  0.00000000000E+00 0. -1.
          2   -1    0    0  505    0 -0.00000000000E+00 -0.00000000000E+00 -0.32214567396E+04  0.32214567396E+04  0.00000000000E+00 0. -1.
         21    1    1    2  503  504 -0.64405428584E+01 -0.76547970624E+02 -0.12814465731E+03  0.14940590884E+03  0.00000000000E+00 0. -1.
         21    1    1    2  504  502  0.68133746819E+02  0.38780446428E+02 -0.78502760669E+02  0.11094509414E+03  0.00000000000E+00 0. -1.
         21    1    1    2  505  503  0.63109060672E+01  0.31909263891E+02 -0.17746534180E+03  0.18042166222E+03  0.00000000000E+00 0. -1.
          2    1    1    2  501    0 -0.68004110028E+02  0.58582603047E+01 -0.28085993907E+04  0.28094286636E+04  0.00000000000E+00 0. -1.
<scales pt_clust_3="14000.00000" pt_clust_4="69.17489" pt_clust_5="32.52735" pt_clust_6="71.50840"></scales>
<clustering>
<clus scale="   32.527">  2  5  1 -1</clus>
<clus scale="   71.508">  2  6  1 -1</clus>
<clus scale="   69.175">  1  4  2 -1</clus>
<clus scale="   69.175">  1  3  2 -1</clus>
</clustering>
</event>
<event>
 6    0  0.3082502E+002  0.7312449E+02  0.7546771E-02  0.1349779E+00
         21   -1    0    0  504  502  0.00000000000E+00  0.00000000000E+00  0.11817297058E+03  0.11817297058E+03  0.00000000000E+00 0.  1.
          2   -1    0    0  505    0 -0.00000000000E+00 -0.00000000000E+00 -0.35802801440E+04  0.35802801440E+04  0.00000000000E+00 0.  1.
         21    1    1    2  503  502 -0.87133245947E+01 -0.35774784985E+02  0.31912308634E+02  0.48725277922E+02  0.00000000000E+00 0. -1.
         21    1    1    2  504  501 -0.39560247766E+02  0.89577751680E+02  0.44762031551E+02  0.10766998778E+03  0.00000000000E+00 0.  1.
         21    1    1    2  505  503 -0.37926619237E+02  0.15670207948E+02 -0.82745109198E+03  0.82846804011E+03  0.00000000000E+00 0. -1.
          2    1    1    2  501    0  0.86200191598E+02 -0.69473174643E+02 -0.27113304217E+04  0.27135898088E+04  0.00000000000E+00 0.  1.
<scales pt_clust_3="36.82061" pt_clust_4="73.12449" pt_clust_5="41.00043" pt_clust_6="14000.00000"></scales>
<clustering>
<clus scale="   36.821">  1  3  2 -1</clus>
<clus scale="   41.000">  2  5  1 -1</clus>
<clus scale="   73.124">  1  4  2 -1</clus>
<clus scale="   36.821">  1  3  2 -1</clus>
</clustering>
</event>
<event>
 6    0  0.3082502E+002  0.3592843E+03  0.7546771E-02  0.1058868E+00
         -2   -1    0    0    0  501 -0.00000000000E+00  0.00000000000E+00  0.66105936958E+03  0.66105936958E+03  0.00000000000E+00 0.  1.
         21   -1    0    0  505  502  0.00000000000E+00 -0.00000000000E+00 -0.16988559724E+04  0.16988559724E+04  0.00000000000E+00 0. -1.
         21    1    1    2  503  504  0.34775280000E+03 -0.27909636487E+03 -0.13537468614E+04  0.14252920246E+04  0.00000000000E+00 0. -1.
         21    1    1    2  504  501 -0.15487116558E+03 -0.41356885042E+02  0.17711383853E+03  0.23888235947E+03  0.00000000000E+00 0. -1.
         21    1    1    2  505  503 -0.56840348316E+02  0.63933938830E+02 -0.21888522367E+03  0.23500875488E+03  0.00000000000E+00 0. -1.
         -2    1    1    2    0  502 -0.13604128610E+03  0.25651931108E+03  0.35772164371E+03  0.46073220298E+03  0.00000000000E+00 0.  1.
<scales pt_clust_3="14000.00000" pt_clust_4="161.11222" pt_clust_5="85.54749" pt_clust_6="359.28427"></scales>
<clustering>
<clus scale="   85.547">  2  5  1 -1</clus>
<clus scale="  161.112">  1  4  2 -1</clus>
<clus scale="  359.284">  1  6  2 -1</clus>
<clus scale="   85.547">  2  3  1 -1</clus>
</clustering>
</event>
<event>
 6    0  0.3082502E+002  0.9892545E+02  0.7546771E-02  0.1282572E+00
          2   -1    0    0  504    0 -0.00000000000E+00  0.00000000000E+00  0.16760388121E+04  0.16760388121E+04  0.00000000000E+00 0.  1.
         21   -1    0    0  503  502  0.00000000000E+00 -0.00000000000E+00 -0.93761509536E+03  0.93761509536E+03  0.00000000000E+00 0. -1.
         21    1    1    2  503  501 -0.72318826103E+02  0.24716267203E+01 -0.71776834495E+03  0.72140662497E+03  0.00000000000E+00 0. -1.
         21    1    1    2  504  505 -0.23840175961E+02  0.38142799685E+02  0.17056683287E+03  0.17639804884E+03  0.00000000000E+00 0.  1.
         21    1    1    2  505  502  0.50003238580E+02 -0.99509595008E+02 -0.19969284206E+03  0.22864757715E+03  0.00000000000E+00 0.  1.
          2    1    1    2  501    0  0.46155763484E+02  0.58895168603E+02  0.14853180709E+04  0.14872016565E+04  0.00000000000E+00 0.  1.
<scales pt_clust_3="72.39149" pt_clust_4="44.98030" pt_clust_5="14000.00000" pt_clust_6="98.92545"></scales>
<clustering>
<clus scale="   44.980">  1  4  2 -1</clus>
<clus scale="   72.391">  2  3  1 -1</clus>
<clus scale="   98.925">  1  6  2 -1</clus>
<clus scale="   72.391">  2  3  1 -1</clus>
</clustering>
</event>
<event>
 6    0  0.3082502E+002  0.1162940E+03  0.7546771E-02  0.1249339E+00
          2   -1    0    0  503    0 -0.00000000000E+00  0.00000000000E+00  0.88059436681E+03  0.88059436681E+03  0.00000000000E+00 0. -1.
         21   -1    0    0  501  502  0.00000000000E+00 -0.00000000000E+00 -0.31559283926E+02  0.31559283926E+02  0.00000000000E+00 0.  1.
         21    1    1    2  503  504  0.59891325748E+01  0.53857760213E+02  0.40002533801E+03  0.40367907934E+03  0.00000000000E+00 0. -1.
         21    1    1    2  504  505 -0.72955505484E+02  0.43328475890E+00  0.10155139694E+03  0.12504151205E+03  0.00000000000E+00 0.  1.
         21    1    1    2  505  502 -0.21648546465E+02  0.30830510469E+02  0.60447192455E+02  0.71225297581E+02  0.00000000000E+00 0. -1.
          2    1    1    2  501    0  0.88614919374E+02 -0.85121555441E+02  0.28701115548E+03  0.31220776176E+03  0.00000000000E+00 0. -1.
<scales pt_clust_3="54.18974" pt_clust_4="34.83283" pt_clust_5="34.83283" pt_clust_6="105.70969"></scales>
<clustering>
<clus scale="   34.833">  4  5 -1 -1</clus>
<clus scale="   54.190">  1  3  2 -1</clus>
<clus scale="  105.710">  1  6  2 -1</clus>
<clus scale="  116.294">  2  3  1 -1</clus>
</clustering>
</event>
<event>
 6    0  0.3082502E+002  0.8332664E+02  0.7546771E-02  0.1319867E+00
         21   -1    0    0  503  502  0.00000000000E+00  0.00000000000E+00  0.17351175505E+03  0.17351175505E+03  0.00000000000E+00 0. -1.
          2   -1    0    0  504    0 -0.00000000000E+00 -0.00000000000E+00 -0.60992476809E+03  0.60992476809E+03  0.00000000000E+00 0. -1.
         21    1    1    2  503  501 -0.25912681589E+02 -0.98615269016E+02  0.95951515235E+02  0.14001118393E+03  0.00000000000E+00 0. -1.
         21    1    1    2  504  505  0.82961624249E+02  0.10786331908E+02 -0.48178112452E+03  0.48899082608E+03  0.00000000000E+00 0. -1.
         21    1    1    2  505  502  0.28131785566E+02  0.37829465384E+02 -0.16672267467E+02  0.50004302944E+02  0.00000000000E+00 0. -1.
          2    1    1    2  501    0 -0.85180728225E+02  0.49999471724E+02 -0.33911136286E+02  0.10443021018E+03  0.00000000000E+00 0. -1.
<scales pt_clust_3="70.32018" pt_clust_4="83.32664" pt_clust_5="47.14304" pt_clust_6="14000.00000"></scales>
<clustering>
<clus scale="   47.143">  1  5  2 -1</clus>
<clus scale="   70.320">  1  3  2 -1</clus>
<clus scale="   83.327">  2  4  1 -1</clus>
<clus scale="   47.143">  1  3  2 -1</clus>
</clustering>
</event>
<event>
 6    0  0.3082502E+002  0.1641013E+03  0.7546771E-02  0.1184143E+00
          1   -1    0    0  503    0 -0.00000000000E+00  0.00000000000E+00  0.75711999321E+03  0.75711999321E+03  0.00000000000E+00 0. -1.
         21   -1    0    0  501  502  0.00000000000E+00 -0.00000000000E+00 -0.16256130889E+04  0.16256130889E+04  0.00000000000E+00 0. -1.
         21    1    1    2  503  504  0.90173251567E+02  0.10316550448E+03 -0.58075781242E+01  0.13714249734E+03  0.00000000000E+00 0.  1.
         21    1    1    2  504  505  0.18430846389E+03  0.29029225491E+02 -0.30659544958E+03  0.35890538516E+03  0.00000000000E+00 0.  1.
         21    1    1    2  505  502 -0.15996893132E+03  0.16170306439E+01 -0.12043489245E+04  0.12149275722E+04  0.00000000000E+00 0. -1.
          1    1    1    2  501    0 -0.11451278414E+03 -0.13381176061E+03  0.64825885648E+03  0.67175762743E+03  0.00000000000E+00 0. -1.
<scales pt_clust_3="137.01948" pt_clust_4="14000.00000" pt_clust_5="164.10129" pt_clust_6="45.36083"></scales>
<clustering>
<clus scale="  137.019">  1  3  2 -1</clus>
<clus scale="   45.361">  1  6  2 -1</clus>
<clus scale="  164.101">  2  5  1 -1</clus>
<clus scale="  164.101">  2  3  1 -1</clus>
</clustering>
</event>
<event>
 6    0  0.3082502E+002  0.2521255E+03  0.7546771E-02  0.1111969E+00
         21   -1    0    0  503  502  0.00000000000E+00  0.00000000000E+00  0.38513554771E+03  0.38513554771E+03  0.00000000000E+00 0. -1.
          2   -1    0    0  504    0 -0.00000000000E+00 -0.00000000000E+00 -0.22521314998E+03  0.22521314998E+03  0.00000000000E+00 0.  1.
         21    1    1    2  503  501 -0.74927125014E+01 -0.30998930525E+02  0.81169448276E+02  0.87209826096E+02  0.00000000000E+00 0.  1.
         21    1    1    2  504  505 -0.33748228500E+02  0.10360709064E+03  0.88383713321E+00  0.10896858871E+03  0.00000000000E+00 0. -1.
         21    1    1    2  505  502 -0.57649958568E+02  0.12913078967E+03  0.12013626306E+03  0.18555592221E+03  0.00000000000E+00 0. -1.
          2    1    1    2  501    0  0.98890899569E+02 -0.20173894978E+03 -0.42267150732E+02  0.22861436068E+03  0.00000000000E+00 0.  1.
<scales pt_clust_3="31.89160" pt_clust_4="87.90787" pt_clust_5="87.90787" pt_clust_6="232.35536"></scales>
<clustering>
<clus scale="   31.892">  1  3  2 -1</clus>
<clus scale="   87.908">  4  5 -1 -1</clus>
<clus scale="  232.355">  2  6  1 -1</clus>
<clus scale="   31.892">  1  3  2 -1</clus>
</clustering>
</event>
<event>
 6    0  0.3082502E+002  0.1025761E+03  0.7546771E-02  0.1274970E+00
         21   -1    0    0  503  502  0.00000000000E+00  0.00000000000E+00  0.42744497926E+03  0.42744497926E+03  0.00000000000E+00 0. -1.
          2   -1    0    0  504    0 -0.00000000000E+00 -0.00000000000E+00 -0.19838618673E+04  0.19838618673E+04  0.00000000000E+00 0. -1.
         21    1    1    2  503  501  0.84159311786E+02  0.31749712899E+02  0.34419305566E+03  0.35575229247E+03  0.00000000000E+00 0. -1.
         21    1    1    2  504  505 -0.52861793528E+02  0.15655996419E+01 -0.25269355468E+03  0.25816826469E+03  0.00000000000E+00 0. -1.
         21    1    1    2  505  502 -0.63038450584E+02  0.71567188179E+02  0.41793525817E+02  0.10412688162E+03  0.00000000000E+00 0. -1.
          2    1    1    2  501    0  0.31740932326E+02 -0.10488250072E+03 -0.16897099149E+04  0.16932594078E+04  0.00000000000E+00 0. -1.
<scales pt_clust_3="89.78555" pt_clust_4="52.88497" pt_clust_5="102.57615" pt_clust_6="14000.00000"></scales>
<clustering>
<clus scale="   52.885">  2  4  1 -1</clus>
<clus scale="   89.786">  1  3  2 -1</clus>
<clus scale="  102.576">  1  5  2 -1</clus>
<clus scale="   89.786">  1  3  2 -1</clus>
</clustering>
</event>
<event>
 6    0  0.3082502E+002  0.1186278E+03  0.7546771E-02  0.1245378E+00
          2   -1    0    0  503    0 -0.00000000000E+00  0.00000000000E+00  0.39728056464E+03  0.39728056464E+03  0.00000000000E+00 0.  1.
         21   -1    0    0  505  502  0.00000000000E+00 -0.00000000000E+00 -0.16344700044E+03  0.16344700044E+03  0.00000000000E+00 0.  1.
         21    1    1    2  503  504 -0.42320868175E+02  0.42237983509E+00  0.15361099567E+03  0.15933478050E+03  0.00000000000E+00 0.  1.
         21    1    1    2  504  502 -0.82590960787E+02  0.10337297099E+02  0.18097187475E+02  0.85180013557E+02  0.00000000000E+00 0.  1.
         21    1    1    2  505  501  0.26778044215E+02 -0.11587757394E+03 -0.54725408607E+02  0.13091808944E+03  0.00000000000E+00 0.  1.
          2    1    1    2  501    0  0.98133784747E+02  0.10511789701E+03  0.11685078966E+03  0.18529468159E+03  0.00000000000E+00 0.  1.
<scales pt_clust_3="42.32298" pt_clust_4="92.25744" pt_clust_5="118.62776" pt_clust_6="14000.00000"></scales>
<clustering>
<clus scale="   42.323">  1  3  2 -1</clus>
<clus scale="   92.257">  2  4  1 -1</clus>
<clus scale="  118.628">  2  5  1 -1</clus>
<clus scale="   92.257">  2  3  1 -1</clus>
</clustering>
</event>
<event>
 6    0  0.3082502E+002  0.1271196E+03  0.7546771E-02  0.1231793E+00
         -3   -1    0    0    0  501 -0.00000000000E+00  0.00000000000E+00  0.59157988739E+03  0.59157988739E+03  0.00000000000E+00 0.  1.
         21   -1    0    0  504  502  0.00000000000E+00 -0.00000000000E+00 -0.10341118800E+03  0.10341118800E+03  0.00000000000E+00 0.  1.
         21    1    1    2  503  501 -0.76234225087E+01  0.54301674291E+02  0.18325796625E+03  0.19128583480E+03  0.00000000000E+00 0.  1.
         21    1    1    2  504  503  0.63153743342E+02  0.11860174668E+03  0.39896387397E+02  0.14016594216E+03  0.00000000000E+00 0.  1.
         21    1    1    2  505  502 -0.81832511834E+02 -0.90179254156E+02  0.49954991312E+02  0.13162203095E+03  0.00000000000E+00 0.  1.
         -3    1    1    2    0  505  0.26302191001E+02 -0.82724166819E+02  0.21505935443E+03  0.23191726748E+03  0.00000000000E+00 0.  1.
<scales pt_clust_3="54.83419" pt_clust_4="127.11959" pt_clust_5="14000.00000" pt_clust_6="57.14909"></scales>
<clustering>
<clus scale="   54.834">  1  3  2 -1</clus>
<clus scale="   57.149">  1  6  2 -1</clus>
<clus scale="  127.120">  2  4  1 -1</clus>
<clus scale="  127.120">  2  3  1 -1</clus>
</clustering>
</event>
<event>
 6    0  0.3082502E+002  0.3381221E+03  0.7546771E-02  0.1067599E+00
         -2   -1    0    0    0  501 -0.00000000000E+00  0.00000000000E+00  0.50185508014E+03  0.50185508014E+03  0.00000000000E+00 0.  1.
         21   -1    0    0  504  502  0.00000000000E+00 -0.00000000000E+00 -0.13325050030E+04  0.13325050030E+04  0.00000000000E+00 0.  1.
         21    1    1    2  503  502 -0.20072788451E+03 -0.98692715238E+02 -0.91652276998E+03  0.94342245233E+03  0.00000000000E+00 0.  1.
         21    1    1    2  504  501 -0.72211989899E+02  0.14071849239E+02  0.13457959548E+03  0.15337619093E+03  0.00000000000E+00 0.  1.
         21    1    1    2  505  503 -0.70849611409E+02 -0.22869822911E+03 -0.11861374215E+03  0.26719237875E+03  0.00000000000E+00 0.  1.
         -2    1    1    2    0  505  0.34378948582E+03  0.31331909511E+03  0.69906993777E+02  0.47036906116E+03  0.00000000000E+00 0.  1.
<scales pt_clust_3="225.88648" pt_clust_4="73.57030" pt_clust_5="14000.00000" pt_clust_6="338.12205"></scales>
<clustering>
<clus scale="   73.570">  1  4  2 -1</clus>
<clus scale="  225.886">  2  3  1 -1</clus>
<clus scale="  338.122">  1  6  2 -1</clus>
<clus scale="  225.886">  2  3  1 -1</clus>
</clustering>
</event>
<event>
 6    0  0.3082502E+002  0.1353191E+03  0.7546771E-02  0.1219770E+00
         21   -1    0    0  503  502  0.00000000000E+00  0.00000000000E+00  0.19298828799E+03  0.19298828799E+03  0.00000000000E+00 0.  1.
          1   -1    0    0  505    0 -0.00000000000E+00 -0.00000000000E+00 -0.50385865584E+03  0.50385865584E+03  0.00000000000E+00 0.  1.
         21    1    1    2  503  501 -0.32521334828E+02 -0.17059091045E+01  0.15627436320E+03  0.15963152552E+03  0.00000000000E+00 0.  1.
         21    1    1    2  504  502 -0.60547956381E+02  0.53902963985E+02 -0.12135020355E+03  0.14593648087E+03  0.00000000000E+00 0.  1.
         21    1    1    2  505  504 -0.39107118761E+02 -0.82134747309E+00 -0.10195930531E+03  0.10920504241E+03  0.00000000000E+00 0.  1.
          1    1    1    2  501    0  0.13217640997E+03 -0.51375707408E+02 -0.24383522220E+03  0.28207389502E+03  0.00000000000E+00 0.  1.
<scales pt_clust_3="32.56605" pt_clust_4="34.30851" pt_clust_5="34.30851" pt_clust_6="125.81726"></scales>
<clustering>
<clus scale="   32.566">  1  3  2 -1</clus>
<clus scale="   34.309">  4  5 -1 -1</clus>
<clus scale="  125.817">  1  6  2 -1</clus>
<clus scale="   32.566">  1  3  2 -1</clus>
</clustering>
</event>
<event>
 6    0  0.3082502E+002  0.1522579E+03  0.7546771E-02  0.1197726E+00
         21   -1    0    0  504  502  0.00000000000E+00  0.00000000000E+00  0.72444771929E+03  0.72444771929E+03  0.00000000000E+00 0.  1.
          1   -1    0    0  505    0 -0.00000000000E+00 -0.00000000000E+00 -0.87660106426E+03  0.87660106426E+03  0.00000000000E+00 0.  1.
         21    1    1    2  503  501  0.15840718442E+01 -0.15194161551E+03  0.93612422089E+01  0.15223796065E+03  0.00000000000E+00 0. -1.
         21    1    1    2  504  503  0.13117647432E+03  0.92942722677E+02  0.61975978671E+03  0.64027166916E+03  0.00000000000E+00 0.  1.
         21    1    1    2  505  502 -0.32529018604E+02 -0.39945819544E+02 -0.37549572435E+03  0.37901298732E+03  0.00000000000E+00 0.  1.
          1    1    1    2  501    0 -0.10023152756E+03  0.98944712373E+02 -0.40577864954E+03  0.42952616642E+03  0.00000000000E+00 0.  1.
<scales pt_clust_3="152.25793" pt_clust_4="14000.00000" pt_clust_5="51.51510" pt_clust_6="143.30160"></scales>
<clustering>
<clus scale="   51.515">  2  5  1 -1</clus>
<clus scale="  143.302">  2  6  1 -1</clus>
<clus scale="  152.258">  2  3  1 -1</clus>
<clus scale="  152.258">  1  3  2 -1</clus>
</clustering>
</event>
<event>
 6    0  0.3082502E+002  0.1838374E+03  0.7546771E-02  0.1164140E+00
         -2   -1    0    0    0  501 -0.00000000000E+00  0.00000000000E+00  0.10703670976E+04  0.10703670976E+04  0.00000000000E+00 0. -1.
         21   -1    0    0  504  502  0.00000000000E+00 -0.00000000000E+00 -0.54151317606E+03  0.54151317606E+03  0.00000000000E+00 0. -1.
         21    1    1    2  503  501 -0.66065044109E+01  0.39832878210E+02  0.75730570883E+03  0.75838132936E+03  0.00000000000E+00 0. -1.
         21    1    1    2  504  503  0.56626245202E+02 -0.18254685694E+03 -0.45958133262E+03  0.49773977932E+03  0.00000000000E+00 0. -1.
         21    1    1    2  505  502 -0.11282476473E+03  0.11023727699E+03  0.56829450946E+02  0.16766416215E+03  0.00000000000E+00 0. -1.
         -2    1    1    2    0  505  0.62805023943E+02  0.32476701737E+02  0.17430009437E+03  0.18809500281E+03  0.00000000000E+00 0. -1.
<scales pt_clust_3="40.37702" pt_clust_4="14000.00000" pt_clust_5="183.83736" pt_clust_6="81.03199"></scales>
<clustering>
<clus scale="   40.377">  1  3  2 -1</clus>
<clus scale="   81.032">  1  6  2 -1</clus>
<clus scale="  183.837">  1  5  2 -1</clus>
<clus scale="  183.837">  2  3  1 -1</clus>
</clustering>
</event>
<event>
 6    0  0.3082502E+002  0.1444771E+03  0.7546771E-02  0.1207429E+00
         21   -1    0    0  503  502  0.00000000000E+00  0.00000000000E+00  0.48967949834E+03  0.48967949834E+03  0.00000000000E+00 0.  1.
         -1   -1    0    0    0  501 -0.00000000000E+00 -0.00000000000E+00 -0.19047455100E+03  0.19047455100E+03  0.00000000000E+00 0.  1.
         21    1    1    2  503  504  0.24038994773E+02  0.27697116248E+02  0.10986927475E+03  0.11582858478E+03  0.00000000000E+00 0.  1.
         21    1    1    2  504  501  0.34972019156E+02  0.95386981721E+00 -0.66003568224E+02  0.74702228948E+02  0.00000000000E+00 0.  1.
         21    1    1    2  505  502 -0.15674185780E+03  0.39358508554E+02  0.31679349984E+03  0.35563355259E+03  0.00000000000E+00 0.  1.
         -1    1    1    2    0  505  0.97730843873E+02 -0.68009494619E+02 -0.61454259028E+02  0.13398968302E+03  0.00000000000E+00 0.  1.
<scales pt_clust_3="37.26627" pt_clust_4="34.98503" pt_clust_5="14000.00000" pt_clust_6="144.47708"></scales>
<clustering>
<clus scale="   34.985">  2  4  1 -1</clus>
<clus scale="   37.266">  1  3  2 -1</clus>
<clus scale="  144.477">  2  6  1 -1</clus>
<clus scale="   37.266">  1  3  2 -1</clus>
</clustering>
</event>
<event>
 6    0  0.3082502E+002  0.2156508E+03  0.7546771E-02  0.1137168E+00
          4   -1    0    0  503    0 -0.00000000000E+00  0.00000000000E+00  0.22839248760E+03  0.22839248760E+03  0.00000000000E+00 0.  1.
         21   -1    0    0  504  502  0.00000000000E+00 -0.00000000000E+00 -0.14171946748E+04  0.14171946748E+04  0.00000000000E+00 0.  1.
         21    1    1    2  503  502 -0.81139495766E+02 -0.20645704504E+02 -0.94725702285E+03  0.95094990942E+03  0.00000000000E+00 0.  1.
         21    1    1    2  504  505  0.11486400770E+02  0.45962248829E+02 -0.11631697385E+03  0.12559500040E+03  0.00000000000E+00 0. -1.
         21    1    1    2  505  501 -0.14645254402E+03  0.52544799712E+02 -0.25979440733E+03  0.30282410358E+03  0.00000000000E+00 0.  1.
          4    1    1    2  501    0  0.21610563902E+03 -0.77861344037E+02  0.13456621688E+03  0.26621814896E+03  0.00000000000E+00 0.  1.
<scales pt_clust_3="73.88325" pt_clust_4="47.37579" pt_clust_5="215.65085" pt_clust_6="14000.00000"></scales>
<clustering>
<clus scale="   47.376">  2  4  1 -1</clus>
<clus scale="   73.883">  2  3  1 -1</clus>
<clus scale="  215.651">  2  5  1 -1</clus>
<clus scale="   47.376">  2  3  1 -1</clus>
</clustering>
</event>
<event>
 6    0  0.3082502E+002  0.5665954E+02  0.7546771E-02  0.1412410E+00
         21   -1    0    0  504  502  0.00000000000E+00  0.00000000000E+00  0.11034549592E+03  0.11034549592E+03  0.00000000000E+00 0. -1.
         -2   -1    0    0    0  501 -0.00000000000E+00 -0.00000000000E+00 -0.46123783608E+03  0.46123783608E+03  0.00000000000E+00 0. -1.
         21    1    1    2  503  501  0.15917338098E+01  0.48355393950E+02 -0.12951943176E+03  0.13826084386E+03  0.00000000000E+00 0.  1.
         21    1    1    2  504  503 -0.13781383487E+02 -0.47113156220E+02  0.75473220558E+01  0.49664253644E+02  0.00000000000E+00 0.  1.
         21    1    1    2  505  502  0.53813023370E+02  0.73984214436E+02  0.41091354233E+02  0.10028960496E+03  0.00000000000E+00 0. -1.
         -2    1    1    2    0  505 -0.41623373693E+02 -0.75226452166E+02 -0.27001158468E+03  0.28336862954E+03  0.00000000000E+00 0. -1.
<scales pt_clust_3="48.38158" pt_clust_4="46.07958" pt_clust_5="56.65954" pt_clust_6="14000.00000"></scales>
<clustering>
<clus scale="   48.382">  2  3  1 -1</clus>
<clus scale="   46.080">  1  4  2 -1</clus>
<clus scale="   56.660">  1  5  2 -1</clus>
<clus scale="   46.080">  1  3  2 -1</clus>
</clustering>
</event>
<event>
 6    0  0.3082502E+002  0.6980047E+02  0.7546771E-02  0.1360773E+00
         21   -1    0    0  503  502  0.00000000000E+00  0.00000000000E+00  0.11296183824E+04  0.11296183824E+04  0.00000000000E+00 0.  1.
          2   -1    0    0  505    0 -0.00000000000E+00 -0.00000000000E+00 -0.38932672015E+04  0.38932672015E+04  0.00000000000E+00 0. -1.
         21    1    1    2  503  501 -0.63249463751E+02  0.81331381529E+02  0.72382947359E+03  0.73112543050E+03  0.00000000000E+00 0.  1.
         21    1    1    2  504  502  0.40091241048E+02 -0.35853252956E+02  0.39889263057E+03  0.40250229078E+03  0.00000000000E+00 0.  1.
         21    1    1    2  505  504 -0.12964608332E+01  0.48106941587E+02 -0.86371496270E+03  0.86505461991E+03  0.00000000000E+00 0. -1.
          2    1    1    2  501    0  0.24454683536E+02 -0.93585070159E+02 -0.30226559606E+04  0.30242032426E+04  0.00000000000E+00 0. -1.
<scales pt_clust_3="14000.00000" pt_clust_4="69.80047" pt_clust_5="48.12441" pt_clust_6="51.11317"></scales>
<clustering>
<clus scale="   48.124">  2  5  1 -1</clus>
<clus scale="   51.113">  2  6  1 -1</clus>
<clus scale="   69.800">  1  4  2 -1</clus>
<clus scale="   69.800">  1  3  2 -1</clus>
</clustering>
</event>
<event>
 6    0  0.3082502E+002  0.1255175E+03  0.7546771E-02  0.1234263E+00
         21   -1    0    0  505  502  0.00000000000E+00  0.00000000000E+00  0.17943544929E+03  0.17943544929E+03  0.00000000000E+00 0.  1.
          1   -1    0    0  503    0 -0.00000000000E+00 -0.00000000000E+00 -0.11693574072E+04  0.11693574072E+04  0.00000000000E+00 0. -1.
         21    1    1    2  503  504  0.25693328327E+02  0.40367782677E+02 -0.74539213916E+03  0.74692646634E+03  0.00000000000E+00 0. -1.
         21    1    1    2  504  502  0.33275646889E+02 -0.13245876810E+03  0.12822978734E+03  0.18733785598E+03  0.00000000000E+00 0.  1.
         21    1    1    2  505  501 -0.33755867075E+02  0.27512125100E+01 -0.38116975354E+01  0.34081619245E+02  0.00000000000E+00 0.  1.
          1    1    1    2  501    0 -0.25213108141E+02  0.89339772912E+02 -0.36894790857E+03  0.38044691494E+03  0.00000000000E+00 0. -1.
<scales pt_clust_3="47.77727" pt_clust_4="14000.00000" pt_clust_5="33.86780" pt_clust_6="125.51748"></scales>
<clustering>
<clus scale="   33.868">  1  5  2 -1</clus>
<clus scale="   47.777">  2  3  1 -1</clus>
<clus scale="  125.517">  2  6  1 -1</clus>
<clus scale="   33.868">  1  3  2 -1</clus>
</clustering>
</event>
<event>
 6    0  0.3082502E+002  0.1137272E+03  0.7546771E-02  0.1253819E+00
          3   -1    0    0  504    0 -0.00000000000E+00  0.00000000000E+00  0.45012614505E+03  0.45012614505E+03  0.00000000000E+00 0.  1.
         21   -1    0    0  505  502  0.00000000000E+00 -0.00000000000E+00 -0.16736985433E+03  0.16736985433E+03  0.00000000000E+00 0.  1.
         21    1    1    2  503  502 -0.37859799270E+02 -0.45159721662E+02  0.21599581772E+03  0.22389050479E+03  0.00000000000E+00 0.  1.
         21    1    1    2  504  503 -0.13737963606E+02 -0.58298628372E+02  0.53576900488E+02  0.80361346306E+02  0.00000000000E+00 0.  1.
         21    1    1    2  505  501  0.79315187159E+02  0.89719573563E+02 -0.12413629105E+03  0.17248280943E+03  0.00000000000E+00 0.  1.
          3    1    1    2  501    0 -0.27717424283E+02  0.13738776471E+02  0.13731986356E+03  0.14076133885E+03  0.00000000000E+00 0.  1.
<scales pt_clust_3="14000.00000" pt_clust_4="58.74443" pt_clust_5="113.72715" pt_clust_6="30.93557"></scales>
<clustering>
<clus scale="   30.936">  1  6  2 -1</clus>
<clus scale="   58.744">  1  4  2 -1</clus>
<clus scale="  113.727">  2  5  1 -1</clus>
<clus scale="  113.727">  2  3  1 -1</clus>
</clustering>
</event>
<event>
 6    0  0.3082502E+002  0.6019211E+02  0.7546771E-02  0.1397027E+00
         21   -1    0    0  503  502  0.00000000000E+00  0.00000000000E+00  0.12023994287E+03  0.12023994287E+03  0.00000000000E+00 0. -1.
          2   -1    0    0  504    0 -0.00000000000E+00 -0.00000000000E+00 -0.26167145383E+04  0.26167145383E+04  0.00000000000E+00 0. -1.
         21    1    1    2  503  505  0.41822233914E+02  0.37627966689E+02  0.71588139569E+02  0.91048475295E+02  0.00000000000E+00 0. -1.
         21    1    1    2  504  502  0.15207762025E+02  0.42293436393E+02 -0.18979595545E+03  0.19504490635E+03  0.00000000000E+00 0. -1.
         21    1    1    2  505  501 -0.95517692974E+02 -0.20370979905E+02 -0.30919642791E+02  0.10244330531E+03  0.00000000000E+00 0. -1.
          2    1    1    2  501    0  0.38487697035E+02 -0.59550423176E+02 -0.23473471367E+04  0.23484177942E+04  0.00000000000E+00 0. -1.
<scales pt_clust_3="60.19211" pt_clust_4="44.94453" pt_clust_5="14000.00000" pt_clust_6="56.36972"></scales>
<clustering>
<clus scale="   44.945">  2  4  1 -1</clus>
<clus scale="   56.370">  2  6  1 -1</clus>
<clus scale="   60.192">  1  3  2 -1</clus>
<clus scale="   60.192">  1  3  2 -1</clus>
</clustering>
</event>
<event>
 6    0  0.3082502E+002  0.2028330E+03  0.7546771E-02  0.1147371E+00
          2   -1    0    0  504    0 -0.00000000000E+00  0.00000000000E+00  0.26993739159E+03  0.26993739159E+03  0.00000000000E+00 0. -1.
         21   -1    0    0  505  502  0.00000000000E+00 -0.00000000000E+00 -0.23849865437E+04  0.23849865437E+04  0.00000000000E+00 0. -1.
         21    1    1    2  503  501  0.13105570776E+03 -0.17393978521E+03 -0.10683263973E+03  0.24257753467E+03  0.00000000000E+00 0.  1.
         21    1    1    2  504  502 -0.24206467871E+02  0.23016079730E+02 -0.21602189860E+02  0.39778733259E+02  0.00000000000E+00 0. -1.
         21    1    1    2  505  503  0.21129406448E+02  0.29765300606E+02 -0.21391675034E+04  0.21394789161E+04  0.00000000000E+00 0. -1.
          2    1    1    2  501    0 -0.12797864634E+03  0.12115840487E+03  0.15255318084E+03  0.23308875128E+03  0.00000000000E+00 0. -1.
<scales pt_clust_3="14000.00000" pt_clust_4="33.40199" pt_clust_5="36.50524" pt_clust_6="202.83303"></scales>
<clustering>
<clus scale="   33.402">  1  4  2 -1</clus>
<clus scale="   36.505">  2  5  1 -1</clus>
<clus scale="  202.833">  1  6  2 -1</clus>
<clus scale="   36.505">  2  3  1 -1</clus>
</clustering>
</event>
<event>
 6    0  0.3082502E+002  0.8310404E+02  0.7546771E-02  0.1320466E+00
         21   -1    0    0  505  502  0.00000000000E+00  0.00000000000E+00  0.10283528806E+04  0.10283528806E+04  0.00000000000E+00 0.  1.
          2   -1    0    0  504    0 -0.00000000000E+00 -0.00000000000E+00 -0.97311425679E+03  0.97311425679E+03  0.00000000000E+00 0.  1.
         21    1    1    2  503  502  0.82846964378E+02  0.74721845398E+02  0.59527528723E+01  0.11172470162E+03  0.00000000000E+00 0.  1.
         21    1    1    2  504  503 -0.23982657590E+02 -0.81168794790E+02 -0.66918922733E+02  0.10789663263E+03  0.00000000000E+00 0.  1.
         21    1    1    2  505  501 -0.16310441898E+02 -0.39367506998E+02  0.94737202837E+03  0.94832989579E+03  0.00000000000E+00 0.  1.
          2    1    1    2  501    0 -0.42553864889E+02  0.45814456390E+02 -0.83116723468E+03  0.83351590737E+03  0.00000000000E+00 0.  1.
<scales pt_clust_3="83.10404" pt_clust_4="14000.00000" pt_clust_5="42.61257" pt_clust_6="62.27208"></scales>
<clustering>
<clus scale="   42.613">  1  5  2 -1</clus>
<clus scale="   62.272">  2  6  1 -1</clus>
<clus scale="   83.104">  1  3  2 -1</clus>
<clus scale="   42.613">  1  3  2 -1</clus>
</clustering>
</event>
<event>
 6    0  0.3082502E+002  0.8445848E+02  0.7546771E-02  0.1316855E+00
          1   -1    0    0  505    0 -0.00000000000E+00  0.00000000000E+00  0.57223336631E+03  0.57223336631E+03  0.00000000000E+00 0. -1.
         21   -1    0    0  504  502  0.00000000000E+00 -0.00000000000E+00 -0.29114888499E+03  0.29114888499E+03  0.00000000000E+00 0. -1.
         21    1    1    2  503  502  0.59436513365E+01 -0.45094376757E+02 -0.21151475325E+03  0.21634999572E+03  0.00000000000E+00 0. -1.
         21    1    1    2  504  501  0.41850244536E+01 -0.36246571457E+02 -0.12224670521E+02  0.38480786652E+02  0.00000000000E+00 0.  1.
         21    1    1    2  505  503 -0.33113250788E+02 -0.60871448244E+02  0.44858429612E+03  0.45390493643E+03  0.00000000000E+00 0. -1.
          1    1    1    2  501    0  0.22984574998E+02  0.14221239646E+03  0.56239608978E+02  0.15464653249E+03  0.00000000000E+00 0. -1.
<scales pt_clust_3="14000.00000" pt_clust_4="36.48737" pt_clust_5="69.59416" pt_clust_6="84.45848"></scales>
<clustering>
<clus scale="   36.487">  2  4  1 -1</clus>
<clus scale="   69.594">  1  5  2 -1</clus>
<clus scale="   84.458">  1  6  2 -1</clus>
<clus scale="   36.487">  2  3  1 -1</clus>
</clustering>
</event>
<event>
 6    0  0.3082502E+002  0.1049758E+03  0.7546771E-02  0.1270167E+00
         21   -1    0    0  501  502  0.00000000000E+00  0.00000000000E+00  0.49947277286E+03  0.49947277286E+03  0.00000000000E+00 0.  1.
          2   -1    0    0  505    0 -0.00000000000E+00 -0.00000000000E+00 -0.11047745173E+03  0.11047745173E+03  0.00000000000E+00 0.  1.
         21    1    1    2  503  504  0.14094462374E+02 -0.12572299237E+03  0.55409328666E+02  0.13811270174E+03  0.00000000000E+00 0.  1.
         21    1    1    2  504  502 -0.56505084098E+02 -0.11637514020E+02  0.16947742011E+03  0.17902751797E+03  0.00000000000E+00 0.  1.
         21    1    1    2  505  503 -0.28978987487E+01  0.33317750170E+02 -0.44301396846E+02  0.55507513510E+02  0.00000000000E+00 0.  1.
          2    1    1    2  501    0  0.45308520473E+02  0.10404275622E+03  0.20840996920E+03  0.23730249137E+03  0.00000000000E+00 0.  1.
<scales pt_clust_3="14000.00000" pt_clust_4="57.44469" pt_clust_5="33.44354" pt_clust_6="104.97584"></scales>
<clustering>
<clus scale="   33.444">  2  5  1 -1</clus>
<clus scale="   57.445">  1  4  2 -1</clus>
<clus scale="  104.976">  1  6  2 -1</clus>
<clus scale="   57.445">  1  3  2 -1</clus>
</clustering>
</event>
<event>
 6    0  0.3344852E+002  0.7962993E+02  0.7546771E-02  0.1330105E+00
         21   -1    0    0  501  502  0.00000000000E+00  0.00000000000E+00  0.35818370620E+03  0.35818370620E+03  0.00000000000E+00 0. -1.
          1   -1    0    0  505    0 -0.00000000000E+00 -0.00000000000E+00 -0.84530356550E+03  0.84530356550E+03  0.00000000000E+00 0.  1.
         21    1    1    2  503  504 -0.72276020229E+02  0.34299226439E+02 -0.33471247592E+02  0.86721303322E+02  0.00000000000E+00 0.  1.
         21    1    1    2  504  502 -0.36914154064E+02 -0.70419519060E+02  0.31553999366E+03  0.32540290569E+03  0.00000000000E+00 0. -1.
         21    1    1    2  505  503  0.18816716127E+02 -0.26951956763E+02 -0.31633068055E+02  0.45619379366E+02  0.00000000000E+00 0. -1.
          1    1    1    2  501    0  0.90373458166E+02  0.63072249384E+02 -0.73755553731E+03  0.74574368331E+03  0.00000000000E+00 0.  1.
<scales pt_clust_3="77.88378" pt_clust_4="14000.00000" pt_clust_5="32.87061" pt_clust_6="79.62993"></scales>
<clustering>
<clus scale="   32.871">  2  5  1 -1</clus>
<clus scale="   77.884">  2  3  1 -1</clus>
<clus scale="   79.630">  2  6  1 -1</clus>
<clus scale="   79.630">  1  3  2 -1</clus>
</clustering>
</event>
<event>
 6    0  0.3082502E+002  0.1109287E+03  0.7546771E-02  0.1258860E+00
         21   -1    0    0  504  502  0.00000000000E+00  0.00000000000E+00  0.23515155756E+02  0.23515155756E+02  0.00000000000E+00 0. -1.
          2   -1    0    0  503    0 -0.00000000000E+00 -0.00000000000E+00 -0.31366138482E+04  0.31366138482E+04  0.00000000000E+00 0. -1.
         21    1    1    2  503  502  0.16385267593E+02 -0.44754798955E+02 -0.39037547536E+03  0.39327405303E+03  0.00000000000E+00 0. -1.
         21    1    1    2  504  505 -0.69850185421E+02  0.13184572879E+02 -0.76092193162E+02  0.10412926210E+03  0.00000000000E+00 0. -1.
         21    1    1    2  505  501 -0.57758801140E+02 -0.41844859363E+02 -0.19771805701E+03  0.21018920389E+03  0.00000000000E+00 0.  1.
          2    1    1    2  501    0  0.11122371897E+03  0.73415085439E+02 -0.24489129670E+04  0.24525364850E+04  0.00000000000E+00 0. -1.
<scales pt_clust_3="47.65993" pt_clust_4="70.29536" pt_clust_5="14000.00000" pt_clust_6="110.92865"></scales>
<clustering>
<clus scale="   47.660">  2  3  1 -1</clus>
<clus scale="   70.295">  1  4  2 -1</clus>
<clus scale="  110.929">  2  6  1 -1</clus>
<clus scale="   70.295">  1  3  2 -1</clus>
</clustering>
</event>
<event>
 6    0  0.3082502E+002  0.1272143E+03  0.7546771E-02  0.1231649E+00
          3   -1    0    0  503    0 -0.00000000000E+00  0.00000000000E+00  0.12564976057E+04  0.12564976057E+04  0.00000000000E+00 0.  1.
         21   -1    0    0  505  502  0.00000000000E+00 -0.00000000000E+00 -0.20049364380E+03  0.20049364380E+03  0.00000000000E+00 0. -1.
         21    1    1    2  503  504 -0.62556911357E+02  0.81488405989E+01  0.29995223756E+03  0.30651446226E+03  0.00000000000E+00 0.  1.
         21    1    1    2  504  502  0.60844157490E+02 -0.76626164777E+02 -0.47391133441E+02  0.10871752461E+03  0.00000000000E+00 0. -1.
         21    1    1    2  505  501  0.86652496130E+01 -0.35828588474E+02 -0.11326391391E+03  0.11911124421E+03  0.00000000000E+00 0. -1.
          3    1    1    2  501    0 -0.69524957460E+01  0.10430591265E+03  0.91670677168E+03  0.92264801840E+03  0.00000000000E+00 0.  1.
<scales pt_clust_3="62.58522" pt_clust_4="127.21429" pt_clust_5="36.86156" pt_clust_6="14000.00000"></scales>
<clustering>
<clus scale="   36.862">  2  5  1 -1</clus>
<clus scale="   62.585">  1  3  2 -1</clus>
<clus scale="  127.214">  2  4  1 -1</clus>
<clus scale="   36.862">  2  3  1 -1</clus>
</clustering>
</event>
<event>
 6    0  0.3082502E+002  0.7726745E+02  0.7546771E-02  0.1336990E+00
         21   -1    0    0  505  502  0.00000000000E+00  0.00000000000E+00  0.24417276761E+03  0.24417276761E+03  0.00000000000E+00 0. -1.
          2   -1    0    0  503    0 -0.00000000000E+00 -0.00000000000E+00 -0.55447303314E+03  0.55447303314E+03  0.00000000000E+00 0.  1.
         21    1    1    2  503  504  0.37650295018E+02  0.77354046655E+02  0.76211461423E+02  0.11493206733E+03  0.00000000000E+00 0. -1.
         21    1    1    2  504  502 -0.53371519043E+02 -0.29203321212E+01  0.12452887309E+03  0.13551563606E+03  0.00000000000E+00 0. -1.
         21    1    1    2  505  501 -0.33183040560E+02 -0.13024972983E+02 -0.48732363734E+01  0.35979334829E+02  0.00000000000E+00 0.  1.
          2    1    1    2  501    0  0.48904264585E+02 -0.61408741551E+02 -0.50616736367E+03  0.51221876252E+03  0.00000000000E+00 0.  1.
<scales pt_clust_3="14000.00000" pt_clust_4="72.97813" pt_clust_5="35.64778" pt_clust_6="77.26745"></scales>
<clustering>
<clus scale="   35.648">  1  5  2 -1</clus>
<clus scale="   72.978">  1  4  2 -1</clus>
<clus scale="   77.267">  2  6  1 -1</clus>
<clus scale="   35.648">  1  3  2 -1</clus>
</clustering>
</event>
<event>
 6    0  0.3082502E+002  0.1143800E+03  0.7546771E-02  0.1252667E+00
         21   -1    0    0  503  502  0.00000000000E+00  0.00000000000E+00  0.37861735041E+03  0.37861735041E+03  0.00000000000E+00 0.  1.
          2   -1    0    0  502    0 -0.00000000000E+00 -0.00000000000E+00 -0.15371529668E+03  0.15371529668E+03  0.00000000000E+00 0.  1.
         21    1    1    2  503  505 -0.81792129875E+01  0.46655781664E+02  0.16962364541E+03  0.17611315275E+03  0.00000000000E+00 0.  1.
         21    1    1    2  504  501  0.28808726351E+01 -0.69582426796E+02 -0.25911848813E+02  0.74306375601E+02  0.00000000000E+00 0.  1.
         21    1    1    2  505  504 -0.51430564067E+02  0.51902665939E+02  0.16276477398E+03  0.17841345605E+03  0.00000000000E+00 0.  1.
          2    1    1    2  501    0  0.56728904420E+02 -0.28976020807E+02 -0.81574516845E+02  0.10349966269E+03  0.00000000000E+00 0.  1.
<scales pt_clust_3="35.46265" pt_clust_4="105.55960" pt_clust_5="35.46265" pt_clust_6="63.70069"></scales>
<clustering>
<clus scale="   35.463">  3  5 -1 -1</clus>
<clus scale="   63.701">  2  6  1 -1</clus>
<clus scale="  105.560">  2  4  1 -1</clus>
<clus scale="  114.380">  1  3  2 -1</clus>
</clustering>
</event>
<event>
 6    0  0.3082502E+002  0.1018121E+03  0.7546771E-02  0.1276531E+00
         21   -1    0    0  501  502  0.00000000000E+00  0.00000000000E+00  0.11649353559E+03  0.11649353559E+03  0.00000000000E+00 0. -1.
          2   -1    0    0  505    0 -0.00000000000E+00 -0.00000000000E+00 -0.44727243022E+03  0.44727243022E+03  0.00000000000E+00 0. -1.
         21    1    1    2  503  502 -0.37542678664E+02 -0.77895468298E+01  0.37478683815E+02  0.53616988927E+02  0.00000000000E+00 0. -1.
         21    1    1    2  504  503 -0.29812002128E+02 -0.93255234936E+02  0.59093637438E+01  0.98082694160E+02  0.00000000000E+00 0. -1.
         21    1    1    2  505  504 -0.20302598214E+02  0.61537758151E+02 -0.22863880075E+03  0.23764425594E+03  0.00000000000E+00 0.  1.
          2    1    1    2  501    0  0.87657279006E+02  0.39507023615E+02 -0.14552814144E+03  0.17442202678E+03  0.00000000000E+00 0. -1.
<scales pt_clust_3="38.34227" pt_clust_4="14000.00000" pt_clust_5="65.12233" pt_clust_6="101.81209"></scales>
<clustering>
<clus scale="   38.342">  1  3  2 -1</clus>
<clus scale="   65.122">  2  5  1 -1</clus>
<clus scale="  101.812">  2  6  1 -1</clus>
<clus scale="   38.342">  1  3  2 -1</clus>
</clustering>
</event>
<event>
 6    0  0.3082502E+002  0.6448066E+02  0.7546771E-02  0.1379936E+00
          2   -1    0    0  504    0 -0.00000000000E+00  0.00000000000E+00  0.15393460130E+04  0.15393460130E+04  0.00000000000E+00 0.  1.
         21   -1    0    0  503  502  0.00000000000E+00 -0.00000000000E+00 -0.24622671373E+03  0.24622671373E+03  0.00000000000E+00 0. -1.
         21    1    1    2  503  505  0.60116408833E+02 -0.25632706317E+02 -0.21812934201E+03  0.22770908653E+03  0.00000000000E+00 0. -1.
         21    1    1    2  504  502 -0.74473857366E+01 -0.32976570568E+02  0.87178340210E+03  0.87243866142E+03  0.00000000000E+00 0. -1.
         21    1    1    2  505  501 -0.66457274810E+02 -0.23320045833E+02  0.41565888158E+02  0.81780908354E+02  0.00000000000E+00 0.  1.
          2    1    1    2  501    0  0.13788251714E+02  0.81929322718E+02  0.59789935099E+03  0.60364407039E+03  0.00000000000E+00 0.  1.
<scales pt_clust_3="64.48066" pt_clust_4="33.80707" pt_clust_5="14000.00000" pt_clust_6="52.71552"></scales>
<clustering>
<clus scale="   33.807">  1  4  2 -1</clus>
<clus scale="   52.716">  1  6  2 -1</clus>
<clus scale="   64.481">  2  3  1 -1</clus>
<clus scale="   64.481">  2  3  1 -1</clus>
</clustering>
</event>
<event>
 6    0  0.3082502E+002  0.1016711E+03  0.7546771E-02  0.1276821E+00
         21   -1    0    0  501  502  0.00000000000E+00  0.00000000000E+00  0.26734718057E+02  0.26734718057E+02  0.00000000000E+00 0. -1.
          2   -1    0    0  504    0 -0.00000000000E+00 -0.00000000000E+00 -0.19413607181E+04  0.19413607181E+04  0.00000000000E+00 0. -1.
         21    1    1    2  503  505 -0.10439817279E+03  0.93341313548E+01 -0.30167870412E+03  0.31936835317E+03  0.00000000000E+00 0. -1.
         21    1    1    2  504  503  0.12144172534E+02 -0.35801561831E+02 -0.40891708480E+03  0.41066094895E+03  0.00000000000E+00 0. -1.
         21    1    1    2  505  502  0.62366800040E+01 -0.42817345860E+02 -0.17934288710E+02  0.46838659198E+02  0.00000000000E+00 0. -1.
          2    1    1    2  501    0  0.86017320256E+02  0.69284776336E+02 -0.11860959224E+04  0.11912274748E+04  0.00000000000E+00 0. -1.
<scales pt_clust_3="14000.00000" pt_clust_4="37.80519" pt_clust_5="44.05558" pt_clust_6="101.67111"></scales>
<clustering>
<clus scale="   37.805">  2  4  1 -1</clus>
<clus scale="   44.056">  1  5  2 -1</clus>
<clus scale="  101.671">  2  6  1 -1</clus>
<clus scale="   44.056">  1  3  2 -1</clus>
</clustering>
</event>
<event>
 6    0  0.1024433E+003  0.1003009E+03  0.7546771E-02  0.1279664E+00
         21   -1    0    0  503  502  0.00000000000E+00  0.00000000000E+00  0.28456932876E+03  0.28456932876E+03  0.00000000000E+00 0. -1.
          2   -1    0    0  505    0 -0.00000000000E+00 -0.00000000000E+00 -0.25754042627E+04  0.25754042627E+04  0.00000000000E+00 0.  1.
         21    1    1    2  503  501  0.96276953219E+02  0.12411444960E+02  0.25569313171E+03  0.27350004258E+03  0.00000000000E+00 0. -1.
         21    1    1    2  504  502 -0.55194623282E+01  0.30570715514E+02 -0.92729018231E+01  0.32419435832E+02  0.00000000000E+00 0. -1.
         21    1    1    2  505  504 -0.11900930858E+02  0.49012105906E+02 -0.85216531715E+02  0.99023613134E+02  0.00000000000E+00 0. -1.
          2    1    1    2  501    0 -0.78856560034E+02 -0.91994266381E+02 -0.24520386321E+04  0.24550304999E+04  0.00000000000E+00 0.  1.
<scales pt_clust_3="14000.00000" pt_clust_4="31.06498" pt_clust_5="51.22048" pt_clust_6="100.30090"></scales>
<clustering>
<clus scale="   31.065">  1  4  2 -1</clus>
<clus scale="   51.220">  2  5  1 -1</clus>
<clus scale="  100.301">  2  6  1 -1</clus>
<clus scale="   31.065">  1  3  2 -1</clus>
</clustering>
</event>
<event>
 6    0  0.3082502E+002  0.1248175E+03  0.7546771E-02  0.1235355E+00
         21   -1    0    0  505  502  0.00000000000E+00  0.00000000000E+00  0.36154535128E+02  0.36154535128E+02  0.00000000000E+00 0.  1.
         -3   -1    0    0    0  501 -0.00000000000E+00 -0.00000000000E+00 -0.12936507506E+04  0.12936507506E+04  0.00000000000E+00 0.  1.
         21    1    1    2  503  501 -0.48459747069E+01  0.33346049213E+02 -0.12537146191E+03  0.12982082241E+03  0.00000000000E+00 0.  1.
         21    1    1    2  504  502 -0.54719797623E+02 -0.12119245995E+03 -0.11742850663E+03  0.17740158615E+03  0.00000000000E+00 0.  1.
         21    1    1    2  505  503  0.38600792700E+02  0.99082346331E+01 -0.20234074719E+03  0.20622796194E+03  0.00000000000E+00 0. -1.
         -3    1    1    2    0  504  0.20964979630E+02  0.77938176099E+02 -0.81235549976E+03  0.81635491525E+03  0.00000000000E+00 0.  1.
<scales pt_clust_3="33.69633" pt_clust_4="124.81753" pt_clust_5="40.90561" pt_clust_6="14000.00000"></scales>
<clustering>
<clus scale="   33.696">  2  3  1 -1</clus>
<clus scale="   40.906">  2  5  1 -1</clus>
<clus scale="  124.818">  1  4  2 -1</clus>
<clus scale="  124.818">  1  3  2 -1</clus>
</clustering>
</event>
<event>
 6    0  0.3082502E+002  0.1180375E+03  0.7546771E-02  0.1246370E+00
         21   -1    0    0  501  502  0.00000000000E+00  0.00000000000E+00  0.16666990411E+04  0.16666990411E+04  0.00000000000E+00 0. -1.
          2   -1    0    0  505    0 -0.00000000000E+00 -0.00000000000E+00 -0.47447488049E+03  0.47447488049E+03  0.00000000000E+00 0.  1.
         21    1    1    2  503  502  0.31048207416E+02  0.64413690553E+02  0.10750873453E+04  0.10774627208E+04  0.00000000000E+00 0. -1.
         21    1    1    2  504  503 -0.11998091653E+02  0.44660851127E+02  0.57313008157E+03  0.57499272711E+03  0.00000000000E+00 0. -1.
         21    1    1    2  505  504 -0.78430566706E+02 -0.65330865628E+02 -0.26484941827E+03  0.28383919771E+03  0.00000000000E+00 0.  1.
          2    1    1    2  501    0  0.59380450942E+02 -0.43743676052E+02 -0.19114384791E+03  0.20487927602E+03  0.00000000000E+00 0.  1.
<scales pt_clust_3="33.43105" pt_clust_4="33.43105" pt_clust_5="110.47480" pt_clust_6="73.75329"></scales>
<clustering>
<clus scale="   33.431">  3  4 -1 -1</clus>
<clus scale="   73.753">  2  6  1 -1</clus>
<clus scale="  110.475">  2  5  1 -1</clus>
<clus scale="  118.037">  1  3  2 -1</clus>
</clustering>
</event>
<event>
 6    0  0.3082502E+002  0.8978827E+02  0.7546771E-02  0.1303365E+00
         21   -1    0    0  501  502  0.00000000000E+00  0.00000000000E+00  0.23083310815E+03  0.23083310815E+03  0.00000000000E+00 0.  1.
          2   -1    0    0  504    0 -0.00000000000E+00 -0.00000000000E+00 -0.29608342609E+04  0.29608342609E+04  0.00000000000E+00 0. -1.
         21    1    1    2  503  502 -0.12877078999E+02 -0.37846909938E+02  0.22179699481E+03  0.22537105995E+03  0.00000000000E+00 0.  1.
         21    1    1    2  504  505 -0.46649912460E+02 -0.15811353577E+02 -0.12839176557E+04  0.12848621560E+04  0.00000000000E+00 0. -1.
         21    1    1    2  505  503  0.60944312223E+01 -0.62665744246E+02 -0.25074444480E+03  0.25852836245E+03  0.00000000000E+00 0.  1.
          2    1    1    2  501    0  0.53432560236E+02  0.11632400776E+03 -0.14171360471E+04  0.14229057907E+04  0.00000000000E+00 0. -1.
<scales pt_clust_3="39.97759" pt_clust_4="50.88451" pt_clust_5="89.78827" pt_clust_6="14000.00000"></scales>
<clustering>
<clus scale="   39.978">  1  3  2 -1</clus>
<clus scale="   50.885">  2  4  1 -1</clus>
<clus scale="   89.788">  1  5  2 -1</clus>
<clus scale="   39.978">  1  3  2 -1</clus>
</clustering>
</event>
<event>
 6    0  0.3082502E+002  0.1474844E+03  0.7546771E-02  0.1203599E+00
          1   -1    0    0  504    0 -0.00000000000E+00  0.00000000000E+00  0.46607748881E+03  0.46607748881E+03  0.00000000000E+00 0. -1.
         21   -1    0    0  505  502  0.00000000000E+00 -0.00000000000E+00 -0.73239049557E+03  0.73239049557E+03  0.00000000000E+00 0.  1.
         21    1    1    2  503  501 -0.13691653426E+02 -0.86256079871E+02 -0.11132302036E+03  0.14149341875E+03  0.00000000000E+00 0.  1.
         21    1    1    2  504  502 -0.94914560027E+02  0.66328576110E+02 -0.55901752879E+03  0.57088427129E+03  0.00000000000E+00 0.  1.
         21    1    1    2  505  503 -0.36651848616E+02 -0.13542587961E+02 -0.14602256520E+02  0.41713134516E+02  0.00000000000E+00 0. -1.
          1    1    1    2  501    0  0.14525806207E+03  0.33470091722E+02  0.41862979891E+03  0.44437715982E+03  0.00000000000E+00 0. -1.
<scales pt_clust_3="90.97401" pt_clust_4="14000.00000" pt_clust_5="39.07377" pt_clust_6="147.48445"></scales>
<clustering>
<clus scale="   39.074">  2  5  1 -1</clus>
<clus scale="   90.974">  2  3  1 -1</clus>
<clus scale="  147.484">  1  6  2 -1</clus>
<clus scale="   39.074">  2  3  1 -1</clus>
</clustering>
</event>
<event>
 6    0  0.3082502E+002  0.8613703E+02  0.7546771E-02  0.1312486E+00
          2   -1    0    0  503    0 -0.00000000000E+00  0.00000000000E+00  0.41113545909E+04  0.41113545909E+04  0.00000000000E+00 0.  1.
         21   -1    0    0  504  502  0.00000000000E+00 -0.00000000000E+00 -0.16501611300E+02  0.16501611300E+02  0.00000000000E+00 0.  1.
         21    1    1    2  503  502 -0.26022947769E+02  0.18488978704E+02  0.89341049272E+03  0.89398061760E+03  0.00000000000E+00 0.  1.
         21    1    1    2  504  505 -0.11532057185E+02  0.41071869706E+02  0.22014523620E+02  0.48005479627E+02  0.00000000000E+00 0.  1.
         21    1    1    2  505  501  0.93444065174E+02  0.31877175470E+01  0.88940781245E+03  0.89430878991E+03  0.00000000000E+00 0.  1.
          2    1    1    2  501    0 -0.55889060220E+02 -0.62748565957E+02  0.22900201508E+04  0.22915613151E+04  0.00000000000E+00 0.  1.
<scales pt_clust_3="31.92235" pt_clust_4="42.93091" pt_clust_5="86.13703" pt_clust_6="14000.00000"></scales>
<clustering>
<clus scale="   31.922">  1  3  2 -1</clus>
<clus scale="   42.931">  2  4  1 -1</clus>
<clus scale="   86.137">  2  5  1 -1</clus>
<clus scale="   42.931">  2  3  1 -1</clus>
</clustering>
</event>
<event>
 6    0  0.3082502E+002  0.1065603E+03  0.7546771E-02  0.1267076E+00
         21   -1    0    0  503  502  0.00000000000E+00  0.00000000000E+00  0.56733406309E+03  0.56733406309E+03  0.00000000000E+00 0. -1.
          2   -1    0    0  505    0 -0.00000000000E+00 -0.00000000000E+00 -0.18019417712E+04  0.18019417712E+04  0.00000000000E+00 0. -1.
         21    1    1    2  503  501 -0.86678037019E+02 -0.23450182661E+00  0.10261889037E+03  0.13432711474E+03  0.00000000000E+00 0. -1.
         21    1    1    2  504  502  0.86616812768E+02  0.10667819235E+03  0.43401320813E+03  0.45524737650E+03  0.00000000000E+00 0. -1.
         21    1    1    2  505  504  0.49668842636E+02  0.43014493308E+01 -0.65171606105E+03  0.65362016540E+03  0.00000000000E+00 0. -1.
          2    1    1    2  501    0 -0.49607618385E+02 -0.11074513985E+03 -0.11195237455E+04  0.11260811776E+04  0.00000000000E+00 0. -1.
<scales pt_clust_3="85.99304" pt_clust_4="14000.00000" pt_clust_5="49.85475" pt_clust_6="106.56026"></scales>
<clustering>
<clus scale="   49.855">  2  5  1 -1</clus>
<clus scale="   85.993">  1  3  2 -1</clus>
<clus scale="  106.560">  2  6  1 -1</clus>
<clus scale="   85.993">  1  3  2 -1</clus>
</clustering>
</event>
<event>
 6    0  0.3082502E+002  0.8941901E+02  0.7546771E-02  0.1304265E+00
         21   -1    0    0  501  502  0.00000000000E+00  0.00000000000E+00  0.15233615107E+03  0.15233615107E+03  0.00000000000E+00 0. -1.
          1   -1    0    0  503    0 -0.00000000000E+00 -0.00000000000E+00 -0.63583715678E+03  0.63583715678E+03  0.00000000000E+00 0. -1.
         21    1    1    2  503  504  0.95615278609E+01  0.51547064681E+02 -0.27626190075E+03  0.28119239054E+03  0.00000000000E+00 0.  1.
         21    1    1    2  504  505 -0.77087140485E+02 -0.95836017264E+02 -0.49045990056E+02  0.13241026612E+03  0.00000000000E+00 0. -1.
         21    1    1    2  505  502 -0.99794762046E+01  0.60442326423E+02  0.92906538899E+02  0.11128562234E+03  0.00000000000E+00 0. -1.
          1    1    1    2  501    0  0.77505088829E+02 -0.16153373841E+02 -0.25109965380E+03  0.26328502885E+03  0.00000000000E+00 0. -1.
<scales pt_clust_3="52.42635" pt_clust_4="14000.00000" pt_clust_5="62.53098" pt_clust_6="89.41901"></scales>
<clustering>
<clus scale="   52.426">  2  3  1 -1</clus>
<clus scale="   62.531">  1  5  2 -1</clus>
<clus scale="   89.419">  2  6  1 -1</clus>
<clus scale="   62.531">  1  3  2 -1</clus>
</clustering>
</event>
<event>
 6    0  0.3082502E+002  0.1402387E+03  0.7546771E-02  0.1213008E+00
         21   -1    0    0  501  502  0.00000000000E+00  0.00000000000E+00  0.45833791102E+03  0.45833791102E+03  0.00000000000E+00 0.  1.
          3   -1    0    0  505    0 -0.00000000000E+00 -0.00000000000E+00 -0.12029630751E+04  0.12029630751E+04  0.00000000000E+00 0.  1.
         21    1    1    2  503  502  0.13849420308E+03  0.25062029762E+02  0.42240077467E+03  0.44523158475E+03  0.00000000000E+00 0.  1.
         21    1    1    2  504  503 -0.68566377026E+01  0.72971542501E+02 -0.74245349614E+02  0.10432752003E+03  0.00000000000E+00 0. -1.
         21    1    1    2  505  504 -0.35727216655E+02  0.97693839248E+01 -0.51078157218E+03  0.51212272880E+03  0.00000000000E+00 0. -1.
          3    1    1    2  501    0 -0.95910348717E+02 -0.10780295619E+03 -0.58199901696E+03  0.59961915254E+03  0.00000000000E+00 0.  1.
<scales pt_clust_3="14000.00000" pt_clust_4="75.11380" pt_clust_5="37.03883" pt_clust_6="140.23870"></scales>
<clustering>
<clus scale="   37.039">  2  5  1 -1</clus>
<clus scale="   75.114">  2  4  1 -1</clus>
<clus scale="  140.239">  2  6  1 -1</clus>
<clus scale="  140.239">  1  3  2 -1</clus>
</clustering>
</event>
<event>
 6    0  0.3082502E+002  0.3821105E+03  0.7546771E-02  0.1050156E+00
          2   -1    0    0  505    0 -0.00000000000E+00  0.00000000000E+00  0.81260535011E+03  0.81260535011E+03  0.00000000000E+00 0. -1.
         21   -1    0    0  504  502  0.00000000000E+00 -0.00000000000E+00 -0.17296780016E+04  0.17296780016E+04  0.00000000000E+00 0. -1.
         21    1    1    2  503  501  0.35676990311E+03  0.15846629835E+03 -0.52997762145E+03  0.65823446485E+03  0.00000000000E+00 0. -1.
         21    1    1    2  504  503 -0.37629480285E+03 -0.65106003919E+02 -0.10948427219E+04  0.11595331630E+04  0.00000000000E+00 0. -1.
         21    1    1    2  505  502  0.32724271513E+02  0.20512033653E+02  0.22906229945E+03  0.23229541214E+03  0.00000000000E+00 0. -1.
          2    1    1    2  501    0 -0.13199371766E+02 -0.11387232808E+03  0.47868539232E+03  0.49222031179E+03  0.00000000000E+00 0. -1.
<scales pt_clust_3="14000.00000" pt_clust_4="382.11046" pt_clust_5="38.62152" pt_clust_6="97.78274"></scales>
<clustering>
<clus scale="   38.622">  1  5  2 -1</clus>
<clus scale="   97.783">  1  6  2 -1</clus>
<clus scale="  382.110">  2  4  1 -1</clus>
<clus scale="  382.110">  2  3  1 -1</clus>
</clustering>
</event>
<event>
 6    0  0.3082502E+002  0.6710506E+02  0.7546771E-02  0.1370224E+00
         21   -1    0    0  503  502  0.00000000000E+00  0.00000000000E+00  0.19463482967E+03  0.19463482967E+03  0.00000000000E+00 0.  1.
          2   -1    0    0  504    0 -0.00000000000E+00 -0.00000000000E+00 -0.14310449270E+04  0.14310449270E+04  0.00000000000E+00 0. -1.
         21    1    1    2  503  501 -0.37276550728E+02 -0.10439824742E+03  0.49319814038E+02  0.12133004309E+03  0.00000000000E+00 0.  1.
         21    1    1    2  504  505  0.10960054568E+02  0.71347111734E+02 -0.74759322334E+03  0.75107001054E+03  0.00000000000E+00 0. -1.
         21    1    1    2  505  502 -0.14087262405E+02  0.61901888482E+02  0.97151375462E+02  0.11605466175E+03  0.00000000000E+00 0.  1.
          2    1    1    2  501    0  0.40403758566E+02 -0.28850752793E+02 -0.63528806352E+03  0.63722504133E+03  0.00000000000E+00 0. -1.
<scales pt_clust_3="14000.00000" pt_clust_4="67.10506" pt_clust_5="63.04466" pt_clust_6="49.64705"></scales>
<clustering>
<clus scale="   49.647">  2  6  1 -1</clus>
<clus scale="   63.045">  1  5  2 -1</clus>
<clus scale="   67.105">  2  4  1 -1</clus>
<clus scale="   63.045">  1  3  2 -1</clus>
</clustering>
</event>
<event>
 6    0  0.3082502E+002  0.1112043E+03  0.7546771E-02  0.1258356E+00
         21   -1    0    0  505  502  0.00000000000E+00  0.00000000000E+00  0.72625433144E+02  0.72625433144E+02  0.00000000000E+00 0. -1.
          3   -1    0    0  503    0 -0.00000000000E+00 -0.00000000000E+00 -0.12488376739E+04  0.12488376739E+04  0.00000000000E+00 0.  1.
         21    1    1    2  503  504 -0.89020084186E+02 -0.38763345302E+02 -0.55751457827E+03  0.56590606757E+03  0.00000000000E+00 0.  1.
         21    1    1    2  504  502 -0.37107039754E+02 -0.30626518302E+02 -0.80213137978E+02  0.93536428877E+02  0.00000000000E+00 0.  1.
         21    1    1    2  505  501  0.18590880659E+02 -0.29668983558E+02  0.46971123024E+02  0.58584604011E+02  0.00000000000E+00 0. -1.
          3    1    1    2  501    0  0.10753624328E+03  0.99058847163E+02 -0.58545564754E+03  0.60343600660E+03  0.00000000000E+00 0.  1.
<scales pt_clust_3="111.20427" pt_clust_4="50.98917" pt_clust_5="35.01242" pt_clust_6="14000.00000"></scales>
<clustering>
<clus scale="   35.012">  1  5  2 -1</clus>
<clus scale="   50.989">  1  4  2 -1</clus>
<clus scale="  111.204">  2  3  1 -1</clus>
<clus scale="   35.012">  1  3  2 -1</clus>
</clustering>
</event>
<event>
 6    0  0.3082502E+002  0.1011405E+03  0.7546771E-02  0.1277916E+00
          1   -1    0    0  504    0 -0.00000000000E+00  0.00000000000E+00  0.13057651725E+04  0.13057651725E+04  0.00000000000E+00 0. -1.
         21   -1    0    0  505  502  0.00000000000E+00 -0.00000000000E+00 -0.30771738125E+02  0.30771738125E+02  0.00000000000E+00 0.  1.
         21    1    1    2  503  501  0.10554951222E+02 -0.80010192772E+02  0.16046336821E+03  0.17961495061E+03  0.00000000000E+00 0.  1.
         21    1    1    2  504  502  0.10097211130E+03  0.19777286411E+02  0.18329364774E+03  0.21019769176E+03  0.00000000000E+00 0.  1.
         21    1    1    2  505  503 -0.30537764931E+02 -0.13502088722E+02  0.60293075539E+02  0.68921088535E+02  0.00000000000E+00 0.  1.
          1    1    1    2  501    0 -0.80989297596E+02  0.73734995083E+02  0.87094334286E+03  0.87780317970E+03  0.00000000000E+00 0. -1.
<scales pt_clust_3="84.89843" pt_clust_4="101.14051" pt_clust_5="33.38954" pt_clust_6="14000.00000"></scales>
<clustering>
<clus scale="   33.390">  2  5  1 -1</clus>
<clus scale="   84.898">  2  3  1 -1</clus>
<clus scale="  101.141">  2  4  1 -1</clus>
<clus scale="   33.390">  2  3  1 -1</clus>
</clustering>
</event>
<event>
 6    0  0.3082502E+002  0.9205820E+02  0.7546771E-02  0.1297943E+00
         21   -1    0    0  503  502  0.00000000000E+00  0.00000000000E+00  0.12665953474E+03  0.12665953474E+03  0.00000000000E+00 0.  1.
          1   -1    0    0  504    0 -0.00000000000E+00 -0.00000000000E+00 -0.58978649103E+03  0.58978649103E+03  0.00000000000E+00 0.  1.
         21    1    1    2  503  501 -0.87926585698E+01  0.33891009985E+02 -0.13843597081E+01  0.35040374632E+02  0.00000000000E+00 0. -1.
         21    1    1    2  504  505 -0.33196363185E+02 -0.43583575893E+02 -0.10449740262E+03  0.11798827811E+03  0.00000000000E+00 0.  1.
         21    1    1    2  505  502 -0.22696292175E+02 -0.11101514975E+03  0.57201244235E+02  0.12693095562E+03  0.00000000000E+00 0.  1.
          1    1    1    2  501    0  0.64685313930E+02  0.12070771566E+03 -0.41444643819E+03  0.43648641742E+03  0.00000000000E+00 0.  1.
<scales pt_clust_3="35.01302" pt_clust_4="53.48429" pt_clust_5="14000.00000" pt_clust_6="92.05820"></scales>
<clustering>
<clus scale="   35.013">  1  3  2 -1</clus>
<clus scale="   53.484">  2  4  1 -1</clus>
<clus scale="   92.058">  2  6  1 -1</clus>
<clus scale="   35.013">  1  3  2 -1</clus>
</clustering>
</event>
<event>
 6    0  0.3082502E+002  0.1134368E+03  0.7546771E-02  0.1254335E+00
          2   -1    0    0  505    0 -0.00000000000E+00  0.00000000000E+00  0.98565488555E+03  0.98565488555E+03  0.00000000000E+00 0. -1.
         21   -1    0    0  504  502  0.00000000000E+00 -0.00000000000E+00 -0.28844087196E+03  0.28844087196E+03  0.00000000000E+00 0. -1.
         21    1    1    2  503  502  0.88993630542E+02 -0.62793822733E+02 -0.13654551466E+03  0.17466427232E+03  0.00000000000E+00 0. -1.
         21    1    1    2  504  501 -0.13265623369E+03  0.10210646153E+02 -0.93447278707E+02  0.16258636945E+03  0.00000000000E+00 0. -1.
         21    1    1    2  505  503  0.49737188385E+02 -0.17489793291E+02  0.59174161047E+03  0.59408569612E+03  0.00000000000E+00 0. -1.
          2    1    1    2  501    0 -0.60745852358E+01  0.70072969872E+02  0.33546519648E+03  0.34275941963E+03  0.00000000000E+00 0. -1.
<scales pt_clust_3="14000.00000" pt_clust_4="113.43679" pt_clust_5="52.72268" pt_clust_6="66.19158"></scales>
<clustering>
<clus scale="   52.723">  1  5  2 -1</clus>
<clus scale="   66.192">  1  6  2 -1</clus>
<clus scale="  113.437">  1  4  2 -1</clus>
<clus scale="  113.437">  2  3  1 -1</clus>
</clustering>
</event>
<event>
 6    0  0.3082502E+002  0.1004353E+03  0.7546771E-02  0.1279383E+00
          2   -1    0    0  502    0 -0.00000000000E+00  0.00000000000E+00  0.18295886585E+04  0.18295886585E+04  0.00000000000E+00 0.  1.
         21   -1    0    0  505  502  0.00000000000E+00 -0.00000000000E+00 -0.64315774461E+03  0.64315774461E+03  0.00000000000E+00 0.  1.
         21    1    1    2  503  504  0.48197983050E+02 -0.14869523811E+02 -0.90805427752E+02  0.10387383702E+03  0.00000000000E+00 0.  1.
         21    1    1    2  504  501  0.19926367342E+02 -0.10075286857E+03  0.16731901668E+03  0.19632588719E+03  0.00000000000E+00 0.  1.
         21    1    1    2  505  503 -0.10738789892E+02  0.32492033427E+02 -0.52920723568E+03  0.53031250423E+03  0.00000000000E+00 0.  1.
          2    1    1    2  501    0 -0.57385560500E+02  0.83130358953E+02  0.16391245607E+04  0.16422341747E+04  0.00000000000E+00 0.  1.
<scales pt_clust_3="41.09730" pt_clust_4="14000.00000" pt_clust_5="34.22066" pt_clust_6="100.43528"></scales>
<clustering>
<clus scale="   34.221">  2  5  1 -1</clus>
<clus scale="   41.097">  2  3  1 -1</clus>
<clus scale="  100.435">  1  6  2 -1</clus>
<clus scale="   34.221">  2  3  1 -1</clus>
</clustering>
</event>
<event>
 6    0  0.3082502E+002  0.8721749E+02  0.7546771E-02  0.1309733E+00
          2   -1    0    0  504    0 -0.00000000000E+00  0.00000000000E+00  0.27135129820E+04  0.27135129820E+04  0.00000000000E+00 0.  1.
         21   -1    0    0  501  502  0.00000000000E+00 -0.00000000000E+00 -0.89136167325E+01  0.89136167325E+01  0.00000000000E+00 0.  1.
         21    1    1    2  503  505  0.73709002944E+02 -0.29947957380E+02  0.89883780429E+03  0.90235209075E+03  0.00000000000E+00 0.  1.
         21    1    1    2  504  503 -0.32575765669E+02  0.17925096509E+02  0.58322154941E+03  0.58440556576E+03  0.00000000000E+00 0.  1.
         21    1    1    2  505  502 -0.29287162925E+02 -0.80698161477E+02  0.62252111351E+03  0.62841265737E+03  0.00000000000E+00 0.  1.
          2    1    1    2  501    0 -0.11846074350E+02  0.92721022348E+02  0.60001889805E+03  0.60725628484E+03  0.00000000000E+00 0.  1.
<scales pt_clust_3="63.97150" pt_clust_4="37.18184" pt_clust_5="14000.00000" pt_clust_6="87.21749"></scales>
<clustering>
<clus scale="   37.182">  1  4  2 -1</clus>
<clus scale="   63.972">  1  3  2 -1</clus>
<clus scale="   87.217">  2  6  1 -1</clus>
<clus scale="   87.217">  2  3  1 -1</clus>
</clustering>
</event>
<event>
 6    0  0.3082502E+002  0.8310713E+02  0.7546771E-02  0.1320458E+00
          1   -1    0    0  505    0 -0.00000000000E+00  0.00000000000E+00  0.25558921054E+04  0.25558921054E+04  0.00000000000E+00 0. -1.
         21   -1    0    0  504  502  0.00000000000E+00 -0.00000000000E+00 -0.49808184638E+02  0.49808184638E+02  0.00000000000E+00 0.  1.
         21    1    1    2  503  502  0.33138588486E+02  0.19746113045E+02  0.42695075466E+02  0.57540807227E+02  0.00000000000E+00 0.  1.
         21    1    1    2  504  501 -0.13747654337E+02 -0.47644769682E+02 -0.23524106449E+02  0.54885386599E+02  0.00000000000E+00 0.  1.
         21    1    1    2  505  503 -0.25489300163E+02  0.10036200866E+03  0.12864653944E+04  0.12906259908E+04  0.00000000000E+00 0.  1.
          1    1    1    2  501    0  0.60983660139E+01 -0.72463352022E+02  0.12004475573E+04  0.12026481054E+04  0.00000000000E+00 0. -1.
<scales pt_clust_3="38.57558" pt_clust_4="33.89632" pt_clust_5="14000.00000" pt_clust_6="83.10713"></scales>
<clustering>
<clus scale="   38.576">  2  3  1 -1</clus>
<clus scale="   33.896">  2  4  1 -1</clus>
<clus scale="   83.107">  1  6  2 -1</clus>
<clus scale="   38.576">  2  3  1 -1</clus>
</clustering>
</event>
<event>
 6    0  0.3082502E+002  0.1535417E+03  0.7546771E-02  0.1196187E+00
         21   -1    0    0  501  502  0.00000000000E+00  0.00000000000E+00  0.18326554802E+04  0.18326554802E+04  0.00000000000E+00 0. -1.
          1   -1    0    0  505    0 -0.00000000000E+00 -0.00000000000E+00 -0.34683713645E+03  0.34683713645E+03  0.00000000000E+00 0. -1.
         21    1    1    2  503  504 -0.25579193277E+02  0.16057841732E+03  0.12944783670E+04  0.13046508980E+04  0.00000000000E+00 0. -1.
         21    1    1    2  504  502 -0.41223285048E+02 -0.21434532979E+02  0.48049409052E+03  0.48273529958E+03  0.00000000000E+00 0. -1.
         21    1    1    2  505  503  0.77698675017E+02 -0.13064249893E+02 -0.25770828526E+01  0.78831466311E+02  0.00000000000E+00 0.  1.
          1    1    1    2  501    0 -0.10896196692E+02 -0.12607963445E+03 -0.28657703092E+03  0.31327495268E+03  0.00000000000E+00 0. -1.
<scales pt_clust_3="153.54168" pt_clust_4="46.46287" pt_clust_5="77.74640" pt_clust_6="14000.00000"></scales>
<clustering>
<clus scale="   46.463">  1  4  2 -1</clus>
<clus scale="   77.746">  2  5  1 -1</clus>
<clus scale="  153.542">  1  3  2 -1</clus>
<clus scale="   46.463">  1  3  2 -1</clus>
</clustering>
</event>
<event>
 6    0  0.3082502E+002  0.1945562E+03  0.7546771E-02  0.1154415E+00
          1   -1    0    0  504    0 -0.00000000000E+00  0.00000000000E+00  0.87516417010E+03  0.87516417010E+03  0.00000000000E+00 0.  1.
         21   -1    0    0  505  502  0.00000000000E+00 -0.00000000000E+00 -0.15705975917E+03  0.15705975917E+03  0.00000000000E+00 0.  1.
         21    1    1    2  503  502  0.30249214996E+02 -0.11958212295E+02 -0.27304665385E+02  0.42468324678E+02  0.00000000000E+00 0. -1.
         21    1    1    2  504  503 -0.50336238819E+02  0.51586093689E+01  0.60718818753E+02  0.79038744549E+02  0.00000000000E+00 0.  1.
         21    1    1    2  505  501 -0.10042020192E+03  0.16059126145E+03 -0.94145556010E+01  0.18963755974E+03  0.00000000000E+00 0.  1.
          1    1    1    2  501    0  0.12050722574E+03 -0.15379165852E+03  0.69410481316E+03  0.72107930031E+03  0.00000000000E+00 0.  1.
<scales pt_clust_3="32.52712" pt_clust_4="48.25688" pt_clust_5="14000.00000" pt_clust_6="194.55617"></scales>
<clustering>
<clus scale="   32.527">  2  3  1 -1</clus>
<clus scale="   48.257">  2  4  1 -1</clus>
<clus scale="  194.556">  1  6  2 -1</clus>
<clus scale="   32.527">  2  3  1 -1</clus>
</clustering>
</event>
<event>
 6    0  0.3082502E+002  0.6177361E+02  0.7546771E-02  0.1390536E+00
         21   -1    0    0  504  502  0.00000000000E+00  0.00000000000E+00  0.19287464587E+03  0.19287464587E+03  0.00000000000E+00 0. -1.
          1   -1    0    0  503    0 -0.00000000000E+00 -0.00000000000E+00 -0.11800543764E+04  0.11800543764E+04  0.00000000000E+00 0. -1.
         21    1    1    2  503  505 -0.16244627289E+02  0.30943020322E+02 -0.10768778328E+04  0.10774447666E+04  0.00000000000E+00 0. -1.
         21    1    1    2  504  501 -0.32873777189E+02  0.44746022893E+02  0.11013675748E+03  0.12334097915E+03  0.00000000000E+00 0. -1.
         21    1    1    2  505  502 -0.11085365840E+02  0.39274250764E+02 -0.95701749454E+01  0.41915872380E+02  0.00000000000E+00 0. -1.
          1    1    1    2  501    0  0.60203770317E+02 -0.11496329398E+03 -0.10868480318E+02  0.13022740413E+03  0.00000000000E+00 0. -1.
<scales pt_clust_3="34.94794" pt_clust_4="61.77361" pt_clust_5="49.39647" pt_clust_6="14000.00000"></scales>
<clustering>
<clus scale="   34.948">  2  3  1 -1</clus>
<clus scale="   49.396">  2  5  1 -1</clus>
<clus scale="   61.774">  1  4  2 -1</clus>
<clus scale="   61.774">  1  3  2 -1</clus>
</clustering>
</event>
<event>
 6    0  0.3082502E+002  0.9208652E+02  0.7546771E-02  0.1297876E+00
         -4   -1    0    0    0  501 -0.00000000000E+00  0.00000000000E+00  0.14005912660E+04  0.14005912660E+04  0.00000000000E+00 0.  1.
         21   -1    0    0  504  502  0.00000000000E+00 -0.00000000000E+00 -0.16629706162E+03  0.16629706162E+03  0.00000000000E+00 0. -1.
         21    1    1    2  503  501 -0.32270637242E+02  0.81171740130E+02  0.81885124898E+03  0.82349718480E+03  0.00000000000E+00 0.  1.
         21    1    1    2  504  503 -0.21777308955E+02  0.74127769965E+02  0.23770816575E+03  0.24994869380E+03  0.00000000000E+00 0.  1.
         21    1    1    2  505  502  0.39416003840E+02 -0.40781416910E+02 -0.14231847853E+03  0.15320344204E+03  0.00000000000E+00 0. -1.
         -4    1    1    2    0  505  0.14631942357E+02 -0.11451809318E+03  0.32005326815E+03  0.34023900696E+03  0.00000000000E+00 0.  1.
<scales pt_clust_3="14000.00000" pt_clust_4="61.29218" pt_clust_5="56.71636" pt_clust_6="92.08652"></scales>
<clustering>
<clus scale="   56.716">  2  5  1 -1</clus>
<clus scale="   61.292">  2  4  1 -1</clus>
<clus scale="   92.087">  2  6  1 -1</clus>
<clus scale="   56.716">  2  3  1 -1</clus>
</clustering>
</event>
<event>
 6    0  0.3082502E+002  0.7178983E+02  0.7546771E-02  0.1354110E+00
         21   -1    0    0  504  502  0.00000000000E+00  0.00000000000E+00  0.72126102767E+03  0.72126102767E+03  0.00000000000E+00 0. -1.
          1   -1    0    0  503    0 -0.00000000000E+00 -0.00000000000E+00 -0.16109365020E+04  0.16109365020E+04  0.00000000000E+00 0.  1.
         21    1    1    2  503  505  0.18545389073E+02 -0.30855711902E+02 -0.16968364335E+03  0.17346050050E+03  0.00000000000E+00 0. -1.
         21    1    1    2  504  501 -0.20487007511E+01 -0.88866803125E+02  0.65182762642E+03  0.65786074548E+03  0.00000000000E+00 0. -1.
         21    1    1    2  505  502 -0.35862791812E+02  0.28081626164E+02  0.54758659469E+02  0.71226598623E+02  0.00000000000E+00 0.  1.
          1    1    1    2  501    0  0.19366103490E+02  0.91640888863E+02 -0.14265781169E+04  0.14296496851E+04  0.00000000000E+00 0.  1.
<scales pt_clust_3="36.00009" pt_clust_4="71.78983" pt_clust_5="45.35678" pt_clust_6="14000.00000"></scales>
<clustering>
<clus scale="   36.000">  2  3  1 -1</clus>
<clus scale="   45.357">  1  5  2 -1</clus>
<clus scale="   71.790">  1  4  2 -1</clus>
<clus scale="   45.357">  1  3  2 -1</clus>
</clustering>
</event>
<event>
 6    0  0.3082502E+002  0.1116124E+03  0.7546771E-02  0.1257613E+00
         21   -1    0    0  504  502  0.00000000000E+00  0.00000000000E+00  0.24324823868E+03  0.24324823868E+03  0.00000000000E+00 0.  1.
         -2   -1    0    0    0  501 -0.00000000000E+00 -0.00000000000E+00 -0.14405772732E+04  0.14405772732E+04  0.00000000000E+00 0. -1.
         21    1    1    2  503  501 -0.65102488812E+02  0.41918109099E+02 -0.81423960685E+03  0.81791295337E+03  0.00000000000E+00 0. -1.
         21    1    1    2  504  503 -0.38940946878E+02  0.72717736064E+01 -0.23846176535E+02  0.46237605587E+02  0.00000000000E+00 0. -1.
         21    1    1    2  505  502 -0.70011477935E+02 -0.15096124280E+02  0.21082221553E+03  0.22265557836E+03  0.00000000000E+00 0.  1.
         -2    1    1    2    0  505  0.17405491363E+03 -0.34093758426E+02 -0.57006546664E+03  0.59701937454E+03  0.00000000000E+00 0. -1.
<scales pt_clust_3="77.72076" pt_clust_4="39.61409" pt_clust_5="111.61241" pt_clust_6="14000.00000"></scales>
<clustering>
<clus scale="   39.614">  1  4  2 -1</clus>
<clus scale="   77.721">  2  3  1 -1</clus>
<clus scale="  111.612">  1  5  2 -1</clus>
<clus scale="   39.614">  1  3  2 -1</clus>
</clustering>
</event>
<event>
 6    0  0.3082502E+002  0.1059109E+03  0.7546771E-02  0.1268335E+00
          2   -1    0    0  503    0 -0.00000000000E+00  0.00000000000E+00  0.31435257925E+04  0.31435257925E+04  0.00000000000E+00 0.  1.
         21   -1    0    0  504  502  0.00000000000E+00 -0.00000000000E+00 -0.91090895825E+03  0.91090895825E+03  0.00000000000E+00 0.  1.
         21    1    1    2  503  502  0.28740234785E+02 -0.62798269520E+02 -0.46917664445E+03  0.47423237705E+03  0.00000000000E+00 0.  1.
         21    1    1    2  504  505 -0.98790739995E+02 -0.44971934615E+01 -0.43273118519E+03  0.44388750117E+03  0.00000000000E+00 0.  1.
         21    1    1    2  505  501  0.34477984829E+02  0.12493970378E+02  0.75086546927E+03  0.75176045632E+03  0.00000000000E+00 0.  1.
          2    1    1    2  501    0  0.35572520381E+02  0.54801492604E+02  0.23836591946E+04  0.23845544162E+04  0.00000000000E+00 0.  1.
<scales pt_clust_3="69.06246" pt_clust_4="97.09147" pt_clust_5="31.70044" pt_clust_6="31.70044"></scales>
<clustering>
<clus scale="   31.700">  5  6 -1 -1</clus>
<clus scale="   69.062">  2  3  1 -1</clus>
<clus scale="   97.091">  2  4  1 -1</clus>
<clus scale="   69.062">  2  3  1 -1</clus>
</clustering>
</event>
<event>
 6    0  0.3082502E+002  0.8306446E+02  0.7546771E-02  0.1320573E+00
         21   -1    0    0  504  502  0.00000000000E+00  0.00000000000E+00  0.13985157405E+04  0.13985157405E+04  0.00000000000E+00 0.  1.
         -2   -1    0    0    0  501 -0.00000000000E+00 -0.00000000000E+00 -0.81061815593E+02  0.81061815593E+02  0.00000000000E+00 0.  1.
         21    1    1    2  503  502 -0.15890698609E+02 -0.34676379313E+02  0.57856258995E+03  0.57981862343E+03  0.00000000000E+00 0.  1.
         21    1    1    2  504  501 -0.10887557774E+02 -0.62349667826E+02  0.13453592565E+02  0.64707180013E+02  0.00000000000E+00 0. -1.
         21    1    1    2  505  503 -0.39030895046E+02  0.98825582826E+02  0.75531754733E+03  0.76275455022E+03  0.00000000000E+00 0.  1.
         -2    1    1    2    0  505  0.65809151429E+02 -0.17995356877E+01 -0.29879804912E+02  0.72297202450E+02  0.00000000000E+00 0.  1.
<scales pt_clust_3="38.14401" pt_clust_4="65.05450" pt_clust_5="14000.00000" pt_clust_6="83.06446"></scales>
<clustering>
<clus scale="   38.144">  1  3  2 -1</clus>
<clus scale="   65.054">  2  4  1 -1</clus>
<clus scale="   83.064">  2  6  1 -1</clus>
<clus scale="   38.144">  1  3  2 -1</clus>
</clustering>
</event>
<event>
 6    0  0.3082502E+002  0.1551171E+03  0.7546771E-02  0.1194323E+00
         21   -1    0    0  504  502  0.00000000000E+00  0.00000000000E+00  0.76291604179E+02  0.76291604179E+02  0.00000000000E+00 0. -1.
          2   -1    0    0  503    0 -0.00000000000E+00 -0.00000000000E+00 -0.75344797312E+03  0.75344797312E+03  0.00000000000E+00 0. -1.
         21    1    1    2  503  502  0.34938720897E+02 -0.84987522744E+01 -0.80908730383E+02  0.88539062906E+02  0.00000000000E+00 0. -1.
         21    1    1    2  504  505 -0.38878913281E+02  0.47114865800E+02 -0.66568612724E+00  0.61088653736E+02  0.00000000000E+00 0. -1.
         21    1    1    2  505  501  0.43127521640E+02  0.12560635925E+03 -0.13417146354E+03  0.18878273818E+03  0.00000000000E+00 0. -1.
          2    1    1    2  501    0 -0.39187329256E+02 -0.16422247277E+03 -0.46141048889E+03  0.49132912247E+03  0.00000000000E+00 0. -1.
<scales pt_clust_3="35.95752" pt_clust_4="59.76385" pt_clust_5="14000.00000" pt_clust_6="155.11706"></scales>
<clustering>
<clus scale="   35.958">  2  3  1 -1</clus>
<clus scale="   59.764">  1  4  2 -1</clus>
<clus scale="  155.117">  2  6  1 -1</clus>
<clus scale="   59.764">  1  3  2 -1</clus>
</clustering>
</event>
<event>
 6    0  0.3082502E+002  0.1929605E+03  0.7546771E-02  0.1155818E+00
         21   -1    0    0  504  502  0.00000000000E+00  0.00000000000E+00  0.65893144842E+03  0.65893144842E+03  0.00000000000E+00 0. -1.
          1   -1    0    0  503    0 -0.00000000000E+00 -0.00000000000E+00 -0.25532702565E+04  0.25532702565E+04  0.00000000000E+00 0. -1.
         21    1    1    2  503  505  0.88237348536E+02 -0.47345961970E+02 -0.74077107920E+03  0.74750870334E+03  0.00000000000E+00 0. -1.
         21    1    1    2  504  501  0.28066504893E+02 -0.36568823886E+02  0.59296194216E+02  0.75106898656E+02  0.00000000000E+00 0. -1.
         21    1    1    2  505  502 -0.12517420472E+03  0.20418191052E+03  0.56185748464E+03  0.61077218925E+03  0.00000000000E+00 0. -1.
          1    1    1    2  501    0  0.88703512892E+01 -0.12026712466E+03 -0.17747214077E+04  0.17788139137E+04  0.00000000000E+00 0. -1.
<scales pt_clust_3="100.37655" pt_clust_4="46.09780" pt_clust_5="192.96047" pt_clust_6="14000.00000"></scales>
<clustering>
<clus scale="   46.098">  1  4  2 -1</clus>
<clus scale="  100.377">  2  3  1 -1</clus>
<clus scale="  192.960">  1  5  2 -1</clus>
<clus scale="   46.098">  1  3  2 -1</clus>
</clustering>
</event>
<event>
 6    0  0.3082502E+002  0.6170366E+02  0.7546771E-02  0.1390818E+00
          2   -1    0    0  503    0 -0.00000000000E+00  0.00000000000E+00  0.29273150896E+03  0.29273150896E+03  0.00000000000E+00 0. -1.
         21   -1    0    0  504  502  0.00000000000E+00 -0.00000000000E+00 -0.50711635725E+03  0.50711635725E+03  0.00000000000E+00 0.  1.
         21    1    1    2  503  505 -0.49981025198E+02  0.24000758380E+02  0.76784054214E+02  0.94709715786E+02  0.00000000000E+00 0. -1.
         21    1    1    2  504  501 -0.28017424618E+02 -0.91612416506E+02 -0.15025147508E+03  0.17819460346E+03  0.00000000000E+00 0.  1.
         21    1    1    2  505  502 -0.14913633639E+02  0.52886142682E+02 -0.31998556099E+03  0.32466924677E+03  0.00000000000E+00 0.  1.
          2    1    1    2  501    0  0.92912083455E+02  0.14725515444E+02  0.17906813357E+03  0.20227430019E+03  0.00000000000E+00 0. -1.
<scales pt_clust_3="57.24230" pt_clust_4="61.70366" pt_clust_5="54.94871" pt_clust_6="14000.00000"></scales>
<clustering>
<clus scale="   54.949">  2  5  1 -1</clus>
<clus scale="   57.242">  1  3  2 -1</clus>
<clus scale="   61.704">  2  4  1 -1</clus>
<clus scale="   54.949">  2  3  1 -1</clus>
</clustering>
</event>
<event>
 6    0  0.3082502E+002  0.8581468E+02  0.7546771E-02  0.1313316E+00
          3   -1    0    0  503    0 -0.00000000000E+00  0.00000000000E+00  0.17589549515E+03  0.17589549515E+03  0.00000000000E+00 0.  1.
         21   -1    0    0  505  502  0.00000000000E+00 -0.00000000000E+00 -0.16673695314E+04  0.16673695314E+04  0.00000000000E+00 0. -1.
         21    1    1    2  503  504  0.45485615971E+02 -0.26794172126E+02 -0.20173697300E+03  0.20852979450E+03  0.00000000000E+00 0. -1.
         21    1    1    2  504  502  0.23649256637E+02  0.83351268885E+02 -0.14089369135E+04  0.14115983663E+04  0.00000000000E+00 0. -1.
         21    1    1    2  505  501 -0.19491753110E+02 -0.67095581290E+02 -0.21873149544E+02  0.73213251116E+02  0.00000000000E+00 0.  1.
          3    1    1    2  501    0 -0.49643119498E+02  0.10538484531E+02  0.14107299979E+03  0.14992361468E+03  0.00000000000E+00 0.  1.
<scales pt_clust_3="47.44807" pt_clust_4="85.81468" pt_clust_5="14000.00000" pt_clust_6="50.74937"></scales>
<clustering>
<clus scale="   50.749">  1  6  2 -1</clus>
<clus scale="   47.448">  1  3  2 -1</clus>
<clus scale="   85.815">  2  4  1 -1</clus>
<clus scale="   85.815">  2  3  1 -1</clus>
</clustering>
</event>
<event>
 6    0  0.3082502E+002  0.9522509E+02  0.7546771E-02  0.1290670E+00
         21   -1    0    0  504  502  0.00000000000E+00  0.00000000000E+00  0.13678187704E+04  0.13678187704E+04  0.00000000000E+00 0. -1.
          2   -1    0    0  503    0 -0.00000000000E+00 -0.00000000000E+00 -0.21219144812E+04  0.21219144812E+04  0.00000000000E+00 0. -1.
         21    1    1    2  503  505  0.39621999468E+02 -0.96680174343E+02 -0.15920273901E+04  0.15954523401E+04  0.00000000000E+00 0. -1.
         21    1    1    2  504  501 -0.55259025414E+02 -0.58704364815E+01  0.12516954304E+04  0.12529283588E+04  0.00000000000E+00 0. -1.
         21    1    1    2  505  502  0.73659262122E+02  0.44608225034E+02  0.93726599787E+02  0.12728022684E+03  0.00000000000E+00 0. -1.
          2    1    1    2  501    0 -0.58022236175E+02  0.57942385791E+02 -0.50749035088E+03  0.51407232584E+03  0.00000000000E+00 0. -1.
<scales pt_clust_3="95.22509" pt_clust_4="55.56997" pt_clust_5="44.19015" pt_clust_6="14000.00000"></scales>
<clustering>
<clus scale="   55.570">  1  4  2 -1</clus>
<clus scale="   44.190">  1  5  2 -1</clus>
<clus scale="   95.225">  2  3  1 -1</clus>
<clus scale="   55.570">  1  3  2 -1</clus>
</clustering>
</event>
<event>
 6    0  0.3082502E+002  0.9356762E+02  0.7546771E-02  0.1294435E+00
         21   -1    0    0  505  502  0.00000000000E+00  0.00000000000E+00  0.52785336317E+02  0.52785336317E+02  0.00000000000E+00 0.  1.
          1   -1    0    0  503    0 -0.00000000000E+00 -0.00000000000E+00 -0.12377259783E+04  0.12377259783E+04  0.00000000000E+00 0.  1.
         21    1    1    2  503  502 -0.11781494360E+02  0.28826332170E+02 -0.93304710196E+02  0.98364271870E+02  0.00000000000E+00 0. -1.
         21    1    1    2  504  501 -0.35694550463E+02  0.75473851981E+02 -0.83202310014E+01  0.83902500020E+02  0.00000000000E+00 0.  1.
         21    1    1    2  505  504  0.25453630837E+02  0.17151964848E+02 -0.17553109667E+02  0.35358010124E+02  0.00000000000E+00 0.  1.
          1    1    1    2  501    0  0.22022413986E+02 -0.12145214900E+03 -0.10657625911E+04  0.10728865326E+04  0.00000000000E+00 0.  1.
<scales pt_clust_3="31.54873" pt_clust_4="14000.00000" pt_clust_5="30.69328" pt_clust_6="93.56762"></scales>
<clustering>
<clus scale="   30.693">  1  5  2 -1</clus>
<clus scale="   31.549">  2  3  1 -1</clus>
<clus scale="   93.568">  2  6  1 -1</clus>
<clus scale="   30.693">  1  3  2 -1</clus>
</clustering>
</event>
<event>
 6    0  0.3082502E+002  0.6670873E+02  0.7546771E-02  0.1371657E+00
          1   -1    0    0  505    0 -0.00000000000E+00  0.00000000000E+00  0.72578188392E+03  0.72578188392E+03  0.00000000000E+00 0. -1.
         21   -1    0    0  503  502  0.00000000000E+00 -0.00000000000E+00 -0.11507285246E+04  0.11507285246E+04  0.00000000000E+00 0. -1.
         21    1    1    2  503  501 -0.40802338742E+02  0.30797580049E+02 -0.87331829413E+03  0.87481321701E+03  0.00000000000E+00 0. -1.
         21    1    1    2  504  502  0.28086951778E+02  0.33766686229E+02 -0.23453678463E+03  0.23861384977E+03  0.00000000000E+00 0. -1.
         21    1    1    2  505  504 -0.13543500656E+02  0.47004914149E+02  0.63817268294E+03  0.64004473407E+03  0.00000000000E+00 0. -1.
          1    1    1    2  501    0  0.26258887620E+02 -0.11156918043E+03  0.44735755111E+02  0.12303860770E+03  0.00000000000E+00 0. -1.
<scales pt_clust_3="14000.00000" pt_clust_4="43.92113" pt_clust_5="48.94243" pt_clust_6="66.70873"></scales>
<clustering>
<clus scale="   43.921">  2  4  1 -1</clus>
<clus scale="   48.942">  1  5  2 -1</clus>
<clus scale="   66.709">  1  6  2 -1</clus>
<clus scale="   43.921">  2  3  1 -1</clus>
</clustering>
</event>
<event>
 6    0  0.3082502E+002  0.6982698E+02  0.7546771E-02  0.1360682E+00
          2   -1    0    0  505    0 -0.00000000000E+00  0.00000000000E+00  0.12250021326E+04  0.12250021326E+04  0.00000000000E+00 0.  1.
         21   -1    0    0  501  502  0.00000000000E+00 -0.00000000000E+00 -0.84121071015E+03  0.84121071015E+03  0.00000000000E+00 0.  1.
         21    1    1    2  503  502 -0.54118530575E+02 -0.51462992894E+02 -0.46798709047E+03  0.47390840026E+03  0.00000000000E+00 0.  1.
         21    1    1    2  504  503  0.74255079748E+02  0.29701329501E+01 -0.35547474831E+03  0.36315965530E+03  0.00000000000E+00 0.  1.
         21    1    1    2  505  504 -0.11085357224E+02  0.85310365657E+02  0.16392071307E+03  0.18512359063E+03  0.00000000000E+00 0.  1.
          2    1    1    2  501    0 -0.90511919480E+01 -0.36817505713E+02  0.10433325482E+04  0.10440211966E+04  0.00000000000E+00 0.  1.
<scales pt_clust_3="14000.00000" pt_clust_4="69.82698" pt_clust_5="53.65963" pt_clust_6="37.91375"></scales>
<clustering>
<clus scale="   37.914">  1  6  2 -1</clus>
<clus scale="   53.660">  1  5  2 -1</clus>
<clus scale="   69.827">  1  4  2 -1</clus>
<clus scale="   69.827">  2  3  1 -1</clus>
</clustering>
</event>
<event>
 6    0  0.3082502E+002  0.1483462E+03  0.7546771E-02  0.1202520E+00
         21   -1    0    0  504  502  0.00000000000E+00  0.00000000000E+00  0.12214149588E+03  0.12214149588E+03  0.00000000000E+00 0. -1.
          2   -1    0    0  505    0 -0.00000000000E+00 -0.00000000000E+00 -0.13168775987E+04  0.13168775987E+04  0.00000000000E+00 0.  1.
         21    1    1    2  503  502 -0.16329248348E+03 -0.47939653535E+02  0.32257393960E+02  0.17321427483E+03  0.00000000000E+00 0. -1.
         21    1    1    2  504  501  0.15351401069E+02  0.26477427612E+02 -0.32876088467E+01  0.30781943728E+02  0.00000000000E+00 0. -1.
         21    1    1    2  505  503  0.33132924555E+02 -0.26277157114E+02 -0.33642634279E+03  0.33907368491E+03  0.00000000000E+00 0. -1.
          2    1    1    2  501    0  0.11480815785E+03  0.47739383037E+02 -0.88727954518E+03  0.89594919113E+03  0.00000000000E+00 0.  1.
<scales pt_clust_3="14000.00000" pt_clust_4="30.60588" pt_clust_5="42.23564" pt_clust_6="148.34615"></scales>
<clustering>
<clus scale="   30.606">  1  4  2 -1</clus>
<clus scale="   42.236">  2  5  1 -1</clus>
<clus scale="  148.346">  2  6  1 -1</clus>
<clus scale="   30.606">  1  3  2 -1</clus>
</clustering>
</event>
<event>
 6    0  0.3082502E+002  0.1346397E+03  0.7546771E-02  0.1220729E+00
         21   -1    0    0  503  502  0.00000000000E+00  0.00000000000E+00  0.36790517164E+02  0.36790517164E+02  0.00000000000E+00 0.  1.
          2   -1    0    0  504    0 -0.00000000000E+00 -0.00000000000E+00 -0.28175924449E+04  0.28175924449E+04  0.00000000000E+00 0. -1.
         21    1    1    2  503  501  0.37748562045E+02 -0.62389914474E+02 -0.87940723298E+02  0.11424108796E+03  0.00000000000E+00 0.  1.
         21    1    1    2  504  505 -0.25694010708E+01  0.30496489300E+02 -0.44924559604E+03  0.45028684552E+03  0.00000000000E+00 0.  1.
         21    1    1    2  505  502  0.10148099409E+03  0.46723696511E+02 -0.12849281848E+03  0.17027008069E+03  0.00000000000E+00 0.  1.
          2    1    1    2  501    0 -0.13666015506E+03 -0.14830271337E+02 -0.21151227899E+04  0.21195849479E+04  0.00000000000E+00 0. -1.
<scales pt_clust_3="71.75247" pt_clust_4="30.60454" pt_clust_5="14000.00000" pt_clust_6="134.63965"></scales>
<clustering>
<clus scale="   30.605">  2  4  1 -1</clus>
<clus scale="   71.752">  1  3  2 -1</clus>
<clus scale="  134.640">  2  6  1 -1</clus>
<clus scale="   71.752">  1  3  2 -1</clus>
</clustering>
</event>
<event>
 6    0  0.3082502E+002  0.1157438E+03  0.7546771E-02  0.1250288E+00
          2   -1    0    0  504    0 -0.00000000000E+00  0.00000000000E+00  0.23201861700E+04  0.23201861700E+04  0.00000000000E+00 0. -1.
         21   -1    0    0  501  502  0.00000000000E+00 -0.00000000000E+00 -0.97398185421E+02  0.97398185421E+02  0.00000000000E+00 0.  1.
         21    1    1    2  503  505 -0.92856405811E+00  0.87218445238E+02  0.44386695815E+02  0.97867758666E+02  0.00000000000E+00 0.  1.
         21    1    1    2  504  503 -0.35171417031E+02  0.22425475141E+02  0.39539547585E+03  0.39758962868E+03  0.00000000000E+00 0.  1.
         21    1    1    2  505  502  0.25820854729E+01  0.30837392120E+02 -0.63153230216E+02  0.70327394412E+02  0.00000000000E+00 0.  1.
          2    1    1    2  501    0  0.33517895616E+02 -0.14048131250E+03  0.18461590432E+04  0.18517995737E+04  0.00000000000E+00 0. -1.
<scales pt_clust_3="115.74376" pt_clust_4="42.23920" pt_clust_5="30.94531" pt_clust_6="14000.00000"></scales>
<clustering>
<clus scale="   30.945">  2  5  1 -1</clus>
<clus scale="   42.239">  1  4  2 -1</clus>
<clus scale="  115.744">  2  3  1 -1</clus>
<clus scale="   30.945">  2  3  1 -1</clus>
</clustering>
</event>
<event>
 6    0  0.3082502E+002  0.1335632E+03  0.7546771E-02  0.1222262E+00
         21   -1    0    0  505  502  0.00000000000E+00  0.00000000000E+00  0.36076260775E+03  0.36076260775E+03  0.00000000000E+00 0.  1.
         -1   -1    0    0    0  501 -0.00000000000E+00 -0.00000000000E+00 -0.13188816477E+04  0.13188816477E+04  0.00000000000E+00 0.  1.
         21    1    1    2  503  502 -0.91407777502E+02 -0.99211295423E+02  0.34130577537E+03  0.36699849486E+03  0.00000000000E+00 0.  1.
         21    1    1    2  504  501  0.55104321931E+00  0.46543096684E+02 -0.28723710806E+03  0.29098405410E+03  0.00000000000E+00 0.  1.
         21    1    1    2  505  504  0.56806924364E+02  0.15290498075E+02 -0.21593101465E+03  0.22380131607E+03  0.00000000000E+00 0.  1.
         -1    1    1    2    0  503  0.34049809918E+02  0.37377700664E+02 -0.79625669256E+03  0.79786039037E+03  0.00000000000E+00 0.  1.
<scales pt_clust_3="14000.00000" pt_clust_4="46.54636" pt_clust_5="62.26439" pt_clust_6="133.56317"></scales>
<clustering>
<clus scale="   46.546">  2  4  1 -1</clus>
<clus scale="   62.264">  2  5  1 -1</clus>
<clus scale="  133.563">  2  6  1 -1</clus>
<clus scale="  133.563">  1  3  2 -1</clus>
</clustering>
</event>
<event>
 6    0  0.3082502E+002  0.9467709E+02  0.7546771E-02  0.1291905E+00
          4   -1    0    0  505    0 -0.00000000000E+00  0.00000000000E+00  0.94961858375E+03  0.94961858375E+03  0.00000000000E+00 0. -1.
         21   -1    0    0  501  502  0.00000000000E+00 -0.00000000000E+00 -0.40239794434E+02  0.40239794434E+02  0.00000000000E+00 0. -1.
         21    1    1    2  503  504  0.61525679727E+02 -0.46565765829E+02  0.16873242082E+03  0.18553816225E+03  0.00000000000E+00 0. -1.
         21    1    1    2  504  502 -0.20075629556E+02 -0.43856739609E+02  0.11606733413E+02  0.49610087399E+02  0.00000000000E+00 0. -1.
         21    1    1    2  505  503 -0.16631245986E+02 -0.40392720917E+02  0.35501721675E+03  0.35769455466E+03  0.00000000000E+00 0. -1.
          4    1    1    2  501    0 -0.24818804184E+02  0.13081522635E+03  0.37402241833E+03  0.39701557387E+03  0.00000000000E+00 0. -1.
<scales pt_clust_3="94.67709" pt_clust_4="50.48535" pt_clust_5="43.68261" pt_clust_6="14000.00000"></scales>
<clustering>
<clus scale="   43.683">  1  5  2 -1</clus>
<clus scale="   50.485">  2  4  1 -1</clus>
<clus scale="   94.677">  2  3  1 -1</clus>
<clus scale="   50.485">  2  3  1 -1</clus>
</clustering>
</event>
<event>
 6    0  0.3082502E+002  0.8109239E+02  0.7546771E-02  0.1325980E+00
         -1   -1    0    0    0  501 -0.00000000000E+00  0.00000000000E+00  0.16434323074E+03  0.16434323074E+03  0.00000000000E+00 0.  1.
         21   -1    0    0  503  502  0.00000000000E+00 -0.00000000000E+00 -0.10313190750E+04  0.10313190750E+04  0.00000000000E+00 0. -1.
         21    1    1    2  503  504 -0.50964694718E+02 -0.50666036485E+02 -0.85646017224E+02  0.11180200189E+03  0.00000000000E+00 0. -1.
         21    1    1    2  504  505  0.11351698031E+03  0.89979751402E+01 -0.85795399016E+03  0.86547797060E+03  0.00000000000E+00 0. -1.
         21    1    1    2  505  501  0.53023855019E+02  0.52661821750E+00 -0.25424600917E+02  0.58806605577E+02  0.00000000000E+00 0. -1.
         -1    1    1    2    0  502 -0.11557614061E+03  0.41141443128E+02  0.10204876404E+03  0.15957572767E+03  0.00000000000E+00 0.  1.
<scales pt_clust_3="68.57894" pt_clust_4="14000.00000" pt_clust_5="53.02647" pt_clust_6="81.09239"></scales>
<clustering>
<clus scale="   53.026">  1  5  2 -1</clus>
<clus scale="   68.579">  2  3  1 -1</clus>
<clus scale="   81.092">  1  6  2 -1</clus>
<clus scale="   68.579">  2  3  1 -1</clus>
</clustering>
</event>
<event>
 6    0  0.3082502E+002  0.6959724E+02  0.7546771E-02  0.1361468E+00
         21   -1    0    0  504  502  0.00000000000E+00  0.00000000000E+00  0.15069068528E+02  0.15069068528E+02  0.00000000000E+00 0. -1.
          2   -1    0    0  505    0 -0.00000000000E+00 -0.00000000000E+00 -0.25650927202E+04  0.25650927202E+04  0.00000000000E+00 0. -1.
         21    1    1    2  503  502  0.12160239206E+02  0.99879975247E+02 -0.23786977204E+03  0.25827487165E+03  0.00000000000E+00 0. -1.
         21    1    1    2  504  501 -0.18982236391E+02 -0.36366252846E+02 -0.12466390751E+03  0.13123993096E+03  0.00000000000E+00 0. -1.
         21    1    1    2  505  503 -0.31704770403E+02  0.79363857540E+01 -0.40821694683E+03  0.40952320369E+03  0.00000000000E+00 0. -1.
          2    1    1    2  501    0  0.38526767587E+02 -0.71450108155E+02 -0.17792730252E+04  0.17811237824E+04  0.00000000000E+00 0. -1.
<scales pt_clust_3="14000.00000" pt_clust_4="41.51823" pt_clust_5="32.68300" pt_clust_6="69.59724"></scales>
<clustering>
<clus scale="   32.683">  2  5  1 -1</clus>
<clus scale="   41.518">  1  4  2 -1</clus>
<clus scale="   69.597">  2  6  1 -1</clus>
<clus scale="   41.518">  1  3  2 -1</clus>
</clustering>
</event>
<event>
 6    0  0.3082502E+002  0.2035600E+03  0.7546771E-02  0.1146770E+00
          2   -1    0    0  502    0 -0.00000000000E+00  0.00000000000E+00  0.37869595033E+03  0.37869595033E+03  0.00000000000E+00 0.  1.
         21   -1    0    0  505  502  0.00000000000E+00 -0.00000000000E+00 -0.46824855261E+03  0.46824855261E+03  0.00000000000E+00 0.  1.
         21    1    1    2  503  501  0.50342970659E+02 -0.14537192435E+02  0.38692173679E+02  0.65137001487E+02  0.00000000000E+00 0.  1.
         21    1    1    2  504  503 -0.18481131781E+03 -0.97693813290E+02 -0.83341993897E+02  0.22504486729E+03  0.00000000000E+00 0.  1.
         21    1    1    2  505  504  0.14915508104E+02  0.39937012218E+02 -0.28003148395E+03  0.28325795546E+03  0.00000000000E+00 0.  1.
          2    1    1    2  501    0  0.11955283904E+03  0.72293993507E+02  0.23512870189E+03  0.27350467871E+03  0.00000000000E+00 0.  1.
<scales pt_clust_3="52.54923" pt_clust_4="184.21940" pt_clust_5="42.63141" pt_clust_6="52.54923"></scales>
<clustering>
<clus scale="   42.631">  2  5  1 -1</clus>
<clus scale="   52.549">  3  6 -1 -1</clus>
<clus scale="  184.219">  2  4  1 -1</clus>
<clus scale="   42.631">  2  3  1 -1</clus>
</clustering>
</event>
<event>
 6    0  0.3082502E+002  0.1575470E+03  0.7546771E-02  0.1191494E+00
         -3   -1    0    0    0  501 -0.00000000000E+00  0.00000000000E+00  0.57298881068E+03  0.57298881068E+03  0.00000000000E+00 0.  1.
         21   -1    0    0  505  502  0.00000000000E+00 -0.00000000000E+00 -0.49984391829E+03  0.49984391829E+03  0.00000000000E+00 0.  1.
         21    1    1    2  503  504  0.18214076351E+03 -0.31427304303E+02  0.91003411241E+02  0.20602076120E+03  0.00000000000E+00 0. -1.
         21    1    1    2  504  502 -0.47452613844E+02 -0.72908134903E+02 -0.40424638910E+03  0.41350028996E+03  0.00000000000E+00 0.  1.
         21    1    1    2  505  501 -0.52595260940E+02  0.23058772743E+01  0.84383264578E+01  0.53317763426E+02  0.00000000000E+00 0. -1.
         -3    1    1    2    0  503 -0.82092888727E+02  0.10202956193E+03  0.37794954379E+03  0.39999391438E+03  0.00000000000E+00 0.  1.
<scales pt_clust_3="14000.00000" pt_clust_4="87.21973" pt_clust_5="52.64578" pt_clust_6="157.54699"></scales>
<clustering>
<clus scale="   52.646">  1  5  2 -1</clus>
<clus scale="   87.220">  2  4  1 -1</clus>
<clus scale="  157.547">  1  6  2 -1</clus>
<clus scale="   87.220">  2  3  1 -1</clus>
</clustering>
</event>
<event>
 6    0  0.3082502E+002  0.1045208E+03  0.7546771E-02  0.1271067E+00
         21   -1    0    0  503  502  0.00000000000E+00  0.00000000000E+00  0.11034948336E+03  0.11034948336E+03  0.00000000000E+00 0. -1.
          2   -1    0    0  504    0 -0.00000000000E+00 -0.00000000000E+00 -0.24097924246E+04  0.24097924246E+04  0.00000000000E+00 0. -1.
         21    1    1    2  503  505 -0.92845240395E+02  0.46135477639E+02 -0.67429955981E+02  0.12367505781E+03  0.00000000000E+00 0. -1.
         21    1    1    2  504  502  0.39490549044E+02 -0.10649368543E+03  0.41723105949E+02  0.12100093417E+03  0.00000000000E+00 0. -1.
         21    1    1    2  505  501  0.37112656909E+02  0.27582578314E+02 -0.84723006232E+03  0.84849097015E+03  0.00000000000E+00 0. -1.
          2    1    1    2  501    0  0.16242034442E+02  0.32775629476E+02 -0.14265060289E+04  0.14269749458E+04  0.00000000000E+00 0. -1.
<scales pt_clust_3="14000.00000" pt_clust_4="104.52077" pt_clust_5="33.03444" pt_clust_6="88.70920"></scales>
<clustering>
<clus scale="   33.034">  5  6 -1 -1</clus>
<clus scale="   88.709">  2  5  1 -1</clus>
<clus scale="  104.521">  1  4  2 -1</clus>
<clus scale="  104.521">  1  3  2 -1</clus>
</clustering>
</event>
<event>
 6    0  0.3082502E+002  0.6977799E+02  0.7546771E-02  0.1360850E+00
          1   -1    0    0  503    0 -0.00000000000E+00  0.00000000000E+00  0.74507109248E+03  0.74507109248E+03  0.00000000000E+00 0. -1.
         21   -1    0    0  504  502  0.00000000000E+00 -0.00000000000E+00 -0.12147527431E+03  0.12147527431E+03  0.00000000000E+00 0.  1.
         21    1    1    2  503  505 -0.45747002899E+02 -0.21391441651E+02  0.29881184722E+03  0.30304933936E+03  0.00000000000E+00 0. -1.
         21    1    1    2  504  501 -0.38480885607E+02 -0.86534371035E+02  0.42976710800E+02  0.10399987307E+03  0.00000000000E+00 0.  1.
         21    1    1    2  505  502  0.40239278842E+02  0.25404985758E+02 -0.76001340845E+02  0.89670600942E+02  0.00000000000E+00 0.  1.
          1    1    1    2  501    0  0.43988609664E+02  0.82520826929E+02  0.35780860100E+03  0.36982655341E+03  0.00000000000E+00 0. -1.
<scales pt_clust_3="47.91360" pt_clust_4="69.77799" pt_clust_5="47.58795" pt_clust_6="14000.00000"></scales>
<clustering>
<clus scale="   47.588">  2  5  1 -1</clus>
<clus scale="   47.914">  1  3  2 -1</clus>
<clus scale="   69.778">  2  4  1 -1</clus>
<clus scale="   47.588">  2  3  1 -1</clus>
</clustering>
</event>
<event>
 6    0  0.3082502E+002  0.6013315E+02  0.7546771E-02  0.1397274E+00
         -1   -1    0    0    0  501 -0.00000000000E+00  0.00000000000E+00  0.60481318802E+03  0.60481318802E+03  0.00000000000E+00 0.  1.
         21   -1    0    0  503  502  0.00000000000E+00 -0.00000000000E+00 -0.14947859221E+03  0.14947859221E+03  0.00000000000E+00 0.  1.
         21    1    1    2  503  504 -0.27477868649E+02 -0.44355677348E+02 -0.38995175691E+02  0.65138952292E+02  0.00000000000E+00 0.  1.
         21    1    1    2  504  501  0.37641344856E+02  0.28408942648E+02  0.75583059216E+02  0.89088370203E+02  0.00000000000E+00 0. -1.
         21    1    1    2  505  502  0.73868371501E+02  0.28014645831E+02 -0.69056420033E+02  0.10492924205E+03  0.00000000000E+00 0.  1.
         -1    1    1    2    0  505 -0.84031847708E+02 -0.12067911131E+02  0.48780313232E+03  0.49513521568E+03  0.00000000000E+00 0.  1.
<scales pt_clust_3="14000.00000" pt_clust_4="47.15866" pt_clust_5="60.13315" pt_clust_6="50.78491"></scales>
<clustering>
<clus scale="   47.159">  1  4  2 -1</clus>
<clus scale="   50.785">  1  6  2 -1</clus>
<clus scale="   60.133">  1  5  2 -1</clus>
<clus scale="   60.133">  2  3  1 -1</clus>
</clustering>
</event>
<event>
 6    0  0.3082502E+002  0.1279867E+03  0.7546771E-02  0.1230474E+00
         21   -1    0    0  503  502  0.00000000000E+00  0.00000000000E+00  0.13460279042E+04  0.13460279042E+04  0.00000000000E+00 0. -1.
          1   -1    0    0  504    0 -0.00000000000E+00 -0.00000000000E+00 -0.93355479112E+03  0.93355479112E+03  0.00000000000E+00 0.  1.
         21    1    1    2  503  501  0.38543360403E+02  0.39727471291E+02  0.70610993800E+03  0.70827615176E+03  0.00000000000E+00 0. -1.
         21    1    1    2  504  505 -0.28918049854E+02  0.10204152195E+02 -0.41076606052E+02  0.51260763691E+02  0.00000000000E+00 0.  1.
         21    1    1    2  505  502  0.32782943275E+02 -0.14610729244E+03  0.62170557954E+03  0.63948408104E+03  0.00000000000E+00 0. -1.
          1    1    1    2  501    0 -0.42408253824E+02  0.96175668956E+02 -0.87426579838E+03  0.88056169887E+03  0.00000000000E+00 0.  1.
<scales pt_clust_3="55.33654" pt_clust_4="30.66559" pt_clust_5="14000.00000" pt_clust_6="127.98672"></scales>
<clustering>
<clus scale="   30.666">  2  4  1 -1</clus>
<clus scale="   55.337">  1  3  2 -1</clus>
<clus scale="  127.987">  2  6  1 -1</clus>
<clus scale="   55.337">  1  3  2 -1</clus>
</clustering>
</event>
<event>
 6    0  0.3082502E+002  0.1204202E+03  0.7546771E-02  0.1242405E+00
         21   -1    0    0  503  502  0.00000000000E+00  0.00000000000E+00  0.27457210100E+03  0.27457210100E+03  0.00000000000E+00 0. -1.
         -2   -1    0    0    0  501 -0.00000000000E+00 -0.00000000000E+00 -0.74966014965E+03  0.74966014965E+03  0.00000000000E+00 0.  1.
         21    1    1    2  503  505 -0.69760205998E+01 -0.12109951440E+03  0.22512113575E+03  0.25572110397E+03  0.00000000000E+00 0. -1.
         21    1    1    2  504  502  0.11706550390E+02  0.10783489812E+03 -0.19603581308E+03  0.22404340781E+03  0.00000000000E+00 0. -1.
         21    1    1    2  505  501  0.12069612490E+02  0.55933782222E+02 -0.23902990143E+02  0.62013034735E+02  0.00000000000E+00 0. -1.
         -2    1    1    2    0  504 -0.16800142280E+02 -0.42669165946E+02 -0.48027038118E+03  0.48245470414E+03  0.00000000000E+00 0.  1.
<scales pt_clust_3="14000.00000" pt_clust_4="120.42018" pt_clust_5="49.98973" pt_clust_6="45.85741"></scales>
<clustering>
<clus scale="   45.857">  2  6  1 -1</clus>
<clus scale="   49.990">  2  5  1 -1</clus>
<clus scale="  120.420">  2  4  1 -1</clus>
<clus scale="  120.420">  1  3  2 -1</clus>
</clustering>
</event>
<event>
 6    0  0.3082502E+002  0.7827258E+02  0.7546771E-02  0.1334026E+00
         21   -1    0    0  503  502  0.00000000000E+00  0.00000000000E+00  0.29239750228E+03  0.29239750228E+03  0.00000000000E+00 0.  1.
          1   -1    0    0  504    0 -0.00000000000E+00 -0.00000000000E+00 -0.41895943329E+03  0.41895943329E+03  0.00000000000E+00 0. -1.
         21    1    1    2  503  501  0.55329102295E+01 -0.53610009809E+02  0.22583067938E+03  0.23217265557E+03  0.00000000000E+00 0.  1.
         21    1    1    2  504  505  0.65727916923E+01  0.10655210848E+03 -0.13943228572E+03  0.17560727694E+03  0.00000000000E+00 0. -1.
         21    1    1    2  505  502  0.29804441065E+02  0.70520878774E+01  0.34141443318E+02  0.45865834806E+02  0.00000000000E+00 0.  1.
          1    1    1    2  501    0 -0.41910142986E+02 -0.59994186546E+02 -0.24710176798E+03  0.25771116826E+03  0.00000000000E+00 0. -1.
<scales pt_clust_3="57.35905" pt_clust_4="78.27258" pt_clust_5="30.62738" pt_clust_6="14000.00000"></scales>
<clustering>
<clus scale="   30.627">  1  5  2 -1</clus>
<clus scale="   57.359">  1  3  2 -1</clus>
<clus scale="   78.273">  1  4  2 -1</clus>
<clus scale="   30.627">  1  3  2 -1</clus>
</clustering>
</event>
<event>
 6    0  0.3082502E+002  0.1514608E+03  0.7546771E-02  0.1198689E+00
         -1   -1    0    0    0  501 -0.00000000000E+00  0.00000000000E+00  0.34357581389E+03  0.34357581389E+03  0.00000000000E+00 0.  1.
         21   -1    0    0  501  502  0.00000000000E+00 -0.00000000000E+00 -0.42359393103E+03  0.42359393103E+03  0.00000000000E+00 0.  1.
         21    1    1    2  503  505  0.33785449708E+02  0.12194002008E+03  0.94515457801E+01  0.12688639339E+03  0.00000000000E+00 0.  1.
         21    1    1    2  504  502  0.30146747156E+02 -0.15863780038E+01 -0.27016292688E+03  0.27184434889E+03  0.00000000000E+00 0.  1.
         21    1    1    2  505  504 -0.76510011639E+01  0.31418263075E+02 -0.65933133073E+02  0.73435843498E+02  0.00000000000E+00 0.  1.
         -1    1    1    2    0  503 -0.56281195700E+02 -0.15177190516E+03  0.24662639704E+03  0.29500315913E+03  0.00000000000E+00 0.  1.
<scales pt_clust_3="14000.00000" pt_clust_4="30.18846" pt_clust_5="31.29727" pt_clust_6="151.46085"></scales>
<clustering>
<clus scale="   30.188">  2  4  1 -1</clus>
<clus scale="   31.297">  2  5  1 -1</clus>
<clus scale="  151.461">  1  6  2 -1</clus>
<clus scale="   30.188">  2  3  1 -1</clus>
</clustering>
</event>
<event>
 6    0  0.3082502E+002  0.1184335E+03  0.7546771E-02  0.1245704E+00
         21   -1    0    0  505  502  0.00000000000E+00  0.00000000000E+00  0.75080281090E+02  0.75080281090E+02  0.00000000000E+00 0.  1.
          2   -1    0    0  504    0 -0.00000000000E+00 -0.00000000000E+00 -0.20392051765E+04  0.20392051765E+04  0.00000000000E+00 0.  1.
         21    1    1    2  503  502 -0.38478499045E+01 -0.11384276737E+03 -0.92881679256E+00  0.11391156365E+03  0.00000000000E+00 0.  1.
         21    1    1    2  504  503 -0.60198665448E+01 -0.54607137381E+02 -0.13985693026E+04  0.13996479102E+04  0.00000000000E+00 0.  1.
         21    1    1    2  505  501 -0.30948912609E+02  0.94776190560E+01 -0.42574558628E+02  0.53481337839E+02  0.00000000000E+00 0.  1.
          2    1    1    2  501    0  0.40816629058E+02  0.15897228570E+03 -0.52205221733E+03  0.54724464589E+03  0.00000000000E+00 0.  1.
<scales pt_clust_3="14000.00000" pt_clust_4="54.89180" pt_clust_5="32.36758" pt_clust_6="118.43353"></scales>
<clustering>
<clus scale="   32.368">  1  5  2 -1</clus>
<clus scale="   54.892">  2  4  1 -1</clus>
<clus scale="  118.434">  2  6  1 -1</clus>
<clus scale="   32.368">  1  3  2 -1</clus>
</clustering>
</event>
<event>
 6    0  0.3082502E+002  0.1339735E+03  0.7546771E-02  0.1221676E+00
          2   -1    0    0  504    0 -0.00000000000E+00  0.00000000000E+00  0.15136410807E+04  0.15136410807E+04  0.00000000000E+00 0.  1.
         21   -1    0    0  501  502  0.00000000000E+00 -0.00000000000E+00 -0.13747866179E+03  0.13747866179E+03  0.00000000000E+00 0.  1.
         21    1    1    2  503  502  0.34907821192E+02  0.13589743238E+02 -0.63243406735E+02  0.73504867846E+02  0.00000000000E+00 0.  1.
         21    1    1    2  504  505  0.16968331399E+02  0.42375887125E+02  0.16374518442E+03  0.16998860403E+03  0.00000000000E+00 0.  1.
         21    1    1    2  505  503 -0.48537654424E+02 -0.14840772823E+03  0.30574450147E+02  0.15910862546E+03  0.00000000000E+00 0.  1.
          2    1    1    2  501    0 -0.33384981670E+01  0.92442097863E+02  0.12450861911E+04  0.12485176452E+04  0.00000000000E+00 0.  1.
<scales pt_clust_3="37.45981" pt_clust_4="46.81931" pt_clust_5="14000.00000" pt_clust_6="133.97345"></scales>
<clustering>
<clus scale="   37.460">  2  3  1 -1</clus>
<clus scale="   46.819">  1  4  2 -1</clus>
<clus scale="  133.973">  1  6  2 -1</clus>
<clus scale="   37.460">  2  3  1 -1</clus>
</clustering>
</event>
<event>
 6    0  0.3082502E+002  0.2037712E+03  0.7546771E-02  0.1146596E+00
         21   -1    0    0  505  502  0.00000000000E+00  0.00000000000E+00  0.32612588340E+03  0.32612588340E+03  0.00000000000E+00 0. -1.
          1   -1    0    0  502    0 -0.00000000000E+00 -0.00000000000E+00 -0.77994793861E+03  0.77994793861E+03  0.00000000000E+00 0.  1.
         21    1    1    2  503  501  0.52230956747E+02 -0.73574659403E+01 -0.16871557280E+03  0.17676863312E+03  0.00000000000E+00 0.  1.
         21    1    1    2  504  503 -0.15050084551E+03 -0.60116118211E+02  0.26862403001E+03  0.31372491401E+03  0.00000000000E+00 0. -1.
         21    1    1    2  505  504 -0.32228068145E+02 -0.10789977189E+02  0.68881661534E+01  0.34677353086E+02  0.00000000000E+00 0. -1.
          1    1    1    2  501    0  0.13049795691E+03  0.78263561340E+02 -0.56061867857E+03  0.58090292180E+03  0.00000000000E+00 0.  1.
<scales pt_clust_3="35.90401" pt_clust_4="194.42862" pt_clust_5="33.98635" pt_clust_6="35.90401"></scales>
<clustering>
<clus scale="   33.986">  1  5  2 -1</clus>
<clus scale="   35.904">  3  6 -1 -1</clus>
<clus scale="  194.429">  1  4  2 -1</clus>
<clus scale="   33.986">  1  3  2 -1</clus>
</clustering>
</event>
<event>
 6    0  0.3082502E+002  0.1884996E+03  0.7546771E-02  0.1159822E+00
          2   -1    0    0  503    0 -0.00000000000E+00  0.00000000000E+00  0.75956407046E+03  0.75956407046E+03  0.00000000000E+00 0. -1.
         21   -1    0    0  504  502  0.00000000000E+00 -0.00000000000E+00 -0.14669898724E+03  0.14669898724E+03  0.00000000000E+00 0.  1.
         21    1    1    2  503  505 -0.16792117273E+02 -0.35272740488E+02  0.12019145545E+03  0.12638088220E+03  0.00000000000E+00 0.  1.
         21    1    1    2  504  501 -0.21067490272E+03  0.11889634717E+02  0.13457667174E+03  0.25027216910E+03  0.00000000000E+00 0.  1.
         21    1    1    2  505  502  0.37095241646E+02 -0.13521629570E+02 -0.58220564024E+02  0.70345756761E+02  0.00000000000E+00 0.  1.
          2    1    1    2  501    0  0.19037177835E+03  0.36904735341E+02  0.41631752006E+03  0.45926424963E+03  0.00000000000E+00 0. -1.
<scales pt_clust_3="39.06586" pt_clust_4="14000.00000" pt_clust_5="39.44931" pt_clust_6="188.49957"></scales>
<clustering>
<clus scale="   39.066">  1  3  2 -1</clus>
<clus scale="   39.449">  2  5  1 -1</clus>
<clus scale="  188.500">  1  6  2 -1</clus>
<clus scale="   39.449">  2  3  1 -1</clus>
</clustering>
</event>
<event>
 6    0  0.3082502E+002  0.7734449E+02  0.7546771E-02  0.1336761E+00
         21   -1    0    0  503  502  0.00000000000E+00  0.00000000000E+00  0.48855140014E+03  0.48855140014E+03  0.00000000000E+00 0. -1.
          2   -1    0    0  505    0 -0.00000000000E+00 -0.00000000000E+00 -0.20518596994E+04  0.20518596994E+04  0.00000000000E+00 0. -1.
         21    1    1    2  503  501  0.37135985934E+02  0.38281002501E+02 -0.55777867899E+03  0.56032273856E+03  0.00000000000E+00 0. -1.
         21    1    1    2  504  502  0.92186496643E+01  0.45348483327E+02  0.43116335329E+03  0.43363960343E+03  0.00000000000E+00 0. -1.
         21    1    1    2  505  504 -0.10494782802E+02 -0.12373482445E+03 -0.16538449673E+02  0.12527556652E+03  0.00000000000E+00 0. -1.
          2    1    1    2  501    0 -0.35859852796E+02  0.40105338625E+02 -0.14201545239E+04  0.14211731910E+04  0.00000000000E+00 0. -1.
<scales pt_clust_3="77.34449" pt_clust_4="46.27600" pt_clust_5="14000.00000" pt_clust_6="54.05128"></scales>
<clustering>
<clus scale="   46.276">  1  4  2 -1</clus>
<clus scale="   54.051">  2  6  1 -1</clus>
<clus scale="   77.344">  2  3  1 -1</clus>
<clus scale="   46.276">  1  3  2 -1</clus>
</clustering>
</event>
<event>
 6    0  0.3082502E+002  0.1357439E+03  0.7546771E-02  0.1219173E+00
          3   -1    0    0  503    0 -0.00000000000E+00  0.00000000000E+00  0.66622497416E+02  0.66622497416E+02  0.00000000000E+00 0.  1.
         21   -1    0    0  504  502  0.00000000000E+00 -0.00000000000E+00 -0.17888679427E+04  0.17888679427E+04  0.00000000000E+00 0.  1.
         21    1    1    2  503  505  0.33696247778E+02  0.12981068824E+03 -0.78074364778E+02  0.15518330558E+03  0.00000000000E+00 0.  1.
         21    1    1    2  504  501 -0.90686431513E+02  0.59010305822E+01 -0.11597712324E+04  0.11633263354E+04  0.00000000000E+00 0.  1.
         21    1    1    2  505  502  0.43516083720E+02  0.77877783155E+01 -0.29848290575E+03  0.30173886734E+03  0.00000000000E+00 0.  1.
          3    1    1    2  501    0  0.13474100015E+02 -0.14349949713E+03 -0.18591694237E+03  0.23524193187E+03  0.00000000000E+00 0.  1.
<scales pt_clust_3="14000.00000" pt_clust_4="57.98504" pt_clust_5="44.20745" pt_clust_6="135.74387"></scales>
<clustering>
<clus scale="   44.207">  2  5  1 -1</clus>
<clus scale="   57.985">  2  4  1 -1</clus>
<clus scale="  135.744">  2  6  1 -1</clus>
<clus scale="   44.207">  2  3  1 -1</clus>
</clustering>
</event>
<event>
 6    0  0.3082502E+002  0.8089317E+02  0.7546771E-02  0.1326536E+00
         21   -1    0    0  504  502  0.00000000000E+00  0.00000000000E+00  0.18866491624E+02  0.18866491624E+02  0.00000000000E+00 0. -1.
         -2   -1    0    0    0  501 -0.00000000000E+00 -0.00000000000E+00 -0.19433803526E+04  0.19433803526E+04  0.00000000000E+00 0. -1.
         21    1    1    2  503  502  0.10624035059E+03  0.91339050950E+01 -0.29279599252E+03  0.31160862239E+03  0.00000000000E+00 0. -1.
         21    1    1    2  504  505 -0.42007267929E+02 -0.15026266430E+02 -0.72655505877E+02  0.85259731268E+02  0.00000000000E+00 0. -1.
         21    1    1    2  505  501 -0.97441197755E+02  0.10284057962E+02 -0.86956133789E+03  0.87506426576E+03  0.00000000000E+00 0. -1.
         -2    1    1    2    0  503  0.33208115099E+02 -0.43916966270E+01 -0.68950102466E+03  0.69031422477E+03  0.00000000000E+00 0. -1.
<scales pt_clust_3="14000.00000" pt_clust_4="42.74836" pt_clust_5="80.89317" pt_clust_6="33.49725"></scales>
<clustering>
<clus scale="   33.497">  2  6  1 -1</clus>
<clus scale="   42.748">  1  4  2 -1</clus>
<clus scale="   80.893">  2  5  1 -1</clus>
<clus scale="   42.748">  1  3  2 -1</clus>
</clustering>
</event>
<event>
 6    0  0.3082502E+002  0.9653468E+02  0.7546771E-02  0.1287757E+00
         -2   -1    0    0    0  501 -0.00000000000E+00  0.00000000000E+00  0.11430001340E+04  0.11430001340E+04  0.00000000000E+00 0.  1.
         21   -1    0    0  503  502  0.00000000000E+00 -0.00000000000E+00 -0.29136956088E+02  0.29136956088E+02  0.00000000000E+00 0. -1.
         21    1    1    2  503  504 -0.10613949031E+03  0.70224366139E+02  0.21533622636E+03  0.25013345115E+03  0.00000000000E+00 0. -1.
         21    1    1    2  504  501 -0.90202760732E+01  0.32149279319E+02  0.20957096758E+03  0.21221435388E+03  0.00000000000E+00 0.  1.
         21    1    1    2  505  502  0.27296367704E+02 -0.51635067231E+02  0.14269119470E+03  0.15418186956E+03  0.00000000000E+00 0. -1.
         -2    1    1    2    0  505  0.87863398677E+02 -0.50738578227E+02  0.54626478931E+03  0.55560741552E+03  0.00000000000E+00 0.  1.
<scales pt_clust_3="96.53468" pt_clust_4="33.39074" pt_clust_5="53.22041" pt_clust_6="14000.00000"></scales>
<clustering>
<clus scale="   33.391">  1  4  2 -1</clus>
<clus scale="   53.220">  2  5  1 -1</clus>
<clus scale="   96.535">  2  3  1 -1</clus>
<clus scale="   53.220">  2  3  1 -1</clus>
</clustering>
</event>
<event>
 6    0  0.3082502E+002  0.1068924E+03  0.7546771E-02  0.1266435E+00
         21   -1    0    0  504  502  0.00000000000E+00  0.00000000000E+00  0.27468669772E+03  0.27468669772E+03  0.00000000000E+00 0.  1.
          2   -1    0    0  505    0 -0.00000000000E+00 -0.00000000000E+00 -0.12187447476E+04  0.12187447476E+04  0.00000000000E+00 0. -1.
         21    1    1    2  503  501  0.73321508798E+02  0.19740274030E+02 -0.85315619884E+02  0.11421242081E+03  0.00000000000E+00 0.  1.
         21    1    1    2  504  503 -0.98726212507E+02 -0.50199768996E+02  0.24643471363E+03  0.27017947725E+03  0.00000000000E+00 0.  1.
         21    1    1    2  505  502  0.24902800992E+02 -0.21819056890E+02 -0.65509100973E+03  0.65592716956E+03  0.00000000000E+00 0. -1.
          2    1    1    2  501    0  0.50190271654E+00  0.52278551856E+02 -0.45008613390E+03  0.45311237770E+03  0.00000000000E+00 0. -1.
<scales pt_clust_3="14000.00000" pt_clust_4="106.89237" pt_clust_5="33.10922" pt_clust_6="40.35976"></scales>
<clustering>
<clus scale="   33.109">  2  5  1 -1</clus>
<clus scale="   40.360">  2  6  1 -1</clus>
<clus scale="  106.892">  1  4  2 -1</clus>
<clus scale="  106.892">  1  3  2 -1</clus>
</clustering>
</event>
<event>
 6    0  0.3082502E+002  0.1543524E+03  0.7546771E-02  0.1195224E+00
         -3   -1    0    0    0  501 -0.00000000000E+00  0.00000000000E+00  0.93897684707E+03  0.93897684707E+03  0.00000000000E+00 0.  1.
         21   -1    0    0  505  502  0.00000000000E+00 -0.00000000000E+00 -0.11992409887E+03  0.11992409887E+03  0.00000000000E+00 0.  1.
         21    1    1    2  503  501 -0.91035967132E+02 -0.91646264774E+02  0.14370302522E+03  0.19322821900E+03  0.00000000000E+00 0.  1.
         21    1    1    2  504  502  0.14801396594E+02 -0.72425110947E+02 -0.48873987846E+02  0.88617970665E+02  0.00000000000E+00 0.  1.
         21    1    1    2  505  503 -0.30610691267E+02  0.39607668298E+02  0.19877518556E+02  0.53859980986E+02  0.00000000000E+00 0.  1.
         -3    1    1    2    0  504  0.10684526180E+03  0.12446370742E+03  0.70434619227E+03  0.72319477529E+03  0.00000000000E+00 0.  1.
<scales pt_clust_3="154.35244" pt_clust_4="46.31725" pt_clust_5="50.05778" pt_clust_6="14000.00000"></scales>
<clustering>
<clus scale="   50.058">  2  5  1 -1</clus>
<clus scale="   46.317">  2  4  1 -1</clus>
<clus scale="  154.352">  2  3  1 -1</clus>
<clus scale="   50.058">  2  3  1 -1</clus>
</clustering>
</event>
<event>
 6    0  0.3082502E+002  0.1790123E+03  0.7546771E-02  0.1168762E+00
          2   -1    0    0  503    0 -0.00000000000E+00  0.00000000000E+00  0.13266882196E+04  0.13266882196E+04  0.00000000000E+00 0. -1.
         21   -1    0    0  505  502  0.00000000000E+00 -0.00000000000E+00 -0.38463679471E+03  0.38463679471E+03  0.00000000000E+00 0. -1.
         21    1    1    2  503  502  0.56037051778E+01 -0.36165887357E+02  0.19993399181E+03  0.20325593227E+03  0.00000000000E+00 0.  1.
         21    1    1    2  504  501  0.12376492433E+03  0.15929523373E+02 -0.26540391122E+03  0.29327588087E+03  0.00000000000E+00 0. -1.
         21    1    1    2  505  504  0.33303739032E+02  0.75044906464E+02 -0.79509713021E+02  0.11429204471E+03  0.00000000000E+00 0. -1.
          2    1    1    2  501    0 -0.16267236854E+03 -0.54808542481E+02  0.10870310574E+04  0.11005011565E+04  0.00000000000E+00 0. -1.
<scales pt_clust_3="36.59744" pt_clust_4="179.01233" pt_clust_5="81.62758" pt_clust_6="14000.00000"></scales>
<clustering>
<clus scale="   36.597">  1  3  2 -1</clus>
<clus scale="   81.628">  2  5  1 -1</clus>
<clus scale="  179.012">  2  4  1 -1</clus>
<clus scale="   81.628">  2  3  1 -1</clus>
</clustering>
</event>
<event>
 6    0  0.3082502E+002  0.1022501E+03  0.7546771E-02  0.1275634E+00
         21   -1    0    0  503  502  0.00000000000E+00  0.00000000000E+00  0.20228736087E+04  0.20228736087E+04  0.00000000000E+00 0. -1.
          2   -1    0    0  504    0 -0.00000000000E+00 -0.00000000000E+00 -0.89859706612E+03  0.89859706612E+03  0.00000000000E+00 0. -1.
         21    1    1    2  503  501  0.77595801513E+01 -0.31946927179E+02  0.65868926034E+03  0.65950918032E+03  0.00000000000E+00 0. -1.
         21    1    1    2  504  505  0.74621470798E+02  0.39658481159E+02 -0.14623234604E+03  0.16889362942E+03  0.00000000000E+00 0.  1.
         21    1    1    2  505  502 -0.22409647337E+01  0.66727838807E+02  0.13475744000E+04  0.13492273307E+04  0.00000000000E+00 0. -1.
          2    1    1    2  501    0 -0.80140086216E+02 -0.74439392787E+02 -0.73575477167E+03  0.74384053442E+03  0.00000000000E+00 0. -1.
<scales pt_clust_3="32.87579" pt_clust_4="102.25010" pt_clust_5="35.55826" pt_clust_6="14000.00000"></scales>
<clustering>
<clus scale="   32.876">  1  3  2 -1</clus>
<clus scale="   35.558">  1  5  2 -1</clus>
<clus scale="  102.250">  1  4  2 -1</clus>
<clus scale="   32.876">  1  3  2 -1</clus>
</clustering>
</event>
<event>
 6    0  0.3082502E+002  0.9332609E+02  0.7546771E-02  0.1294991E+00
         21   -1    0    0  505  502  0.00000000000E+00  0.00000000000E+00  0.32825794350E+02  0.32825794350E+02  0.00000000000E+00 0. -1.
          2   -1    0    0  503    0 -0.00000000000E+00 -0.00000000000E+00 -0.17390802604E+04  0.17390802604E+04  0.00000000000E+00 0. -1.
         21    1    1    2  503  504  0.18950905635E+02 -0.23930003385E+02 -0.58965837445E+03  0.59044794897E+03  0.00000000000E+00 0. -1.
         21    1    1    2  504  502  0.99081737275E+01 -0.40850048221E+02 -0.15183366033E+03  0.15754478333E+03  0.00000000000E+00 0. -1.
         21    1    1    2  505  501  0.69186113396E+02 -0.54357573905E+02 -0.60971773687E+02  0.10704681833E+03  0.00000000000E+00 0. -1.
          2    1    1    2  501    0 -0.98045192759E+02  0.11913762551E+03 -0.90379065756E+03  0.91686650409E+03  0.00000000000E+00 0. -1.
<scales pt_clust_3="30.52510" pt_clust_4="45.79901" pt_clust_5="93.32609" pt_clust_6="14000.00000"></scales>
<clustering>
<clus scale="   30.525">  2  3  1 -1</clus>
<clus scale="   45.799">  2  4  1 -1</clus>
<clus scale="   93.326">  1  5  2 -1</clus>
<clus scale="   93.326">  1  3  2 -1</clus>
</clustering>
</event>
<event>
 6    0  0.3082502E+002  0.8460406E+02  0.7546771E-02  0.1316471E+00
         21   -1    0    0  504  502  0.00000000000E+00  0.00000000000E+00  0.91920965068E+03  0.91920965068E+03  0.00000000000E+00 0. -1.
         -3   -1    0    0    0  501 -0.00000000000E+00 -0.00000000000E+00 -0.18008057358E+04  0.18008057358E+04  0.00000000000E+00 0.  1.
         21    1    1    2  503  501  0.17676790553E+02  0.24606360453E+02 -0.76969144586E+03  0.77028752017E+03  0.00000000000E+00 0.  1.
         21    1    1    2  504  503  0.97662443079E+02 -0.15886041406E+02 -0.21333349820E+03  0.23516271081E+03  0.00000000000E+00 0.  1.
         21    1    1    2  505  502 -0.64163152138E+02 -0.55426210983E+02  0.90452281527E+03  0.90848802870E+03  0.00000000000E+00 0. -1.
         -3    1    1    2    0  505 -0.51176081494E+02  0.46705891936E+02 -0.80309395636E+03  0.80607712683E+03  0.00000000000E+00 0.  1.
<scales pt_clust_3="30.29756" pt_clust_4="84.60406" pt_clust_5="14000.00000" pt_clust_6="75.77307"></scales>
<clustering>
<clus scale="   30.298">  2  3  1 -1</clus>
<clus scale="   75.773">  2  6  1 -1</clus>
<clus scale="   84.604">  2  4  1 -1</clus>
<clus scale="   84.604">  1  3  2 -1</clus>
</clustering>
</event>
<event>
 6    0  0.3082502E+002  0.6310926E+02  0.7546771E-02  0.1385228E+00
         21   -1    0    0  504  502  0.00000000000E+00  0.00000000000E+00  0.51877837784E+03  0.51877837784E+03  0.00000000000E+00 0. -1.
          1   -1    0    0  505    0 -0.00000000000E+00 -0.00000000000E+00 -0.39599579230E+03  0.39599579230E+03  0.00000000000E+00 0. -1.
         21    1    1    2  503  502 -0.54834396955E+02  0.65166422922E+01  0.20768302595E+03  0.21489885291E+03  0.00000000000E+00 0. -1.
         21    1    1    2  504  501  0.58607964926E+00 -0.38157809571E+02  0.28176259482E+03  0.28433522778E+03  0.00000000000E+00 0. -1.
         21    1    1    2  505  503 -0.38122196607E+02 -0.46075555861E+02 -0.20646895816E+03  0.21495508695E+03  0.00000000000E+00 0. -1.
          1    1    1    2  501    0  0.92370513912E+02  0.77716723140E+02 -0.16019407707E+03  0.20058500249E+03  0.00000000000E+00 0. -1.
<scales pt_clust_3="14000.00000" pt_clust_4="38.16231" pt_clust_5="60.32593" pt_clust_6="63.10926"></scales>
<clustering>
<clus scale="   38.162">  1  4  2 -1</clus>
<clus scale="   60.326">  2  5  1 -1</clus>
<clus scale="   63.109">  2  6  1 -1</clus>
<clus scale="   38.162">  1  3  2 -1</clus>
</clustering>
</event>
<event>
 6    0  0.3082502E+002  0.9178342E+02  0.7546771E-02  0.1298589E+00
         21   -1    0    0  503  502  0.00000000000E+00  0.00000000000E+00  0.64940002721E+02  0.64940002721E+02  0.00000000000E+00 0.  1.
          1   -1    0    0  504    0 -0.00000000000E+00 -0.00000000000E+00 -0.34589924084E+04  0.34589924084E+04  0.00000000000E+00 0. -1.
         21    1    1    2  503  501  0.59132885730E+02  0.42086212015E+01 -0.17145083521E+03  0.18141058283E+03  0.00000000000E+00 0. -1.
         21    1    1    2  504  505  0.10955382339E+03 -0.65483551984E+02 -0.39673531540E+02  0.13365674283E+03  0.00000000000E+00 0.  1.
         21    1    1    2  505  502 -0.94556175258E+02  0.80440362940E+01 -0.17110074419E+03  0.19565541511E+03  0.00000000000E+00 0. -1.
          1    1    1    2  501    0 -0.74130533861E+02  0.53230894488E+02 -0.30118272948E+04  0.30132096704E+04  0.00000000000E+00 0. -1.
<scales pt_clust_3="59.28247" pt_clust_4="91.78342" pt_clust_5="82.92782" pt_clust_6="14000.00000"></scales>
<clustering>
<clus scale="   59.282">  1  3  2 -1</clus>
<clus scale="   82.928">  1  5  2 -1</clus>
<clus scale="   91.783">  1  4  2 -1</clus>
<clus scale="   59.282">  1  3  2 -1</clus>
</clustering>
</event>
<event>
 6    0  0.3082502E+002  0.8751017E+02  0.7546771E-02  0.1308996E+00
         21   -1    0    0  505  502  0.00000000000E+00  0.00000000000E+00  0.50157740657E+03  0.50157740657E+03  0.00000000000E+00 0. -1.
          2   -1    0    0  503    0 -0.00000000000E+00 -0.00000000000E+00 -0.65514195776E+03  0.65514195776E+03  0.00000000000E+00 0. -1.
         21    1    1    2  503  502 -0.53291822404E+02 -0.11366797222E+03 -0.13349936794E+03  0.18325530684E+03  0.00000000000E+00 0. -1.
         21    1    1    2  504  501  0.65916508921E+02  0.73685024659E+02 -0.33518815083E+02  0.10439339046E+03  0.00000000000E+00 0.  1.
         21    1    1    2  505  504 -0.40969972520E+02 -0.21227621508E+02  0.43738195617E+03  0.43980919289E+03  0.00000000000E+00 0. -1.
          2    1    1    2  501    0  0.28345286004E+02  0.61210569064E+02 -0.42392832434E+03  0.42926147414E+03  0.00000000000E+00 0. -1.
<scales pt_clust_3="87.51017" pt_clust_4="14000.00000" pt_clust_5="46.14272" pt_clust_6="65.92149"></scales>
<clustering>
<clus scale="   46.143">  1  5  2 -1</clus>
<clus scale="   65.921">  2  6  1 -1</clus>
<clus scale="   87.510">  2  3  1 -1</clus>
<clus scale="   46.143">  1  3  2 -1</clus>
</clustering>
</event>
<event>
 6    0  0.3082502E+002  0.2492599E+03  0.7546771E-02  0.1113773E+00
          2   -1    0    0  505    0 -0.00000000000E+00  0.00000000000E+00  0.13193466582E+04  0.13193466582E+04  0.00000000000E+00 0. -1.
         21   -1    0    0  503  502  0.00000000000E+00 -0.00000000000E+00 -0.24843550951E+03  0.24843550951E+03  0.00000000000E+00 0.  1.
         21    1    1    2  503  504 -0.20330695825E+03  0.22458780961E+02 -0.14834567411E+03  0.25267480116E+03  0.00000000000E+00 0.  1.
         21    1    1    2  504  501 -0.28990218822E+02  0.30939882028E+02 -0.16143165100E+02  0.45368611029E+02  0.00000000000E+00 0.  1.
         21    1    1    2  505  502 -0.46971760363E+01  0.38112806536E+02  0.13215520341E+03  0.13762139104E+03  0.00000000000E+00 0.  1.
          2    1    1    2  501    0  0.23699435311E+03 -0.91511469526E+02  0.11032447845E+04  0.11321173644E+04  0.00000000000E+00 0. -1.
<scales pt_clust_3="32.06442" pt_clust_4="32.06442" pt_clust_5="38.40117" pt_clust_6="239.10373"></scales>
<clustering>
<clus scale="   32.064">  3  4 -1 -1</clus>
<clus scale="   38.401">  1  5  2 -1</clus>
<clus scale="  239.104">  1  6  2 -1</clus>
<clus scale="  249.260">  2  3  1 -1</clus>
</clustering>
</event>
<event>
 6    0  0.3082502E+002  0.1806972E+03  0.7546771E-02  0.1167130E+00
         21   -1    0    0  504  502  0.00000000000E+00  0.00000000000E+00  0.38141876770E+03  0.38141876770E+03  0.00000000000E+00 0.  1.
         -3   -1    0    0    0  501 -0.00000000000E+00 -0.00000000000E+00 -0.23649877558E+04  0.23649877558E+04  0.00000000000E+00 0. -1.
         21    1    1    2  503  501 -0.72732266818E+02  0.18939304523E+03 -0.33892529899E+03  0.39500641326E+03  0.00000000000E+00 0.  1.
         21    1    1    2  504  503 -0.29372200245E+01 -0.61216655101E+02  0.30889935123E+03  0.31492049046E+03  0.00000000000E+00 0.  1.
         21    1    1    2  505  502  0.40160304161E+01  0.34314110503E+02  0.29543281030E+02  0.45457586099E+02  0.00000000000E+00 0. -1.
         -3    1    1    2    0  505  0.71653456426E+02 -0.16249050063E+03 -0.19830863214E+04  0.19910220337E+04  0.00000000000E+00 0. -1.
<scales pt_clust_3="180.69718" pt_clust_4="30.10441" pt_clust_5="34.54832" pt_clust_6="14000.00000"></scales>
<clustering>
<clus scale="   34.548">  1  5  2 -1</clus>
<clus scale="   30.104">  1  4  2 -1</clus>
<clus scale="  180.697">  1  3  2 -1</clus>
<clus scale="   34.548">  1  3  2 -1</clus>
</clustering>
</event>
<event>
 6    0  0.3082502E+002  0.1032322E+03  0.7546771E-02  0.1273642E+00
         21   -1    0    0  504  502  0.00000000000E+00  0.00000000000E+00  0.29323761316E+03  0.29323761316E+03  0.00000000000E+00 0. -1.
          1   -1    0    0  503    0 -0.00000000000E+00 -0.00000000000E+00 -0.20021428596E+03  0.20021428596E+03  0.00000000000E+00 0. -1.
         21    1    1    2  503  505  0.45269634560E+01  0.95022260018E+02 -0.10011457243E+03  0.13810376863E+03  0.00000000000E+00 0. -1.
         21    1    1    2  504  501 -0.94506684434E+01  0.91778548947E+02  0.61862145319E+02  0.11108349204E+03  0.00000000000E+00 0. -1.
         21    1    1    2  505  502  0.63117633258E+01 -0.38022512406E+02  0.76602627636E+02  0.85752623089E+02  0.00000000000E+00 0. -1.
          1    1    1    2  501    0 -0.13880583384E+01 -0.14877829656E+03  0.54673126675E+02  0.15851201536E+03  0.00000000000E+00 0. -1.
<scales pt_clust_3="103.23223" pt_clust_4="76.58329" pt_clust_5="38.54283" pt_clust_6="14000.00000"></scales>
<clustering>
<clus scale="   38.543">  1  5  2 -1</clus>
<clus scale="   76.583">  1  4  2 -1</clus>
<clus scale="  103.232">  2  3  1 -1</clus>
<clus scale="   38.543">  1  3  2 -1</clus>
</clustering>
</event>
<event>
 6    0  0.3082502E+002  0.8849604E+02  0.7546771E-02  0.1306535E+00
         21   -1    0    0  504  502  0.00000000000E+00  0.00000000000E+00  0.59121955612E+02  0.59121955612E+02  0.00000000000E+00 0. -1.
          2   -1    0    0  503    0 -0.00000000000E+00 -0.00000000000E+00 -0.24721426059E+04  0.24721426059E+04  0.00000000000E+00 0.  1.
         21    1    1    2  503  502  0.30702144211E+02 -0.29415251957E+02 -0.73602115704E+03  0.73724827726E+03  0.00000000000E+00 0. -1.
         21    1    1    2  504  505 -0.26711494579E+02 -0.86004417278E+02  0.17912723682E+02  0.91821181672E+02  0.00000000000E+00 0. -1.
         21    1    1    2  505  501 -0.43665281602E+02  0.75649153790E+02 -0.65936617266E+03  0.66512645484E+03  0.00000000000E+00 0.  1.
          2    1    1    2  501    0  0.39674631970E+02  0.39770515445E+02 -0.10355460443E+04  0.10370686477E+04  0.00000000000E+00 0.  1.
<scales pt_clust_3="42.51916" pt_clust_4="14000.00000" pt_clust_5="88.49604" pt_clust_6="62.11265"></scales>
<clustering>
<clus scale="   42.519">  2  3  1 -1</clus>
<clus scale="   62.113">  2  6  1 -1</clus>
<clus scale="   88.496">  2  5  1 -1</clus>
<clus scale="   88.496">  1  3  2 -1</clus>
</clustering>
</event>
<event>
 6    0  0.3082502E+002  0.8251992E+02  0.7546771E-02  0.1322049E+00
         21   -1    0    0  505  502  0.00000000000E+00  0.00000000000E+00  0.38499612107E+03  0.38499612107E+03  0.00000000000E+00 0. -1.
          1   -1    0    0  503    0 -0.00000000000E+00 -0.00000000000E+00 -0.14222079635E+04  0.14222079635E+04  0.00000000000E+00 0.  1.
         21    1    1    2  503  502 -0.52218727107E+02 -0.72903107184E+02 -0.15547666741E+03  0.17948440770E+03  0.00000000000E+00 0. -1.
         21    1    1    2  504  501  0.47079635326E+02  0.58837292348E+02 -0.31057149203E+02  0.81503776293E+02  0.00000000000E+00 0. -1.
         21    1    1    2  505  504  0.50910712555E+02 -0.41159966671E+02  0.34360225063E+03  0.34978357615E+03  0.00000000000E+00 0. -1.
          1    1    1    2  501    0 -0.45771620774E+02  0.55225781507E+02 -0.11942802764E+04  0.11964323244E+04  0.00000000000E+00 0.  1.
<scales pt_clust_3="14000.00000" pt_clust_4="82.51992" pt_clust_5="65.46788" pt_clust_6="69.92620"></scales>
<clustering>
<clus scale="   65.468">  1  5  2 -1</clus>
<clus scale="   69.926">  2  6  1 -1</clus>
<clus scale="   82.520">  1  4  2 -1</clus>
<clus scale="   65.468">  1  3  2 -1</clus>
</clustering>
</event>
<event>
 6    0  0.3082502E+002  0.1154494E+03  0.7546771E-02  0.1250799E+00
         21   -1    0    0  504  502  0.00000000000E+00  0.00000000000E+00  0.12087659395E+03  0.12087659395E+03  0.00000000000E+00 0.  1.
          2   -1    0    0  503    0 -0.00000000000E+00 -0.00000000000E+00 -0.24567640031E+04  0.24567640031E+04  0.00000000000E+00 0.  1.
         21    1    1    2  503  505  0.42152286594E+02  0.99275695007E+02  0.69520212983E+01  0.10807779367E+03  0.00000000000E+00 0.  1.
         21    1    1    2  504  501  0.12963335181E+02  0.74210785944E+02 -0.15184911786E+03  0.16950941981E+03  0.00000000000E+00 0. -1.
         21    1    1    2  505  502  0.37384353809E+02 -0.10344415061E+03 -0.40805204746E+01  0.11006785567E+03  0.00000000000E+00 0.  1.
          2    1    1    2  501    0 -0.92499975584E+02 -0.70042330341E+02 -0.21869097922E+04  0.21899855279E+04  0.00000000000E+00 0.  1.
<scales pt_clust_3="115.44935" pt_clust_4="75.33451" pt_clust_5="81.02271" pt_clust_6="14000.00000"></scales>
<clustering>
<clus scale="   75.335">  1  4  2 -1</clus>
<clus scale="   81.023">  1  5  2 -1</clus>
<clus scale="  115.449">  1  3  2 -1</clus>
<clus scale="   75.335">  1  3  2 -1</clus>
</clustering>
</event>
<event>
 6    0  0.3082502E+002  0.1128238E+03  0.7546771E-02  0.1255428E+00
         21   -1    0    0  505  502  0.00000000000E+00  0.00000000000E+00  0.45660191551E+03  0.45660191551E+03  0.00000000000E+00 0.  1.
          2   -1    0    0  503    0 -0.00000000000E+00 -0.00000000000E+00 -0.15722939126E+04  0.15722939126E+04  0.00000000000E+00 0. -1.
         21    1    1    2  503  504 -0.39290926971E+02 -0.86544436872E+01 -0.51400459938E+02  0.65273912244E+02  0.00000000000E+00 0.  1.
         21    1    1    2  504  502 -0.98636755932E+02 -0.36094553002E+02  0.34664924603E+03  0.36221226671E+03  0.00000000000E+00 0.  1.
         21    1    1    2  505  501  0.63913057616E+02 -0.72061131468E+02  0.66796977460E+02  0.11721570629E+03  0.00000000000E+00 0.  1.
          2    1    1    2  501    0  0.74014625287E+02  0.11681012816E+03 -0.14777377607E+04  0.14841939429E+04  0.00000000000E+00 0. -1.
<scales pt_clust_3="40.23278" pt_clust_4="14000.00000" pt_clust_5="95.99622" pt_clust_6="112.82381"></scales>
<clustering>
<clus scale="   40.233">  2  3  1 -1</clus>
<clus scale="   95.996">  1  5  2 -1</clus>
<clus scale="  112.824">  2  6  1 -1</clus>
<clus scale="   95.996">  1  3  2 -1</clus>
</clustering>
</event>
<event>
 6    0  0.3082502E+002  0.1089397E+03  0.7546771E-02  0.1262546E+00
         21   -1    0    0  504  502  0.00000000000E+00  0.00000000000E+00  0.74209444236E+03  0.74209444236E+03  0.00000000000E+00 0. -1.
          2   -1    0    0  505    0 -0.00000000000E+00 -0.00000000000E+00 -0.64178112508E+03  0.64178112508E+03  0.00000000000E+00 0. -1.
         21    1    1    2  503  501  0.10098515924E+03  0.92487972148E+02  0.24939083384E+03  0.28451329561E+03  0.00000000000E+00 0.  1.
         21    1    1    2  504  503 -0.11078491594E+02 -0.31996545694E+02  0.45573066561E+03  0.45698681763E+03  0.00000000000E+00 0. -1.
         21    1    1    2  505  502 -0.26414771595E+02 -0.55480143793E+02 -0.38532808195E+02  0.72529744388E+02  0.00000000000E+00 0. -1.
          2    1    1    2  501    0 -0.63491896048E+02 -0.50112826613E+01 -0.56627537398E+03  0.56984570981E+03  0.00000000000E+00 0. -1.
<scales pt_clust_3="108.93973" pt_clust_4="33.86018" pt_clust_5="63.44977" pt_clust_6="14000.00000"></scales>
<clustering>
<clus scale="   33.860">  1  4  2 -1</clus>
<clus scale="   63.450">  2  5  1 -1</clus>
<clus scale="  108.940">  1  3  2 -1</clus>
<clus scale="   33.860">  1  3  2 -1</clus>
</clustering>
</event>
<event>
 6    0  0.3082502E+002  0.1323227E+03  0.7546771E-02  0.1224049E+00
         21   -1    0    0  504  502  0.00000000000E+00  0.00000000000E+00  0.81641895390E+02  0.81641895390E+02  0.00000000000E+00 0.  1.
         -3   -1    0    0    0  501 -0.00000000000E+00 -0.00000000000E+00 -0.27548640056E+04  0.27548640056E+04  0.00000000000E+00 0.  1.
         21    1    1    2  503  505 -0.91315198502E+02  0.28244288047E+01 -0.48151859803E+02  0.10327170221E+03  0.00000000000E+00 0.  1.
         21    1    1    2  504  503 -0.43926474541E+02  0.57257777606E+01  0.40114029386E+02  0.59761652003E+02  0.00000000000E+00 0.  1.
         21    1    1    2  505  501 -0.24793642746E+02  0.25464564254E+02 -0.90589918177E+03  0.90659610427E+03  0.00000000000E+00 0.  1.
         -3    1    1    2    0  502  0.16003531579E+03 -0.34014770819E+02 -0.17592850980E+04  0.17668764425E+04  0.00000000000E+00 0.  1.
<scales pt_clust_3="132.32271" pt_clust_4="44.44638" pt_clust_5="35.54109" pt_clust_6="14000.00000"></scales>
<clustering>
<clus scale="   35.541">  2  5  1 -1</clus>
<clus scale="   44.446">  1  4  2 -1</clus>
<clus scale="  132.323">  1  3  2 -1</clus>
<clus scale="   44.446">  1  3  2 -1</clus>
</clustering>
</event>
<event>
 6    0  0.3082502E+002  0.1446769E+03  0.7546771E-02  0.1207171E+00
          2   -1    0    0  505    0 -0.00000000000E+00  0.00000000000E+00  0.87670632450E+03  0.87670632450E+03  0.00000000000E+00 0. -1.
         21   -1    0    0  504  502  0.00000000000E+00 -0.00000000000E+00 -0.68372600045E+02  0.68372600045E+02  0.00000000000E+00 0.  1.
         21    1    1    2  503  501 -0.98244001912E+02  0.76933927605E+02  0.18077645908E+03  0.21966074134E+03  0.00000000000E+00 0.  1.
         21    1    1    2  504  503 -0.34400065255E+02  0.25601471301E+02 -0.23201296225E+02  0.48755512189E+02  0.00000000000E+00 0.  1.
         21    1    1    2  505  502 -0.20672842966E+01 -0.34113692023E+02  0.10930864665E+03  0.11452684349E+03  0.00000000000E+00 0. -1.
          2    1    1    2  501    0  0.13471135146E+03 -0.68421706883E+02  0.54144991496E+03  0.56213582753E+03  0.00000000000E+00 0. -1.
<scales pt_clust_3="14000.00000" pt_clust_4="42.57135" pt_clust_5="34.17627" pt_clust_6="144.67685"></scales>
<clustering>
<clus scale="   34.176">  1  5  2 -1</clus>
<clus scale="   42.571">  2  4  1 -1</clus>
<clus scale="  144.677">  1  6  2 -1</clus>
<clus scale="   42.571">  2  3  1 -1</clus>
</clustering>
</event>
<event>
 6    0  0.3082502E+002  0.6588379E+02  0.7546771E-02  0.1374678E+00
          2   -1    0    0  504    0 -0.00000000000E+00  0.00000000000E+00  0.14216744664E+04  0.14216744664E+04  0.00000000000E+00 0. -1.
         21   -1    0    0  503  502  0.00000000000E+00 -0.00000000000E+00 -0.53570468317E+02  0.53570468317E+02  0.00000000000E+00 0. -1.
         21    1    1    2  503  501 -0.40693367345E+01  0.35417644756E+02  0.64924676829E+02  0.74068770227E+02  0.00000000000E+00 0. -1.
         21    1    1    2  504  505 -0.33977284706E+02 -0.28064111447E+02  0.15007187040E+03  0.15640849246E+03  0.00000000000E+00 0.  1.
         21    1    1    2  505  502  0.32365822944E+02 -0.90602676449E+02  0.79105083877E+01  0.96534800033E+02  0.00000000000E+00 0. -1.
          2    1    1    2  501    0  0.56807984966E+01  0.83249143140E+02  0.11451969425E+04  0.11482328720E+04  0.00000000000E+00 0. -1.
<scales pt_clust_3="35.65065" pt_clust_4="42.85677" pt_clust_5="14000.00000" pt_clust_6="65.88379"></scales>
<clustering>
<clus scale="   35.651">  2  3  1 -1</clus>
<clus scale="   42.857">  1  4  2 -1</clus>
<clus scale="   65.884">  1  6  2 -1</clus>
<clus scale="   35.651">  2  3  1 -1</clus>
</clustering>
</event>
<event>
 6    0  0.3082502E+002  0.9838907E+02  0.7546771E-02  0.1283720E+00
         -2   -1    0    0    0  501 -0.00000000000E+00  0.00000000000E+00  0.27738956506E+03  0.27738956506E+03  0.00000000000E+00 0.  1.
         21   -1    0    0  505  502  0.00000000000E+00 -0.00000000000E+00 -0.15310253484E+04  0.15310253484E+04  0.00000000000E+00 0. -1.
         21    1    1    2  503  502  0.97357996821E+01 -0.62261628736E+02 -0.21080248359E+03  0.22002041563E+03  0.00000000000E+00 0.  1.
         21    1    1    2  504  501 -0.92515371143E+02 -0.71726992661E+01  0.69855500351E+02  0.11614789039E+03  0.00000000000E+00 0. -1.
         21    1    1    2  505  504 -0.60434879616E+02 -0.22225032870E+02 -0.12512491273E+04  0.12529049067E+04  0.00000000000E+00 0. -1.
         -2    1    1    2    0  503  0.14321445108E+03  0.91659360873E+02  0.13856032714E+03  0.21934170075E+03  0.00000000000E+00 0.  1.
<scales pt_clust_3="63.01822" pt_clust_4="92.71349" pt_clust_5="98.38907" pt_clust_6="14000.00000"></scales>
<clustering>
<clus scale="   63.018">  2  3  1 -1</clus>
<clus scale="   92.713">  1  4  2 -1</clus>
<clus scale="   98.389">  2  5  1 -1</clus>
<clus scale="   63.018">  2  3  1 -1</clus>
</clustering>
</event>
<event>
 6    0  0.3082502E+002  0.1053147E+03  0.7546771E-02  0.1269501E+00
          2   -1    0    0  504    0 -0.00000000000E+00  0.00000000000E+00  0.19995070339E+03  0.19995070339E+03  0.00000000000E+00 0. -1.
         21   -1    0    0  503  502  0.00000000000E+00 -0.00000000000E+00 -0.49101317325E+03  0.49101317325E+03  0.00000000000E+00 0. -1.
         21    1    1    2  503  501  0.64348177319E+02  0.13898207764E+02 -0.36457851737E+03  0.37047448418E+03  0.00000000000E+00 0. -1.
         21    1    1    2  504  505  0.49703081524E+02  0.11936081269E+01  0.60032086151E+02  0.77946599547E+02  0.00000000000E+00 0. -1.
         21    1    1    2  505  502  0.34916365119E+02  0.22276644039E+02 -0.59503627369E+02  0.72498848907E+02  0.00000000000E+00 0. -1.
          2    1    1    2  501    0 -0.14896762396E+03 -0.37368459929E+02  0.72987588728E+02  0.17004394401E+03  0.00000000000E+00 0. -1.
<scales pt_clust_3="105.31466" pt_clust_4="50.46637" pt_clust_5="41.41740" pt_clust_6="14000.00000"></scales>
<clustering>
<clus scale="   41.417">  2  5  1 -1</clus>
<clus scale="   50.466">  1  4  2 -1</clus>
<clus scale="  105.315">  2  3  1 -1</clus>
<clus scale="   41.417">  2  3  1 -1</clus>
</clustering>
</event>
<event>
 6    0  0.3082502E+002  0.1357733E+03  0.7546771E-02  0.1219132E+00
         21   -1    0    0  503  502  0.00000000000E+00  0.00000000000E+00  0.21981634079E+03  0.21981634079E+03  0.00000000000E+00 0. -1.
          2   -1    0    0  504    0 -0.00000000000E+00 -0.00000000000E+00 -0.22775723070E+04  0.22775723070E+04  0.00000000000E+00 0. -1.
         21    1    1    2  503  505 -0.24636012199E+02  0.26013094772E+02  0.83979984193E+02  0.91303077395E+02  0.00000000000E+00 0. -1.
         21    1    1    2  504  502 -0.16105425438E+02  0.10208560856E+03 -0.34579917303E+03  0.36091262692E+03  0.00000000000E+00 0. -1.
         21    1    1    2  505  501  0.14295071848E+03 -0.90822142958E+02  0.64742986069E+02  0.18131526083E+03  0.00000000000E+00 0. -1.
          2    1    1    2  501    0 -0.10220928084E+03 -0.37276560374E+02 -0.18606797635E+04  0.18638576827E+04  0.00000000000E+00 0. -1.
<scales pt_clust_3="35.82756" pt_clust_4="105.04318" pt_clust_5="135.77335" pt_clust_6="14000.00000"></scales>
<clustering>
<clus scale="   35.828">  1  3  2 -1</clus>
<clus scale="  105.043">  2  4  1 -1</clus>
<clus scale="  135.773">  1  5  2 -1</clus>
<clus scale="   35.828">  1  3  2 -1</clus>
</clustering>
</event>
<event>
 6    0  0.3082502E+002  0.9626357E+02  0.7546771E-02  0.1288355E+00
         21   -1    0    0  504  502  0.00000000000E+00  0.00000000000E+00  0.19366420816E+03  0.19366420816E+03  0.00000000000E+00 0. -1.
          2   -1    0    0  505    0 -0.00000000000E+00 -0.00000000000E+00 -0.15001282473E+04  0.15001282473E+04  0.00000000000E+00 0. -1.
         21    1    1    2  503  502 -0.20793005037E+02 -0.29398064251E+02 -0.75197430822E+00  0.36016117302E+02  0.00000000000E+00 0.  1.
         21    1    1    2  504  501  0.14501709004E+02  0.12181180600E+03  0.13908801926E+03  0.18545590512E+03  0.00000000000E+00 0. -1.
         21    1    1    2  505  503 -0.72109965264E+02  0.52323049528E+02 -0.23407652877E+03  0.25045831973E+03  0.00000000000E+00 0.  1.
          2    1    1    2  501    0  0.78401261297E+02 -0.14473679127E+03 -0.12107235553E+04  0.12218621133E+04  0.00000000000E+00 0. -1.
<scales pt_clust_3="36.00827" pt_clust_4="14000.00000" pt_clust_5="89.08840" pt_clust_6="96.26357"></scales>
<clustering>
<clus scale="   36.008">  1  3  2 -1</clus>
<clus scale="   89.088">  2  5  1 -1</clus>
<clus scale="   96.264">  2  6  1 -1</clus>
<clus scale="   36.008">  1  3  2 -1</clus>
</clustering>
</event>
<event>
 6    0  0.3082502E+002  0.1483894E+03  0.7546771E-02  0.1202466E+00
         21   -1    0    0  503  502  0.00000000000E+00  0.00000000000E+00  0.10562032098E+03  0.10562032098E+03  0.00000000000E+00 0. -1.
          2   -1    0    0  505    0 -0.00000000000E+00 -0.00000000000E+00 -0.38584354341E+04  0.38584354341E+04  0.00000000000E+00 0. -1.
         21    1    1    2  503  501  0.60082777405E+02 -0.56802324572E+02 -0.29228732716E+02  0.87696995579E+02  0.00000000000E+00 0. -1.
         21    1    1    2  504  502  0.27366702118E+02 -0.12855262341E+02  0.68270387698E+02  0.74666190416E+02  0.00000000000E+00 0. -1.
         21    1    1    2  505  504  0.53554225685E+02  0.11977140865E+02 -0.22542593253E+03  0.23200939215E+03  0.00000000000E+00 0.  1.
          2    1    1    2  501    0 -0.14100370521E+03  0.57680446048E+02 -0.35664308355E+04  0.35696831769E+04  0.00000000000E+00 0. -1.
<scales pt_clust_3="148.38942" pt_clust_4="30.23564" pt_clust_5="57.20876" pt_clust_6="14000.00000"></scales>
<clustering>
<clus scale="   30.236">  1  4  2 -1</clus>
<clus scale="   57.209">  1  5  2 -1</clus>
<clus scale="  148.389">  1  3  2 -1</clus>
<clus scale="   30.236">  1  3  2 -1</clus>
</clustering>
</event>
<event>
 6    0  0.3082502E+002  0.3407860E+03  0.7546771E-02  0.1066462E+00
          1   -1    0    0  503    0 -0.00000000000E+00  0.00000000000E+00  0.20794216699E+04  0.20794216699E+04  0.00000000000E+00 0. -1.
         21   -1    0    0  505  502  0.00000000000E+00 -0.00000000000E+00 -0.32271769096E+03  0.32271769096E+03  0.00000000000E+00 0. -1.
         21    1    1    2  503  502  0.12946765165E+02 -0.23777347983E+03 -0.19968390787E+03  0.31076922226E+03  0.00000000000E+00 0. -1.
         21    1    1    2  504  501 -0.88913147515E+01 -0.90100900227E+02  0.33007007116E+02  0.96367474900E+02  0.00000000000E+00 0.  1.
         21    1    1    2  505  504  0.54049847762E+02 -0.14417798123E+02  0.18768143044E+02  0.59004255263E+02  0.00000000000E+00 0.  1.
          1    1    1    2  501    0 -0.58105298176E+02  0.34229217819E+03  0.19046127367E+04  0.19359984085E+04  0.00000000000E+00 0. -1.
<scales pt_clust_3="340.78597" pt_clust_4="91.66737" pt_clust_5="55.93978" pt_clust_6="14000.00000"></scales>
<clustering>
<clus scale="   55.940">  2  5  1 -1</clus>
<clus scale="   91.667">  2  4  1 -1</clus>
<clus scale="  340.786">  2  3  1 -1</clus>
<clus scale="   55.940">  2  3  1 -1</clus>
</clustering>
</event>
<event>
 6    0  0.3082502E+002  0.8252841E+02  0.7546771E-02  0.1322026E+00
         -1   -1    0    0    0  501 -0.00000000000E+00  0.00000000000E+00  0.81936027184E+03  0.81936027184E+03  0.00000000000E+00 0.  1.
         21   -1    0    0  504  502  0.00000000000E+00 -0.00000000000E+00 -0.55383162913E+02  0.55383162913E+02  0.00000000000E+00 0.  1.
         21    1    1    2  503  502  0.59792029871E+02 -0.11574324248E+02  0.32685574122E+02  0.69118728096E+02  0.00000000000E+00 0.  1.
         21    1    1    2  504  505  0.33035273614E+01 -0.47614414877E+02 -0.32697266732E+01  0.47840745288E+02  0.00000000000E+00 0.  1.
         21    1    1    2  505  501  0.52626542654E+02 -0.49164422294E+01  0.17568706544E+03  0.18346571712E+03  0.00000000000E+00 0.  1.
         -1    1    1    2    0  503 -0.11572209989E+03  0.64105181355E+02  0.55887419604E+03  0.57431824425E+03  0.00000000000E+00 0.  1.
<scales pt_clust_3="14000.00000" pt_clust_4="47.72888" pt_clust_5="54.21109" pt_clust_6="82.52841"></scales>
<clustering>
<clus scale="   47.729">  2  4  1 -1</clus>
<clus scale="   54.211">  1  5  2 -1</clus>
<clus scale="   82.528">  1  6  2 -1</clus>
<clus scale="   47.729">  2  3  1 -1</clus>
</clustering>
</event>
<event>
 6    0  0.3082502E+002  0.7252919E+02  0.7546771E-02  0.1351698E+00
          1   -1    0    0  505    0 -0.00000000000E+00  0.00000000000E+00  0.42603625928E+04  0.42603625928E+04  0.00000000000E+00 0.  1.
         21   -1    0    0  501  502  0.00000000000E+00 -0.00000000000E+00 -0.70188983208E+01  0.70188983208E+01  0.00000000000E+00 0.  1.
         21    1    1    2  503  502 -0.38923250389E+02  0.10942464722E+02  0.19277631964E+03  0.19697072465E+03  0.00000000000E+00 0.  1.
         21    1    1    2  504  503  0.89007284835E+02 -0.54516673279E+02  0.66116693676E+03  0.66935497510E+03  0.00000000000E+00 0.  1.
         21    1    1    2  505  504 -0.19212418573E+02 -0.24579971397E+02  0.94047694736E+03  0.94099425106E+03  0.00000000000E+00 0.  1.
          1    1    1    2  501    0 -0.30871615873E+02  0.68154179954E+02  0.24589234907E+04  0.24600615403E+04  0.00000000000E+00 0.  1.
<scales pt_clust_3="41.16225" pt_clust_4="72.52919" pt_clust_5="31.19763" pt_clust_6="14000.00000"></scales>
<clustering>
<clus scale="   31.198">  1  5  2 -1</clus>
<clus scale="   41.162">  2  3  1 -1</clus>
<clus scale="   72.529">  2  4  1 -1</clus>
<clus scale="   41.162">  2  3  1 -1</clus>
</clustering>
</event>
<event>
 6    0  0.3082502E+002  0.6987121E+02  0.7546771E-02  0.1360532E+00
         -2   -1    0    0    0  501 -0.00000000000E+00  0.00000000000E+00  0.18327575965E+03  0.18327575965E+03  0.00000000000E+00 0.  1.
         21   -1    0    0  504  502  0.00000000000E+00 -0.00000000000E+00 -0.66272671366E+03  0.66272671366E+03  0.00000000000E+00 0. -1.
         21    1    1    2  503  501 -0.45137213995E+02  0.69290065445E+01  0.81455098003E+02  0.93382611923E+02  0.00000000000E+00 0.  1.
         21    1    1    2  504  503 -0.23230200961E+02  0.96744404340E+02 -0.37834012738E+02  0.10644498357E+03  0.00000000000E+00 0.  1.
         21    1    1    2  505  502  0.35257213289E+02 -0.58566560217E+02 -0.56942558629E+03  0.57351426432E+03  0.00000000000E+00 0. -1.
         -2    1    1    2    0  505  0.33110201666E+02 -0.45106850667E+02  0.46353547019E+02  0.72660613490E+02  0.00000000000E+00 0.  1.
<scales pt_clust_3="45.66595" pt_clust_4="14000.00000" pt_clust_5="69.87121" pt_clust_6="41.12155"></scales>
<clustering>
<clus scale="   45.666">  1  3  2 -1</clus>
<clus scale="   41.122">  1  6  2 -1</clus>
<clus scale="   69.871">  2  5  1 -1</clus>
<clus scale="   69.871">  2  3  1 -1</clus>
</clustering>
</event>
<event>
 6    0  0.3082502E+002  0.8694648E+02  0.7546771E-02  0.1310419E+00
          2   -1    0    0  504    0 -0.00000000000E+00  0.00000000000E+00  0.10504388668E+04  0.10504388668E+04  0.00000000000E+00 0. -1.
         21   -1    0    0  505  502  0.00000000000E+00 -0.00000000000E+00 -0.22423106095E+03  0.22423106095E+03  0.00000000000E+00 0.  1.
         21    1    1    2  503  502 -0.22419609201E+02  0.38806390698E+02 -0.18910654872E+03  0.19434469791E+03  0.00000000000E+00 0.  1.
         21    1    1    2  504  503 -0.83875670663E+02 -0.60639330840E+02  0.55170374913E+03  0.56132814234E+03  0.00000000000E+00 0. -1.
         21    1    1    2  505  501  0.32145317095E+02 -0.20073866424E+01 -0.13969746102E+02  0.35107047988E+02  0.00000000000E+00 0. -1.
          2    1    1    2  501    0  0.74149962769E+02  0.23840326784E+02  0.47758035154E+03  0.48389003951E+03  0.00000000000E+00 0. -1.
<scales pt_clust_3="37.83326" pt_clust_4="14000.00000" pt_clust_5="32.20793" pt_clust_6="86.94648"></scales>
<clustering>
<clus scale="   32.208">  2  5  1 -1</clus>
<clus scale="   37.833">  2  3  1 -1</clus>
<clus scale="   86.946">  1  6  2 -1</clus>
<clus scale="   32.208">  2  3  1 -1</clus>
</clustering>
</event>
<event>
 6    0  0.3082502E+002  0.5551157E+02  0.7546771E-02  0.1417695E+00
         21   -1    0    0  504  502  0.00000000000E+00  0.00000000000E+00  0.41848430008E+03  0.41848430008E+03  0.00000000000E+00 0. -1.
         -3   -1    0    0    0  501 -0.00000000000E+00 -0.00000000000E+00 -0.24079655867E+03  0.24079655867E+03  0.00000000000E+00 0.  1.
         21    1    1    2  503  502  0.13630613426E+01  0.95209243433E+02  0.35989334657E+03  0.37227661608E+03  0.00000000000E+00 0. -1.
         21    1    1    2  504  505  0.17693392420E+02 -0.45200534242E+02  0.16009060541E+02  0.51111979521E+02  0.00000000000E+00 0. -1.
         21    1    1    2  505  501  0.37318725985E+02 -0.10878387841E+02 -0.17582264317E+02  0.42663364256E+02  0.00000000000E+00 0. -1.
         -3    1    1    2    0  503 -0.56375179747E+02 -0.39130321351E+02 -0.18063240138E+03  0.19322889890E+03  0.00000000000E+00 0.  1.
<scales pt_clust_3="55.51157" pt_clust_4="50.58242" pt_clust_5="38.87193" pt_clust_6="14000.00000"></scales>
<clustering>
<clus scale="   38.872">  2  5  1 -1</clus>
<clus scale="   50.582">  1  4  2 -1</clus>
<clus scale="   55.512">  1  3  2 -1</clus>
<clus scale="   50.582">  1  3  2 -1</clus>
</clustering>
</event>
<event>
 6    0  0.3082502E+002  0.1133506E+03  0.7546771E-02  0.1254488E+00
          2   -1    0    0  503    0 -0.00000000000E+00  0.00000000000E+00  0.13197600144E+04  0.13197600144E+04  0.00000000000E+00 0.  1.
         21   -1    0    0  505  502  0.00000000000E+00 -0.00000000000E+00 -0.85762930371E+02  0.85762930371E+02  0.00000000000E+00 0.  1.
         21    1    1    2  503  502 -0.53492209354E+02 -0.19450193089E+02  0.25298781348E+03  0.25931170480E+03  0.00000000000E+00 0.  1.
         21    1    1    2  504  501  0.36961584154E+02  0.94661898979E+02  0.91606076997E+01  0.10203406566E+03  0.00000000000E+00 0.  1.
         21    1    1    2  505  504  0.49733918212E+02 -0.11105274248E+02 -0.16217445976E+02  0.53477053872E+02  0.00000000000E+00 0.  1.
          2    1    1    2  501    0 -0.33203293012E+02 -0.64106431642E+02  0.98806610879E+03  0.99070012041E+03  0.00000000000E+00 0.  1.
<scales pt_clust_3="54.27837" pt_clust_4="14000.00000" pt_clust_5="50.95871" pt_clust_6="113.35062"></scales>
<clustering>
<clus scale="   50.959">  2  5  1 -1</clus>
<clus scale="   54.278">  1  3  2 -1</clus>
<clus scale="  113.351">  1  6  2 -1</clus>
<clus scale="   50.959">  2  3  1 -1</clus>
</clustering>
</event>
<event>
 6    0  0.3082502E+002  0.8232157E+02  0.7546771E-02  0.1322589E+00
         21   -1    0    0  504  502  0.00000000000E+00  0.00000000000E+00  0.48345631165E+03  0.48345631165E+03  0.00000000000E+00 0.  1.
          2   -1    0    0  503    0 -0.00000000000E+00 -0.00000000000E+00 -0.20472052244E+03  0.20472052244E+03  0.00000000000E+00 0.  1.
         21    1    1    2  503  505  0.65600909445E+01  0.40602522880E+02 -0.28224175491E+02  0.49881897915E+02  0.00000000000E+00 0.  1.
         21    1    1    2  504  501 -0.37369402609E+02  0.58478521140E+02  0.55987529712E+02  0.89167332411E+02  0.00000000000E+00 0. -1.
         21    1    1    2  505  502 -0.40583197356E+02 -0.21148233699E+02  0.37976959581E+03  0.38251691413E+03  0.00000000000E+00 0.  1.
          2    1    1    2  501    0  0.71392509021E+02 -0.77932810321E+02 -0.12879716081E+03  0.16661068964E+03  0.00000000000E+00 0.  1.
<scales pt_clust_3="41.12906" pt_clust_4="82.32157" pt_clust_5="45.55991" pt_clust_6="14000.00000"></scales>
<clustering>
<clus scale="   41.129">  2  3  1 -1</clus>
<clus scale="   45.560">  1  5  2 -1</clus>
<clus scale="   82.322">  1  4  2 -1</clus>
<clus scale="   45.560">  1  3  2 -1</clus>
</clustering>
</event>
<event>
 6    0  0.3082502E+002  0.9588377E+02  0.7546771E-02  0.1289198E+00
          2   -1    0    0  504    0 -0.00000000000E+00  0.00000000000E+00  0.19443653819E+04  0.19443653819E+04  0.00000000000E+00 0.  1.
         21   -1    0    0  503  502  0.00000000000E+00 -0.00000000000E+00 -0.14448105592E+02  0.14448105592E+02  0.00000000000E+00 0.  1.
         21    1    1    2  503  501  0.24814501639E+02 -0.16919119996E+02  0.69313158782E+02  0.75540254787E+02  0.00000000000E+00 0. -1.
         21    1    1    2  504  505 -0.49680845631E+02  0.16367623640E+02  0.86636554566E+03  0.86794316878E+03  0.00000000000E+00 0.  1.
         21    1    1    2  505  502 -0.90112709429E+02 -0.63766129831E+01  0.40784238137E+03  0.41772762613E+03  0.00000000000E+00 0.  1.
          2    1    1    2  501    0  0.11497905342E+03  0.69281093385E+01  0.58639619045E+03  0.59760243775E+03  0.00000000000E+00 0.  1.
<scales pt_clust_3="30.03358" pt_clust_4="50.30228" pt_clust_5="95.88377" pt_clust_6="14000.00000"></scales>
<clustering>
<clus scale="   30.034">  2  3  1 -1</clus>
<clus scale="   50.302">  1  4  2 -1</clus>
<clus scale="   95.884">  2  5  1 -1</clus>
<clus scale="   30.034">  2  3  1 -1</clus>
</clustering>
</event>
<event>
 6    0  0.3082502E+002  0.1070423E+03  0.7546771E-02  0.1266147E+00
          3   -1    0    0  505    0 -0.00000000000E+00  0.00000000000E+00  0.12075624371E+03  0.12075624371E+03  0.00000000000E+00 0. -1.
         21   -1    0    0  503  502  0.00000000000E+00 -0.00000000000E+00 -0.96115171995E+03  0.96115171995E+03  0.00000000000E+00 0.  1.
         21    1    1    2  503  501 -0.11826349111E+02  0.34210820397E+02 -0.79006806291E+03  0.79089682437E+03  0.00000000000E+00 0.  1.
         21    1    1    2  504  502  0.95451608515E+02  0.34491236026E+02 -0.50345981415E+02  0.11329330419E+03  0.00000000000E+00 0. -1.
         21    1    1    2  505  504 -0.16298078835E+02  0.38215247540E+02  0.25606784216E+02  0.48803072815E+02  0.00000000000E+00 0. -1.
          3    1    1    2  501    0 -0.67327180569E+02 -0.10691730396E+03 -0.25588216121E+02  0.12891476228E+03  0.00000000000E+00 0. -1.
<scales pt_clust_3="36.19728" pt_clust_4="14000.00000" pt_clust_5="43.99966" pt_clust_6="107.04227"></scales>
<clustering>
<clus scale="   36.197">  2  3  1 -1</clus>
<clus scale="   44.000">  1  5  2 -1</clus>
<clus scale="  107.042">  1  6  2 -1</clus>
<clus scale="   36.197">  2  3  1 -1</clus>
</clustering>
</event>
<event>
 6    0  0.3082502E+002  0.1154835E+03  0.7546771E-02  0.1250739E+00
          2   -1    0    0  503    0 -0.00000000000E+00  0.00000000000E+00  0.31995540528E+04  0.31995540528E+04  0.00000000000E+00 0. -1.
         21   -1    0    0  504  502  0.00000000000E+00 -0.00000000000E+00 -0.92696003177E+02  0.92696003177E+02  0.00000000000E+00 0.  1.
         21    1    1    2  503  502 -0.70284134326E+01 -0.37052976405E+02 -0.75002287246E+02  0.83950370743E+02  0.00000000000E+00 0.  1.
         21    1    1    2  504  505  0.28963269384E+02 -0.20436610519E+02  0.35174116332E+02  0.49937405646E+02  0.00000000000E+00 0. -1.
         21    1    1    2  505  501  0.40304802736E+01 -0.70969092740E+02  0.28690585405E+03  0.29558048985E+03  0.00000000000E+00 0.  1.
          2    1    1    2  501    0 -0.25965336225E+02  0.12845867966E+03  0.28597803665E+04  0.28627817898E+04  0.00000000000E+00 0. -1.
<scales pt_clust_3="59.53429" pt_clust_4="35.44751" pt_clust_5="115.48351" pt_clust_6="14000.00000"></scales>
<clustering>
<clus scale="   35.448">  2  4  1 -1</clus>
<clus scale="   59.534">  2  3  1 -1</clus>
<clus scale="  115.484">  2  5  1 -1</clus>
<clus scale="   35.448">  2  3  1 -1</clus>
</clustering>
</event>
<event>
 6    0  0.3082502E+002  0.1547023E+03  0.7546771E-02  0.1194811E+00
         21   -1    0    0  504  502  0.00000000000E+00  0.00000000000E+00  0.18877080022E+03  0.18877080022E+03  0.00000000000E+00 0.  1.
          1   -1    0    0  503    0 -0.00000000000E+00 -0.00000000000E+00 -0.93722323859E+03  0.93722323859E+03  0.00000000000E+00 0.  1.
         21    1    1    2  503  502  0.38140089796E-01 -0.38847760952E+02 -0.55745730579E+03  0.55880926779E+03  0.00000000000E+00 0.  1.
         21    1    1    2  504  505  0.97633748707E+02  0.10485812539E+03  0.45469326145E+02  0.15031644943E+03  0.00000000000E+00 0.  1.
         21    1    1    2  505  501 -0.64858344835E+02 -0.19578048068E+03 -0.11511265087E+03  0.23619382697E+03  0.00000000000E+00 0.  1.
          1    1    1    2  501    0 -0.32813543962E+02  0.12977011624E+03 -0.12135180786E+03  0.18067449462E+03  0.00000000000E+00 0.  1.
<scales pt_clust_3="38.84778" pt_clust_4="14000.00000" pt_clust_5="154.70231" pt_clust_6="118.90770"></scales>
<clustering>
<clus scale="   38.848">  2  3  1 -1</clus>
<clus scale="  118.908">  2  6  1 -1</clus>
<clus scale="  154.702">  2  5  1 -1</clus>
<clus scale="  154.702">  1  3  2 -1</clus>
</clustering>
</event>
<event>
 6    0  0.3082502E+002  0.8397822E+02  0.7546771E-02  0.1318126E+00
         21   -1    0    0  504  502  0.00000000000E+00  0.00000000000E+00  0.51762240589E+03  0.51762240589E+03  0.00000000000E+00 0.  1.
          3   -1    0    0  503    0 -0.00000000000E+00 -0.00000000000E+00 -0.10801324474E+03  0.10801324474E+03  0.00000000000E+00 0.  1.
         21    1    1    2  503  505  0.56041006516E+02  0.17673200387E+02  0.46814047117E+02  0.75129830498E+02  0.00000000000E+00 0.  1.
         21    1    1    2  504  501 -0.51149388741E+02 -0.37715123172E+01  0.81766585746E+02  0.96520768844E+02  0.00000000000E+00 0.  1.
         21    1    1    2  505  502  0.76053640515E+02  0.39018761017E+02  0.33327693825E+03  0.34406414739E+03  0.00000000000E+00 0.  1.
          3    1    1    2  501    0 -0.80945258290E+02 -0.52920449086E+02 -0.52248409966E+02  0.10992090390E+03  0.00000000000E+00 0.  1.
<scales pt_clust_3="14000.00000" pt_clust_4="51.28825" pt_clust_5="50.67409" pt_clust_6="83.97822"></scales>
<clustering>
<clus scale="   51.288">  1  4  2 -1</clus>
<clus scale="   50.674">  1  5  2 -1</clus>
<clus scale="   83.978">  2  6  1 -1</clus>
<clus scale="   51.288">  1  3  2 -1</clus>
</clustering>
</event>
<event>
 6    0  0.3082502E+002  0.1236546E+03  0.7546771E-02  0.1237187E+00
         21   -1    0    0  504  502  0.00000000000E+00  0.00000000000E+00  0.62384377814E+03  0.62384377814E+03  0.00000000000E+00 0. -1.
          1   -1    0    0  505    0 -0.00000000000E+00 -0.00000000000E+00 -0.14895998281E+03  0.14895998281E+03  0.00000000000E+00 0. -1.
         21    1    1    2  503  501  0.45450651453E+02  0.99304928570E+02  0.31601388762E+02  0.11369203282E+03  0.00000000000E+00 0. -1.
         21    1    1    2  504  503  0.38938586202E+02 -0.26763874675E+02  0.37497732527E+03  0.37794247307E+03  0.00000000000E+00 0. -1.
         21    1    1    2  505  502  0.11001242674E+01  0.30190871611E+02  0.13036051614E+03  0.13381540707E+03  0.00000000000E+00 0. -1.
          1    1    1    2  501    0 -0.85489361922E+02 -0.10273192551E+03 -0.62055434842E+02  0.14735384798E+03  0.00000000000E+00 0. -1.
<scales pt_clust_3="14000.00000" pt_clust_4="39.94801" pt_clust_5="30.21091" pt_clust_6="123.65459"></scales>
<clustering>
<clus scale="   30.211">  1  5  2 -1</clus>
<clus scale="   39.948">  1  4  2 -1</clus>
<clus scale="  123.655">  2  6  1 -1</clus>
<clus scale="   30.211">  1  3  2 -1</clus>
</clustering>
</event>
<event>
 6    0  0.3082502E+002  0.1036944E+03  0.7546771E-02  0.1272713E+00
          4   -1    0    0  504    0 -0.00000000000E+00  0.00000000000E+00  0.52799582718E+03  0.52799582718E+03  0.00000000000E+00 0. -1.
         21   -1    0    0  503  502  0.00000000000E+00 -0.00000000000E+00 -0.70827951255E+02  0.70827951255E+02  0.00000000000E+00 0. -1.
         21    1    1    2  503  501  0.38848286134E+02  0.12159806907E+02  0.28203700815E+02  0.49522711751E+02  0.00000000000E+00 0. -1.
         21    1    1    2  504  505 -0.40400524892E+02  0.91760234708E+01  0.15728365150E+03  0.16264854394E+03  0.00000000000E+00 0.  1.
         21    1    1    2  505  502  0.19527017258E+02 -0.10736501944E+03  0.88124360510E+01  0.10948155476E+03  0.00000000000E+00 0. -1.
          4    1    1    2  501    0 -0.17974778500E+02  0.86029189067E+02  0.26286808757E+03  0.27717096798E+03  0.00000000000E+00 0. -1.
<scales pt_clust_3="40.70688" pt_clust_4="39.87106" pt_clust_5="103.69442" pt_clust_6="14000.00000"></scales>
<clustering>
<clus scale="   40.707">  2  3  1 -1</clus>
<clus scale="   39.871">  1  4  2 -1</clus>
<clus scale="  103.694">  2  5  1 -1</clus>
<clus scale="   40.707">  2  3  1 -1</clus>
</clustering>
</event>
<event>
 6    0  0.3082502E+002  0.1049989E+03  0.7546771E-02  0.1270122E+00
          2   -1    0    0  505    0 -0.00000000000E+00  0.00000000000E+00  0.38848170474E+04  0.38848170474E+04  0.00000000000E+00 0.  1.
         21   -1    0    0  504  502  0.00000000000E+00 -0.00000000000E+00 -0.27699821042E+02  0.27699821042E+02  0.00000000000E+00 0. -1.
         21    1    1    2  503  501  0.50684904510E+02  0.16216826461E+02  0.24094323224E+04  0.24100199296E+04  0.00000000000E+00 0.  1.
         21    1    1    2  504  503  0.43990302852E+02  0.35593373184E+02  0.19261677758E+03  0.20075671338E+03  0.00000000000E+00 0.  1.
         21    1    1    2  505  502 -0.13665041643E+03 -0.35116178454E+02  0.19489180408E+03  0.24060194845E+03  0.00000000000E+00 0. -1.
          2    1    1    2  501    0  0.41975209071E+02 -0.16694021191E+02  0.10601763223E+04  0.10611382770E+04  0.00000000000E+00 0.  1.
<scales pt_clust_3="42.90924" pt_clust_4="56.58653" pt_clust_5="94.10501" pt_clust_6="42.90924"></scales>
<clustering>
<clus scale="   42.909">  3  6 -1 -1</clus>
<clus scale="   56.587">  2  4  1 -1</clus>
<clus scale="   94.105">  2  5  1 -1</clus>
<clus scale="   56.587">  2  3  1 -1</clus>
</clustering>
</event>
<event>
 6    0  0.3082502E+002  0.1084298E+03  0.7546771E-02  0.1263506E+00
         21   -1    0    0  505  502  0.00000000000E+00  0.00000000000E+00  0.43550813438E+02  0.43550813438E+02  0.00000000000E+00 0.  1.
          2   -1    0    0  503    0 -0.00000000000E+00 -0.00000000000E+00 -0.28270693632E+04  0.28270693632E+04  0.00000000000E+00 0.  1.
         21    1    1    2  503  504 -0.26838424442E+02 -0.28173221485E+02 -0.32666848338E+03  0.32897770361E+03  0.00000000000E+00 0.  1.
         21    1    1    2  504  502 -0.37250117039E+02  0.20091773597E+02 -0.20572924888E+02  0.47058429895E+02  0.00000000000E+00 0.  1.
         21    1    1    2  505  501  0.13536490764E+03  0.27973964749E+02 -0.13870154057E+03  0.19581705309E+03  0.00000000000E+00 0.  1.
          2    1    1    2  501    0 -0.71276366154E+02 -0.19892516860E+02 -0.22975756009E+04  0.22987669901E+04  0.00000000000E+00 0.  1.
<scales pt_clust_3="38.91056" pt_clust_4="42.46485" pt_clust_5="14000.00000" pt_clust_6="108.42981"></scales>
<clustering>
<clus scale="   38.911">  2  3  1 -1</clus>
<clus scale="   42.465">  1  4  2 -1</clus>
<clus scale="  108.430">  2  6  1 -1</clus>
<clus scale="   42.465">  1  3  2 -1</clus>
</clustering>
</event>
<event>
 6    0  0.3082502E+002  0.1193362E+03  0.7546771E-02  0.1244196E+00
         21   -1    0    0  505  502  0.00000000000E+00  0.00000000000E+00  0.11337568299E+04  0.11337568299E+04  0.00000000000E+00 0. -1.
          1   -1    0    0  504    0 -0.00000000000E+00 -0.00000000000E+00 -0.14910240401E+03  0.14910240401E+03  0.00000000000E+00 0.  1.
         21    1    1    2  503  502 -0.92307099838E+02  0.13700193969E+03  0.97979195205E+03  0.99362085398E+03  0.00000000000E+00 0. -1.
         21    1    1    2  504  503 -0.32464320340E+02  0.50690635308E+01  0.13180048751E+02  0.35402559022E+02  0.00000000000E+00 0. -1.
         21    1    1    2  505  501  0.35261617526E+02 -0.37504818775E+02  0.76462462305E+02  0.92176467950E+02  0.00000000000E+00 0. -1.
          1    1    1    2  501    0  0.89509802653E+02 -0.10456618444E+03 -0.84780037199E+02  0.16165935298E+03  0.00000000000E+00 0.  1.
<scales pt_clust_3="119.33618" pt_clust_4="32.85769" pt_clust_5="50.01483" pt_clust_6="14000.00000"></scales>
<clustering>
<clus scale="   32.858">  2  4  1 -1</clus>
<clus scale="   50.015">  1  5  2 -1</clus>
<clus scale="  119.336">  1  3  2 -1</clus>
<clus scale="   50.015">  1  3  2 -1</clus>
</clustering>
</event>
<event>
 6    0  0.3082502E+002  0.1809624E+03  0.7546771E-02  0.1166875E+00
         21   -1    0    0  505  502  0.00000000000E+00  0.00000000000E+00  0.38900171892E+03  0.38900171892E+03  0.00000000000E+00 0.  1.
          1   -1    0    0  503    0 -0.00000000000E+00 -0.00000000000E+00 -0.10612432715E+04  0.10612432715E+04  0.00000000000E+00 0. -1.
         21    1    1    2  503  504 -0.19220087409E+01 -0.37007964064E+02 -0.12303184657E+03  0.12849170709E+03  0.00000000000E+00 0. -1.
         21    1    1    2  504  502  0.55444493816E+02 -0.13118701745E+03 -0.48490054702E+02  0.15045069241E+03  0.00000000000E+00 0. -1.
         21    1    1    2  505  501 -0.11207279681E+03 -0.53431561844E+02  0.30728012734E+03  0.33141563066E+03  0.00000000000E+00 0.  1.
          1    1    1    2  501    0  0.58550311739E+02  0.22162654336E+03 -0.80799977867E+03  0.83988696029E+03  0.00000000000E+00 0. -1.
<scales pt_clust_3="37.05784" pt_clust_4="180.96245" pt_clust_5="124.38668" pt_clust_6="14000.00000"></scales>
<clustering>
<clus scale="   37.058">  2  3  1 -1</clus>
<clus scale="  124.387">  1  5  2 -1</clus>
<clus scale="  180.962">  1  4  2 -1</clus>
<clus scale="  124.387">  1  3  2 -1</clus>
</clustering>
</event>
<event>
 6    0  0.3082502E+002  0.2479859E+03  0.7546771E-02  0.1114584E+00
         21   -1    0    0  504  502  0.00000000000E+00  0.00000000000E+00  0.56152992006E+03  0.56152992006E+03  0.00000000000E+00 0.  1.
         -1   -1    0    0    0  501 -0.00000000000E+00 -0.00000000000E+00 -0.25124673905E+03  0.25124673905E+03  0.00000000000E+00 0.  1.
         21    1    1    2  503  501  0.35219976358E+02 -0.68054278329E+01 -0.73426537475E+02  0.81720358468E+02  0.00000000000E+00 0. -1.
         21    1    1    2  504  505  0.33334964688E+02 -0.10956093556E+02  0.10558198516E+03  0.11126010717E+03  0.00000000000E+00 0.  1.
         21    1    1    2  505  503  0.93003841143E+02 -0.17957703822E+03  0.30220196988E+03  0.36362571103E+03  0.00000000000E+00 0.  1.
         -1    1    1    2    0  502 -0.16155878219E+03  0.19733855961E+03 -0.24074236557E+02  0.25617048245E+03  0.00000000000E+00 0.  1.
<scales pt_clust_3="35.87145" pt_clust_4="34.76202" pt_clust_5="34.76202" pt_clust_6="233.52212"></scales>
<clustering>
<clus scale="   34.762">  4  5 -1 -1</clus>
<clus scale="   35.871">  2  3  1 -1</clus>
<clus scale="  233.522">  2  6  1 -1</clus>
<clus scale="  247.986">  1  3  2 -1</clus>
</clustering>
</event>
<event>
 6    0  0.3082502E+002  0.1193456E+03  0.7546771E-02  0.1244181E+00
          2   -1    0    0  505    0 -0.00000000000E+00  0.00000000000E+00  0.64607919428E+03  0.64607919428E+03  0.00000000000E+00 0.  1.
         21   -1    0    0  501  502  0.00000000000E+00 -0.00000000000E+00 -0.11998601791E+03  0.11998601791E+03  0.00000000000E+00 0.  1.
         21    1    1    2  503  504  0.34497567715E+02 -0.30757005966E+02 -0.57571556127E+01  0.46574890606E+02  0.00000000000E+00 0. -1.
         21    1    1    2  504  502  0.55040618433E+02 -0.29918718381E+02 -0.59899465833E+02  0.86674940982E+02  0.00000000000E+00 0.  1.
         21    1    1    2  505  503  0.15774598411E+02 -0.60368965159E+02  0.19915601710E+03  0.20870162687E+03  0.00000000000E+00 0.  1.
          2    1    1    2  501    0 -0.10531278456E+03  0.12104468951E+03  0.39259378072E+03  0.42411375373E+03  0.00000000000E+00 0.  1.
<scales pt_clust_3="35.89131" pt_clust_4="35.89131" pt_clust_5="62.39591" pt_clust_6="111.79117"></scales>
<clustering>
<clus scale="   35.891">  3  4 -1 -1</clus>
<clus scale="   62.396">  1  5  2 -1</clus>
<clus scale="  111.791">  1  6  2 -1</clus>
<clus scale="  119.346">  2  3  1 -1</clus>
</clustering>
</event>
<event>
 6    0  0.3082502E+002  0.7523310E+02  0.7546771E-02  0.1343151E+00
         21   -1    0    0  503  502  0.00000000000E+00  0.00000000000E+00  0.20412406082E+03  0.20412406082E+03  0.00000000000E+00 0. -1.
          2   -1    0    0  505    0 -0.00000000000E+00 -0.00000000000E+00 -0.31727802822E+03  0.31727802822E+03  0.00000000000E+00 0. -1.
         21    1    1    2  503  501  0.45229136018E+02  0.63281059101E+02  0.12320401103E+03  0.14570310745E+03  0.00000000000E+00 0. -1.
         21    1    1    2  504  502  0.11933218005E+02 -0.84721390692E+02  0.28142439495E+02  0.90067267270E+02  0.00000000000E+00 0. -1.
         21    1    1    2  505  504 -0.44275251626E+02 -0.24991434550E+02 -0.78775031185E+02  0.93757001048E+02  0.00000000000E+00 0. -1.
          2    1    1    2  501    0 -0.12887102397E+02  0.46431766140E+02 -0.18572538674E+03  0.19187471328E+03  0.00000000000E+00 0. -1.
<scales pt_clust_3="75.23310" pt_clust_4="14000.00000" pt_clust_5="53.28840" pt_clust_6="48.18699"></scales>
<clustering>
<clus scale="   48.187">  2  6  1 -1</clus>
<clus scale="   53.288">  2  5  1 -1</clus>
<clus scale="   75.233">  1  3  2 -1</clus>
<clus scale="   75.233">  1  3  2 -1</clus>
</clustering>
</event>
<event>
 6    0  0.3082502E+002  0.1406906E+03  0.7546771E-02  0.1212403E+00
          1   -1    0    0  504    0 -0.00000000000E+00  0.00000000000E+00  0.27197451190E+04  0.27197451190E+04  0.00000000000E+00 0.  1.
         21   -1    0    0  501  502  0.00000000000E+00 -0.00000000000E+00 -0.59801524069E+03  0.59801524069E+03  0.00000000000E+00 0. -1.
         21    1    1    2  503  505 -0.14975146451E+03  0.10310944184E+03  0.39078813595E+03  0.43101325422E+03  0.00000000000E+00 0. -1.
         21    1    1    2  504  503  0.24947719055E+02 -0.17262120515E+02  0.57932730252E+03  0.58012110196E+03  0.00000000000E+00 0.  1.
         21    1    1    2  505  502  0.93472700049E+02 -0.10414908748E+03 -0.56883376481E+03  0.58579521172E+03  0.00000000000E+00 0. -1.
          1    1    1    2  501    0  0.31331045403E+02  0.18301766154E+02  0.17204482047E+04  0.17208307918E+04  0.00000000000E+00 0.  1.
<scales pt_clust_3="14000.00000" pt_clust_4="30.33759" pt_clust_5="140.69062" pt_clust_6="51.57969"></scales>
<clustering>
<clus scale="   30.338">  1  4  2 -1</clus>
<clus scale="   51.580">  1  6  2 -1</clus>
<clus scale="  140.691">  2  5  1 -1</clus>
<clus scale="  140.691">  2  3  1 -1</clus>
</clustering>
</event>
<event>
 6    0  0.3082502E+002  0.2167895E+03  0.7546771E-02  0.1136299E+00
         21   -1    0    0  501  502  0.00000000000E+00  0.00000000000E+00  0.11413852984E+03  0.11413852984E+03  0.00000000000E+00 0.  1.
          1   -1    0    0  504    0 -0.00000000000E+00 -0.00000000000E+00 -0.29209033484E+04  0.29209033484E+04  0.00000000000E+00 0. -1.
         21    1    1    2  503  505 -0.18773389316E+03  0.46539381778E+02 -0.64919319172E+02  0.20402070164E+03  0.00000000000E+00 0.  1.
         21    1    1    2  504  503  0.26643274117E+02  0.31852755097E+02 -0.19126628319E+03  0.19572238796E+03  0.00000000000E+00 0. -1.
         21    1    1    2  505  502 -0.29869274855E+02 -0.11769073642E+02  0.31696553401E+02  0.45114921835E+02  0.00000000000E+00 0.  1.
          1    1    1    2  501    0  0.19095989390E+03 -0.66623063233E+02 -0.25822757696E+04  0.25901838668E+04  0.00000000000E+00 0. -1.
<scales pt_clust_3="216.78951" pt_clust_4="40.69976" pt_clust_5="32.10428" pt_clust_6="14000.00000"></scales>
<clustering>
<clus scale="   32.104">  1  5  2 -1</clus>
<clus scale="   40.700">  2  4  1 -1</clus>
<clus scale="  216.790">  1  3  2 -1</clus>
<clus scale="   32.104">  1  3  2 -1</clus>
</clustering>
</event>
<event>
 6    0  0.3082502E+002  0.1087715E+03  0.7546771E-02  0.1262862E+00
         21   -1    0    0  504  502  0.00000000000E+00  0.00000000000E+00  0.19847415766E+03  0.19847415766E+03  0.00000000000E+00 0.  1.
          2   -1    0    0  505    0 -0.00000000000E+00 -0.00000000000E+00 -0.16652794112E+04  0.16652794112E+04  0.00000000000E+00 0.  1.
         21    1    1    2  503  501  0.11859355595E+03  0.89500323832E+02 -0.87090462327E+03  0.88348718288E+03  0.00000000000E+00 0.  1.
         21    1    1    2  504  503 -0.12116781796E+02  0.52690153665E+02  0.15816889602E+03  0.16715402586E+03  0.00000000000E+00 0.  1.
         21    1    1    2  505  502 -0.18013524806E+02 -0.11901387550E+03 -0.11152660264E+03  0.16409440190E+03  0.00000000000E+00 0.  1.
          2    1    1    2  501    0 -0.88463249344E+02 -0.23176601994E+02 -0.64254292370E+03  0.64901795827E+03  0.00000000000E+00 0.  1.
<scales pt_clust_3="14000.00000" pt_clust_4="54.06541" pt_clust_5="84.72883" pt_clust_6="108.77152"></scales>
<clustering>
<clus scale="   54.065">  1  4  2 -1</clus>
<clus scale="   84.729">  1  5  2 -1</clus>
<clus scale="  108.772">  2  6  1 -1</clus>
<clus scale="   54.065">  1  3  2 -1</clus>
</clustering>
</event>
<event>
 6    0  0.3082502E+002  0.1403055E+03  0.7546771E-02  0.1212919E+00
         21   -1    0    0  503  502  0.00000000000E+00  0.00000000000E+00  0.29620557853E+04  0.29620557853E+04  0.00000000000E+00 0.  1.
          2   -1    0    0  504    0 -0.00000000000E+00 -0.00000000000E+00 -0.57544251599E+03  0.57544251599E+03  0.00000000000E+00 0. -1.
         21    1    1    2  503  501  0.12142888461E+03 -0.78895335481E+02  0.19453150656E+04  0.19506973503E+04  0.00000000000E+00 0.  1.
         21    1    1    2  504  505 -0.31865176606E+02 -0.27171924277E+02 -0.11168053092E+03  0.11927381915E+03  0.00000000000E+00 0.  1.
         21    1    1    2  505  502 -0.57393316445E+02  0.13712082678E+03  0.10036726999E+04  0.10146206199E+04  0.00000000000E+00 0. -1.
          2    1    1    2  501    0 -0.32170391556E+02 -0.31053567022E+02 -0.45069396531E+03  0.45290651186E+03  0.00000000000E+00 0. -1.
<scales pt_clust_3="14000.00000" pt_clust_4="41.87724" pt_clust_5="140.30546" pt_clust_6="85.80618"></scales>
<clustering>
<clus scale="   41.877">  2  4  1 -1</clus>
<clus scale="   85.806">  2  6  1 -1</clus>
<clus scale="  140.305">  2  5  1 -1</clus>
<clus scale="  140.305">  1  3  2 -1</clus>
</clustering>
</event>
<event>
 6    0  0.3082502E+002  0.8292641E+02  0.7546771E-02  0.1320946E+00
          2   -1    0    0  504    0 -0.00000000000E+00  0.00000000000E+00  0.17607448357E+04  0.17607448357E+04  0.00000000000E+00 0.  1.
         21   -1    0    0  503  502  0.00000000000E+00 -0.00000000000E+00 -0.80245902799E+02  0.80245902799E+02  0.00000000000E+00 0.  1.
         21    1    1    2  503  505 -0.15735590898E+02 -0.72878113997E+02 -0.20862677849E+02  0.77421441782E+02  0.00000000000E+00 0.  1.
         21    1    1    2  504  502 -0.67335000216E+02 -0.10172606895E+02  0.25764212976E+03  0.26649005837E+03  0.00000000000E+00 0. -1.
         21    1    1    2  505  501  0.32730820164E+02  0.13300160131E+03  0.15676772949E+03  0.20817505506E+03  0.00000000000E+00 0. -1.
          2    1    1    2  501    0  0.50339770950E+02 -0.49950880420E+02  0.12869517515E+04  0.12889041833E+04  0.00000000000E+00 0.  1.
<scales pt_clust_3="82.92641" pt_clust_4="68.09908" pt_clust_5="14000.00000" pt_clust_6="59.17356"></scales>
<clustering>
<clus scale="   68.099">  1  4  2 -1</clus>
<clus scale="   59.174">  1  6  2 -1</clus>
<clus scale="   82.926">  2  3  1 -1</clus>
<clus scale="   82.926">  2  3  1 -1</clus>
</clustering>
</event>
<event>
 6    0  0.3082502E+002  0.1015101E+03  0.7546771E-02  0.1277152E+00
         21   -1    0    0  505  502  0.00000000000E+00  0.00000000000E+00  0.45725220646E+03  0.45725220646E+03  0.00000000000E+00 0.  1.
          2   -1    0    0  504    0 -0.00000000000E+00 -0.00000000000E+00 -0.41904144253E+03  0.41904144253E+03  0.00000000000E+00 0.  1.
         21    1    1    2  503  502 -0.27301068048E+02  0.24378527638E+02  0.23707015113E+03  0.23987896424E+03  0.00000000000E+00 0.  1.
         21    1    1    2  504  503 -0.95309578962E+02  0.14845961773E+02 -0.32334057337E+03  0.33742176102E+03  0.00000000000E+00 0.  1.
         21    1    1    2  505  501 -0.42487607243E+02  0.36811593376E+02  0.10116796662E+03  0.11573784017E+03  0.00000000000E+00 0.  1.
          2    1    1    2  501    0  0.16509825425E+03 -0.76036082787E+02  0.23313219549E+02  0.18325508356E+03  0.00000000000E+00 0.  1.
<scales pt_clust_3="36.60138" pt_clust_4="101.51015" pt_clust_5="74.35903" pt_clust_6="14000.00000"></scales>
<clustering>
<clus scale="   36.601">  1  3  2 -1</clus>
<clus scale="   74.359">  1  5  2 -1</clus>
<clus scale="  101.510">  2  4  1 -1</clus>
<clus scale="   36.601">  1  3  2 -1</clus>
</clustering>
</event>
<event>
 6    0  0.3082502E+002  0.1355074E+03  0.7546771E-02  0.1219505E+00
         21   -1    0    0  505  502  0.00000000000E+00  0.00000000000E+00  0.59996396401E+03  0.59996396401E+03  0.00000000000E+00 0. -1.
          2   -1    0    0  504    0 -0.00000000000E+00 -0.00000000000E+00 -0.11027140459E+04  0.11027140459E+04  0.00000000000E+00 0.  1.
         21    1    1    2  503  502 -0.28211482622E+02 -0.10023528993E+03  0.20395023940E+03  0.22899498084E+03  0.00000000000E+00 0. -1.
         21    1    1    2  504  503  0.30693283671E+02 -0.51175622123E+01 -0.51370701925E+02  0.60060104244E+02  0.00000000000E+00 0.  1.
         21    1    1    2  505  501 -0.18780818560E+02 -0.28345572732E+02  0.37398800796E+03  0.37553058562E+03  0.00000000000E+00 0. -1.
          2    1    1    2  501    0  0.16299017511E+02  0.13369842488E+03 -0.10293176273E+04  0.10380923392E+04  0.00000000000E+00 0.  1.
<scales pt_clust_3="135.50744" pt_clust_4="31.11699" pt_clust_5="33.99346" pt_clust_6="14000.00000"></scales>
<clustering>
<clus scale="   31.117">  2  4  1 -1</clus>
<clus scale="   33.993">  1  5  2 -1</clus>
<clus scale="  135.507">  1  3  2 -1</clus>
<clus scale="   33.993">  1  3  2 -1</clus>
</clustering>
</event>
<event>
 6    0  0.3082502E+002  0.1022691E+03  0.7546771E-02  0.1275595E+00
         21   -1    0    0  504  502  0.00000000000E+00  0.00000000000E+00  0.39793927108E+03  0.39793927108E+03  0.00000000000E+00 0.  1.
         -4   -1    0    0    0  501 -0.00000000000E+00 -0.00000000000E+00 -0.12415559402E+03  0.12415559402E+03  0.00000000000E+00 0.  1.
         21    1    1    2  503  501 -0.11693388964E+02 -0.29008661249E+02  0.10957158388E+02  0.33140565669E+02  0.00000000000E+00 0.  1.
         21    1    1    2  504  503  0.16123867039E+02 -0.30485181236E+02  0.22209203964E+03  0.22475364165E+03  0.00000000000E+00 0.  1.
         21    1    1    2  505  502  0.92473682022E+02  0.18003228681E+02  0.10474144100E+03  0.14087678152E+03  0.00000000000E+00 0.  1.
         -4    1    1    2    0  505 -0.96904160097E+02  0.41490613804E+02 -0.64006961959E+02  0.12332387627E+03  0.00000000000E+00 0.  1.
<scales pt_clust_3="31.27679" pt_clust_4="34.72521" pt_clust_5="14000.00000" pt_clust_6="102.26910"></scales>
<clustering>
<clus scale="   31.277">  2  3  1 -1</clus>
<clus scale="   34.725">  1  4  2 -1</clus>
<clus scale="  102.269">  2  6  1 -1</clus>
<clus scale="   34.725">  1  3  2 -1</clus>
</clustering>
</event>
<event>
 6    0  0.3082502E+002  0.1018675E+03  0.7546771E-02  0.1276417E+00
         21   -1    0    0  503  502  0.00000000000E+00  0.00000000000E+00  0.15144189048E+04  0.15144189048E+04  0.00000000000E+00 0. -1.
         -4   -1    0    0    0  501 -0.00000000000E+00 -0.00000000000E+00 -0.44026618338E+02  0.44026618338E+02  0.00000000000E+00 0. -1.
         21    1    1    2  503  505  0.93404487447E+02 -0.46078972728E+01  0.62815714468E+03  0.63508033303E+03  0.00000000000E+00 0. -1.
         21    1    1    2  504  502 -0.27779451073E+02  0.18768493047E+02  0.58608148003E+03  0.58703956891E+03  0.00000000000E+00 0. -1.
         21    1    1    2  505  501 -0.53422502748E+02  0.92432393544E+02  0.15942643300E+03  0.19187104710E+03  0.00000000000E+00 0. -1.
         -4    1    1    2    0  504 -0.12202533627E+02 -0.10659298932E+03  0.96727228790E+02  0.14445457413E+03  0.00000000000E+00 0. -1.
<scales pt_clust_3="74.94074" pt_clust_4="33.52543" pt_clust_5="14000.00000" pt_clust_6="101.86753"></scales>
<clustering>
<clus scale="   33.525">  1  4  2 -1</clus>
<clus scale="   74.941">  1  3  2 -1</clus>
<clus scale="  101.868">  2  6  1 -1</clus>
<clus scale="   33.525">  1  3  2 -1</clus>
</clustering>
</event>
<event>
 6    0  0.3082502E+002  0.1215569E+03  0.7546771E-02  0.1240551E+00
          2   -1    0    0  505    0 -0.00000000000E+00  0.00000000000E+00  0.55013696580E+03  0.55013696580E+03  0.00000000000E+00 0. -1.
         21   -1    0    0  501  502  0.00000000000E+00 -0.00000000000E+00 -0.17949791111E+03  0.17949791111E+03  0.00000000000E+00 0.  1.
         21    1    1    2  503  504  0.75684679215E+02 -0.19299611714E+02  0.62735776788E+02  0.10018195132E+03  0.00000000000E+00 0. -1.
         21    1    1    2  504  502 -0.20259512473E+02  0.14552674644E+03 -0.74796201249E+02  0.16487253712E+03  0.00000000000E+00 0.  1.
         21    1    1    2  505  503 -0.40016751760E+01 -0.39498551637E+02  0.35875962505E+03  0.36094960528E+03  0.00000000000E+00 0. -1.
          2    1    1    2  501    0 -0.51423491565E+02 -0.86728583093E+02  0.23939854102E+02  0.10363078319E+03  0.00000000000E+00 0. -1.
<scales pt_clust_3="82.35817" pt_clust_4="14000.00000" pt_clust_5="39.70074" pt_clust_6="121.55686"></scales>
<clustering>
<clus scale="   39.701">  1  5  2 -1</clus>
<clus scale="   82.358">  1  3  2 -1</clus>
<clus scale="  121.557">  1  6  2 -1</clus>
<clus scale="  121.557">  2  3  1 -1</clus>
</clustering>
</event>
<event>
 6    0  0.3082502E+002  0.1825319E+03  0.7546771E-02  0.1165375E+00
          2   -1    0    0  503    0 -0.00000000000E+00  0.00000000000E+00  0.56941624608E+03  0.56941624608E+03  0.00000000000E+00 0.  1.
         21   -1    0    0  504  502  0.00000000000E+00 -0.00000000000E+00 -0.19156969173E+03  0.19156969173E+03  0.00000000000E+00 0. -1.
         21    1    1    2  503  502 -0.13003834921E+03 -0.11794189272E+03  0.27540839437E+03  0.32660380587E+03  0.00000000000E+00 0. -1.
         21    1    1    2  504  505  0.37262511668E+02 -0.26360863451E+02 -0.13085425195E+03  0.13858652586E+03  0.00000000000E+00 0. -1.
         21    1    1    2  505  501  0.30081391446E+02  0.21509325019E+02  0.20614005970E+02  0.42337671360E+02  0.00000000000E+00 0. -1.
          2    1    1    2  501    0  0.62694446096E+02  0.12279343115E+03  0.21267840597E+03  0.25345793472E+03  0.00000000000E+00 0.  1.
<scales pt_clust_3="172.27553" pt_clust_4="45.64417" pt_clust_5="31.24211" pt_clust_6="31.24211"></scales>
<clustering>
<clus scale="   31.242">  5  6 -1 -1</clus>
<clus scale="   45.644">  2  4  1 -1</clus>
<clus scale="  172.276">  1  3  2 -1</clus>
<clus scale="   45.644">  2  3  1 -1</clus>
</clustering>
</event>
<event>
 6    0  0.3082502E+002  0.6428009E+02  0.7546771E-02  0.1380700E+00
         -2   -1    0    0    0  501 -0.00000000000E+00  0.00000000000E+00  0.52277962888E+03  0.52277962888E+03  0.00000000000E+00 0. -1.
         21   -1    0    0  504  502  0.00000000000E+00 -0.00000000000E+00 -0.95231906240E+02  0.95231906240E+02  0.00000000000E+00 0. -1.
         21    1    1    2  503  501 -0.40850324544E+02 -0.27207665379E+02  0.92770782568E+02  0.10495439090E+03  0.00000000000E+00 0.  1.
         21    1    1    2  504  503  0.23254543586E+02  0.56878412009E+02  0.15156566793E+02  0.63290197242E+02  0.00000000000E+00 0. -1.
         21    1    1    2  505  502  0.31098926548E+02 -0.91567516130E+02 -0.24584457932E+02  0.99780503178E+02  0.00000000000E+00 0. -1.
         -2    1    1    2    0  505 -0.13503145590E+02  0.61896769500E+02  0.34420483121E+03  0.34998644380E+03  0.00000000000E+00 0. -1.
<scales pt_clust_3="49.08163" pt_clust_4="57.74415" pt_clust_5="64.28009" pt_clust_6="14000.00000"></scales>
<clustering>
<clus scale="   49.082">  1  3  2 -1</clus>
<clus scale="   57.744">  2  4  1 -1</clus>
<clus scale="   64.280">  2  5  1 -1</clus>
<clus scale="   57.744">  2  3  1 -1</clus>
</clustering>
</event>
<event>
 6    0  0.3082502E+002  0.1181695E+03  0.7546771E-02  0.1246148E+00
          3   -1    0    0  505    0 -0.00000000000E+00  0.00000000000E+00  0.20667794497E+04  0.20667794497E+04  0.00000000000E+00 0. -1.
         21   -1    0    0  501  502  0.00000000000E+00 -0.00000000000E+00 -0.47104825647E+02  0.47104825647E+02  0.00000000000E+00 0. -1.
         21    1    1    2  503  502 -0.24603645852E+02 -0.37905186888E+02  0.31131143759E+01  0.45297175004E+02  0.00000000000E+00 0. -1.
         21    1    1    2  504  503  0.20526373880E+02 -0.65195039661E+02  0.35917293010E+02  0.77212545342E+02  0.00000000000E+00 0. -1.
         21    1    1    2  505  504 -0.29332709000E+02 -0.26033841843E+02  0.10987833621E+04  0.10994830811E+04  0.00000000000E+00 0.  1.
          3    1    1    2  501    0  0.33409980972E+02  0.12913406839E+03  0.88186085461E+03  0.89189147397E+03  0.00000000000E+00 0. -1.
<scales pt_clust_3="43.46900" pt_clust_4="43.46900" pt_clust_5="39.21949" pt_clust_6="105.47535"></scales>
<clustering>
<clus scale="   39.219">  1  5  2 -1</clus>
<clus scale="   43.469">  3  4 -1 -1</clus>
<clus scale="  105.475">  1  6  2 -1</clus>
<clus scale="  118.169">  2  3  1 -1</clus>
</clustering>
</event>
<event>
 6    0  0.3082502E+002  0.1043648E+03  0.7546771E-02  0.1271376E+00
          2   -1    0    0  504    0 -0.00000000000E+00  0.00000000000E+00  0.44408436797E+03  0.44408436797E+03  0.00000000000E+00 0. -1.
         21   -1    0    0  503  502  0.00000000000E+00 -0.00000000000E+00 -0.55061265115E+03  0.55061265115E+03  0.00000000000E+00 0.  1.
         21    1    1    2  503  501  0.10808797423E+03  0.24953192487E+02 -0.10794413992E+02  0.11145488487E+03  0.00000000000E+00 0.  1.
         21    1    1    2  504  505 -0.18823127207E+02 -0.25509553380E+02  0.17350123675E+02  0.36139648906E+02  0.00000000000E+00 0. -1.
         21    1    1    2  505  502 -0.19879993048E+01 -0.34453233648E+02 -0.47343120327E+03  0.47468735150E+03  0.00000000000E+00 0.  1.
          2    1    1    2  501    0 -0.87276847721E+02  0.35009594541E+02  0.36034721041E+03  0.37241513383E+03  0.00000000000E+00 0. -1.
<scales pt_clust_3="14000.00000" pt_clust_4="31.70248" pt_clust_5="34.55051" pt_clust_6="104.36480"></scales>
<clustering>
<clus scale="   31.702">  1  4  2 -1</clus>
<clus scale="   34.551">  2  5  1 -1</clus>
<clus scale="  104.365">  1  6  2 -1</clus>
<clus scale="   34.551">  2  3  1 -1</clus>
</clustering>
</event>
<event>
 6    0  0.3082502E+002  0.8864746E+02  0.7546771E-02  0.1306161E+00
          2   -1    0    0  505    0 -0.00000000000E+00  0.00000000000E+00  0.40014723022E+03  0.40014723022E+03  0.00000000000E+00 0.  1.
         21   -1    0    0  503  502  0.00000000000E+00 -0.00000000000E+00 -0.89631862772E+03  0.89631862772E+03  0.00000000000E+00 0.  1.
         21    1    1    2  503  504  0.89695416770E+01  0.31257137717E+02 -0.82392703158E+03  0.82456850213E+03  0.00000000000E+00 0.  1.
         21    1    1    2  504  501 -0.23917182123E+01 -0.92664095744E+02  0.24703928729E+00  0.92695285665E+02  0.00000000000E+00 0.  1.
         21    1    1    2  505  502 -0.47843605242E+02 -0.17698744127E+02  0.13506608669E+02  0.52770110706E+02  0.00000000000E+00 0.  1.
          2    1    1    2  501    0  0.41265781777E+02  0.79105702154E+02  0.31400198612E+03  0.32643195944E+03  0.00000000000E+00 0.  1.
<scales pt_clust_3="32.51863" pt_clust_4="14000.00000" pt_clust_5="46.32003" pt_clust_6="88.64746"></scales>
<clustering>
<clus scale="   32.519">  2  3  1 -1</clus>
<clus scale="   46.320">  2  5  1 -1</clus>
<clus scale="   88.647">  1  6  2 -1</clus>
<clus scale="   32.519">  2  3  1 -1</clus>
</clustering>
</event>
<event>
 6    0  0.3082502E+002  0.8871398E+02  0.7546771E-02  0.1305996E+00
         21   -1    0    0  503  502  0.00000000000E+00  0.00000000000E+00  0.18886706192E+04  0.18886706192E+04  0.00000000000E+00 0. -1.
         -1   -1    0    0    0  501 -0.00000000000E+00 -0.00000000000E+00 -0.83713357931E+03  0.83713357931E+03  0.00000000000E+00 0. -1.
         21    1    1    2  503  501 -0.30128178278E+02  0.44670643800E+02  0.25273796152E+03  0.25841758984E+03  0.00000000000E+00 0. -1.
         21    1    1    2  504  502  0.29742344776E+02  0.17137537424E+02  0.15951143396E+04  0.15954836441E+04  0.00000000000E+00 0. -1.
         21    1    1    2  505  504 -0.72510933124E+02 -0.69368264071E+01 -0.25245121543E+01  0.72885719758E+02  0.00000000000E+00 0.  1.
         -1    1    1    2    0  505  0.72896766626E+02 -0.54871354817E+02 -0.79379074907E+03  0.79901724479E+03  0.00000000000E+00 0. -1.
<scales pt_clust_3="59.74945" pt_clust_4="34.32641" pt_clust_5="88.71398" pt_clust_6="14000.00000"></scales>
<clustering>
<clus scale="   34.326">  1  4  2 -1</clus>
<clus scale="   59.749">  1  3  2 -1</clus>
<clus scale="   88.714">  1  5  2 -1</clus>
<clus scale="   34.326">  1  3  2 -1</clus>
</clustering>
</event>
<event>
 6    0  0.3082502E+002  0.1196263E+03  0.7546771E-02  0.1243715E+00
         -3   -1    0    0    0  501 -0.00000000000E+00  0.00000000000E+00  0.10515410446E+04  0.10515410446E+04  0.00000000000E+00 0. -1.
         21   -1    0    0  504  502  0.00000000000E+00 -0.00000000000E+00 -0.21264295893E+02  0.21264295893E+02  0.00000000000E+00 0. -1.
         21    1    1    2  503  502 -0.39337601170E+02  0.11781158782E+01  0.58531270547E+02  0.70531868362E+02  0.00000000000E+00 0. -1.
         21    1    1    2  504  505  0.39759111134E+02  0.61661636479E+02  0.20978343116E+03  0.22224318285E+03  0.00000000000E+00 0. -1.
         21    1    1    2  505  501 -0.52737127855E+01  0.49683174712E+02  0.15988628214E+03  0.16751075522E+03  0.00000000000E+00 0.  1.
         -3    1    1    2    0  503  0.48522028210E+01 -0.11252292707E+03  0.60207576488E+03  0.61251953410E+03  0.00000000000E+00 0. -1.
<scales pt_clust_3="39.35524" pt_clust_4="33.67765" pt_clust_5="33.67765" pt_clust_6="112.44964"></scales>
<clustering>
<clus scale="   33.678">  4  5 -1 -1</clus>
<clus scale="   39.355">  2  3  1 -1</clus>
<clus scale="  112.450">  1  6  2 -1</clus>
<clus scale="   39.355">  2  3  1 -1</clus>
</clustering>
</event>
<event>
 6    0  0.3082502E+002  0.1565028E+03  0.7546771E-02  0.1192703E+00
          3   -1    0    0  505    0 -0.00000000000E+00  0.00000000000E+00  0.50810477607E+03  0.50810477607E+03  0.00000000000E+00 0.  1.
         21   -1    0    0  501  502  0.00000000000E+00 -0.00000000000E+00 -0.38475782367E+03  0.38475782367E+03  0.00000000000E+00 0.  1.
         21    1    1    2  503  504  0.97031355238E+02 -0.14010910777E+03 -0.20586288465E+03  0.26725488443E+03  0.00000000000E+00 0.  1.
         21    1    1    2  504  502 -0.58804128784E+01  0.30505398270E+02 -0.66873340119E+02  0.73737386704E+02  0.00000000000E+00 0. -1.
         21    1    1    2  505  503  0.62246615337E+02 -0.95958788383E+02  0.60200958641E+02  0.12925511831E+03  0.00000000000E+00 0.  1.
          3    1    1    2  501    0 -0.15339755770E+03  0.20556249788E+03  0.33588221852E+03  0.42261521028E+03  0.00000000000E+00 0.  1.
<scales pt_clust_3="14000.00000" pt_clust_4="31.06700" pt_clust_5="111.22569" pt_clust_6="156.50280"></scales>
<clustering>
<clus scale="   31.067">  2  4  1 -1</clus>
<clus scale="  111.226">  1  5  2 -1</clus>
<clus scale="  156.503">  1  6  2 -1</clus>
<clus scale="   31.067">  2  3  1 -1</clus>
</clustering>
</event>
<event>
 6    0  0.3082502E+002  0.7779920E+02  0.7546771E-02  0.1335416E+00
          2   -1    0    0  503    0 -0.00000000000E+00  0.00000000000E+00  0.90570434105E+03  0.90570434105E+03  0.00000000000E+00 0. -1.
         21   -1    0    0  501  502  0.00000000000E+00 -0.00000000000E+00 -0.28719114956E+02  0.28719114956E+02  0.00000000000E+00 0. -1.
         21    1    1    2  503  505 -0.14485986014E+02  0.54083348796E+02  0.37892808321E+03  0.38304222306E+03  0.00000000000E+00 0. -1.
         21    1    1    2  504  502  0.82841912038E+01  0.76410770268E+02  0.17141826019E+03  0.18786019686E+03  0.00000000000E+00 0.  1.
         21    1    1    2  505  504 -0.37877093780E+02 -0.83400385907E+02  0.22746408928E+03  0.24521462133E+03  0.00000000000E+00 0. -1.
          2    1    1    2  501    0  0.44078888590E+02 -0.47093733157E+02  0.99174793412E+02  0.11830641475E+03  0.00000000000E+00 0. -1.
<scales pt_clust_3="55.98975" pt_clust_4="77.79920" pt_clust_5="14000.00000" pt_clust_6="54.54443"></scales>
<clustering>
<clus scale="   55.990">  1  3  2 -1</clus>
<clus scale="   54.544">  2  6  1 -1</clus>
<clus scale="   77.799">  2  4  1 -1</clus>
<clus scale="   54.544">  2  3  1 -1</clus>
</clustering>
</event>
<event>
 6    0  0.3082502E+002  0.1461006E+03  0.7546771E-02  0.1205348E+00
         21   -1    0    0  505  502  0.00000000000E+00  0.00000000000E+00  0.49016336906E+03  0.49016336906E+03  0.00000000000E+00 0. -1.
          2   -1    0    0  503    0 -0.00000000000E+00 -0.00000000000E+00 -0.82014799126E+03  0.82014799126E+03  0.00000000000E+00 0.  1.
         21    1    1    2  503  504  0.96357805204E+01 -0.97094040747E+02 -0.86675107239E+02  0.13050929174E+03  0.00000000000E+00 0.  1.
         21    1    1    2  504  502  0.30401116647E+02 -0.85690430756E+02  0.11717471766E+03  0.14831383036E+03  0.00000000000E+00 0. -1.
         21    1    1    2  505  501  0.24418922389E+02  0.24539362057E+02  0.32407889931E+03  0.32592268568E+03  0.00000000000E+00 0. -1.
          2    1    1    2  501    0 -0.64455819556E+02  0.15824510945E+03 -0.68456313193E+03  0.70556555254E+03  0.00000000000E+00 0.  1.
<scales pt_clust_3="146.10059" pt_clust_4="82.79156" pt_clust_5="34.61884" pt_clust_6="14000.00000"></scales>
<clustering>
<clus scale="   34.619">  1  5  2 -1</clus>
<clus scale="   82.792">  1  4  2 -1</clus>
<clus scale="  146.101">  1  3  2 -1</clus>
<clus scale="   34.619">  1  3  2 -1</clus>
</clustering>
</event>
<event>
 6    0  0.3082502E+002  0.3508871E+03  0.7546771E-02  0.1062252E+00
          2   -1    0    0  503    0 -0.00000000000E+00  0.00000000000E+00  0.22988056894E+04  0.22988056894E+04  0.00000000000E+00 0.  1.
         21   -1    0    0  501  502  0.00000000000E+00 -0.00000000000E+00 -0.13617592469E+03  0.13617592469E+03  0.00000000000E+00 0.  1.
         21    1    1    2  503  504  0.42327754007E+01  0.37503393415E+02  0.15626078076E+03  0.16075401242E+03  0.00000000000E+00 0.  1.
         21    1    1    2  504  505 -0.11130586381E+03  0.30047382597E+03  0.53617477306E+03  0.62462540989E+03  0.00000000000E+00 0.  1.
         21    1    1    2  505  502 -0.37552772607E+02 -0.44435272841E+02 -0.60727023056E+02  0.84098011463E+02  0.00000000000E+00 0.  1.
          2    1    1    2  501    0  0.14462586102E+03 -0.29354194654E+03  0.15309212340E+04  0.15655041803E+04  0.00000000000E+00 0.  1.
<scales pt_clust_3="37.05999" pt_clust_4="37.05999" pt_clust_5="58.17821" pt_clust_6="333.85801"></scales>
<clustering>
<clus scale="   37.060">  3  4 -1 -1</clus>
<clus scale="   58.178">  2  5  1 -1</clus>
<clus scale="  333.858">  1  6  2 -1</clus>
<clus scale="   58.178">  2  3  1 -1</clus>
</clustering>
</event>
<event>
 6    0  0.3082502E+002  0.1155784E+03  0.7546771E-02  0.1250575E+00
          1   -1    0    0  504    0 -0.00000000000E+00  0.00000000000E+00  0.20721574842E+04  0.20721574842E+04  0.00000000000E+00 0.  1.
         21   -1    0    0  501  502  0.00000000000E+00 -0.00000000000E+00 -0.17977814522E+03  0.17977814522E+03  0.00000000000E+00 0. -1.
         21    1    1    2  503  502  0.15306685640E+02 -0.26612680973E+02 -0.14852434644E+03  0.15166413847E+03  0.00000000000E+00 0. -1.
         21    1    1    2  504  505 -0.21514408697E+02  0.51052138665E+02  0.85009853985E+03  0.85190182421E+03  0.00000000000E+00 0. -1.
         21    1    1    2  505  503 -0.59644483438E+02 -0.86606166553E+02  0.75645530827E+02  0.12953894713E+03  0.00000000000E+00 0. -1.
          1    1    1    2  501    0  0.65852206495E+02  0.62166708861E+02  0.11151596147E+04  0.11188307196E+04  0.00000000000E+00 0.  1.
<scales pt_clust_3="30.70064" pt_clust_4="54.47493" pt_clust_5="115.57845" pt_clust_6="14000.00000"></scales>
<clustering>
<clus scale="   30.701">  2  3  1 -1</clus>
<clus scale="   54.475">  1  4  2 -1</clus>
<clus scale="  115.578">  2  5  1 -1</clus>
<clus scale="   30.701">  2  3  1 -1</clus>
</clustering>
</event>
<event>
 6    0  0.3082502E+002  0.2350935E+03  0.7546771E-02  0.1123105E+00
          1   -1    0    0  504    0 -0.00000000000E+00  0.00000000000E+00  0.34264979191E+03  0.34264979191E+03  0.00000000000E+00 0.  1.
         21   -1    0    0  501  502  0.00000000000E+00 -0.00000000000E+00 -0.35607931877E+03  0.35607931877E+03  0.00000000000E+00 0.  1.
         21    1    1    2  503  502  0.23536516624E+02 -0.60698190193E+02 -0.76151761000E+02  0.10018646920E+03  0.00000000000E+00 0.  1.
         21    1    1    2  504  505  0.50220472307E+02 -0.35648179773E+02  0.21944004940E+02  0.65379109146E+02  0.00000000000E+00 0.  1.
         21    1    1    2  505  503  0.18270060646E+03  0.11380896780E+03  0.14094119801E+03  0.25728663791E+03  0.00000000000E+00 0.  1.
          1    1    1    2  501    0 -0.25645759539E+03 -0.17462597833E+02 -0.10016296881E+03  0.27587689442E+03  0.00000000000E+00 0.  1.
<scales pt_clust_3="67.18127" pt_clust_4="61.58643" pt_clust_5="235.09351" pt_clust_6="14000.00000"></scales>
<clustering>
<clus scale="   61.586">  1  4  2 -1</clus>
<clus scale="   67.181">  2  3  1 -1</clus>
<clus scale="  235.094">  1  5  2 -1</clus>
<clus scale="   67.181">  2  3  1 -1</clus>
</clustering>
</event>
<event>
 6    0  0.3082502E+002  0.8977078E+02  0.7546771E-02  0.1303408E+00
         -4   -1    0    0    0  501 -0.00000000000E+00  0.00000000000E+00  0.12002313548E+03  0.12002313548E+03  0.00000000000E+00 0. -1.
         21   -1    0    0  505  502  0.00000000000E+00 -0.00000000000E+00 -0.18225917217E+03  0.18225917217E+03  0.00000000000E+00 0. -1.
         21    1    1    2  503  504 -0.47441383734E+02  0.23947147269E+02 -0.91939801268E+01  0.53932179851E+02  0.00000000000E+00 0.  1.
         21    1    1    2  504  501  0.15593284833E+02 -0.27744123906E+02  0.32372787122E+02  0.45396963437E+02  0.00000000000E+00 0.  1.
         21    1    1    2  505  503  0.36137171190E+02  0.88561975933E+02 -0.65038044882E+02  0.11566791260E+03  0.00000000000E+00 0. -1.
         -4    1    1    2    0  502 -0.42890722895E+01 -0.84764999295E+02 -0.20376798797E+02  0.87285251766E+02  0.00000000000E+00 0. -1.
<scales pt_clust_3="46.11840" pt_clust_4="31.82588" pt_clust_5="14000.00000" pt_clust_6="89.77078"></scales>
<clustering>
<clus scale="   31.826">  1  4  2 -1</clus>
<clus scale="   46.118">  1  3  2 -1</clus>
<clus scale="   89.771">  1  6  2 -1</clus>
<clus scale="   89.771">  2  3  1 -1</clus>
</clustering>
</event>
<event>
 6    0  0.3082502E+002  0.8345516E+02  0.7546771E-02  0.1319523E+00
          2   -1    0    0  505    0 -0.00000000000E+00  0.00000000000E+00  0.26484433123E+04  0.26484433123E+04  0.00000000000E+00 0.  1.
         21   -1    0    0  504  502  0.00000000000E+00 -0.00000000000E+00 -0.25298912791E+03  0.25298912791E+03  0.00000000000E+00 0. -1.
         21    1    1    2  503  502  0.23855102128E+02  0.63480229065E+02 -0.23225550788E+03  0.24195335567E+03  0.00000000000E+00 0. -1.
         21    1    1    2  504  501 -0.65105846854E+02  0.83625677676E+01  0.70338149917E+02  0.96208934969E+02  0.00000000000E+00 0.  1.
         21    1    1    2  505  503 -0.43350264980E+02  0.59606448047E+01  0.32381169950E+03  0.32675494104E+03  0.00000000000E+00 0.  1.
          2    1    1    2  501    0  0.84601009705E+02 -0.77803441638E+02  0.22335598428E+04  0.22365152085E+04  0.00000000000E+00 0.  1.
<scales pt_clust_3="83.45516" pt_clust_4="67.20917" pt_clust_5="43.75814" pt_clust_6="14000.00000"></scales>
<clustering>
<clus scale="   43.758">  1  5  2 -1</clus>
<clus scale="   67.209">  2  4  1 -1</clus>
<clus scale="   83.455">  2  3  1 -1</clus>
<clus scale="   67.209">  2  3  1 -1</clus>
</clustering>
</event>
<event>
 6    0  0.3082502E+002  0.7915713E+02  0.7546771E-02  0.1331461E+00
         -2   -1    0    0    0  501 -0.00000000000E+00  0.00000000000E+00  0.37936716652E+03  0.37936716652E+03  0.00000000000E+00 0. -1.
         21   -1    0    0  504  502  0.00000000000E+00 -0.00000000000E+00 -0.12201065815E+04  0.12201065815E+04  0.00000000000E+00 0.  1.
         21    1    1    2  503  502 -0.28426432268E+02 -0.15086472895E+02 -0.99417298828E+03  0.99469371886E+03  0.00000000000E+00 0.  1.
         21    1    1    2  504  501  0.81442192868E+02 -0.21788328366E+02 -0.15994356871E+03  0.18080239823E+03  0.00000000000E+00 0.  1.
         21    1    1    2  505  503 -0.49608567248E+02 -0.45548716633E+02 -0.27880694020E+02  0.72890524970E+02  0.00000000000E+00 0. -1.
         -2    1    1    2    0  505 -0.34071933524E+01  0.82423517894E+02  0.34125783607E+03  0.35108710593E+03  0.00000000000E+00 0. -1.
<scales pt_clust_3="32.18173" pt_clust_4="68.54604" pt_clust_5="79.15713" pt_clust_6="14000.00000"></scales>
<clustering>
<clus scale="   32.182">  2  3  1 -1</clus>
<clus scale="   68.546">  2  4  1 -1</clus>
<clus scale="   79.157">  2  5  1 -1</clus>
<clus scale="   32.182">  2  3  1 -1</clus>
</clustering>
</event>
<event>
 6    0  0.3082502E+002  0.8032889E+02  0.7546771E-02  0.1328121E+00
         21   -1    0    0  505  502  0.00000000000E+00  0.00000000000E+00  0.27190147453E+03  0.27190147453E+03  0.00000000000E+00 0. -1.
          2   -1    0    0  503    0 -0.00000000000E+00 -0.00000000000E+00 -0.45277443462E+03  0.45277443462E+03  0.00000000000E+00 0. -1.
         21    1    1    2  503  502  0.33403896769E+02  0.21674832361E+02 -0.11414111784E+03  0.12088760672E+03  0.00000000000E+00 0.  1.
         21    1    1    2  504  501  0.51911719183E+02  0.53403910977E+02  0.36636235049E+02  0.83000108523E+02  0.00000000000E+00 0. -1.
         21    1    1    2  505  504 -0.24077102139E+02  0.20772415768E+02  0.19702866301E+03  0.19957829079E+03  0.00000000000E+00 0. -1.
          2    1    1    2  501    0 -0.61238513812E+02 -0.95851159106E+02 -0.30039674031E+03  0.32120990313E+03  0.00000000000E+00 0. -1.
<scales pt_clust_3="39.43717" pt_clust_4="14000.00000" pt_clust_5="31.79937" pt_clust_6="80.32889"></scales>
<clustering>
<clus scale="   31.799">  1  5  2 -1</clus>
<clus scale="   39.437">  2  3  1 -1</clus>
<clus scale="   80.329">  2  6  1 -1</clus>
<clus scale="   31.799">  1  3  2 -1</clus>
</clustering>
</event>
<event>
 6    0  0.3082502E+002  0.1244471E+03  0.7546771E-02  0.1235936E+00
         21   -1    0    0  504  502  0.00000000000E+00  0.00000000000E+00  0.55325506988E+03  0.55325506988E+03  0.00000000000E+00 0.  1.
          2   -1    0    0  503    0 -0.00000000000E+00 -0.00000000000E+00 -0.14010506314E+04  0.14010506314E+04  0.00000000000E+00 0.  1.
         21    1    1    2  503  505 -0.24443619965E+02  0.52989057212E+02 -0.52446383875E+03  0.52770034006E+03  0.00000000000E+00 0. -1.
         21    1    1    2  504  501  0.40155126499E+02 -0.41850326348E+02  0.54097497784E+03  0.54407518841E+03  0.00000000000E+00 0.  1.
         21    1    1    2  505  502 -0.15542068518E+02  0.81268433013E+02 -0.32519010497E+03  0.33555136488E+03  0.00000000000E+00 0.  1.
          2    1    1    2  501    0 -0.16943801620E+00 -0.92407163877E+02 -0.53911659567E+03  0.54697880798E+03  0.00000000000E+00 0.  1.
<scales pt_clust_3="50.86029" pt_clust_4="57.99900" pt_clust_5="50.86029" pt_clust_6="108.71668"></scales>
<clustering>
<clus scale="   50.860">  3  5 -1 -1</clus>
<clus scale="   57.999">  1  4  2 -1</clus>
<clus scale="  108.717">  2  6  1 -1</clus>
<clus scale="   57.999">  1  3  2 -1</clus>
</clustering>
</event>
<event>
 6    0  0.3082502E+002  0.1229967E+03  0.7546771E-02  0.1238234E+00
         21   -1    0    0  501  502  0.00000000000E+00  0.00000000000E+00  0.19075778222E+03  0.19075778222E+03  0.00000000000E+00 0.  1.
          2   -1    0    0  505    0 -0.00000000000E+00 -0.00000000000E+00 -0.56934935045E+03  0.56934935045E+03  0.00000000000E+00 0. -1.
         21    1    1    2  503  502 -0.85530804381E+01 -0.77740492016E+02 -0.14508717583E+02  0.79543963755E+02  0.00000000000E+00 0. -1.
         21    1    1    2  504  503 -0.96645994915E+01  0.11390934866E+03  0.10092958949E+03  0.15249762696E+03  0.00000000000E+00 0.  1.
         21    1    1    2  505  504 -0.57907488363E+02  0.82953554046E+02 -0.13215757581E+03  0.16643375313E+03  0.00000000000E+00 0. -1.
          2    1    1    2  501    0  0.76125168292E+02 -0.11912241069E+03 -0.33285486433E+03  0.36163178882E+03  0.00000000000E+00 0. -1.
<scales pt_clust_3="78.20959" pt_clust_4="54.23259" pt_clust_5="122.99670" pt_clust_6="14000.00000"></scales>
<clustering>
<clus scale="   78.210">  1  3  2 -1</clus>
<clus scale="   54.233">  1  4  2 -1</clus>
<clus scale="  122.997">  1  5  2 -1</clus>
<clus scale="   78.210">  1  3  2 -1</clus>
</clustering>
</event>
<event>
 6    0  0.3082502E+002  0.1231335E+03  0.7546771E-02  0.1238015E+00
         21   -1    0    0  503  502  0.00000000000E+00  0.00000000000E+00  0.17457473233E+03  0.17457473233E+03  0.00000000000E+00 0.  1.
          2   -1    0    0  505    0 -0.00000000000E+00 -0.00000000000E+00 -0.10349263409E+04  0.10349263409E+04  0.00000000000E+00 0.  1.
         21    1    1    2  503  504 -0.24446340751E+02  0.51229396410E+02  0.12043129137E+03  0.13313816347E+03  0.00000000000E+00 0.  1.
         21    1    1    2  504  501  0.53333190292E+02  0.76355160986E+02 -0.86158069290E+01  0.93534870102E+02  0.00000000000E+00 0.  1.
         21    1    1    2  505  502 -0.26893372176E+02 -0.16981203323E+02 -0.15699911944E+03  0.16018844602E+03  0.00000000000E+00 0.  1.
          2    1    1    2  501    0 -0.19934773650E+01 -0.11060335407E+03 -0.81516797356E+03  0.82263959363E+03  0.00000000000E+00 0.  1.
<scales pt_clust_3="56.73664" pt_clust_4="14000.00000" pt_clust_5="31.80589" pt_clust_6="123.13355"></scales>
<clustering>
<clus scale="   31.806">  2  5  1 -1</clus>
<clus scale="   56.737">  1  3  2 -1</clus>
<clus scale="  123.134">  2  6  1 -1</clus>
<clus scale="   56.737">  1  3  2 -1</clus>
</clustering>
</event>
<event>
 6    0  0.3082502E+002  0.1479697E+03  0.7546771E-02  0.1202990E+00
          1   -1    0    0  504    0 -0.00000000000E+00  0.00000000000E+00  0.11668928975E+04  0.11668928975E+04  0.00000000000E+00 0. -1.
         21   -1    0    0  503  502  0.00000000000E+00 -0.00000000000E+00 -0.18052755852E+02  0.18052755852E+02  0.00000000000E+00 0.  1.
         21    1    1    2  503  501  0.88964880372E+02  0.34544708203E+02  0.29689126238E+03  0.31185334451E+03  0.00000000000E+00 0. -1.
         21    1    1    2  504  505 -0.57627499558E+02 -0.22188437494E+02  0.31424836855E+03  0.32025816554E+03  0.00000000000E+00 0.  1.
         21    1    1    2  505  502 -0.73432913688E+02 -0.21293040909E+02  0.23590142736E+03  0.24798239823E+03  0.00000000000E+00 0.  1.
          1    1    1    2  501    0  0.42095532875E+02  0.89367701994E+01  0.30179908333E+03  0.30485174503E+03  0.00000000000E+00 0. -1.
<scales pt_clust_3="35.70705" pt_clust_4="30.67532" pt_clust_5="142.24113" pt_clust_6="35.70705"></scales>
<clustering>
<clus scale="   30.675">  4  5 -1 -1</clus>
<clus scale="   35.707">  3  6 -1 -1</clus>
<clus scale="  142.241">  2  4  1 -1</clus>
<clus scale="  142.241">  2  3  1 -1</clus>
</clustering>
</event>
<event>
 6    0  0.3082502E+002  0.1527005E+03  0.7546771E-02  0.1197193E+00
         21   -1    0    0  504  502  0.00000000000E+00  0.00000000000E+00  0.10020371590E+04  0.10020371590E+04  0.00000000000E+00 0.  1.
         -3   -1    0    0    0  501 -0.00000000000E+00 -0.00000000000E+00 -0.56673572706E+02  0.56673572706E+02  0.00000000000E+00 0.  1.
         21    1    1    2  503  502 -0.64624267260E+01 -0.12819798668E+03  0.92063806725E+02  0.15796275275E+03  0.00000000000E+00 0.  1.
         21    1    1    2  504  505 -0.36631763149E+02  0.17288923164E+02  0.89181161949E+02  0.97949336813E+02  0.00000000000E+00 0.  1.
         21    1    1    2  505  501 -0.64731484722E+02  0.95448028868E+02  0.55666403526E+03  0.56848512688E+03  0.00000000000E+00 0.  1.
         -3    1    1    2    0  503  0.10782567460E+03  0.15461034648E+02  0.20745458238E+03  0.23431351529E+03  0.00000000000E+00 0.  1.
<scales pt_clust_3="138.86216" pt_clust_4="37.64477" pt_clust_5="37.64477" pt_clust_6="108.92851"></scales>
<clustering>
<clus scale="   37.645">  4  5 -1 -1</clus>
<clus scale="  108.929">  2  6  1 -1</clus>
<clus scale="  138.862">  2  3  1 -1</clus>
<clus scale="  152.701">  1  3  2 -1</clus>
</clustering>
</event>
<event>
 6    0  0.3082502E+002  0.1768622E+03  0.7546771E-02  0.1170875E+00
          1   -1    0    0  503    0 -0.00000000000E+00  0.00000000000E+00  0.23873001969E+03  0.23873001969E+03  0.00000000000E+00 0.  1.
         21   -1    0    0  505  502  0.00000000000E+00 -0.00000000000E+00 -0.74647776459E+03  0.74647776459E+03  0.00000000000E+00 0.  1.
         21    1    1    2  503  504  0.26774223793E+02  0.48420183044E+02  0.27058557005E+02  0.61591709612E+02  0.00000000000E+00 0. -1.
         21    1    1    2  504  502 -0.13054245910E+03 -0.28114689472E+02 -0.58451549567E+03  0.59957496118E+03  0.00000000000E+00 0.  1.
         21    1    1    2  505  501 -0.53994383267E+02  0.33784153161E+02 -0.87395354347E+02  0.10814208427E+03  0.00000000000E+00 0. -1.
          1    1    1    2  501    0  0.15776261858E+03 -0.54089646734E+02  0.13710454811E+03  0.21589902922E+03  0.00000000000E+00 0.  1.
<scales pt_clust_3="55.32968" pt_clust_4="14000.00000" pt_clust_5="63.92006" pt_clust_6="176.86219"></scales>
<clustering>
<clus scale="   55.330">  1  3  2 -1</clus>
<clus scale="   63.920">  2  5  1 -1</clus>
<clus scale="  176.862">  1  6  2 -1</clus>
<clus scale="   63.920">  2  3  1 -1</clus>
</clustering>
</event>
<event>
 6    0  0.3082502E+002  0.1387673E+03  0.7546771E-02  0.1214997E+00
         21   -1    0    0  501  502  0.00000000000E+00  0.00000000000E+00  0.80268198623E+03  0.80268198623E+03  0.00000000000E+00 0.  1.
          2   -1    0    0  504    0 -0.00000000000E+00 -0.00000000000E+00 -0.22480290737E+04  0.22480290737E+04  0.00000000000E+00 0. -1.
         21    1    1    2  503  505 -0.12541207779E+03  0.55791822362E+01  0.29607872178E+03  0.32159279535E+03  0.00000000000E+00 0.  1.
         21    1    1    2  504  503 -0.29342749708E+02  0.22340161930E+02 -0.14703382975E+03  0.15158834681E+03  0.00000000000E+00 0. -1.
         21    1    1    2  505  502 -0.11521618787E+02 -0.28563693332E+02  0.48776885782E+03  0.48874031032E+03  0.00000000000E+00 0.  1.
          2    1    1    2  501    0  0.16627644629E+03  0.64434916489E+00 -0.20821608373E+04  0.20887896074E+04  0.00000000000E+00 0. -1.
<scales pt_clust_3="138.76729" pt_clust_4="36.82096" pt_clust_5="30.79987" pt_clust_6="14000.00000"></scales>
<clustering>
<clus scale="   30.800">  1  5  2 -1</clus>
<clus scale="   36.821">  2  4  1 -1</clus>
<clus scale="  138.767">  1  3  2 -1</clus>
<clus scale="   30.800">  1  3  2 -1</clus>
</clustering>
</event>
<event>
 6    0  0.3082502E+002  0.7159810E+02  0.7546771E-02  0.1354741E+00
         21   -1    0    0  504  502  0.00000000000E+00  0.00000000000E+00  0.14910720535E+03  0.14910720535E+03  0.00000000000E+00 0. -1.
          2   -1    0    0  503    0 -0.00000000000E+00 -0.00000000000E+00 -0.41249184375E+03  0.41249184375E+03  0.00000000000E+00 0. -1.
         21    1    1    2  503  502  0.26302440585E+02 -0.49952803464E+02 -0.11650893237E+03  0.12946595026E+03  0.00000000000E+00 0. -1.
         21    1    1    2  504  505 -0.49430068553E+02  0.98665178801E+01  0.90130089972E+02  0.10326719213E+03  0.00000000000E+00 0. -1.
         21    1    1    2  505  501  0.43009318480E+02 -0.68894207360E+02 -0.17633253764E+02  0.83109234879E+02  0.00000000000E+00 0. -1.
          2    1    1    2  501    0 -0.19881690512E+02  0.10898049294E+03 -0.21937254224E+03  0.24575667183E+03  0.00000000000E+00 0. -1.
<scales pt_clust_3="52.75075" pt_clust_4="50.40516" pt_clust_5="71.59810" pt_clust_6="14000.00000"></scales>
<clustering>
<clus scale="   50.405">  1  4  2 -1</clus>
<clus scale="   52.751">  2  3  1 -1</clus>
<clus scale="   71.598">  1  5  2 -1</clus>
<clus scale="   50.405">  1  3  2 -1</clus>
</clustering>
</event>
<event>
 6    0  0.3082502E+002  0.9916879E+02  0.7546771E-02  0.1282054E+00
         21   -1    0    0  505  502  0.00000000000E+00  0.00000000000E+00  0.16144974547E+04  0.16144974547E+04  0.00000000000E+00 0.  1.
          2   -1    0    0  503    0 -0.00000000000E+00 -0.00000000000E+00 -0.19733155955E+03  0.19733155955E+03  0.00000000000E+00 0.  1.
         21    1    1    2  503  504  0.54248588299E+02 -0.38740579459E+02 -0.18961810456E+02  0.69305786808E+02  0.00000000000E+00 0.  1.
         21    1    1    2  504  502  0.34124797361E+02  0.11478605566E+03  0.14953762694E+04  0.15001635002E+04  0.00000000000E+00 0.  1.
         21    1    1    2  505  501 -0.32122743671E+02 -0.14645468551E+02  0.75847798623E+02  0.83661514247E+02  0.00000000000E+00 0.  1.
          2    1    1    2  501    0 -0.56250641989E+02 -0.61400007651E+02 -0.13509636240E+03  0.15869821296E+03  0.00000000000E+00 0.  1.
<scales pt_clust_3="66.37414" pt_clust_4="99.16879" pt_clust_5="35.30383" pt_clust_6="14000.00000"></scales>
<clustering>
<clus scale="   35.304">  1  5  2 -1</clus>
<clus scale="   66.374">  2  3  1 -1</clus>
<clus scale="   99.169">  1  4  2 -1</clus>
<clus scale="   35.304">  1  3  2 -1</clus>
</clustering>
</event>
<event>
 6    0  0.3082502E+002  0.1066745E+03  0.7546771E-02  0.1266855E+00
          1   -1    0    0  505    0 -0.00000000000E+00  0.00000000000E+00  0.58451617830E+03  0.58451617830E+03  0.00000000000E+00 0.  1.
         21   -1    0    0  501  502  0.00000000000E+00 -0.00000000000E+00 -0.12240194730E+04  0.12240194730E+04  0.00000000000E+00 0.  1.
         21    1    1    2  503  504 -0.25792907162E+02  0.13730255348E+03 -0.57928095119E+03  0.59588898770E+03  0.00000000000E+00 0.  1.
         21    1    1    2  504  502  0.69511177211E+02 -0.69273823168E+02 -0.60919920546E+03  0.61705294608E+03  0.00000000000E+00 0.  1.
         21    1    1    2  505  503  0.85578081757E+01  0.68355878325E+02  0.86382361886E+02  0.11048834612E+03  0.00000000000E+00 0. -1.
          1    1    1    2  501    0 -0.52276078225E+02 -0.13638460864E+03  0.46259450009E+03  0.48510537138E+03  0.00000000000E+00 0.  1.
<scales pt_clust_3="106.67452" pt_clust_4="14000.00000" pt_clust_5="68.88949" pt_clust_6="82.43206"></scales>
<clustering>
<clus scale="   68.889">  1  5  2 -1</clus>
<clus scale="   82.432">  1  6  2 -1</clus>
<clus scale="  106.675">  1  3  2 -1</clus>
<clus scale="  106.675">  2  3  1 -1</clus>
</clustering>
</event>
<event>
 6    0  0.3082502E+002  0.1244815E+03  0.7546771E-02  0.1235882E+00
         21   -1    0    0  503  502  0.00000000000E+00  0.00000000000E+00  0.28800371755E+02  0.28800371755E+02  0.00000000000E+00 0.  1.
          1   -1    0    0  504    0 -0.00000000000E+00 -0.00000000000E+00 -0.10059212046E+04  0.10059212046E+04  0.00000000000E+00 0.  1.
         21    1    1    2  503  505 -0.73677034843E+02 -0.87327568307E+02 -0.13893956173E+03  0.17988499511E+03  0.00000000000E+00 0.  1.
         21    1    1    2  504  502 -0.29115006801E+02  0.14472171125E+02 -0.21479721128E+03  0.21724403175E+03  0.00000000000E+00 0.  1.
         21    1    1    2  505  501  0.56126177183E+02  0.46913917117E+02 -0.25241699592E+03  0.26280297413E+03  0.00000000000E+00 0.  1.
          1    1    1    2  501    0  0.46665864461E+02  0.25941480065E+02 -0.37096706394E+03  0.37478957539E+03  0.00000000000E+00 0.  1.
<scales pt_clust_3="115.98783" pt_clust_4="32.51350" pt_clust_5="36.92871" pt_clust_6="36.92871"></scales>
<clustering>
<clus scale="   32.513">  2  4  1 -1</clus>
<clus scale="   36.929">  5  6 -1 -1</clus>
<clus scale="  115.988">  1  3  2 -1</clus>
<clus scale="  115.988">  1  3  2 -1</clus>
</clustering>
</event>
<event>
 6    0  0.3082502E+002  0.1001950E+03  0.7546771E-02  0.1279886E+00
          1   -1    0    0  504    0 -0.00000000000E+00  0.00000000000E+00  0.15801514366E+03  0.15801514366E+03  0.00000000000E+00 0.  1.
         21   -1    0    0  501  502  0.00000000000E+00 -0.00000000000E+00 -0.66148591010E+03  0.66148591010E+03  0.00000000000E+00 0.  1.
         21    1    1    2  503  505  0.43557823376E+02  0.91851361687E+02 -0.12320393203E+03  0.15972841165E+03  0.00000000000E+00 0.  1.
         21    1    1    2  504  503  0.49191335763E+02 -0.21697979544E+02  0.57464673528E+02  0.78694209025E+02  0.00000000000E+00 0.  1.
         21    1    1    2  505  502  0.26247963037E+02 -0.25656625311E+02 -0.45177196607E+03  0.45326055124E+03  0.00000000000E+00 0.  1.
          1    1    1    2  501    0 -0.11899712218E+03 -0.44496756832E+02  0.14040458132E+02  0.12781788184E+03  0.00000000000E+00 0.  1.
<scales pt_clust_3="100.19497" pt_clust_4="55.51391" pt_clust_5="36.70447" pt_clust_6="14000.00000"></scales>
<clustering>
<clus scale="   36.704">  2  5  1 -1</clus>
<clus scale="   55.514">  1  4  2 -1</clus>
<clus scale="  100.195">  2  3  1 -1</clus>
<clus scale="   36.704">  2  3  1 -1</clus>
</clustering>
</event>
<event>
 6    0  0.3082502E+002  0.9006897E+02  0.7546771E-02  0.1302685E+00
         21   -1    0    0  504  502  0.00000000000E+00  0.00000000000E+00  0.39443674096E+03  0.39443674096E+03  0.00000000000E+00 0.  1.
          1   -1    0    0  503    0 -0.00000000000E+00 -0.00000000000E+00 -0.68850899278E+03  0.68850899278E+03  0.00000000000E+00 0.  1.
         21    1    1    2  503  502 -0.24762838386E+02 -0.18389670183E+02 -0.87822621898E+01  0.32070333075E+02  0.00000000000E+00 0.  1.
         21    1    1    2  504  505 -0.50437271598E+02 -0.51550591147E+02  0.19553353473E+03  0.20841004059E+03  0.00000000000E+00 0.  1.
         21    1    1    2  505  501 -0.39854501493E+02  0.71523102680E+02  0.16620859477E+03  0.18528149525E+03  0.00000000000E+00 0.  1.
          1    1    1    2  501    0  0.11505461148E+03 -0.15828413491E+01 -0.64703211913E+03  0.65718386483E+03  0.00000000000E+00 0.  1.
<scales pt_clust_3="30.84442" pt_clust_4="72.41418" pt_clust_5="14000.00000" pt_clust_6="90.06897"></scales>
<clustering>
<clus scale="   30.844">  2  3  1 -1</clus>
<clus scale="   72.414">  1  4  2 -1</clus>
<clus scale="   90.069">  2  6  1 -1</clus>
<clus scale="   72.414">  1  3  2 -1</clus>
</clustering>
</event>
<event>
 6    0  0.3082502E+002  0.8184194E+02  0.7546771E-02  0.1323904E+00
          2   -1    0    0  505    0 -0.00000000000E+00  0.00000000000E+00  0.22080774028E+04  0.22080774028E+04  0.00000000000E+00 0.  1.
         21   -1    0    0  504  502  0.00000000000E+00 -0.00000000000E+00 -0.12704069441E+03  0.12704069441E+03  0.00000000000E+00 0.  1.
         21    1    1    2  503  502 -0.19456107137E+02  0.43947861333E+02  0.72967499982E+01  0.48612726536E+02  0.00000000000E+00 0. -1.
         21    1    1    2  504  501 -0.53258630783E+02 -0.68268625653E+01 -0.94766114429E+02  0.10892063280E+03  0.00000000000E+00 0.  1.
         21    1    1    2  505  503 -0.48932286538E+02  0.32165665755E+02  0.61098632838E+03  0.61378603128E+03  0.00000000000E+00 0.  1.
          2    1    1    2  501    0  0.12164702446E+03 -0.69286664523E+02  0.15575197445E+04  0.15637987066E+04  0.00000000000E+00 0.  1.
<scales pt_clust_3="48.06199" pt_clust_4="81.84194" pt_clust_5="59.09024" pt_clust_6="14000.00000"></scales>
<clustering>
<clus scale="   48.062">  2  3  1 -1</clus>
<clus scale="   59.090">  1  5  2 -1</clus>
<clus scale="   81.842">  2  4  1 -1</clus>
<clus scale="   48.062">  2  3  1 -1</clus>
</clustering>
</event>
<event>
 6    0  0.3082502E+002  0.9530591E+02  0.7546771E-02  0.1290489E+00
         21   -1    0    0  503  502  0.00000000000E+00  0.00000000000E+00  0.95356343797E+02  0.95356343797E+02  0.00000000000E+00 0.  1.
          2   -1    0    0  505    0 -0.00000000000E+00 -0.00000000000E+00 -0.28306721653E+04  0.28306721653E+04  0.00000000000E+00 0. -1.
         21    1    1    2  503  501 -0.57110703739E+02 -0.42122039687E+02 -0.70904390030E+01  0.71317410457E+02  0.00000000000E+00 0.  1.
         21    1    1    2  504  502 -0.45918946996E+02  0.51588074134E+01  0.49599551410E+02  0.67788483442E+02  0.00000000000E+00 0.  1.
         21    1    1    2  505  504  0.38285275401E+02  0.71361996104E+02 -0.40776483021E+03  0.41572882214E+03  0.00000000000E+00 0.  1.
          2    1    1    2  501    0  0.64744375335E+02 -0.34398763831E+02 -0.23700601037E+04  0.23711937930E+04  0.00000000000E+00 0. -1.
<scales pt_clust_3="95.30591" pt_clust_4="46.20782" pt_clust_5="14000.00000" pt_clust_6="72.65122"></scales>
<clustering>
<clus scale="   46.208">  1  4  2 -1</clus>
<clus scale="   72.651">  2  6  1 -1</clus>
<clus scale="   95.306">  1  3  2 -1</clus>
<clus scale="   46.208">  1  3  2 -1</clus>
</clustering>
</event>
<event>
 6    0  0.3082502E+002  0.8919284E+02  0.7546771E-02  0.1304818E+00
         21   -1    0    0  503  502  0.00000000000E+00  0.00000000000E+00  0.24627662008E+03  0.24627662008E+03  0.00000000000E+00 0. -1.
          2   -1    0    0  505    0 -0.00000000000E+00 -0.00000000000E+00 -0.11674558932E+04  0.11674558932E+04  0.00000000000E+00 0.  1.
         21    1    1    2  503  501  0.94994721226E+02  0.48894012293E+02  0.10125930462E+03  0.14720077538E+03  0.00000000000E+00 0. -1.
         21    1    1    2  504  502 -0.81935138831E+02 -0.13957080153E+01  0.10164966389E+03  0.13056787180E+03  0.00000000000E+00 0. -1.
         21    1    1    2  505  504  0.30931896675E+02  0.26181302333E+01 -0.44162218708E+02  0.53980907727E+02  0.00000000000E+00 0. -1.
          2    1    1    2  501    0 -0.43991479070E+02 -0.50116434511E+02 -0.10799260230E+04  0.10819829584E+04  0.00000000000E+00 0.  1.
<scales pt_clust_3="89.19284" pt_clust_4="14000.00000" pt_clust_5="31.04250" pt_clust_6="49.62947"></scales>
<clustering>
<clus scale="   31.043">  2  5  1 -1</clus>
<clus scale="   49.629">  2  6  1 -1</clus>
<clus scale="   89.193">  2  3  1 -1</clus>
<clus scale="   89.193">  1  3  2 -1</clus>
</clustering>
</event>
<event>
 6    0  0.3082502E+002  0.7679925E+02  0.7546771E-02  0.1338388E+00
         21   -1    0    0  505  502  0.00000000000E+00  0.00000000000E+00  0.10334737742E+03  0.10334737742E+03  0.00000000000E+00 0.  1.
         -3   -1    0    0    0  501 -0.00000000000E+00 -0.00000000000E+00 -0.10331309076E+04  0.10331309076E+04  0.00000000000E+00 0. -1.
         21    1    1    2  503  504  0.57234514404E+02  0.45185597397E+02 -0.70937358406E+02  0.10173316406E+03  0.00000000000E+00 0.  1.
         21    1    1    2  504  502  0.25787917438E+02 -0.39977364190E+02  0.75007502199E+02  0.88821910132E+02  0.00000000000E+00 0.  1.
         21    1    1    2  505  501 -0.22844123988E+02  0.58599453022E+02 -0.38207230647E+03  0.38721440736E+03  0.00000000000E+00 0. -1.
         -3    1    1    2    0  503 -0.60178307854E+02 -0.63807686229E+02 -0.55178136750E+03  0.55870880348E+03  0.00000000000E+00 0. -1.
<scales pt_clust_3="14000.00000" pt_clust_4="47.57317" pt_clust_5="57.31435" pt_clust_6="76.79925"></scales>
<clustering>
<clus scale="   47.573">  1  4  2 -1</clus>
<clus scale="   57.314">  2  5  1 -1</clus>
<clus scale="   76.799">  2  6  1 -1</clus>
<clus scale="   47.573">  1  3  2 -1</clus>
</clustering>
</event>
<event>
 6    0  0.3082502E+002  0.9400313E+02  0.7546771E-02  0.1293437E+00
         21   -1    0    0  505  502  0.00000000000E+00  0.00000000000E+00  0.39888742455E+03  0.39888742455E+03  0.00000000000E+00 0. -1.
          3   -1    0    0  503    0 -0.00000000000E+00 -0.00000000000E+00 -0.34078306650E+03  0.34078306650E+03  0.00000000000E+00 0. -1.
         21    1    1    2  503  504  0.34355585931E+02 -0.20863868325E+02 -0.33328874412E+02  0.52215142973E+02  0.00000000000E+00 0.  1.
         21    1    1    2  504  502  0.24862787285E+02 -0.19882854164E+02  0.27959701072E+03  0.28140357937E+03  0.00000000000E+00 0. -1.
         21    1    1    2  505  501  0.66563716383E+02 -0.12617455355E+02  0.80152713570E+02  0.10494944502E+03  0.00000000000E+00 0. -1.
          3    1    1    2  501    0 -0.12578208960E+03  0.53364177844E+02 -0.26831649182E+03  0.30110232368E+03  0.00000000000E+00 0. -1.
<scales pt_clust_3="42.71417" pt_clust_4="31.83530" pt_clust_5="14000.00000" pt_clust_6="94.00313"></scales>
<clustering>
<clus scale="   31.835">  1  4  2 -1</clus>
<clus scale="   42.714">  2  3  1 -1</clus>
<clus scale="   94.003">  2  6  1 -1</clus>
<clus scale="   31.835">  1  3  2 -1</clus>
</clustering>
</event>
<event>
 6    0  0.3082502E+002  0.9909285E+02  0.7546771E-02  0.1282215E+00
          2   -1    0    0  505    0 -0.00000000000E+00  0.00000000000E+00  0.35136756319E+03  0.35136756319E+03  0.00000000000E+00 0. -1.
         21   -1    0    0  501  502  0.00000000000E+00 -0.00000000000E+00 -0.26768540654E+03  0.26768540654E+03  0.00000000000E+00 0. -1.
         21    1    1    2  503  502 -0.38809963352E+02 -0.76194229967E+01 -0.21913115233E+03  0.22267180060E+03  0.00000000000E+00 0. -1.
         21    1    1    2  504  503  0.11386958895E+03 -0.17312667093E+02  0.10459214463E+03  0.15558125995E+03  0.00000000000E+00 0. -1.
         21    1    1    2  505  504  0.44616979999E+01 -0.34444735222E+02  0.74455685673E+02  0.82158357229E+02  0.00000000000E+00 0. -1.
          2    1    1    2  501    0 -0.79521323599E+02  0.59376825312E+02  0.12376547867E+03  0.15864155194E+03  0.00000000000E+00 0. -1.
<scales pt_clust_3="39.56611" pt_clust_4="99.09285" pt_clust_5="34.73250" pt_clust_6="14000.00000"></scales>
<clustering>
<clus scale="   34.732">  1  5  2 -1</clus>
<clus scale="   39.566">  2  3  1 -1</clus>
<clus scale="   99.093">  2  4  1 -1</clus>
<clus scale="   39.566">  2  3  1 -1</clus>
</clustering>
</event>
<event>
 6    0  0.3082502E+002  0.7509365E+02  0.7546771E-02  0.1343581E+00
         21   -1    0    0  501  502  0.00000000000E+00  0.00000000000E+00  0.37449408163E+02  0.37449408163E+02  0.00000000000E+00 0. -1.
          1   -1    0    0  504    0 -0.00000000000E+00 -0.00000000000E+00 -0.38154674202E+04  0.38154674202E+04  0.00000000000E+00 0. -1.
         21    1    1    2  503  505 -0.10580941836E+01  0.89555328942E+02 -0.15564310707E+03  0.17957186106E+03  0.00000000000E+00 0. -1.
         21    1    1    2  504  503 -0.61982288676E+01  0.38290262203E+02 -0.71103695873E+03  0.71209417839E+03  0.00000000000E+00 0. -1.
         21    1    1    2  505  502  0.22077027072E+02 -0.68027581041E+02 -0.27298442182E+02  0.76552934968E+02  0.00000000000E+00 0. -1.
          1    1    1    2  501    0 -0.14820704021E+02 -0.59818010104E+02 -0.28840395041E+04  0.28846978540E+04  0.00000000000E+00 0. -1.
<scales pt_clust_3="14000.00000" pt_clust_4="38.78869" pt_clust_5="75.09365" pt_clust_6="31.79528"></scales>
<clustering>
<clus scale="   38.789">  2  4  1 -1</clus>
<clus scale="   31.795">  2  6  1 -1</clus>
<clus scale="   75.094">  1  5  2 -1</clus>
<clus scale="   75.094">  1  3  2 -1</clus>
</clustering>
</event>
<event>
 6    0  0.3082502E+002  0.1118029E+03  0.7546771E-02  0.1257267E+00
          2   -1    0    0  504    0 -0.00000000000E+00  0.00000000000E+00  0.14136072462E+04  0.14136072462E+04  0.00000000000E+00 0. -1.
         21   -1    0    0  505  502  0.00000000000E+00 -0.00000000000E+00 -0.73509906807E+03  0.73509906807E+03  0.00000000000E+00 0. -1.
         21    1    1    2  503  501  0.20777789890E+01  0.77805469002E+02  0.11944554493E+03  0.14256663837E+03  0.00000000000E+00 0.  1.
         21    1    1    2  504  502 -0.80638878498E+02 -0.74616121791E+02 -0.43629188935E+03  0.44991199925E+03  0.00000000000E+00 0. -1.
         21    1    1    2  505  503  0.30418214695E+02 -0.29164513131E+02 -0.27826303522E+03  0.28143587793E+03  0.00000000000E+00 0. -1.
          2    1    1    2  501    0  0.48142884814E+02  0.25975165919E+02  0.12736175578E+04  0.12747917987E+04  0.00000000000E+00 0. -1.
<scales pt_clust_3="14000.00000" pt_clust_4="111.80294" pt_clust_5="42.14068" pt_clust_6="54.71995"></scales>
<clustering>
<clus scale="   42.141">  2  5  1 -1</clus>
<clus scale="   54.720">  1  6  2 -1</clus>
<clus scale="  111.803">  2  4  1 -1</clus>
<clus scale="   42.141">  2  3  1 -1</clus>
</clustering>
</event>
<event>
 6    0  0.3082502E+002  0.5524241E+02  0.7546771E-02  0.1418956E+00
         21   -1    0    0  504  502  0.00000000000E+00  0.00000000000E+00  0.95240243851E+02  0.95240243851E+02  0.00000000000E+00 0.  1.
          2   -1    0    0  503    0 -0.00000000000E+00 -0.00000000000E+00 -0.41190675333E+04  0.41190675333E+04  0.00000000000E+00 0. -1.
         21    1    1    2  503  505  0.46289749532E+02 -0.49568621839E+01 -0.17593435063E+04  0.17599593417E+04  0.00000000000E+00 0. -1.
         21    1    1    2  504  501  0.70650229200E+02  0.42207160923E+02 -0.12978623971E+03  0.15367943043E+03  0.00000000000E+00 0.  1.
         21    1    1    2  505  502 -0.42349139079E+02 -0.17456877814E+02  0.75939775407E+02  0.88685070066E+02  0.00000000000E+00 0.  1.
          2    1    1    2  501    0 -0.74590839653E+02 -0.19793420925E+02 -0.22106373188E+04  0.22119839349E+04  0.00000000000E+00 0. -1.
<scales pt_clust_3="14000.00000" pt_clust_4="40.90404" pt_clust_5="45.80603" pt_clust_6="55.24241"></scales>
<clustering>
<clus scale="   45.806">  1  5  2 -1</clus>
<clus scale="   40.904">  1  4  2 -1</clus>
<clus scale="   55.242">  1  6  2 -1</clus>
<clus scale="   45.806">  1  3  2 -1</clus>
</clustering>
</event>
<event>
 6    0  0.3082502E+002  0.1044843E+03  0.7546771E-02  0.1271139E+00
          1   -1    0    0  504    0 -0.00000000000E+00  0.00000000000E+00  0.12289752217E+04  0.12289752217E+04  0.00000000000E+00 0.  1.
         21   -1    0    0  503  502  0.00000000000E+00 -0.00000000000E+00 -0.15062374059E+04  0.15062374059E+04  0.00000000000E+00 0.  1.
         21    1    1    2  503  501 -0.41656446794E+02 -0.11261580130E+03  0.54902576175E+03  0.56200254922E+03  0.00000000000E+00 0.  1.
         21    1    1    2  504  505 -0.69568573034E+01  0.36662339358E+02  0.59909574541E+02  0.70581032242E+02  0.00000000000E+00 0.  1.
         21    1    1    2  505  502  0.40031013421E+02 -0.12691029065E+02 -0.14908558783E+04  0.14914472147E+04  0.00000000000E+00 0.  1.
          1    1    1    2  501    0  0.85822906768E+01  0.88644491011E+02  0.60465835782E+03  0.61118183153E+03  0.00000000000E+00 0.  1.
<scales pt_clust_3="104.48429" pt_clust_4="37.31655" pt_clust_5="41.99008" pt_clust_6="14000.00000"></scales>
<clustering>
<clus scale="   37.317">  1  4  2 -1</clus>
<clus scale="   41.990">  2  5  1 -1</clus>
<clus scale="  104.484">  2  3  1 -1</clus>
<clus scale="   41.990">  2  3  1 -1</clus>
</clustering>
</event>
<event>
 6    0  0.3082502E+002  0.1089203E+03  0.7546771E-02  0.1262582E+00
         21   -1    0    0  501  502  0.00000000000E+00  0.00000000000E+00  0.33501825862E+03  0.33501825862E+03  0.00000000000E+00 0. -1.
          1   -1    0    0  505    0 -0.00000000000E+00 -0.00000000000E+00 -0.49300837062E+03  0.49300837062E+03  0.00000000000E+00 0. -1.
         21    1    1    2  503  502 -0.13717991458E+02  0.27619790497E+02  0.30447435619E+02  0.43336848668E+02  0.00000000000E+00 0. -1.
         21    1    1    2  504  503  0.12162519210E+03 -0.38941287610E+02  0.26097798078E+03  0.29054882152E+03  0.00000000000E+00 0. -1.
         21    1    1    2  505  504 -0.26209183859E+02 -0.38602547608E+02 -0.14572112487E+02  0.48881739564E+02  0.00000000000E+00 0.  1.
          1    1    1    2  501    0 -0.81698016785E+02  0.49924044722E+02 -0.43484341591E+03  0.44525921950E+03  0.00000000000E+00 0. -1.
<scales pt_clust_3="30.83887" pt_clust_4="108.92034" pt_clust_5="45.81377" pt_clust_6="14000.00000"></scales>
<clustering>
<clus scale="   30.839">  1  3  2 -1</clus>
<clus scale="   45.814">  2  5  1 -1</clus>
<clus scale="  108.920">  1  4  2 -1</clus>
<clus scale="   30.839">  1  3  2 -1</clus>
</clustering>
</event>
<event>
 6    0  0.3082502E+002  0.6602399E+02  0.7546771E-02  0.1374161E+00
         21   -1    0    0  503  502  0.00000000000E+00  0.00000000000E+00  0.10058069382E+03  0.10058069382E+03  0.00000000000E+00 0. -1.
          3   -1    0    0  504    0 -0.00000000000E+00 -0.00000000000E+00 -0.26014333054E+04  0.26014333054E+04  0.00000000000E+00 0. -1.
         21    1    1    2  503  501 -0.12115722842E+02  0.64296295602E+02  0.78463525061E+02  0.10216324747E+03  0.00000000000E+00 0. -1.
         21    1    1    2  504  505 -0.20549936690E+02  0.33403237200E+02 -0.93169997504E+03  0.93252502360E+03  0.00000000000E+00 0.  1.
         21    1    1    2  505  502  0.31607616834E+02  0.47578832543E+02 -0.12092176715E+03  0.13373429073E+03  0.00000000000E+00 0.  1.
          3    1    1    2  501    0  0.10580426983E+01 -0.14527836534E+03 -0.15266943945E+04  0.15335914375E+04  0.00000000000E+00 0. -1.
<scales pt_clust_3="14000.00000" pt_clust_4="39.21831" pt_clust_5="58.43881" pt_clust_6="66.02399"></scales>
<clustering>
<clus scale="   39.218">  2  4  1 -1</clus>
<clus scale="   58.439">  2  5  1 -1</clus>
<clus scale="   66.024">  2  6  1 -1</clus>
<clus scale="   66.024">  1  3  2 -1</clus>
</clustering>
</event>
<event>
 6    0  0.3082502E+002  0.9942780E+02  0.7546771E-02  0.1281504E+00
          2   -1    0    0  503    0 -0.00000000000E+00  0.00000000000E+00  0.14851425226E+04  0.14851425226E+04  0.00000000000E+00 0. -1.
         21   -1    0    0  504  502  0.00000000000E+00 -0.00000000000E+00 -0.30427349422E+02  0.30427349422E+02  0.00000000000E+00 0. -1.
         21    1    1    2  503  505 -0.42625421331E+02  0.17723757858E+01  0.59976226947E+03  0.60127767940E+03  0.00000000000E+00 0. -1.
         21    1    1    2  504  501  0.26234196611E+02  0.26856764851E+02  0.13584114593E+02  0.39925518899E+02  0.00000000000E+00 0. -1.
         21    1    1    2  505  502  0.23198643035E+02 -0.11542109351E+03  0.24661421726E+03  0.27327418103E+03  0.00000000000E+00 0. -1.
          2    1    1    2  501    0 -0.68074183159E+01  0.86791952874E+02  0.59475457187E+03  0.60109249271E+03  0.00000000000E+00 0. -1.
<scales pt_clust_3="41.57843" pt_clust_4="37.54356" pt_clust_5="99.42780" pt_clust_6="14000.00000"></scales>
<clustering>
<clus scale="   37.544">  2  4  1 -1</clus>
<clus scale="   41.578">  1  3  2 -1</clus>
<clus scale="   99.428">  2  5  1 -1</clus>
<clus scale="   37.544">  2  3  1 -1</clus>
</clustering>
</event>
<event>
 6    0  0.4492302E+002  0.1538535E+03  0.7546771E-02  0.1195816E+00
         21   -1    0    0  504  502  0.00000000000E+00  0.00000000000E+00  0.52468217458E+03  0.52468217458E+03  0.00000000000E+00 0.  1.
          2   -1    0    0  505    0 -0.00000000000E+00 -0.00000000000E+00 -0.25988486489E+04  0.25988486489E+04  0.00000000000E+00 0.  1.
         21    1    1    2  503  501 -0.43795561368E+02  0.35730965827E+02  0.13799734198E+03  0.14912417479E+03  0.00000000000E+00 0.  1.
         21    1    1    2  504  503 -0.89831214038E+02  0.27647090667E+02  0.36760492262E+03  0.37943034640E+03  0.00000000000E+00 0.  1.
         21    1    1    2  505  502  0.49214778689E+02 -0.87754443035E+01 -0.88215329490E+02  0.10139549902E+03  0.00000000000E+00 0. -1.
          2    1    1    2  501    0  0.84411996718E+02 -0.54602612190E+02 -0.24915534095E+04  0.24935808033E+04  0.00000000000E+00 0.  1.
<scales pt_clust_3="33.47463" pt_clust_4="33.47463" pt_clust_5="49.99103" pt_clust_6="147.67386"></scales>
<clustering>
<clus scale="   33.475">  3  4 -1 -1</clus>
<clus scale="   49.991">  2  5  1 -1</clus>
<clus scale="  147.674">  2  6  1 -1</clus>
<clus scale="  153.854">  1  3  2 -1</clus>
</clustering>
</event>
<event>
 6    0  0.4323577E+002  0.8756286E+02  0.7546771E-02  0.1308863E+00
         21   -1    0    0  501  502  0.00000000000E+00  0.00000000000E+00  0.28459123548E+03  0.28459123548E+03  0.00000000000E+00 0. -1.
          1   -1    0    0  504    0 -0.00000000000E+00 -0.00000000000E+00 -0.13199841030E+04  0.13199841030E+04  0.00000000000E+00 0.  1.
         21    1    1    2  503  502 -0.16911852500E+02 -0.85748757954E+02  0.25988200094E+03  0.27418518315E+03  0.00000000000E+00 0. -1.
         21    1    1    2  504  505  0.93933397855E+01 -0.35101618816E+02 -0.79539846654E+02  0.87446816303E+02  0.00000000000E+00 0.  1.
         21    1    1    2  505  503 -0.49902960569E+02  0.16046176959E+02 -0.54654643211E+02  0.75729223508E+02  0.00000000000E+00 0. -1.
          1    1    1    2  501    0  0.57421473284E+02  0.10480419981E+03 -0.11610803786E+04  0.11672141155E+04  0.00000000000E+00 0.  1.
<scales pt_clust_3="87.56286" pt_clust_4="36.33674" pt_clust_5="51.40656" pt_clust_6="14000.00000"></scales>
<clustering>
<clus scale="   36.337">  2  4  1 -1</clus>
<clus scale="   51.407">  2  5  1 -1</clus>
<clus scale="   87.563">  1  3  2 -1</clus>
<clus scale="   87.563">  1  3  2 -1</clus>
</clustering>
</event>
<event>
 6    0  0.3082502E+002  0.9642973E+02  0.7546771E-02  0.1287988E+00
         21   -1    0    0  501  502  0.00000000000E+00  0.00000000000E+00  0.41223148164E+03  0.41223148164E+03  0.00000000000E+00 0. -1.
          2   -1    0    0  504    0 -0.00000000000E+00 -0.00000000000E+00 -0.43372612721E+03  0.43372612721E+03  0.00000000000E+00 0.  1.
         21    1    1    2  503  502 -0.43224217216E+02 -0.11275399995E+02  0.32774377633E+03  0.33077401730E+03  0.00000000000E+00 0. -1.
         21    1    1    2  504  505 -0.88134892216E+02 -0.83172802058E+02 -0.42823641899E+02  0.12852757888E+03  0.00000000000E+00 0. -1.
         21    1    1    2  505  503  0.54510742179E+02  0.42691079247E+02 -0.28832153795E+01  0.69298356338E+02  0.00000000000E+00 0. -1.
          2    1    1    2  501    0  0.76848367252E+02  0.51757122806E+02 -0.30353156462E+03  0.31735765633E+03  0.00000000000E+00 0.  1.
<scales pt_clust_3="44.67066" pt_clust_4="96.42973" pt_clust_5="53.31302" pt_clust_6="14000.00000"></scales>
<clustering>
<clus scale="   44.671">  1  3  2 -1</clus>
<clus scale="   53.313">  1  5  2 -1</clus>
<clus scale="   96.430">  1  4  2 -1</clus>
<clus scale="   44.671">  1  3  2 -1</clus>
</clustering>
</event>
<event>
 6    0  0.3082502E+002  0.1239421E+03  0.7546771E-02  0.1236732E+00
         21   -1    0    0  503  502  0.00000000000E+00  0.00000000000E+00  0.36630305303E+03  0.36630305303E+03  0.00000000000E+00 0.  1.
          1   -1    0    0  505    0 -0.00000000000E+00 -0.00000000000E+00 -0.44580192601E+03  0.44580192601E+03  0.00000000000E+00 0.  1.
         21    1    1    2  503  501  0.52701341927E+02 -0.91755249106E+02  0.25096037297E+03  0.27235558739E+03  0.00000000000E+00 0.  1.
         21    1    1    2  504  502 -0.36896070745E+02 -0.14455221080E+01  0.68464644454E+02  0.77786998341E+02  0.00000000000E+00 0. -1.
         21    1    1    2  505  504  0.42720346284E+02 -0.16805259606E+02 -0.20121720822E+01  0.45950990996E+02  0.00000000000E+00 0. -1.
          1    1    1    2  501    0 -0.58525617466E+02  0.11000603082E+03 -0.39691171832E+03  0.41601140232E+03  0.00000000000E+00 0.  1.
<scales pt_clust_3="123.94206" pt_clust_4="36.92438" pt_clust_5="43.38793" pt_clust_6="14000.00000"></scales>
<clustering>
<clus scale="   36.924">  1  4  2 -1</clus>
<clus scale="   43.388">  1  5  2 -1</clus>
<clus scale="  123.942">  1  3  2 -1</clus>
<clus scale="   36.924">  1  3  2 -1</clus>
</clustering>
</event>
<event>
 6    0  0.3082502E+002  0.2276186E+03  0.7546771E-02  0.1128327E+00
          1   -1    0    0  504    0 -0.00000000000E+00  0.00000000000E+00  0.29852576511E+04  0.29852576511E+04  0.00000000000E+00 0.  1.
         21   -1    0    0  501  502  0.00000000000E+00 -0.00000000000E+00 -0.10915817506E+03  0.10915817506E+03  0.00000000000E+00 0.  1.
         21    1    1    2  503  505  0.11742731128E+03 -0.20743431106E+03  0.12795856710E+03  0.27053939035E+03  0.00000000000E+00 0.  1.
         21    1    1    2  504  503 -0.37502674223E+02  0.53667368173E+00  0.35553907026E+03  0.35751191459E+03  0.00000000000E+00 0. -1.
         21    1    1    2  505  502 -0.37311044066E+02 -0.61316988560E+01 -0.20833313133E+02  0.43171039787E+02  0.00000000000E+00 0.  1.
          1    1    1    2  501    0 -0.42613592989E+02  0.21302933624E+03  0.24134351518E+04  0.24231934814E+04  0.00000000000E+00 0.  1.
<scales pt_clust_3="227.61863" pt_clust_4="37.50651" pt_clust_5="37.96840" pt_clust_6="14000.00000"></scales>
<clustering>
<clus scale="   37.507">  1  4  2 -1</clus>
<clus scale="   37.968">  2  5  1 -1</clus>
<clus scale="  227.619">  2  3  1 -1</clus>
<clus scale="   37.968">  2  3  1 -1</clus>
</clustering>
</event>
<event>
 6    0  0.3082502E+002  0.8585118E+02  0.7546771E-02  0.1313222E+00
          2   -1    0    0  503    0 -0.00000000000E+00  0.00000000000E+00  0.10744765666E+04  0.10744765666E+04  0.00000000000E+00 0.  1.
         21   -1    0    0  505  502  0.00000000000E+00 -0.00000000000E+00 -0.10257864624E+03  0.10257864624E+03  0.00000000000E+00 0. -1.
         21    1    1    2  503  504 -0.40742749459E+01 -0.32740123768E+02  0.45085148762E+03  0.45205705316E+03  0.00000000000E+00 0. -1.
         21    1    1    2  504  502 -0.77826355965E+02 -0.38746194496E+01 -0.62197201737E+02  0.99701786657E+02  0.00000000000E+00 0. -1.
         21    1    1    2  505  501  0.21634702346E+02 -0.58416646464E+02  0.48795777456E+02  0.79130227014E+02  0.00000000000E+00 0. -1.
          2    1    1    2  501    0  0.60265928566E+02  0.95031389682E+02  0.53444785702E+03  0.54616614601E+03  0.00000000000E+00 0.  1.
<scales pt_clust_3="32.99266" pt_clust_4="14000.00000" pt_clust_5="65.31959" pt_clust_6="85.85118"></scales>
<clustering>
<clus scale="   32.993">  1  3  2 -1</clus>
<clus scale="   65.320">  2  5  1 -1</clus>
<clus scale="   85.851">  1  6  2 -1</clus>
<clus scale="   65.320">  2  3  1 -1</clus>
</clustering>
</event>
<event>
 6    0  0.3082502E+002  0.9258472E+02  0.7546771E-02  0.1296710E+00
         21   -1    0    0  505  502  0.00000000000E+00  0.00000000000E+00  0.11963504694E+04  0.11963504694E+04  0.00000000000E+00 0.  1.
          4   -1    0    0  504    0 -0.00000000000E+00 -0.00000000000E+00 -0.81397299255E+02  0.81397299255E+02  0.00000000000E+00 0.  1.
         21    1    1    2  503  501 -0.41084713547E+02  0.12749640279E+02  0.10902980575E+03  0.11720923836E+03  0.00000000000E+00 0.  1.
         21    1    1    2  504  502 -0.18455078532E+02  0.98396912193E+02  0.83630662130E+03  0.84227745256E+03  0.00000000000E+00 0.  1.
         21    1    1    2  505  503  0.96650568494E+01 -0.33164835603E+02  0.21317643266E+03  0.21595719735E+03  0.00000000000E+00 0.  1.
          4    1    1    2  501    0  0.49874735230E+02 -0.77981716869E+02 -0.43559689595E+02  0.10230388036E+03  0.00000000000E+00 0.  1.
<scales pt_clust_3="40.95617" pt_clust_4="92.58472" pt_clust_5="34.54446" pt_clust_6="14000.00000"></scales>
<clustering>
<clus scale="   34.544">  1  5  2 -1</clus>
<clus scale="   40.956">  1  3  2 -1</clus>
<clus scale="   92.585">  1  4  2 -1</clus>
<clus scale="   34.544">  1  3  2 -1</clus>
</clustering>
</event>
<event>
 6    0  0.3082502E+002  0.1143460E+03  0.7546771E-02  0.1252727E+00
          2   -1    0    0  504    0 -0.00000000000E+00  0.00000000000E+00  0.94486492193E+03  0.94486492193E+03  0.00000000000E+00 0.  1.
         21   -1    0    0  501  502  0.00000000000E+00 -0.00000000000E+00 -0.58314748431E+02  0.58314748431E+02  0.00000000000E+00 0.  1.
         21    1    1    2  503  502  0.55944366699E+02  0.76822978740E+02  0.56894048023E+01  0.95204577384E+02  0.00000000000E+00 0.  1.
         21    1    1    2  504  505 -0.43315214756E+02  0.14272964105E+00  0.20970717202E+03  0.21413389783E+03  0.00000000000E+00 0.  1.
         21    1    1    2  505  503 -0.75136014556E+02 -0.66610829741E+02  0.27721322456E+03  0.29483825260E+03  0.00000000000E+00 0.  1.
          2    1    1    2  501    0  0.62506862613E+02 -0.10354878640E+02  0.39394037211E+03  0.39900294255E+03  0.00000000000E+00 0.  1.
<scales pt_clust_3="97.78815" pt_clust_4="38.92573" pt_clust_5="38.92573" pt_clust_6="63.35875"></scales>
<clustering>
<clus scale="   38.926">  4  5 -1 -1</clus>
<clus scale="   63.359">  1  6  2 -1</clus>
<clus scale="   97.788">  2  3  1 -1</clus>
<clus scale="   97.788">  2  3  1 -1</clus>
</clustering>
</event>
<event>
 6    0  0.3082502E+002  0.1805264E+03  0.7546771E-02  0.1167295E+00
          1   -1    0    0  504    0 -0.00000000000E+00  0.00000000000E+00  0.23821095212E+04  0.23821095212E+04  0.00000000000E+00 0. -1.
         21   -1    0    0  505  502  0.00000000000E+00 -0.00000000000E+00 -0.32825034247E+02  0.32825034247E+02  0.00000000000E+00 0.  1.
         21    1    1    2  503  502  0.31927750813E+02  0.20886679325E+02  0.55865217982E+02  0.67650256654E+02  0.00000000000E+00 0. -1.
         21    1    1    2  504  503 -0.28910253728E+02  0.17043308617E+03  0.14435033821E+04  0.14538174761E+04  0.00000000000E+00 0. -1.
         21    1    1    2  505  501 -0.62384280168E+02  0.15048385814E+01  0.10927475238E+03  0.12583733333E+03  0.00000000000E+00 0.  1.
          1    1    1    2  501    0  0.59366783083E+02 -0.19282460408E+03  0.74064113451E+03  0.76762948941E+03  0.00000000000E+00 0. -1.
<scales pt_clust_3="38.15278" pt_clust_4="14000.00000" pt_clust_5="53.16139" pt_clust_6="180.52642"></scales>
<clustering>
<clus scale="   38.153">  2  3  1 -1</clus>
<clus scale="   53.161">  2  5  1 -1</clus>
<clus scale="  180.526">  2  6  1 -1</clus>
<clus scale="   38.153">  2  3  1 -1</clus>
</clustering>
</event>
<event>
 6    0  0.3082502E+002  0.1170539E+03  0.7546771E-02  0.1248038E+00
          2   -1    0    0  505    0 -0.00000000000E+00  0.00000000000E+00  0.15873019818E+03  0.15873019818E+03  0.00000000000E+00 0. -1.
         21   -1    0    0  503  502  0.00000000000E+00 -0.00000000000E+00 -0.10651371723E+04  0.10651371723E+04  0.00000000000E+00 0. -1.
         21    1    1    2  503  501  0.38177568828E+02 -0.91440027435E+01 -0.89596736914E+02  0.97819807879E+02  0.00000000000E+00 0.  1.
         21    1    1    2  504  502  0.80952066495E+02  0.14753187695E+02 -0.90953663339E+03  0.91325121467E+03  0.00000000000E+00 0. -1.
         21    1    1    2  505  504 -0.25677789787E+01  0.49115193436E+02  0.64255348229E+02  0.80917522770E+02  0.00000000000E+00 0. -1.
          2    1    1    2  501    0 -0.11656185634E+03 -0.54724378388E+02  0.28471047991E+02  0.13187882513E+03  0.00000000000E+00 0. -1.
<scales pt_clust_3="39.25735" pt_clust_4="14000.00000" pt_clust_5="49.08792" pt_clust_6="117.05393"></scales>
<clustering>
<clus scale="   39.257">  2  3  1 -1</clus>
<clus scale="   49.088">  1  5  2 -1</clus>
<clus scale="  117.054">  1  6  2 -1</clus>
<clus scale="   39.257">  2  3  1 -1</clus>
</clustering>
</event>
<event>
 6    0  0.3082502E+002  0.8095783E+02  0.7546771E-02  0.1326355E+00
          2   -1    0    0  503    0 -0.00000000000E+00  0.00000000000E+00  0.37312960745E+03  0.37312960745E+03  0.00000000000E+00 0.  1.
         21   -1    0    0  504  502  0.00000000000E+00 -0.00000000000E+00 -0.65696098399E+03  0.65696098399E+03  0.00000000000E+00 0.  1.
         21    1    1    2  503  502  0.46560430293E+02 -0.10213885789E+02  0.32221554545E+03  0.32572235856E+03  0.00000000000E+00 0.  1.
         21    1    1    2  504  505 -0.32583365836E+02  0.64064251019E+02 -0.31705088627E+03  0.32509562974E+03  0.00000000000E+00 0.  1.
         21    1    1    2  505  501  0.69275530689E+02  0.11828422601E+02 -0.26001141095E+03  0.26934168737E+03  0.00000000000E+00 0.  1.
          2    1    1    2  501    0 -0.83252595146E+02 -0.65678787831E+02 -0.28984624769E+02  0.10993091577E+03  0.00000000000E+00 0.  1.
<scales pt_clust_3="47.66757" pt_clust_4="69.46781" pt_clust_5="80.95783" pt_clust_6="14000.00000"></scales>
<clustering>
<clus scale="   47.668">  1  3  2 -1</clus>
<clus scale="   69.468">  2  4  1 -1</clus>
<clus scale="   80.958">  2  5  1 -1</clus>
<clus scale="   69.468">  2  3  1 -1</clus>
</clustering>
</event>
<event>
 6    0  0.3082502E+002  0.8947422E+02  0.7546771E-02  0.1304130E+00
          1   -1    0    0  504    0 -0.00000000000E+00  0.00000000000E+00  0.47749737307E+03  0.47749737307E+03  0.00000000000E+00 0. -1.
         21   -1    0    0  503  502  0.00000000000E+00 -0.00000000000E+00 -0.17982020969E+03  0.17982020969E+03  0.00000000000E+00 0.  1.
         21    1    1    2  503  505  0.11650007567E+03  0.13510135951E+02 -0.28741597825E+02  0.12075127681E+03  0.00000000000E+00 0.  1.
         21    1    1    2  504  502 -0.57744899403E+02  0.21270554531E+02 -0.71525572233E+02  0.94354742225E+02  0.00000000000E+00 0.  1.
         21    1    1    2  505  501 -0.29692060265E+02  0.69850040615E+02  0.10324237883E+03  0.12813912519E+03  0.00000000000E+00 0.  1.
          1    1    1    2  501    0 -0.29063116006E+02 -0.10463073110E+03  0.29470195461E+03  0.31407243854E+03  0.00000000000E+00 0. -1.
<scales pt_clust_3="77.92151" pt_clust_4="61.53787" pt_clust_5="89.47422" pt_clust_6="14000.00000"></scales>
<clustering>
<clus scale="   61.538">  2  4  1 -1</clus>
<clus scale="   77.922">  2  3  1 -1</clus>
<clus scale="   89.474">  2  5  1 -1</clus>
<clus scale="   61.538">  2  3  1 -1</clus>
</clustering>
</event>
<event>
 6    0  0.3082502E+002  0.1036444E+03  0.7546771E-02  0.1272814E+00
         21   -1    0    0  503  502  0.00000000000E+00  0.00000000000E+00  0.28746588815E+03  0.28746588815E+03  0.00000000000E+00 0.  1.
          2   -1    0    0  505    0 -0.00000000000E+00 -0.00000000000E+00 -0.19885086743E+04  0.19885086743E+04  0.00000000000E+00 0.  1.
         21    1    1    2  503  501  0.22436518284E+02 -0.50048656250E+02  0.24426403968E+03  0.25034613323E+03  0.00000000000E+00 0.  1.
         21    1    1    2  504  502 -0.96139244586E+02 -0.23613307753E+02 -0.41639854145E+02  0.10739748650E+03  0.00000000000E+00 0. -1.
         21    1    1    2  505  504 -0.20204359978E+02 -0.47385694746E+02 -0.16565305651E+03  0.17347782383E+03  0.00000000000E+00 0.  1.
          2    1    1    2  501    0  0.93907086280E+02  0.12104765875E+03 -0.17380139152E+04  0.17447531189E+04  0.00000000000E+00 0.  1.
<scales pt_clust_3="54.90617" pt_clust_4="14000.00000" pt_clust_5="51.51330" pt_clust_6="103.64440"></scales>
<clustering>
<clus scale="   51.513">  2  5  1 -1</clus>
<clus scale="   54.906">  1  3  2 -1</clus>
<clus scale="  103.644">  2  6  1 -1</clus>
<clus scale="   54.906">  1  3  2 -1</clus>
</clustering>
</event>
<event>
 6    0  0.3082502E+002  0.8007087E+02  0.7546771E-02  0.1328850E+00
         -1   -1    0    0    0  501 -0.00000000000E+00  0.00000000000E+00  0.55008406781E+03  0.55008406781E+03  0.00000000000E+00 0.  1.
         21   -1    0    0  504  502  0.00000000000E+00 -0.00000000000E+00 -0.47749593770E+02  0.47749593770E+02  0.00000000000E+00 0. -1.
         21    1    1    2  503  501  0.29339452879E+02 -0.16270896930E+02  0.10120280993E+03  0.10661873344E+03  0.00000000000E+00 0. -1.
         21    1    1    2  504  503  0.18467868190E+02 -0.53553755782E+02  0.45567523469E+02  0.72701211194E+02  0.00000000000E+00 0. -1.
         21    1    1    2  505  502 -0.12221077084E+00  0.12373750431E+03  0.12065510683E+03  0.17282546025E+03  0.00000000000E+00 0. -1.
         -1    1    1    2    0  505 -0.47685110298E+02 -0.53912851596E+02  0.23490903380E+03  0.24568825669E+03  0.00000000000E+00 0.  1.
<scales pt_clust_3="33.54915" pt_clust_4="60.02867" pt_clust_5="14000.00000" pt_clust_6="80.07087"></scales>
<clustering>
<clus scale="   33.549">  1  3  2 -1</clus>
<clus scale="   60.029">  2  4  1 -1</clus>
<clus scale="   80.071">  1  6  2 -1</clus>
<clus scale="   60.029">  2  3  1 -1</clus>
</clustering>
</event>
<event>
 6    0  0.3082502E+002  0.8444329E+02  0.7546771E-02  0.1316895E+00
         21   -1    0    0  501  502  0.00000000000E+00  0.00000000000E+00  0.58813420021E+03  0.58813420021E+03  0.00000000000E+00 0.  1.
          2   -1    0    0  503    0 -0.00000000000E+00 -0.00000000000E+00 -0.36182573625E+04  0.36182573625E+04  0.00000000000E+00 0.  1.
         21    1    1    2  503  504 -0.20199477367E+02 -0.22320199787E+02 -0.17300481548E+04  0.17303100381E+04  0.00000000000E+00 0.  1.
         21    1    1    2  504  505 -0.42954766751E+02 -0.93086380108E+02  0.38821694490E+02  0.10962349252E+03  0.00000000000E+00 0.  1.
         21    1    1    2  505  502  0.31945498898E+02  0.10069616230E+02  0.51160383156E+03  0.51269912477E+03  0.00000000000E+00 0.  1.
          2    1    1    2  501    0  0.31208745220E+02  0.10533696366E+03 -0.18505005336E+04  0.18537589073E+04  0.00000000000E+00 0.  1.
<scales pt_clust_3="30.10333" pt_clust_4="84.44329" pt_clust_5="33.48742" pt_clust_6="14000.00000"></scales>
<clustering>
<clus scale="   30.103">  2  3  1 -1</clus>
<clus scale="   33.487">  1  5  2 -1</clus>
<clus scale="   84.443">  1  4  2 -1</clus>
<clus scale="   33.487">  1  3  2 -1</clus>
</clustering>
</event>
<event>
 6    0  0.3082502E+002  0.1955386E+03  0.7546771E-02  0.1153559E+00
          1   -1    0    0  504    0 -0.00000000000E+00  0.00000000000E+00  0.64722130342E+03  0.64722130342E+03  0.00000000000E+00 0. -1.
         21   -1    0    0  503  502  0.00000000000E+00 -0.00000000000E+00 -0.24376598087E+03  0.24376598087E+03  0.00000000000E+00 0. -1.
         21    1    1    2  503  501  0.12870665398E+03  0.16594309614E+03 -0.18108168139E+02  0.21078524542E+03  0.00000000000E+00 0. -1.
         21    1    1    2  504  505 -0.33682593847E+02 -0.75825083249E+02  0.14060588974E+03  0.16326045635E+03  0.00000000000E+00 0. -1.
         21    1    1    2  505  502 -0.17915379176E+03 -0.76771322875E+02 -0.27588723281E+02  0.19685287595E+03  0.00000000000E+00 0. -1.
          1    1    1    2  501    0  0.84129731631E+02 -0.13346690011E+02  0.30854632423E+03  0.32008870657E+03  0.00000000000E+00 0. -1.
<scales pt_clust_3="14000.00000" pt_clust_4="82.96964" pt_clust_5="195.53865" pt_clust_6="87.84202"></scales>
<clustering>
<clus scale="   82.970">  1  4  2 -1</clus>
<clus scale="   87.842">  1  6  2 -1</clus>
<clus scale="  195.539">  2  5  1 -1</clus>
<clus scale="  195.539">  2  3  1 -1</clus>
</clustering>
</event>
<event>
 6    0  0.3082502E+002  0.1479822E+03  0.7546771E-02  0.1202975E+00
          1   -1    0    0  503    0 -0.00000000000E+00  0.00000000000E+00  0.58461753556E+03  0.58461753556E+03  0.00000000000E+00 0. -1.
         21   -1    0    0  504  502  0.00000000000E+00 -0.00000000000E+00 -0.20236522636E+03  0.20236522636E+03  0.00000000000E+00 0. -1.
         21    1    1    2  503  502 -0.18784195565E+02 -0.44419387283E+02  0.23547144285E+02  0.53669320599E+02  0.00000000000E+00 0. -1.
         21    1    1    2  504  505 -0.60242280080E+02 -0.34989013526E+01 -0.93140866949E+02  0.11098015911E+03  0.00000000000E+00 0. -1.
         21    1    1    2  505  501 -0.14194845491E+02 -0.49701097269E+02 -0.67905915035E+02  0.85339943784E+02  0.00000000000E+00 0.  1.
          1    1    1    2  501    0  0.93221321136E+02  0.97619385904E+02  0.51975194690E+03  0.53699333843E+03  0.00000000000E+00 0. -1.
<scales pt_clust_3="48.22788" pt_clust_4="63.14676" pt_clust_5="63.14676" pt_clust_6="132.90730"></scales>
<clustering>
<clus scale="   48.228">  2  3  1 -1</clus>
<clus scale="   63.147">  4  5 -1 -1</clus>
<clus scale="  132.907">  1  6  2 -1</clus>
<clus scale="   48.228">  2  3  1 -1</clus>
</clustering>
</event>
<event>
 6    0  0.3082502E+002  0.1894677E+03  0.7546771E-02  0.1158942E+00
          1   -1    0    0  505    0 -0.00000000000E+00  0.00000000000E+00  0.74761445789E+03  0.74761445789E+03  0.00000000000E+00 0. -1.
         21   -1    0    0  501  502  0.00000000000E+00 -0.00000000000E+00 -0.39774388494E+03  0.39774388494E+03  0.00000000000E+00 0. -1.
         21    1    1    2  503  502 -0.44081674492E+02  0.46741561254E+02 -0.20934173388E+03  0.21897928925E+03  0.00000000000E+00 0. -1.
         21    1    1    2  504  503 -0.11481034880E+03  0.65454087489E+02 -0.13198932256E+03  0.18678017837E+03  0.00000000000E+00 0. -1.
         21    1    1    2  505  504 -0.30547901998E+02  0.66991302086E+01  0.16337202746E+03  0.16633842617E+03  0.00000000000E+00 0. -1.
          1    1    1    2  501    0  0.18943992529E+03 -0.11889477895E+03  0.52782960194E+03  0.57326044904E+03  0.00000000000E+00 0. -1.
<scales pt_clust_3="64.46303" pt_clust_4="14000.00000" pt_clust_5="31.27383" pt_clust_6="189.46765"></scales>
<clustering>
<clus scale="   31.274">  1  5  2 -1</clus>
<clus scale="   64.463">  2  3  1 -1</clus>
<clus scale="  189.468">  1  6  2 -1</clus>
<clus scale="   64.463">  2  3  1 -1</clus>
</clustering>
</event>
<event>
 6    0  0.3082502E+002  0.8608619E+02  0.7546771E-02  0.1312616E+00
         -2   -1    0    0    0  501 -0.00000000000E+00  0.00000000000E+00  0.20827506315E+03  0.20827506315E+03  0.00000000000E+00 0. -1.
         21   -1    0    0  504  502  0.00000000000E+00 -0.00000000000E+00 -0.20333633962E+03  0.20333633962E+03  0.00000000000E+00 0. -1.
         21    1    1    2  503  501 -0.13313485287E+02 -0.71838257454E+02  0.43924233040E+02  0.85248591617E+02  0.00000000000E+00 0. -1.
         21    1    1    2  504  503 -0.46312159980E+02 -0.72314764141E+01 -0.69632126654E+02  0.83938927057E+02  0.00000000000E+00 0. -1.
         21    1    1    2  505  502  0.31428340012E+02 -0.14358202739E+02 -0.84614423735E+02  0.91397479428E+02  0.00000000000E+00 0. -1.
         -2    1    1    2    0  505  0.28197305254E+02  0.93427936607E+02  0.11526104088E+03  0.15102640467E+03  0.00000000000E+00 0. -1.
<scales pt_clust_3="86.08619" pt_clust_4="30.43790" pt_clust_5="34.55284" pt_clust_6="14000.00000"></scales>
<clustering>
<clus scale="   34.553">  2  5  1 -1</clus>
<clus scale="   30.438">  2  4  1 -1</clus>
<clus scale="   86.086">  2  3  1 -1</clus>
<clus scale="   34.553">  2  3  1 -1</clus>
</clustering>
</event>
<event>
 6    0  0.3082502E+002  0.1216970E+03  0.7546771E-02  0.1240323E+00
         21   -1    0    0  501  502  0.00000000000E+00  0.00000000000E+00  0.12620171987E+04  0.12620171987E+04  0.00000000000E+00 0.  1.
          4   -1    0    0  504    0 -0.00000000000E+00 -0.00000000000E+00 -0.71546136220E+03  0.71546136220E+03  0.00000000000E+00 0.  1.
         21    1    1    2  503  505  0.63893996323E+02 -0.29338826127E+02  0.78224607563E+02  0.10517746295E+03  0.00000000000E+00 0. -1.
         21    1    1    2  504  503  0.47414349921E+02 -0.11003115046E+03 -0.63270334190E+03  0.64394758599E+03  0.00000000000E+00 0.  1.
         21    1    1    2  505  502 -0.50908247006E+02 -0.85718611936E+00  0.10716631357E+04  0.10728719685E+04  0.00000000000E+00 0.  1.
          4    1    1    2  501    0 -0.60400099238E+02  0.14022716271E+03  0.29371435111E+02  0.15548154344E+03  0.00000000000E+00 0.  1.
<scales pt_clust_3="49.28547" pt_clust_4="121.69701" pt_clust_5="50.91546" pt_clust_6="14000.00000"></scales>
<clustering>
<clus scale="   50.915">  1  5  2 -1</clus>
<clus scale="   49.285">  1  3  2 -1</clus>
<clus scale="  121.697">  2  4  1 -1</clus>
<clus scale="   50.915">  1  3  2 -1</clus>
</clustering>
</event>
<event>
 6    0  0.3082502E+002  0.1778152E+03  0.7546771E-02  0.1169934E+00
          2   -1    0    0  504    0 -0.00000000000E+00  0.00000000000E+00  0.17695667396E+04  0.17695667396E+04  0.00000000000E+00 0.  1.
         21   -1    0    0  503  502  0.00000000000E+00 -0.00000000000E+00 -0.44043277928E+03  0.44043277928E+03  0.00000000000E+00 0. -1.
         21    1    1    2  503  501  0.23523644983E+03 -0.46439224211E+02  0.33372075273E+03  0.41092861871E+03  0.00000000000E+00 0. -1.
         21    1    1    2  504  505 -0.62068286678E+02 -0.63182630508E+01  0.75729233480E+03  0.75985792949E+03  0.00000000000E+00 0.  1.
         21    1    1    2  505  502 -0.65662229861E+02 -0.25579516912E+02 -0.39043121108E+03  0.39673967624E+03  0.00000000000E+00 0. -1.
          2    1    1    2  501    0 -0.10750593329E+03  0.78337004174E+02  0.62855208384E+03  0.64247329440E+03  0.00000000000E+00 0.  1.
<scales pt_clust_3="177.81519" pt_clust_4="62.38904" pt_clust_5="70.65633" pt_clust_6="14000.00000"></scales>
<clustering>
<clus scale="   62.389">  1  4  2 -1</clus>
<clus scale="   70.656">  2  5  1 -1</clus>
<clus scale="  177.815">  2  3  1 -1</clus>
<clus scale="   70.656">  2  3  1 -1</clus>
</clustering>
</event>
<event>
 6    0  0.3082502E+002  0.7623860E+02  0.7546771E-02  0.1340078E+00
          2   -1    0    0  504    0 -0.00000000000E+00  0.00000000000E+00  0.34712126850E+04  0.34712126850E+04  0.00000000000E+00 0. -1.
         21   -1    0    0  505  502  0.00000000000E+00 -0.00000000000E+00 -0.46772592656E+02  0.46772592656E+02  0.00000000000E+00 0.  1.
         21    1    1    2  503  502 -0.11134967340E+03  0.23809855191E+02  0.67455553805E+02  0.13234768872E+03  0.00000000000E+00 0.  1.
         21    1    1    2  504  503 -0.12273093566E+02  0.55015403916E+02  0.10100844704E+04  0.10116560487E+04  0.00000000000E+00 0. -1.
         21    1    1    2  505  501  0.40397611130E+02 -0.70381484706E+01  0.22095101763E+02  0.46579996145E+02  0.00000000000E+00 0.  1.
          2    1    1    2  501    0  0.83225155838E+02 -0.71787110637E+02  0.23248049664E+04  0.23274015441E+04  0.00000000000E+00 0. -1.
<scales pt_clust_3="14000.00000" pt_clust_4="56.01790" pt_clust_5="41.00613" pt_clust_6="76.23860"></scales>
<clustering>
<clus scale="   41.006">  2  5  1 -1</clus>
<clus scale="   56.018">  1  4  2 -1</clus>
<clus scale="   76.239">  1  6  2 -1</clus>
<clus scale="   41.006">  2  3  1 -1</clus>
</clustering>
</event>
<event>
 6    0  0.3082502E+002  0.1370275E+03  0.7546771E-02  0.1217386E+00
         21   -1    0    0  503  502  0.00000000000E+00  0.00000000000E+00  0.30458907717E+04  0.30458907717E+04  0.00000000000E+00 0.  1.
          2   -1    0    0  504    0 -0.00000000000E+00 -0.00000000000E+00 -0.63861431601E+03  0.63861431601E+03  0.00000000000E+00 0. -1.
         21    1    1    2  503  501  0.10407942981E+02  0.64539121702E+02  0.18800049894E+02  0.68022535848E+02  0.00000000000E+00 0. -1.
         21    1    1    2  504  505  0.45471950988E+02  0.11516508518E+03  0.82042574975E+03  0.82971628043E+03  0.00000000000E+00 0. -1.
         21    1    1    2  505  502 -0.10263150810E+02 -0.50360659833E+02  0.21693828361E+04  0.21699915709E+04  0.00000000000E+00 0.  1.
          2    1    1    2  501    0 -0.45616743159E+02 -0.12934354705E+03 -0.60133218005E+03  0.61677470050E+03  0.00000000000E+00 0. -1.
<scales pt_clust_3="62.82881" pt_clust_4="14000.00000" pt_clust_5="51.39580" pt_clust_6="137.02748"></scales>
<clustering>
<clus scale="   51.396">  1  5  2 -1</clus>
<clus scale="   62.829">  1  3  2 -1</clus>
<clus scale="  137.027">  2  6  1 -1</clus>
<clus scale="   51.396">  1  3  2 -1</clus>
</clustering>
</event>
<event>
 6    0  0.3082502E+002  0.8801822E+02  0.7546771E-02  0.1307723E+00
          2   -1    0    0  505    0 -0.00000000000E+00  0.00000000000E+00  0.23088815095E+03  0.23088815095E+03  0.00000000000E+00 0.  1.
         21   -1    0    0  503  502  0.00000000000E+00 -0.00000000000E+00 -0.14790584176E+03  0.14790584176E+03  0.00000000000E+00 0.  1.
         21    1    1    2  503  501  0.57601343814E+02 -0.45818202492E+02 -0.70703934288E+01  0.73940604217E+02  0.00000000000E+00 0.  1.
         21    1    1    2  504  502 -0.10859113895E+03  0.20176549060E+02 -0.39856628622E+02  0.11742094973E+03  0.00000000000E+00 0.  1.
         21    1    1    2  505  504 -0.89912653943E+01 -0.41046008806E+02  0.23073869875E+02  0.47937679995E+02  0.00000000000E+00 0.  1.
          2    1    1    2  501    0  0.59981060532E+02  0.66687662238E+02  0.10683546137E+03  0.13949475877E+03  0.00000000000E+00 0.  1.
<scales pt_clust_3="88.01822" pt_clust_4="14000.00000" pt_clust_5="42.01925" pt_clust_6="67.93840"></scales>
<clustering>
<clus scale="   42.019">  1  5  2 -1</clus>
<clus scale="   67.938">  1  6  2 -1</clus>
<clus scale="   88.018">  2  3  1 -1</clus>
<clus scale="   88.018">  2  3  1 -1</clus>
</clustering>
</event>
<event>
 6    0  0.3082502E+002  0.1140407E+03  0.7546771E-02  0.1253265E+00
          2   -1    0    0  503    0 -0.00000000000E+00  0.00000000000E+00  0.26809688736E+04  0.26809688736E+04  0.00000000000E+00 0. -1.
         21   -1    0    0  504  502  0.00000000000E+00 -0.00000000000E+00 -0.56863501380E+02  0.56863501380E+02  0.00000000000E+00 0.  1.
         21    1    1    2  503  505  0.10557690495E+01  0.90912953683E+02  0.51688107875E+03  0.52481647208E+03  0.00000000000E+00 0. -1.
         21    1    1    2  504  501  0.69392689307E+02 -0.22556262308E+02 -0.11838514025E+02  0.73920773216E+02  0.00000000000E+00 0.  1.
         21    1    1    2  505  502 -0.93629367929E+01  0.46266010049E+02  0.61942883740E+02  0.77878938856E+02  0.00000000000E+00 0.  1.
          2    1    1    2  501    0 -0.61085521564E+02 -0.11462270142E+03  0.20571199238E+04  0.20612161908E+04  0.00000000000E+00 0. -1.
<scales pt_clust_3="114.04067" pt_clust_4="63.77954" pt_clust_5="47.20390" pt_clust_6="14000.00000"></scales>
<clustering>
<clus scale="   47.204">  2  5  1 -1</clus>
<clus scale="   63.780">  2  4  1 -1</clus>
<clus scale="  114.041">  2  3  1 -1</clus>
<clus scale="   47.204">  2  3  1 -1</clus>
</clustering>
</event>
<event>
 6    0  0.3082502E+002  0.1166288E+03  0.7546771E-02  0.1248764E+00
         21   -1    0    0  504  502  0.00000000000E+00  0.00000000000E+00  0.76700165975E+03  0.76700165975E+03  0.00000000000E+00 0. -1.
         -3   -1    0    0    0  501 -0.00000000000E+00 -0.00000000000E+00 -0.10055057470E+03  0.10055057470E+03  0.00000000000E+00 0.  1.
         21    1    1    2  503  501 -0.70300508897E+02 -0.29628518543E+02  0.50337622649E+01  0.76454884898E+02  0.00000000000E+00 0.  1.
         21    1    1    2  504  503 -0.41158675791E+02 -0.11229268641E+03  0.23811358470E+03  0.26646156052E+03  0.00000000000E+00 0. -1.
         21    1    1    2  505  502 -0.19155221662E+02  0.37004259172E+02  0.33049733390E+03  0.33311368244E+03  0.00000000000E+00 0. -1.
         -3    1    1    2    0  505  0.13061440635E+03  0.10491694578E+03  0.92806404193E+02  0.19152210660E+03  0.00000000000E+00 0.  1.
<scales pt_clust_3="76.69476" pt_clust_4="14000.00000" pt_clust_5="41.66819" pt_clust_6="116.62879"></scales>
<clustering>
<clus scale="   41.668">  1  5  2 -1</clus>
<clus scale="   76.695">  2  3  1 -1</clus>
<clus scale="  116.629">  2  6  1 -1</clus>
<clus scale="   41.668">  1  3  2 -1</clus>
</clustering>
</event>
<event>
 6    0  0.3082502E+002  0.1499964E+03  0.7546771E-02  0.1200477E+00
         21   -1    0    0  504  502  0.00000000000E+00  0.00000000000E+00  0.71209315888E+03  0.71209315888E+03  0.00000000000E+00 0.  1.
          2   -1    0    0  505    0 -0.00000000000E+00 -0.00000000000E+00 -0.11617209642E+03  0.11617209642E+03  0.00000000000E+00 0. -1.
         21    1    1    2  503  502  0.38717259555E+02  0.12612156741E+03  0.78095725226E+02  0.15331215950E+03  0.00000000000E+00 0. -1.
         21    1    1    2  504  501 -0.11772181435E+03  0.16917527031E+02  0.33148007390E+03  0.35216994149E+03  0.00000000000E+00 0.  1.
         21    1    1    2  505  503 -0.53942779804E+01  0.34441035948E+02 -0.18031307373E+02  0.39248073044E+02  0.00000000000E+00 0. -1.
          2    1    1    2  501    0  0.84398832777E+02 -0.17748013039E+03  0.20437657071E+03  0.28353508127E+03  0.00000000000E+00 0. -1.
<scales pt_clust_3="14000.00000" pt_clust_4="120.20576" pt_clust_5="34.86091" pt_clust_6="149.99637"></scales>
<clustering>
<clus scale="   34.861">  2  5  1 -1</clus>
<clus scale="  120.206">  1  4  2 -1</clus>
<clus scale="  149.996">  1  6  2 -1</clus>
<clus scale="  120.206">  1  3  2 -1</clus>
</clustering>
</event>
<event>
 6    0  0.3082502E+002  0.9371452E+02  0.7546771E-02  0.1294098E+00
         21   -1    0    0  504  502  0.00000000000E+00  0.00000000000E+00  0.15557101894E+04  0.15557101894E+04  0.00000000000E+00 0.  1.
          2   -1    0    0  503    0 -0.00000000000E+00 -0.00000000000E+00 -0.31093409749E+03  0.31093409749E+03  0.00000000000E+00 0. -1.
         21    1    1    2  503  505  0.44850541042E+02  0.27954605545E+02 -0.13349031594E+03  0.14357122084E+03  0.00000000000E+00 0. -1.
         21    1    1    2  504  501  0.82475702235E+02 -0.49893949294E+02  0.72069987686E+03  0.72711756968E+03  0.00000000000E+00 0.  1.
         21    1    1    2  505  502 -0.10112674473E+03 -0.12486436382E+02  0.82079291135E+03  0.82709342454E+03  0.00000000000E+00 0.  1.
          2    1    1    2  501    0 -0.26199498546E+02  0.34425780131E+02 -0.16322638035E+03  0.16886207183E+03  0.00000000000E+00 0. -1.
<scales pt_clust_3="64.00913" pt_clust_4="14000.00000" pt_clust_5="93.71452" pt_clust_6="43.26139"></scales>
<clustering>
<clus scale="   43.261">  2  6  1 -1</clus>
<clus scale="   64.009">  2  3  1 -1</clus>
<clus scale="   93.715">  1  5  2 -1</clus>
<clus scale="   93.715">  1  3  2 -1</clus>
</clustering>
</event>
<event>
 6    0  0.3082502E+002  0.2447680E+03  0.7546771E-02  0.1116657E+00
         21   -1    0    0  504  502  0.00000000000E+00  0.00000000000E+00  0.39004024315E+03  0.39004024315E+03  0.00000000000E+00 0. -1.
          2   -1    0    0  503    0 -0.00000000000E+00 -0.00000000000E+00 -0.80757307981E+03  0.80757307981E+03  0.00000000000E+00 0. -1.
         21    1    1    2  503  505  0.33496460905E+01 -0.26771555467E+03 -0.23264378733E+03  0.35469137306E+03  0.00000000000E+00 0. -1.
         21    1    1    2  504  501 -0.60045618436E+01  0.84789696656E+02  0.19047477151E+03  0.20858088600E+03  0.00000000000E+00 0. -1.
         21    1    1    2  505  502 -0.22644416663E+02 -0.50615570814E+02  0.94193150049E+02  0.10930258520E+03  0.00000000000E+00 0. -1.
          2    1    1    2  501    0  0.25299332416E+02  0.23354142883E+03 -0.46955697090E+03  0.52503847870E+03  0.00000000000E+00 0. -1.
<scales pt_clust_3="14000.00000" pt_clust_4="54.27519" pt_clust_5="55.45003" pt_clust_6="244.76796"></scales>
<clustering>
<clus scale="   55.450">  1  5  2 -1</clus>
<clus scale="   54.275">  1  4  2 -1</clus>
<clus scale="  244.768">  2  6  1 -1</clus>
<clus scale="   55.450">  1  3  2 -1</clus>
</clustering>
</event>
<event>
 6    0  0.3082502E+002  0.8442498E+02  0.7546771E-02  0.1316943E+00
          2   -1    0    0  503    0 -0.00000000000E+00  0.00000000000E+00  0.18485353756E+04  0.18485353756E+04  0.00000000000E+00 0.  1.
         21   -1    0    0  504  502  0.00000000000E+00 -0.00000000000E+00 -0.71954163259E+02  0.71954163259E+02  0.00000000000E+00 0. -1.
         21    1    1    2  503  502  0.18782743184E+02 -0.50773089126E+02  0.99706558603E+03  0.99853416610E+03  0.00000000000E+00 0.  1.
         21    1    1    2  504  505 -0.77886475153E+02 -0.53854536357E+02 -0.17879044829E+02  0.96365317111E+02  0.00000000000E+00 0. -1.
         21    1    1    2  505  501  0.29491459896E+02  0.61470810425E+02  0.75217953121E+02  0.10151919628E+03  0.00000000000E+00 0. -1.
          2    1    1    2  501    0  0.29612272073E+02  0.43156815058E+02  0.72217671803E+03  0.72407085938E+03  0.00000000000E+00 0.  1.
<scales pt_clust_3="46.74238" pt_clust_4="84.42498" pt_clust_5="14000.00000" pt_clust_6="52.33925"></scales>
<clustering>
<clus scale="   52.339">  1  6  2 -1</clus>
<clus scale="   46.742">  1  3  2 -1</clus>
<clus scale="   84.425">  2  4  1 -1</clus>
<clus scale="   84.425">  2  3  1 -1</clus>
</clustering>
</event>
<event>
 6    0  0.3082502E+002  0.1037097E+03  0.7546771E-02  0.1272683E+00
         21   -1    0    0  504  502  0.00000000000E+00  0.00000000000E+00  0.16844449076E+04  0.16844449076E+04  0.00000000000E+00 0. -1.
          2   -1    0    0  505    0 -0.00000000000E+00 -0.00000000000E+00 -0.49789831655E+03  0.49789831655E+03  0.00000000000E+00 0.  1.
         21    1    1    2  503  502  0.14299839225E+02 -0.97058314500E+02  0.50432598826E+02  0.11030978578E+03  0.00000000000E+00 0.  1.
         21    1    1    2  504  501 -0.98890810499E+02  0.32196811387E+02  0.15923901342E+04  0.15957826815E+04  0.00000000000E+00 0. -1.
         21    1    1    2  505  503  0.15240887023E+02  0.64991033468E+02 -0.24146867137E+03  0.25052592345E+03  0.00000000000E+00 0. -1.
          2    1    1    2  501    0  0.69350084251E+02 -0.12953035506E+00 -0.21480747064E+03  0.22572483338E+03  0.00000000000E+00 0.  1.
<scales pt_clust_3="90.77528" pt_clust_4="14000.00000" pt_clust_5="66.75417" pt_clust_6="103.70973"></scales>
<clustering>
<clus scale="   66.754">  2  5  1 -1</clus>
<clus scale="   90.775">  2  3  1 -1</clus>
<clus scale="  103.710">  2  6  1 -1</clus>
<clus scale="  103.710">  1  3  2 -1</clus>
</clustering>
</event>
<event>
 6    0  0.3082502E+002  0.1460519E+03  0.7546771E-02  0.1205410E+00
         21   -1    0    0  503  502  0.00000000000E+00  0.00000000000E+00  0.16974436000E+03  0.16974436000E+03  0.00000000000E+00 0.  1.
          2   -1    0    0  504    0 -0.00000000000E+00 -0.00000000000E+00 -0.17412014157E+04  0.17412014157E+04  0.00000000000E+00 0.  1.
         21    1    1    2  503  501  0.19293804997E+02 -0.25292500951E+02 -0.10773216640E+02  0.33586064259E+02  0.00000000000E+00 0. -1.
         21    1    1    2  504  505 -0.11837790194E+03  0.34053169368E+02 -0.36509077197E+03  0.38531054720E+03  0.00000000000E+00 0. -1.
         21    1    1    2  505  502 -0.60062118842E+02 -0.35840304191E+02  0.13481719030E+03  0.15188041455E+03  0.00000000000E+00 0.  1.
          2    1    1    2  501    0  0.15914621578E+03  0.27079635774E+02 -0.13304102574E+04  0.13401687497E+04  0.00000000000E+00 0.  1.
<scales pt_clust_3="31.81134" pt_clust_4="14000.00000" pt_clust_5="72.55704" pt_clust_6="146.05194"></scales>
<clustering>
<clus scale="   31.811">  1  3  2 -1</clus>
<clus scale="   72.557">  1  5  2 -1</clus>
<clus scale="  146.052">  2  6  1 -1</clus>
<clus scale="   31.811">  1  3  2 -1</clus>
</clustering>
</event>
<event>
 6    0  0.3082502E+002  0.1039684E+03  0.7546771E-02  0.1272166E+00
         -3   -1    0    0    0  501 -0.00000000000E+00  0.00000000000E+00  0.28611816450E+03  0.28611816450E+03  0.00000000000E+00 0.  1.
         21   -1    0    0  505  502  0.00000000000E+00 -0.00000000000E+00 -0.21467450631E+03  0.21467450631E+03  0.00000000000E+00 0.  1.
         21    1    1    2  503  502 -0.24003742582E+02  0.12284722903E+03 -0.48442133915E+02  0.13421721826E+03  0.00000000000E+00 0.  1.
         21    1    1    2  504  501  0.37180337657E+02  0.25820834277E+02  0.93798382104E+02  0.10415003349E+03  0.00000000000E+00 0. -1.
         21    1    1    2  505  504 -0.13750371961E+01 -0.94818231932E+02 -0.91988269076E+02  0.13211445599E+03  0.00000000000E+00 0.  1.
         -3    1    1    2    0  503 -0.11801557880E+02 -0.53849831374E+02  0.11807567907E+03  0.13031096307E+03  0.00000000000E+00 0.  1.
<scales pt_clust_3="103.96837" pt_clust_4="45.26691" pt_clust_5="14000.00000" pt_clust_6="38.90563"></scales>
<clustering>
<clus scale="   45.267">  1  4  2 -1</clus>
<clus scale="   38.906">  1  6  2 -1</clus>
<clus scale="  103.968">  1  3  2 -1</clus>
<clus scale="  103.968">  2  3  1 -1</clus>
</clustering>
</event>
<event>
 6    0  0.3082502E+002  0.1247275E+03  0.7546771E-02  0.1235496E+00
         21   -1    0    0  501  502  0.00000000000E+00  0.00000000000E+00  0.13213012393E+04  0.13213012393E+04  0.00000000000E+00 0.  1.
          2   -1    0    0  504    0 -0.00000000000E+00 -0.00000000000E+00 -0.15343630206E+03  0.15343630206E+03  0.00000000000E+00 0.  1.
         21    1    1    2  503  505 -0.54853540141E+01  0.10609852685E+03  0.97763193201E+02  0.14437668944E+03  0.00000000000E+00 0. -1.
         21    1    1    2  504  503  0.34229206939E+02  0.10095680340E+02 -0.48162913314E+02  0.59943536667E+02  0.00000000000E+00 0.  1.
         21    1    1    2  505  502 -0.24531580177E+02  0.23283546498E+02  0.11298867219E+04  0.11303928195E+04  0.00000000000E+00 0.  1.
          2    1    1    2  501    0 -0.42122727482E+01 -0.13947775369E+03 -0.11622064614E+02  0.14002449572E+03  0.00000000000E+00 0.  1.
<scales pt_clust_3="14000.00000" pt_clust_4="35.17650" pt_clust_5="33.82192" pt_clust_6="124.72754"></scales>
<clustering>
<clus scale="   33.822">  1  5  2 -1</clus>
<clus scale="   35.176">  2  4  1 -1</clus>
<clus scale="  124.728">  2  6  1 -1</clus>
<clus scale="   33.822">  1  3  2 -1</clus>
</clustering>
</event>
<event>
 6    0  0.3082502E+002  0.1315213E+03  0.7546771E-02  0.1225216E+00
          2   -1    0    0  504    0 -0.00000000000E+00  0.00000000000E+00  0.59347738813E+03  0.59347738813E+03  0.00000000000E+00 0.  1.
         21   -1    0    0  503  502  0.00000000000E+00 -0.00000000000E+00 -0.17014422293E+03  0.17014422293E+03  0.00000000000E+00 0. -1.
         21    1    1    2  503  505 -0.29279328183E+02  0.37600799620E+02 -0.80983916374E+02  0.93965386724E+02  0.00000000000E+00 0. -1.
         21    1    1    2  504  502 -0.88737385491E+01  0.56517716555E+02  0.74919604580E+02  0.94265278182E+02  0.00000000000E+00 0.  1.
         21    1    1    2  505  501  0.82738597676E+02 -0.16041864637E+03  0.49472761521E+02  0.18715600921E+03  0.00000000000E+00 0. -1.
          2    1    1    2  501    0 -0.44585530944E+02  0.66300130198E+02  0.37992471548E+03  0.38823493695E+03  0.00000000000E+00 0.  1.
<scales pt_clust_3="47.65605" pt_clust_4="62.14652" pt_clust_5="131.52132" pt_clust_6="14000.00000"></scales>
<clustering>
<clus scale="   47.656">  2  3  1 -1</clus>
<clus scale="   62.147">  1  4  2 -1</clus>
<clus scale="  131.521">  2  5  1 -1</clus>
<clus scale="   47.656">  2  3  1 -1</clus>
</clustering>
</event>
<event>
 6    0  0.3082502E+002  0.2693017E+03  0.7546771E-02  0.1101680E+00
          2   -1    0    0  505    0 -0.00000000000E+00  0.00000000000E+00  0.24423289463E+04  0.24423289463E+04  0.00000000000E+00 0. -1.
         21   -1    0    0  504  502  0.00000000000E+00 -0.00000000000E+00 -0.61980744667E+02  0.61980744667E+02  0.00000000000E+00 0.  1.
         21    1    1    2  503  501 -0.59796581983E+02  0.24468754037E+03  0.72896068186E+03  0.77125307087E+03  0.00000000000E+00 0.  1.
         21    1    1    2  504  503  0.16184916183E+02  0.52497692440E+02  0.52055177199E+02  0.75681574353E+02  0.00000000000E+00 0. -1.
         21    1    1    2  505  502 -0.31565044948E+02 -0.28104723692E+02  0.96799666268E+01  0.43358151601E+02  0.00000000000E+00 0.  1.
          2    1    1    2  501    0  0.75176710748E+02 -0.26908050911E+03  0.15896523759E+04  0.16140168941E+04  0.00000000000E+00 0. -1.
<scales pt_clust_3="269.30166" pt_clust_4="45.83320" pt_clust_5="42.26379" pt_clust_6="14000.00000"></scales>
<clustering>
<clus scale="   42.264">  2  5  1 -1</clus>
<clus scale="   45.833">  2  4  1 -1</clus>
<clus scale="  269.302">  2  3  1 -1</clus>
<clus scale="   42.264">  2  3  1 -1</clus>
</clustering>
</event>
<event>
 6    0  0.3082502E+002  0.6872893E+02  0.7546771E-02  0.1364470E+00
         21   -1    0    0  504  502  0.00000000000E+00  0.00000000000E+00  0.86223302433E+02  0.86223302433E+02  0.00000000000E+00 0.  1.
         -3   -1    0    0    0  501 -0.00000000000E+00 -0.00000000000E+00 -0.13705289017E+04  0.13705289017E+04  0.00000000000E+00 0. -1.
         21    1    1    2  503  505 -0.97907713689E+01 -0.42573038805E+02 -0.39125994661E+03  0.39369108277E+03  0.00000000000E+00 0. -1.
         21    1    1    2  504  501 -0.47767636909E+02 -0.28431207497E+02  0.54309530676E+02  0.77714900874E+02  0.00000000000E+00 0.  1.
         21    1    1    2  505  502  0.79102306657E+02  0.92572848233E+02 -0.17960168259E+03  0.21698772209E+03  0.00000000000E+00 0. -1.
         -3    1    1    2    0  503 -0.21543898380E+02 -0.21568601932E+02 -0.76775350074E+03  0.76835849839E+03  0.00000000000E+00 0. -1.
<scales pt_clust_3="68.72893" pt_clust_4="56.16256" pt_clust_5="14000.00000" pt_clust_6="30.48515"></scales>
<clustering>
<clus scale="   30.485">  2  6  1 -1</clus>
<clus scale="   56.163">  1  4  2 -1</clus>
<clus scale="   68.729">  2  3  1 -1</clus>
<clus scale="   56.163">  1  3  2 -1</clus>
</clustering>
</event>
<event>
 6    0  0.3082502E+002  0.1692402E+03  0.7546771E-02  0.1178643E+00
          2   -1    0    0  505    0 -0.00000000000E+00  0.00000000000E+00  0.32696349136E+04  0.32696349136E+04  0.00000000000E+00 0.  1.
         21   -1    0    0  503  502  0.00000000000E+00 -0.00000000000E+00 -0.17371896540E+03  0.17371896540E+03  0.00000000000E+00 0.  1.
         21    1    1    2  503  501 -0.37624542266E+02  0.35637966083E+02  0.66687794819E+02  0.84456691772E+02  0.00000000000E+00 0.  1.
         21    1    1    2  504  502  0.20288489508E+03 -0.17297520863E+02 -0.94498808730E+02  0.22448053308E+03  0.00000000000E+00 0.  1.
         21    1    1    2  505  504  0.44431550552E+02  0.51140132548E+01  0.38922031642E+03  0.39178153419E+03  0.00000000000E+00 0.  1.
          2    1    1    2  501    0 -0.20969190336E+03 -0.23454458474E+02  0.27345066457E+04  0.27426351200E+04  0.00000000000E+00 0.  1.
<scales pt_clust_3="51.07697" pt_clust_4="14000.00000" pt_clust_5="44.72489" pt_clust_6="169.24019"></scales>
<clustering>
<clus scale="   44.725">  1  5  2 -1</clus>
<clus scale="   51.077">  2  3  1 -1</clus>
<clus scale="  169.240">  1  6  2 -1</clus>
<clus scale="   51.077">  2  3  1 -1</clus>
</clustering>
</event>
<event>
 6    0  0.3082502E+002  0.1265906E+03  0.7546771E-02  0.1232604E+00
         -2   -1    0    0    0  501 -0.00000000000E+00  0.00000000000E+00  0.16122477366E+03  0.16122477366E+03  0.00000000000E+00 0.  1.
         21   -1    0    0  504  502  0.00000000000E+00 -0.00000000000E+00 -0.30930259074E+03  0.30930259074E+03  0.00000000000E+00 0.  1.
         21    1    1    2  503  502  0.67128311088E+02 -0.68898746575E+02 -0.11417749789E+03  0.14929751657E+03  0.00000000000E+00 0.  1.
         21    1    1    2  504  501  0.13022956044E+02 -0.45369049894E+02  0.10490259844E+03  0.11503261812E+03  0.00000000000E+00 0.  1.
         21    1    1    2  505  503 -0.17034485498E+02  0.38267848179E+02 -0.82407467798E+02  0.92442374749E+02  0.00000000000E+00 0.  1.
         -2    1    1    2    0  505 -0.63116781634E+02  0.75999948290E+02 -0.56395449834E+02  0.11375485496E+03  0.00000000000E+00 0.  1.
<scales pt_clust_3="110.70446" pt_clust_4="47.20114" pt_clust_5="39.97958" pt_clust_6="39.97958"></scales>
<clustering>
<clus scale="   39.980">  5  6 -1 -1</clus>
<clus scale="   47.201">  1  4  2 -1</clus>
<clus scale="  110.704">  2  3  1 -1</clus>
<clus scale="  110.704">  2  3  1 -1</clus>
</clustering>
</event>
<event>
 6    0  0.3082502E+002  0.1194243E+03  0.7546771E-02  0.1244050E+00
          1   -1    0    0  505    0 -0.00000000000E+00  0.00000000000E+00  0.11268934124E+04  0.11268934124E+04  0.00000000000E+00 0.  1.
         21   -1    0    0  504  502  0.00000000000E+00 -0.00000000000E+00 -0.61021596514E+03  0.61021596514E+03  0.00000000000E+00 0. -1.
         21    1    1    2  503  502 -0.49621573035E+02  0.45811094231E+02 -0.57286335957E+03  0.57683046522E+03  0.00000000000E+00 0. -1.
         21    1    1    2  504  501 -0.44140830341E+02  0.29009236624E+02  0.83554840606E+01  0.53476750337E+02  0.00000000000E+00 0.  1.
         21    1    1    2  505  503  0.24293347258E+02  0.54741768342E+02  0.11663380149E+03  0.13111167595E+03  0.00000000000E+00 0.  1.
          1    1    1    2  501    0  0.69469056118E+02 -0.12956209920E+03  0.96455152124E+03  0.97569048598E+03  0.00000000000E+00 0.  1.
<scales pt_clust_3="119.42433" pt_clust_4="52.81997" pt_clust_5="59.99963" pt_clust_6="14000.00000"></scales>
<clustering>
<clus scale="   52.820">  2  4  1 -1</clus>
<clus scale="   60.000">  1  5  2 -1</clus>
<clus scale="  119.424">  2  3  1 -1</clus>
<clus scale="   52.820">  2  3  1 -1</clus>
</clustering>
</event>
<event>
 6    0  0.3082502E+002  0.1277901E+03  0.7546771E-02  0.1230772E+00
          2   -1    0    0  504    0 -0.00000000000E+00  0.00000000000E+00  0.10269296892E+04  0.10269296892E+04  0.00000000000E+00 0. -1.
         21   -1    0    0  501  502  0.00000000000E+00 -0.00000000000E+00 -0.11087124195E+03  0.11087124195E+03  0.00000000000E+00 0. -1.
         21    1    1    2  503  505 -0.15131216385E+03 -0.39106560015E+02  0.28134616364E+02  0.15879625500E+03  0.00000000000E+00 0. -1.
         21    1    1    2  504  503  0.21271982092E+02  0.33347774578E+02  0.83098529837E+02  0.92032260390E+02  0.00000000000E+00 0.  1.
         21    1    1    2  505  502  0.25499569906E+02  0.22042048823E+02 -0.30208991617E+02  0.45262160313E+02  0.00000000000E+00 0. -1.
          2    1    1    2  501    0  0.10454061185E+03 -0.16283263386E+02  0.83503429271E+03  0.84171025549E+03  0.00000000000E+00 0. -1.
<scales pt_clust_3="14000.00000" pt_clust_4="41.53140" pt_clust_5="33.70579" pt_clust_6="127.79011"></scales>
<clustering>
<clus scale="   33.706">  2  5  1 -1</clus>
<clus scale="   41.531">  1  4  2 -1</clus>
<clus scale="  127.790">  1  6  2 -1</clus>
<clus scale="   33.706">  2  3  1 -1</clus>
</clustering>
</event>
<event>
 6    0  0.3082502E+002  0.1002193E+03  0.7546771E-02  0.1279836E+00
          2   -1    0    0  504    0 -0.00000000000E+00  0.00000000000E+00  0.14459978457E+04  0.14459978457E+04  0.00000000000E+00 0.  1.
         21   -1    0    0  503  502  0.00000000000E+00 -0.00000000000E+00 -0.40304196188E+03  0.40304196188E+03  0.00000000000E+00 0.  1.
         21    1    1    2  503  501 -0.19002348982E+02 -0.10004652596E+03 -0.38082577631E+03  0.39420637809E+03  0.00000000000E+00 0.  1.
         21    1    1    2  504  505  0.81011971963E+02  0.19343468217E+02  0.11727696487E+04  0.11757235041E+04  0.00000000000E+00 0.  1.
         21    1    1    2  505  502 -0.84004152221E+01  0.64918470191E+02  0.15019588848E+03  0.16384071431E+03  0.00000000000E+00 0. -1.
          2    1    1    2  501    0 -0.53609207760E+02  0.15784587551E+02  0.10081612301E+03  0.11526921107E+03  0.00000000000E+00 0.  1.
<scales pt_clust_3="100.21926" pt_clust_4="47.49163" pt_clust_5="14000.00000" pt_clust_6="55.88471"></scales>
<clustering>
<clus scale="   55.885">  1  6  2 -1</clus>
<clus scale="   47.492">  1  4  2 -1</clus>
<clus scale="  100.219">  2  3  1 -1</clus>
<clus scale="  100.219">  2  3  1 -1</clus>
</clustering>
</event>
<event>
 6    0  0.3082502E+002  0.6378271E+02  0.7546771E-02  0.1382610E+00
          1   -1    0    0  503    0 -0.00000000000E+00  0.00000000000E+00  0.11141817205E+04  0.11141817205E+04  0.00000000000E+00 0. -1.
         21   -1    0    0  501  502  0.00000000000E+00 -0.00000000000E+00 -0.68209440617E+02  0.68209440617E+02  0.00000000000E+00 0.  1.
         21    1    1    2  503  504 -0.34040133170E+02 -0.38626295891E+02  0.19090163425E+03  0.19772241997E+03  0.00000000000E+00 0.  1.
         21    1    1    2  504  505 -0.34493623479E+02  0.48502518720E+02 -0.14592575898E+02  0.61280075507E+02  0.00000000000E+00 0.  1.
         21    1    1    2  505  502 -0.27835630427E+02 -0.30068631511E+02 -0.66934510086E+01  0.41518034739E+02  0.00000000000E+00 0.  1.
          1    1    1    2  501    0  0.96369387075E+02  0.20192408682E+02  0.87635667253E+03  0.88187063088E+03  0.00000000000E+00 0. -1.
<scales pt_clust_3="54.65272" pt_clust_4="63.78271" pt_clust_5="40.97493" pt_clust_6="14000.00000"></scales>
<clustering>
<clus scale="   40.975">  2  5  1 -1</clus>
<clus scale="   54.653">  1  3  2 -1</clus>
<clus scale="   63.783">  2  4  1 -1</clus>
<clus scale="   40.975">  2  3  1 -1</clus>
</clustering>
</event>
<event>
 6    0  0.3082502E+002  0.8260242E+02  0.7546771E-02  0.1321824E+00
          1   -1    0    0  503    0 -0.00000000000E+00  0.00000000000E+00  0.41487803306E+03  0.41487803306E+03  0.00000000000E+00 0. -1.
         21   -1    0    0  505  502  0.00000000000E+00 -0.00000000000E+00 -0.60583579371E+03  0.60583579371E+03  0.00000000000E+00 0. -1.
         21    1    1    2  503  504  0.27732113491E+02 -0.34283398366E+02  0.23051399719E+03  0.23469368211E+03  0.00000000000E+00 0. -1.
         21    1    1    2  504  502 -0.60531645283E+02 -0.68702161535E+02  0.69100209655E+02  0.11471227508E+03  0.00000000000E+00 0. -1.
         21    1    1    2  505  501  0.63203711146E+02  0.52784350189E+02 -0.56811854415E+03  0.57405537794E+03  0.00000000000E+00 0. -1.
          1    1    1    2  501    0 -0.30404179354E+02  0.50201209711E+02  0.77546576665E+02  0.97252491645E+02  0.00000000000E+00 0. -1.
<scales pt_clust_3="44.09560" pt_clust_4="82.60242" pt_clust_5="14000.00000" pt_clust_6="37.84902"></scales>
<clustering>
<clus scale="   44.096">  1  3  2 -1</clus>
<clus scale="   37.849">  1  6  2 -1</clus>
<clus scale="   82.602">  1  4  2 -1</clus>
<clus scale="   82.602">  2  3  1 -1</clus>
</clustering>
</event>
<event>
 6    0  0.3082502E+002  0.1077587E+03  0.7546771E-02  0.1264778E+00
         -4   -1    0    0    0  501 -0.00000000000E+00  0.00000000000E+00  0.73797213999E+03  0.73797213999E+03  0.00000000000E+00 0.  1.
         21   -1    0    0  504  502  0.00000000000E+00 -0.00000000000E+00 -0.24853508429E+03  0.24853508429E+03  0.00000000000E+00 0.  1.
         21    1    1    2  503  505  0.61068989603E+02  0.85416697364E+02  0.41848537115E+02  0.11303421490E+03  0.00000000000E+00 0. -1.
         21    1    1    2  504  503  0.42546879783E+02 -0.30950701920E+02 -0.20101307469E+03  0.20778459790E+03  0.00000000000E+00 0.  1.
         21    1    1    2  505  501 -0.45517076411E+02  0.51436297739E+01  0.90694427218E+02  0.10160580840E+03  0.00000000000E+00 0.  1.
         -4    1    1    2    0  502 -0.58098792976E+02 -0.59609625218E+02  0.55790716606E+03  0.56408260309E+03  0.00000000000E+00 0.  1.
<scales pt_clust_3="107.75866" pt_clust_4="52.40353" pt_clust_5="45.80678" pt_clust_6="14000.00000"></scales>
<clustering>
<clus scale="   45.807">  1  5  2 -1</clus>
<clus scale="   52.404">  2  4  1 -1</clus>
<clus scale="  107.759">  2  3  1 -1</clus>
<clus scale="   52.404">  2  3  1 -1</clus>
</clustering>
</event>
<event>
 6    0  0.3082502E+002  0.8470722E+02  0.7546771E-02  0.1316200E+00
          2   -1    0    0  503    0 -0.00000000000E+00  0.00000000000E+00  0.33097435245E+04  0.33097435245E+04  0.00000000000E+00 0. -1.
         21   -1    0    0  501  502  0.00000000000E+00 -0.00000000000E+00 -0.31551251607E+02  0.31551251607E+02  0.00000000000E+00 0. -1.
         21    1    1    2  503  505 -0.54461215329E+02  0.26576663176E+02  0.63256086973E+03  0.63545699848E+03  0.00000000000E+00 0.  1.
         21    1    1    2  504  502 -0.65982803914E+01 -0.71670427724E+02  0.11453577512E+03  0.13527243361E+03  0.00000000000E+00 0. -1.
         21    1    1    2  505  504  0.35827241738E+02  0.92545052951E+02  0.10723097989E+03  0.14610496612E+03  0.00000000000E+00 0. -1.
          2    1    1    2  501    0  0.25232253983E+02 -0.47451288403E+02  0.24238646482E+04  0.24244603779E+04  0.00000000000E+00 0. -1.
<scales pt_clust_3="37.14046" pt_clust_4="14000.00000" pt_clust_5="84.70722" pt_clust_6="53.74283"></scales>
<clustering>
<clus scale="   53.743">  1  6  2 -1</clus>
<clus scale="   37.140">  1  3  2 -1</clus>
<clus scale="   84.707">  1  5  2 -1</clus>
<clus scale="   84.707">  2  3  1 -1</clus>
</clustering>
</event>
<event>
 6    0  0.3082502E+002  0.1745860E+03  0.7546771E-02  0.1173148E+00
         21   -1    0    0  503  502  0.00000000000E+00  0.00000000000E+00  0.19136830521E+03  0.19136830521E+03  0.00000000000E+00 0. -1.
          2   -1    0    0  505    0 -0.00000000000E+00 -0.00000000000E+00 -0.56715191532E+03  0.56715191532E+03  0.00000000000E+00 0.  1.
         21    1    1    2  503  501 -0.14367138365E+03  0.50780357800E+02  0.11248545847E+03  0.18940192604E+03  0.00000000000E+00 0. -1.
         21    1    1    2  504  502  0.16067072392E+03 -0.38572402659E+02 -0.20019227067E+03  0.25957630287E+03  0.00000000000E+00 0.  1.
         21    1    1    2  505  504  0.45019843725E+02  0.11944340210E+02 -0.12588002285E+03  0.13422083946E+03  0.00000000000E+00 0.  1.
          2    1    1    2  501    0 -0.62019184000E+02 -0.24152295350E+02 -0.16219677507E+03  0.17532115217E+03  0.00000000000E+00 0.  1.
<scales pt_clust_3="157.30512" pt_clust_4="40.20839" pt_clust_5="40.20839" pt_clust_6="66.55609"></scales>
<clustering>
<clus scale="   40.208">  4  5 -1 -1</clus>
<clus scale="   66.556">  2  6  1 -1</clus>
<clus scale="  157.305">  1  3  2 -1</clus>
<clus scale="  157.305">  1  3  2 -1</clus>
</clustering>
</event>
<event>
 6    0  0.3082502E+002  0.9363746E+02  0.7546771E-02  0.1294275E+00
         21   -1    0    0  505  502  0.00000000000E+00  0.00000000000E+00  0.26536379047E+03  0.26536379047E+03  0.00000000000E+00 0. -1.
         -2   -1    0    0    0  501 -0.00000000000E+00 -0.00000000000E+00 -0.50108666165E+03  0.50108666165E+03  0.00000000000E+00 0.  1.
         21    1    1    2  503  502 -0.54825940441E+02 -0.39635965256E+02  0.13459929478E+03  0.15064482614E+03  0.00000000000E+00 0. -1.
         21    1    1    2  504  501 -0.32356628348E+02  0.32041875759E+02 -0.32373559214E+03  0.32692257007E+03  0.00000000000E+00 0.  1.
         21    1    1    2  505  504 -0.39105655402E+02  0.21252715426E+02  0.91198627997E+02  0.10147965287E+03  0.00000000000E+00 0. -1.
         -2    1    1    2    0  503  0.12628822419E+03 -0.13658625929E+02 -0.13778520182E+03  0.18740340304E+03  0.00000000000E+00 0.  1.
<scales pt_clust_3="93.63746" pt_clust_4="45.94026" pt_clust_5="44.50764" pt_clust_6="14000.00000"></scales>
<clustering>
<clus scale="   44.508">  1  5  2 -1</clus>
<clus scale="   45.940">  2  4  1 -1</clus>
<clus scale="   93.637">  1  3  2 -1</clus>
<clus scale="   44.508">  1  3  2 -1</clus>
</clustering>
</event>
<event>
 6    0  0.3082502E+002  0.1056904E+03  0.7546771E-02  0.1268765E+00
          2   -1    0    0  505    0 -0.00000000000E+00  0.00000000000E+00  0.54782511702E+03  0.54782511702E+03  0.00000000000E+00 0. -1.
         21   -1    0    0  504  502  0.00000000000E+00 -0.00000000000E+00 -0.11013437144E+03  0.11013437144E+03  0.00000000000E+00 0.  1.
         21    1    1    2  503  502 -0.24253558643E+02 -0.19581446957E+02  0.28616702696E+01  0.31302672866E+02  0.00000000000E+00 0.  1.
         21    1    1    2  504  501  0.95343953524E+02 -0.61090723445E+02 -0.51433081097E+02  0.12437004380E+03  0.00000000000E+00 0.  1.
         21    1    1    2  505  503  0.48214977149E+01  0.30049281195E+02  0.73339611534E+02  0.79403430408E+02  0.00000000000E+00 0. -1.
          2    1    1    2  501    0 -0.75911892596E+02  0.50622889206E+02  0.41292254488E+03  0.42288334138E+03  0.00000000000E+00 0. -1.
<scales pt_clust_3="30.36067" pt_clust_4="105.69036" pt_clust_5="30.43364" pt_clust_6="14000.00000"></scales>
<clustering>
<clus scale="   30.434">  1  5  2 -1</clus>
<clus scale="   30.361">  2  3  1 -1</clus>
<clus scale="  105.690">  2  4  1 -1</clus>
<clus scale="   30.361">  2  3  1 -1</clus>
</clustering>
</event>
<event>
 6    0  0.3082502E+002  0.7933440E+02  0.7546771E-02  0.1330951E+00
         21   -1    0    0  504  502  0.00000000000E+00  0.00000000000E+00  0.27409245995E+03  0.27409245995E+03  0.00000000000E+00 0. -1.
         -2   -1    0    0    0  501 -0.00000000000E+00 -0.00000000000E+00 -0.13788051037E+03  0.13788051037E+03  0.00000000000E+00 0. -1.
         21    1    1    2  503  501 -0.26186598158E+02  0.28242070177E+02  0.81180033157E+01  0.39360569467E+02  0.00000000000E+00 0.  1.
         21    1    1    2  504  503  0.33568091205E+02  0.42646496009E+02 -0.80748612722E+01  0.54870244701E+02  0.00000000000E+00 0.  1.
         21    1    1    2  505  502 -0.65647419772E+02  0.39167980002E+02  0.17194844374E+03  0.18817540138E+03  0.00000000000E+00 0. -1.
         -2    1    1    2    0  505  0.58265926725E+02 -0.11005654619E+03 -0.35779636198E+02  0.12956675477E+03  0.00000000000E+00 0. -1.
<scales pt_clust_3="38.51431" pt_clust_4="56.66892" pt_clust_5="79.33440" pt_clust_6="14000.00000"></scales>
<clustering>
<clus scale="   38.514">  2  3  1 -1</clus>
<clus scale="   56.669">  2  4  1 -1</clus>
<clus scale="   79.334">  1  5  2 -1</clus>
<clus scale="   79.334">  1  3  2 -1</clus>
</clustering>
</event>
<event>
 6    0  0.3082502E+002  0.1502790E+03  0.7546771E-02  0.1200131E+00
          2   -1    0    0  503    0 -0.00000000000E+00  0.00000000000E+00  0.19825875674E+04  0.19825875674E+04  0.00000000000E+00 0.  1.
         21   -1    0    0  505  502  0.00000000000E+00 -0.00000000000E+00 -0.58081941239E+02  0.58081941239E+02  0.00000000000E+00 0. -1.
         21    1    1    2  503  502  0.56049704245E+02  0.91316852726E+01  0.19605201638E+02  0.60077624397E+02  0.00000000000E+00 0. -1.
         21    1    1    2  504  501 -0.12650763785E+03 -0.68510028487E+02  0.63933318837E+03  0.65532032793E+03  0.00000000000E+00 0. -1.
         21    1    1    2  505  504 -0.55367740140E+02 -0.30287844836E+02  0.14571778825E+02  0.64770957467E+02  0.00000000000E+00 0. -1.
          2    1    1    2  501    0  0.12582567374E+03  0.89666188051E+02  0.12509954573E+04  0.12605005989E+04  0.00000000000E+00 0.  1.
<scales pt_clust_3="56.78871" pt_clust_4="14000.00000" pt_clust_5="30.30239" pt_clust_6="150.27897"></scales>
<clustering>
<clus scale="   56.789">  2  3  1 -1</clus>
<clus scale="   30.302">  2  5  1 -1</clus>
<clus scale="  150.279">  1  6  2 -1</clus>
<clus scale="   56.789">  2  3  1 -1</clus>
</clustering>
</event>
<event>
 6    0  0.3082502E+002  0.9512671E+02  0.7546771E-02  0.1290891E+00
         21   -1    0    0  505  502  0.00000000000E+00  0.00000000000E+00  0.83960573116E+02  0.83960573116E+02  0.00000000000E+00 0. -1.
          2   -1    0    0  504    0 -0.00000000000E+00 -0.00000000000E+00 -0.16287696326E+04  0.16287696326E+04  0.00000000000E+00 0.  1.
         21    1    1    2  503  502  0.44847165230E+02  0.31383510591E+02 -0.95726950933E+02  0.11027167406E+03  0.00000000000E+00 0. -1.
         21    1    1    2  504  503  0.47721895191E+02 -0.16418795735E+02 -0.25444617417E+03  0.25940279814E+03  0.00000000000E+00 0. -1.
         21    1    1    2  505  501 -0.11809731449E+03  0.35872141690E+02  0.21761391445E+02  0.12532894477E+03  0.00000000000E+00 0. -1.
          2    1    1    2  501    0  0.25528254067E+02 -0.50836856546E+02 -0.12163973258E+04  0.12177267887E+04  0.00000000000E+00 0.  1.
<scales pt_clust_3="57.04866" pt_clust_4="50.46738" pt_clust_5="14000.00000" pt_clust_6="95.12671"></scales>
<clustering>
<clus scale="   50.467">  2  4  1 -1</clus>
<clus scale="   57.049">  1  3  2 -1</clus>
<clus scale="   95.127">  2  6  1 -1</clus>
<clus scale="   57.049">  1  3  2 -1</clus>
</clustering>
</event>
<event>
 6    0  0.3082502E+002  0.5848640E+02  0.7546771E-02  0.1404296E+00
          2   -1    0    0  503    0 -0.00000000000E+00  0.00000000000E+00  0.36633532585E+03  0.36633532585E+03  0.00000000000E+00 0. -1.
         21   -1    0    0  504  502  0.00000000000E+00 -0.00000000000E+00 -0.27122756903E+03  0.27122756903E+03  0.00000000000E+00 0. -1.
         21    1    1    2  503  505 -0.72316919335E+02  0.43737587315E+02  0.15598510373E+03  0.17740931755E+03  0.00000000000E+00 0. -1.
         21    1    1    2  504  501 -0.39092133865E+02  0.29717514118E+02 -0.15029621942E+03  0.15811476575E+03  0.00000000000E+00 0.  1.
         21    1    1    2  505  502  0.67816425724E+02 -0.48969493363E+02 -0.85798873187E+02  0.11982706505E+03  0.00000000000E+00 0. -1.
          2    1    1    2  501    0  0.43592627476E+02 -0.24485608070E+02  0.17521774569E+03  0.18221174654E+03  0.00000000000E+00 0. -1.
<scales pt_clust_3="14000.00000" pt_clust_4="49.10525" pt_clust_5="40.53271" pt_clust_6="58.48640"></scales>
<clustering>
<clus scale="   49.105">  2  4  1 -1</clus>
<clus scale="   40.533">  2  5  1 -1</clus>
<clus scale="   58.486">  1  6  2 -1</clus>
<clus scale="   49.105">  2  3  1 -1</clus>
</clustering>
</event>
<event>
 6    0  0.3082502E+002  0.1333289E+03  0.7546771E-02  0.1222598E+00
         21   -1    0    0  504  502  0.00000000000E+00  0.00000000000E+00  0.12437187318E+03  0.12437187318E+03  0.00000000000E+00 0.  1.
          2   -1    0    0  503    0 -0.00000000000E+00 -0.00000000000E+00 -0.17825095163E+04  0.17825095163E+04  0.00000000000E+00 0.  1.
         21    1    1    2  503  505 -0.47443734160E+02 -0.22463527544E+01 -0.20819228735E+03  0.21354152412E+03  0.00000000000E+00 0. -1.
         21    1    1    2  504  501  0.60181126838E+02 -0.85933423816E+02 -0.11007591744E+03  0.15206258237E+03  0.00000000000E+00 0. -1.
         21    1    1    2  505  502 -0.27011689698E+01 -0.46395726141E+02  0.91994981070E+02  0.10306762955E+03  0.00000000000E+00 0.  1.
          2    1    1    2  501    0 -0.10036223708E+02  0.13457550271E+03 -0.14318644194E+04  0.14382096534E+04  0.00000000000E+00 0.  1.
<scales pt_clust_3="48.20490" pt_clust_4="14000.00000" pt_clust_5="46.47429" pt_clust_6="133.32889"></scales>
<clustering>
<clus scale="   46.474">  1  5  2 -1</clus>
<clus scale="   48.205">  2  3  1 -1</clus>
<clus scale="  133.329">  2  6  1 -1</clus>
<clus scale="   46.474">  1  3  2 -1</clus>
</clustering>
</event>
<event>
 6    0  0.3082502E+002  0.9377762E+02  0.7546771E-02  0.1293953E+00
         21   -1    0    0  505  502  0.00000000000E+00  0.00000000000E+00  0.60017375989E+03  0.60017375989E+03  0.00000000000E+00 0.  1.
          1   -1    0    0  504    0 -0.00000000000E+00 -0.00000000000E+00 -0.13010300662E+04  0.13010300662E+04  0.00000000000E+00 0. -1.
         21    1    1    2  503  502 -0.29598750994E+02  0.74629708797E+02  0.29683406018E+02  0.85596635964E+02  0.00000000000E+00 0. -1.
         21    1    1    2  504  503  0.20032772390E+02 -0.38828807191E+02 -0.15167819882E+03  0.15784569755E+03  0.00000000000E+00 0.  1.
         21    1    1    2  505  501  0.85564106691E+01 -0.95928674644E+02  0.53433334291E+03  0.54294349994E+03  0.00000000000E+00 0.  1.
          1    1    1    2  501    0  0.10095679347E+01  0.60127773038E+02 -0.11131948564E+04  0.11148179926E+04  0.00000000000E+00 0. -1.
<scales pt_clust_3="93.77762" pt_clust_4="43.69197" pt_clust_5="14000.00000" pt_clust_6="30.34407"></scales>
<clustering>
<clus scale="   43.692">  2  4  1 -1</clus>
<clus scale="   30.344">  2  6  1 -1</clus>
<clus scale="   93.778">  2  3  1 -1</clus>
<clus scale="   93.778">  1  3  2 -1</clus>
</clustering>
</event>
<event>
 6    0  0.3082502E+002  0.1012669E+03  0.7546771E-02  0.1277654E+00
          1   -1    0    0  503    0 -0.00000000000E+00  0.00000000000E+00  0.19685120777E+04  0.19685120777E+04  0.00000000000E+00 0.  1.
         21   -1    0    0  501  502  0.00000000000E+00 -0.00000000000E+00 -0.16434049695E+03  0.16434049695E+03  0.00000000000E+00 0. -1.
         21    1    1    2  503  504 -0.20536249877E+02  0.48669645947E+02  0.89682647529E+02  0.10408385688E+03  0.00000000000E+00 0.  1.
         21    1    1    2  504  505 -0.43407619919E+02  0.15375201881E+03 -0.69236442520E+01  0.15991198080E+03  0.00000000000E+00 0. -1.
         21    1    1    2  505  502 -0.14819478269E+02 -0.80594493066E+02 -0.47024318860E+02  0.94479499432E+02  0.00000000000E+00 0. -1.
          1    1    1    2  501    0  0.78763348065E+02 -0.12182717169E+03  0.17684368963E+04  0.17743772375E+04  0.00000000000E+00 0.  1.
<scales pt_clust_3="52.82492" pt_clust_4="14000.00000" pt_clust_5="81.38672" pt_clust_6="101.26695"></scales>
<clustering>
<clus scale="   52.825">  1  3  2 -1</clus>
<clus scale="   81.387">  2  5  1 -1</clus>
<clus scale="  101.267">  1  6  2 -1</clus>
<clus scale="   81.387">  2  3  1 -1</clus>
</clustering>
</event>
<event>
 6    0  0.3082502E+002  0.8490794E+02  0.7546771E-02  0.1315673E+00
          3   -1    0    0  504    0 -0.00000000000E+00  0.00000000000E+00  0.12242287669E+04  0.12242287669E+04  0.00000000000E+00 0.  1.
         21   -1    0    0  503  502  0.00000000000E+00 -0.00000000000E+00 -0.56969657245E+02  0.56969657245E+02  0.00000000000E+00 0.  1.
         21    1    1    2  503  501  0.17950292631E+02 -0.28553592141E+02 -0.37997738457E+02  0.50806975481E+02  0.00000000000E+00 0.  1.
         21    1    1    2  504  505  0.35393663090E+02 -0.17652824289E+02  0.49169229219E+03  0.49328049200E+03  0.00000000000E+00 0.  1.
         21    1    1    2  505  502  0.61616245252E+02  0.20268584345E+01  0.23399193477E+03  0.24197705546E+03  0.00000000000E+00 0.  1.
          3    1    1    2  501    0 -0.11496020097E+03  0.44179557995E+02  0.47957262111E+03  0.49513390116E+03  0.00000000000E+00 0.  1.
<scales pt_clust_3="33.72715" pt_clust_4="41.38677" pt_clust_5="14000.00000" pt_clust_6="84.90794"></scales>
<clustering>
<clus scale="   33.727">  2  3  1 -1</clus>
<clus scale="   41.387">  1  4  2 -1</clus>
<clus scale="   84.908">  1  6  2 -1</clus>
<clus scale="   33.727">  2  3  1 -1</clus>
</clustering>
</event>
<event>
 6    0  0.3082502E+002  0.1002586E+03  0.7546771E-02  0.1279753E+00
          2   -1    0    0  504    0 -0.00000000000E+00  0.00000000000E+00  0.37459123453E+04  0.37459123453E+04  0.00000000000E+00 0. -1.
         21   -1    0    0  503  502  0.00000000000E+00 -0.00000000000E+00 -0.60402748694E+02  0.60402748694E+02  0.00000000000E+00 0. -1.
         21    1    1    2  503  501  0.51385719785E+02 -0.10959131231E+02  0.54374003545E+03  0.54627266169E+03  0.00000000000E+00 0. -1.
         21    1    1    2  504  505 -0.13318121483E+03 -0.21902760219E+02  0.80509939605E+03  0.81633449297E+03  0.00000000000E+00 0. -1.
         21    1    1    2  505  502  0.98335453774E+02 -0.52706151488E+01 -0.78781377336E+01  0.98791223837E+02  0.00000000000E+00 0. -1.
          2    1    1    2  501    0 -0.16539958726E+02  0.38132506599E+02  0.23445483028E+04  0.23449167155E+04  0.00000000000E+00 0. -1.
<scales pt_clust_3="45.11883" pt_clust_4="14000.00000" pt_clust_5="100.25861" pt_clust_6="41.56511"></scales>
<clustering>
<clus scale="   41.565">  1  6  2 -1</clus>
<clus scale="   45.119">  1  3  2 -1</clus>
<clus scale="  100.259">  2  5  1 -1</clus>
<clus scale="  100.259">  2  3  1 -1</clus>
</clustering>
</event>
<event>
 6    0  0.3082502E+002  0.1664508E+03  0.7546771E-02  0.1181600E+00
          2   -1    0    0  503    0 -0.00000000000E+00  0.00000000000E+00  0.12849754417E+04  0.12849754417E+04  0.00000000000E+00 0.  1.
         21   -1    0    0  501  502  0.00000000000E+00 -0.00000000000E+00 -0.25888012741E+03  0.25888012741E+03  0.00000000000E+00 0. -1.
         21    1    1    2  503  505  0.27583588712E+02 -0.29527603541E+02  0.13598307839E+03  0.14185954796E+03  0.00000000000E+00 0. -1.
         21    1    1    2  504  502 -0.13202036479E+03 -0.10421146811E+03 -0.21653047414E+03  0.27418032941E+03  0.00000000000E+00 0. -1.
         21    1    1    2  505  504  0.11155880886E+02  0.73696205268E+02  0.18393549719E+03  0.19846372836E+03  0.00000000000E+00 0.  1.
          2    1    1    2  501    0  0.93280895189E+02  0.60042866382E+02  0.92270721280E+03  0.92935196334E+03  0.00000000000E+00 0.  1.
<scales pt_clust_3="40.40710" pt_clust_4="166.45079" pt_clust_5="70.55227" pt_clust_6="14000.00000"></scales>
<clustering>
<clus scale="   40.407">  1  3  2 -1</clus>
<clus scale="   70.552">  1  5  2 -1</clus>
<clus scale="  166.451">  2  4  1 -1</clus>
<clus scale="  166.451">  2  3  1 -1</clus>
</clustering>
</event>
<event>
 6    0  0.3082502E+002  0.2289140E+03  0.7546771E-02  0.1127406E+00
         21   -1    0    0  501  502  0.00000000000E+00  0.00000000000E+00  0.98471551137E+03  0.98471551137E+03  0.00000000000E+00 0. -1.
          2   -1    0    0  505    0 -0.00000000000E+00 -0.00000000000E+00 -0.12528586136E+04  0.12528586136E+04  0.00000000000E+00 0. -1.
         21    1    1    2  503  504 -0.62842790076E+02  0.81036616553E+02 -0.94561162828E+02  0.13949180263E+03  0.00000000000E+00 0.  1.
         21    1    1    2  504  502  0.10651190065E+03 -0.20471535953E+03  0.94314003456E+03  0.97096152766E+03  0.00000000000E+00 0. -1.
         21    1    1    2  505  503 -0.32919986471E+02  0.47120119918E+01 -0.23201129466E+03  0.23438252797E+03  0.00000000000E+00 0.  1.
          2    1    1    2  501    0 -0.10749124101E+02  0.11896673099E+03 -0.88471067935E+03  0.89273826674E+03  0.00000000000E+00 0. -1.
<scales pt_clust_3="105.32442" pt_clust_4="14000.00000" pt_clust_5="33.25550" pt_clust_6="228.91405"></scales>
<clustering>
<clus scale="   33.256">  2  5  1 -1</clus>
<clus scale="  105.324">  2  3  1 -1</clus>
<clus scale="  228.914">  2  6  1 -1</clus>
<clus scale="  228.914">  1  3  2 -1</clus>
</clustering>
</event>
<event>
 6    0  0.3082502E+002  0.1520224E+03  0.7546771E-02  0.1198010E+00
          2   -1    0    0  502    0 -0.00000000000E+00  0.00000000000E+00  0.15444405451E+04  0.15444405451E+04  0.00000000000E+00 0.  1.
         21   -1    0    0  504  502  0.00000000000E+00 -0.00000000000E+00 -0.22512019919E+03  0.22512019919E+03  0.00000000000E+00 0. -1.
         21    1    1    2  503  505 -0.13924291207E+01  0.10715104187E+03 -0.52048537810E+02  0.11913158658E+03  0.00000000000E+00 0. -1.
         21    1    1    2  504  503  0.33737410062E+02  0.28232495065E+02 -0.13205928222E+03  0.13919389583E+03  0.00000000000E+00 0. -1.
         21    1    1    2  505  501  0.11968120902E+02 -0.83919247030E+02  0.90718736853E+03  0.91113917574E+03  0.00000000000E+00 0. -1.
          2    1    1    2  501    0 -0.44313101844E+02 -0.51464289903E+02  0.59624079742E+03  0.60009608618E+03  0.00000000000E+00 0.  1.
<scales pt_clust_3="137.65882" pt_clust_4="43.99189" pt_clust_5="57.51059" pt_clust_6="57.51059"></scales>
<clustering>
<clus scale="   43.992">  2  4  1 -1</clus>
<clus scale="   57.511">  5  6 -1 -1</clus>
<clus scale="  137.659">  2  3  1 -1</clus>
<clus scale="   43.992">  2  3  1 -1</clus>
</clustering>
</event>
<event>
 6    0  0.3082502E+002  0.1370832E+03  0.7546771E-02  0.1217309E+00
          1   -1    0    0  504    0 -0.00000000000E+00  0.00000000000E+00  0.18303516443E+04  0.18303516443E+04  0.00000000000E+00 0.  1.
         21   -1    0    0  505  502  0.00000000000E+00 -0.00000000000E+00 -0.40595902732E+03  0.40595902732E+03  0.00000000000E+00 0. -1.
         21    1    1    2  503  501  0.20679577778E+02  0.68281577389E+02  0.29945292744E+03  0.30783449206E+03  0.00000000000E+00 0.  1.
         21    1    1    2  504  502 -0.47390109067E+02 -0.53679772364E+02 -0.38246034420E+03  0.38910571222E+03  0.00000000000E+00 0. -1.
         21    1    1    2  505  503  0.44012753888E+02  0.92869876924E+02  0.17813023992E+03  0.20565096381E+03  0.00000000000E+00 0.  1.
          1    1    1    2  501    0 -0.17302222600E+02 -0.10747168195E+03  0.13292697938E+04  0.13337195035E+04  0.00000000000E+00 0.  1.
<scales pt_clust_3="61.37812" pt_clust_4="71.60545" pt_clust_5="61.37812" pt_clust_6="115.60730"></scales>
<clustering>
<clus scale="   61.378">  3  5 -1 -1</clus>
<clus scale="   71.605">  2  4  1 -1</clus>
<clus scale="  115.607">  1  6  2 -1</clus>
<clus scale="   71.605">  2  3  1 -1</clus>
</clustering>
</event>
<event>
 6    0  0.3082502E+002  0.8502511E+02  0.7546771E-02  0.1315367E+00
          2   -1    0    0  505    0 -0.00000000000E+00  0.00000000000E+00  0.82203243392E+03  0.82203243392E+03  0.00000000000E+00 0. -1.
         21   -1    0    0  503  502  0.00000000000E+00 -0.00000000000E+00 -0.94705696765E+02  0.94705696765E+02  0.00000000000E+00 0. -1.
         21    1    1    2  503  501 -0.62561503749E+02 -0.44263910270E+02  0.45766275521E+01  0.76773569824E+02  0.00000000000E+00 0. -1.
         21    1    1    2  504  502  0.50871736719E+02  0.83639418771E+02 -0.98963879382E+01  0.98394229828E+02  0.00000000000E+00 0. -1.
         21    1    1    2  505  504  0.87776228200E+01  0.31528102490E+02  0.40535685439E+03  0.40667585042E+03  0.00000000000E+00 0. -1.
          2    1    1    2  501    0  0.29121442100E+01 -0.70903610991E+02  0.32728964314E+03  0.33489448061E+03  0.00000000000E+00 0. -1.
<scales pt_clust_3="85.02511" pt_clust_4="14000.00000" pt_clust_5="32.72717" pt_clust_6="46.86861"></scales>
<clustering>
<clus scale="   32.727">  1  5  2 -1</clus>
<clus scale="   46.869">  1  6  2 -1</clus>
<clus scale="   85.025">  2  3  1 -1</clus>
<clus scale="   85.025">  2  3  1 -1</clus>
</clustering>
</event>
<event>
 6    0  0.3082502E+002  0.2306582E+03  0.7546771E-02  0.1126177E+00
          2   -1    0    0  504    0 -0.00000000000E+00  0.00000000000E+00  0.21613604677E+04  0.21613604677E+04  0.00000000000E+00 0. -1.
         21   -1    0    0  501  502  0.00000000000E+00 -0.00000000000E+00 -0.33038003925E+03  0.33038003925E+03  0.00000000000E+00 0.  1.
         21    1    1    2  503  505 -0.12112103879E+02  0.20595971466E+03 -0.91386820235E+02  0.22564941399E+03  0.00000000000E+00 0.  1.
         21    1    1    2  504  503 -0.32116263480E+02  0.75585854636E+02  0.17692577516E+03  0.19505744210E+03  0.00000000000E+00 0. -1.
         21    1    1    2  505  502 -0.24582572931E+02  0.21282488475E+02 -0.14838943525E+03  0.15191007769E+03  0.00000000000E+00 0.  1.
          2    1    1    2  501    0  0.68810940290E+02 -0.30282805777E+03  0.18938309088E+04  0.19191235732E+04  0.00000000000E+00 0. -1.
<scales pt_clust_3="230.65816" pt_clust_4="83.59792" pt_clust_5="32.51534" pt_clust_6="14000.00000"></scales>
<clustering>
<clus scale="   32.515">  2  5  1 -1</clus>
<clus scale="   83.598">  1  4  2 -1</clus>
<clus scale="  230.658">  2  3  1 -1</clus>
<clus scale="   32.515">  2  3  1 -1</clus>
</clustering>
</event>
<event>
 6    0  0.3082502E+002  0.1034559E+03  0.7546771E-02  0.1273192E+00
          1   -1    0    0  503    0 -0.00000000000E+00  0.00000000000E+00  0.10393100229E+04  0.10393100229E+04  0.00000000000E+00 0. -1.
         21   -1    0    0  505  502  0.00000000000E+00 -0.00000000000E+00 -0.53075459682E+03  0.53075459682E+03  0.00000000000E+00 0.  1.
         21    1    1    2  503  502 -0.64472130217E+02 -0.47174379921E+02 -0.64609111997E+02  0.10274441614E+03  0.00000000000E+00 0.  1.
         21    1    1    2  504  501  0.68547547352E+02 -0.25608110031E+02  0.58389112372E+02  0.93615329893E+02  0.00000000000E+00 0. -1.
         21    1    1    2  505  504  0.29981170327E+02  0.11638680739E+03 -0.42022231251E+03  0.43707156330E+03  0.00000000000E+00 0.  1.
          1    1    1    2  501    0 -0.34056587463E+02 -0.43604317440E+02  0.93499773820E+03  0.93663331036E+03  0.00000000000E+00 0. -1.
<scales pt_clust_3="103.45588" pt_clust_4="72.22659" pt_clust_5="14000.00000" pt_clust_6="55.32800"></scales>
<clustering>
<clus scale="   55.328">  1  6  2 -1</clus>
<clus scale="   72.227">  1  4  2 -1</clus>
<clus scale="  103.456">  1  3  2 -1</clus>
<clus scale="  103.456">  2  3  1 -1</clus>
</clustering>
</event>
<event>
 6    0  0.3082502E+002  0.8375305E+02  0.7546771E-02  0.1318726E+00
         21   -1    0    0  504  502  0.00000000000E+00  0.00000000000E+00  0.59974647135E+02  0.59974647135E+02  0.00000000000E+00 0. -1.
         -4   -1    0    0    0  501 -0.00000000000E+00 -0.00000000000E+00 -0.10319433535E+04  0.10319433535E+04  0.00000000000E+00 0. -1.
         21    1    1    2  503  505 -0.54151038555E+02 -0.11968370383E+03 -0.74982704422E+02  0.15125782592E+03  0.00000000000E+00 0. -1.
         21    1    1    2  504  503  0.33231416046E+02  0.51919717038E+02 -0.43857634328E+02  0.75653658990E+02  0.00000000000E+00 0.  1.
         21    1    1    2  505  501 -0.19927085440E+02 -0.22761450898E+02 -0.39900905490E+03  0.40015421811E+03  0.00000000000E+00 0. -1.
         -4    1    1    2    0  502  0.40846707949E+02  0.90525437687E+02 -0.45411931275E+03  0.46485229765E+03  0.00000000000E+00 0. -1.
<scales pt_clust_3="83.75305" pt_clust_4="58.81887" pt_clust_5="30.25182" pt_clust_6="14000.00000"></scales>
<clustering>
<clus scale="   30.252">  2  5  1 -1</clus>
<clus scale="   58.819">  1  4  2 -1</clus>
<clus scale="   83.753">  1  3  2 -1</clus>
<clus scale="   58.819">  1  3  2 -1</clus>
</clustering>
</event>
<event>
 6    0  0.3082502E+002  0.2675889E+03  0.7546771E-02  0.1102668E+00
         -1   -1    0    0    0  501 -0.00000000000E+00  0.00000000000E+00  0.50819885407E+03  0.50819885407E+03  0.00000000000E+00 0. -1.
         21   -1    0    0  504  502  0.00000000000E+00 -0.00000000000E+00 -0.32315297928E+03  0.32315297928E+03  0.00000000000E+00 0. -1.
         21    1    1    2  503  501 -0.24789955869E+02 -0.18941184353E+02  0.11799551092E+03  0.12205019859E+03  0.00000000000E+00 0.  1.
         21    1    1    2  504  503  0.10711465557E+03  0.23740679489E+03  0.35987513195E+02  0.26292705605E+03  0.00000000000E+00 0. -1.
         21    1    1    2  505  502  0.56148225092E+02  0.92733841882E+01 -0.12511882317E+03  0.13745304197E+03  0.00000000000E+00 0. -1.
         -1    1    1    2    0  505 -0.13847292479E+03 -0.22773899472E+03  0.15618167384E+03  0.30892153674E+03  0.00000000000E+00 0. -1.
<scales pt_clust_3="31.19792" pt_clust_4="267.58889" pt_clust_5="56.47172" pt_clust_6="14000.00000"></scales>
<clustering>
<clus scale="   31.198">  1  3  2 -1</clus>
<clus scale="   56.472">  2  5  1 -1</clus>
<clus scale="  267.589">  2  4  1 -1</clus>
<clus scale="   56.472">  2  3  1 -1</clus>
</clustering>
</event>
<event>
 6    0  0.3082502E+002  0.1333048E+03  0.7546771E-02  0.1222633E+00
         21   -1    0    0  504  502  0.00000000000E+00  0.00000000000E+00  0.12919933339E+04  0.12919933339E+04  0.00000000000E+00 0.  1.
          2   -1    0    0  503    0 -0.00000000000E+00 -0.00000000000E+00 -0.15631229784E+04  0.15631229784E+04  0.00000000000E+00 0.  1.
         21    1    1    2  503  505 -0.11629464021E+03  0.42578685968E+02 -0.18790968078E+03  0.22504985219E+03  0.00000000000E+00 0. -1.
         21    1    1    2  504  501  0.12787324895E+03 -0.53065916104E+02  0.11804328595E+04  0.11885239985E+04  0.00000000000E+00 0.  1.
         21    1    1    2  505  502 -0.88026309556E+02  0.43993737900E+02  0.60002605483E+02  0.11525794035E+03  0.00000000000E+00 0. -1.
          2    1    1    2  501    0  0.76447700814E+02 -0.33506507764E+02 -0.13236554288E+04  0.13262845212E+04  0.00000000000E+00 0.  1.
<scales pt_clust_3="51.81149" pt_clust_4="14000.00000" pt_clust_5="133.30484" pt_clust_6="83.46818"></scales>
<clustering>
<clus scale="   83.468">  2  6  1 -1</clus>
<clus scale="   51.811">  2  3  1 -1</clus>
<clus scale="  133.305">  2  5  1 -1</clus>
<clus scale="  133.305">  1  3  2 -1</clus>
</clustering>
</event>
<event>
 6    0  0.3082502E+002  0.1735280E+03  0.7546771E-02  0.1174218E+00
          2   -1    0    0  504    0 -0.00000000000E+00  0.00000000000E+00  0.27303532737E+04  0.27303532737E+04  0.00000000000E+00 0. -1.
         21   -1    0    0  503  502  0.00000000000E+00 -0.00000000000E+00 -0.10753607828E+03  0.10753607828E+03  0.00000000000E+00 0.  1.
         21    1    1    2  503  505  0.42589813345E+02  0.65700362627E+01 -0.67906618016E+02  0.80426154625E+02  0.00000000000E+00 0.  1.
         21    1    1    2  504  502 -0.41642671155E+02 -0.58399890829E+01  0.10912684535E+04  0.10920783192E+04  0.00000000000E+00 0. -1.
         21    1    1    2  505  501 -0.79972703328E+02 -0.16919991183E+03  0.30658506375E+03  0.35919165463E+03  0.00000000000E+00 0.  1.
          2    1    1    2  501    0  0.79025561138E+02  0.16846986465E+03  0.12928702962E+04  0.13061932236E+04  0.00000000000E+00 0. -1.
<scales pt_clust_3="42.93297" pt_clust_4="42.05018" pt_clust_5="173.52802" pt_clust_6="14000.00000"></scales>
<clustering>
<clus scale="   42.050">  1  4  2 -1</clus>
<clus scale="   42.933">  2  3  1 -1</clus>
<clus scale="  173.528">  2  5  1 -1</clus>
<clus scale="   42.933">  2  3  1 -1</clus>
</clustering>
</event>
<event>
 6    0  0.3082502E+002  0.9117592E+02  0.7546771E-02  0.1300029E+00
          2   -1    0    0  503    0 -0.00000000000E+00  0.00000000000E+00  0.14394449067E+04  0.14394449067E+04  0.00000000000E+00 0.  1.
         21   -1    0    0  505  502  0.00000000000E+00 -0.00000000000E+00 -0.36634776456E+03  0.36634776456E+03  0.00000000000E+00 0.  1.
         21    1    1    2  503  502  0.58613253813E+02  0.86448235487E+01  0.10991839146E+03  0.12486912860E+03  0.00000000000E+00 0.  1.
         21    1    1    2  504  501  0.76531344712E+02 -0.79005499919E+01 -0.16434052491E+03  0.18145873785E+03  0.00000000000E+00 0.  1.
         21    1    1    2  505  504  0.51139592737E+00  0.58769395058E+02 -0.17703050369E+03  0.18653123748E+03  0.00000000000E+00 0.  1.
          2    1    1    2  501    0 -0.13565599445E+03 -0.59513668615E+02  0.13045497793E+04  0.13129335673E+04  0.00000000000E+00 0.  1.
<scales pt_clust_3="59.66150" pt_clust_4="14000.00000" pt_clust_5="58.77162" pt_clust_6="91.17592"></scales>
<clustering>
<clus scale="   58.772">  2  5  1 -1</clus>
<clus scale="   59.662">  1  3  2 -1</clus>
<clus scale="   91.176">  1  6  2 -1</clus>
<clus scale="   58.772">  2  3  1 -1</clus>
</clustering>
</event>
<event>
 6    0  0.3082502E+002  0.2141288E+03  0.7546771E-02  0.1138338E+00
         21   -1    0    0  505  502  0.00000000000E+00  0.00000000000E+00  0.64987934674E+03  0.64987934674E+03  0.00000000000E+00 0.  1.
          2   -1    0    0  503    0 -0.00000000000E+00 -0.00000000000E+00 -0.11920226092E+04  0.11920226092E+04  0.00000000000E+00 0.  1.
         21    1    1    2  503  504  0.20667519252E+02 -0.58755329609E+02 -0.25410971123E+02  0.67268510931E+02  0.00000000000E+00 0. -1.
         21    1    1    2  504  502  0.62167670846E+02 -0.10020960832E+03  0.73658514082E+02  0.13904086304E+03  0.00000000000E+00 0. -1.
         21    1    1    2  505  501 -0.36416475999E+02 -0.31079883818E+02  0.51288082587E+03  0.51511053226E+03  0.00000000000E+00 0.  1.
          2    1    1    2  501    0 -0.46418714098E+02  0.19004482174E+03 -0.11032716313E+04  0.11204820497E+04  0.00000000000E+00 0.  1.
<scales pt_clust_3="64.04962" pt_clust_4="64.04962" pt_clust_5="47.87608" pt_clust_6="194.28567"></scales>
<clustering>
<clus scale="   47.876">  1  5  2 -1</clus>
<clus scale="   64.050">  3  4 -1 -1</clus>
<clus scale="  194.286">  2  6  1 -1</clus>
<clus scale="   47.876">  1  3  2 -1</clus>
</clustering>
</event>
<event>
 6    0  0.3082502E+002  0.1091222E+03  0.7546771E-02  0.1262204E+00
         21   -1    0    0  505  502  0.00000000000E+00  0.00000000000E+00  0.11018752838E+03  0.11018752838E+03  0.00000000000E+00 0. -1.
          2   -1    0    0  504    0 -0.00000000000E+00 -0.00000000000E+00 -0.57660667622E+03  0.57660667622E+03  0.00000000000E+00 0.  1.
         21    1    1    2  503  502 -0.10078961534E+03 -0.26959580605E+02  0.51693896679E+02  0.11643721269E+03  0.00000000000E+00 0. -1.
         21    1    1    2  504  503 -0.62826423013E+01 -0.49422124928E+02 -0.98400198284E+02  0.11029332278E+03  0.00000000000E+00 0.  1.
         21    1    1    2  505  501 -0.86813986894E+01  0.38243988588E+02 -0.23930611211E+02  0.45941740272E+02  0.00000000000E+00 0. -1.
          2    1    1    2  501    0  0.11575365633E+03  0.38137716945E+02 -0.39578223502E+03  0.41412192887E+03  0.00000000000E+00 0.  1.
<scales pt_clust_3="14000.00000" pt_clust_4="47.61765" pt_clust_5="39.21695" pt_clust_6="109.12222"></scales>
<clustering>
<clus scale="   39.217">  1  5  2 -1</clus>
<clus scale="   47.618">  2  4  1 -1</clus>
<clus scale="  109.122">  2  6  1 -1</clus>
<clus scale="   39.217">  1  3  2 -1</clus>
</clustering>
</event>
<event>
 6    0  0.3082502E+002  0.1240567E+03  0.7546771E-02  0.1236551E+00
          1   -1    0    0  504    0 -0.00000000000E+00  0.00000000000E+00  0.53228513528E+03  0.53228513528E+03  0.00000000000E+00 0.  1.
         21   -1    0    0  503  502  0.00000000000E+00 -0.00000000000E+00 -0.30702050987E+03  0.30702050987E+03  0.00000000000E+00 0. -1.
         21    1    1    2  503  501  0.37207557394E+02 -0.11877196237E+01 -0.18469833085E+03  0.18841254317E+03  0.00000000000E+00 0. -1.
         21    1    1    2  504  505  0.16437435786E+02 -0.58612597159E+02 -0.83222352953E+02  0.10310958186E+03  0.00000000000E+00 0. -1.
         21    1    1    2  505  502  0.10598635141E+02 -0.53449238329E+02  0.21702295292E+02  0.58652721725E+02  0.00000000000E+00 0.  1.
          1    1    1    2  501    0 -0.64243628322E+02  0.11324955511E+03  0.47148301393E+03  0.48913079839E+03  0.00000000000E+00 0.  1.
<scales pt_clust_3="37.22651" pt_clust_4="14000.00000" pt_clust_5="56.05515" pt_clust_6="124.05666"></scales>
<clustering>
<clus scale="   37.227">  2  3  1 -1</clus>
<clus scale="   56.055">  2  5  1 -1</clus>
<clus scale="  124.057">  1  6  2 -1</clus>
<clus scale="   37.227">  2  3  1 -1</clus>
</clustering>
</event>
<event>
 6    0  0.3082502E+002  0.2072517E+03  0.7546771E-02  0.1143761E+00
          2   -1    0    0  503    0 -0.00000000000E+00  0.00000000000E+00  0.97870150361E+03  0.97870150361E+03  0.00000000000E+00 0. -1.
         21   -1    0    0  505  502  0.00000000000E+00 -0.00000000000E+00 -0.27007024852E+03  0.27007024852E+03  0.00000000000E+00 0.  1.
         21    1    1    2  503  504  0.55609245438E+02 -0.17057659503E+02  0.17318781336E+03  0.18269474711E+03  0.00000000000E+00 0.  1.
         21    1    1    2  504  502  0.30714709772E+02  0.23512392090E+03 -0.80805770458E+02  0.25051192409E+03  0.00000000000E+00 0.  1.
         21    1    1    2  505  501  0.77399108934E+01 -0.34361893260E+02 -0.81045288160E+02  0.88368459656E+02  0.00000000000E+00 0.  1.
          2    1    1    2  501    0 -0.94063866103E+02 -0.18370436813E+03  0.69729450034E+03  0.72719662127E+03  0.00000000000E+00 0. -1.
<scales pt_clust_3="58.62000" pt_clust_4="207.25168" pt_clust_5="35.22280" pt_clust_6="14000.00000"></scales>
<clustering>
<clus scale="   35.223">  2  5  1 -1</clus>
<clus scale="   58.620">  1  3  2 -1</clus>
<clus scale="  207.252">  2  4  1 -1</clus>
<clus scale="   35.223">  2  3  1 -1</clus>
</clustering>
</event>
<event>
 6    0  0.3082502E+002  0.9039501E+02  0.7546771E-02  0.1301898E+00
         21   -1    0    0  505  502  0.00000000000E+00  0.00000000000E+00  0.72464808458E+02  0.72464808458E+02  0.00000000000E+00 0. -1.
          2   -1    0    0  504    0 -0.00000000000E+00 -0.00000000000E+00 -0.62577402308E+03  0.62577402308E+03  0.00000000000E+00 0.  1.
         21    1    1    2  503  502  0.73094680585E+02  0.50332450168E+02 -0.78768577073E+02  0.11866202680E+03  0.00000000000E+00 0. -1.
         21    1    1    2  504  503 -0.73760702201E+02  0.51214669620E+02 -0.30773609769E+03  0.32056994462E+03  0.00000000000E+00 0. -1.
         21    1    1    2  505  501  0.30026793055E+02 -0.78402332229E+01  0.27392534941E+02  0.41393580766E+02  0.00000000000E+00 0. -1.
          2    1    1    2  501    0 -0.29360771439E+02 -0.93706886565E+02 -0.19419707480E+03  0.21761327935E+03  0.00000000000E+00 0.  1.
<scales pt_clust_3="14000.00000" pt_clust_4="84.90575" pt_clust_5="31.03349" pt_clust_6="90.39501"></scales>
<clustering>
<clus scale="   31.033">  1  5  2 -1</clus>
<clus scale="   84.906">  2  4  1 -1</clus>
<clus scale="   90.395">  2  6  1 -1</clus>
<clus scale="   31.033">  1  3  2 -1</clus>
</clustering>
</event>
<event>
 6    0  0.3082502E+002  0.6559899E+02  0.7546771E-02  0.1375732E+00
         21   -1    0    0  505  502  0.00000000000E+00  0.00000000000E+00  0.44783699611E+02  0.44783699611E+02  0.00000000000E+00 0.  1.
         -2   -1    0    0    0  501 -0.00000000000E+00 -0.00000000000E+00 -0.56421321514E+03  0.56421321514E+03  0.00000000000E+00 0.  1.
         21    1    1    2  503  504 -0.78265253061E+02  0.62491908863E+01 -0.70149265198E+02  0.10528732892E+03  0.00000000000E+00 0.  1.
         21    1    1    2  504  501  0.80373782541E+01  0.32719067582E+02 -0.90949375888E+02  0.96989307694E+02  0.00000000000E+00 0. -1.
         21    1    1    2  505  503  0.47072335396E+02  0.49293311029E+02 -0.48293353988E+02  0.83533725592E+02  0.00000000000E+00 0.  1.
         -2    1    1    2    0  502  0.23155539411E+02 -0.88261569497E+02 -0.31003752046E+03  0.32318655255E+03  0.00000000000E+00 0.  1.
<scales pt_clust_3="14000.00000" pt_clust_4="33.69179" pt_clust_5="65.59899" pt_clust_6="72.13016"></scales>
<clustering>
<clus scale="   33.692">  2  4  1 -1</clus>
<clus scale="   72.130">  2  6  1 -1</clus>
<clus scale="   65.599">  1  5  2 -1</clus>
<clus scale="   65.599">  1  3  2 -1</clus>
</clustering>
</event>
<event>
 6    0  0.3082502E+002  0.1883212E+03  0.7546771E-02  0.1159984E+00
         21   -1    0    0  504  502  0.00000000000E+00  0.00000000000E+00  0.14171646157E+04  0.14171646157E+04  0.00000000000E+00 0.  1.
          2   -1    0    0  505    0 -0.00000000000E+00 -0.00000000000E+00 -0.15254061366E+04  0.15254061366E+04  0.00000000000E+00 0.  1.
         21    1    1    2  503  502 -0.41693538935E+02  0.18538390753E+03  0.76123180275E+02  0.20469558602E+03  0.00000000000E+00 0.  1.
         21    1    1    2  504  501 -0.10024700205E+03 -0.16569575264E+03  0.12640845554E+04  0.12788331819E+04  0.00000000000E+00 0.  1.
         21    1    1    2  505  503  0.10587159951E+02 -0.40864497761E+02 -0.31782818103E+03  0.32061931911E+03  0.00000000000E+00 0.  1.
          2    1    1    2  501    0  0.13135338104E+03  0.21176342865E+02 -0.11306210756E+04  0.11384226653E+04  0.00000000000E+00 0.  1.
<scales pt_clust_3="14000.00000" pt_clust_4="188.32122" pt_clust_5="42.21368" pt_clust_6="142.36177"></scales>
<clustering>
<clus scale="   42.214">  2  5  1 -1</clus>
<clus scale="  142.362">  2  6  1 -1</clus>
<clus scale="  188.321">  1  4  2 -1</clus>
<clus scale="  188.321">  1  3  2 -1</clus>
</clustering>
</event>
<event>
 6    0  0.3082502E+002  0.9500979E+02  0.7546771E-02  0.1291154E+00
         21   -1    0    0  504  502  0.00000000000E+00  0.00000000000E+00  0.32039008263E+03  0.32039008263E+03  0.00000000000E+00 0. -1.
          2   -1    0    0  503    0 -0.00000000000E+00 -0.00000000000E+00 -0.61042029443E+03  0.61042029443E+03  0.00000000000E+00 0.  1.
         21    1    1    2  503  505  0.29757156765E+02 -0.74192656001E+01 -0.93259936147E+02  0.98173059293E+02  0.00000000000E+00 0. -1.
         21    1    1    2  504  501  0.46963628674E+02  0.82523928385E+02  0.29349250371E+03  0.30846982172E+03  0.00000000000E+00 0. -1.
         21    1    1    2  505  502  0.29369391909E+02 -0.22351656060E+02 -0.26310653297E+02  0.45325579827E+02  0.00000000000E+00 0. -1.
          2    1    1    2  501    0 -0.10609017735E+03 -0.52753006725E+02 -0.46395212607E+03  0.47884191622E+03  0.00000000000E+00 0.  1.
<scales pt_clust_3="30.66812" pt_clust_4="95.00979" pt_clust_5="38.87710" pt_clust_6="14000.00000"></scales>
<clustering>
<clus scale="   30.668">  2  3  1 -1</clus>
<clus scale="   38.877">  2  5  1 -1</clus>
<clus scale="   95.010">  1  4  2 -1</clus>
<clus scale="   95.010">  1  3  2 -1</clus>
</clustering>
</event>
<event>
 6    0  0.3082502E+002  0.7527988E+02  0.7546771E-02  0.1343007E+00
         21   -1    0    0  501  502  0.00000000000E+00  0.00000000000E+00  0.14151107092E+03  0.14151107092E+03  0.00000000000E+00 0. -1.
         -3   -1    0    0    0  501 -0.00000000000E+00 -0.00000000000E+00 -0.46733262554E+03  0.46733262554E+03  0.00000000000E+00 0. -1.
         21    1    1    2  503  505  0.52122650304E+02 -0.25192783205E+02  0.30993355627E+01  0.57974588237E+02  0.00000000000E+00 0. -1.
         21    1    1    2  504  503 -0.26751049767E+02 -0.60487677653E+02 -0.88285884108E+02  0.11031217133E+03  0.00000000000E+00 0. -1.
         21    1    1    2  505  502 -0.71715654189E+02  0.51759634149E+02  0.77308318552E+02  0.11746816973E+03  0.00000000000E+00 0. -1.
         -3    1    1    2    0  504  0.46344053652E+02  0.33920826709E+02 -0.31794332463E+03  0.32308876716E+03  0.00000000000E+00 0. -1.
<scales pt_clust_3="14000.00000" pt_clust_4="37.82538" pt_clust_5="75.27988" pt_clust_6="57.43164"></scales>
<clustering>
<clus scale="   57.432">  2  6  1 -1</clus>
<clus scale="   37.825">  2  4  1 -1</clus>
<clus scale="   75.280">  1  5  2 -1</clus>
<clus scale="   75.280">  1  3  2 -1</clus>
</clustering>
</event>
<event>
 6    0  0.3082502E+002  0.8080034E+02  0.7546771E-02  0.1326795E+00
         21   -1    0    0  505  502  0.00000000000E+00  0.00000000000E+00  0.66605245957E+03  0.66605245957E+03  0.00000000000E+00 0.  1.
          1   -1    0    0  504    0 -0.00000000000E+00 -0.00000000000E+00 -0.75312217065E+03  0.75312217065E+03  0.00000000000E+00 0.  1.
         21    1    1    2  503  501  0.97625524327E+02  0.50506329573E+02 -0.35487877005E+03  0.37151120274E+03  0.00000000000E+00 0.  1.
         21    1    1    2  504  502 -0.32615479514E+02 -0.13653587666E+02  0.86649571055E+01  0.36404277794E+02  0.00000000000E+00 0.  1.
         21    1    1    2  505  503 -0.34083512904E+02  0.30740042388E+02  0.63068637643E+03  0.63235428477E+03  0.00000000000E+00 0.  1.
          1    1    1    2  501    0 -0.30926531909E+02 -0.67592784294E+02 -0.37154227457E+03  0.37890486491E+03  0.00000000000E+00 0.  1.
<scales pt_clust_3="80.80034" pt_clust_4="35.35803" pt_clust_5="68.32804" pt_clust_6="14000.00000"></scales>
<clustering>
<clus scale="   35.358">  1  4  2 -1</clus>
<clus scale="   68.328">  1  5  2 -1</clus>
<clus scale="   80.800">  1  3  2 -1</clus>
<clus scale="   35.358">  1  3  2 -1</clus>
</clustering>
</event>
<event>
 6    0  0.3082502E+002  0.1090709E+03  0.7546771E-02  0.1262300E+00
         21   -1    0    0  504  502  0.00000000000E+00  0.00000000000E+00  0.11611404530E+04  0.11611404530E+04  0.00000000000E+00 0.  1.
         -2   -1    0    0    0  501 -0.00000000000E+00 -0.00000000000E+00 -0.13705822113E+03  0.13705822113E+03  0.00000000000E+00 0. -1.
         21    1    1    2  503  502 -0.14748186552E+03 -0.30616299331E+02  0.65668584134E+03  0.67373923195E+03  0.00000000000E+00 0.  1.
         21    1    1    2  504  505  0.88457045013E+02  0.38605304197E+01  0.44919731817E+03  0.45784034680E+03  0.00000000000E+00 0.  1.
         21    1    1    2  505  501  0.32697147634E+01 -0.33215251560E+02  0.17681996393E+02  0.37770318602E+02  0.00000000000E+00 0. -1.
         -2    1    1    2    0  503  0.55755105747E+02  0.59971020471E+02 -0.99482924012E+02  0.12884877680E+03  0.00000000000E+00 0. -1.
<scales pt_clust_3="14000.00000" pt_clust_4="109.07090" pt_clust_5="33.37580" pt_clust_6="65.96930"></scales>
<clustering>
<clus scale="   33.376">  2  5  1 -1</clus>
<clus scale="   65.969">  2  6  1 -1</clus>
<clus scale="  109.071">  1  4  2 -1</clus>
<clus scale="  109.071">  1  3  2 -1</clus>
</clustering>
</event>
<event>
 6    0  0.3082502E+002  0.2624660E+03  0.7546771E-02  0.1105671E+00
         21   -1    0    0  501  502  0.00000000000E+00  0.00000000000E+00  0.88942127184E+02  0.88942127184E+02  0.00000000000E+00 0. -1.
          1   -1    0    0  503    0 -0.00000000000E+00 -0.00000000000E+00 -0.35247061929E+04  0.35247061929E+04  0.00000000000E+00 0. -1.
         21    1    1    2  503  505 -0.21315063413E+03 -0.55283445770E+02 -0.11964027519E+04  0.12164986630E+04  0.00000000000E+00 0. -1.
         21    1    1    2  504  502 -0.30344150974E+02 -0.32501329620E+02  0.43231176704E+02  0.62016437859E+02  0.00000000000E+00 0. -1.
         21    1    1    2  505  504 -0.42480610990E+02 -0.23930689110E+02 -0.21492712089E+02  0.53284302232E+02  0.00000000000E+00 0. -1.
          1    1    1    2  501    0  0.28597539610E+03  0.11171546450E+03 -0.22610997784E+04  0.22818489170E+04  0.00000000000E+00 0. -1.
<scales pt_clust_3="14000.00000" pt_clust_4="44.46464" pt_clust_5="67.56648" pt_clust_6="262.46596"></scales>
<clustering>
<clus scale="   44.465">  1  4  2 -1</clus>
<clus scale="   67.566">  1  5  2 -1</clus>
<clus scale="  262.466">  1  6  2 -1</clus>
<clus scale="   44.465">  1  3  2 -1</clus>
</clustering>
</event>
<event>
 6    0  0.3082502E+002  0.1354592E+03  0.7546771E-02  0.1219573E+00
          2   -1    0    0  505    0 -0.00000000000E+00  0.00000000000E+00  0.44094116670E+03  0.44094116670E+03  0.00000000000E+00 0. -1.
         21   -1    0    0  503  502  0.00000000000E+00 -0.00000000000E+00 -0.30662040379E+03  0.30662040379E+03  0.00000000000E+00 0. -1.
         21    1    1    2  503  501  0.88624780950E+02  0.52240716284E+02 -0.10510493377E+03  0.14707308163E+03  0.00000000000E+00 0. -1.
         21    1    1    2  504  502  0.26376358833E+02  0.16541993285E+02 -0.15501025003E+03  0.15810606396E+03  0.00000000000E+00 0. -1.
         21    1    1    2  505  504 -0.17206930177E+02  0.29913502294E+02  0.13774577135E+02  0.37156897621E+02  0.00000000000E+00 0. -1.
          2    1    1    2  501    0 -0.97794209606E+02 -0.98696211863E+02  0.38066136957E+03  0.40522552727E+03  0.00000000000E+00 0. -1.
<scales pt_clust_3="14000.00000" pt_clust_4="31.13438" pt_clust_5="34.68666" pt_clust_6="135.45916"></scales>
<clustering>
<clus scale="   31.134">  2  4  1 -1</clus>
<clus scale="   34.687">  2  5  1 -1</clus>
<clus scale="  135.459">  1  6  2 -1</clus>
<clus scale="   31.134">  2  3  1 -1</clus>
</clustering>
</event>
<event>
 6    0  0.3082502E+002  0.1304261E+03  0.7546771E-02  0.1226825E+00
          2   -1    0    0  504    0 -0.00000000000E+00  0.00000000000E+00  0.86426278520E+03  0.86426278520E+03  0.00000000000E+00 0.  1.
         21   -1    0    0  503  502  0.00000000000E+00 -0.00000000000E+00 -0.41560627617E+03  0.41560627617E+03  0.00000000000E+00 0.  1.
         21    1    1    2  503  501 -0.12283632400E+03  0.44798573471E+02 -0.38245116135E+03  0.40418382637E+03  0.00000000000E+00 0.  1.
         21    1    1    2  504  505  0.21268330654E+02 -0.22750850330E+02  0.32740505873E+02  0.45187208415E+02  0.00000000000E+00 0.  1.
         21    1    1    2  505  502 -0.19684686541E+02 -0.41281142188E+02  0.35714327928E+02  0.58027000646E+02  0.00000000000E+00 0.  1.
          2    1    1    2  501    0  0.12125267989E+03  0.19233419047E+02  0.76265283658E+03  0.77247102595E+03  0.00000000000E+00 0.  1.
<scales pt_clust_3="130.42606" pt_clust_4="31.14391" pt_clust_5="46.40982" pt_clust_6="14000.00000"></scales>
<clustering>
<clus scale="   31.144">  1  4  2 -1</clus>
<clus scale="   46.410">  1  5  2 -1</clus>
<clus scale="  130.426">  2  3  1 -1</clus>
<clus scale="  130.426">  2  3  1 -1</clus>
</clustering>
</event>
<event>
 6    0  0.3082502E+002  0.1373657E+03  0.7546771E-02  0.1216918E+00
         21   -1    0    0  503  502  0.00000000000E+00  0.00000000000E+00  0.16034936643E+04  0.16034936643E+04  0.00000000000E+00 0. -1.
         -1   -1    0    0    0  501 -0.00000000000E+00 -0.00000000000E+00 -0.42032510332E+02  0.42032510332E+02  0.00000000000E+00 0.  1.
         21    1    1    2  503  501 -0.37991892641E+02  0.13297947188E+02  0.12454861118E+02  0.42134817803E+02  0.00000000000E+00 0.  1.
         21    1    1    2  504  505  0.77427213710E+02  0.11765178341E+03  0.52663384959E+03  0.54514229986E+03  0.00000000000E+00 0. -1.
         21    1    1    2  505  502 -0.60301831052E+02  0.19910673273E+02  0.68685446218E+03  0.68978387772E+03  0.00000000000E+00 0. -1.
         -1    1    1    2    0  504  0.20866509983E+02 -0.15086040387E+03  0.33551798107E+03  0.36846517925E+03  0.00000000000E+00 0.  1.
<scales pt_clust_3="40.25195" pt_clust_4="137.36567" pt_clust_5="65.67172" pt_clust_6="14000.00000"></scales>
<clustering>
<clus scale="   40.252">  2  3  1 -1</clus>
<clus scale="   65.672">  1  5  2 -1</clus>
<clus scale="  137.366">  1  4  2 -1</clus>
<clus scale="   65.672">  1  3  2 -1</clus>
</clustering>
</event>
<event>
 6    0  0.3082502E+002  0.9936557E+02  0.7546771E-02  0.1281636E+00
          1   -1    0    0  505    0 -0.00000000000E+00  0.00000000000E+00  0.30214230961E+04  0.30214230961E+04  0.00000000000E+00 0.  1.
         21   -1    0    0  501  502  0.00000000000E+00 -0.00000000000E+00 -0.13131530482E+02  0.13131530482E+02  0.00000000000E+00 0.  1.
         21    1    1    2  503  502 -0.57016524891E+02 -0.19385754780E+01  0.12627293471E+03  0.13856224676E+03  0.00000000000E+00 0.  1.
         21    1    1    2  504  503  0.62952941163E+02  0.34726605505E+01  0.40727630552E+03  0.41212755454E+03  0.00000000000E+00 0.  1.
         21    1    1    2  505  504  0.16210957860E+02  0.97203987920E+02  0.16495814765E+04  0.16525224531E+04  0.00000000000E+00 0.  1.
          1    1    1    2  501    0 -0.22147374132E+02 -0.98738072993E+02  0.82516084882E+03  0.83134237211E+03  0.00000000000E+00 0.  1.
<scales pt_clust_3="57.04947" pt_clust_4="43.24929" pt_clust_5="14000.00000" pt_clust_6="99.36557"></scales>
<clustering>
<clus scale="   57.049">  2  3  1 -1</clus>
<clus scale="   43.249">  2  4  1 -1</clus>
<clus scale="   99.366">  2  6  1 -1</clus>
<clus scale="   57.049">  2  3  1 -1</clus>
</clustering>
</event>
<event>
 6    0  0.3082502E+002  0.7024852E+02  0.7546771E-02  0.1359250E+00
          2   -1    0    0  502    0 -0.00000000000E+00  0.00000000000E+00  0.13326126853E+04  0.13326126853E+04  0.00000000000E+00 0. -1.
         21   -1    0    0  505  502  0.00000000000E+00 -0.00000000000E+00 -0.42552250560E+03  0.42552250560E+03  0.00000000000E+00 0. -1.
         21    1    1    2  503  504  0.16419604918E+02 -0.67251772502E+02 -0.14885321648E+03  0.16416359032E+03  0.00000000000E+00 0.  1.
         21    1    1    2  504  501  0.54226535839E+02 -0.25327591659E+02  0.26491171731E+03  0.27158833196E+03  0.00000000000E+00 0.  1.
         21    1    1    2  505  503 -0.69317970407E+02  0.42191313638E+02 -0.25886046802E+03  0.27128182739E+03  0.00000000000E+00 0. -1.
          2    1    1    2  501    0 -0.13281703503E+01  0.50388050523E+02  0.10498921469E+04  0.10511014413E+04  0.00000000000E+00 0. -1.
<scales pt_clust_3="14000.00000" pt_clust_4="57.57760" pt_clust_5="70.24852" pt_clust_6="50.40555"></scales>
<clustering>
<clus scale="   50.406">  1  6  2 -1</clus>
<clus scale="   57.578">  1  4  2 -1</clus>
<clus scale="   70.249">  2  5  1 -1</clus>
<clus scale="   70.249">  2  3  1 -1</clus>
</clustering>
</event>
<event>
 6    0  0.3082502E+002  0.1194021E+03  0.7546771E-02  0.1244087E+00
         21   -1    0    0  505  502  0.00000000000E+00  0.00000000000E+00  0.21008213736E+03  0.21008213736E+03  0.00000000000E+00 0.  1.
          2   -1    0    0  503    0 -0.00000000000E+00 -0.00000000000E+00 -0.12988326788E+04  0.12988326788E+04  0.00000000000E+00 0.  1.
         21    1    1    2  503  502 -0.55448613611E+02  0.17166013164E+01 -0.12010290859E+03  0.13229589609E+03  0.00000000000E+00 0. -1.
         21    1    1    2  504  501 -0.68991744086E+02 -0.30585918106E+02  0.26972843829E+02  0.80142956288E+02  0.00000000000E+00 0.  1.
         21    1    1    2  505  504 -0.31100913003E+02 -0.46189843803E+02  0.13850315809E+03  0.14927790614E+03  0.00000000000E+00 0.  1.
          2    1    1    2  501    0  0.15554127070E+03  0.75059160592E+02 -0.11341236348E+04  0.11471980576E+04  0.00000000000E+00 0.  1.
<scales pt_clust_3="55.47518" pt_clust_4="119.40215" pt_clust_5="55.82070" pt_clust_6="14000.00000"></scales>
<clustering>
<clus scale="   55.475">  2  3  1 -1</clus>
<clus scale="   55.821">  1  5  2 -1</clus>
<clus scale="  119.402">  1  4  2 -1</clus>
<clus scale="   55.821">  1  3  2 -1</clus>
</clustering>
</event>
<event>
 6    0  0.3082502E+002  0.8354436E+02  0.7546771E-02  0.1319284E+00
          1   -1    0    0  504    0 -0.00000000000E+00  0.00000000000E+00  0.13473746684E+04  0.13473746684E+04  0.00000000000E+00 0. -1.
         21   -1    0    0  503  502  0.00000000000E+00 -0.00000000000E+00 -0.12503438856E+03  0.12503438856E+03  0.00000000000E+00 0.  1.
         21    1    1    2  503  501 -0.65934139507E+02 -0.41354646516E+02 -0.33821064697E+01  0.77903505602E+02  0.00000000000E+00 0. -1.
         21    1    1    2  504  505 -0.14483938837E+02 -0.47265358733E+02  0.12028915721E+03  0.13005106675E+03  0.00000000000E+00 0.  1.
         21    1    1    2  505  502  0.15493934279E+02  0.10336567644E+03 -0.43776580417E+02  0.11331775703E+03  0.00000000000E+00 0.  1.
          1    1    1    2  501    0  0.64924144065E+02 -0.14745671187E+02  0.11492098095E+04  0.11511367276E+04  0.00000000000E+00 0. -1.
<scales pt_clust_3="83.54436" pt_clust_4="49.43479" pt_clust_5="14000.00000" pt_clust_6="78.34990"></scales>
<clustering>
<clus scale="   49.435">  1  4  2 -1</clus>
<clus scale="   78.350">  1  6  2 -1</clus>
<clus scale="   83.544">  1  3  2 -1</clus>
<clus scale="   83.544">  2  3  1 -1</clus>
</clustering>
</event>
<event>
 6    0  0.3082502E+002  0.8990306E+02  0.7546771E-02  0.1303087E+00
         21   -1    0    0  505  502  0.00000000000E+00  0.00000000000E+00  0.25537768955E+03  0.25537768955E+03  0.00000000000E+00 0. -1.
         -1   -1    0    0    0  501 -0.00000000000E+00 -0.00000000000E+00 -0.65753922185E+03  0.65753922185E+03  0.00000000000E+00 0. -1.
         21    1    1    2  503  502  0.73919348399E+02  0.13968483180E+02  0.21375145421E+03  0.22660289664E+03  0.00000000000E+00 0. -1.
         21    1    1    2  504  501  0.34378976513E+02  0.12163240918E+02 -0.25963785796E+02  0.44765797531E+02  0.00000000000E+00 0. -1.
         21    1    1    2  505  504 -0.25997343540E+01  0.40306010711E+02 -0.19449029998E+01  0.40436564713E+02  0.00000000000E+00 0.  1.
         -1    1    1    2    0  503 -0.10569859056E+03 -0.66437734809E+02 -0.58800429772E+03  0.60111165251E+03  0.00000000000E+00 0. -1.
<scales pt_clust_3="89.90306" pt_clust_4="36.46722" pt_clust_5="40.74534" pt_clust_6="14000.00000"></scales>
<clustering>
<clus scale="   36.467">  2  4  1 -1</clus>
<clus scale="   40.745">  1  5  2 -1</clus>
<clus scale="   89.903">  1  3  2 -1</clus>
<clus scale="   40.745">  1  3  2 -1</clus>
</clustering>
</event>
<event>
 6    0  0.3082502E+002  0.7625058E+02  0.7546771E-02  0.1340042E+00
          2   -1    0    0  505    0 -0.00000000000E+00  0.00000000000E+00  0.24859550958E+04  0.24859550958E+04  0.00000000000E+00 0. -1.
         21   -1    0    0  503  502  0.00000000000E+00 -0.00000000000E+00 -0.34776693525E+02  0.34776693525E+02  0.00000000000E+00 0. -1.
         21    1    1    2  503  504  0.19066336454E+02 -0.69299084127E+02  0.36731573779E+02  0.80716149307E+02  0.00000000000E+00 0. -1.
         21    1    1    2  504  501  0.18694446122E+02  0.10219116702E+03  0.25482970182E+03  0.27519210356E+03  0.00000000000E+00 0. -1.
         21    1    1    2  505  502  0.16643835664E+02 -0.52776526094E+02  0.35590464340E+03  0.36018119630E+03  0.00000000000E+00 0.  1.
          2    1    1    2  501    0 -0.54404618240E+02  0.19884443200E+02  0.18037124833E+04  0.18046423402E+04  0.00000000000E+00 0. -1.
<scales pt_clust_3="14000.00000" pt_clust_4="76.25058" pt_clust_5="55.33877" pt_clust_6="47.34638"></scales>
<clustering>
<clus scale="   55.339">  1  5  2 -1</clus>
<clus scale="   47.346">  1  6  2 -1</clus>
<clus scale="   76.251">  1  4  2 -1</clus>
<clus scale="   76.251">  2  3  1 -1</clus>
</clustering>
</event>
<event>
 6    0  0.3082502E+002  0.1791783E+03  0.7546771E-02  0.1168601E+00
          1   -1    0    0  504    0 -0.00000000000E+00  0.00000000000E+00  0.27568135743E+04  0.27568135743E+04  0.00000000000E+00 0. -1.
         21   -1    0    0  503  502  0.00000000000E+00 -0.00000000000E+00 -0.34060846428E+02  0.34060846428E+02  0.00000000000E+00 0. -1.
         21    1    1    2  503  501  0.39054776418E+02 -0.47631468994E+02  0.70389903783E+02  0.93534864912E+02  0.00000000000E+00 0.  1.
         21    1    1    2  504  505 -0.37329583711E+02  0.47150233431E+02  0.18770083273E+04  0.18779714863E+04  0.00000000000E+00 0. -1.
         21    1    1    2  505  502 -0.61571506253E+02  0.11756703898E+03  0.35917642265E+03  0.38291090559E+03  0.00000000000E+00 0. -1.
          1    1    1    2  501    0  0.59846313546E+02 -0.11708580341E+03  0.41617807413E+03  0.43645716398E+03  0.00000000000E+00 0. -1.
<scales pt_clust_3="58.19557" pt_clust_4="60.13853" pt_clust_5="157.71780" pt_clust_6="58.19557"></scales>
<clustering>
<clus scale="   58.196">  3  6 -1 -1</clus>
<clus scale="   60.139">  1  4  2 -1</clus>
<clus scale="  157.718">  2  5  1 -1</clus>
<clus scale="  157.718">  2  3  1 -1</clus>
</clustering>
</event>
<event>
 6    0  0.3082502E+002  0.1011832E+03  0.7546771E-02  0.1277827E+00
          3   -1    0    0  505    0 -0.00000000000E+00  0.00000000000E+00  0.10801009642E+03  0.10801009642E+03  0.00000000000E+00 0. -1.
         21   -1    0    0  503  502  0.00000000000E+00 -0.00000000000E+00 -0.81571783136E+03  0.81571783136E+03  0.00000000000E+00 0.  1.
         21    1    1    2  503  501 -0.11075601631E+03 -0.25008216831E+02 -0.35640433740E+03  0.37405395036E+03  0.00000000000E+00 0.  1.
         21    1    1    2  504  502  0.94678320687E+02  0.89178791674E+00 -0.41929110766E+03  0.42984859271E+03  0.00000000000E+00 0.  1.
         21    1    1    2  505  504 -0.30639844447E+01  0.58887999036E+02  0.39783683255E+02  0.71133156014E+02  0.00000000000E+00 0.  1.
          3    1    1    2  501    0  0.19141680070E+02 -0.34771570121E+02  0.28204026860E+02  0.48692228700E+02  0.00000000000E+00 0. -1.
<scales pt_clust_3="14000.00000" pt_clust_4="101.18323" pt_clust_5="33.46788" pt_clust_6="39.69214"></scales>
<clustering>
<clus scale="   39.692">  1  6  2 -1</clus>
<clus scale="   33.468">  1  5  2 -1</clus>
<clus scale="  101.183">  2  4  1 -1</clus>
<clus scale="  101.183">  2  3  1 -1</clus>
</clustering>
</event>
<event>
 6    0  0.3082502E+002  0.2804141E+03  0.7546771E-02  0.1095463E+00
         21   -1    0    0  504  502  0.00000000000E+00  0.00000000000E+00  0.15893770976E+03  0.15893770976E+03  0.00000000000E+00 0.  1.
          2   -1    0    0  503    0 -0.00000000000E+00 -0.00000000000E+00 -0.42099972083E+04  0.42099972083E+04  0.00000000000E+00 0. -1.
         21    1    1    2  503  505  0.15320186356E+02  0.33471599756E+02 -0.11301720464E+04  0.11307713786E+04  0.00000000000E+00 0. -1.
         21    1    1    2  504  501  0.10048263321E+02  0.11102577195E+03 -0.12742501900E+02  0.11220544099E+03  0.00000000000E+00 0.  1.
         21    1    1    2  505  502  0.24744010109E+03  0.44787224485E+01 -0.51918684674E+02  0.25286797425E+03  0.00000000000E+00 0.  1.
          2    1    1    2  501    0 -0.27280855077E+03 -0.14897609416E+03 -0.28562262656E+04  0.28730901243E+04  0.00000000000E+00 0. -1.
<scales pt_clust_3="36.81109" pt_clust_4="112.18411" pt_clust_5="14000.00000" pt_clust_6="280.41412"></scales>
<clustering>
<clus scale="   36.811">  2  3  1 -1</clus>
<clus scale="  112.184">  1  4  2 -1</clus>
<clus scale="  280.414">  2  6  1 -1</clus>
<clus scale="  112.184">  1  3  2 -1</clus>
</clustering>
</event>
<event>
 6    0  0.3082502E+002  0.1087656E+03  0.7546771E-02  0.1262873E+00
         21   -1    0    0  503  502  0.00000000000E+00  0.00000000000E+00  0.25743915291E+02  0.25743915291E+02  0.00000000000E+00 0.  1.
          2   -1    0    0  505    0 -0.00000000000E+00 -0.00000000000E+00 -0.16039713770E+04  0.16039713770E+04  0.00000000000E+00 0. -1.
         21    1    1    2  503  501  0.96504878932E+01 -0.11281018488E+03 -0.16802554897E+03  0.20261257324E+03  0.00000000000E+00 0.  1.
         21    1    1    2  504  502  0.26680136657E+02  0.16296252359E+02 -0.10149103901E+03  0.10619712111E+03  0.00000000000E+00 0.  1.
         21    1    1    2  505  504 -0.23913349768E+02 -0.20637776028E+02 -0.71067200062E+03  0.71137364202E+03  0.00000000000E+00 0. -1.
          2    1    1    2  501    0 -0.12417274782E+02  0.11715170855E+03 -0.59803887306E+03  0.60953195587E+03  0.00000000000E+00 0. -1.
<scales pt_clust_3="108.76557" pt_clust_4="31.26336" pt_clust_5="31.12490" pt_clust_6="14000.00000"></scales>
<clustering>
<clus scale="   31.263">  1  4  2 -1</clus>
<clus scale="   31.125">  2  5  1 -1</clus>
<clus scale="  108.766">  1  3  2 -1</clus>
<clus scale="   31.263">  1  3  2 -1</clus>
</clustering>
</event>
<event>
 6    0  0.3082502E+002  0.9512078E+02  0.7546771E-02  0.1290904E+00
         21   -1    0    0  503  502  0.00000000000E+00  0.00000000000E+00  0.14244584953E+03  0.14244584953E+03  0.00000000000E+00 0. -1.
          2   -1    0    0  505    0 -0.00000000000E+00 -0.00000000000E+00 -0.13629929481E+04  0.13629929481E+04  0.00000000000E+00 0.  1.
         21    1    1    2  503  501 -0.83855641827E+02 -0.73203460732E+02 -0.62376307378E+02  0.12759827213E+03  0.00000000000E+00 0.  1.
         21    1    1    2  504  502 -0.60686440409E+01  0.50504457982E+02  0.97752554245E+02  0.11019569219E+03  0.00000000000E+00 0. -1.
         21    1    1    2  505  504 -0.65112523157E+01 -0.32237460817E+02 -0.80013393255E+02  0.86508920852E+02  0.00000000000E+00 0.  1.
          2    1    1    2  501    0  0.96435538183E+02  0.54936463567E+02 -0.11759099522E+04  0.11811359124E+04  0.00000000000E+00 0.  1.
<scales pt_clust_3="14000.00000" pt_clust_4="50.71595" pt_clust_5="32.88845" pt_clust_6="95.12078"></scales>
<clustering>
<clus scale="   32.888">  2  5  1 -1</clus>
<clus scale="   50.716">  1  4  2 -1</clus>
<clus scale="   95.121">  2  6  1 -1</clus>
<clus scale="   50.716">  1  3  2 -1</clus>
</clustering>
</event>
<event>
 6    0  0.3082502E+002  0.1185305E+03  0.7546771E-02  0.1245541E+00
         21   -1    0    0  504  502  0.00000000000E+00  0.00000000000E+00  0.21956166963E+03  0.21956166963E+03  0.00000000000E+00 0. -1.
          1   -1    0    0  505    0 -0.00000000000E+00 -0.00000000000E+00 -0.24006512573E+04  0.24006512573E+04  0.00000000000E+00 0.  1.
         21    1    1    2  503  501 -0.16764484251E+03  0.11944271904E+02 -0.19781349045E+03  0.25957202441E+03  0.00000000000E+00 0. -1.
         21    1    1    2  504  503  0.33044218094E+02 -0.70940377904E+02  0.17181176134E+03  0.18879549492E+03  0.00000000000E+00 0. -1.
         21    1    1    2  505  502  0.26545977291E+02  0.14626025796E+02 -0.27110087844E+02  0.40664067724E+02  0.00000000000E+00 0. -1.
          1    1    1    2  501    0  0.10805464712E+03  0.44370080203E+02 -0.21279777708E+04  0.21311813399E+04  0.00000000000E+00 0.  1.
<scales pt_clust_3="118.53054" pt_clust_4="80.69833" pt_clust_5="30.30857" pt_clust_6="14000.00000"></scales>
<clustering>
<clus scale="   30.309">  1  5  2 -1</clus>
<clus scale="   80.698">  1  4  2 -1</clus>
<clus scale="  118.531">  1  3  2 -1</clus>
<clus scale="   30.309">  1  3  2 -1</clus>
</clustering>
</event>
<event>
 6    0  0.3082502E+002  0.8016752E+02  0.7546771E-02  0.1328577E+00
          2   -1    0    0  505    0 -0.00000000000E+00  0.00000000000E+00  0.44252977081E+03  0.44252977081E+03  0.00000000000E+00 0. -1.
         21   -1    0    0  504  502  0.00000000000E+00 -0.00000000000E+00 -0.11083158594E+04  0.11083158594E+04  0.00000000000E+00 0.  1.
         21    1    1    2  503  502  0.74013476323E+02  0.50808510753E+02 -0.67561245983E+03  0.68155094844E+03  0.00000000000E+00 0.  1.
         21    1    1    2  504  501 -0.26410432970E+02 -0.72663367364E+02 -0.42029454345E+03  0.42734643930E+03  0.00000000000E+00 0.  1.
         21    1    1    2  505  503  0.53386248797E+01  0.40670583901E+02  0.24760970371E+03  0.25098438732E+03  0.00000000000E+00 0. -1.
          2    1    1    2  501    0 -0.52941668233E+02 -0.18815727290E+02  0.18251121099E+03  0.19096385513E+03  0.00000000000E+00 0. -1.
<scales pt_clust_3="14000.00000" pt_clust_4="80.16752" pt_clust_5="41.01947" pt_clust_6="51.98957"></scales>
<clustering>
<clus scale="   41.019">  1  5  2 -1</clus>
<clus scale="   51.990">  1  6  2 -1</clus>
<clus scale="   80.168">  1  4  2 -1</clus>
<clus scale="   80.168">  2  3  1 -1</clus>
</clustering>
</event>
<event>
 6    0  0.3082502E+002  0.7931790E+02  0.7546771E-02  0.1330998E+00
         21   -1    0    0  504  502  0.00000000000E+00  0.00000000000E+00  0.16499604953E+03  0.16499604953E+03  0.00000000000E+00 0.  1.
          1   -1    0    0  503    0 -0.00000000000E+00 -0.00000000000E+00 -0.27833717773E+04  0.27833717773E+04  0.00000000000E+00 0.  1.
         21    1    1    2  503  502 -0.32059638274E+02 -0.25513280680E+02  0.14408335948E+03  0.14979573550E+03  0.00000000000E+00 0.  1.
         21    1    1    2  504  505  0.48853071260E+02 -0.52078864447E+02 -0.81361317920E+02  0.10825199650E+03  0.00000000000E+00 0.  1.
         21    1    1    2  505  501 -0.79697513876E+02  0.84935615906E+02 -0.82923617820E+03  0.83737589636E+03  0.00000000000E+00 0. -1.
          1    1    1    2  501    0  0.62904080890E+02 -0.73434707783E+01 -0.18518615911E+04  0.18529441985E+04  0.00000000000E+00 0.  1.
<scales pt_clust_3="40.97253" pt_clust_4="79.31790" pt_clust_5="14000.00000" pt_clust_6="62.47142"></scales>
<clustering>
<clus scale="   40.973">  1  3  2 -1</clus>
<clus scale="   62.471">  2  6  1 -1</clus>
<clus scale="   79.318">  1  4  2 -1</clus>
<clus scale="   40.973">  1  3  2 -1</clus>
</clustering>
</event>
<event>
 6    0  0.3082502E+002  0.7134908E+02  0.7546771E-02  0.1355565E+00
          2   -1    0    0  505    0 -0.00000000000E+00  0.00000000000E+00  0.26203373916E+03  0.26203373916E+03  0.00000000000E+00 0.  1.
         21   -1    0    0  501  502  0.00000000000E+00 -0.00000000000E+00 -0.89093573054E+03  0.89093573054E+03  0.00000000000E+00 0.  1.
         21    1    1    2  503  502  0.27342618757E+02 -0.40056815685E+02 -0.19138157002E+03  0.19743118453E+03  0.00000000000E+00 0.  1.
         21    1    1    2  504  503 -0.62266365075E+02 -0.21500581464E+02 -0.66031482437E+03  0.66359252746E+03  0.00000000000E+00 0.  1.
         21    1    1    2  505  504 -0.28331871146E+02 -0.49961946765E+02  0.46163226183E+02  0.73688089260E+02  0.00000000000E+00 0.  1.
          2    1    1    2  501    0  0.63255617464E+02  0.11151934391E+03  0.17663117682E+03  0.21825766844E+03  0.00000000000E+00 0.  1.
<scales pt_clust_3="48.49915" pt_clust_4="71.34908" pt_clust_5="57.86435" pt_clust_6="14000.00000"></scales>
<clustering>
<clus scale="   48.499">  2  3  1 -1</clus>
<clus scale="   57.864">  1  5  2 -1</clus>
<clus scale="   71.349">  2  4  1 -1</clus>
<clus scale="   48.499">  2  3  1 -1</clus>
</clustering>
</event>
<event>
 6    0  0.3082502E+002  0.1140373E+03  0.7546771E-02  0.1253271E+00
          2   -1    0    0  505    0 -0.00000000000E+00  0.00000000000E+00  0.54079870383E+03  0.54079870383E+03  0.00000000000E+00 0. -1.
         21   -1    0    0  504  502  0.00000000000E+00 -0.00000000000E+00 -0.18891038108E+03  0.18891038108E+03  0.00000000000E+00 0.  1.
         21    1    1    2  503  502  0.17182310980E+02 -0.45596416851E+02 -0.98735296827E+02  0.11010415015E+03  0.00000000000E+00 0.  1.
         21    1    1    2  504  501  0.96458042014E+01  0.49481656356E+02  0.53519163240E+02  0.73523987163E+02  0.00000000000E+00 0. -1.
         21    1    1    2  505  503 -0.90811794151E+02 -0.95928772581E+02 -0.14079763966E+01  0.13210258803E+03  0.00000000000E+00 0.  1.
          2    1    1    2  501    0  0.63983678969E+02  0.92043533076E+02  0.39851243273E+03  0.41397835958E+03  0.00000000000E+00 0. -1.
<scales pt_clust_3="48.72643" pt_clust_4="45.60478" pt_clust_5="114.03728" pt_clust_6="14000.00000"></scales>
<clustering>
<clus scale="   48.726">  2  3  1 -1</clus>
<clus scale="   45.605">  2  4  1 -1</clus>
<clus scale="  114.037">  2  5  1 -1</clus>
<clus scale="   48.726">  2  3  1 -1</clus>
</clustering>
</event>
<event>
 6    0  0.3082502E+002  0.1724430E+03  0.7546771E-02  0.1175324E+00
         21   -1    0    0  504  502  0.00000000000E+00  0.00000000000E+00  0.34330139089E+03  0.34330139089E+03  0.00000000000E+00 0. -1.
          2   -1    0    0  503    0 -0.00000000000E+00 -0.00000000000E+00 -0.13862789769E+04  0.13862789769E+04  0.00000000000E+00 0.  1.
         21    1    1    2  503  505  0.31773466272E+02 -0.12886454204E+03  0.72842706833E+02  0.15139908617E+03  0.00000000000E+00 0. -1.
         21    1    1    2  504  501 -0.38475458066E+02  0.24371014329E+01  0.84683298799E+02  0.93046017820E+02  0.00000000000E+00 0. -1.
         21    1    1    2  505  502 -0.26043258547E+02 -0.45549797931E+02  0.13154943268E+03  0.14162728779E+03  0.00000000000E+00 0. -1.
          2    1    1    2  501    0  0.32745250342E+02  0.17197723854E+03 -0.13320530243E+04  0.13435079760E+04  0.00000000000E+00 0.  1.
<scales pt_clust_3="14000.00000" pt_clust_4="38.55257" pt_clust_5="64.32732" pt_clust_6="172.44305"></scales>
<clustering>
<clus scale="   38.553">  1  4  2 -1</clus>
<clus scale="   64.327">  1  5  2 -1</clus>
<clus scale="  172.443">  2  6  1 -1</clus>
<clus scale="   38.553">  1  3  2 -1</clus>
</clustering>
</event>
<event>
 6    0  0.3082502E+002  0.1870704E+03  0.7546771E-02  0.1161130E+00
          1   -1    0    0  504    0 -0.00000000000E+00  0.00000000000E+00  0.12367377935E+04  0.12367377935E+04  0.00000000000E+00 0. -1.
         21   -1    0    0  503  502  0.00000000000E+00 -0.00000000000E+00 -0.85304466750E+02  0.85304466750E+02  0.00000000000E+00 0. -1.
         21    1    1    2  503  501  0.30313888805E+02 -0.12297551478E+02 -0.35588350275E+02  0.48339345280E+02  0.00000000000E+00 0. -1.
         21    1    1    2  504  505  0.26896596418E+02  0.27339480758E+02  0.23630827631E+03  0.23940024135E+03  0.00000000000E+00 0. -1.
         21    1    1    2  505  502  0.94730681725E+02 -0.14075953738E+03  0.22221178975E+03  0.27958045162E+03  0.00000000000E+00 0.  1.
          1    1    1    2  501    0 -0.15194116695E+03  0.12571760810E+03  0.72850161094E+03  0.75472222198E+03  0.00000000000E+00 0. -1.
<scales pt_clust_3="32.71332" pt_clust_4="38.81259" pt_clust_5="187.07044" pt_clust_6="14000.00000"></scales>
<clustering>
<clus scale="   32.713">  2  3  1 -1</clus>
<clus scale="   38.813">  1  4  2 -1</clus>
<clus scale="  187.070">  2  5  1 -1</clus>
<clus scale="   32.713">  2  3  1 -1</clus>
</clustering>
</event>
<event>
 6    0  0.3082502E+002  0.7957110E+02  0.7546771E-02  0.1330273E+00
         21   -1    0    0  505  502  0.00000000000E+00  0.00000000000E+00  0.80028108240E+02  0.80028108240E+02  0.00000000000E+00 0.  1.
          2   -1    0    0  503    0 -0.00000000000E+00 -0.00000000000E+00 -0.35685531329E+04  0.35685531329E+04  0.00000000000E+00 0.  1.
         21    1    1    2  503  504  0.32095463894E+02 -0.97212760283E+02 -0.31865317100E+04  0.31881757760E+04  0.00000000000E+00 0.  1.
         21    1    1    2  504  502 -0.71657641929E+02 -0.33014094480E+02 -0.36477238495E+01  0.78981352043E+02  0.00000000000E+00 0.  1.
         21    1    1    2  505  501  0.30499650648E+01  0.79709479146E+02 -0.32675967387E+01  0.79834707622E+02  0.00000000000E+00 0.  1.
          2    1    1    2  501    0  0.36512212970E+02  0.50517375617E+02 -0.29507799401E+03  0.30158940546E+03  0.00000000000E+00 0.  1.
<scales pt_clust_3="79.57110" pt_clust_4="78.21202" pt_clust_5="14000.00000" pt_clust_6="62.33095"></scales>
<clustering>
<clus scale="   62.331">  2  6  1 -1</clus>
<clus scale="   78.212">  1  4  2 -1</clus>
<clus scale="   79.571">  2  3  1 -1</clus>
<clus scale="   78.212">  1  3  2 -1</clus>
</clustering>
</event>
<event>
 6    0  0.3082502E+002  0.1020131E+03  0.7546771E-02  0.1276119E+00
         -2   -1    0    0    0  501 -0.00000000000E+00  0.00000000000E+00  0.49202480911E+03  0.49202480911E+03  0.00000000000E+00 0. -1.
         21   -1    0    0  505  502  0.00000000000E+00 -0.00000000000E+00 -0.16285865907E+03  0.16285865907E+03  0.00000000000E+00 0.  1.
         21    1    1    2  503  501 -0.46263146324E+02 -0.19919590442E+02  0.36322947203E+03  0.36670521968E+03  0.00000000000E+00 0. -1.
         21    1    1    2  504  502  0.71760357134E+02  0.74015899288E+02 -0.11403354666E+03  0.15372557356E+03  0.00000000000E+00 0.  1.
         21    1    1    2  505  503  0.28536615110E+02 -0.10456227015E+02  0.26344949178E+01  0.30505928092E+02  0.00000000000E+00 0.  1.
         -2    1    1    2    0  504 -0.54033825920E+02 -0.43640081830E+02  0.77335729751E+02  0.10394674686E+03  0.00000000000E+00 0. -1.
<scales pt_clust_3="50.11231" pt_clust_4="102.01312" pt_clust_5="30.39196" pt_clust_6="14000.00000"></scales>
<clustering>
<clus scale="   30.392">  2  5  1 -1</clus>
<clus scale="   50.112">  1  3  2 -1</clus>
<clus scale="  102.013">  2  4  1 -1</clus>
<clus scale="   30.392">  2  3  1 -1</clus>
</clustering>
</event>
<event>
 6    0  0.3082502E+002  0.2590127E+03  0.7546771E-02  0.1107738E+00
          2   -1    0    0  505    0 -0.00000000000E+00  0.00000000000E+00  0.23520353601E+04  0.23520353601E+04  0.00000000000E+00 0. -1.
         21   -1    0    0  504  502  0.00000000000E+00 -0.00000000000E+00 -0.95971729359E+03  0.95971729359E+03  0.00000000000E+00 0. -1.
         21    1    1    2  503  502  0.58928188667E+02 -0.50470566113E+02 -0.66086605373E+03  0.66540495221E+03  0.00000000000E+00 0. -1.
         21    1    1    2  504  501  0.19581122990E+03  0.10591483955E+03 -0.24431653758E+03  0.33053072706E+03  0.00000000000E+00 0. -1.
         21    1    1    2  505  503 -0.15410679815E+02  0.28675655692E+02  0.15724617810E+03  0.16058064270E+03  0.00000000000E+00 0. -1.
          2    1    1    2  501    0 -0.23932873875E+03 -0.84119929129E+02  0.21402544797E+04  0.21552363317E+04  0.00000000000E+00 0. -1.
<scales pt_clust_3="77.55602" pt_clust_4="259.01274" pt_clust_5="32.55430" pt_clust_6="14000.00000"></scales>
<clustering>
<clus scale="   32.554">  1  5  2 -1</clus>
<clus scale="   77.556">  2  3  1 -1</clus>
<clus scale="  259.013">  2  4  1 -1</clus>
<clus scale="   77.556">  2  3  1 -1</clus>
</clustering>
</event>
<event>
 6    0  0.3082502E+002  0.1257730E+03  0.7546771E-02  0.1233866E+00
         21   -1    0    0  504  502  0.00000000000E+00  0.00000000000E+00  0.13991825109E+03  0.13991825109E+03  0.00000000000E+00 0.  1.
          2   -1    0    0  503    0 -0.00000000000E+00 -0.00000000000E+00 -0.93989834435E+03  0.93989834435E+03  0.00000000000E+00 0. -1.
         21    1    1    2  503  505  0.92984139199E+01 -0.48207934844E+02  0.39750885324E+02  0.63171183045E+02  0.00000000000E+00 0.  1.
         21    1    1    2  504  501  0.13323085413E+02  0.37394314841E+02  0.20736081856E+02  0.44786431852E+02  0.00000000000E+00 0.  1.
         21    1    1    2  505  502  0.21208292987E+01 -0.10000846243E+03  0.38596269362E+01  0.10010538045E+03  0.00000000000E+00 0.  1.
          2    1    1    2  501    0 -0.24742328632E+02  0.11082208243E+03 -0.86432668738E+03  0.87175360010E+03  0.00000000000E+00 0. -1.
<scales pt_clust_3="36.12483" pt_clust_4="39.69684" pt_clust_5="36.12483" pt_clust_6="114.71698"></scales>
<clustering>
<clus scale="   36.125">  3  5 -1 -1</clus>
<clus scale="   39.697">  1  4  2 -1</clus>
<clus scale="  114.717">  2  6  1 -1</clus>
<clus scale="   39.697">  1  3  2 -1</clus>
</clustering>
</event>
<event>
 6    0  0.3082502E+002  0.7091017E+02  0.7546771E-02  0.1357025E+00
         21   -1    0    0  505  502  0.00000000000E+00  0.00000000000E+00  0.54072039269E+02  0.54072039269E+02  0.00000000000E+00 0.  1.
          2   -1    0    0  503    0 -0.00000000000E+00 -0.00000000000E+00 -0.19127820572E+04  0.19127820572E+04  0.00000000000E+00 0. -1.
         21    1    1    2  503  504 -0.28482740247E+02  0.13249541659E+02 -0.28247074673E+03  0.28421213838E+03  0.00000000000E+00 0. -1.
         21    1    1    2  504  502  0.47649075220E+01  0.93373569699E+02 -0.25933267649E+02  0.97025059819E+02  0.00000000000E+00 0. -1.
         21    1    1    2  505  501 -0.20696143192E+02 -0.26233568022E+02 -0.83355831755E+00  0.33424919651E+02  0.00000000000E+00 0.  1.
          2    1    1    2  501    0  0.44413975917E+02 -0.80389543335E+02 -0.15494724452E+04  0.15521919786E+04  0.00000000000E+00 0. -1.
<scales pt_clust_3="31.41364" pt_clust_4="14000.00000" pt_clust_5="33.49217" pt_clust_6="70.91017"></scales>
<clustering>
<clus scale="   31.414">  2  3  1 -1</clus>
<clus scale="   33.492">  1  5  2 -1</clus>
<clus scale="   70.910">  2  6  1 -1</clus>
<clus scale="   33.492">  1  3  2 -1</clus>
</clustering>
</event>
<event>
 6    0  0.3082502E+002  0.9239112E+02  0.7546771E-02  0.1297162E+00
         21   -1    0    0  504  502  0.00000000000E+00  0.00000000000E+00  0.35337542342E+02  0.35337542342E+02  0.00000000000E+00 0.  1.
          2   -1    0    0  503    0 -0.00000000000E+00 -0.00000000000E+00 -0.18581187146E+04  0.18581187146E+04  0.00000000000E+00 0. -1.
         21    1    1    2  503  502 -0.43886906973E+02  0.40075658019E+01 -0.53049509399E+01  0.44387652470E+02  0.00000000000E+00 0.  1.
         21    1    1    2  504  505  0.45357602528E+02 -0.61798189869E+01 -0.23526382627E+03  0.23967596922E+03  0.00000000000E+00 0. -1.
         21    1    1    2  505  501  0.91075694566E+02  0.31065985315E+01 -0.15968677259E+03  0.18385945294E+03  0.00000000000E+00 0.  1.
          2    1    1    2  501    0 -0.92546390121E+02 -0.93434534641E+00 -0.14225256225E+04  0.14255331823E+04  0.00000000000E+00 0. -1.
<scales pt_clust_3="44.06950" pt_clust_4="39.62897" pt_clust_5="14000.00000" pt_clust_6="92.39112"></scales>
<clustering>
<clus scale="   44.070">  1  3  2 -1</clus>
<clus scale="   39.629">  1  4  2 -1</clus>
<clus scale="   92.391">  2  6  1 -1</clus>
<clus scale="   44.070">  1  3  2 -1</clus>
</clustering>
</event>
<event>
 6    0  0.3082502E+002  0.2456507E+03  0.7546771E-02  0.1116085E+00
         21   -1    0    0  501  502  0.00000000000E+00  0.00000000000E+00  0.83888224576E+03  0.83888224576E+03  0.00000000000E+00 0.  1.
          1   -1    0    0  504    0 -0.00000000000E+00 -0.00000000000E+00 -0.10090067357E+04  0.10090067357E+04  0.00000000000E+00 0. -1.
         21    1    1    2  503  502 -0.46320620391E+02 -0.41813791624E+01  0.17209940096E+03  0.17827307036E+03  0.00000000000E+00 0.  1.
         21    1    1    2  504  505  0.40506118376E+02 -0.77080404582E+01 -0.93426106850E+03  0.93517052115E+03  0.00000000000E+00 0. -1.
         21    1    1    2  505  503 -0.14925512970E+03 -0.13597078623E+03  0.39380218908E+03  0.44254413630E+03  0.00000000000E+00 0.  1.
          1    1    1    2  501    0  0.15506963172E+03  0.14786020585E+03  0.19823498858E+03  0.29190125360E+03  0.00000000000E+00 0. -1.
<scales pt_clust_3="40.94200" pt_clust_4="41.23299" pt_clust_5="40.94200" pt_clust_6="230.36357"></scales>
<clustering>
<clus scale="   40.942">  3  5 -1 -1</clus>
<clus scale="   41.233">  2  4  1 -1</clus>
<clus scale="  230.364">  2  6  1 -1</clus>
<clus scale="  245.651">  1  3  2 -1</clus>
</clustering>
</event>
<event>
 6    0  0.3082502E+002  0.1871784E+03  0.7546771E-02  0.1161031E+00
         21   -1    0    0  503  502  0.00000000000E+00  0.00000000000E+00  0.29430748369E+03  0.29430748369E+03  0.00000000000E+00 0.  1.
          3   -1    0    0  505    0 -0.00000000000E+00 -0.00000000000E+00 -0.65993452882E+03  0.65993452882E+03  0.00000000000E+00 0. -1.
         21    1    1    2  503  501  0.10291741989E+02 -0.40552694209E+02 -0.32053895809E+01  0.41960880390E+02  0.00000000000E+00 0. -1.
         21    1    1    2  504  502  0.10162439440E+03  0.38339401991E+02  0.19076936167E+03  0.21952306629E+03  0.00000000000E+00 0.  1.
         21    1    1    2  505  504  0.27969121717E+02  0.15698780126E+03 -0.86157498452E+02  0.18124722358E+03  0.00000000000E+00 0.  1.
          3    1    1    2  501    0 -0.13988525810E+03 -0.15477450904E+03 -0.46703351877E+03  0.51151084225E+03  0.00000000000E+00 0. -1.
<scales pt_clust_3="41.83827" pt_clust_4="109.60209" pt_clust_5="14000.00000" pt_clust_6="187.17836"></scales>
<clustering>
<clus scale="   41.838">  1  3  2 -1</clus>
<clus scale="  109.602">  1  4  2 -1</clus>
<clus scale="  187.178">  2  6  1 -1</clus>
<clus scale="   41.838">  1  3  2 -1</clus>
</clustering>
</event>
<event>
 6    0  0.3082502E+002  0.1040833E+03  0.7546771E-02  0.1271936E+00
         -4   -1    0    0    0  501 -0.00000000000E+00  0.00000000000E+00  0.42563788638E+03  0.42563788638E+03  0.00000000000E+00 0.  1.
         21   -1    0    0  505  502  0.00000000000E+00 -0.00000000000E+00 -0.21664876515E+03  0.21664876515E+03  0.00000000000E+00 0.  1.
         21    1    1    2  503  502  0.10203685098E+03 -0.30114268556E+02 -0.15870720686E+03  0.19106639065E+03  0.00000000000E+00 0.  1.
         21    1    1    2  504  501  0.20143416021E+01 -0.30039158680E+02  0.55053786046E+02  0.62748131321E+02  0.00000000000E+00 0.  1.
         21    1    1    2  505  504 -0.71263992696E+02  0.78574823833E+02  0.40190091955E+02  0.11343633936E+03  0.00000000000E+00 0. -1.
         -4    1    1    2    0  503 -0.32787199884E+02 -0.18421396596E+02  0.27245245010E+03  0.27503579020E+03  0.00000000000E+00 0.  1.
<scales pt_clust_3="14000.00000" pt_clust_4="30.10662" pt_clust_5="104.08330" pt_clust_6="51.44768"></scales>
<clustering>
<clus scale="   30.107">  1  4  2 -1</clus>
<clus scale="   51.448">  1  6  2 -1</clus>
<clus scale="  104.083">  1  5  2 -1</clus>
<clus scale="  104.083">  2  3  1 -1</clus>
</clustering>
</event>
<event>
 6    0  0.3082502E+002  0.1465108E+03  0.7546771E-02  0.1204827E+00
          3   -1    0    0  503    0 -0.00000000000E+00  0.00000000000E+00  0.69750798133E+03  0.69750798133E+03  0.00000000000E+00 0.  1.
         21   -1    0    0  505  502  0.00000000000E+00 -0.00000000000E+00 -0.47708661437E+03  0.47708661437E+03  0.00000000000E+00 0. -1.
         21    1    1    2  503  504  0.28365416011E+02 -0.16739880282E+02  0.20989058430E+02  0.39055870123E+02  0.00000000000E+00 0. -1.
         21    1    1    2  504  502  0.90864442085E+02 -0.94353311234E+02 -0.69493436471E+02  0.14828429414E+03  0.00000000000E+00 0. -1.
         21    1    1    2  505  501  0.58021675895E+02  0.73025295793E+02 -0.33966338668E+03  0.35223631974E+03  0.00000000000E+00 0. -1.
          3    1    1    2  501    0 -0.17725153399E+03  0.38067895722E+02  0.60858913167E+03  0.63501811169E+03  0.00000000000E+00 0.  1.
<scales pt_clust_3="32.93661" pt_clust_4="14000.00000" pt_clust_5="93.31281" pt_clust_6="146.51081"></scales>
<clustering>
<clus scale="   32.937">  1  3  2 -1</clus>
<clus scale="   93.313">  2  5  1 -1</clus>
<clus scale="  146.511">  1  6  2 -1</clus>
<clus scale="   93.313">  2  3  1 -1</clus>
</clustering>
</event>
<event>
 6    0  0.3082502E+002  0.1250970E+03  0.7546771E-02  0.1234918E+00
          2   -1    0    0  503    0 -0.00000000000E+00  0.00000000000E+00  0.32004130034E+04  0.32004130034E+04  0.00000000000E+00 0.  1.
         21   -1    0    0  504  502  0.00000000000E+00 -0.00000000000E+00 -0.18860723264E+03  0.18860723264E+03  0.00000000000E+00 0. -1.
         21    1    1    2  503  505 -0.22314943844E+01  0.31472085467E+02  0.15209050557E+04  0.15212322835E+04  0.00000000000E+00 0.  1.
         21    1    1    2  504  501  0.64036953206E+02 -0.11449079886E+02 -0.38795022481E+02  0.75742105697E+02  0.00000000000E+00 0. -1.
         21    1    1    2  505  502  0.44266992289E+02 -0.54206521609E+02 -0.11982441640E+03  0.13876528513E+03  0.00000000000E+00 0. -1.
          2    1    1    2  501    0 -0.10607245111E+03  0.34183516028E+02  0.16495201539E+04  0.16532805617E+04  0.00000000000E+00 0.  1.
<scales pt_clust_3="31.55110" pt_clust_4="64.96816" pt_clust_5="125.09695" pt_clust_6="14000.00000"></scales>
<clustering>
<clus scale="   31.551">  1  3  2 -1</clus>
<clus scale="   64.968">  2  4  1 -1</clus>
<clus scale="  125.097">  2  5  1 -1</clus>
<clus scale="   64.968">  2  3  1 -1</clus>
</clustering>
</event>
<event>
 6    0  0.3082502E+002  0.1188660E+03  0.7546771E-02  0.1244980E+00
          2   -1    0    0  503    0 -0.00000000000E+00  0.00000000000E+00  0.11961304013E+04  0.11961304013E+04  0.00000000000E+00 0. -1.
         21   -1    0    0  505  502  0.00000000000E+00 -0.00000000000E+00 -0.61011545653E+02  0.61011545653E+02  0.00000000000E+00 0. -1.
         21    1    1    2  503  504 -0.10031695562E+03 -0.21722233505E+02  0.38775484033E+03  0.40110991413E+03  0.00000000000E+00 0. -1.
         21    1    1    2  504  502 -0.33540778091E+02 -0.32253853769E+02  0.69431686374E+02  0.83582617515E+02  0.00000000000E+00 0. -1.
         21    1    1    2  505  501 -0.69892270005E+01  0.95028150159E+02  0.18715968049E+02  0.97105540916E+02  0.00000000000E+00 0. -1.
          2    1    1    2  501    0  0.14084696071E+03 -0.41052062885E+02  0.65921636093E+03  0.67534387443E+03  0.00000000000E+00 0. -1.
<scales pt_clust_3="14000.00000" pt_clust_4="46.53273" pt_clust_5="78.15822" pt_clust_6="118.86604"></scales>
<clustering>
<clus scale="   46.533">  2  4  1 -1</clus>
<clus scale="   78.158">  2  5  1 -1</clus>
<clus scale="  118.866">  2  6  1 -1</clus>
<clus scale="   46.533">  2  3  1 -1</clus>
</clustering>
</event>
<event>
 6    0  0.3082502E+002  0.1517947E+03  0.7546771E-02  0.1198285E+00
         -2   -1    0    0    0  501 -0.00000000000E+00  0.00000000000E+00  0.31143787110E+03  0.31143787110E+03  0.00000000000E+00 0.  1.
         21   -1    0    0  503  502  0.00000000000E+00 -0.00000000000E+00 -0.51066952237E+03  0.51066952237E+03  0.00000000000E+00 0.  1.
         21    1    1    2  503  501 -0.42397197776E+02 -0.34495708466E+02  0.20300907613E+02  0.58306115732E+02  0.00000000000E+00 0. -1.
         21    1    1    2  504  505  0.95270450616E+02 -0.31557377831E+02 -0.17914396305E+03  0.20534090277E+03  0.00000000000E+00 0. -1.
         21    1    1    2  505  502  0.73351055057E+02  0.55969536967E+02 -0.27598032017E+03  0.29099502310E+03  0.00000000000E+00 0.  1.
         -2    1    1    2    0  504 -0.12622430790E+03  0.10083549330E+02  0.23559172434E+03  0.26746535186E+03  0.00000000000E+00 0.  1.
<scales pt_clust_3="54.65781" pt_clust_4="14000.00000" pt_clust_5="90.75864" pt_clust_6="151.79465"></scales>
<clustering>
<clus scale="   54.658">  1  3  2 -1</clus>
<clus scale="   90.759">  2  5  1 -1</clus>
<clus scale="  151.795">  1  6  2 -1</clus>
<clus scale="   90.759">  2  3  1 -1</clus>
</clustering>
</event>
<event>
 6    0  0.3082502E+002  0.7830535E+02  0.7546771E-02  0.1333931E+00
          2   -1    0    0  504    0 -0.00000000000E+00  0.00000000000E+00  0.15817822113E+04  0.15817822113E+04  0.00000000000E+00 0. -1.
         21   -1    0    0  503  502  0.00000000000E+00 -0.00000000000E+00 -0.94936231494E+02  0.94936231494E+02  0.00000000000E+00 0.  1.
         21    1    1    2  503  501  0.19987309599E+02  0.28466339444E+02  0.31287221631E+02  0.46783707246E+02  0.00000000000E+00 0.  1.
         21    1    1    2  504  505  0.54055217037E+02 -0.18449531345E+01  0.38081943076E+03  0.38464114339E+03  0.00000000000E+00 0. -1.
         21    1    1    2  505  502 -0.26337440210E+02 -0.10534184595E+03 -0.48047696420E+02  0.11873982650E+03  0.00000000000E+00 0.  1.
          2    1    1    2  501    0 -0.47705086426E+02  0.78720459641E+02  0.11227870238E+04  0.11265537656E+04  0.00000000000E+00 0. -1.
<scales pt_clust_3="34.78254" pt_clust_4="54.50695" pt_clust_5="14000.00000" pt_clust_6="78.30535"></scales>
<clustering>
<clus scale="   34.783">  2  3  1 -1</clus>
<clus scale="   54.507">  1  4  2 -1</clus>
<clus scale="   78.305">  1  6  2 -1</clus>
<clus scale="   34.783">  2  3  1 -1</clus>
</clustering>
</event>
<event>
 6    0  0.3082502E+002  0.1434239E+03  0.7546771E-02  0.1208795E+00
         21   -1    0    0  501  502  0.00000000000E+00  0.00000000000E+00  0.52942923769E+03  0.52942923769E+03  0.00000000000E+00 0. -1.
          1   -1    0    0  504    0 -0.00000000000E+00 -0.00000000000E+00 -0.21333671472E+04  0.21333671472E+04  0.00000000000E+00 0. -1.
         21    1    1    2  503  502  0.62958657515E+02 -0.11269760675E+02  0.48089096550E+03  0.48512567522E+03  0.00000000000E+00 0. -1.
         21    1    1    2  504  505 -0.13580255044E+02 -0.30488011754E+02 -0.85983346835E+02  0.92233823084E+02  0.00000000000E+00 0. -1.
         21    1    1    2  505  503  0.51170239400E+02  0.10817809470E+03 -0.44957225357E+02  0.12783601091E+03  0.00000000000E+00 0.  1.
          1    1    1    2  501    0 -0.10054864187E+03 -0.66420322273E+02 -0.19538883028E+04  0.19576008757E+04  0.00000000000E+00 0. -1.
<scales pt_clust_3="63.95109" pt_clust_4="33.37577" pt_clust_5="14000.00000" pt_clust_6="143.42389"></scales>
<clustering>
<clus scale="   33.376">  2  4  1 -1</clus>
<clus scale="   63.951">  1  3  2 -1</clus>
<clus scale="  143.424">  2  6  1 -1</clus>
<clus scale="   63.951">  1  3  2 -1</clus>
</clustering>
</event>
<event>
 6    0  0.3082502E+002  0.1451843E+03  0.7546771E-02  0.1206519E+00
         21   -1    0    0  503  502  0.00000000000E+00  0.00000000000E+00  0.62273244776E+02  0.62273244776E+02  0.00000000000E+00 0. -1.
         -1   -1    0    0    0  501 -0.00000000000E+00 -0.00000000000E+00 -0.14701775402E+04  0.14701775402E+04  0.00000000000E+00 0. -1.
         21    1    1    2  503  505 -0.18472390738E+02 -0.57917200266E+02  0.90193081230E+01  0.61457133233E+02  0.00000000000E+00 0. -1.
         21    1    1    2  504  501 -0.11777249874E+02  0.27886807502E+02 -0.21993643253E+03  0.22200993672E+03  0.00000000000E+00 0.  1.
         21    1    1    2  505  504 -0.11190090282E+03 -0.29410460070E+02 -0.14371452078E+03  0.18450108590E+03  0.00000000000E+00 0. -1.
         -1    1    1    2    0  502  0.14215054343E+03  0.59440852834E+02 -0.10532726503E+04  0.10644826292E+04  0.00000000000E+00 0. -1.
<scales pt_clust_3="60.31061" pt_clust_4="30.27173" pt_clust_5="14000.00000" pt_clust_6="145.18430"></scales>
<clustering>
<clus scale="   30.272">  2  4  1 -1</clus>
<clus scale="   60.311">  1  3  2 -1</clus>
<clus scale="  145.184">  2  6  1 -1</clus>
<clus scale="   60.311">  1  3  2 -1</clus>
</clustering>
</event>
<event>
 6    0  0.3082502E+002  0.8076127E+02  0.7546771E-02  0.1326905E+00
          1   -1    0    0  505    0 -0.00000000000E+00  0.00000000000E+00  0.13281840214E+04  0.13281840214E+04  0.00000000000E+00 0.  1.
         21   -1    0    0  504  502  0.00000000000E+00 -0.00000000000E+00 -0.15287334087E+02  0.15287334087E+02  0.00000000000E+00 0.  1.
         21    1    1    2  503  502 -0.28173524804E+02  0.76482665401E+02  0.32900001524E+03  0.33894594796E+03  0.00000000000E+00 0.  1.
         21    1    1    2  504  501  0.55105418597E+02 -0.61574525267E+02  0.22671412792E+03  0.24130338812E+03  0.00000000000E+00 0.  1.
         21    1    1    2  505  503 -0.81558344923E+01  0.33300164745E+02  0.48204408303E+03  0.48326174749E+03  0.00000000000E+00 0.  1.
          1    1    1    2  501    0 -0.18776059300E+02 -0.48208304880E+02  0.27513846116E+03  0.27996027195E+03  0.00000000000E+00 0.  1.
<scales pt_clust_3="14000.00000" pt_clust_4="80.76127" pt_clust_5="34.28438" pt_clust_6="43.00982"></scales>
<clustering>
<clus scale="   34.284">  1  5  2 -1</clus>
<clus scale="   43.010">  1  6  2 -1</clus>
<clus scale="   80.761">  2  4  1 -1</clus>
<clus scale="   80.761">  2  3  1 -1</clus>
</clustering>
</event>
<event>
 6    0  0.3082502E+002  0.1007672E+03  0.7546771E-02  0.1278691E+00
          2   -1    0    0  504    0 -0.00000000000E+00  0.00000000000E+00  0.85368440226E+03  0.85368440226E+03  0.00000000000E+00 0. -1.
         21   -1    0    0  503  502  0.00000000000E+00 -0.00000000000E+00 -0.48446239453E+02  0.48446239453E+02  0.00000000000E+00 0. -1.
         21    1    1    2  503  501  0.26282267447E+02 -0.52522587145E+02  0.86797540349E+02  0.10480072878E+03  0.00000000000E+00 0. -1.
         21    1    1    2  504  505  0.11000176840E+02 -0.90053118566E+02  0.46280177986E+03  0.47161006721E+03  0.00000000000E+00 0. -1.
         21    1    1    2  505  502 -0.32285600651E+02 -0.20200623482E+01  0.42905725344E+00  0.32351580354E+02  0.00000000000E+00 0. -1.
          2    1    1    2  501    0 -0.49968436365E+01  0.14459576806E+03  0.25520978534E+03  0.29336826536E+03  0.00000000000E+00 0. -1.
<scales pt_clust_3="55.84147" pt_clust_4="14000.00000" pt_clust_5="32.34874" pt_clust_6="100.76717"></scales>
<clustering>
<clus scale="   32.349">  2  5  1 -1</clus>
<clus scale="   55.841">  2  3  1 -1</clus>
<clus scale="  100.767">  2  6  1 -1</clus>
<clus scale="   32.349">  2  3  1 -1</clus>
</clustering>
</event>
<event>
 6    0  0.3082502E+002  0.1165991E+03  0.7546771E-02  0.1248815E+00
          2   -1    0    0  503    0 -0.00000000000E+00  0.00000000000E+00  0.28420294804E+04  0.28420294804E+04  0.00000000000E+00 0. -1.
         21   -1    0    0  504  502  0.00000000000E+00 -0.00000000000E+00 -0.27459792928E+02  0.27459792928E+02  0.00000000000E+00 0. -1.
         21    1    1    2  503  502  0.66051431976E+02  0.52764184297E+02  0.10022478400E+03  0.13111772626E+03  0.00000000000E+00 0.  1.
         21    1    1    2  504  505 -0.21937850273E+02 -0.27864897594E+02  0.41262106777E+02  0.54408485075E+02  0.00000000000E+00 0. -1.
         21    1    1    2  505  501  0.48725638406E+02 -0.10432110953E+03  0.10517933782E+04  0.10580767421E+04  0.00000000000E+00 0. -1.
          2    1    1    2  501    0 -0.92839220108E+02  0.79421822831E+02  0.16212894185E+04  0.16258863199E+04  0.00000000000E+00 0. -1.
<scales pt_clust_3="59.30307" pt_clust_4="35.46437" pt_clust_5="116.59909" pt_clust_6="14000.00000"></scales>
<clustering>
<clus scale="   35.464">  2  4  1 -1</clus>
<clus scale="   59.303">  2  3  1 -1</clus>
<clus scale="  116.599">  2  5  1 -1</clus>
<clus scale="   35.464">  2  3  1 -1</clus>
</clustering>
</event>
<event>
 6    0  0.3082502E+002  0.8380604E+02  0.7546771E-02  0.1318585E+00
          2   -1    0    0  503    0 -0.00000000000E+00  0.00000000000E+00  0.66264736227E+03  0.66264736227E+03  0.00000000000E+00 0.  1.
         21   -1    0    0  504  502  0.00000000000E+00 -0.00000000000E+00 -0.18154722765E+03  0.18154722765E+03  0.00000000000E+00 0. -1.
         21    1    1    2  503  502 -0.21464923843E+02  0.24148763423E+02 -0.87199101288E+02  0.92992413647E+02  0.00000000000E+00 0. -1.
         21    1    1    2  504  505  0.65956814811E+02  0.28049073280E+02 -0.50032690972E+02  0.87408936029E+02  0.00000000000E+00 0. -1.
         21    1    1    2  505  501 -0.73580512893E+02  0.31584518804E+02  0.64263579765E+02  0.10267171660E+03  0.00000000000E+00 0.  1.
          2    1    1    2  501    0  0.29088621925E+02 -0.83782355508E+02  0.55406834712E+03  0.56112152364E+03  0.00000000000E+00 0.  1.
<scales pt_clust_3="32.30953" pt_clust_4="67.94681" pt_clust_5="14000.00000" pt_clust_6="83.80604"></scales>
<clustering>
<clus scale="   32.310">  2  3  1 -1</clus>
<clus scale="   67.947">  2  4  1 -1</clus>
<clus scale="   83.806">  1  6  2 -1</clus>
<clus scale="   32.310">  2  3  1 -1</clus>
</clustering>
</event>
<event>
 6    0  0.3082502E+002  0.8348416E+02  0.7546771E-02  0.1319445E+00
          1   -1    0    0  503    0 -0.00000000000E+00  0.00000000000E+00  0.72411264529E+02  0.72411264529E+02  0.00000000000E+00 0. -1.
         21   -1    0    0  505  502  0.00000000000E+00 -0.00000000000E+00 -0.25338000911E+04  0.25338000911E+04  0.00000000000E+00 0. -1.
         21    1    1    2  503  504  0.27300464765E+02  0.14349090563E+02  0.19801371232E+02  0.36651140215E+02  0.00000000000E+00 0.  1.
         21    1    1    2  504  502  0.29090801580E+02  0.13194873108E+03 -0.89550296982E+02  0.16209872936E+03  0.00000000000E+00 0. -1.
         21    1    1    2  505  501 -0.38945052770E+02 -0.72715138990E+02 -0.21984645611E+04  0.22000115079E+04  0.00000000000E+00 0. -1.
          1    1    1    2  501    0 -0.17446213575E+02 -0.73582682649E+02 -0.19317533978E+03  0.20744997819E+03  0.00000000000E+00 0. -1.
<scales pt_clust_3="30.84172" pt_clust_4="83.48416" pt_clust_5="14000.00000" pt_clust_6="72.44737"></scales>
<clustering>
<clus scale="   30.842">  1  3  2 -1</clus>
<clus scale="   72.447">  1  6  2 -1</clus>
<clus scale="   83.484">  1  4  2 -1</clus>
<clus scale="   83.484">  2  3  1 -1</clus>
</clustering>
</event>
<event>
 6    0  0.3082502E+002  0.1574678E+03  0.7546771E-02  0.1191586E+00
         21   -1    0    0  505  502  0.00000000000E+00  0.00000000000E+00  0.26262977848E+02  0.26262977848E+02  0.00000000000E+00 0. -1.
          2   -1    0    0  503    0 -0.00000000000E+00 -0.00000000000E+00 -0.35758190642E+04  0.35758190642E+04  0.00000000000E+00 0.  1.
         21    1    1    2  503  502  0.44501436803E+02  0.31752457540E+02 -0.13566951189E+04  0.13577960974E+04  0.00000000000E+00 0. -1.
         21    1    1    2  504  501  0.35686911211E+02 -0.12217040044E+03 -0.37135454933E+03  0.39256001285E+03  0.00000000000E+00 0. -1.
         21    1    1    2  505  504 -0.11121496789E+02 -0.54397022929E+02 -0.55701889694E+02  0.78647468553E+02  0.00000000000E+00 0. -1.
          2    1    1    2  501    0 -0.69066851225E+02  0.14481496583E+03 -0.17658045284E+04  0.17730784632E+04  0.00000000000E+00 0.  1.
<scales pt_clust_3="54.66806" pt_clust_4="14000.00000" pt_clust_5="54.32216" pt_clust_6="157.46784"></scales>
<clustering>
<clus scale="   54.668">  2  3  1 -1</clus>
<clus scale="   54.322">  1  5  2 -1</clus>
<clus scale="  157.468">  2  6  1 -1</clus>
<clus scale="   54.322">  1  3  2 -1</clus>
</clustering>
</event>
<event>
 6    0  0.3082502E+002  0.7421132E+02  0.7546771E-02  0.1346331E+00
          2   -1    0    0  503    0 -0.00000000000E+00  0.00000000000E+00  0.45107897913E+03  0.45107897913E+03  0.00000000000E+00 0.  1.
         21   -1    0    0  505  502  0.00000000000E+00 -0.00000000000E+00 -0.30400002908E+03  0.30400002908E+03  0.00000000000E+00 0.  1.
         21    1    1    2  503  504 -0.18147367694E+02  0.24417601110E+02  0.11026536459E+03  0.11438529987E+03  0.00000000000E+00 0. -1.
         21    1    1    2  504  502 -0.72173137713E+02 -0.13379472027E+02 -0.20455562129E+03  0.21732688347E+03  0.00000000000E+00 0.  1.
         21    1    1    2  505  501  0.62631596894E+02  0.64271972541E+02 -0.62318670666E+02  0.10925758599E+03  0.00000000000E+00 0.  1.
          2    1    1    2  501    0  0.27688908513E+02 -0.75310101624E+02  0.30368787741E+03  0.31410923888E+03  0.00000000000E+00 0.  1.
<scales pt_clust_3="30.42279" pt_clust_4="74.21132" pt_clust_5="14000.00000" pt_clust_6="54.20181"></scales>
<clustering>
<clus scale="   30.423">  1  3  2 -1</clus>
<clus scale="   54.202">  1  6  2 -1</clus>
<clus scale="   74.211">  2  4  1 -1</clus>
<clus scale="   74.211">  2  3  1 -1</clus>
</clustering>
</event>
<event>
 6    0  0.3082502E+002  0.9791761E+02  0.7546771E-02  0.1284737E+00
          2   -1    0    0  504    0 -0.00000000000E+00  0.00000000000E+00  0.11753258135E+04  0.11753258135E+04  0.00000000000E+00 0.  1.
         21   -1    0    0  501  502  0.00000000000E+00 -0.00000000000E+00 -0.29199952882E+02  0.29199952882E+02  0.00000000000E+00 0.  1.
         21    1    1    2  503  505  0.20774849067E+02 -0.86494313912E+02  0.11934294398E+03  0.14884756959E+03  0.00000000000E+00 0.  1.
         21    1    1    2  504  503 -0.46433151115E+02  0.25822770452E+02  0.38200456867E+03  0.38568166081E+03  0.00000000000E+00 0. -1.
         21    1    1    2  505  502 -0.23713933750E+02 -0.24240872429E+02  0.24120410836E+02  0.41614477876E+02  0.00000000000E+00 0.  1.
          2    1    1    2  501    0  0.49372235797E+02  0.84912415889E+02  0.62065793714E+03  0.62838205812E+03  0.00000000000E+00 0.  1.
<scales pt_clust_3="14000.00000" pt_clust_4="54.01452" pt_clust_5="33.91122" pt_clust_6="97.91761"></scales>
<clustering>
<clus scale="   33.911">  2  5  1 -1</clus>
<clus scale="   54.015">  1  4  2 -1</clus>
<clus scale="   97.918">  1  6  2 -1</clus>
<clus scale="   33.911">  2  3  1 -1</clus>
</clustering>
</event>
<event>
 6    0  0.3082502E+002  0.1097193E+03  0.7546771E-02  0.1261091E+00
          2   -1    0    0  504    0 -0.00000000000E+00  0.00000000000E+00  0.30081541417E+04  0.30081541417E+04  0.00000000000E+00 0.  1.
         21   -1    0    0  505  502  0.00000000000E+00 -0.00000000000E+00 -0.74047634264E+03  0.74047634264E+03  0.00000000000E+00 0.  1.
         21    1    1    2  503  501  0.67054953396E+02 -0.16602179720E+02  0.52422562699E+03  0.52875751261E+03  0.00000000000E+00 0.  1.
         21    1    1    2  504  502  0.47310072175E+02 -0.35558463529E+02 -0.18557408728E+03  0.19478292822E+03  0.00000000000E+00 0. -1.
         21    1    1    2  505  503 -0.15352175469E+03  0.65560792890E+02 -0.53514172591E+03  0.56057453878E+03  0.00000000000E+00 0.  1.
          2    1    1    2  501    0  0.39156729117E+02 -0.13400149641E+02  0.24641679853E+04  0.24645155047E+04  0.00000000000E+00 0.  1.
<scales pt_clust_3="109.71928" pt_clust_4="59.51646" pt_clust_5="14000.00000" pt_clust_6="41.38615"></scales>
<clustering>
<clus scale="   41.386">  1  6  2 -1</clus>
<clus scale="   59.516">  2  4  1 -1</clus>
<clus scale="  109.719">  1  3  2 -1</clus>
<clus scale="   59.516">  2  3  1 -1</clus>
</clustering>
</event>
<event>
 6    0  0.3082502E+002  0.1951362E+03  0.7546771E-02  0.1153909E+00
         21   -1    0    0  504  502  0.00000000000E+00  0.00000000000E+00  0.36967311224E+03  0.36967311224E+03  0.00000000000E+00 0.  1.
          2   -1    0    0  503    0 -0.00000000000E+00 -0.00000000000E+00 -0.38165369042E+04  0.38165369042E+04  0.00000000000E+00 0. -1.
         21    1    1    2  503  505 -0.34251698998E+02 -0.33613580079E+01 -0.14266039772E+04  0.14270190558E+04  0.00000000000E+00 0. -1.
         21    1    1    2  504  501  0.38180238853E+02 -0.64523616331E+02 -0.56252028064E+02  0.93730029151E+02  0.00000000000E+00 0.  1.
         21    1    1    2  505  502  0.47705850452E+02  0.24012932831E+03  0.30400594006E+03  0.39033005787E+03  0.00000000000E+00 0.  1.
          2    1    1    2  501    0 -0.51634390308E+02 -0.17224435397E+03 -0.22680137267E+04  0.22751308736E+04  0.00000000000E+00 0. -1.
<scales pt_clust_3="34.41624" pt_clust_4="74.52336" pt_clust_5="14000.00000" pt_clust_6="195.13618"></scales>
<clustering>
<clus scale="   34.416">  2  3  1 -1</clus>
<clus scale="   74.523">  1  4  2 -1</clus>
<clus scale="  195.136">  2  6  1 -1</clus>
<clus scale="   74.523">  1  3  2 -1</clus>
</clustering>
</event>
<event>
 6    0  0.3082502E+002  0.6689522E+02  0.7546771E-02  0.1370981E+00
         21   -1    0    0  503  502  0.00000000000E+00  0.00000000000E+00  0.21262599150E+03  0.21262599150E+03  0.00000000000E+00 0. -1.
          2   -1    0    0  505    0 -0.00000000000E+00 -0.00000000000E+00 -0.31909627966E+04  0.31909627966E+04  0.00000000000E+00 0.  1.
         21    1    1    2  503  501  0.89470936936E+02  0.51671022853E+02  0.16065307855E+03  0.19100878201E+03  0.00000000000E+00 0. -1.
         21    1    1    2  504  502 -0.61923354249E+02  0.93121461472E+01  0.73922135380E+01  0.63054442257E+02  0.00000000000E+00 0.  1.
         21    1    1    2  505  504 -0.39726178033E+02  0.44597421909E+01 -0.33816719779E+03  0.34052182336E+03  0.00000000000E+00 0. -1.
          2    1    1    2  501    0  0.12178595346E+02 -0.65442911191E+02 -0.28082148994E+04  0.28090037405E+04  0.00000000000E+00 0.  1.
<scales pt_clust_3="66.89522" pt_clust_4="63.00951" pt_clust_5="39.97572" pt_clust_6="14000.00000"></scales>
<clustering>
<clus scale="   39.976">  2  5  1 -1</clus>
<clus scale="   63.010">  1  4  2 -1</clus>
<clus scale="   66.895">  1  3  2 -1</clus>
<clus scale="   63.010">  1  3  2 -1</clus>
</clustering>
</event>
<event>
 6    0  0.3082502E+002  0.2290556E+03  0.7546771E-02  0.1127306E+00
         21   -1    0    0  504  502  0.00000000000E+00  0.00000000000E+00  0.74391530451E+02  0.74391530451E+02  0.00000000000E+00 0. -1.
         -1   -1    0    0    0  501 -0.00000000000E+00 -0.00000000000E+00 -0.23449361904E+04  0.23449361904E+04  0.00000000000E+00 0. -1.
         21    1    1    2  503  501 -0.25496039326E+02  0.46954941943E+02 -0.32711457182E+03  0.33144947985E+03  0.00000000000E+00 0. -1.
         21    1    1    2  504  505  0.10648650701E+03  0.51044673391E+02 -0.23550966498E+02  0.12041421378E+03  0.00000000000E+00 0. -1.
         21    1    1    2  505  503 -0.15386279380E+03  0.98864282057E+02 -0.50498653951E+03  0.53708408156E+03  0.00000000000E+00 0. -1.
         -1    1    1    2    0  502  0.72872326115E+02 -0.19686389739E+03 -0.14148925821E+04  0.14303799457E+04  0.00000000000E+00 0. -1.
<scales pt_clust_3="49.90694" pt_clust_4="118.08867" pt_clust_5="49.90694" pt_clust_6="209.62116"></scales>
<clustering>
<clus scale="   49.907">  3  5 -1 -1</clus>
<clus scale="  118.089">  1  4  2 -1</clus>
<clus scale="  209.621">  2  6  1 -1</clus>
<clus scale="  118.089">  1  3  2 -1</clus>
</clustering>
</event>
<event>
 6    0  0.3082502E+002  0.7912082E+02  0.7546771E-02  0.1331565E+00
         21   -1    0    0  505  502  0.00000000000E+00  0.00000000000E+00  0.12352171685E+04  0.12352171685E+04  0.00000000000E+00 0.  1.
          1   -1    0    0  504    0 -0.00000000000E+00 -0.00000000000E+00 -0.16561311847E+03  0.16561311847E+03  0.00000000000E+00 0. -1.
         21    1    1    2  503  501  0.10720879273E+03 -0.76218380339E+02  0.26550248846E+03  0.29630143118E+03  0.00000000000E+00 0.  1.
         21    1    1    2  504  502 -0.38095461610E+02  0.46012041681E+01 -0.30935356612E+02  0.49289264184E+02  0.00000000000E+00 0.  1.
         21    1    1    2  505  503 -0.36229596209E+02  0.40471856982E+02  0.93966256969E+03  0.94123126793E+03  0.00000000000E+00 0.  1.
          1    1    1    2  501    0 -0.32883734907E+02  0.31145319189E+02 -0.10462565147E+03  0.11400832371E+03  0.00000000000E+00 0. -1.
<scales pt_clust_3="14000.00000" pt_clust_4="38.37232" pt_clust_5="54.49946" pt_clust_6="79.12082"></scales>
<clustering>
<clus scale="   38.372">  2  4  1 -1</clus>
<clus scale="   54.499">  1  5  2 -1</clus>
<clus scale="   79.121">  2  6  1 -1</clus>
<clus scale="   54.499">  1  3  2 -1</clus>
</clustering>
</event>
<event>
 6    0  0.3082502E+002  0.8587753E+02  0.7546771E-02  0.1313154E+00
          2   -1    0    0  505    0 -0.00000000000E+00  0.00000000000E+00  0.19605474592E+04  0.19605474592E+04  0.00000000000E+00 0. -1.
         21   -1    0    0  503  502  0.00000000000E+00 -0.00000000000E+00 -0.20518107411E+03  0.20518107411E+03  0.00000000000E+00 0. -1.
         21    1    1    2  503  501  0.75424468856E+02  0.57258972318E+02  0.35616390080E+01  0.94763525079E+02  0.00000000000E+00 0. -1.
         21    1    1    2  504  502 -0.10573618107E+02 -0.89066660686E+02 -0.14181169426E+03  0.16779519682E+03  0.00000000000E+00 0. -1.
         21    1    1    2  505  504  0.33336638603E+02  0.56868425494E+02  0.34498247961E+03  0.35122394641E+03  0.00000000000E+00 0. -1.
          2    1    1    2  501    0 -0.98187489352E+02 -0.25060737125E+02  0.15486339607E+04  0.15519458650E+04  0.00000000000E+00 0. -1.
<scales pt_clust_3="85.87753" pt_clust_4="14000.00000" pt_clust_5="65.91926" pt_clust_6="72.46404"></scales>
<clustering>
<clus scale="   65.919">  1  5  2 -1</clus>
<clus scale="   72.464">  1  6  2 -1</clus>
<clus scale="   85.878">  1  3  2 -1</clus>
<clus scale="   85.878">  2  3  1 -1</clus>
</clustering>
</event>
<event>
 6    0  0.3082502E+002  0.1113321E+03  0.7546771E-02  0.1258123E+00
         -2   -1    0    0    0  501 -0.00000000000E+00  0.00000000000E+00  0.66294485987E+03  0.66294485987E+03  0.00000000000E+00 0. -1.
         21   -1    0    0  505  502  0.00000000000E+00 -0.00000000000E+00 -0.74641577759E+02  0.74641577759E+02  0.00000000000E+00 0. -1.
         21    1    1    2  503  504  0.96802339722E+02 -0.10772435477E+03  0.16643055615E+03  0.22062266340E+03  0.00000000000E+00 0. -1.
         21    1    1    2  504  502 -0.90328135677E+02  0.46937398120E+02  0.29407450097E+02  0.10595796128E+03  0.00000000000E+00 0. -1.
         21    1    1    2  505  501 -0.29630685584E+02 -0.21102691122E+02  0.10000603464E+03  0.10641667194E+03  0.00000000000E+00 0. -1.
         -2    1    1    2    0  503  0.23156481539E+02  0.81889647769E+02  0.29245924122E+03  0.30458914101E+03  0.00000000000E+00 0. -1.
<scales pt_clust_3="14000.00000" pt_clust_4="111.33212" pt_clust_5="36.37721" pt_clust_6="71.01663"></scales>
<clustering>
<clus scale="   36.377">  1  5  2 -1</clus>
<clus scale="   71.017">  1  6  2 -1</clus>
<clus scale="  111.332">  2  4  1 -1</clus>
<clus scale="  111.332">  2  3  1 -1</clus>
</clustering>
</event>
<event>
 6    0  0.3082502E+002  0.1170209E+03  0.7546771E-02  0.1248094E+00
          1   -1    0    0  505    0 -0.00000000000E+00  0.00000000000E+00  0.41160916967E+02  0.41160916967E+02  0.00000000000E+00 0.  1.
         21   -1    0    0  504  502  0.00000000000E+00 -0.00000000000E+00 -0.93120273592E+03  0.93120273592E+03  0.00000000000E+00 0.  1.
         21    1    1    2  503  502  0.45286639126E+02  0.64746838404E+02 -0.32224760294E+03  0.33179293297E+03  0.00000000000E+00 0.  1.
         21    1    1    2  504  501 -0.49514040484E-01 -0.41458976809E+02 -0.41599687133E+03  0.41805770674E+03  0.00000000000E+00 0.  1.
         21    1    1    2  505  503  0.32859739431E+02  0.40068118631E+02 -0.91788249111E+02  0.10540540442E+03  0.00000000000E+00 0.  1.
          1    1    1    2  501    0 -0.78096864517E+02 -0.63355980226E+02 -0.60009095574E+02  0.11710760876E+03  0.00000000000E+00 0.  1.
<scales pt_clust_3="45.07096" pt_clust_4="41.45901" pt_clust_5="45.07096" pt_clust_6="105.21514"></scales>
<clustering>
<clus scale="   41.459">  2  4  1 -1</clus>
<clus scale="   45.071">  3  5 -1 -1</clus>
<clus scale="  105.215">  1  6  2 -1</clus>
<clus scale="   41.459">  2  3  1 -1</clus>
</clustering>
</event>
<event>
 6    0  0.3082502E+002  0.9107790E+02  0.7546771E-02  0.1300262E+00
          2   -1    0    0  504    0 -0.00000000000E+00  0.00000000000E+00  0.16442053951E+03  0.16442053951E+03  0.00000000000E+00 0. -1.
         21   -1    0    0  501  502  0.00000000000E+00 -0.00000000000E+00 -0.23315886562E+03  0.23315886562E+03  0.00000000000E+00 0.  1.
         21    1    1    2  503  505  0.64848112708E+01 -0.71123013705E+02 -0.10140120307E+03  0.12402717380E+03  0.00000000000E+00 0.  1.
         21    1    1    2  504  503  0.25355671008E+02 -0.18412973263E+02  0.12826598239E+02  0.33859551962E+02  0.00000000000E+00 0. -1.
         21    1    1    2  505  502 -0.39742846653E+02 -0.18640836287E+02 -0.80657344847E+02  0.91829090790E+02  0.00000000000E+00 0.  1.
          2    1    1    2  501    0  0.79023643735E+01  0.10817682325E+03  0.10049362356E+03  0.14786358858E+03  0.00000000000E+00 0. -1.
<scales pt_clust_3="14000.00000" pt_clust_4="31.33604" pt_clust_5="43.31161" pt_clust_6="91.07790"></scales>
<clustering>
<clus scale="   31.336">  1  4  2 -1</clus>
<clus scale="   43.312">  2  5  1 -1</clus>
<clus scale="   91.078">  1  6  2 -1</clus>
<clus scale="   43.312">  2  3  1 -1</clus>
</clustering>
</event>
<event>
 6    0  0.3082502E+002  0.1258869E+03  0.7546771E-02  0.1233690E+00
          1   -1    0    0  502    0 -0.00000000000E+00  0.00000000000E+00  0.49111497368E+03  0.49111497368E+03  0.00000000000E+00 0.  1.
         21   -1    0    0  504  502  0.00000000000E+00 -0.00000000000E+00 -0.16246736712E+04  0.16246736712E+04  0.00000000000E+00 0. -1.
         21    1    1    2  503  505 -0.29450052508E+02  0.17583942793E+02 -0.29233142525E+03  0.29433681867E+03  0.00000000000E+00 0. -1.
         21    1    1    2  504  503 -0.26394893197E+02  0.17580040129E+02 -0.12922477554E+04  0.12926368436E+04  0.00000000000E+00 0. -1.
         21    1    1    2  505  501 -0.30981581035E+02  0.81999816607E+02  0.47387769816E+02  0.99646520336E+02  0.00000000000E+00 0.  1.
          1    1    1    2  501    0  0.86826526739E+02 -0.11716379953E+03  0.40363271334E+03  0.42916846220E+03  0.00000000000E+00 0.  1.
<scales pt_clust_3="62.28197" pt_clust_4="31.71353" pt_clust_5="125.88694" pt_clust_6="14000.00000"></scales>
<clustering>
<clus scale="   31.714">  2  4  1 -1</clus>
<clus scale="   62.282">  2  3  1 -1</clus>
<clus scale="  125.887">  2  5  1 -1</clus>
<clus scale="   31.714">  2  3  1 -1</clus>
</clustering>
</event>
<event>
 6    0  0.3082502E+002  0.1528779E+03  0.7546771E-02  0.1196981E+00
          1   -1    0    0  503    0 -0.00000000000E+00  0.00000000000E+00  0.13883891089E+04  0.13883891089E+04  0.00000000000E+00 0. -1.
         21   -1    0    0  504  502  0.00000000000E+00 -0.00000000000E+00 -0.28112839756E+03  0.28112839756E+03  0.00000000000E+00 0.  1.
         21    1    1    2  503  505  0.35994500810E+02 -0.12143261944E+02  0.15703739605E+03  0.16156672509E+03  0.00000000000E+00 0.  1.
         21    1    1    2  504  501 -0.13828309277E+03 -0.16048818065E+02 -0.22708275040E+03  0.26635756764E+03  0.00000000000E+00 0.  1.
         21    1    1    2  505  502 -0.88432784983E+01 -0.29706150452E+02 -0.20557998461E+02  0.37192610153E+02  0.00000000000E+00 0. -1.
          1    1    1    2  501    0  0.11113187046E+03  0.57898230461E+02  0.11978640641E+04  0.12044006035E+04  0.00000000000E+00 0. -1.
<scales pt_clust_3="37.99871" pt_clust_4="152.87787" pt_clust_5="30.99450" pt_clust_6="14000.00000"></scales>
<clustering>
<clus scale="   30.994">  2  5  1 -1</clus>
<clus scale="   37.999">  1  3  2 -1</clus>
<clus scale="  152.878">  2  4  1 -1</clus>
<clus scale="   30.994">  2  3  1 -1</clus>
</clustering>
</event>
<event>
 6    0  0.3082502E+002  0.9474683E+02  0.7546771E-02  0.1291747E+00
          1   -1    0    0  504    0 -0.00000000000E+00  0.00000000000E+00  0.19791423098E+04  0.19791423098E+04  0.00000000000E+00 0.  1.
         21   -1    0    0  501  502  0.00000000000E+00 -0.00000000000E+00 -0.25238735107E+02  0.25238735107E+02  0.00000000000E+00 0.  1.
         21    1    1    2  503  502 -0.51545600912E+02 -0.35396908993E+02  0.65439496332E+02  0.90510871280E+02  0.00000000000E+00 0.  1.
         21    1    1    2  504  505 -0.47196627731E+02 -0.57876945764E+02  0.57976661730E+03  0.58455674922E+03  0.00000000000E+00 0.  1.
         21    1    1    2  505  503  0.10672993607E+03 -0.28394279420E+02  0.67831708241E+03  0.68724928421E+03  0.00000000000E+00 0.  1.
          1    1    1    2  501    0 -0.79877074252E+01  0.12166813418E+03  0.63038037861E+03  0.64206414016E+03  0.00000000000E+00 0.  1.
<scales pt_clust_3="62.52911" pt_clust_4="86.05893" pt_clust_5="14000.00000" pt_clust_6="94.74683"></scales>
<clustering>
<clus scale="   62.529">  2  3  1 -1</clus>
<clus scale="   86.059">  1  4  2 -1</clus>
<clus scale="   94.747">  2  6  1 -1</clus>
<clus scale="   62.529">  2  3  1 -1</clus>
</clustering>
</event>
<event>
 6    0  0.3082502E+002  0.1017559E+03  0.7546771E-02  0.1276646E+00
          2   -1    0    0  505    0 -0.00000000000E+00  0.00000000000E+00  0.15195181713E+03  0.15195181713E+03  0.00000000000E+00 0. -1.
         21   -1    0    0  503  502  0.00000000000E+00 -0.00000000000E+00 -0.31047330276E+03  0.31047330276E+03  0.00000000000E+00 0.  1.
         21    1    1    2  503  501 -0.41259193210E+02 -0.95499851174E+02 -0.22600958184E+03  0.24880288118E+03  0.00000000000E+00 0.  1.
         21    1    1    2  504  502  0.46360810987E+02  0.42267407008E+02 -0.96918026170E+01  0.63480623252E+02  0.00000000000E+00 0.  1.
         21    1    1    2  505  504 -0.22245263532E+02 -0.29578878108E+02  0.21246314777E+01  0.37071226560E+02  0.00000000000E+00 0.  1.
          2    1    1    2  501    0  0.17143645755E+02  0.82811322274E+02  0.75055267354E+02  0.11307038889E+03  0.00000000000E+00 0. -1.
<scales pt_clust_3="101.75591" pt_clust_4="55.36424" pt_clust_5="37.01029" pt_clust_6="14000.00000"></scales>
<clustering>
<clus scale="   37.010">  1  5  2 -1</clus>
<clus scale="   55.364">  1  4  2 -1</clus>
<clus scale="  101.756">  2  3  1 -1</clus>
<clus scale="  101.756">  2  3  1 -1</clus>
</clustering>
</event>
<event>
 6    0  0.3082502E+002  0.1075345E+03  0.7546771E-02  0.1265205E+00
         -1   -1    0    0    0  501 -0.00000000000E+00  0.00000000000E+00  0.10317834075E+04  0.10317834075E+04  0.00000000000E+00 0. -1.
         21   -1    0    0  504  502  0.00000000000E+00 -0.00000000000E+00 -0.57968427838E+02  0.57968427838E+02  0.00000000000E+00 0.  1.
         21    1    1    2  503  502 -0.52697218108E+02 -0.96560727666E+02  0.12611335582E+02  0.11072495974E+03  0.00000000000E+00 0.  1.
         21    1    1    2  504  505  0.21533450998E+02  0.43803242442E+02  0.13893517817E+03  0.14725962547E+03  0.00000000000E+00 0.  1.
         21    1    1    2  505  501  0.17049966228E+02 -0.33138460820E+02  0.20037250770E+03  0.20380873576E+03  0.00000000000E+00 0. -1.
         -1    1    1    2    0  503  0.14113800882E+02  0.85895946043E+02  0.62189595820E+03  0.62795851435E+03  0.00000000000E+00 0. -1.
<scales pt_clust_3="14000.00000" pt_clust_4="45.27321" pt_clust_5="37.26740" pt_clust_6="107.53451"></scales>
<clustering>
<clus scale="   37.267">  1  5  2 -1</clus>
<clus scale="   45.273">  1  4  2 -1</clus>
<clus scale="  107.535">  1  6  2 -1</clus>
<clus scale="  107.535">  2  3  1 -1</clus>
</clustering>
</event>
<event>
 6    0  0.3082502E+002  0.1676569E+03  0.7546771E-02  0.1180314E+00
         21   -1    0    0  503  502  0.00000000000E+00  0.00000000000E+00  0.60151583476E+03  0.60151583476E+03  0.00000000000E+00 0. -1.
          2   -1    0    0  505    0 -0.00000000000E+00 -0.00000000000E+00 -0.70701186773E+03  0.70701186773E+03  0.00000000000E+00 0.  1.
         21    1    1    2  503  501 -0.17770103709E+03 -0.42170686961E+02  0.53983774401E+03  0.56989544241E+03  0.00000000000E+00 0. -1.
         21    1    1    2  504  502  0.23921956020E+02 -0.26281912930E+02  0.20940523919E+02  0.41249296589E+02  0.00000000000E+00 0.  1.
         21    1    1    2  505  504  0.35135176765E+02 -0.10941169443E+02 -0.37246901311E+02  0.52359540605E+02  0.00000000000E+00 0. -1.
          2    1    1    2  501    0  0.11864390431E+03  0.79393769334E+02 -0.62902739959E+03  0.64502342289E+03  0.00000000000E+00 0.  1.
<scales pt_clust_3="167.65691" pt_clust_4="35.53870" pt_clust_5="37.20616" pt_clust_6="14000.00000"></scales>
<clustering>
<clus scale="   35.539">  1  4  2 -1</clus>
<clus scale="   37.206">  2  5  1 -1</clus>
<clus scale="  167.657">  1  3  2 -1</clus>
<clus scale="   35.539">  1  3  2 -1</clus>
</clustering>
</event>
<event>
 6    0  0.3082502E+002  0.1500399E+03  0.7546771E-02  0.1200424E+00
         21   -1    0    0  504  502  0.00000000000E+00  0.00000000000E+00  0.14247635164E+04  0.14247635164E+04  0.00000000000E+00 0. -1.
          1   -1    0    0  505    0 -0.00000000000E+00 -0.00000000000E+00 -0.84754367728E+03  0.84754367728E+03  0.00000000000E+00 0. -1.
         21    1    1    2  503  501  0.43723787888E+02  0.11392161627E+03  0.62153775060E+03  0.63340277841E+03  0.00000000000E+00 0. -1.
         21    1    1    2  504  503 -0.44479764996E+02 -0.97177708573E+01  0.72733166479E+03  0.72875526425E+03  0.00000000000E+00 0. -1.
         21    1    1    2  505  502 -0.70467311860E+02  0.28734102025E+02  0.39054150803E+02  0.85536643346E+02  0.00000000000E+00 0. -1.
          1    1    1    2  501    0  0.71223288969E+02 -0.13293794744E+03 -0.81070372706E+03  0.82461250768E+03  0.00000000000E+00 0. -1.
<scales pt_clust_3="150.03992" pt_clust_4="45.52894" pt_clust_5="79.48856" pt_clust_6="14000.00000"></scales>
<clustering>
<clus scale="   45.529">  1  4  2 -1</clus>
<clus scale="   79.489">  1  5  2 -1</clus>
<clus scale="  150.040">  1  3  2 -1</clus>
<clus scale="   45.529">  1  3  2 -1</clus>
</clustering>
</event>
<event>
 6    0  0.3082502E+002  0.3534158E+03  0.7546771E-02  0.1061222E+00
         21   -1    0    0  504  502  0.00000000000E+00  0.00000000000E+00  0.21046178657E+03  0.21046178657E+03  0.00000000000E+00 0. -1.
          2   -1    0    0  505    0 -0.00000000000E+00 -0.00000000000E+00 -0.14699516202E+04  0.14699516202E+04  0.00000000000E+00 0.  1.
         21    1    1    2  503  501  0.12389789038E+02 -0.55040399548E+02 -0.12005762928E+03  0.13265288087E+03  0.00000000000E+00 0.  1.
         21    1    1    2  504  503  0.18407425789E+01  0.68239278300E+02  0.17237938942E+02  0.70406917097E+02  0.00000000000E+00 0. -1.
         21    1    1    2  505  502 -0.26430847341E+03  0.14372605383E+03 -0.18402895070E+02  0.30142132342E+03  0.00000000000E+00 0. -1.
          2    1    1    2  501    0  0.25007794180E+03 -0.15692493258E+03 -0.11382672482E+04  0.11759322854E+04  0.00000000000E+00 0.  1.
<scales pt_clust_3="53.88570" pt_clust_4="68.26410" pt_clust_5="331.22152" pt_clust_6="53.88570"></scales>
<clustering>
<clus scale="   53.886">  3  6 -1 -1</clus>
<clus scale="   68.264">  1  4  2 -1</clus>
<clus scale="  331.222">  1  5  2 -1</clus>
<clus scale="   68.264">  1  3  2 -1</clus>
</clustering>
</event>
<event>
 6    0  0.3082502E+002  0.9842348E+02  0.7546771E-02  0.1283647E+00
         21   -1    0    0  505  502  0.00000000000E+00  0.00000000000E+00  0.10998721717E+04  0.10998721717E+04  0.00000000000E+00 0. -1.
          2   -1    0    0  504    0 -0.00000000000E+00 -0.00000000000E+00 -0.14639827741E+04  0.14639827741E+04  0.00000000000E+00 0. -1.
         21    1    1    2  503  502  0.13755122057E+02 -0.39833112172E+02  0.93415992875E+03  0.93510996823E+03  0.00000000000E+00 0. -1.
         21    1    1    2  504  503 -0.93582237245E+02 -0.30937606719E+01 -0.52786527947E+03  0.53610536255E+03  0.00000000000E+00 0. -1.
         21    1    1    2  505  501  0.16769552207E+01 -0.59741346073E+02  0.15092027191E+03  0.16232303929E+03  0.00000000000E+00 0. -1.
          2    1    1    2  501    0  0.78150159967E+02  0.10266821892E+03 -0.92132552363E+03  0.93031657578E+03  0.00000000000E+00 0. -1.
<scales pt_clust_3="42.14119" pt_clust_4="93.32879" pt_clust_5="98.42348" pt_clust_6="14000.00000"></scales>
<clustering>
<clus scale="   42.141">  1  3  2 -1</clus>
<clus scale="   93.329">  2  4  1 -1</clus>
<clus scale="   98.423">  1  5  2 -1</clus>
<clus scale="   42.141">  1  3  2 -1</clus>
</clustering>
</event>
<event>
 6    0  0.3082502E+002  0.1669881E+03  0.7546771E-02  0.1181026E+00
          2   -1    0    0  503    0 -0.00000000000E+00  0.00000000000E+00  0.11791870287E+04  0.11791870287E+04  0.00000000000E+00 0. -1.
         21   -1    0    0  504  502  0.00000000000E+00 -0.00000000000E+00 -0.51030917373E+02  0.51030917373E+02  0.00000000000E+00 0. -1.
         21    1    1    2  503  502  0.10229520509E+03  0.10922118913E+03  0.15827314713E+03  0.21781635899E+03  0.00000000000E+00 0. -1.
         21    1    1    2  504  505 -0.35321511571E+02  0.36118919459E+02  0.33352422954E+02  0.60535688973E+02  0.00000000000E+00 0. -1.
         21    1    1    2  505  501 -0.14282080032E+02 -0.43703099749E+02  0.14543708729E+03  0.15253158721E+03  0.00000000000E+00 0. -1.
          2    1    1    2  501    0 -0.52691613489E+02 -0.10163700884E+03  0.79109345394E+03  0.79933431089E+03  0.00000000000E+00 0. -1.
<scales pt_clust_3="156.63653" pt_clust_4="50.51916" pt_clust_5="36.67960" pt_clust_6="36.67960"></scales>
<clustering>
<clus scale="   36.680">  5  6 -1 -1</clus>
<clus scale="   50.519">  2  4  1 -1</clus>
<clus scale="  156.637">  2  3  1 -1</clus>
<clus scale="   50.519">  2  3  1 -1</clus>
</clustering>
</event>
<event>
 6    0  0.3082502E+002  0.1517303E+03  0.7546771E-02  0.1198363E+00
         21   -1    0    0  503  502  0.00000000000E+00  0.00000000000E+00  0.11016246465E+04  0.11016246465E+04  0.00000000000E+00 0.  1.
         -1   -1    0    0    0  501 -0.00000000000E+00 -0.00000000000E+00 -0.86189760755E+02  0.86189760755E+02  0.00000000000E+00 0. -1.
         21    1    1    2  503  505 -0.16817019786E+01  0.75489474192E+02  0.63512557014E+03  0.63959829478E+03  0.00000000000E+00 0.  1.
         21    1    1    2  504  501 -0.10421127079E+02 -0.31314464554E+02  0.15799519436E+01  0.33040760101E+02  0.00000000000E+00 0. -1.
         21    1    1    2  505  504 -0.81861908559E+02 -0.16541910152E+03  0.27040450889E+03  0.32738883556E+03  0.00000000000E+00 0.  1.
         -1    1    1    2    0  502  0.93964737617E+02  0.12124409189E+03  0.10832485475E+03  0.18778651679E+03  0.00000000000E+00 0. -1.
<scales pt_clust_3="74.52274" pt_clust_4="33.00296" pt_clust_5="151.73030" pt_clust_6="14000.00000"></scales>
<clustering>
<clus scale="   33.003">  2  4  1 -1</clus>
<clus scale="   74.523">  1  3  2 -1</clus>
<clus scale="  151.730">  1  5  2 -1</clus>
<clus scale="   74.523">  1  3  2 -1</clus>
</clustering>
</event>
<event>
 6    0  0.3082502E+002  0.1143763E+03  0.7546771E-02  0.1252674E+00
          2   -1    0    0  504    0 -0.00000000000E+00  0.00000000000E+00  0.11045599194E+04  0.11045599194E+04  0.00000000000E+00 0. -1.
         21   -1    0    0  505  502  0.00000000000E+00 -0.00000000000E+00 -0.46988748386E+02  0.46988748386E+02  0.00000000000E+00 0. -1.
         21    1    1    2  503  502  0.69407034400E+02  0.92564163309E+01  0.22582067386E+03  0.23642756694E+03  0.00000000000E+00 0. -1.
         21    1    1    2  504  503 -0.19770077195E+02 -0.34545259232E+02  0.39623068372E+03  0.39822479281E+03  0.00000000000E+00 0.  1.
         21    1    1    2  505  501 -0.72662013382E+02 -0.90765700535E+02  0.77240075555E+02  0.13958585120E+03  0.00000000000E+00 0. -1.
          2    1    1    2  501    0  0.23025056177E+02  0.11605454344E+03  0.35827973786E+03  0.37731045682E+03  0.00000000000E+00 0. -1.
<scales pt_clust_3="62.97984" pt_clust_4="39.80240" pt_clust_5="14000.00000" pt_clust_6="114.37629"></scales>
<clustering>
<clus scale="   39.802">  1  4  2 -1</clus>
<clus scale="   62.980">  1  3  2 -1</clus>
<clus scale="  114.376">  1  6  2 -1</clus>
<clus scale="  114.376">  2  3  1 -1</clus>
</clustering>
</event>
<event>
 6    0  0.3082502E+002  0.1435410E+03  0.7546771E-02  0.1208642E+00
         21   -1    0    0  503  502  0.00000000000E+00  0.00000000000E+00  0.32772666368E+03  0.32772666368E+03  0.00000000000E+00 0.  1.
          2   -1    0    0  504    0 -0.00000000000E+00 -0.00000000000E+00 -0.25174506033E+04  0.25174506033E+04  0.00000000000E+00 0.  1.
         21    1    1    2  503  501 -0.34592122308E+02  0.42775979129E+02  0.13050952486E+02  0.56539602732E+02  0.00000000000E+00 0. -1.
         21    1    1    2  504  505 -0.19467930023E+02 -0.91098512732E+02 -0.20112159491E+03  0.22164799855E+03  0.00000000000E+00 0. -1.
         21    1    1    2  505  502  0.71708855069E+02  0.10813324844E+03  0.26732786130E+03  0.29715172007E+03  0.00000000000E+00 0.  1.
          2    1    1    2  501    0 -0.17648802737E+02 -0.59810714835E+02 -0.22689811585E+04  0.22698379456E+04  0.00000000000E+00 0.  1.
<scales pt_clust_3="55.01272" pt_clust_4="143.54100" pt_clust_5="14000.00000" pt_clust_6="62.31461"></scales>
<clustering>
<clus scale="   55.013">  1  3  2 -1</clus>
<clus scale="   62.315">  2  6  1 -1</clus>
<clus scale="  143.541">  2  4  1 -1</clus>
<clus scale="   55.013">  1  3  2 -1</clus>
</clustering>
</event>
<event>
 6    0  0.3082502E+002  0.3274307E+03  0.7546771E-02  0.1072279E+00
         21   -1    0    0  501  502  0.00000000000E+00  0.00000000000E+00  0.21791715692E+03  0.21791715692E+03  0.00000000000E+00 0.  1.
          2   -1    0    0  503    0 -0.00000000000E+00 -0.00000000000E+00 -0.17667457908E+04  0.17667457908E+04  0.00000000000E+00 0. -1.
         21    1    1    2  503  504 -0.58452280620E+02  0.10501567545E+02 -0.20667393737E+03  0.21503736517E+03  0.00000000000E+00 0.  1.
         21    1    1    2  504  505  0.58997349074E+02  0.29912195751E+02  0.47563650823E+02  0.81472250073E+02  0.00000000000E+00 0.  1.
         21    1    1    2  505  502  0.19236143171E+03  0.16697062839E+03  0.15004138749E+02  0.25516119481E+03  0.00000000000E+00 0.  1.
          2    1    1    2  501    0 -0.19290650016E+03 -0.20738439169E+03 -0.14047224861E+04  0.14329921377E+04  0.00000000000E+00 0. -1.
<scales pt_clust_3="59.38815" pt_clust_4="44.02388" pt_clust_5="44.02388" pt_clust_6="315.82843"></scales>
<clustering>
<clus scale="   44.024">  4  5 -1 -1</clus>
<clus scale="   59.388">  2  3  1 -1</clus>
<clus scale="  315.828">  2  6  1 -1</clus>
<clus scale="  327.431">  1  3  2 -1</clus>
</clustering>
</event>
<event>
 6    0  0.3082502E+002  0.9440231E+02  0.7546771E-02  0.1292528E+00
          1   -1    0    0  503    0 -0.00000000000E+00  0.00000000000E+00  0.10077553121E+04  0.10077553121E+04  0.00000000000E+00 0.  1.
         21   -1    0    0  505  502  0.00000000000E+00 -0.00000000000E+00 -0.89110638092E+03  0.89110638092E+03  0.00000000000E+00 0.  1.
         21    1    1    2  503  504  0.11439247753E+03  0.98201489700E+01  0.57766321706E+01  0.11495844345E+03  0.00000000000E+00 0.  1.
         21    1    1    2  504  502 -0.80933448252E+02  0.21466748385E+02 -0.52882370568E+03  0.53541157628E+03  0.00000000000E+00 0.  1.
         21    1    1    2  505  501  0.47107581900E+02  0.17147743563E+02 -0.29997254508E+03  0.30413269667E+03  0.00000000000E+00 0.  1.
          1    1    1    2  501    0 -0.80566611176E+02 -0.48434640918E+02  0.93966854980E+03  0.94435897664E+03  0.00000000000E+00 0.  1.
<scales pt_clust_3="14000.00000" pt_clust_4="53.28022" pt_clust_5="50.13152" pt_clust_6="94.40231"></scales>
<clustering>
<clus scale="   50.132">  2  5  1 -1</clus>
<clus scale="   53.280">  2  4  1 -1</clus>
<clus scale="   94.402">  1  6  2 -1</clus>
<clus scale="   50.132">  2  3  1 -1</clus>
</clustering>
</event>
<event>
 6    0  0.3082502E+002  0.8986612E+02  0.7546771E-02  0.1303176E+00
          2   -1    0    0  505    0 -0.00000000000E+00  0.00000000000E+00  0.36170085581E+04  0.36170085581E+04  0.00000000000E+00 0.  1.
         21   -1    0    0  504  502  0.00000000000E+00 -0.00000000000E+00 -0.66464256557E+02  0.66464256557E+02  0.00000000000E+00 0. -1.
         21    1    1    2  503  502  0.41910104990E+02  0.75667686791E+02  0.77452703497E+01  0.86844947680E+02  0.00000000000E+00 0. -1.
         21    1    1    2  504  501 -0.72504779430E+02 -0.68517159174E+02  0.70841803785E+02  0.12235238169E+03  0.00000000000E+00 0. -1.
         21    1    1    2  505  503 -0.40166222261E+01 -0.52961694815E+02  0.25376138691E+04  0.25381696600E+04  0.00000000000E+00 0.  1.
          2    1    1    2  501    0  0.34611296666E+02  0.45811167197E+02  0.93434335829E+03  0.93610582525E+03  0.00000000000E+00 0.  1.
<scales pt_clust_3="14000.00000" pt_clust_4="89.86612" pt_clust_5="53.11379" pt_clust_6="31.13039"></scales>
<clustering>
<clus scale="   53.114">  1  5  2 -1</clus>
<clus scale="   31.130">  1  6  2 -1</clus>
<clus scale="   89.866">  1  4  2 -1</clus>
<clus scale="   89.866">  2  3  1 -1</clus>
</clustering>
</event>
<event>
 6    0  0.3082502E+002  0.6538492E+02  0.7546771E-02  0.1376529E+00
          4   -1    0    0  503    0 -0.00000000000E+00  0.00000000000E+00  0.82575085198E+02  0.82575085198E+02  0.00000000000E+00 0. -1.
         21   -1    0    0  501  502  0.00000000000E+00 -0.00000000000E+00 -0.31279752258E+03  0.31279752258E+03  0.00000000000E+00 0. -1.
         21    1    1    2  503  504  0.13088389393E+02 -0.33357413823E+02  0.11191851633E+02  0.37540385412E+02  0.00000000000E+00 0. -1.
         21    1    1    2  504  505  0.20696404148E+02 -0.69547268631E+02 -0.78319638821E+02  0.10676670616E+03  0.00000000000E+00 0. -1.
         21    1    1    2  505  502  0.32286898383E+02  0.49010586770E+02 -0.15461638469E+03  0.16538049413E+03  0.00000000000E+00 0. -1.
          4    1    1    2  501    0 -0.66071691924E+02  0.53894095683E+02 -0.84782655029E+01  0.85685022082E+02  0.00000000000E+00 0. -1.
<scales pt_clust_3="35.83327" pt_clust_4="14000.00000" pt_clust_5="56.84436" pt_clust_6="65.38492"></scales>
<clustering>
<clus scale="   35.833">  1  3  2 -1</clus>
<clus scale="   56.844">  2  5  1 -1</clus>
<clus scale="   65.385">  1  6  2 -1</clus>
<clus scale="   56.844">  2  3  1 -1</clus>
</clustering>
</event>
<event>
 6    0  0.3082502E+002  0.1150671E+03  0.7546771E-02  0.1251464E+00
          2   -1    0    0  504    0 -0.00000000000E+00  0.00000000000E+00  0.11294593207E+04  0.11294593207E+04  0.00000000000E+00 0. -1.
         21   -1    0    0  505  502  0.00000000000E+00 -0.00000000000E+00 -0.28238801269E+03  0.28238801269E+03  0.00000000000E+00 0. -1.
         21    1    1    2  503  502 -0.11914611851E+03 -0.83861664240E+02 -0.16316135336E+03  0.21874689373E+03  0.00000000000E+00 0. -1.
         21    1    1    2  504  503  0.50943940762E+02 -0.52482065980E+02  0.17547130026E+03  0.19010478575E+03  0.00000000000E+00 0. -1.
         21    1    1    2  505  501  0.74073106472E+02  0.48728568614E+02 -0.57984843519E+02  0.10594121285E+03  0.00000000000E+00 0. -1.
          2    1    1    2  501    0 -0.58709287227E+01  0.87615161606E+02  0.89274620459E+03  0.89705444102E+03  0.00000000000E+00 0. -1.
<scales pt_clust_3="115.06706" pt_clust_4="73.14132" pt_clust_5="14000.00000" pt_clust_6="56.85451"></scales>
<clustering>
<clus scale="   73.141">  1  4  2 -1</clus>
<clus scale="   56.855">  1  6  2 -1</clus>
<clus scale="  115.067">  1  3  2 -1</clus>
<clus scale="  115.067">  2  3  1 -1</clus>
</clustering>
</event>
<event>
 6    0  0.3082502E+002  0.9119395E+02  0.7546771E-02  0.1299986E+00
         21   -1    0    0  504  502  0.00000000000E+00  0.00000000000E+00  0.59719234651E+03  0.59719234651E+03  0.00000000000E+00 0. -1.
         -2   -1    0    0    0  501 -0.00000000000E+00 -0.00000000000E+00 -0.45241509531E+02  0.45241509531E+02  0.00000000000E+00 0.  1.
         21    1    1    2  503  501 -0.48639980711E+02 -0.54968909729E+02  0.10629540440E+03  0.12917484956E+03  0.00000000000E+00 0. -1.
         21    1    1    2  504  503 -0.18278085378E+02  0.35127420261E+02  0.18084452441E+03  0.18512905247E+03  0.00000000000E+00 0.  1.
         21    1    1    2  505  502 -0.46746027974E+02 -0.10005204667E+02  0.17160047920E+03  0.17813483577E+03  0.00000000000E+00 0. -1.
         -2    1    1    2    0  505  0.11366409406E+03  0.29846694135E+02  0.93210428959E+02  0.14999511824E+03  0.00000000000E+00 0.  1.
<scales pt_clust_3="14000.00000" pt_clust_4="39.59828" pt_clust_5="54.67589" pt_clust_6="91.19395"></scales>
<clustering>
<clus scale="   39.598">  1  4  2 -1</clus>
<clus scale="   54.676">  1  5  2 -1</clus>
<clus scale="   91.194">  1  6  2 -1</clus>
<clus scale="   39.598">  1  3  2 -1</clus>
</clustering>
</event>
<event>
 6    0  0.3082502E+002  0.8109369E+02  0.7546771E-02  0.1325976E+00
          2   -1    0    0  503    0 -0.00000000000E+00  0.00000000000E+00  0.38677748523E+03  0.38677748523E+03  0.00000000000E+00 0. -1.
         21   -1    0    0  505  502  0.00000000000E+00 -0.00000000000E+00 -0.11716697274E+03  0.11716697274E+03  0.00000000000E+00 0. -1.
         21    1    1    2  503  504 -0.35188969330E+02  0.40316517984E+02  0.12577860019E+03  0.13668921483E+03  0.00000000000E+00 0. -1.
         21    1    1    2  504  502  0.22021184851E+02 -0.47324211837E+02 -0.50354313352E+01  0.52439195045E+02  0.00000000000E+00 0. -1.
         21    1    1    2  505  501 -0.91059549256E+02  0.41972281268E+02 -0.30180866504E+02  0.10471102429E+03  0.00000000000E+00 0. -1.
          2    1    1    2  501    0  0.10422733374E+03 -0.34964587415E+02  0.17904821014E+03  0.21010502380E+03  0.00000000000E+00 0. -1.
<scales pt_clust_3="50.42855" pt_clust_4="52.19687" pt_clust_5="14000.00000" pt_clust_6="81.09369"></scales>
<clustering>
<clus scale="   52.197">  2  4  1 -1</clus>
<clus scale="   50.429">  1  3  2 -1</clus>
<clus scale="   81.094">  1  6  2 -1</clus>
<clus scale="   52.197">  2  3  1 -1</clus>
</clustering>
</event>
<event>
 6    0  0.3082502E+002  0.1445805E+03  0.7546771E-02  0.1207295E+00
          2   -1    0    0  504    0 -0.00000000000E+00  0.00000000000E+00  0.92525626890E+03  0.92525626890E+03  0.00000000000E+00 0. -1.
         21   -1    0    0  505  502  0.00000000000E+00 -0.00000000000E+00 -0.28220977094E+04  0.28220977094E+04  0.00000000000E+00 0.  1.
         21    1    1    2  503  501 -0.41539480045E+02  0.18747741745E+03 -0.28266897836E+03  0.34172366290E+03  0.00000000000E+00 0. -1.
         21    1    1    2  504  502  0.18931731793E+02 -0.56227027818E+02  0.22155548640E+03  0.22936155449E+03  0.00000000000E+00 0. -1.
         21    1    1    2  505  503  0.81661707595E+02 -0.11648260173E+03 -0.25025921447E+04  0.25066320579E+04  0.00000000000E+00 0.  1.
          2    1    1    2  501    0 -0.59053959343E+02 -0.14767787901E+02  0.66686419624E+03  0.66963670292E+03  0.00000000000E+00 0. -1.
<scales pt_clust_3="144.58050" pt_clust_4="59.32865" pt_clust_5="14000.00000" pt_clust_6="79.78588"></scales>
<clustering>
<clus scale="   59.329">  1  4  2 -1</clus>
<clus scale="   79.786">  1  6  2 -1</clus>
<clus scale="  144.580">  1  3  2 -1</clus>
<clus scale="  144.580">  2  3  1 -1</clus>
</clustering>
</event>
<event>
 6    0  0.3082502E+002  0.1197238E+03  0.7546771E-02  0.1243553E+00
         -2   -1    0    0    0  501 -0.00000000000E+00  0.00000000000E+00  0.14438433196E+03  0.14438433196E+03  0.00000000000E+00 0.  1.
         21   -1    0    0  503  502  0.00000000000E+00 -0.00000000000E+00 -0.93182477934E+03  0.93182477934E+03  0.00000000000E+00 0.  1.
         21    1    1    2  503  501  0.95716192387E+02 -0.12638708281E+03 -0.64681073116E+03  0.66595751076E+03  0.00000000000E+00 0.  1.
         21    1    1    2  504  505 -0.12611030577E+02  0.38098462591E+02  0.66466628333E+02  0.77642408682E+02  0.00000000000E+00 0.  1.
         21    1    1    2  505  502 -0.48528401017E+02  0.26742955599E+02 -0.24589210308E+03  0.25205776666E+03  0.00000000000E+00 0. -1.
         -2    1    1    2    0  504 -0.34576760793E+02  0.61545664622E+02  0.38795758527E+02  0.80551425191E+02  0.00000000000E+00 0.  1.
<scales pt_clust_3="112.00143" pt_clust_4="31.89508" pt_clust_5="55.40931" pt_clust_6="31.89508"></scales>
<clustering>
<clus scale="   31.895">  4  6 -1 -1</clus>
<clus scale="   55.409">  2  5  1 -1</clus>
<clus scale="  112.001">  2  3  1 -1</clus>
<clus scale="   55.409">  2  3  1 -1</clus>
</clustering>
</event>
<event>
 6    0  0.3082502E+002  0.6550424E+03  0.7546771E-02  0.9797363E-01
         21   -1    0    0  503  502  0.00000000000E+00  0.00000000000E+00  0.40782097757E+03  0.40782097757E+03  0.00000000000E+00 0.  1.
          2   -1    0    0  504    0 -0.00000000000E+00 -0.00000000000E+00 -0.22826357637E+04  0.22826357637E+04  0.00000000000E+00 0. -1.
         21    1    1    2  503  505 -0.37057968229E+02 -0.61042144350E+03  0.72518123051E+02  0.61582993583E+03  0.00000000000E+00 0.  1.
         21    1    1    2  504  502 -0.92477704334E+01 -0.32072166502E+02 -0.10164261108E+03  0.10698301505E+03  0.00000000000E+00 0.  1.
         21    1    1    2  505  501  0.11299971025E+03  0.48826960205E+03 -0.12000763183E+04  0.13005227059E+04  0.00000000000E+00 0. -1.
          2    1    1    2  501    0 -0.66693971592E+02  0.15422400795E+03 -0.64561397970E+03  0.66712108441E+03  0.00000000000E+00 0. -1.
<scales pt_clust_3="615.60817" pt_clust_4="33.37881" pt_clust_5="129.12068" pt_clust_6="129.12068"></scales>
<clustering>
<clus scale="   33.379">  2  4  1 -1</clus>
<clus scale="  129.121">  5  6 -1 -1</clus>
<clus scale="  615.608">  1  3  2 -1</clus>
<clus scale="  615.608">  1  3  2 -1</clus>
</clustering>
</event>
<event>
 6    0  0.3082502E+002  0.1416413E+03  0.7546771E-02  0.1211137E+00
         21   -1    0    0  504  502  0.00000000000E+00  0.00000000000E+00  0.16299925394E+03  0.16299925394E+03  0.00000000000E+00 0.  1.
         -3   -1    0    0    0  501 -0.00000000000E+00 -0.00000000000E+00 -0.48330186997E+03  0.48330186997E+03  0.00000000000E+00 0.  1.
         21    1    1    2  503  501  0.12124017234E+02 -0.15609130190E+03 -0.23490704188E+03  0.28229914035E+03  0.00000000000E+00 0.  1.
         21    1    1    2  504  503  0.91221424592E+02  0.11315267396E+03  0.76319466972E+02  0.16416314132E+03  0.00000000000E+00 0.  1.
         21    1    1    2  505  502 -0.57278734489E+02  0.23120301752E+02 -0.58446013136E+02  0.85037275528E+02  0.00000000000E+00 0. -1.
         -3    1    1    2    0  505 -0.46066707338E+02  0.19818326184E+02 -0.10326902798E+03  0.11480156671E+03  0.00000000000E+00 0.  1.
<scales pt_clust_3="141.64130" pt_clust_4="14000.00000" pt_clust_5="31.98134" pt_clust_6="117.40446"></scales>
<clustering>
<clus scale="   31.981">  5  6 -1 -1</clus>
<clus scale="  117.404">  2  5  1 -1</clus>
<clus scale="  141.641">  2  3  1 -1</clus>
<clus scale="  141.641">  1  3  2 -1</clus>
</clustering>
</event>
<event>
 6    0  0.3082502E+002  0.6804677E+02  0.7546771E-02  0.1366864E+00
         -1   -1    0    0    0  501 -0.00000000000E+00  0.00000000000E+00  0.61569139510E+03  0.61569139510E+03  0.00000000000E+00 0. -1.
         21   -1    0    0  504  502  0.00000000000E+00 -0.00000000000E+00 -0.31310295361E+03  0.31310295361E+03  0.00000000000E+00 0.  1.
         21    1    1    2  503  501  0.25684809731E+02  0.49331437246E+02  0.64131569868E+02  0.84889094738E+02  0.00000000000E+00 0.  1.
         21    1    1    2  504  503 -0.15015534183E+02  0.55857559390E+02  0.11390258136E+01  0.57851798482E+02  0.00000000000E+00 0.  1.
         21    1    1    2  505  502  0.74750854173E+02 -0.28417309455E+02 -0.26187800291E+03  0.27381621954E+03  0.00000000000E+00 0.  1.
         -1    1    1    2    0  505 -0.85420129721E+02 -0.76771687181E+02  0.49919584872E+03  0.51223723595E+03  0.00000000000E+00 0. -1.
<scales pt_clust_3="55.61744" pt_clust_4="60.10862" pt_clust_5="14000.00000" pt_clust_6="68.04677"></scales>
<clustering>
<clus scale="   55.617">  1  3  2 -1</clus>
<clus scale="   60.109">  2  4  1 -1</clus>
<clus scale="   68.047">  1  6  2 -1</clus>
<clus scale="   60.109">  2  3  1 -1</clus>
</clustering>
</event>
<event>
 6    0  0.3082502E+002  0.1208989E+03  0.7546771E-02  0.1241621E+00
          2   -1    0    0  503    0 -0.00000000000E+00  0.00000000000E+00  0.60058124802E+03  0.60058124802E+03  0.00000000000E+00 0. -1.
         21   -1    0    0  505  502  0.00000000000E+00 -0.00000000000E+00 -0.31616849372E+03  0.31616849372E+03  0.00000000000E+00 0. -1.
         21    1    1    2  503  502  0.32766012871E+02 -0.14737257719E+02  0.27775608018E+02  0.45412363573E+02  0.00000000000E+00 0.  1.
         21    1    1    2  504  501 -0.65568649285E+02 -0.60098995657E+02  0.14368207349E+03  0.16898424569E+03  0.00000000000E+00 0. -1.
         21    1    1    2  505  504  0.64087053426E+02  0.10598336406E+03 -0.28039657358E+03  0.30653199238E+03  0.00000000000E+00 0. -1.
          2    1    1    2  501    0 -0.31284417012E+02 -0.31147110682E+02  0.39335164637E+03  0.39582114010E+03  0.00000000000E+00 0. -1.
<scales pt_clust_3="35.92768" pt_clust_4="14000.00000" pt_clust_5="120.89891" pt_clust_6="42.29236"></scales>
<clustering>
<clus scale="   35.928">  1  3  2 -1</clus>
<clus scale="   42.292">  1  6  2 -1</clus>
<clus scale="  120.899">  2  5  1 -1</clus>
<clus scale="  120.899">  2  3  1 -1</clus>
</clustering>
</event>
<event>
 6    0  0.3082502E+002  0.1145749E+03  0.7546771E-02  0.1252325E+00
         -3   -1    0    0    0  501 -0.00000000000E+00  0.00000000000E+00  0.78203998023E+02  0.78203998023E+02  0.00000000000E+00 0.  1.
         21   -1    0    0  504  502  0.00000000000E+00 -0.00000000000E+00 -0.14169641469E+04  0.14169641469E+04  0.00000000000E+00 0.  1.
         21    1    1    2  503  501 -0.37624994866E+02  0.23793567333E+01 -0.71713812543E+01  0.38376168207E+02  0.00000000000E+00 0.  1.
         21    1    1    2  504  503 -0.73906726503E+02 -0.97814871245E+02 -0.12050947587E+04  0.12113147117E+04  0.00000000000E+00 0.  1.
         21    1    1    2  505  502  0.73948037695E+02  0.48787212023E+02 -0.15546446198E+03  0.17893491351E+03  0.00000000000E+00 0.  1.
         -3    1    1    2    0  505  0.37583683674E+02  0.46648302488E+02  0.28970453024E+02  0.66542351566E+02  0.00000000000E+00 0.  1.
<scales pt_clust_3="37.70015" pt_clust_4="114.57493" pt_clust_5="14000.00000" pt_clust_6="49.27043"></scales>
<clustering>
<clus scale="   37.700">  1  3  2 -1</clus>
<clus scale="   49.270">  1  6  2 -1</clus>
<clus scale="  114.575">  2  4  1 -1</clus>
<clus scale="  114.575">  2  3  1 -1</clus>
</clustering>
</event>
<event>
 6    0  0.3082502E+002  0.1120251E+03  0.7546771E-02  0.1256865E+00
          2   -1    0    0  504    0 -0.00000000000E+00  0.00000000000E+00  0.11109305649E+03  0.11109305649E+03  0.00000000000E+00 0. -1.
         21   -1    0    0  505  502  0.00000000000E+00 -0.00000000000E+00 -0.49837324493E+03  0.49837324493E+03  0.00000000000E+00 0. -1.
         21    1    1    2  503  501  0.27896117157E+02 -0.85401802176E+02 -0.93383451299E+02  0.12958445178E+03  0.00000000000E+00 0. -1.
         21    1    1    2  504  502  0.66306471580E+02  0.14495855685E+03 -0.21583596304E+03  0.26831827057E+03  0.00000000000E+00 0. -1.
         21    1    1    2  505  503 -0.19880011212E+02 -0.26789089191E+02 -0.11687357747E+03  0.12154136438E+03  0.00000000000E+00 0. -1.
          2    1    1    2  501    0 -0.74322577525E+02 -0.32767665481E+02  0.38812803377E+02  0.90022214686E+02  0.00000000000E+00 0. -1.
<scales pt_clust_3="14000.00000" pt_clust_4="112.02509" pt_clust_5="33.35971" pt_clust_6="83.19104"></scales>
<clustering>
<clus scale="   33.360">  2  5  1 -1</clus>
<clus scale="   83.191">  1  6  2 -1</clus>
<clus scale="  112.025">  2  4  1 -1</clus>
<clus scale="   33.360">  2  3  1 -1</clus>
</clustering>
</event>
<event>
 6    0  0.3082502E+002  0.1585088E+03  0.7546771E-02  0.1190391E+00
         -2   -1    0    0    0  501 -0.00000000000E+00  0.00000000000E+00  0.24505695617E+04  0.24505695617E+04  0.00000000000E+00 0. -1.
         21   -1    0    0  504  502  0.00000000000E+00 -0.00000000000E+00 -0.21575903927E+02  0.21575903927E+02  0.00000000000E+00 0. -1.
         21    1    1    2  503  502  0.87066351955E+01 -0.45409229735E+02  0.44496892771E+02  0.64169908118E+02  0.00000000000E+00 0. -1.
         21    1    1    2  504  505  0.10518823969E+03 -0.15971597798E+01  0.48729115756E+03  0.49851759139E+03  0.00000000000E+00 0. -1.
         21    1    1    2  505  501  0.39098174493E+02  0.31983855049E+02  0.24731390802E+03  0.25241989489E+03  0.00000000000E+00 0.  1.
         -2    1    1    2    0  503 -0.15299304938E+03  0.15022534466E+02  0.16498916994E+04  0.16570380712E+04  0.00000000000E+00 0. -1.
<scales pt_clust_3="46.23639" pt_clust_4="34.78938" pt_clust_5="34.78938" pt_clust_6="150.34776"></scales>
<clustering>
<clus scale="   34.789">  4  5 -1 -1</clus>
<clus scale="   46.236">  2  3  1 -1</clus>
<clus scale="  150.348">  1  6  2 -1</clus>
<clus scale="   46.236">  2  3  1 -1</clus>
</clustering>
</event>
<event>
 6    0  0.3082502E+002  0.1074576E+03  0.7546771E-02  0.1265352E+00
         21   -1    0    0  505  502  0.00000000000E+00  0.00000000000E+00  0.92114499410E+02  0.92114499410E+02  0.00000000000E+00 0.  1.
          1   -1    0    0  503    0 -0.00000000000E+00 -0.00000000000E+00 -0.10947051788E+04  0.10947051788E+04  0.00000000000E+00 0.  1.
         21    1    1    2  503  502 -0.68472169216E+02  0.15449308042E+02 -0.50496403178E+03  0.50981937239E+03  0.00000000000E+00 0.  1.
         21    1    1    2  504  501  0.29883858994E+02 -0.87379637674E+02 -0.92114624244E+02  0.13043523338E+03  0.00000000000E+00 0.  1.
         21    1    1    2  505  504 -0.89551020599E+01  0.11463680321E+03  0.19627347666E+02  0.11664914607E+03  0.00000000000E+00 0.  1.
          1    1    1    2  501    0  0.47543412282E+02 -0.42706473577E+02 -0.42513937098E+03  0.42991592631E+03  0.00000000000E+00 0.  1.
<scales pt_clust_3="36.52757" pt_clust_4="14000.00000" pt_clust_5="107.45764" pt_clust_6="63.90789"></scales>
<clustering>
<clus scale="   63.908">  2  6  1 -1</clus>
<clus scale="   36.528">  2  3  1 -1</clus>
<clus scale="  107.458">  1  5  2 -1</clus>
<clus scale="  107.458">  1  3  2 -1</clus>
</clustering>
</event>
<event>
 6    0  0.3082502E+002  0.1065271E+03  0.7546771E-02  0.1267140E+00
         21   -1    0    0  505  502  0.00000000000E+00  0.00000000000E+00  0.15301161039E+03  0.15301161039E+03  0.00000000000E+00 0. -1.
          2   -1    0    0  504    0 -0.00000000000E+00 -0.00000000000E+00 -0.51487826878E+03  0.51487826878E+03  0.00000000000E+00 0.  1.
         21    1    1    2  503  502  0.68877670797E+02  0.98228679661E+02 -0.56673692470E+02  0.13268351239E+03  0.00000000000E+00 0. -1.
         21    1    1    2  504  503 -0.24912561381E+02 -0.71700300795E+02 -0.78730512562E+02  0.10936207047E+03  0.00000000000E+00 0. -1.
         21    1    1    2  505  501 -0.10862262216E+03  0.19153925709E+02  0.62127749471E+02  0.12659227531E+03  0.00000000000E+00 0. -1.
          2    1    1    2  501    0  0.64657512741E+02 -0.45682304575E+02 -0.28859020283E+03  0.29925202100E+03  0.00000000000E+00 0.  1.
<scales pt_clust_3="103.65069" pt_clust_4="75.90500" pt_clust_5="14000.00000" pt_clust_6="106.52711"></scales>
<clustering>
<clus scale="   75.905">  2  4  1 -1</clus>
<clus scale="  103.651">  2  3  1 -1</clus>
<clus scale="  106.527">  2  6  1 -1</clus>
<clus scale="  106.527">  1  3  2 -1</clus>
</clustering>
</event>
<event>
 6    0  0.3082502E+002  0.8707247E+02  0.7546771E-02  0.1310100E+00
          1   -1    0    0  505    0 -0.00000000000E+00  0.00000000000E+00  0.30090612472E+03  0.30090612472E+03  0.00000000000E+00 0.  1.
         21   -1    0    0  501  502  0.00000000000E+00 -0.00000000000E+00 -0.56312000525E+03  0.56312000525E+03  0.00000000000E+00 0.  1.
         21    1    1    2  503  502  0.10475830783E+02  0.35126037158E+02 -0.34429546845E+03  0.34624117478E+03  0.00000000000E+00 0.  1.
         21    1    1    2  504  503 -0.94267609526E+02 -0.99671072213E+01 -0.17637602064E+03  0.20023542665E+03  0.00000000000E+00 0.  1.
         21    1    1    2  505  504 -0.23689057282E+01 -0.62132995105E+02  0.26932665173E+02  0.67760528690E+02  0.00000000000E+00 0. -1.
          1    1    1    2  501    0  0.86160684471E+02  0.36974065169E+02  0.23152494337E+03  0.24978899985E+03  0.00000000000E+00 0.  1.
<scales pt_clust_3="36.65490" pt_clust_4="87.07247" pt_clust_5="58.85784" pt_clust_6="14000.00000"></scales>
<clustering>
<clus scale="   36.655">  2  3  1 -1</clus>
<clus scale="   58.858">  1  5  2 -1</clus>
<clus scale="   87.072">  2  4  1 -1</clus>
<clus scale="   36.655">  2  3  1 -1</clus>
</clustering>
</event>
<event>
 6    0  0.3082502E+002  0.1664860E+03  0.7546771E-02  0.1181563E+00
          2   -1    0    0  505    0 -0.00000000000E+00  0.00000000000E+00  0.10035087761E+04  0.10035087761E+04  0.00000000000E+00 0.  1.
         21   -1    0    0  503  502  0.00000000000E+00 -0.00000000000E+00 -0.38814023396E+03  0.38814023396E+03  0.00000000000E+00 0.  1.
         21    1    1    2  503  501  0.26920691427E+02  0.16322737125E+02 -0.11070294996E+02  0.33372246036E+02  0.00000000000E+00 0. -1.
         21    1    1    2  504  502  0.11062305183E+03  0.85531214275E+02 -0.30423708645E+03  0.33483317186E+03  0.00000000000E+00 0.  1.
         21    1    1    2  505  504 -0.93959603917E+02  0.86309203951E+02  0.78823996817E+02  0.14996969137E+03  0.00000000000E+00 0. -1.
          2    1    1    2  501    0 -0.43584139342E+02 -0.18816315535E+03  0.85185192677E+03  0.87347390080E+03  0.00000000000E+00 0.  1.
<scales pt_clust_3="31.48262" pt_clust_4="166.48604" pt_clust_5="126.76421" pt_clust_6="14000.00000"></scales>
<clustering>
<clus scale="   31.483">  2  3  1 -1</clus>
<clus scale="  126.764">  1  5  2 -1</clus>
<clus scale="  166.486">  2  4  1 -1</clus>
<clus scale="   31.483">  2  3  1 -1</clus>
</clustering>
</event>
<event>
 6    0  0.3082502E+002  0.9495035E+02  0.7546771E-02  0.1291288E+00
          3   -1    0    0  503    0 -0.00000000000E+00  0.00000000000E+00  0.78954372739E+02  0.78954372739E+02  0.00000000000E+00 0.  1.
         21   -1    0    0  504  502  0.00000000000E+00 -0.00000000000E+00 -0.12411432344E+04  0.12411432344E+04  0.00000000000E+00 0.  1.
         21    1    1    2  503  505 -0.14178312043E+02 -0.36640659380E+02 -0.45799959650E+02  0.60342346293E+02  0.00000000000E+00 0. -1.
         21    1    1    2  504  501 -0.74399239434E+02  0.74123845333E+02 -0.11532123761E+03  0.15597621332E+03  0.00000000000E+00 0.  1.
         21    1    1    2  505  502 -0.24019780134E+02 -0.90591155763E+02 -0.97125417308E+03  0.97576553335E+03  0.00000000000E+00 0.  1.
          3    1    1    2  501    0  0.11259733161E+03  0.53107969810E+02 -0.29813491285E+02  0.12801351415E+03  0.00000000000E+00 0.  1.
<scales pt_clust_3="39.28820" pt_clust_4="14000.00000" pt_clust_5="94.95035" pt_clust_6="93.55425"></scales>
<clustering>
<clus scale="   39.288">  1  3  2 -1</clus>
<clus scale="   94.950">  2  5  1 -1</clus>
<clus scale="   93.554">  1  6  2 -1</clus>
<clus scale="   94.950">  2  3  1 -1</clus>
</clustering>
</event>
<event>
 6    0  0.3082502E+002  0.1234383E+03  0.7546771E-02  0.1237530E+00
         21   -1    0    0  501  502  0.00000000000E+00  0.00000000000E+00  0.88894091479E+03  0.88894091479E+03  0.00000000000E+00 0.  1.
          2   -1    0    0  503    0 -0.00000000000E+00 -0.00000000000E+00 -0.14942828991E+04  0.14942828991E+04  0.00000000000E+00 0.  1.
         21    1    1    2  503  504 -0.11007230913E+02 -0.56813941862E+02 -0.36326424720E+03  0.36784493529E+03  0.00000000000E+00 0. -1.
         21    1    1    2  504  505  0.12643326519E+02  0.11422204734E+03  0.49842307900E+03  0.51149984896E+03  0.00000000000E+00 0.  1.
         21    1    1    2  505  502 -0.43543946586E+02  0.58736946590E+01  0.37913549280E+03  0.38167302430E+03  0.00000000000E+00 0.  1.
          2    1    1    2  501    0  0.41907850980E+02 -0.63281800135E+02 -0.11196363089E+04  0.11222060053E+04  0.00000000000E+00 0.  1.
<scales pt_clust_3="57.88207" pt_clust_4="123.43834" pt_clust_5="43.93832" pt_clust_6="14000.00000"></scales>
<clustering>
<clus scale="   43.938">  1  5  2 -1</clus>
<clus scale="   57.882">  2  3  1 -1</clus>
<clus scale="  123.438">  1  4  2 -1</clus>
<clus scale="   43.938">  1  3  2 -1</clus>
</clustering>
</event>
<event>
 6    0  0.3082502E+002  0.7475807E+02  0.7546771E-02  0.1344622E+00
         21   -1    0    0  501  502  0.00000000000E+00  0.00000000000E+00  0.22896908405E+03  0.22896908405E+03  0.00000000000E+00 0. -1.
          2   -1    0    0  504    0 -0.00000000000E+00 -0.00000000000E+00 -0.11272606438E+04  0.11272606438E+04  0.00000000000E+00 0.  1.
         21    1    1    2  503  502  0.17046130975E+02  0.71945108545E+02  0.20878739027E+03  0.22149231039E+03  0.00000000000E+00 0. -1.
         21    1    1    2  504  505  0.24279571217E+02 -0.25412743098E+02 -0.26002409231E+03  0.26238870721E+03  0.00000000000E+00 0.  1.
         21    1    1    2  505  503 -0.43399889928E+02 -0.10470502028E+03 -0.27645833009E+03  0.29879072943E+03  0.00000000000E+00 0.  1.
          2    1    1    2  501    0  0.20741877362E+01  0.58172654835E+02 -0.57059652763E+03  0.57355798082E+03  0.00000000000E+00 0.  1.
<scales pt_clust_3="14000.00000" pt_clust_4="35.14691" pt_clust_5="74.75807" pt_clust_6="45.17591"></scales>
<clustering>
<clus scale="   35.147">  2  4  1 -1</clus>
<clus scale="   45.176">  2  6  1 -1</clus>
<clus scale="   74.758">  2  5  1 -1</clus>
<clus scale="   74.758">  1  3  2 -1</clus>
</clustering>
</event>
<event>
 6    0  0.3082502E+002  0.1239523E+03  0.7546771E-02  0.1236716E+00
         21   -1    0    0  504  502  0.00000000000E+00  0.00000000000E+00  0.11210213417E+03  0.11210213417E+03  0.00000000000E+00 0. -1.
         -3   -1    0    0    0  501 -0.00000000000E+00 -0.00000000000E+00 -0.18188113051E+04  0.18188113051E+04  0.00000000000E+00 0. -1.
         21    1    1    2  503  505  0.45575532387E+02 -0.10309712523E+03  0.20030113445E+02  0.11448734352E+03  0.00000000000E+00 0. -1.
         21    1    1    2  504  503  0.40622133503E+02  0.10480879514E+02  0.28409627335E+02  0.50666690153E+02  0.00000000000E+00 0. -1.
         21    1    1    2  505  501 -0.31020328784E+02  0.99578725607E+01 -0.65160206123E+02  0.72851029408E+02  0.00000000000E+00 0. -1.
         -3    1    1    2    0  502 -0.55177337106E+02  0.82658373151E+02 -0.16899887056E+04  0.16929083762E+04  0.00000000000E+00 0. -1.
<scales pt_clust_3="14000.00000" pt_clust_4="41.77737" pt_clust_5="32.57944" pt_clust_6="123.95227"></scales>
<clustering>
<clus scale="   32.579">  2  5  1 -1</clus>
<clus scale="   41.777">  1  4  2 -1</clus>
<clus scale="  123.952">  2  6  1 -1</clus>
<clus scale="   41.777">  1  3  2 -1</clus>
</clustering>
</event>
<event>
 6    0  0.3082502E+002  0.1336710E+03  0.7546771E-02  0.1222108E+00
          2   -1    0    0  505    0 -0.00000000000E+00  0.00000000000E+00  0.23505030701E+04  0.23505030701E+04  0.00000000000E+00 0.  1.
         21   -1    0    0  504  502  0.00000000000E+00 -0.00000000000E+00 -0.11937178568E+03  0.11937178568E+03  0.00000000000E+00 0.  1.
         21    1    1    2  503  502 -0.19759392657E+02  0.22979912855E+02 -0.45274382308E+02  0.54481920729E+02  0.00000000000E+00 0.  1.
         21    1    1    2  504  501 -0.86575807731E+01  0.11196303363E+03 -0.12287057332E+02  0.11296745719E+03  0.00000000000E+00 0.  1.
         21    1    1    2  505  503  0.99690211761E+02 -0.18961902651E+02  0.62624381116E+03  0.63441232892E+03  0.00000000000E+00 0. -1.
          2    1    1    2  501    0 -0.71273238332E+02 -0.11598104384E+03  0.16624489129E+04  0.16680131489E+04  0.00000000000E+00 0.  1.
<scales pt_clust_3="30.30693" pt_clust_4="14000.00000" pt_clust_5="100.09049" pt_clust_6="133.67097"></scales>
<clustering>
<clus scale="   30.307">  2  3  1 -1</clus>
<clus scale="  100.090">  1  5  2 -1</clus>
<clus scale="  133.671">  1  6  2 -1</clus>
<clus scale="   30.307">  2  3  1 -1</clus>
</clustering>
</event>
<event>
 6    0  0.3082502E+002  0.1165787E+03  0.7546771E-02  0.1248850E+00
         21   -1    0    0  505  502  0.00000000000E+00  0.00000000000E+00  0.61563710352E+03  0.61563710352E+03  0.00000000000E+00 0.  1.
          2   -1    0    0  503    0 -0.00000000000E+00 -0.00000000000E+00 -0.18900179833E+04  0.18900179833E+04  0.00000000000E+00 0.  1.
         21    1    1    2  503  502 -0.60389343582E+02  0.81356691928E+02  0.56132873366E+03  0.57039962428E+03  0.00000000000E+00 0.  1.
         21    1    1    2  504  501 -0.46204695267E+02  0.35448728635E+02 -0.13576496170E+02  0.59798055777E+02  0.00000000000E+00 0. -1.
         21    1    1    2  505  504  0.21850129680E+02 -0.36668459045E+02  0.64403095748E+01  0.43168062768E+02  0.00000000000E+00 0. -1.
          2    1    1    2  501    0  0.84743909170E+02 -0.80136961518E+02 -0.18285734268E+04  0.18322893440E+04  0.00000000000E+00 0.  1.
<scales pt_clust_3="14000.00000" pt_clust_4="56.68866" pt_clust_5="42.68494" pt_clust_6="116.57873"></scales>
<clustering>
<clus scale="   42.685">  1  5  2 -1</clus>
<clus scale="   56.689">  1  4  2 -1</clus>
<clus scale="  116.579">  2  6  1 -1</clus>
<clus scale="   42.685">  1  3  2 -1</clus>
</clustering>
</event>
<event>
 6    0  0.3082502E+002  0.7139444E+02  0.7546771E-02  0.1355414E+00
         21   -1    0    0  501  502  0.00000000000E+00  0.00000000000E+00  0.92866933014E+02  0.92866933014E+02  0.00000000000E+00 0. -1.
          1   -1    0    0  504    0 -0.00000000000E+00 -0.00000000000E+00 -0.10738230266E+04  0.10738230266E+04  0.00000000000E+00 0.  1.
         21    1    1    2  503  502 -0.23324100567E+02 -0.33519854503E+02  0.49308390867E+02  0.64022743795E+02  0.00000000000E+00 0. -1.
         21    1    1    2  504  505 -0.38270033884E+02 -0.28803605561E+01 -0.44958926943E+03  0.45122433795E+03  0.00000000000E+00 0. -1.
         21    1    1    2  505  503 -0.35135465671E+02  0.69768025635E+02 -0.18826175990E+02  0.80352369295E+02  0.00000000000E+00 0. -1.
          1    1    1    2  501    0  0.96729600122E+02 -0.33367810576E+02 -0.56184903902E+03  0.57109050857E+03  0.00000000000E+00 0.  1.
<scales pt_clust_3="41.12355" pt_clust_4="38.37827" pt_clust_5="71.39444" pt_clust_6="14000.00000"></scales>
<clustering>
<clus scale="   38.378">  2  4  1 -1</clus>
<clus scale="   41.124">  1  3  2 -1</clus>
<clus scale="   71.394">  1  5  2 -1</clus>
<clus scale="   41.124">  1  3  2 -1</clus>
</clustering>
</event>
<event>
 6    0  0.3082502E+002  0.8244741E+02  0.7546771E-02  0.1322246E+00
          2   -1    0    0  505    0 -0.00000000000E+00  0.00000000000E+00  0.32652569303E+03  0.32652569303E+03  0.00000000000E+00 0.  1.
         21   -1    0    0  504  502  0.00000000000E+00 -0.00000000000E+00 -0.40875555018E+03  0.40875555018E+03  0.00000000000E+00 0. -1.
         21    1    1    2  503  501 -0.70952934676E+02  0.50149897172E+02 -0.31395389938E+03  0.32575509522E+03  0.00000000000E+00 0. -1.
         21    1    1    2  504  503  0.34982740641E+02  0.22715385259E+02 -0.64172451170E+02  0.76536817019E+02  0.00000000000E+00 0. -1.
         21    1    1    2  505  502 -0.33261091220E+02  0.17250904893E+02  0.53956822814E+02  0.65690430330E+02  0.00000000000E+00 0.  1.
          2    1    1    2  501    0  0.69231285255E+02 -0.90116187324E+02  0.24193967059E+03  0.26729890063E+03  0.00000000000E+00 0.  1.
<scales pt_clust_3="14000.00000" pt_clust_4="41.28873" pt_clust_5="37.46857" pt_clust_6="82.44741"></scales>
<clustering>
<clus scale="   37.469">  1  5  2 -1</clus>
<clus scale="   41.289">  2  4  1 -1</clus>
<clus scale="   82.447">  1  6  2 -1</clus>
<clus scale="   41.289">  2  3  1 -1</clus>
</clustering>
</event>
<event>
 6    0  0.3082502E+002  0.1218823E+03  0.7546771E-02  0.1240024E+00
         21   -1    0    0  504  502  0.00000000000E+00  0.00000000000E+00  0.10026423394E+04  0.10026423394E+04  0.00000000000E+00 0.  1.
          1   -1    0    0  503    0 -0.00000000000E+00 -0.00000000000E+00 -0.34442505658E+04  0.34442505658E+04  0.00000000000E+00 0.  1.
         21    1    1    2  503  505  0.58272713420E+02 -0.21903911733E+02  0.30557526633E+03  0.31185210256E+03  0.00000000000E+00 0.  1.
         21    1    1    2  504  501  0.50439148116E+02  0.14972237911E+03 -0.24287520113E+03  0.28973998998E+03  0.00000000000E+00 0. -1.
         21    1    1    2  505  502 -0.43346989881E+02 -0.26768818679E+02  0.66838598668E+03  0.67032481558E+03  0.00000000000E+00 0.  1.
          1    1    1    2  501    0 -0.65364871655E+02 -0.10104964870E+03 -0.31726942783E+04  0.31749759970E+04  0.00000000000E+00 0.  1.
<scales pt_clust_3="50.09190" pt_clust_4="121.88225" pt_clust_5="50.94636" pt_clust_6="14000.00000"></scales>
<clustering>
<clus scale="   50.946">  1  5  2 -1</clus>
<clus scale="   50.092">  1  3  2 -1</clus>
<clus scale="  121.882">  1  4  2 -1</clus>
<clus scale="   50.946">  1  3  2 -1</clus>
</clustering>
</event>
<event>
 6    0  0.3082502E+002  0.1022054E+03  0.7546771E-02  0.1275726E+00
         21   -1    0    0  504  502  0.00000000000E+00  0.00000000000E+00  0.14364236998E+03  0.14364236998E+03  0.00000000000E+00 0.  1.
          2   -1    0    0  503    0 -0.00000000000E+00 -0.00000000000E+00 -0.11600774056E+04  0.11600774056E+04  0.00000000000E+00 0. -1.
         21    1    1    2  503  502 -0.38986527061E+01 -0.61378264101E+02 -0.16653420318E+03  0.17752783339E+03  0.00000000000E+00 0. -1.
         21    1    1    2  504  505  0.25977484605E+02  0.16632057635E+02  0.76530092104E+02  0.82512484177E+02  0.00000000000E+00 0.  1.
         21    1    1    2  505  501 -0.73996539141E+02  0.76997128550E+02  0.81517389110E+01  0.10710040363E+03  0.00000000000E+00 0.  1.
          2    1    1    2  501    0  0.51917707242E+02 -0.32250922084E+02 -0.93458266347E+03  0.93657905441E+03  0.00000000000E+00 0. -1.
<scales pt_clust_3="59.97577" pt_clust_4="30.84566" pt_clust_5="102.20535" pt_clust_6="14000.00000"></scales>
<clustering>
<clus scale="   30.846">  1  4  2 -1</clus>
<clus scale="   59.976">  2  3  1 -1</clus>
<clus scale="  102.205">  1  5  2 -1</clus>
<clus scale="   30.846">  1  3  2 -1</clus>
</clustering>
</event>
<event>
 6    0  0.3082502E+002  0.8411447E+02  0.7546771E-02  0.1317765E+00
         21   -1    0    0  503  502  0.00000000000E+00  0.00000000000E+00  0.55276019928E+02  0.55276019928E+02  0.00000000000E+00 0.  1.
          1   -1    0    0  504    0 -0.00000000000E+00 -0.00000000000E+00 -0.72089162997E+03  0.72089162997E+03  0.00000000000E+00 0.  1.
         21    1    1    2  503  501 -0.23007811866E+02  0.25805960440E+02  0.95403977977E+00  0.34586372938E+02  0.00000000000E+00 0. -1.
         21    1    1    2  504  505  0.47765597455E+02 -0.12441055971E+02 -0.40638098919E+03  0.40936761052E+03  0.00000000000E+00 0.  1.
         21    1    1    2  505  502 -0.20852701949E+02 -0.96218711567E+02 -0.59440674227E+02  0.11500464941E+03  0.00000000000E+00 0.  1.
          1    1    1    2  501    0 -0.39050836401E+01  0.82853807098E+02 -0.20074798641E+03  0.21720901702E+03  0.00000000000E+00 0.  1.
<scales pt_clust_3="34.57321" pt_clust_4="48.21979" pt_clust_5="84.11447" pt_clust_6="14000.00000"></scales>
<clustering>
<clus scale="   34.573">  1  3  2 -1</clus>
<clus scale="   48.220">  2  4  1 -1</clus>
<clus scale="   84.114">  1  5  2 -1</clus>
<clus scale="   34.573">  1  3  2 -1</clus>
</clustering>
</event>
<event>
 6    0  0.3082502E+002  0.1825092E+03  0.7546771E-02  0.1165397E+00
         21   -1    0    0  503  502  0.00000000000E+00  0.00000000000E+00  0.14326316209E+03  0.14326316209E+03  0.00000000000E+00 0. -1.
          1   -1    0    0  504    0 -0.00000000000E+00 -0.00000000000E+00 -0.57036768091E+03  0.57036768091E+03  0.00000000000E+00 0. -1.
         21    1    1    2  503  501  0.18417687141E+03 -0.46626031291E+02  0.12864021217E+02  0.19042213578E+03  0.00000000000E+00 0. -1.
         21    1    1    2  504  505 -0.46912627635E+02  0.47376636044E+02 -0.14710057640E+03  0.16150516973E+03  0.00000000000E+00 0.  1.
         21    1    1    2  505  502  0.14488014161E+02  0.36685677682E+02 -0.13692929807E+02  0.41752099684E+02  0.00000000000E+00 0.  1.
          1    1    1    2  501    0 -0.15175225793E+03 -0.37436282435E+02 -0.27917503384E+03  0.31995143780E+03  0.00000000000E+00 0. -1.
<scales pt_clust_3="14000.00000" pt_clust_4="67.58802" pt_clust_5="39.44289" pt_clust_6="182.50919"></scales>
<clustering>
<clus scale="   39.443">  1  5  2 -1</clus>
<clus scale="   67.588">  2  4  1 -1</clus>
<clus scale="  182.509">  2  6  1 -1</clus>
<clus scale="   39.443">  1  3  2 -1</clus>
</clustering>
</event>
<event>
 6    0  0.3082502E+002  0.7050616E+02  0.7546771E-02  0.1358380E+00
         21   -1    0    0  503  502  0.00000000000E+00  0.00000000000E+00  0.55738770540E+03  0.55738770540E+03  0.00000000000E+00 0. -1.
          1   -1    0    0  505    0 -0.00000000000E+00 -0.00000000000E+00 -0.54374618195E+03  0.54374618195E+03  0.00000000000E+00 0. -1.
         21    1    1    2  503  501  0.10946505959E+02 -0.44178237706E+02  0.28994586033E+03  0.29349641327E+03  0.00000000000E+00 0. -1.
         21    1    1    2  504  502  0.45520178964E+02  0.84894167081E+02  0.24934470775E+03  0.26730486262E+03  0.00000000000E+00 0. -1.
         21    1    1    2  505  504  0.30362218862E+02 -0.10106144597E+02 -0.16823353339E+03  0.17124987664E+03  0.00000000000E+00 0.  1.
          1    1    1    2  501    0 -0.86828903785E+02 -0.30609784778E+02 -0.35741551124E+03  0.36908273481E+03  0.00000000000E+00 0. -1.
<scales pt_clust_3="45.59561" pt_clust_4="14000.00000" pt_clust_5="31.99998" pt_clust_6="70.50616"></scales>
<clustering>
<clus scale="   32.000">  2  5  1 -1</clus>
<clus scale="   45.596">  1  3  2 -1</clus>
<clus scale="   70.506">  2  6  1 -1</clus>
<clus scale="   45.596">  1  3  2 -1</clus>
</clustering>
</event>
<event>
 6    0  0.3082502E+002  0.1513498E+03  0.7546771E-02  0.1198824E+00
         21   -1    0    0  503  502  0.00000000000E+00  0.00000000000E+00  0.23715009759E+03  0.23715009759E+03  0.00000000000E+00 0.  1.
          1   -1    0    0  505    0 -0.00000000000E+00 -0.00000000000E+00 -0.29954800726E+04  0.29954800726E+04  0.00000000000E+00 0.  1.
         21    1    1    2  503  504 -0.13226484923E+02 -0.50887990401E+02  0.91651351660E+02  0.10566218686E+03  0.00000000000E+00 0.  1.
         21    1    1    2  504  501  0.13617076539E+03  0.43102291341E+02  0.93076676141E+02  0.17048035812E+03  0.00000000000E+00 0.  1.
         21    1    1    2  505  502  0.28529732349E+02  0.12789684917E+02 -0.46895287448E+02  0.56362129600E+02  0.00000000000E+00 0.  1.
          1    1    1    2  501    0 -0.15147401281E+03 -0.50039858569E+01 -0.28961627154E+04  0.29001254957E+04  0.00000000000E+00 0.  1.
<scales pt_clust_3="45.47269" pt_clust_4="14000.00000" pt_clust_5="31.26534" pt_clust_6="151.34979"></scales>
<clustering>
<clus scale="   31.265">  1  5  2 -1</clus>
<clus scale="   45.473">  1  3  2 -1</clus>
<clus scale="  151.350">  2  6  1 -1</clus>
<clus scale="   31.265">  1  3  2 -1</clus>
</clustering>
</event>
<event>
 6    0  0.3082502E+002  0.1344612E+03  0.7546771E-02  0.1220982E+00
         21   -1    0    0  503  502  0.00000000000E+00  0.00000000000E+00  0.11080104808E+03  0.11080104808E+03  0.00000000000E+00 0.  1.
          2   -1    0    0  504    0 -0.00000000000E+00 -0.00000000000E+00 -0.24743593897E+04  0.24743593897E+04  0.00000000000E+00 0.  1.
         21    1    1    2  503  501  0.14108626212E+03 -0.14737748767E+03 -0.76235595446E+02  0.21780110938E+03  0.00000000000E+00 0.  1.
         21    1    1    2  504  505 -0.53255765301E+01  0.44388106006E+02 -0.39045686881E+03  0.39300792883E+03  0.00000000000E+00 0.  1.
         21    1    1    2  505  502 -0.60844060885E+02  0.82179070247E+02 -0.30973729051E+02  0.10683993272E+03  0.00000000000E+00 0.  1.
          2    1    1    2  501    0 -0.74916624707E+02  0.20810311420E+02 -0.18658921483E+04  0.18675114668E+04  0.00000000000E+00 0.  1.
<scales pt_clust_3="134.46121" pt_clust_4="44.70644" pt_clust_5="14000.00000" pt_clust_6="100.11201"></scales>
<clustering>
<clus scale="   44.706">  2  4  1 -1</clus>
<clus scale="  100.112">  2  6  1 -1</clus>
<clus scale="  134.461">  2  3  1 -1</clus>
<clus scale="  134.461">  1  3  2 -1</clus>
</clustering>
</event>
<event>
 6    0  0.3082502E+002  0.9309874E+02  0.7546771E-02  0.1295517E+00
         21   -1    0    0  504  502  0.00000000000E+00  0.00000000000E+00  0.38009001610E+03  0.38009001610E+03  0.00000000000E+00 0. -1.
          1   -1    0    0  505    0 -0.00000000000E+00 -0.00000000000E+00 -0.17567106901E+03  0.17567106901E+03  0.00000000000E+00 0.  1.
         21    1    1    2  503  501 -0.35262863787E+01 -0.57575499474E+02 -0.18690488532E+02  0.60635857352E+02  0.00000000000E+00 0. -1.
         21    1    1    2  504  503 -0.14950588323E+01  0.13770801260E+03  0.78038331265E+02  0.15828996520E+03  0.00000000000E+00 0. -1.
         21    1    1    2  505  502 -0.14730917992E+02 -0.32713000559E+02  0.23259752182E+03  0.23534814107E+03  0.00000000000E+00 0. -1.
          1    1    1    2  501    0  0.19752263203E+02 -0.47419512569E+02 -0.87526417466E+02  0.10148712149E+03  0.00000000000E+00 0.  1.
<scales pt_clust_3="93.09874" pt_clust_4="14000.00000" pt_clust_5="35.87674" pt_clust_6="52.55579"></scales>
<clustering>
<clus scale="   35.877">  1  5  2 -1</clus>
<clus scale="   52.556">  2  6  1 -1</clus>
<clus scale="   93.099">  2  3  1 -1</clus>
<clus scale="   35.877">  1  3  2 -1</clus>
</clustering>
</event>
<event>
 6    0  0.3082502E+002  0.1686419E+03  0.7546771E-02  0.1179272E+00
          2   -1    0    0  503    0 -0.00000000000E+00  0.00000000000E+00  0.40256312731E+03  0.40256312731E+03  0.00000000000E+00 0. -1.
         21   -1    0    0  504  502  0.00000000000E+00 -0.00000000000E+00 -0.12078062956E+04  0.12078062956E+04  0.00000000000E+00 0. -1.
         21    1    1    2  503  505  0.41731908644E+02  0.31794576162E+02  0.16695718330E+02  0.55056282865E+02  0.00000000000E+00 0.  1.
         21    1    1    2  504  501  0.55034739533E+02  0.88538267449E+02 -0.10913851888E+03  0.15092734564E+03  0.00000000000E+00 0. -1.
         21    1    1    2  505  502 -0.12281748336E+03  0.67418817586E+02 -0.10275008998E+04  0.10370089345E+04  0.00000000000E+00 0. -1.
          2    1    1    2  501    0  0.26050835188E+02 -0.18775166120E+03  0.31470053206E+03  0.36737685988E+03  0.00000000000E+00 0. -1.
<scales pt_clust_3="52.46377" pt_clust_4="107.04828" pt_clust_5="168.64192" pt_clust_6="14000.00000"></scales>
<clustering>
<clus scale="   52.464">  1  3  2 -1</clus>
<clus scale="  107.048">  2  4  1 -1</clus>
<clus scale="  168.642">  2  5  1 -1</clus>
<clus scale="  107.048">  2  3  1 -1</clus>
</clustering>
</event>
<event>
 6    0  0.3082502E+002  0.1567416E+03  0.7546771E-02  0.1192425E+00
         21   -1    0    0  501  502  0.00000000000E+00  0.00000000000E+00  0.14361600715E+03  0.14361600715E+03  0.00000000000E+00 0.  1.
          2   -1    0    0  504    0 -0.00000000000E+00 -0.00000000000E+00 -0.90726729215E+03  0.90726729215E+03  0.00000000000E+00 0. -1.
         21    1    1    2  503  505  0.49569335174E+02  0.82451385859E+02  0.33961519744E+02  0.10202320737E+03  0.00000000000E+00 0.  1.
         21    1    1    2  504  503 -0.47564857813E+02  0.11906070628E+02 -0.21529787772E+03  0.22081065727E+03  0.00000000000E+00 0.  1.
         21    1    1    2  505  502  0.45722925223E+01  0.56890879174E+02  0.51213732918E+02  0.76683273479E+02  0.00000000000E+00 0.  1.
          2    1    1    2  501    0 -0.65767698830E+01 -0.15124833566E+03 -0.63352865995E+03  0.65136616117E+03  0.00000000000E+00 0. -1.
<scales pt_clust_3="37.20792" pt_clust_4="49.03234" pt_clust_5="37.20792" pt_clust_6="149.11175"></scales>
<clustering>
<clus scale="   37.208">  3  5 -1 -1</clus>
<clus scale="   49.032">  2  4  1 -1</clus>
<clus scale="  149.112">  2  6  1 -1</clus>
<clus scale="  156.742">  1  3  2 -1</clus>
</clustering>
</event>
<event>
 6    0  0.3082502E+002  0.1489616E+03  0.7546771E-02  0.1201755E+00
          2   -1    0    0  503    0 -0.00000000000E+00  0.00000000000E+00  0.32609124855E+04  0.32609124855E+04  0.00000000000E+00 0.  1.
         21   -1    0    0  504  502  0.00000000000E+00 -0.00000000000E+00 -0.17327530381E+03  0.17327530381E+03  0.00000000000E+00 0.  1.
         21    1    1    2  503  502  0.25552566620E+02  0.32326542976E+02  0.17232368273E+03  0.17718180119E+03  0.00000000000E+00 0. -1.
         21    1    1    2  504  505  0.10069944699E+02 -0.46645741565E+02 -0.14102604107E+03  0.14888107083E+03  0.00000000000E+00 0.  1.
         21    1    1    2  505  501 -0.60854222023E+02 -0.10200434778E+03  0.11817832670E+03  0.16755369350E+03  0.00000000000E+00 0.  1.
          2    1    1    2  501    0  0.25231710704E+02  0.11632354637E+03  0.29381612133E+04  0.29405712238E+04  0.00000000000E+00 0.  1.
<scales pt_clust_3="41.20606" pt_clust_4="47.68699" pt_clust_5="148.96164" pt_clust_6="14000.00000"></scales>
<clustering>
<clus scale="   41.206">  1  3  2 -1</clus>
<clus scale="   47.687">  2  4  1 -1</clus>
<clus scale="  148.962">  2  5  1 -1</clus>
<clus scale="   47.687">  2  3  1 -1</clus>
</clustering>
</event>
<event>
 6    0  0.3082502E+002  0.1049621E+03  0.7546771E-02  0.1270194E+00
          1   -1    0    0  504    0 -0.00000000000E+00  0.00000000000E+00  0.20605421964E+04  0.20605421964E+04  0.00000000000E+00 0.  1.
         21   -1    0    0  505  502  0.00000000000E+00 -0.00000000000E+00 -0.40397719940E+02  0.40397719940E+02  0.00000000000E+00 0.  1.
         21    1    1    2  503  502  0.94543556491E+02 -0.36852493728E+02  0.65229293600E+02  0.12062939572E+03  0.00000000000E+00 0.  1.
         21    1    1    2  504  503  0.41550395758E+02 -0.96643526765E+01  0.46435344954E+03  0.46630886888E+03  0.00000000000E+00 0. -1.
         21    1    1    2  505  501 -0.88852722236E+02  0.93533921729E+02  0.37729782235E+03  0.39874433853E+03  0.00000000000E+00 0. -1.
          1    1    1    2  501    0 -0.47241230014E+02 -0.47017075325E+02  0.11132639109E+04  0.11152573132E+04  0.00000000000E+00 0.  1.
<scales pt_clust_3="104.96211" pt_clust_4="42.65953" pt_clust_5="14000.00000" pt_clust_6="56.77025"></scales>
<clustering>
<clus scale="   42.660">  1  4  2 -1</clus>
<clus scale="   56.770">  1  6  2 -1</clus>
<clus scale="  104.962">  2  3  1 -1</clus>
<clus scale="  104.962">  2  3  1 -1</clus>
</clustering>
</event>
<event>
 6    0  0.3082502E+002  0.8658449E+02  0.7546771E-02  0.1311340E+00
         -1   -1    0    0    0  501 -0.00000000000E+00  0.00000000000E+00  0.24404074298E+03  0.24404074298E+03  0.00000000000E+00 0.  1.
         21   -1    0    0  504  502  0.00000000000E+00 -0.00000000000E+00 -0.17657034758E+03  0.17657034758E+03  0.00000000000E+00 0.  1.
         21    1    1    2  503  501  0.42295529167E+01 -0.51068998892E+02  0.46208820908E+02  0.69001354301E+02  0.00000000000E+00 0.  1.
         21    1    1    2  504  503  0.27807458019E+02  0.28362767880E+02 -0.76987466777E+02  0.86630083482E+02  0.00000000000E+00 0.  1.
         21    1    1    2  505  502 -0.86699653538E+02 -0.65733729653E+02 -0.16600040558E+02  0.11006050374E+03  0.00000000000E+00 0.  1.
         -1    1    1    2    0  505  0.54662642603E+02  0.88439960665E+02  0.11484908183E+03  0.15491914903E+03  0.00000000000E+00 0.  1.
<scales pt_clust_3="48.25607" pt_clust_4="39.72029" pt_clust_5="86.58449" pt_clust_6="14000.00000"></scales>
<clustering>
<clus scale="   39.720">  2  4  1 -1</clus>
<clus scale="   48.256">  1  3  2 -1</clus>
<clus scale="   86.584">  2  5  1 -1</clus>
<clus scale="   39.720">  2  3  1 -1</clus>
</clustering>
</event>
<event>
 6    0  0.3082502E+002  0.8315230E+02  0.7546771E-02  0.1320336E+00
         -2   -1    0    0    0  501 -0.00000000000E+00  0.00000000000E+00  0.46240893317E+03  0.46240893317E+03  0.00000000000E+00 0.  1.
         21   -1    0    0  505  502  0.00000000000E+00 -0.00000000000E+00 -0.41711596932E+03  0.41711596932E+03  0.00000000000E+00 0. -1.
         21    1    1    2  503  501  0.31179911965E+02  0.48245133756E+02  0.32976997848E+03  0.33473574435E+03  0.00000000000E+00 0.  1.
         21    1    1    2  504  502  0.10103483623E+02 -0.73775297216E+02 -0.31215096551E+03  0.32090980061E+03  0.00000000000E+00 0. -1.
         21    1    1    2  505  503  0.37331217366E+02  0.21490246795E+01 -0.80128139673E+02  0.88423734735E+02  0.00000000000E+00 0.  1.
         -2    1    1    2    0  504 -0.78614612953E+02  0.23381138781E+02  0.10780209054E+03  0.13545562279E+03  0.00000000000E+00 0.  1.
<scales pt_clust_3="57.60877" pt_clust_4="14000.00000" pt_clust_5="37.39302" pt_clust_6="83.15230"></scales>
<clustering>
<clus scale="   37.393">  2  5  1 -1</clus>
<clus scale="   57.609">  1  3  2 -1</clus>
<clus scale="   83.152">  1  6  2 -1</clus>
<clus scale="   37.393">  2  3  1 -1</clus>
</clustering>
</event>
<event>
 6    0  0.3082502E+002  0.1736217E+03  0.7546771E-02  0.1174123E+00
         21   -1    0    0  505  502  0.00000000000E+00  0.00000000000E+00  0.45192265955E+03  0.45192265955E+03  0.00000000000E+00 0. -1.
          2   -1    0    0  503    0 -0.00000000000E+00 -0.00000000000E+00 -0.85931148319E+03  0.85931148319E+03  0.00000000000E+00 0.  1.
         21    1    1    2  503  504  0.30766973201E+02  0.70537751859E+02  0.45673632848E+02  0.89488892131E+02  0.00000000000E+00 0.  1.
         21    1    1    2  504  502  0.50183117329E+02  0.39681081946E+01 -0.14047320266E+02  0.52262973070E+02  0.00000000000E+00 0.  1.
         21    1    1    2  505  501  0.17129541880E+02  0.72195809759E+02  0.35163489628E+03  0.35937829155E+03  0.00000000000E+00 0. -1.
          2    1    1    2  501    0 -0.98079632410E+02 -0.14670166981E+03 -0.79065003251E+03  0.81010398599E+03  0.00000000000E+00 0.  1.
<scales pt_clust_3="80.95394" pt_clust_4="50.33976" pt_clust_5="173.62170" pt_clust_6="14000.00000"></scales>
<clustering>
<clus scale="   50.340">  1  4  2 -1</clus>
<clus scale="   80.954">  1  3  2 -1</clus>
<clus scale="  173.622">  1  5  2 -1</clus>
<clus scale="   50.340">  1  3  2 -1</clus>
</clustering>
</event>
<event>
 6    0  0.3082502E+002  0.9459928E+02  0.7546771E-02  0.1292081E+00
          1   -1    0    0  505    0 -0.00000000000E+00  0.00000000000E+00  0.11325658194E+04  0.11325658194E+04  0.00000000000E+00 0. -1.
         21   -1    0    0  504  502  0.00000000000E+00 -0.00000000000E+00 -0.54376796456E+02  0.54376796456E+02  0.00000000000E+00 0. -1.
         21    1    1    2  503  501 -0.10048659782E+03 -0.23562369615E+02  0.13361724354E+03  0.16883811589E+03  0.00000000000E+00 0. -1.
         21    1    1    2  504  503  0.88604651245E+02 -0.40803659545E+02  0.35815170931E+02  0.10391558749E+03  0.00000000000E+00 0. -1.
         21    1    1    2  505  502  0.35213098366E+02  0.24144334000E+02  0.64135470130E+03  0.64277427145E+03  0.00000000000E+00 0. -1.
          1    1    1    2  501    0 -0.23331151787E+02  0.40221695160E+02  0.26740190715E+03  0.27141464101E+03  0.00000000000E+00 0. -1.
<scales pt_clust_3="94.59928" pt_clust_4="14000.00000" pt_clust_5="42.69556" pt_clust_6="53.63164"></scales>
<clustering>
<clus scale="   42.696">  1  5  2 -1</clus>
<clus scale="   53.632">  1  6  2 -1</clus>
<clus scale="   94.599">  1  3  2 -1</clus>
<clus scale="   94.599">  2  3  1 -1</clus>
</clustering>
</event>
<event>
 6    0  0.3082502E+002  0.2074569E+03  0.7546771E-02  0.1143596E+00
          1   -1    0    0  504    0 -0.00000000000E+00  0.00000000000E+00  0.35655346809E+04  0.35655346809E+04  0.00000000000E+00 0. -1.
         21   -1    0    0  501  502  0.00000000000E+00 -0.00000000000E+00 -0.53362241462E+03  0.53362241462E+03  0.00000000000E+00 0.  1.
         21    1    1    2  503  502  0.32273948245E+02 -0.34145293750E+02 -0.23698484242E+03  0.24159744278E+03  0.00000000000E+00 0.  1.
         21    1    1    2  504  505  0.37734178840E+02 -0.38881908723E+02  0.31255446383E+04  0.31260142286E+04  0.00000000000E+00 0. -1.
         21    1    1    2  505  503 -0.23763171705E+03  0.76064982453E+02 -0.21919192587E+03  0.33211415940E+03  0.00000000000E+00 0.  1.
          1    1    1    2  501    0  0.16762358997E+03 -0.30377799796E+01  0.36254439625E+03  0.39943126477E+03  0.00000000000E+00 0. -1.
<scales pt_clust_3="46.98413" pt_clust_4="54.21931" pt_clust_5="207.45690" pt_clust_6="14000.00000"></scales>
<clustering>
<clus scale="   46.984">  2  3  1 -1</clus>
<clus scale="   54.219">  1  4  2 -1</clus>
<clus scale="  207.457">  2  5  1 -1</clus>
<clus scale="   46.984">  2  3  1 -1</clus>
</clustering>
</event>
<event>
 6    0  0.3082502E+002  0.1300113E+03  0.7546771E-02  0.1227439E+00
         21   -1    0    0  504  502  0.00000000000E+00  0.00000000000E+00  0.85714141300E+02  0.85714141300E+02  0.00000000000E+00 0.  1.
          1   -1    0    0  503    0 -0.00000000000E+00 -0.00000000000E+00 -0.17304188568E+04  0.17304188568E+04  0.00000000000E+00 0.  1.
         21    1    1    2  503  502 -0.44492603864E+02 -0.27423712247E+02  0.55577961284E+02  0.76292604966E+02  0.00000000000E+00 0.  1.
         21    1    1    2  504  505  0.82480078855E+01  0.33237437725E+02 -0.25734135149E+02  0.42836930475E+02  0.00000000000E+00 0. -1.
         21    1    1    2  505  501 -0.10640444026E+03 -0.63377879572E+01 -0.38154561198E+03  0.39615543222E+03  0.00000000000E+00 0.  1.
          1    1    1    2  501    0  0.14264903624E+03  0.52406247832E+00 -0.12930029297E+04  0.13008480305E+04  0.00000000000E+00 0.  1.
<scales pt_clust_3="37.45747" pt_clust_4="34.24554" pt_clust_5="130.01133" pt_clust_6="14000.00000"></scales>
<clustering>
<clus scale="   34.246">  1  4  2 -1</clus>
<clus scale="   37.457">  1  3  2 -1</clus>
<clus scale="  130.011">  1  5  2 -1</clus>
<clus scale="   34.246">  1  3  2 -1</clus>
</clustering>
</event>
<event>
 6    0  0.3082502E+002  0.2322844E+03  0.7546771E-02  0.1125042E+00
          2   -1    0    0  504    0 -0.00000000000E+00  0.00000000000E+00  0.11571987288E+04  0.11571987288E+04  0.00000000000E+00 0.  1.
         21   -1    0    0  505  502  0.00000000000E+00 -0.00000000000E+00 -0.10079389930E+04  0.10079389930E+04  0.00000000000E+00 0. -1.
         21    1    1    2  503  502 -0.25796875351E+02  0.22756554527E+03 -0.82619062988E+03  0.85734620375E+03  0.00000000000E+00 0. -1.
         21    1    1    2  504  503  0.33565819002E+02  0.32640432644E+01  0.16548721806E+03  0.16888853580E+03  0.00000000000E+00 0.  1.
         21    1    1    2  505  501  0.11075088194E+03 -0.11371626233E+02 -0.12724452666E+03  0.16907466190E+03  0.00000000000E+00 0. -1.
          2    1    1    2  501    0 -0.11851982559E+03 -0.21945796230E+03  0.93720767426E+03  0.96982832035E+03  0.00000000000E+00 0.  1.
<scales pt_clust_3="232.28435" pt_clust_4="33.72415" pt_clust_5="112.03161" pt_clust_6="14000.00000"></scales>
<clustering>
<clus scale="   33.724">  1  4  2 -1</clus>
<clus scale="  112.032">  2  5  1 -1</clus>
<clus scale="  232.284">  2  3  1 -1</clus>
<clus scale="  112.032">  2  3  1 -1</clus>
</clustering>
</event>
<event>
 6    0  0.3082502E+002  0.1508031E+03  0.7546771E-02  0.1199490E+00
         21   -1    0    0  501  502  0.00000000000E+00  0.00000000000E+00  0.54459420492E+03  0.54459420492E+03  0.00000000000E+00 0. -1.
          2   -1    0    0  505    0 -0.00000000000E+00 -0.00000000000E+00 -0.32491083100E+03  0.32491083100E+03  0.00000000000E+00 0. -1.
         21    1    1    2  503  502  0.23902977494E+01  0.34875807878E+02  0.10309091986E+03  0.10885666381E+03  0.00000000000E+00 0. -1.
         21    1    1    2  504  503 -0.11414320335E+03 -0.13852313198E+03  0.36702905407E+03  0.40856781015E+03  0.00000000000E+00 0. -1.
         21    1    1    2  505  504 -0.18879296384E+02  0.65990619696E+02 -0.19236889209E+03  0.20424735093E+03  0.00000000000E+00 0. -1.
          2    1    1    2  501    0  0.13063220198E+03  0.37656704405E+02 -0.58067707919E+02  0.14783321104E+03  0.00000000000E+00 0. -1.
<scales pt_clust_3="34.95762" pt_clust_4="150.80307" pt_clust_5="69.08342" pt_clust_6="14000.00000"></scales>
<clustering>
<clus scale="   34.958">  1  3  2 -1</clus>
<clus scale="   69.083">  2  5  1 -1</clus>
<clus scale="  150.803">  1  4  2 -1</clus>
<clus scale="   34.958">  1  3  2 -1</clus>
</clustering>
</event>
<event>
 6    0  0.3082502E+002  0.7822725E+02  0.7546771E-02  0.1334159E+00
          2   -1    0    0  503    0 -0.00000000000E+00  0.00000000000E+00  0.10556121739E+04  0.10556121739E+04  0.00000000000E+00 0. -1.
         21   -1    0    0  504  502  0.00000000000E+00 -0.00000000000E+00 -0.27827226324E+02  0.27827226324E+02  0.00000000000E+00 0. -1.
         21    1    1    2  503  505  0.46035744936E+01  0.37267811984E+02  0.36166199135E+03  0.36360621378E+03  0.00000000000E+00 0. -1.
         21    1    1    2  504  501 -0.26534087570E+01 -0.56505530532E+02  0.35310873036E+02  0.66684130895E+02  0.00000000000E+00 0. -1.
         21    1    1    2  505  502  0.64455673460E+02  0.62295126207E+02  0.30820654508E+03  0.32097739955E+03  0.00000000000E+00 0. -1.
          2    1    1    2  501    0 -0.66405839197E+02 -0.43057407660E+02  0.32260553807E+03  0.33217165596E+03  0.00000000000E+00 0. -1.
<scales pt_clust_3="37.55107" pt_clust_4="53.81273" pt_clust_5="78.22725" pt_clust_6="14000.00000"></scales>
<clustering>
<clus scale="   37.551">  1  3  2 -1</clus>
<clus scale="   53.813">  2  4  1 -1</clus>
<clus scale="   78.227">  2  5  1 -1</clus>
<clus scale="   53.813">  2  3  1 -1</clus>
</clustering>
</event>
<event>
 6    0  0.5519494E+002  0.1045406E+03  0.7546771E-02  0.1271027E+00
          2   -1    0    0  503    0 -0.00000000000E+00  0.00000000000E+00  0.19016163381E+04  0.19016163381E+04  0.00000000000E+00 0. -1.
         21   -1    0    0  504  502  0.00000000000E+00 -0.00000000000E+00 -0.12844080786E+03  0.12844080786E+03  0.00000000000E+00 0.  1.
         21    1    1    2  503  505 -0.29604042791E+02  0.96029531693E+01  0.98024827131E+02  0.10284689005E+03  0.00000000000E+00 0. -1.
         21    1    1    2  504  501 -0.68123619817E+02  0.38128162465E+02 -0.10575583730E+03  0.13144915927E+03  0.00000000000E+00 0.  1.
         21    1    1    2  505  502 -0.13037657043E+02  0.27667030749E+02  0.43392435334E+02  0.53088120478E+02  0.00000000000E+00 0. -1.
          2    1    1    2  501    0  0.11076531965E+03 -0.75398146383E+02  0.17375141051E+04  0.17426729762E+04  0.00000000000E+00 0. -1.
<scales pt_clust_3="31.53406" pt_clust_4="14000.00000" pt_clust_5="30.58505" pt_clust_6="104.54058"></scales>
<clustering>
<clus scale="   30.585">  2  5  1 -1</clus>
<clus scale="   31.534">  1  3  2 -1</clus>
<clus scale="  104.541">  1  6  2 -1</clus>
<clus scale="   30.585">  2  3  1 -1</clus>
</clustering>
</event>
<event>
 6    0  0.3082502E+002  0.9067797E+02  0.7546771E-02  0.1301218E+00
         -1   -1    0    0    0  501 -0.00000000000E+00  0.00000000000E+00  0.18284367110E+03  0.18284367110E+03  0.00000000000E+00 0. -1.
         21   -1    0    0  504  502  0.00000000000E+00 -0.00000000000E+00 -0.11133226025E+04  0.11133226025E+04  0.00000000000E+00 0. -1.
         21    1    1    2  503  505  0.38316111451E+01  0.95880742937E+02 -0.76334325502E+02  0.12261617903E+03  0.00000000000E+00 0.  1.
         21    1    1    2  504  503  0.41937517332E+02 -0.16787382111E+02 -0.97027704257E+03  0.97132801406E+03  0.00000000000E+00 0. -1.
         21    1    1    2  505  501 -0.31586279394E+02  0.13892672591E+02 -0.17590036919E+02  0.38731237993E+02  0.00000000000E+00 0. -1.
         -1    1    1    2    0  502 -0.14182849084E+02 -0.92986033417E+02  0.13372247363E+03  0.16349084247E+03  0.00000000000E+00 0. -1.
<scales pt_clust_3="14000.00000" pt_clust_4="45.06749" pt_clust_5="34.50651" pt_clust_6="90.67797"></scales>
<clustering>
<clus scale="   34.507">  1  5  2 -1</clus>
<clus scale="   45.067">  2  4  1 -1</clus>
<clus scale="   90.678">  1  6  2 -1</clus>
<clus scale="   45.067">  2  3  1 -1</clus>
</clustering>
</event>
<event>
 6    0  0.3082502E+002  0.9182800E+02  0.7546771E-02  0.1298484E+00
         21   -1    0    0  503  502  0.00000000000E+00  0.00000000000E+00  0.14111706811E+03  0.14111706811E+03  0.00000000000E+00 0.  1.
          1   -1    0    0  505    0 -0.00000000000E+00 -0.00000000000E+00 -0.42008428833E+03  0.42008428833E+03  0.00000000000E+00 0. -1.
         21    1    1    2  503  504  0.28761715198E+02  0.32751629504E+02  0.16470284351E+01  0.43619011898E+02  0.00000000000E+00 0.  1.
         21    1    1    2  504  501 -0.42691521059E+02  0.47009695503E+02 -0.55233846052E+02  0.84162076919E+02  0.00000000000E+00 0.  1.
         21    1    1    2  505  502 -0.22379428064E+02  0.28362816341E+02  0.90571445940E+02  0.97511409440E+02  0.00000000000E+00 0.  1.
          1    1    1    2  501    0  0.36309233925E+02 -0.10812414135E+03 -0.31595184854E+03  0.33590885818E+03  0.00000000000E+00 0. -1.
<scales pt_clust_3="49.75856" pt_clust_4="14000.00000" pt_clust_5="36.12877" pt_clust_6="91.82800"></scales>
<clustering>
<clus scale="   36.129">  1  5  2 -1</clus>
<clus scale="   49.759">  1  3  2 -1</clus>
<clus scale="   91.828">  2  6  1 -1</clus>
<clus scale="   36.129">  1  3  2 -1</clus>
</clustering>
</event>
<event>
 6    0  0.3082502E+002  0.7558971E+02  0.7546771E-02  0.1342055E+00
         21   -1    0    0  503  502  0.00000000000E+00  0.00000000000E+00  0.28891572917E+03  0.28891572917E+03  0.00000000000E+00 0.  1.
          2   -1    0    0  505    0 -0.00000000000E+00 -0.00000000000E+00 -0.33238063638E+04  0.33238063638E+04  0.00000000000E+00 0. -1.
         21    1    1    2  503  501 -0.83030411877E+02 -0.11412286861E+03  0.15955422126E+03  0.21301555802E+03  0.00000000000E+00 0.  1.
         21    1    1    2  504  502  0.31315995078E+02  0.60497886087E+02  0.87786213792E+02  0.11111752832E+03  0.00000000000E+00 0.  1.
         21    1    1    2  505  504  0.49298227754E+02 -0.47083518517E+02 -0.51093890275E+03  0.51546652201E+03  0.00000000000E+00 0.  1.
          2    1    1    2  501    0  0.24161890455E+01  0.10070850104E+03 -0.27712921670E+04  0.27731224847E+04  0.00000000000E+00 0. -1.
<scales pt_clust_3="75.58971" pt_clust_4="68.12258" pt_clust_5="67.94600" pt_clust_6="14000.00000"></scales>
<clustering>
<clus scale="   68.123">  1  4  2 -1</clus>
<clus scale="   67.946">  2  5  1 -1</clus>
<clus scale="   75.590">  1  3  2 -1</clus>
<clus scale="   68.123">  1  3  2 -1</clus>
</clustering>
</event>
<event>
 6    0  0.3082502E+002  0.1118826E+03  0.7546771E-02  0.1257123E+00
          1   -1    0    0  504    0 -0.00000000000E+00  0.00000000000E+00  0.21356201692E+04  0.21356201692E+04  0.00000000000E+00 0.  1.
         21   -1    0    0  503  502  0.00000000000E+00 -0.00000000000E+00 -0.37105598680E+02  0.37105598680E+02  0.00000000000E+00 0. -1.
         21    1    1    2  503  505  0.26594124905E+02 -0.63185152504E+02  0.23640292087E+03  0.24614213774E+03  0.00000000000E+00 0.  1.
         21    1    1    2  504  502  0.71383469609E+02  0.48114178303E+02  0.30307526151E+02  0.91264012779E+02  0.00000000000E+00 0. -1.
         21    1    1    2  505  501 -0.43455370161E+02  0.33202952082E+02  0.75044782632E+03  0.75243786803E+03  0.00000000000E+00 0. -1.
          1    1    1    2  501    0 -0.54522224352E+02 -0.18131977881E+02  0.10813562971E+04  0.10828817493E+04  0.00000000000E+00 0.  1.
<scales pt_clust_3="68.55371" pt_clust_4="97.22505" pt_clust_5="54.01158" pt_clust_6="54.01158"></scales>
<clustering>
<clus scale="   54.012">  5  6 -1 -1</clus>
<clus scale="   68.554">  2  3  1 -1</clus>
<clus scale="   97.225">  2  4  1 -1</clus>
<clus scale="   68.554">  2  3  1 -1</clus>
</clustering>
</event>
<event>
 6    0  0.3082502E+002  0.1743361E+03  0.7546771E-02  0.1173400E+00
          4   -1    0    0  505    0 -0.00000000000E+00  0.00000000000E+00  0.24479754755E+04  0.24479754755E+04  0.00000000000E+00 0. -1.
         21   -1    0    0  503  502  0.00000000000E+00 -0.00000000000E+00 -0.24375264258E+03  0.24375264258E+03  0.00000000000E+00 0. -1.
         21    1    1    2  503  501 -0.14030976500E+03 -0.10279541001E+03 -0.18501277406E+03  0.25393592310E+03  0.00000000000E+00 0. -1.
         21    1    1    2  504  502  0.50802526659E+02  0.23487541519E+03  0.72753676345E+03  0.76619651496E+03  0.00000000000E+00 0. -1.
         21    1    1    2  505  504  0.86914190754E+02 -0.69850208962E+02  0.12801207456E+04  0.12849678017E+04  0.00000000000E+00 0. -1.
          4    1    1    2  501    0  0.25930475886E+01 -0.62229796215E+02  0.38157809799E+03  0.38662787832E+03  0.00000000000E+00 0. -1.
<scales pt_clust_3="14000.00000" pt_clust_4="174.33615" pt_clust_5="140.04884" pt_clust_6="62.28380"></scales>
<clustering>
<clus scale="   62.284">  1  6  2 -1</clus>
<clus scale="  140.049">  1  5  2 -1</clus>
<clus scale="  174.336">  1  4  2 -1</clus>
<clus scale="  174.336">  2  3  1 -1</clus>
</clustering>
</event>
<event>
 6    0  0.3082502E+002  0.1236529E+03  0.7546771E-02  0.1237190E+00
         21   -1    0    0  503  502  0.00000000000E+00  0.00000000000E+00  0.49134379073E+03  0.49134379073E+03  0.00000000000E+00 0.  1.
         -4   -1    0    0    0  501 -0.00000000000E+00 -0.00000000000E+00 -0.10076941936E+04  0.10076941936E+04  0.00000000000E+00 0. -1.
         21    1    1    2  503  504 -0.92137397579E+02 -0.12625509118E+03  0.39715534468E+03  0.42680442347E+03  0.00000000000E+00 0.  1.
         21    1    1    2  504  501  0.56274669116E+02  0.29953531814E+02 -0.11609764454E+03  0.13244891664E+03  0.00000000000E+00 0. -1.
         21    1    1    2  505  502  0.15292927192E+02  0.29141372855E+02  0.65880510267E+02  0.73643294786E+02  0.00000000000E+00 0.  1.
         -4    1    1    2    0  505  0.20569801271E+02  0.67160186507E+02 -0.86328861326E+03  0.86614134941E+03  0.00000000000E+00 0. -1.
<scales pt_clust_3="123.65295" pt_clust_4="64.27826" pt_clust_5="32.91038" pt_clust_6="14000.00000"></scales>
<clustering>
<clus scale="   32.910">  1  5  2 -1</clus>
<clus scale="   64.278">  2  4  1 -1</clus>
<clus scale="  123.653">  1  3  2 -1</clus>
<clus scale="   32.910">  1  3  2 -1</clus>
</clustering>
</event>
<event>
 6    0  0.3082502E+002  0.2823459E+03  0.7546771E-02  0.1094414E+00
         21   -1    0    0  501  502  0.00000000000E+00  0.00000000000E+00  0.89276993305E+03  0.89276993305E+03  0.00000000000E+00 0.  1.
          2   -1    0    0  504    0 -0.00000000000E+00 -0.00000000000E+00 -0.12261129627E+04  0.12261129627E+04  0.00000000000E+00 0. -1.
         21    1    1    2  503  502 -0.41637354787E+02  0.26044467324E+02  0.36141488412E+03  0.36473648303E+03  0.00000000000E+00 0.  1.
         21    1    1    2  504  505 -0.27101601816E+02  0.82446091994E+02 -0.37276472255E+02  0.94453111594E+02  0.00000000000E+00 0.  1.
         21    1    1    2  505  503  0.30343372297E+03  0.71980820867E+02  0.43081753840E+03  0.53184303530E+03  0.00000000000E+00 0.  1.
          2    1    1    2  501    0 -0.23469476637E+03 -0.18047138019E+03 -0.10882989799E+04  0.11278502658E+04  0.00000000000E+00 0. -1.
<scales pt_clust_3="49.11195" pt_clust_4="88.83957" pt_clust_5="14000.00000" pt_clust_6="282.34594"></scales>
<clustering>
<clus scale="   49.112">  1  3  2 -1</clus>
<clus scale="   88.840">  2  4  1 -1</clus>
<clus scale="  282.346">  2  6  1 -1</clus>
<clus scale="   49.112">  1  3  2 -1</clus>
</clustering>
</event>
<event>
 6    0  0.3082502E+002  0.1437829E+03  0.7546771E-02  0.1208327E+00
          2   -1    0    0  505    0 -0.00000000000E+00  0.00000000000E+00  0.29304936162E+03  0.29304936162E+03  0.00000000000E+00 0.  1.
         21   -1    0    0  501  502  0.00000000000E+00 -0.00000000000E+00 -0.66423409912E+03  0.66423409912E+03  0.00000000000E+00 0.  1.
         21    1    1    2  503  504  0.15570600837E+03 -0.43875452425E+02 -0.29715023435E+03  0.33833072303E+03  0.00000000000E+00 0.  1.
         21    1    1    2  504  502 -0.31083936894E+02 -0.14177349796E+02 -0.27585849098E+03  0.27796603286E+03  0.00000000000E+00 0. -1.
         21    1    1    2  505  503  0.39787106532E+02  0.53580573648E+02  0.15688178546E+03  0.17048690955E+03  0.00000000000E+00 0.  1.
          2    1    1    2  501    0 -0.16440917801E+03  0.44722285732E+01  0.44942202371E+02  0.17049979530E+03  0.00000000000E+00 0.  1.
<scales pt_clust_3="143.78295" pt_clust_4="34.16443" pt_clust_5="66.21274" pt_clust_6="14000.00000"></scales>
<clustering>
<clus scale="   34.164">  2  4  1 -1</clus>
<clus scale="   66.213">  1  5  2 -1</clus>
<clus scale="  143.783">  2  3  1 -1</clus>
<clus scale="   34.164">  2  3  1 -1</clus>
</clustering>
</event>
<event>
 6    0  0.3082502E+002  0.1441545E+03  0.7546771E-02  0.1207846E+00
          1   -1    0    0  505    0 -0.00000000000E+00  0.00000000000E+00  0.26388510431E+04  0.26388510431E+04  0.00000000000E+00 0. -1.
         21   -1    0    0  501  502  0.00000000000E+00 -0.00000000000E+00 -0.18544018330E+03  0.18544018330E+03  0.00000000000E+00 0. -1.
         21    1    1    2  503  502 -0.17203270039E+01 -0.38000999266E+02 -0.77388284194E+02  0.86232140184E+02  0.00000000000E+00 0. -1.
         21    1    1    2  504  503  0.12164306596E+03  0.11064157751E+03 -0.15081535551E+02  0.16512433765E+03  0.00000000000E+00 0. -1.
         21    1    1    2  505  504 -0.70884346605E+02 -0.16945826506E+03  0.69465758607E+03  0.71853312803E+03  0.00000000000E+00 0. -1.
          1    1    1    2  501    0 -0.49038392354E+02  0.96817686814E+02  0.18512230935E+04  0.18544016205E+04  0.00000000000E+00 0. -1.
<scales pt_clust_3="38.03992" pt_clust_4="144.15452" pt_clust_5="14000.00000" pt_clust_6="108.02087"></scales>
<clustering>
<clus scale="   38.040">  2  3  1 -1</clus>
<clus scale="  108.021">  1  6  2 -1</clus>
<clus scale="  144.155">  2  4  1 -1</clus>
<clus scale="   38.040">  2  3  1 -1</clus>
</clustering>
</event>
<event>
 6    0  0.3082502E+002  0.1389469E+03  0.7546771E-02  0.1214753E+00
          2   -1    0    0  504    0 -0.00000000000E+00  0.00000000000E+00  0.27579325996E+04  0.27579325996E+04  0.00000000000E+00 0. -1.
         21   -1    0    0  505  502  0.00000000000E+00 -0.00000000000E+00 -0.11250042721E+03  0.11250042721E+03  0.00000000000E+00 0. -1.
         21    1    1    2  503  502 -0.83615078056E+02  0.12841278018E+03 -0.13683116761E+02  0.15384586792E+03  0.00000000000E+00 0. -1.
         21    1    1    2  504  503  0.21682745608E+02  0.39200305220E+02  0.34343566131E+03  0.34634499974E+03  0.00000000000E+00 0.  1.
         21    1    1    2  505  501 -0.34493111372E+02 -0.13222223625E+03  0.15305151090E+03  0.20517616694E+03  0.00000000000E+00 0. -1.
          2    1    1    2  501    0  0.96425443820E+02 -0.35390849156E+02  0.21626281170E+04  0.21650659922E+04  0.00000000000E+00 0. -1.
<scales pt_clust_3="14000.00000" pt_clust_4="44.79738" pt_clust_5="138.94689" pt_clust_6="115.86926"></scales>
<clustering>
<clus scale="   44.797">  1  4  2 -1</clus>
<clus scale="  115.869">  1  6  2 -1</clus>
<clus scale="  138.947">  1  5  2 -1</clus>
<clus scale="  138.947">  2  3  1 -1</clus>
</clustering>
</event>
<event>
 6    0  0.3082502E+002  0.7055528E+02  0.7546771E-02  0.1358215E+00
          4   -1    0    0  503    0 -0.00000000000E+00  0.00000000000E+00  0.12409908914E+04  0.12409908914E+04  0.00000000000E+00 0.  1.
         21   -1    0    0  505  502  0.00000000000E+00 -0.00000000000E+00 -0.12501579853E+03  0.12501579853E+03  0.00000000000E+00 0. -1.
         21    1    1    2  503  504  0.14683289151E+02 -0.34209154947E+02  0.37286900596E+03  0.37472277869E+03  0.00000000000E+00 0.  1.
         21    1    1    2  504  502  0.15685752232E+02  0.40888309303E+02  0.11956619463E+01  0.43810116049E+02  0.00000000000E+00 0.  1.
         21    1    1    2  505  501  0.33764193953E+02 -0.88056625199E+02 -0.77175405508E+02  0.12186071250E+03  0.00000000000E+00 0. -1.
          4    1    1    2  501    0 -0.64133235336E+02  0.81377470843E+02  0.81908583047E+03  0.82561308269E+03  0.00000000000E+00 0.  1.
<scales pt_clust_3="37.22721" pt_clust_4="43.10673" pt_clust_5="70.55528" pt_clust_6="14000.00000"></scales>
<clustering>
<clus scale="   37.227">  1  3  2 -1</clus>
<clus scale="   43.107">  2  4  1 -1</clus>
<clus scale="   70.555">  2  5  1 -1</clus>
<clus scale="   43.107">  2  3  1 -1</clus>
</clustering>
</event>
<event>
 6    0  0.3082502E+002  0.1429806E+03  0.7546771E-02  0.1209374E+00
         21   -1    0    0  505  502  0.00000000000E+00  0.00000000000E+00  0.35554379789E+02  0.35554379789E+02  0.00000000000E+00 0.  1.
          2   -1    0    0  503    0 -0.00000000000E+00 -0.00000000000E+00 -0.38741067669E+04  0.38741067669E+04  0.00000000000E+00 0.  1.
         21    1    1    2  503  502  0.33022530831E+02 -0.78905435451E+01 -0.54373941279E+02  0.64103616982E+02  0.00000000000E+00 0.  1.
         21    1    1    2  504  501  0.21585888354E+02  0.34980784297E+02 -0.61910655366E+03  0.62046960492E+03  0.00000000000E+00 0.  1.
         21    1    1    2  505  504 -0.89394048000E+02 -0.11342827700E+03 -0.14873329218E+03  0.20731343913E+03  0.00000000000E+00 0.  1.
          2    1    1    2  501    0  0.34785628816E+02  0.86338036250E+02 -0.30163386000E+04  0.30177744857E+04  0.00000000000E+00 0.  1.
<scales pt_clust_3="33.95215" pt_clust_4="32.97686" pt_clust_5="134.09277" pt_clust_6="32.97686"></scales>
<clustering>
<clus scale="   32.977">  4  6 -1 -1</clus>
<clus scale="   33.952">  1  3  2 -1</clus>
<clus scale="  134.093">  1  5  2 -1</clus>
<clus scale="   33.952">  1  3  2 -1</clus>
</clustering>
</event>
<event>
 6    0  0.3082502E+002  0.9474570E+02  0.7546771E-02  0.1291750E+00
         21   -1    0    0  504  502  0.00000000000E+00  0.00000000000E+00  0.27250718604E+03  0.27250718604E+03  0.00000000000E+00 0. -1.
          1   -1    0    0  505    0 -0.00000000000E+00 -0.00000000000E+00 -0.45497507342E+03  0.45497507342E+03  0.00000000000E+00 0.  1.
         21    1    1    2  503  502 -0.81385478886E+02  0.97133993743E+02  0.93982990128E+02  0.15777012185E+03  0.00000000000E+00 0. -1.
         21    1    1    2  504  501  0.22891424915E+02 -0.30879348304E+02  0.12714893253E+03  0.13283223453E+03  0.00000000000E+00 0.  1.
         21    1    1    2  505  503 -0.32533273256E+02  0.18937052927E+02 -0.54932251753E+02  0.66592628158E+02  0.00000000000E+00 0.  1.
          1    1    1    2  501    0  0.91027327227E+02 -0.85191698367E+02 -0.34866755828E+03  0.37028727492E+03  0.00000000000E+00 0.  1.
<scales pt_clust_3="14000.00000" pt_clust_4="38.18976" pt_clust_5="37.64340" pt_clust_6="94.74570"></scales>
<clustering>
<clus scale="   37.643">  2  5  1 -1</clus>
<clus scale="   38.190">  1  4  2 -1</clus>
<clus scale="   94.746">  2  6  1 -1</clus>
<clus scale="   38.190">  1  3  2 -1</clus>
</clustering>
</event>
<event>
 6    0  0.3082502E+002  0.8959902E+02  0.7546771E-02  0.1303826E+00
         21   -1    0    0  501  502  0.00000000000E+00  0.00000000000E+00  0.17393854169E+03  0.17393854169E+03  0.00000000000E+00 0.  1.
          1   -1    0    0  505    0 -0.00000000000E+00 -0.00000000000E+00 -0.32359682377E+04  0.32359682377E+04  0.00000000000E+00 0. -1.
         21    1    1    2  503  502 -0.51643240944E+02 -0.59594469752E+02  0.93692541638E+02  0.12246149402E+03  0.00000000000E+00 0.  1.
         21    1    1    2  504  503  0.13386691101E+03  0.30254870951E+02 -0.12908099171E+02  0.13784892493E+03  0.00000000000E+00 0.  1.
         21    1    1    2  505  504  0.28617461084E+02 -0.24465357656E+02 -0.16527521973E+03  0.16950932441E+03  0.00000000000E+00 0. -1.
          1    1    1    2  501    0 -0.11084113115E+03  0.53804956457E+02 -0.29775389188E+04  0.29800870360E+04  0.00000000000E+00 0. -1.
<scales pt_clust_3="78.85664" pt_clust_4="89.59902" pt_clust_5="37.64987" pt_clust_6="14000.00000"></scales>
<clustering>
<clus scale="   37.650">  2  5  1 -1</clus>
<clus scale="   78.857">  1  3  2 -1</clus>
<clus scale="   89.599">  1  4  2 -1</clus>
<clus scale="   78.857">  1  3  2 -1</clus>
</clustering>
</event>
<event>
 6    0  0.3082502E+002  0.2345630E+03  0.7546771E-02  0.1123469E+00
          2   -1    0    0  504    0 -0.00000000000E+00  0.00000000000E+00  0.16858034117E+04  0.16858034117E+04  0.00000000000E+00 0.  1.
         21   -1    0    0  505  502  0.00000000000E+00 -0.00000000000E+00 -0.11374719735E+03  0.11374719735E+03  0.00000000000E+00 0.  1.
         21    1    1    2  503  501  0.13752147078E+03  0.12896670771E+03  0.10926079060E+03  0.21790476586E+03  0.00000000000E+00 0.  1.
         21    1    1    2  504  502 -0.26408606695E+02 -0.41061223872E+02  0.59722237879E+03  0.59921449277E+03  0.00000000000E+00 0. -1.
         21    1    1    2  505  503  0.13359262412E+03 -0.63839016239E+02  0.10083919385E+03  0.17913947703E+03  0.00000000000E+00 0. -1.
          2    1    1    2  501    0 -0.24470548821E+03 -0.24066467597E+02  0.76473385110E+03  0.80329187338E+03  0.00000000000E+00 0.  1.
<scales pt_clust_3="234.56300" pt_clust_4="48.82047" pt_clust_5="147.40586" pt_clust_6="14000.00000"></scales>
<clustering>
<clus scale="   48.820">  1  4  2 -1</clus>
<clus scale="  147.406">  2  5  1 -1</clus>
<clus scale="  234.563">  2  3  1 -1</clus>
<clus scale="  147.406">  2  3  1 -1</clus>
</clustering>
</event>
<event>
 6    0  0.3082502E+002  0.1057079E+03  0.7546771E-02  0.1268731E+00
          2   -1    0    0  505    0 -0.00000000000E+00  0.00000000000E+00  0.13160202165E+04  0.13160202165E+04  0.00000000000E+00 0.  1.
         21   -1    0    0  503  502  0.00000000000E+00 -0.00000000000E+00 -0.44783709594E+02  0.44783709594E+02  0.00000000000E+00 0.  1.
         21    1    1    2  503  501  0.84853615287E+02 -0.17181904740E+02  0.10672241729E+03  0.13742280826E+03  0.00000000000E+00 0.  1.
         21    1    1    2  504  502 -0.13963656247E+03 -0.34579437997E+01  0.18154127348E+03  0.22905798596E+03  0.00000000000E+00 0.  1.
         21    1    1    2  505  504 -0.43418875733E+02  0.15647830626E+02  0.20321023581E+03  0.20838534812E+03  0.00000000000E+00 0.  1.
          2    1    1    2  501    0  0.98201822912E+02  0.49920179131E+01  0.77976258035E+03  0.78593778378E+03  0.00000000000E+00 0.  1.
<scales pt_clust_3="14000.00000" pt_clust_4="105.70787" pt_clust_5="46.15250" pt_clust_6="69.45992"></scales>
<clustering>
<clus scale="   46.153">  1  5  2 -1</clus>
<clus scale="   69.460">  1  6  2 -1</clus>
<clus scale="  105.708">  1  4  2 -1</clus>
<clus scale="  105.708">  2  3  1 -1</clus>
</clustering>
</event>
<event>
 6    0  0.3082502E+002  0.8099733E+02  0.7546771E-02  0.1326245E+00
         21   -1    0    0  505  502  0.00000000000E+00  0.00000000000E+00  0.26948395425E+02  0.26948395425E+02  0.00000000000E+00 0. -1.
          1   -1    0    0  503    0 -0.00000000000E+00 -0.00000000000E+00 -0.30932566200E+04  0.30932566200E+04  0.00000000000E+00 0. -1.
         21    1    1    2  503  502  0.75572853793E+01  0.56556238589E+02 -0.24570175746E+02  0.62124183872E+02  0.00000000000E+00 0. -1.
         21    1    1    2  504  501 -0.51738393236E+02  0.49810792181E+02 -0.84956307998E+03  0.85259333989E+03  0.00000000000E+00 0. -1.
         21    1    1    2  505  504  0.36398292862E+02 -0.10476788131E+02 -0.58791818713E+02  0.69936233530E+02  0.00000000000E+00 0. -1.
          1    1    1    2  501    0  0.77828149943E+01 -0.95890242639E+02 -0.21333831502E+04  0.21355512582E+04  0.00000000000E+00 0. -1.
<scales pt_clust_3="61.68425" pt_clust_4="80.99733" pt_clust_5="37.87610" pt_clust_6="14000.00000"></scales>
<clustering>
<clus scale="   37.876">  1  5  2 -1</clus>
<clus scale="   61.684">  1  3  2 -1</clus>
<clus scale="   80.997">  1  4  2 -1</clus>
<clus scale="   37.876">  1  3  2 -1</clus>
</clustering>
</event>
<event>
 6    0  0.3082502E+002  0.1190148E+03  0.7546771E-02  0.1244731E+00
         21   -1    0    0  504  502  0.00000000000E+00  0.00000000000E+00  0.21544240454E+03  0.21544240454E+03  0.00000000000E+00 0. -1.
          1   -1    0    0  503    0 -0.00000000000E+00 -0.00000000000E+00 -0.19553606161E+04  0.19553606161E+04  0.00000000000E+00 0.  1.
         21    1    1    2  503  502 -0.30849897493E+02 -0.74547698596E+01 -0.24140608262E+03  0.24348344194E+03  0.00000000000E+00 0. -1.
         21    1    1    2  504  505  0.20758121554E+02  0.41601320851E+02  0.12079848349E+03  0.12943663748E+03  0.00000000000E+00 0. -1.
         21    1    1    2  505  501 -0.24426661345E+02  0.78933077186E+02  0.67647906132E+02  0.10678638332E+03  0.00000000000E+00 0. -1.
          1    1    1    2  501    0  0.34518437284E+02 -0.11307962818E+03 -0.16869585186E+04  0.16910965579E+04  0.00000000000E+00 0.  1.
<scales pt_clust_3="31.73783" pt_clust_4="46.44117" pt_clust_5="119.01483" pt_clust_6="14000.00000"></scales>
<clustering>
<clus scale="   31.738">  2  3  1 -1</clus>
<clus scale="   46.441">  1  4  2 -1</clus>
<clus scale="  119.015">  1  5  2 -1</clus>
<clus scale="   46.441">  1  3  2 -1</clus>
</clustering>
</event>
<event>
 6    0  0.3082502E+002  0.7940943E+02  0.7546771E-02  0.1330736E+00
         21   -1    0    0  505  502  0.00000000000E+00  0.00000000000E+00  0.32841389360E+02  0.32841389360E+02  0.00000000000E+00 0.  1.
          1   -1    0    0  504    0 -0.00000000000E+00 -0.00000000000E+00 -0.24185224069E+04  0.24185224069E+04  0.00000000000E+00 0. -1.
         21    1    1    2  503  501 -0.47777631578E+02 -0.14869396060E+02 -0.21134157863E+03  0.21718440063E+03  0.00000000000E+00 0.  1.
         21    1    1    2  504  502  0.68691520043E+02  0.76827051281E+02 -0.15065281922E+03  0.18252997747E+03  0.00000000000E+00 0.  1.
         21    1    1    2  505  503 -0.40426913963E+02  0.16027165349E+02 -0.22713787619E+02  0.49062425029E+02  0.00000000000E+00 0.  1.
          1    1    1    2  501    0  0.19513025498E+02 -0.77984820570E+02 -0.20009728320E+04  0.20025869931E+04  0.00000000000E+00 0. -1.
<scales pt_clust_3="55.21371" pt_clust_4="14000.00000" pt_clust_5="43.48799" pt_clust_6="79.40943"></scales>
<clustering>
<clus scale="   43.488">  1  5  2 -1</clus>
<clus scale="   55.214">  1  3  2 -1</clus>
<clus scale="   79.409">  2  6  1 -1</clus>
<clus scale="   43.488">  1  3  2 -1</clus>
</clustering>
</event>
<event>
 6    0  0.3082502E+002  0.6782909E+02  0.7546771E-02  0.1367635E+00
         21   -1    0    0  501  502  0.00000000000E+00  0.00000000000E+00  0.13558364264E+03  0.13558364264E+03  0.00000000000E+00 0.  1.
          2   -1    0    0  503    0 -0.00000000000E+00 -0.00000000000E+00 -0.19580805809E+04  0.19580805809E+04  0.00000000000E+00 0.  1.
         21    1    1    2  503  505  0.13317326618E+02 -0.30256527275E+02 -0.14376675477E+03  0.14751843413E+03  0.00000000000E+00 0. -1.
         21    1    1    2  504  502 -0.48465452036E+02 -0.37073038508E+02  0.74865608434E+02  0.96582449500E+02  0.00000000000E+00 0.  1.
         21    1    1    2  505  504  0.67495727266E+02  0.93179849202E+02 -0.21593266000E+02  0.11706590722E+03  0.00000000000E+00 0.  1.
          2    1    1    2  501    0 -0.32347601849E+02 -0.25850283419E+02 -0.17320025259E+04  0.17324974327E+04  0.00000000000E+00 0.  1.
<scales pt_clust_3="33.05766" pt_clust_4="14000.00000" pt_clust_5="67.82909" pt_clust_6="58.17625"></scales>
<clustering>
<clus scale="   33.058">  2  3  1 -1</clus>
<clus scale="   58.176">  2  6  1 -1</clus>
<clus scale="   67.829">  2  5  1 -1</clus>
<clus scale="   67.829">  1  3  2 -1</clus>
</clustering>
</event>
<event>
 6    0  0.3082502E+002  0.9221257E+02  0.7546771E-02  0.1297580E+00
          1   -1    0    0  504    0 -0.00000000000E+00  0.00000000000E+00  0.84825020856E+03  0.84825020856E+03  0.00000000000E+00 0.  1.
         21   -1    0    0  503  502  0.00000000000E+00 -0.00000000000E+00 -0.15800407190E+03  0.15800407190E+03  0.00000000000E+00 0.  1.
         21    1    1    2  503  505 -0.21578944054E+02  0.23174613252E+02  0.21147396741E+02  0.38077892731E+02  0.00000000000E+00 0. -1.
         21    1    1    2  504  502 -0.20527818019E+02  0.98686058525E+02 -0.11405748887E+03  0.15221511169E+03  0.00000000000E+00 0.  1.
         21    1    1    2  505  501  0.21232908535E+02 -0.32222710872E+02  0.13592110230E+02  0.40913139225E+02  0.00000000000E+00 0.  1.
          1    1    1    2  501    0  0.20873853538E+02 -0.89637960905E+02  0.76956411856E+03  0.77504813681E+03  0.00000000000E+00 0.  1.
<scales pt_clust_3="31.66565" pt_clust_4="92.21257" pt_clust_5="35.74022" pt_clust_6="14000.00000"></scales>
<clustering>
<clus scale="   31.666">  2  3  1 -1</clus>
<clus scale="   35.740">  2  5  1 -1</clus>
<clus scale="   92.213">  2  4  1 -1</clus>
<clus scale="   31.666">  2  3  1 -1</clus>
</clustering>
</event>
<event>
 6    0  0.3082502E+002  0.1425068E+03  0.7546771E-02  0.1209995E+00
         21   -1    0    0  505  502  0.00000000000E+00  0.00000000000E+00  0.90576317545E+02  0.90576317545E+02  0.00000000000E+00 0. -1.
          2   -1    0    0  504    0 -0.00000000000E+00 -0.00000000000E+00 -0.45884245139E+04  0.45884245139E+04  0.00000000000E+00 0. -1.
         21    1    1    2  503  502  0.44084649344E+02 -0.22937204062E+02 -0.33726058509E+02  0.60058460358E+02  0.00000000000E+00 0. -1.
         21    1    1    2  504  503 -0.24630184926E+02 -0.67204908099E+02 -0.24379482021E+03  0.25408474972E+03  0.00000000000E+00 0.  1.
         21    1    1    2  505  501 -0.45392952151E+01 -0.53126807126E+02  0.61050758048E+02  0.81057127353E+02  0.00000000000E+00 0. -1.
          2    1    1    2  501    0 -0.14915169203E+02  0.14326891929E+03 -0.42813780757E+04  0.42838004940E+04  0.00000000000E+00 0. -1.
<scales pt_clust_3="49.69478" pt_clust_4="72.07376" pt_clust_5="142.50683" pt_clust_6="14000.00000"></scales>
<clustering>
<clus scale="   49.695">  1  3  2 -1</clus>
<clus scale="   72.074">  1  4  2 -1</clus>
<clus scale="  142.507">  1  5  2 -1</clus>
<clus scale="   49.695">  1  3  2 -1</clus>
</clustering>
</event>
<event>
 6    0  0.3082502E+002  0.8551966E+02  0.7546771E-02  0.1314079E+00
          1   -1    0    0  503    0 -0.00000000000E+00  0.00000000000E+00  0.90972728068E+03  0.90972728068E+03  0.00000000000E+00 0.  1.
         21   -1    0    0  505  502  0.00000000000E+00 -0.00000000000E+00 -0.13349022177E+03  0.13349022177E+03  0.00000000000E+00 0. -1.
         21    1    1    2  503  504  0.11231267589E+03 -0.28606190110E+01  0.15367601311E+03  0.19036448543E+03  0.00000000000E+00 0.  1.
         21    1    1    2  504  502 -0.33701486572E+02  0.28890887905E+02 -0.10211732093E+03  0.11134819637E+03  0.00000000000E+00 0. -1.
         21    1    1    2  505  501 -0.69143306805E+02  0.18206979820E+02  0.16281292230E+03  0.17782108609E+03  0.00000000000E+00 0.  1.
          1    1    1    2  501    0 -0.94678825104E+01 -0.44237248714E+02  0.56186544442E+03  0.56368373456E+03  0.00000000000E+00 0.  1.
<scales pt_clust_3="85.51966" pt_clust_4="44.39002" pt_clust_5="14000.00000" pt_clust_6="44.53856"></scales>
<clustering>
<clus scale="   44.390">  2  4  1 -1</clus>
<clus scale="   44.539">  1  6  2 -1</clus>
<clus scale="   85.520">  2  3  1 -1</clus>
<clus scale="   44.390">  2  3  1 -1</clus>
</clustering>
</event>
<event>
 6    0  0.3082502E+002  0.1299437E+03  0.7546771E-02  0.1227539E+00
         21   -1    0    0  505  502  0.00000000000E+00  0.00000000000E+00  0.82271430765E+03  0.82271430765E+03  0.00000000000E+00 0. -1.
          1   -1    0    0  504    0 -0.00000000000E+00 -0.00000000000E+00 -0.88570525007E+03  0.88570525007E+03  0.00000000000E+00 0. -1.
         21    1    1    2  503  501 -0.16648019844E+03  0.51575950672E+02  0.47457636058E+03  0.50556746056E+03  0.00000000000E+00 0. -1.
         21    1    1    2  504  502  0.29987015099E+02 -0.14296778988E+01 -0.71692602571E+02  0.77724476948E+02  0.00000000000E+00 0.  1.
         21    1    1    2  505  503  0.81743142546E+02 -0.71780082398E+02  0.31951921660E+03  0.33753051915E+03  0.00000000000E+00 0. -1.
          1    1    1    2  501    0  0.54750040796E+02  0.21633809624E+02 -0.78539391703E+03  0.78759710106E+03  0.00000000000E+00 0. -1.
<scales pt_clust_3="129.94368" pt_clust_4="30.02108" pt_clust_5="14000.00000" pt_clust_6="86.24158"></scales>
<clustering>
<clus scale="   30.021">  2  4  1 -1</clus>
<clus scale="   86.242">  2  6  1 -1</clus>
<clus scale="  129.944">  2  3  1 -1</clus>
<clus scale="  129.944">  1  3  2 -1</clus>
</clustering>
</event>
<event>
 6    0  0.3082502E+002  0.7176454E+02  0.7546771E-02  0.1354193E+00
          2   -1    0    0  504    0 -0.00000000000E+00  0.00000000000E+00  0.25849258781E+03  0.25849258781E+03  0.00000000000E+00 0. -1.
         21   -1    0    0  505  502  0.00000000000E+00 -0.00000000000E+00 -0.67152773163E+03  0.67152773163E+03  0.00000000000E+00 0. -1.
         21    1    1    2  503  502 -0.33116796970E+01  0.52550142921E+02 -0.14420711442E+03  0.15351930365E+03  0.00000000000E+00 0. -1.
         21    1    1    2  504  503 -0.26430259693E+01  0.42737204988E+02  0.32725479605E+01  0.42943728839E+02  0.00000000000E+00 0. -1.
         21    1    1    2  505  501 -0.66125682372E+02 -0.32660670066E+02 -0.49007088930E+03  0.49558934792E+03  0.00000000000E+00 0. -1.
          2    1    1    2  501    0  0.72080388039E+02 -0.62626677843E+02  0.21797031194E+03  0.23796793903E+03  0.00000000000E+00 0. -1.
<scales pt_clust_3="53.50138" pt_clust_4="42.81885" pt_clust_5="71.76454" pt_clust_6="14000.00000"></scales>
<clustering>
<clus scale="   42.819">  1  4  2 -1</clus>
<clus scale="   53.501">  2  3  1 -1</clus>
<clus scale="   71.765">  2  5  1 -1</clus>
<clus scale="   53.501">  2  3  1 -1</clus>
</clustering>
</event>
<event>
 6    0  0.3082502E+002  0.1114743E+03  0.7546771E-02  0.1257864E+00
          1   -1    0    0  504    0 -0.00000000000E+00  0.00000000000E+00  0.13471122143E+04  0.13471122143E+04  0.00000000000E+00 0.  1.
         21   -1    0    0  503  502  0.00000000000E+00 -0.00000000000E+00 -0.29063324004E+03  0.29063324004E+03  0.00000000000E+00 0. -1.
         21    1    1    2  503  501 -0.10341490013E+01  0.30784263216E+02 -0.17283530165E+03  0.17555848547E+03  0.00000000000E+00 0. -1.
         21    1    1    2  504  505 -0.37393882200E+02  0.13997658639E+02  0.12162164514E+03  0.12800805225E+03  0.00000000000E+00 0. -1.
         21    1    1    2  505  502 -0.28031920938E+02  0.78121160772E+02 -0.93421680467E+02  0.12496525410E+03  0.00000000000E+00 0. -1.
          1    1    1    2  501    0  0.66459952139E+02 -0.12290308263E+03  0.12011143112E+04  0.12092136625E+04  0.00000000000E+00 0.  1.
<scales pt_clust_3="30.80163" pt_clust_4="40.25800" pt_clust_5="14000.00000" pt_clust_6="111.47433"></scales>
<clustering>
<clus scale="   30.802">  2  3  1 -1</clus>
<clus scale="   40.258">  1  4  2 -1</clus>
<clus scale="  111.474">  1  6  2 -1</clus>
<clus scale="   30.802">  2  3  1 -1</clus>
</clustering>
</event>
<event>
 6    0  0.3082502E+002  0.2310639E+03  0.7546771E-02  0.1125893E+00
          2   -1    0    0  504    0 -0.00000000000E+00  0.00000000000E+00  0.35025450832E+04  0.35025450832E+04  0.00000000000E+00 0. -1.
         21   -1    0    0  503  502  0.00000000000E+00 -0.00000000000E+00 -0.92561752315E+02  0.92561752315E+02  0.00000000000E+00 0. -1.
         21    1    1    2  503  501  0.34162745276E+02 -0.61550399706E+01  0.65762408138E+02  0.74361764408E+02  0.00000000000E+00 0. -1.
         21    1    1    2  504  505 -0.14249293489E+03  0.17034640630E+03  0.17391904131E+03  0.28208149100E+03  0.00000000000E+00 0. -1.
         21    1    1    2  505  502 -0.12134391809E+02  0.34017494089E+02 -0.19088054253E+02  0.40850791716E+02  0.00000000000E+00 0. -1.
          2    1    1    2  501    0  0.12046458142E+03 -0.19820886042E+03  0.31893899357E+04  0.31978127884E+04  0.00000000000E+00 0. -1.
<scales pt_clust_3="34.71279" pt_clust_4="231.06387" pt_clust_5="31.93202" pt_clust_6="14000.00000"></scales>
<clustering>
<clus scale="   34.713">  2  3  1 -1</clus>
<clus scale="   31.932">  2  5  1 -1</clus>
<clus scale="  231.064">  2  4  1 -1</clus>
<clus scale="   34.713">  2  3  1 -1</clus>
</clustering>
</event>
<event>
 6    0  0.3082502E+002  0.7277500E+02  0.7546771E-02  0.1350903E+00
          2   -1    0    0  505    0 -0.00000000000E+00  0.00000000000E+00  0.18996323347E+04  0.18996323347E+04  0.00000000000E+00 0. -1.
         21   -1    0    0  503  502  0.00000000000E+00 -0.00000000000E+00 -0.80238889277E+03  0.80238889277E+03  0.00000000000E+00 0. -1.
         21    1    1    2  503  501 -0.66527021125E+02 -0.29423959236E+02 -0.77578936360E+03  0.77919237072E+03  0.00000000000E+00 0. -1.
         21    1    1    2  504  502 -0.14990665623E+02  0.62087224288E+02  0.24634791139E+02  0.68457405809E+02  0.00000000000E+00 0.  1.
         21    1    1    2  505  504 -0.12830104036E+02 -0.39545472954E+02  0.97076791569E+03  0.97165775977E+03  0.00000000000E+00 0. -1.
          2    1    1    2  501    0  0.94347790784E+02  0.68822079023E+01  0.87763009866E+03  0.88271369112E+03  0.00000000000E+00 0. -1.
<scales pt_clust_3="14000.00000" pt_clust_4="62.10462" pt_clust_5="41.57470" pt_clust_6="72.77500"></scales>
<clustering>
<clus scale="   41.575">  1  5  2 -1</clus>
<clus scale="   62.105">  1  4  2 -1</clus>
<clus scale="   72.775">  1  6  2 -1</clus>
<clus scale="   72.775">  2  3  1 -1</clus>
</clustering>
</event>
<event>
 6    0  0.3082502E+002  0.9942223E+02  0.7546771E-02  0.1281516E+00
         -3   -1    0    0    0  501 -0.00000000000E+00  0.00000000000E+00  0.49366032280E+02  0.49366032280E+02  0.00000000000E+00 0. -1.
         21   -1    0    0  504  502  0.00000000000E+00 -0.00000000000E+00 -0.12833664787E+04  0.12833664787E+04  0.00000000000E+00 0. -1.
         21    1    1    2  503  501 -0.60690072019E+02  0.13984272509E+02 -0.29935884714E+02  0.69101388646E+02  0.00000000000E+00 0. -1.
         21    1    1    2  504  503 -0.17867996059E+02  0.84934307752E+02 -0.67677726278E+02  0.11006078571E+03  0.00000000000E+00 0. -1.
         21    1    1    2  505  502  0.93453804879E+00 -0.36919805773E+02 -0.84322517102E+03  0.84403355056E+03  0.00000000000E+00 0. -1.
         -3    1    1    2    0  505  0.77623530029E+02 -0.61998774488E+02 -0.29316166440E+03  0.30953678606E+03  0.00000000000E+00 0. -1.
<scales pt_clust_3="61.37660" pt_clust_4="14000.00000" pt_clust_5="36.93163" pt_clust_6="99.42223"></scales>
<clustering>
<clus scale="   36.932">  2  5  1 -1</clus>
<clus scale="   61.377">  1  3  2 -1</clus>
<clus scale="   99.422">  2  6  1 -1</clus>
<clus scale="   36.932">  2  3  1 -1</clus>
</clustering>
</event>
<event>
 6    0  0.3082502E+002  0.1247012E+03  0.7546771E-02  0.1235537E+00
          3   -1    0    0  504    0 -0.00000000000E+00  0.00000000000E+00  0.94570138728E+03  0.94570138728E+03  0.00000000000E+00 0.  1.
         21   -1    0    0  501  502  0.00000000000E+00 -0.00000000000E+00 -0.34567031389E+02  0.34567031389E+02  0.00000000000E+00 0.  1.
         21    1    1    2  503  505 -0.58668439455E+02 -0.61582339344E+01  0.11105103966E+03  0.12574674168E+03  0.00000000000E+00 0.  1.
         21    1    1    2  504  503  0.37012276044E+01  0.41048370209E+02  0.51539966722E+03  0.51704495428E+03  0.00000000000E+00 0.  1.
         21    1    1    2  505  502 -0.48065197279E+02 -0.54036849837E+02  0.82230751646E+02  0.10950863366E+03  0.00000000000E+00 0.  1.
          3    1    1    2  501    0  0.10303240913E+03  0.19146713563E+02  0.20245289736E+03  0.22796808904E+03  0.00000000000E+00 0.  1.
<scales pt_clust_3="51.37929" pt_clust_4="41.21490" pt_clust_5="51.37929" pt_clust_6="112.15460"></scales>
<clustering>
<clus scale="   41.215">  1  4  2 -1</clus>
<clus scale="   51.379">  3  5 -1 -1</clus>
<clus scale="  112.155">  1  6  2 -1</clus>
<clus scale="  124.701">  2  3  1 -1</clus>
</clustering>
</event>
<event>
 6    0  0.3082502E+002  0.2299504E+03  0.7546771E-02  0.1126675E+00
          2   -1    0    0  505    0 -0.00000000000E+00  0.00000000000E+00  0.57750593746E+03  0.57750593746E+03  0.00000000000E+00 0. -1.
         21   -1    0    0  503  502  0.00000000000E+00 -0.00000000000E+00 -0.68650779496E+03  0.68650779496E+03  0.00000000000E+00 0.  1.
         21    1    1    2  503  501 -0.21429167519E+03 -0.81698786645E+02 -0.55798658977E+03  0.60327825102E+03  0.00000000000E+00 0.  1.
         21    1    1    2  504  502  0.47916623471E+02 -0.11196103465E+03  0.12499882822E+03  0.17451642656E+03  0.00000000000E+00 0. -1.
         21    1    1    2  505  504 -0.48107967650E+02  0.84814461516E+02  0.21653763721E+02  0.99883706964E+02  0.00000000000E+00 0.  1.
          2    1    1    2  501    0  0.21448301937E+03  0.10884535978E+03  0.30233214032E+03  0.38633534787E+03  0.00000000000E+00 0. -1.
<scales pt_clust_3="229.95043" pt_clust_4="93.75300" pt_clust_5="97.50830" pt_clust_6="14000.00000"></scales>
<clustering>
<clus scale="   97.508">  1  5  2 -1</clus>
<clus scale="   93.753">  1  4  2 -1</clus>
<clus scale="  229.950">  2  3  1 -1</clus>
<clus scale="  229.950">  2  3  1 -1</clus>
</clustering>
</event>
<event>
 6    0  0.3082502E+002  0.1110889E+03  0.7546771E-02  0.1258567E+00
          1   -1    0    0  504    0 -0.00000000000E+00  0.00000000000E+00  0.91525693896E+02  0.91525693896E+02  0.00000000000E+00 0.  1.
         21   -1    0    0  501  502  0.00000000000E+00 -0.00000000000E+00 -0.62077327197E+03  0.62077327197E+03  0.00000000000E+00 0.  1.
         21    1    1    2  503  502 -0.22383284499E+02  0.10775244754E+03 -0.30345601830E+03  0.32279584324E+03  0.00000000000E+00 0.  1.
         21    1    1    2  504  505  0.16723802574E+02 -0.36210485637E+02  0.24914674969E+02  0.47027926505E+02  0.00000000000E+00 0.  1.
         21    1    1    2  505  503 -0.97141838508E+02  0.15348917576E+02 -0.11534759203E+03  0.15158229793E+03  0.00000000000E+00 0.  1.
          1    1    1    2  501    0  0.10280132043E+03 -0.86890879477E+02 -0.13535864272E+03  0.19089289818E+03  0.00000000000E+00 0.  1.
<scales pt_clust_3="111.08888" pt_clust_4="39.88590" pt_clust_5="91.75620" pt_clust_6="14000.00000"></scales>
<clustering>
<clus scale="   39.886">  1  4  2 -1</clus>
<clus scale="   91.756">  1  5  2 -1</clus>
<clus scale="  111.089">  2  3  1 -1</clus>
<clus scale="  111.089">  2  3  1 -1</clus>
</clustering>
</event>
<event>
 6    0  0.3082502E+002  0.9662615E+02  0.7546771E-02  0.1287555E+00
         21   -1    0    0  505  502  0.00000000000E+00  0.00000000000E+00  0.69855685325E+03  0.69855685325E+03  0.00000000000E+00 0. -1.
          1   -1    0    0  504    0 -0.00000000000E+00 -0.00000000000E+00 -0.23016533586E+04  0.23016533586E+04  0.00000000000E+00 0.  1.
         21    1    1    2  503  502 -0.54025216252E+02  0.31319858199E+02  0.55850717573E+03  0.56198747570E+03  0.00000000000E+00 0. -1.
         21    1    1    2  504  503  0.22086295544E+02  0.52736001017E+02 -0.29551032341E+03  0.30099043423E+03  0.00000000000E+00 0.  1.
         21    1    1    2  505  501  0.11718935613E+02 -0.12192428536E+03  0.10762198322E+03  0.16305016432E+03  0.00000000000E+00 0.  1.
          1    1    1    2  501    0  0.20219985096E+02  0.37868426148E+02 -0.19737153409E+04  0.19741821376E+04  0.00000000000E+00 0.  1.
<scales pt_clust_3="62.45562" pt_clust_4="14000.00000" pt_clust_5="96.62615" pt_clust_6="42.92861"></scales>
<clustering>
<clus scale="   42.929">  2  6  1 -1</clus>
<clus scale="   62.456">  1  3  2 -1</clus>
<clus scale="   96.626">  1  5  2 -1</clus>
<clus scale="   62.456">  1  3  2 -1</clus>
</clustering>
</event>
<event>
 6    0  0.3082502E+002  0.1738752E+03  0.7546771E-02  0.1173866E+00
          2   -1    0    0  503    0 -0.00000000000E+00  0.00000000000E+00  0.14043952491E+04  0.14043952491E+04  0.00000000000E+00 0. -1.
         21   -1    0    0  504  502  0.00000000000E+00 -0.00000000000E+00 -0.24544664977E+03  0.24544664977E+03  0.00000000000E+00 0.  1.
         21    1    1    2  503  502 -0.55489312116E+02  0.81473605873E+01  0.12424700680E+03  0.13631860453E+03  0.00000000000E+00 0. -1.
         21    1    1    2  504  505 -0.39122758104E+02  0.10561680903E+02 -0.17258580006E+03  0.17727943391E+03  0.00000000000E+00 0.  1.
         21    1    1    2  505  501  0.15076232967E+03 -0.14397408092E+03  0.12042933229E+03  0.24075099190E+03  0.00000000000E+00 0. -1.
          2    1    1    2  501    0 -0.56150259446E+02  0.12526503943E+03  0.10868580604E+04  0.10954928686E+04  0.00000000000E+00 0. -1.
<scales pt_clust_3="59.53025" pt_clust_4="40.52332" pt_clust_5="14000.00000" pt_clust_6="173.87523"></scales>
<clustering>
<clus scale="   40.523">  2  4  1 -1</clus>
<clus scale="   59.530">  1  3  2 -1</clus>
<clus scale="  173.875">  1  6  2 -1</clus>
<clus scale="   40.523">  2  3  1 -1</clus>
</clustering>
</event>
<event>
 6    0  0.3082502E+002  0.1398077E+03  0.7546771E-02  0.1213588E+00
          2   -1    0    0  505    0 -0.00000000000E+00  0.00000000000E+00  0.23435236381E+04  0.23435236381E+04  0.00000000000E+00 0. -1.
         21   -1    0    0  503  502  0.00000000000E+00 -0.00000000000E+00 -0.22002689430E+03  0.22002689430E+03  0.00000000000E+00 0.  1.
         21    1    1    2  503  501 -0.16898810053E+03 -0.15124237842E+03  0.83534306211E+02  0.24167998565E+03  0.00000000000E+00 0.  1.
         21    1    1    2  504  502  0.75817988772E+02  0.58210881528E+02 -0.11852558094E+03  0.15226682989E+03  0.00000000000E+00 0.  1.
         21    1    1    2  505  504 -0.32959518930E+02 -0.25376637502E+02  0.26702679992E+03  0.27024732283E+03  0.00000000000E+00 0.  1.
          2    1    1    2  501    0  0.12612963069E+03  0.11840813440E+03  0.18914612186E+04  0.18993563941E+04  0.00000000000E+00 0. -1.
<scales pt_clust_3="139.80769" pt_clust_4="95.24878" pt_clust_5="41.59692" pt_clust_6="14000.00000"></scales>
<clustering>
<clus scale="   41.597">  1  5  2 -1</clus>
<clus scale="   95.249">  2  4  1 -1</clus>
<clus scale="  139.808">  2  3  1 -1</clus>
<clus scale="   95.249">  2  3  1 -1</clus>
</clustering>
</event>
<event>
 6    0  0.3082502E+002  0.2687974E+03  0.7546771E-02  0.1101970E+00
         21   -1    0    0  505  502  0.00000000000E+00  0.00000000000E+00  0.28550956727E+03  0.28550956727E+03  0.00000000000E+00 0.  1.
         -1   -1    0    0    0  501 -0.00000000000E+00 -0.00000000000E+00 -0.74530462370E+03  0.74530462370E+03  0.00000000000E+00 0.  1.
         21    1    1    2  503  502 -0.22921237082E+02 -0.23013560221E+02 -0.63147062541E+00  0.32487009998E+02  0.00000000000E+00 0.  1.
         21    1    1    2  504  503 -0.23065283079E+03  0.10899517920E+03  0.14596410331E+03  0.29391528863E+03  0.00000000000E+00 0.  1.
         21    1    1    2  505  501  0.10605491124E+02  0.33095177688E+02  0.67272633141E+01  0.35398069155E+02  0.00000000000E+00 0.  1.
         -1    1    1    2    0  504  0.24296857674E+03 -0.11907679666E+03 -0.61185495243E+03  0.66901382318E+03  0.00000000000E+00 0.  1.
<scales pt_clust_3="32.48087" pt_clust_4="14000.00000" pt_clust_5="32.51472" pt_clust_6="268.79736"></scales>
<clustering>
<clus scale="   32.481">  1  3  2 -1</clus>
<clus scale="   32.515">  1  5  2 -1</clus>
<clus scale="  268.797">  2  6  1 -1</clus>
<clus scale="   32.481">  1  3  2 -1</clus>
</clustering>
</event>
<event>
 6    0  0.3082502E+002  0.9417317E+02  0.7546771E-02  0.1293049E+00
         21   -1    0    0  505  502  0.00000000000E+00  0.00000000000E+00  0.49206284760E+02  0.49206284760E+02  0.00000000000E+00 0.  1.
          2   -1    0    0  504    0 -0.00000000000E+00 -0.00000000000E+00 -0.21738103747E+04  0.21738103747E+04  0.00000000000E+00 0.  1.
         21    1    1    2  503  502 -0.48072318793E+02  0.21365014304E+02 -0.13932711686E+02  0.54419960725E+02  0.00000000000E+00 0.  1.
         21    1    1    2  504  503 -0.40315606511E+02 -0.10868339523E+02 -0.26573669568E+03  0.26899713820E+03  0.00000000000E+00 0. -1.
         21    1    1    2  505  501  0.94548759636E+01 -0.10510601625E+03 -0.85401028739E+02  0.13575715466E+03  0.00000000000E+00 0.  1.
          2    1    1    2  501    0  0.78933049340E+02  0.94609341468E+02 -0.17595336538E+04  0.17638424059E+04  0.00000000000E+00 0.  1.
<scales pt_clust_3="53.18960" pt_clust_4="41.75487" pt_clust_5="94.17317" pt_clust_6="14000.00000"></scales>
<clustering>
<clus scale="   41.755">  2  4  1 -1</clus>
<clus scale="   53.190">  1  3  2 -1</clus>
<clus scale="   94.173">  1  5  2 -1</clus>
<clus scale="   53.190">  1  3  2 -1</clus>
</clustering>
</event>
<event>
 6    0  0.3082502E+002  0.9855122E+02  0.7546771E-02  0.1283372E+00
         21   -1    0    0  505  502  0.00000000000E+00  0.00000000000E+00  0.36379010633E+02  0.36379010633E+02  0.00000000000E+00 0.  1.
          1   -1    0    0  502    0 -0.00000000000E+00 -0.00000000000E+00 -0.15322032488E+04  0.15322032488E+04  0.00000000000E+00 0. -1.
         21    1    1    2  503  504  0.20629443445E+02 -0.25740656204E+02 -0.11936590369E+03  0.12384011580E+03  0.00000000000E+00 0. -1.
         21    1    1    2  504  501  0.19348306651E+02  0.10836242427E+03 -0.61138571396E+03  0.62121595536E+03  0.00000000000E+00 0.  1.
         21    1    1    2  505  503  0.30288473914E+02 -0.13051250973E+02  0.15693093874E+02  0.36523964727E+02  0.00000000000E+00 0.  1.
          1    1    1    2  501    0 -0.70266224010E+02 -0.69570517093E+02 -0.78076571442E+03  0.78700222357E+03  0.00000000000E+00 0. -1.
<scales pt_clust_3="39.47551" pt_clust_4="14000.00000" pt_clust_5="32.98070" pt_clust_6="98.55122"></scales>
<clustering>
<clus scale="   32.981">  1  5  2 -1</clus>
<clus scale="   39.476">  1  3  2 -1</clus>
<clus scale="   98.551">  2  6  1 -1</clus>
<clus scale="   32.981">  1  3  2 -1</clus>
</clustering>
</event>
<event>
 6    0  0.3082502E+002  0.9943127E+02  0.7546771E-02  0.1281496E+00
         21   -1    0    0  503  502  0.00000000000E+00  0.00000000000E+00  0.52787693265E+02  0.52787693265E+02  0.00000000000E+00 0. -1.
          1   -1    0    0  504    0 -0.00000000000E+00 -0.00000000000E+00 -0.19989096516E+04  0.19989096516E+04  0.00000000000E+00 0.  1.
         21    1    1    2  503  505  0.38243160411E+02  0.74311638706E+01  0.11142677297E+01  0.38974390402E+02  0.00000000000E+00 0. -1.
         21    1    1    2  504  502  0.26062281484E+02  0.42449080703E+02 -0.15496027492E+03  0.16276932688E+03  0.00000000000E+00 0. -1.
         21    1    1    2  505  501  0.41162647436E+02 -0.43827018286E+02 -0.58537809770E+01  0.60410577116E+02  0.00000000000E+00 0. -1.
          1    1    1    2  501    0 -0.10546808933E+03 -0.60532262875E+01 -0.17864221702E+04  0.17895430505E+04  0.00000000000E+00 0.  1.
<scales pt_clust_3="37.96912" pt_clust_4="49.81131" pt_clust_5="37.96912" pt_clust_6="87.53062"></scales>
<clustering>
<clus scale="   37.969">  3  5 -1 -1</clus>
<clus scale="   49.811">  2  4  1 -1</clus>
<clus scale="   87.531">  2  6  1 -1</clus>
<clus scale="   99.431">  1  3  2 -1</clus>
</clustering>
</event>
<event>
 6    0  0.3082502E+002  0.1238354E+03  0.7546771E-02  0.1236901E+00
          2   -1    0    0  505    0 -0.00000000000E+00  0.00000000000E+00  0.32694236035E+04  0.32694236035E+04  0.00000000000E+00 0.  1.
         21   -1    0    0  504  502  0.00000000000E+00 -0.00000000000E+00 -0.13103002910E+04  0.13103002910E+04  0.00000000000E+00 0.  1.
         21    1    1    2  503  502  0.21484548792E+02 -0.38177742882E+02 -0.37419120333E+01  0.43967349182E+02  0.00000000000E+00 0. -1.
         21    1    1    2  504  501  0.65722640509E+02 -0.15610791864E+02 -0.12258706460E+04  0.12277304276E+04  0.00000000000E+00 0.  1.
         21    1    1    2  505  503 -0.19206071073E+02 -0.49792149681E+02 -0.46279057978E+02  0.70639100668E+02  0.00000000000E+00 0.  1.
          2    1    1    2  501    0 -0.68001118227E+02  0.10358068443E+03  0.32350149285E+04  0.32373870170E+04  0.00000000000E+00 0.  1.
<scales pt_clust_3="43.80783" pt_clust_4="14000.00000" pt_clust_5="54.65674" pt_clust_6="123.83544"></scales>
<clustering>
<clus scale="   43.808">  2  3  1 -1</clus>
<clus scale="   54.657">  2  5  1 -1</clus>
<clus scale="  123.835">  1  6  2 -1</clus>
<clus scale="   43.808">  2  3  1 -1</clus>
</clustering>
</event>
<event>
 6    0  0.3082502E+002  0.6793723E+02  0.7546771E-02  0.1367251E+00
          2   -1    0    0  503    0 -0.00000000000E+00  0.00000000000E+00  0.32030260343E+04  0.32030260343E+04  0.00000000000E+00 0.  1.
         21   -1    0    0  505  502  0.00000000000E+00 -0.00000000000E+00 -0.24151621005E+02  0.24151621005E+02  0.00000000000E+00 0.  1.
         21    1    1    2  503  504  0.38916721113E+02  0.24290680069E+02  0.16835407557E+04  0.16841656760E+04  0.00000000000E+00 0.  1.
         21    1    1    2  504  502  0.29714173508E+02  0.71695494563E+02  0.44053012046E+03  0.44731416597E+03  0.00000000000E+00 0.  1.
         21    1    1    2  505  501 -0.40232052018E+02 -0.15914259837E+02  0.62574125313E+01  0.43715407893E+02  0.00000000000E+00 0.  1.
          2    1    1    2  501    0 -0.28398842604E+02 -0.80071914795E+02  0.10485461246E+04  0.10519824054E+04  0.00000000000E+00 0.  1.
<scales pt_clust_3="43.42554" pt_clust_4="67.93723" pt_clust_5="43.26525" pt_clust_6="14000.00000"></scales>
<clustering>
<clus scale="   43.265">  2  5  1 -1</clus>
<clus scale="   43.426">  1  3  2 -1</clus>
<clus scale="   67.937">  2  4  1 -1</clus>
<clus scale="   43.265">  2  3  1 -1</clus>
</clustering>
</event>
<event>
 6    0  0.3082502E+002  0.7896615E+02  0.7546771E-02  0.1332011E+00
          1   -1    0    0  505    0 -0.00000000000E+00  0.00000000000E+00  0.17203674103E+04  0.17203674103E+04  0.00000000000E+00 0.  1.
         21   -1    0    0  503  502  0.00000000000E+00 -0.00000000000E+00 -0.10764612158E+03  0.10764612158E+03  0.00000000000E+00 0.  1.
         21    1    1    2  503  501 -0.11987007862E+02 -0.49838277206E+02 -0.48693887455E+02  0.70701038944E+02  0.00000000000E+00 0.  1.
         21    1    1    2  504  502 -0.48125598730E+02  0.42937527477E+02 -0.10787042727E+02  0.65391626449E+02  0.00000000000E+00 0.  1.
         21    1    1    2  505  504  0.12770706314E+03 -0.20531856336E+02  0.46901172886E+03  0.48652096862E+03  0.00000000000E+00 0.  1.
          1    1    1    2  501    0 -0.67594456549E+02  0.27432606065E+02  0.12031904900E+04  0.12053998979E+04  0.00000000000E+00 0.  1.
<scales pt_clust_3="51.25956" pt_clust_4="57.74490" pt_clust_5="14000.00000" pt_clust_6="78.96615"></scales>
<clustering>
<clus scale="   51.260">  2  3  1 -1</clus>
<clus scale="   57.745">  2  4  1 -1</clus>
<clus scale="   78.966">  1  6  2 -1</clus>
<clus scale="   51.260">  2  3  1 -1</clus>
</clustering>
</event>
<event>
 6    0  0.3082502E+002  0.7318653E+02  0.7546771E-02  0.1349581E+00
         21   -1    0    0  501  502  0.00000000000E+00  0.00000000000E+00  0.13392176377E+03  0.13392176377E+03  0.00000000000E+00 0. -1.
          2   -1    0    0  503    0 -0.00000000000E+00 -0.00000000000E+00 -0.22794035943E+03  0.22794035943E+03  0.00000000000E+00 0. -1.
         21    1    1    2  503  504 -0.22859270575E+02  0.26789963771E+02 -0.87124923787E+02  0.93973404509E+02  0.00000000000E+00 0. -1.
         21    1    1    2  504  505  0.18308455677E+02 -0.74024595592E+02  0.32557147740E+02  0.82914462977E+02  0.00000000000E+00 0. -1.
         21    1    1    2  505  502 -0.65919775849E+02  0.23335851677E+01  0.33563218676E+02  0.74009135353E+02  0.00000000000E+00 0. -1.
          2    1    1    2  501    0  0.70470590747E+02  0.44901046653E+02 -0.73014038287E+02  0.11096512037E+03  0.00000000000E+00 0. -1.
<scales pt_clust_3="35.21716" pt_clust_4="73.18653" pt_clust_5="69.56824" pt_clust_6="14000.00000"></scales>
<clustering>
<clus scale="   35.217">  2  3  1 -1</clus>
<clus scale="   69.568">  1  5  2 -1</clus>
<clus scale="   73.187">  1  4  2 -1</clus>
<clus scale="   69.568">  1  3  2 -1</clus>
</clustering>
</event>
<event>
 6    0  0.3082502E+002  0.1185448E+03  0.7546771E-02  0.1245517E+00
         21   -1    0    0  504  502  0.00000000000E+00  0.00000000000E+00  0.70584526358E+03  0.70584526358E+03  0.00000000000E+00 0.  1.
          1   -1    0    0  505    0 -0.00000000000E+00 -0.00000000000E+00 -0.11233170090E+03  0.11233170090E+03  0.00000000000E+00 0.  1.
         21    1    1    2  503  501 -0.59392415081E+01  0.35886835467E+02 -0.81245973955E+01  0.37271284286E+02  0.00000000000E+00 0. -1.
         21    1    1    2  504  503  0.25994150836E+02 -0.10917499170E+03  0.61186137134E+03  0.62206849497E+03  0.00000000000E+00 0.  1.
         21    1    1    2  505  502 -0.47993431325E+02  0.14825395652E+02  0.49640322674E+02  0.70620984429E+02  0.00000000000E+00 0.  1.
          1    1    1    2  501    0  0.27938521997E+02  0.58462760577E+02 -0.59863533948E+02  0.88216200793E+02  0.00000000000E+00 0.  1.
<scales pt_clust_3="31.24405" pt_clust_4="110.96825" pt_clust_5="50.23108" pt_clust_6="31.24405"></scales>
<clustering>
<clus scale="   31.244">  3  6 -1 -1</clus>
<clus scale="   50.231">  2  5  1 -1</clus>
<clus scale="  110.968">  1  4  2 -1</clus>
<clus scale="  110.968">  1  3  2 -1</clus>
</clustering>
</event>
<event>
 6    0  0.3082502E+002  0.1318374E+03  0.7546771E-02  0.1224755E+00
         21   -1    0    0  504  502  0.00000000000E+00  0.00000000000E+00  0.20322277694E+03  0.20322277694E+03  0.00000000000E+00 0. -1.
         -2   -1    0    0    0  501 -0.00000000000E+00 -0.00000000000E+00 -0.10558202005E+04  0.10558202005E+04  0.00000000000E+00 0.  1.
         21    1    1    2  503  501 -0.33274957155E+02 -0.70305039881E+01 -0.12745153258E+03  0.13191112128E+03  0.00000000000E+00 0.  1.
         21    1    1    2  504  503 -0.43081201484E+02 -0.93883934989E+01  0.90070220261E+02  0.10028348035E+03  0.00000000000E+00 0. -1.
         21    1    1    2  505  502  0.12032220916E+02 -0.11943326694E+03  0.63204078935E+02  0.13566073561E+03  0.00000000000E+00 0. -1.
         -2    1    1    2    0  505  0.64323937723E+02  0.13585216442E+03 -0.87842019022E+03  0.89118764025E+03  0.00000000000E+00 0.  1.
<scales pt_clust_3="34.00957" pt_clust_4="44.27983" pt_clust_5="14000.00000" pt_clust_6="131.83735"></scales>
<clustering>
<clus scale="   34.010">  2  3  1 -1</clus>
<clus scale="   44.280">  1  4  2 -1</clus>
<clus scale="  131.837">  2  6  1 -1</clus>
<clus scale="   44.280">  1  3  2 -1</clus>
</clustering>
</event>
<event>
 6    0  0.3082502E+002  0.1007335E+03  0.7546771E-02  0.1278761E+00
         -2   -1    0    0    0  501 -0.00000000000E+00  0.00000000000E+00  0.77570029538E+03  0.77570029538E+03  0.00000000000E+00 0.  1.
         21   -1    0    0  503  502  0.00000000000E+00 -0.00000000000E+00 -0.23665817592E+03  0.23665817592E+03  0.00000000000E+00 0. -1.
         21    1    1    2  503  501  0.57942953808E+02 -0.20128065278E+02 -0.15447592237E+03  0.16620871066E+03  0.00000000000E+00 0. -1.
         21    1    1    2  504  502 -0.31215405202E+02  0.13098705096E+02 -0.21649615053E+02  0.40183123684E+02  0.00000000000E+00 0. -1.
         21    1    1    2  505  504 -0.10493974518E+03 -0.12518383927E+02  0.21775713947E+02  0.10790385429E+03  0.00000000000E+00 0. -1.
         -2    1    1    2    0  505  0.78212196569E+02  0.19547744109E+02  0.69339194294E+03  0.69806278265E+03  0.00000000000E+00 0.  1.
<scales pt_clust_3="61.33942" pt_clust_4="32.95832" pt_clust_5="32.95832" pt_clust_6="82.19533"></scales>
<clustering>
<clus scale="   32.958">  4  5 -1 -1</clus>
<clus scale="   61.339">  2  3  1 -1</clus>
<clus scale="   82.195">  1  6  2 -1</clus>
<clus scale="   61.339">  2  3  1 -1</clus>
</clustering>
</event>
<event>
 6    0  0.3082502E+002  0.8198884E+02  0.7546771E-02  0.1323500E+00
          2   -1    0    0  504    0 -0.00000000000E+00  0.00000000000E+00  0.47054815929E+04  0.47054815929E+04  0.00000000000E+00 0. -1.
         21   -1    0    0  501  502  0.00000000000E+00 -0.00000000000E+00 -0.19468626226E+02  0.19468626226E+02  0.00000000000E+00 0. -1.
         21    1    1    2  503  502 -0.24022561008E+02  0.26166353194E+02  0.10045035213E+02  0.36914281915E+02  0.00000000000E+00 0. -1.
         21    1    1    2  504  505  0.68889166210E+02  0.16240337626E+02  0.19921522300E+04  0.19934091334E+04  0.00000000000E+00 0. -1.
         21    1    1    2  505  503  0.41997330038E+02  0.15520386195E+02  0.11094906267E+03  0.11964260372E+03  0.00000000000E+00 0. -1.
          2    1    1    2  501    0 -0.86863935241E+02 -0.57927077015E+02  0.25728666388E+04  0.25749842001E+04  0.00000000000E+00 0. -1.
<scales pt_clust_3="35.52128" pt_clust_4="81.98884" pt_clust_5="42.32016" pt_clust_6="14000.00000"></scales>
<clustering>
<clus scale="   35.521">  2  3  1 -1</clus>
<clus scale="   42.320">  2  5  1 -1</clus>
<clus scale="   81.989">  1  4  2 -1</clus>
<clus scale="   35.521">  2  3  1 -1</clus>
</clustering>
</event>
<event>
 6    0  0.3082502E+002  0.8840974E+02  0.7546771E-02  0.1306749E+00
         21   -1    0    0  501  502  0.00000000000E+00  0.00000000000E+00  0.59689802548E+02  0.59689802548E+02  0.00000000000E+00 0. -1.
          1   -1    0    0  505    0 -0.00000000000E+00 -0.00000000000E+00 -0.56615347993E+03  0.56615347993E+03  0.00000000000E+00 0.  1.
         21    1    1    2  503  502  0.37021467088E+02  0.36659667022E+02  0.11917892345E+02  0.53446762011E+02  0.00000000000E+00 0. -1.
         21    1    1    2  504  503  0.63485327081E+02  0.16853745819E+02 -0.55205552788E+02  0.85802613954E+02  0.00000000000E+00 0.  1.
         21    1    1    2  505  504  0.38292635637E+00 -0.43153225873E+02 -0.19884126804E+03  0.20347038461E+03  0.00000000000E+00 0. -1.
          1    1    1    2  501    0 -0.10088972053E+03 -0.10360186968E+02 -0.26433474890E+03  0.28312352190E+03  0.00000000000E+00 0.  1.
<scales pt_clust_3="50.41989" pt_clust_4="88.40974" pt_clust_5="43.15492" pt_clust_6="14000.00000"></scales>
<clustering>
<clus scale="   43.155">  2  5  1 -1</clus>
<clus scale="   50.420">  1  3  2 -1</clus>
<clus scale="   88.410">  1  4  2 -1</clus>
<clus scale="   50.420">  1  3  2 -1</clus>
</clustering>
</event>
<event>
 6    0  0.3082502E+002  0.1091941E+03  0.7546771E-02  0.1262070E+00
         21   -1    0    0  505  502  0.00000000000E+00  0.00000000000E+00  0.52892563110E+02  0.52892563110E+02  0.00000000000E+00 0. -1.
          1   -1    0    0  504    0 -0.00000000000E+00 -0.00000000000E+00 -0.10231210653E+04  0.10231210653E+04  0.00000000000E+00 0. -1.
         21    1    1    2  503  501  0.35465382961E+02  0.59828249165E+02 -0.39926591488E+03  0.40527827918E+03  0.00000000000E+00 0. -1.
         21    1    1    2  504  502 -0.28046338456E+02 -0.23765095049E+02 -0.13450425866E+03  0.13943734235E+03  0.00000000000E+00 0. -1.
         21    1    1    2  505  503 -0.73851657582E+02 -0.63378142778E+02 -0.88735764718E+01  0.97722037786E+02  0.00000000000E+00 0. -1.
          1    1    1    2  501    0  0.66432613077E+02  0.27314988662E+02 -0.42758475221E+03  0.43357596913E+03  0.00000000000E+00 0. -1.
<scales pt_clust_3="44.48187" pt_clust_4="36.76108" pt_clust_5="99.52929" pt_clust_6="44.48187"></scales>
<clustering>
<clus scale="   36.761">  2  4  1 -1</clus>
<clus scale="   44.482">  3  6 -1 -1</clus>
<clus scale="   99.529">  1  5  2 -1</clus>
<clus scale="   99.529">  1  3  2 -1</clus>
</clustering>
</event>
<event>
 6    0  0.3082502E+002  0.1050400E+03  0.7546771E-02  0.1270041E+00
         21   -1    0    0  504  502  0.00000000000E+00  0.00000000000E+00  0.26936407286E+03  0.26936407286E+03  0.00000000000E+00 0.  1.
          2   -1    0    0  503    0 -0.00000000000E+00 -0.00000000000E+00 -0.16061064319E+04  0.16061064319E+04  0.00000000000E+00 0. -1.
         21    1    1    2  503  502 -0.99474706975E+02 -0.72051676361E+02 -0.93855950292E+02  0.15458201965E+03  0.00000000000E+00 0.  1.
         21    1    1    2  504  505  0.68759330475E+02 -0.41457365259E+02  0.22912369095E+03  0.24278431666E+03  0.00000000000E+00 0.  1.
         21    1    1    2  505  501  0.13392712703E+02  0.70670129583E+02 -0.51732617763E+03  0.52230260006E+03  0.00000000000E+00 0. -1.
          2    1    1    2  501    0  0.17322663797E+02  0.42838912037E+02 -0.95468392208E+03  0.95580156839E+03  0.00000000000E+00 0. -1.
<scales pt_clust_3="105.04000" pt_clust_4="80.21545" pt_clust_5="14000.00000" pt_clust_6="46.20873"></scales>
<clustering>
<clus scale="   46.209">  2  6  1 -1</clus>
<clus scale="   80.215">  1  4  2 -1</clus>
<clus scale="  105.040">  1  3  2 -1</clus>
<clus scale="   80.215">  1  3  2 -1</clus>
</clustering>
</event>
<event>
 6    0  0.3082502E+002  0.1709264E+03  0.7546771E-02  0.1176885E+00
          1   -1    0    0  503    0 -0.00000000000E+00  0.00000000000E+00  0.31654848412E+03  0.31654848412E+03  0.00000000000E+00 0.  1.
         21   -1    0    0  504  502  0.00000000000E+00 -0.00000000000E+00 -0.36506712805E+03  0.36506712805E+03  0.00000000000E+00 0. -1.
         21    1    1    2  503  502 -0.53780100790E+02 -0.19523776704E+02  0.18082736928E+03  0.18966289721E+03  0.00000000000E+00 0.  1.
         21    1    1    2  504  505  0.16768940263E+02  0.42550248822E+02 -0.89435866318E+02  0.10045145701E+03  0.00000000000E+00 0. -1.
         21    1    1    2  505  501  0.13127925844E+03  0.28555252093E+02 -0.21979476894E+03  0.25760315715E+03  0.00000000000E+00 0. -1.
          1    1    1    2  501    0 -0.94268097913E+02 -0.51581724210E+02  0.79884622054E+02  0.13389810080E+03  0.00000000000E+00 0.  1.
<scales pt_clust_3="57.21431" pt_clust_4="43.68241" pt_clust_5="43.68241" pt_clust_6="153.65738"></scales>
<clustering>
<clus scale="   43.682">  4  5 -1 -1</clus>
<clus scale="   57.214">  1  3  2 -1</clus>
<clus scale="  153.657">  1  6  2 -1</clus>
<clus scale="  170.926">  2  3  1 -1</clus>
</clustering>
</event>
<event>
 6    0  0.3082502E+002  0.1010805E+03  0.7546771E-02  0.1278040E+00
         21   -1    0    0  501  502  0.00000000000E+00  0.00000000000E+00  0.26625728831E+03  0.26625728831E+03  0.00000000000E+00 0.  1.
          2   -1    0    0  504    0 -0.00000000000E+00 -0.00000000000E+00 -0.41867524241E+04  0.41867524241E+04  0.00000000000E+00 0. -1.
         21    1    1    2  503  505 -0.69959942413E+02  0.71808656169E+02 -0.84687034490E+02  0.13123555331E+03  0.00000000000E+00 0.  1.
         21    1    1    2  504  503  0.79214323291E+00 -0.64441210625E+02 -0.66026694970E+03  0.66340465930E+03  0.00000000000E+00 0.  1.
         21    1    1    2  505  502  0.80727890786E+02  0.46299478668E+02  0.23221622395E+03  0.25016995971E+03  0.00000000000E+00 0.  1.
          2    1    1    2  501    0 -0.11560091606E+02 -0.53666924212E+02 -0.34077573755E+04  0.34081995401E+04  0.00000000000E+00 0. -1.
<scales pt_clust_3="14000.00000" pt_clust_4="101.08051" pt_clust_5="92.64036" pt_clust_6="54.89785"></scales>
<clustering>
<clus scale="   54.898">  2  6  1 -1</clus>
<clus scale="   92.640">  1  5  2 -1</clus>
<clus scale="  101.081">  2  4  1 -1</clus>
<clus scale="   92.640">  1  3  2 -1</clus>
</clustering>
</event>
<event>
 6    0  0.3082502E+002  0.1182536E+03  0.7546771E-02  0.1246006E+00
         21   -1    0    0  505  502  0.00000000000E+00  0.00000000000E+00  0.52635712506E+03  0.52635712506E+03  0.00000000000E+00 0.  1.
          2   -1    0    0  504    0 -0.00000000000E+00 -0.00000000000E+00 -0.26957555103E+04  0.26957555103E+04  0.00000000000E+00 0.  1.
         21    1    1    2  503  502 -0.13447147943E+02 -0.38569320701E+02  0.50813839480E+03  0.50977744807E+03  0.00000000000E+00 0.  1.
         21    1    1    2  504  503  0.82312573518E+02 -0.23422334187E+02 -0.13314156517E+03  0.15827394566E+03  0.00000000000E+00 0. -1.
         21    1    1    2  505  501 -0.10674375892E+02 -0.49777004888E+02 -0.20329692286E+03  0.20957416673E+03  0.00000000000E+00 0. -1.
          2    1    1    2  501    0 -0.58191049684E+02  0.11176865978E+03 -0.23410982920E+04  0.23444870749E+04  0.00000000000E+00 0.  1.
<scales pt_clust_3="40.84628" pt_clust_4="118.25361" pt_clust_5="58.22726" pt_clust_6="14000.00000"></scales>
<clustering>
<clus scale="   40.846">  1  3  2 -1</clus>
<clus scale="   58.227">  1  5  2 -1</clus>
<clus scale="  118.254">  1  4  2 -1</clus>
<clus scale="   40.846">  1  3  2 -1</clus>
</clustering>
</event>
<event>
 6    0  0.3082502E+002  0.1078844E+03  0.7546771E-02  0.1264539E+00
         21   -1    0    0  501  502  0.00000000000E+00  0.00000000000E+00  0.38000582743E+02  0.38000582743E+02  0.00000000000E+00 0.  1.
          1   -1    0    0  503    0 -0.00000000000E+00 -0.00000000000E+00 -0.30714492688E+04  0.30714492688E+04  0.00000000000E+00 0.  1.
         21    1    1    2  503  504 -0.62176628019E+01  0.47566343105E+02 -0.45084110774E+03  0.45338606149E+03  0.00000000000E+00 0.  1.
         21    1    1    2  504  505 -0.44515652567E+02  0.91805055706E+02 -0.44848434241E+03  0.45994349323E+03  0.00000000000E+00 0.  1.
         21    1    1    2  505  502  0.34041359487E+02 -0.56866473934E+02 -0.62368184703E+01  0.66569572013E+02  0.00000000000E+00 0.  1.
          1    1    1    2  501    0  0.16691955883E+02 -0.82504924878E+02 -0.21278864175E+04  0.21295507248E+04  0.00000000000E+00 0.  1.
<scales pt_clust_3="39.90202" pt_clust_4="39.90202" pt_clust_5="66.27677" pt_clust_6="90.84427"></scales>
<clustering>
<clus scale="   39.902">  3  4 -1 -1</clus>
<clus scale="   66.277">  1  5  2 -1</clus>
<clus scale="   90.844">  2  6  1 -1</clus>
<clus scale="   66.277">  1  3  2 -1</clus>
</clustering>
</event>
<event>
 6    0  0.3082502E+002  0.1960730E+03  0.7546771E-02  0.1153095E+00
         -3   -1    0    0    0  501 -0.00000000000E+00  0.00000000000E+00  0.84520294549E+03  0.84520294549E+03  0.00000000000E+00 0. -1.
         21   -1    0    0  501  502  0.00000000000E+00 -0.00000000000E+00 -0.17632898934E+03  0.17632898934E+03  0.00000000000E+00 0.  1.
         21    1    1    2  503  502  0.20488091240E+02  0.99232624142E+02 -0.79185560329E+02  0.12859715604E+03  0.00000000000E+00 0.  1.
         21    1    1    2  504  503 -0.82241383081E+02  0.98091694412E+02  0.14462176689E+02  0.12882072876E+03  0.00000000000E+00 0. -1.
         21    1    1    2  505  504  0.10963011332E+02 -0.65890814377E+02  0.32816400445E+03  0.33489311856E+03  0.00000000000E+00 0. -1.
         -3    1    1    2    0  505  0.50790280509E+02 -0.13143350418E+03  0.40543333534E+03  0.42922093148E+03  0.00000000000E+00 0. -1.
<scales pt_clust_3="101.32559" pt_clust_4="188.38728" pt_clust_5="37.42674" pt_clust_6="37.42674"></scales>
<clustering>
<clus scale="   37.427">  5  6 -1 -1</clus>
<clus scale="  101.326">  2  3  1 -1</clus>
<clus scale="  188.387">  2  4  1 -1</clus>
<clus scale="  101.326">  2  3  1 -1</clus>
</clustering>
</event>
<event>
 6    0  0.3082502E+002  0.2078788E+03  0.7546771E-02  0.1143257E+00
         21   -1    0    0  503  502  0.00000000000E+00  0.00000000000E+00  0.46478597261E+03  0.46478597261E+03  0.00000000000E+00 0.  1.
          2   -1    0    0  504    0 -0.00000000000E+00 -0.00000000000E+00 -0.46447144015E+03  0.46447144015E+03  0.00000000000E+00 0.  1.
         21    1    1    2  503  501  0.98144989121E+01 -0.37110645260E+02  0.14379876063E+03  0.14883416254E+03  0.00000000000E+00 0. -1.
         21    1    1    2  504  505  0.12875095815E+03  0.16662535742E+03 -0.38763980153E+03  0.44114105985E+03  0.00000000000E+00 0.  1.
         21    1    1    2  505  502  0.22575030116E+02 -0.26740137645E+02  0.87765012840E+01  0.36078995562E+02  0.00000000000E+00 0. -1.
          2    1    1    2  501    0 -0.16114048717E+03 -0.10277457451E+03  0.23537907207E+03  0.30320319481E+03  0.00000000000E+00 0.  1.
<scales pt_clust_3="49.09729" pt_clust_4="207.87878" pt_clust_5="34.99524" pt_clust_6="14000.00000"></scales>
<clustering>
<clus scale="   34.995">  1  5  2 -1</clus>
<clus scale="   49.097">  1  3  2 -1</clus>
<clus scale="  207.879">  2  4  1 -1</clus>
<clus scale="   34.995">  1  3  2 -1</clus>
</clustering>
</event>
<event>
 6    0  0.3082502E+002  0.8644531E+02  0.7546771E-02  0.1311696E+00
         21   -1    0    0  504  502  0.00000000000E+00  0.00000000000E+00  0.73751541862E+03  0.73751541862E+03  0.00000000000E+00 0. -1.
          2   -1    0    0  503    0 -0.00000000000E+00 -0.00000000000E+00 -0.98947842877E+02  0.98947842877E+02  0.00000000000E+00 0. -1.
         21    1    1    2  503  502 -0.38921670645E+02  0.67364739798E+01 -0.14331638416E+02  0.42019904654E+02  0.00000000000E+00 0. -1.
         21    1    1    2  504  505 -0.68968238072E+02  0.45710315353E+02  0.51728393741E+03  0.52385944937E+03  0.00000000000E+00 0. -1.
         21    1    1    2  505  501  0.15835655749E+03  0.21667470343E+01  0.10584476020E+03  0.19048518933E+03  0.00000000000E+00 0. -1.
          2    1    1    2  501    0 -0.50466648770E+02 -0.54613536367E+02  0.29770516545E+02  0.80098718142E+02  0.00000000000E+00 0. -1.
<scales pt_clust_3="39.50034" pt_clust_4="14000.00000" pt_clust_5="86.44531" pt_clust_6="82.83713"></scales>
<clustering>
<clus scale="   39.500">  2  3  1 -1</clus>
<clus scale="   82.837">  2  6  1 -1</clus>
<clus scale="   86.445">  2  5  1 -1</clus>
<clus scale="   86.445">  1  3  2 -1</clus>
</clustering>
</event>
<event>
 6    0  0.3082502E+002  0.5186862E+03  0.7546771E-02  0.1009013E+00
         21   -1    0    0  504  502  0.00000000000E+00  0.00000000000E+00  0.90099136766E+02  0.90099136766E+02  0.00000000000E+00 0.  1.
          2   -1    0    0  505    0 -0.00000000000E+00 -0.00000000000E+00 -0.38683312662E+04  0.38683312662E+04  0.00000000000E+00 0. -1.
         21    1    1    2  503  502  0.12195408438E+03  0.49589778802E+01 -0.13714309779E+03  0.18359090236E+03  0.00000000000E+00 0.  1.
         21    1    1    2  504  501  0.49672284973E+02  0.42021595882E+02 -0.18381193065E+03  0.19498711820E+03  0.00000000000E+00 0.  1.
         21    1    1    2  505  503  0.30804422507E+03 -0.18410551469E+03 -0.80942619926E+03  0.88541338209E+03  0.00000000000E+00 0.  1.
          2    1    1    2  501    0 -0.47967059442E+03  0.13712494093E+03 -0.26478509017E+04  0.26944390003E+04  0.00000000000E+00 0. -1.
<scales pt_clust_3="104.95226" pt_clust_4="65.06267" pt_clust_5="104.95226" pt_clust_6="489.13254"></scales>
<clustering>
<clus scale="   65.063">  1  4  2 -1</clus>
<clus scale="  104.952">  3  5 -1 -1</clus>
<clus scale="  489.133">  2  6  1 -1</clus>
<clus scale="   65.063">  1  3  2 -1</clus>
</clustering>
</event>
<event>
 6    0  0.3082502E+002  0.1356479E+03  0.7546771E-02  0.1219308E+00
         21   -1    0    0  505  502  0.00000000000E+00  0.00000000000E+00  0.52233214943E+02  0.52233214943E+02  0.00000000000E+00 0.  1.
          2   -1    0    0  503    0 -0.00000000000E+00 -0.00000000000E+00 -0.68239324604E+03  0.68239324604E+03  0.00000000000E+00 0.  1.
         21    1    1    2  503  504  0.14281247958E+03  0.52569817099E+02 -0.16048245564E+03  0.22116421175E+03  0.00000000000E+00 0.  1.
         21    1    1    2  504  502 -0.25856711638E+02 -0.31472430170E+02 -0.19440887287E+02  0.45133485308E+02  0.00000000000E+00 0.  1.
         21    1    1    2  505  501 -0.27067238015E+02 -0.20126261544E+02 -0.19082578877E+03  0.19378385752E+03  0.00000000000E+00 0.  1.
          2    1    1    2  501    0 -0.89888529929E+02 -0.97112538404E+00 -0.25941089941E+03  0.27454490640E+03  0.00000000000E+00 0.  1.
<scales pt_clust_3="126.11644" pt_clust_4="40.73185" pt_clust_5="30.59694" pt_clust_6="30.59694"></scales>
<clustering>
<clus scale="   30.597">  5  6 -1 -1</clus>
<clus scale="   40.732">  1  4  2 -1</clus>
<clus scale="  126.116">  1  3  2 -1</clus>
<clus scale="   40.732">  1  3  2 -1</clus>
</clustering>
</event>
<event>
 6    0  0.3082502E+002  0.2177251E+03  0.7546771E-02  0.1135591E+00
          2   -1    0    0  503    0 -0.00000000000E+00  0.00000000000E+00  0.48167059797E+03  0.48167059797E+03  0.00000000000E+00 0.  1.
         21   -1    0    0  501  502  0.00000000000E+00 -0.00000000000E+00 -0.12277797120E+04  0.12277797120E+04  0.00000000000E+00 0.  1.
         21    1    1    2  503  505  0.30755930673E+02 -0.52230716940E+02  0.51429119348E+02  0.79491693783E+02  0.00000000000E+00 0.  1.
         21    1    1    2  504  502 -0.39203468478E+02  0.58873317809E+02 -0.64172060347E+03  0.64560693337E+03  0.00000000000E+00 0.  1.
         21    1    1    2  505  504 -0.10978886319E+03  0.76614516940E+02 -0.54917371038E+03  0.56525670528E+03  0.00000000000E+00 0.  1.
          2    1    1    2  501    0  0.11823640100E+03 -0.83257117809E+02  0.39335608045E+03  0.41909497756E+03  0.00000000000E+00 0.  1.
<scales pt_clust_3="60.61332" pt_clust_4="62.67611" pt_clust_5="62.67611" pt_clust_6="199.99599"></scales>
<clustering>
<clus scale="   60.613">  1  3  2 -1</clus>
<clus scale="   62.676">  4  5 -1 -1</clus>
<clus scale="  199.996">  1  6  2 -1</clus>
<clus scale="  217.725">  2  3  1 -1</clus>
</clustering>
</event>
<event>
 6    0  0.3619098E+002  0.9397220E+02  0.7546771E-02  0.1293508E+00
         21   -1    0    0  505  502  0.00000000000E+00  0.00000000000E+00  0.96937406908E+03  0.96937406908E+03  0.00000000000E+00 0. -1.
         -1   -1    0    0    0  501 -0.00000000000E+00 -0.00000000000E+00 -0.13388552769E+04  0.13388552769E+04  0.00000000000E+00 0. -1.
         21    1    1    2  503  504  0.53941793916E+02  0.45708451524E+02  0.40878835807E+02  0.81670428482E+02  0.00000000000E+00 0. -1.
         21    1    1    2  504  502 -0.63208397455E+02  0.24940500871E+02  0.12767112620E+03  0.14462795911E+03  0.00000000000E+00 0.  1.
         21    1    1    2  505  501  0.99190939076E+02 -0.40748885754E+02  0.76649873257E+03  0.77396357868E+03  0.00000000000E+00 0. -1.
         -1    1    1    2    0  503 -0.89924335537E+02 -0.29900066641E+02 -0.13045299024E+04  0.13079673797E+04  0.00000000000E+00 0. -1.
<scales pt_clust_3="14000.00000" pt_clust_4="67.95094" pt_clust_5="44.43593" pt_clust_6="93.97220"></scales>
<clustering>
<clus scale="   67.951">  1  4  2 -1</clus>
<clus scale="   44.436">  1  5  2 -1</clus>
<clus scale="   93.972">  2  6  1 -1</clus>
<clus scale="   67.951">  1  3  2 -1</clus>
</clustering>
</event>
<event>
 6    0  0.3082502E+002  0.9845016E+02  0.7546771E-02  0.1283589E+00
          1   -1    0    0  503    0 -0.00000000000E+00  0.00000000000E+00  0.15182555234E+04  0.15182555234E+04  0.00000000000E+00 0. -1.
         21   -1    0    0  504  502  0.00000000000E+00 -0.00000000000E+00 -0.12108281687E+03  0.12108281687E+03  0.00000000000E+00 0. -1.
         21    1    1    2  503  505 -0.36463043857E+02 -0.15741790658E+02  0.11543288586E+03  0.12207419334E+03  0.00000000000E+00 0. -1.
         21    1    1    2  504  501 -0.43140441298E+02 -0.38468098134E+02  0.51112437288E+02  0.77158107124E+02  0.00000000000E+00 0. -1.
         21    1    1    2  505  502  0.13009215508E+03 -0.94771713008E+01 -0.62352860137E+02  0.14457408051E+03  0.00000000000E+00 0. -1.
          1    1    1    2  501    0 -0.50488669923E+02  0.63687060093E+02  0.12929802435E+04  0.12955319593E+04  0.00000000000E+00 0. -1.
<scales pt_clust_3="39.71596" pt_clust_4="59.53051" pt_clust_5="14000.00000" pt_clust_6="98.45016"></scales>
<clustering>
<clus scale="   39.716">  1  3  2 -1</clus>
<clus scale="   59.531">  2  4  1 -1</clus>
<clus scale="   98.450">  1  6  2 -1</clus>
<clus scale="   59.531">  2  3  1 -1</clus>
</clustering>
</event>
<event>
 6    0  0.3082502E+002  0.6831642E+02  0.7546771E-02  0.1365914E+00
         21   -1    0    0  504  502  0.00000000000E+00  0.00000000000E+00  0.26809185820E+03  0.26809185820E+03  0.00000000000E+00 0. -1.
          2   -1    0    0  503    0 -0.00000000000E+00 -0.00000000000E+00 -0.36623742643E+03  0.36623742643E+03  0.00000000000E+00 0.  1.
         21    1    1    2  503  502 -0.37330424253E+02  0.11508802032E+02 -0.16589377058E+03  0.17043108935E+03  0.00000000000E+00 0.  1.
         21    1    1    2  504  505 -0.56473671677E+02  0.15732172906E+02  0.18185477883E+03  0.19107050385E+03  0.00000000000E+00 0. -1.
         21    1    1    2  505  501  0.43977359270E+02 -0.82960107989E+02  0.39603783685E+02  0.10190607111E+03  0.00000000000E+00 0. -1.
          2    1    1    2  501    0  0.49826736660E+02  0.55719133052E+02 -0.15371036016E+03  0.17092162032E+03  0.00000000000E+00 0.  1.
<scales pt_clust_3="39.06422" pt_clust_4="59.53245" pt_clust_5="68.31642" pt_clust_6="14000.00000"></scales>
<clustering>
<clus scale="   39.064">  2  3  1 -1</clus>
<clus scale="   59.532">  1  4  2 -1</clus>
<clus scale="   68.316">  1  5  2 -1</clus>
<clus scale="   59.532">  1  3  2 -1</clus>
</clustering>
</event>
<event>
 6    0  0.3082502E+002  0.6109974E+02  0.7546771E-02  0.1393274E+00
          1   -1    0    0  503    0 -0.00000000000E+00  0.00000000000E+00  0.39005788879E+04  0.39005788879E+04  0.00000000000E+00 0. -1.
         21   -1    0    0  504  502  0.00000000000E+00 -0.00000000000E+00 -0.11804636862E+02  0.11804636862E+02  0.00000000000E+00 0. -1.
         21    1    1    2  503  505  0.27064308466E+02  0.27992264933E+02  0.15209966719E+04  0.15214949620E+04  0.00000000000E+00 0. -1.
         21    1    1    2  504  501 -0.56948506718E+02  0.10295363133E+02  0.15026620404E+03  0.16102502599E+03  0.00000000000E+00 0. -1.
         21    1    1    2  505  502  0.67377213240E+02  0.42546479288E+02  0.30374118002E+03  0.31402005701E+03  0.00000000000E+00 0. -1.
          1    1    1    2  501    0 -0.37493014989E+02 -0.80834107355E+02  0.19137701952E+04  0.19158434798E+04  0.00000000000E+00 0. -1.
<scales pt_clust_3="38.93641" pt_clust_4="56.49489" pt_clust_5="14000.00000" pt_clust_6="61.09974"></scales>
<clustering>
<clus scale="   38.936">  1  3  2 -1</clus>
<clus scale="   56.495">  2  4  1 -1</clus>
<clus scale="   61.100">  1  6  2 -1</clus>
<clus scale="   56.495">  2  3  1 -1</clus>
</clustering>
</event>
<event>
 6    0  0.3082502E+002  0.8111117E+02  0.7546771E-02  0.1325927E+00
         21   -1    0    0  503  502  0.00000000000E+00  0.00000000000E+00  0.33813217698E+04  0.33813217698E+04  0.00000000000E+00 0. -1.
          4   -1    0    0  505    0 -0.00000000000E+00 -0.00000000000E+00 -0.28173664498E+02  0.28173664498E+02  0.00000000000E+00 0.  1.
         21    1    1    2  503  501 -0.73179460516E+02 -0.69670112477E+01  0.16531201074E+04  0.16547537164E+04  0.00000000000E+00 0. -1.
         21    1    1    2  504  502  0.15379675163E+02  0.66298302584E+02  0.14345702477E+04  0.14361837608E+04  0.00000000000E+00 0. -1.
         21    1    1    2  505  504  0.37543160109E+01  0.51068260826E+02  0.10101512457E+03  0.11325245050E+03  0.00000000000E+00 0. -1.
          4    1    1    2  501    0  0.54045469343E+02 -0.11039955216E+03  0.16444262574E+03  0.20530550658E+03  0.00000000000E+00 0.  1.
<scales pt_clust_3="14000.00000" pt_clust_4="69.91014" pt_clust_5="51.20608" pt_clust_6="81.11117"></scales>
<clustering>
<clus scale="   51.206">  2  5  1 -1</clus>
<clus scale="   69.910">  1  4  2 -1</clus>
<clus scale="   81.111">  2  6  1 -1</clus>
<clus scale="   69.910">  1  3  2 -1</clus>
</clustering>
</event>
<event>
 6    0  0.3082502E+002  0.1459370E+03  0.7546771E-02  0.1205556E+00
         21   -1    0    0  501  502  0.00000000000E+00  0.00000000000E+00  0.31021280011E+03  0.31021280011E+03  0.00000000000E+00 0.  1.
          2   -1    0    0  503    0 -0.00000000000E+00 -0.00000000000E+00 -0.28450444749E+04  0.28450444749E+04  0.00000000000E+00 0. -1.
         21    1    1    2  503  504 -0.29624468297E+02  0.51667987334E+01 -0.13578232969E+03  0.13907244870E+03  0.00000000000E+00 0.  1.
         21    1    1    2  504  505  0.49571307070E+02 -0.95459108924E+02 -0.46894481867E+02  0.11734073628E+03  0.00000000000E+00 0. -1.
         21    1    1    2  505  502 -0.12453838612E+03  0.98893328040E+02  0.24906681676E+03  0.29550630984E+03  0.00000000000E+00 0.  1.
          2    1    1    2  501    0  0.10459154734E+03 -0.86010178494E+01 -0.26012216800E+04  0.26033377802E+04  0.00000000000E+00 0. -1.
<scales pt_clust_3="30.07166" pt_clust_4="145.93695" pt_clust_5="14000.00000" pt_clust_6="76.20635"></scales>
<clustering>
<clus scale="   30.072">  2  3  1 -1</clus>
<clus scale="   76.206">  2  6  1 -1</clus>
<clus scale="  145.937">  2  4  1 -1</clus>
<clus scale="  145.937">  1  3  2 -1</clus>
</clustering>
</event>
<event>
 6    0  0.3082502E+002  0.1105993E+03  0.7546771E-02  0.1259464E+00
         21   -1    0    0  505  502  0.00000000000E+00  0.00000000000E+00  0.31833227880E+03  0.31833227880E+03  0.00000000000E+00 0. -1.
          2   -1    0    0  503    0 -0.00000000000E+00 -0.00000000000E+00 -0.71020799015E+03  0.71020799015E+03  0.00000000000E+00 0. -1.
         21    1    1    2  503  504  0.31207882923E+02 -0.47780699600E+02 -0.32540623680E+02  0.65694896303E+02  0.00000000000E+00 0. -1.
         21    1    1    2  504  502 -0.22201080663E+02  0.10035485263E+03 -0.11953162871E+03  0.15764452001E+03  0.00000000000E+00 0. -1.
         21    1    1    2  505  501 -0.83332948136E+02  0.71818711909E+02  0.26132794799E+03  0.28353942235E+03  0.00000000000E+00 0. -1.
          2    1    1    2  501    0  0.74326145875E+02 -0.12439286494E+03 -0.50113140696E+03  0.52166143028E+03  0.00000000000E+00 0. -1.
<scales pt_clust_3="57.06949" pt_clust_4="91.68538" pt_clust_5="14000.00000" pt_clust_6="110.59926"></scales>
<clustering>
<clus scale="   57.069">  2  3  1 -1</clus>
<clus scale="   91.685">  2  4  1 -1</clus>
<clus scale="  110.599">  2  6  1 -1</clus>
<clus scale="  110.599">  1  3  2 -1</clus>
</clustering>
</event>
<event>
 6    0  0.3082502E+002  0.9172431E+02  0.7546771E-02  0.1298729E+00
          2   -1    0    0  505    0 -0.00000000000E+00  0.00000000000E+00  0.36129345746E+04  0.36129345746E+04  0.00000000000E+00 0. -1.
         21   -1    0    0  504  502  0.00000000000E+00 -0.00000000000E+00 -0.45965674702E+03  0.45965674702E+03  0.00000000000E+00 0.  1.
         21    1    1    2  503  501  0.75271183499E+01 -0.33198176572E+02 -0.32952974093E+03  0.33128330262E+03  0.00000000000E+00 0.  1.
         21    1    1    2  504  503  0.33379843969E+02 -0.53432937544E+01 -0.11537706511E+03  0.12022741752E+03  0.00000000000E+00 0.  1.
         21    1    1    2  505  502  0.30274890658E+02  0.96933182183E+02  0.22746999326E+03  0.24910882892E+03  0.00000000000E+00 0.  1.
          2    1    1    2  501    0 -0.71181852978E+02 -0.58391711857E+02  0.33707146403E+04  0.33719717725E+04  0.00000000000E+00 0. -1.
<scales pt_clust_3="55.27079" pt_clust_4="33.80480" pt_clust_5="14000.00000" pt_clust_6="91.72431"></scales>
<clustering>
<clus scale="   33.805">  2  4  1 -1</clus>
<clus scale="   55.271">  2  3  1 -1</clus>
<clus scale="   91.724">  1  6  2 -1</clus>
<clus scale="   33.805">  2  3  1 -1</clus>
</clustering>
</event>
<event>
 6    0  0.3082502E+002  0.8319389E+02  0.7546771E-02  0.1320224E+00
          1   -1    0    0  503    0 -0.00000000000E+00  0.00000000000E+00  0.73034813931E+03  0.73034813931E+03  0.00000000000E+00 0.  1.
         21   -1    0    0  504  502  0.00000000000E+00 -0.00000000000E+00 -0.44918479840E+02  0.44918479840E+02  0.00000000000E+00 0.  1.
         21    1    1    2  503  505 -0.17209607137E+02 -0.40856776367E+02  0.36868579774E+03  0.37134170814E+03  0.00000000000E+00 0. -1.
         21    1    1    2  504  501  0.11878885686E+02  0.11620575370E+03  0.89181814627E+02  0.14696353690E+03  0.00000000000E+00 0.  1.
         21    1    1    2  505  502 -0.40271100812E+02 -0.47004766505E+02  0.89430122387E+02  0.10876100599E+03  0.00000000000E+00 0.  1.
          1    1    1    2  501    0  0.45601822262E+02 -0.28344210833E+02  0.13813192472E+03  0.14820036811E+03  0.00000000000E+00 0.  1.
<scales pt_clust_3="44.33336" pt_clust_4="83.19389" pt_clust_5="14000.00000" pt_clust_6="59.07445"></scales>
<clustering>
<clus scale="   44.333">  1  3  2 -1</clus>
<clus scale="   59.074">  1  6  2 -1</clus>
<clus scale="   83.194">  1  4  2 -1</clus>
<clus scale="   83.194">  2  3  1 -1</clus>
</clustering>
</event>
<event>
 6    0  0.3082502E+002  0.1201555E+03  0.7546771E-02  0.1242841E+00
         -2   -1    0    0    0  501 -0.00000000000E+00  0.00000000000E+00  0.14835703667E+03  0.14835703667E+03  0.00000000000E+00 0. -1.
         21   -1    0    0  505  502  0.00000000000E+00 -0.00000000000E+00 -0.80445106533E+03  0.80445106533E+03  0.00000000000E+00 0. -1.
         21    1    1    2  503  501 -0.37159203496E+01  0.33187594998E+02  0.20310964006E+02  0.39086567830E+02  0.00000000000E+00 0. -1.
         21    1    1    2  504  502 -0.72489658450E+02 -0.10424930964E+03 -0.69219867360E+03  0.70374830222E+03  0.00000000000E+00 0. -1.
         21    1    1    2  505  503  0.29153530117E+02  0.89728216276E+02 -0.65044438974E+02  0.11459432864E+03  0.00000000000E+00 0.  1.
         -2    1    1    2    0  504  0.47052048682E+02 -0.18666501637E+02  0.80838119904E+02  0.95378903319E+02  0.00000000000E+00 0. -1.
<scales pt_clust_3="33.39498" pt_clust_4="120.15554" pt_clust_5="14000.00000" pt_clust_6="44.69424"></scales>
<clustering>
<clus scale="   33.395">  1  3  2 -1</clus>
<clus scale="   44.694">  1  6  2 -1</clus>
<clus scale="  120.156">  2  4  1 -1</clus>
<clus scale="  120.156">  2  3  1 -1</clus>
</clustering>
</event>
<event>
 6    0  0.3082502E+002  0.9820246E+02  0.7546771E-02  0.1284122E+00
         21   -1    0    0  501  502  0.00000000000E+00  0.00000000000E+00  0.70316397619E+03  0.70316397619E+03  0.00000000000E+00 0.  1.
          3   -1    0    0  504    0 -0.00000000000E+00 -0.00000000000E+00 -0.22123957317E+03  0.22123957317E+03  0.00000000000E+00 0.  1.
         21    1    1    2  503  502 -0.57342893771E+02  0.57712594548E+01  0.27723846081E+03  0.28316546233E+03  0.00000000000E+00 0.  1.
         21    1    1    2  504  505 -0.45008583982E+01  0.34595309174E+02 -0.47548251991E+01  0.35209395136E+02  0.00000000000E+00 0.  1.
         21    1    1    2  505  503  0.15124424049E+03  0.47766166342E+01  0.37956368469E+03  0.40861501084E+03  0.00000000000E+00 0.  1.
          3    1    1    2  501    0 -0.89400488318E+02 -0.45143185263E+02 -0.17012291728E+03  0.19741368106E+03  0.00000000000E+00 0.  1.
<scales pt_clust_3="57.75171" pt_clust_4="34.88686" pt_clust_5="98.20246" pt_clust_6="14000.00000"></scales>
<clustering>
<clus scale="   34.887">  2  4  1 -1</clus>
<clus scale="   57.752">  1  3  2 -1</clus>
<clus scale="   98.202">  1  5  2 -1</clus>
<clus scale="   57.752">  1  3  2 -1</clus>
</clustering>
</event>
<event>
 6    0  0.3082502E+002  0.9622762E+02  0.7546771E-02  0.1288435E+00
          2   -1    0    0  504    0 -0.00000000000E+00  0.00000000000E+00  0.13860720842E+04  0.13860720842E+04  0.00000000000E+00 0.  1.
         21   -1    0    0  503  502  0.00000000000E+00 -0.00000000000E+00 -0.12008199583E+03  0.12008199583E+03  0.00000000000E+00 0.  1.
         21    1    1    2  503  501  0.48496770891E+02  0.49135987749E+01 -0.88671582038E+02  0.10118660831E+03  0.00000000000E+00 0.  1.
         21    1    1    2  504  505  0.33645276570E+02 -0.41150171850E+01  0.51241339501E+03  0.51353327583E+03  0.00000000000E+00 0.  1.
         21    1    1    2  505  502 -0.13287106673E+03 -0.51379935376E+02  0.20194738946E+03  0.24713835445E+03  0.00000000000E+00 0.  1.
          2    1    1    2  501    0  0.50729019269E+02  0.50581353786E+02  0.64030088591E+03  0.64429584139E+03  0.00000000000E+00 0.  1.
<scales pt_clust_3="48.98202" pt_clust_4="33.89599" pt_clust_5="14000.00000" pt_clust_6="96.22762"></scales>
<clustering>
<clus scale="   33.896">  1  4  2 -1</clus>
<clus scale="   48.982">  2  3  1 -1</clus>
<clus scale="   96.228">  1  6  2 -1</clus>
<clus scale="   48.982">  2  3  1 -1</clus>
</clustering>
</event>
<event>
 6    0  0.3082502E+002  0.1010183E+03  0.7546771E-02  0.1278169E+00
          3   -1    0    0  504    0 -0.00000000000E+00  0.00000000000E+00  0.84614697855E+03  0.84614697855E+03  0.00000000000E+00 0.  1.
         21   -1    0    0  505  502  0.00000000000E+00 -0.00000000000E+00 -0.43133142926E+03  0.43133142926E+03  0.00000000000E+00 0. -1.
         21    1    1    2  503  502 -0.13341159483E+02 -0.32136774701E+02  0.10531717757E+02  0.36354860796E+02  0.00000000000E+00 0. -1.
         21    1    1    2  504  503  0.15192830919E+02 -0.37796400632E+02  0.11121494390E+03  0.11844050725E+03  0.00000000000E+00 0.  1.
         21    1    1    2  505  501 -0.71865603766E+02  0.88776912735E+02 -0.40503105665E+03  0.42082794833E+03  0.00000000000E+00 0. -1.
          3    1    1    2  501    0  0.70013932330E+02 -0.18843737402E+02  0.69809994428E+03  0.70185509143E+03  0.00000000000E+00 0.  1.
<scales pt_clust_3="34.79596" pt_clust_4="40.95065" pt_clust_5="14000.00000" pt_clust_6="101.01828"></scales>
<clustering>
<clus scale="   34.796">  2  3  1 -1</clus>
<clus scale="   40.951">  1  4  2 -1</clus>
<clus scale="  101.018">  1  6  2 -1</clus>
<clus scale="   34.796">  2  3  1 -1</clus>
</clustering>
</event>
<event>
 6    0  0.3082502E+002  0.1143772E+03  0.7546771E-02  0.1252672E+00
          2   -1    0    0  503    0 -0.00000000000E+00  0.00000000000E+00  0.16436390325E+04  0.16436390325E+04  0.00000000000E+00 0. -1.
         21   -1    0    0  505  502  0.00000000000E+00 -0.00000000000E+00 -0.42956148395E+02  0.42956148395E+02  0.00000000000E+00 0. -1.
         21    1    1    2  503  504  0.41292857354E+02  0.38360171473E+02  0.31813400861E+03  0.32308799151E+03  0.00000000000E+00 0.  1.
         21    1    1    2  504  502  0.38169277809E+02 -0.13458984807E+03  0.12483531379E+03  0.18749713742E+03  0.00000000000E+00 0. -1.
         21    1    1    2  505  501  0.13861187538E+02  0.34353790782E+02  0.47857543387E+02  0.60519913418E+02  0.00000000000E+00 0. -1.
          2    1    1    2  501    0 -0.93323322701E+02  0.61875885810E+02  0.11098560183E+04  0.11154901385E+04  0.00000000000E+00 0. -1.
<scales pt_clust_3="58.63916" pt_clust_4="14000.00000" pt_clust_5="37.04478" pt_clust_6="114.37722"></scales>
<clustering>
<clus scale="   37.045">  2  5  1 -1</clus>
<clus scale="   58.639">  1  3  2 -1</clus>
<clus scale="  114.377">  1  6  2 -1</clus>
<clus scale="   37.045">  2  3  1 -1</clus>
</clustering>
</event>
<event>
 6    0  0.3082502E+002  0.8134414E+02  0.7546771E-02  0.1325280E+00
          2   -1    0    0  504    0 -0.00000000000E+00  0.00000000000E+00  0.10406175024E+04  0.10406175024E+04  0.00000000000E+00 0. -1.
         21   -1    0    0  503  502  0.00000000000E+00 -0.00000000000E+00 -0.17178775108E+03  0.17178775108E+03  0.00000000000E+00 0.  1.
         21    1    1    2  503  505  0.10998252292E+02 -0.62370697648E+02 -0.14514777885E+03  0.15836332651E+03  0.00000000000E+00 0.  1.
         21    1    1    2  504  502 -0.49506463634E+02 -0.24965179265E+02  0.62027176052E+03  0.62274489722E+03  0.00000000000E+00 0. -1.
         21    1    1    2  505  501  0.80100514828E+02  0.52752690621E+02  0.12692473001E+03  0.15908747886E+03  0.00000000000E+00 0. -1.
          2    1    1    2  501    0 -0.41592303486E+02  0.34583186293E+02  0.26678103966E+03  0.27220955090E+03  0.00000000000E+00 0. -1.
<scales pt_clust_3="62.97995" pt_clust_4="14000.00000" pt_clust_5="81.34414" pt_clust_6="54.09174"></scales>
<clustering>
<clus scale="   54.092">  1  6  2 -1</clus>
<clus scale="   62.980">  2  3  1 -1</clus>
<clus scale="   81.344">  2  5  1 -1</clus>
<clus scale="   62.980">  2  3  1 -1</clus>
</clustering>
</event>
<event>
 6    0  0.3082502E+002  0.1038212E+03  0.7546771E-02  0.1272460E+00
          2   -1    0    0  504    0 -0.00000000000E+00  0.00000000000E+00  0.10199647475E+03  0.10199647475E+03  0.00000000000E+00 0.  1.
         21   -1    0    0  501  502  0.00000000000E+00 -0.00000000000E+00 -0.37038723409E+03  0.37038723409E+03  0.00000000000E+00 0.  1.
         21    1    1    2  503  502  0.32305195270E+02 -0.93871756369E+01 -0.21791384856E+03  0.22049532898E+03  0.00000000000E+00 0.  1.
         21    1    1    2  504  505  0.24167644036E+02  0.19487634710E+02 -0.30230969600E+01  0.31192660036E+02  0.00000000000E+00 0.  1.
         21    1    1    2  505  503 -0.10005105177E+03  0.71276552917E+02 -0.20605396157E+02  0.12455979410E+03  0.00000000000E+00 0.  1.
          2    1    1    2  501    0  0.43578212463E+02 -0.81377011991E+02 -0.26848417659E+02  0.96135925713E+02  0.00000000000E+00 0.  1.
<scales pt_clust_3="33.90438" pt_clust_4="31.04582" pt_clust_5="14000.00000" pt_clust_6="103.82124"></scales>
<clustering>
<clus scale="   31.046">  1  4  2 -1</clus>
<clus scale="   33.904">  2  3  1 -1</clus>
<clus scale="  103.821">  1  6  2 -1</clus>
<clus scale="   33.904">  2  3  1 -1</clus>
</clustering>
</event>
<event>
 6    0  0.3082502E+002  0.1553321E+03  0.7546771E-02  0.1194070E+00
          1   -1    0    0  504    0 -0.00000000000E+00  0.00000000000E+00  0.87359779440E+03  0.87359779440E+03  0.00000000000E+00 0. -1.
         21   -1    0    0  501  502  0.00000000000E+00 -0.00000000000E+00 -0.10752143769E+04  0.10752143769E+04  0.00000000000E+00 0. -1.
         21    1    1    2  503  502 -0.15039352622E+01 -0.31540096952E+02 -0.81596726415E+03  0.81657799119E+03  0.00000000000E+00 0. -1.
         21    1    1    2  504  505 -0.42329838153E+02  0.25465291478E+02  0.86809936346E+02  0.99881236058E+02  0.00000000000E+00 0. -1.
         21    1    1    2  505  503  0.99253261486E+02  0.15072425728E+03 -0.21105258234E+03  0.27769084277E+03  0.00000000000E+00 0.  1.
          1    1    1    2  501    0 -0.55419488071E+02 -0.14464945181E+03  0.73859332760E+03  0.75466210131E+03  0.00000000000E+00 0. -1.
<scales pt_clust_3="31.57593" pt_clust_4="49.02653" pt_clust_5="14000.00000" pt_clust_6="155.33213"></scales>
<clustering>
<clus scale="   31.576">  2  3  1 -1</clus>
<clus scale="   49.027">  1  4  2 -1</clus>
<clus scale="  155.332">  1  6  2 -1</clus>
<clus scale="   31.576">  2  3  1 -1</clus>
</clustering>
</event>
<event>
 6    0  0.3082502E+002  0.2380089E+03  0.7546771E-02  0.1121126E+00
          2   -1    0    0  505    0 -0.00000000000E+00  0.00000000000E+00  0.25736796303E+03  0.25736796303E+03  0.00000000000E+00 0.  1.
         21   -1    0    0  504  502  0.00000000000E+00 -0.00000000000E+00 -0.59516643708E+03  0.59516643708E+03  0.00000000000E+00 0.  1.
         21    1    1    2  503  502  0.96000765366E+02  0.22152283736E+03 -0.62255619663E+02  0.24932764909E+03  0.00000000000E+00 0.  1.
         21    1    1    2  504  501  0.48951066323E+02 -0.42537148133E+02 -0.31276118500E+03  0.31941379856E+03  0.00000000000E+00 0.  1.
         21    1    1    2  505  503  0.30146287907E+02 -0.34656062951E+01 -0.88833099523E+01  0.31618385431E+02  0.00000000000E+00 0.  1.
          2    1    1    2  501    0 -0.17509811960E+03 -0.17552008293E+03  0.46101640569E+02  0.25217456704E+03  0.00000000000E+00 0.  1.
<scales pt_clust_3="14000.00000" pt_clust_4="65.18956" pt_clust_5="30.34484" pt_clust_6="238.00887"></scales>
<clustering>
<clus scale="   30.345">  1  5  2 -1</clus>
<clus scale="   65.190">  2  4  1 -1</clus>
<clus scale="  238.009">  1  6  2 -1</clus>
<clus scale="   65.190">  2  3  1 -1</clus>
</clustering>
</event>
<event>
 6    0  0.3082502E+002  0.1138595E+03  0.7546771E-02  0.1253585E+00
          2   -1    0    0  504    0 -0.00000000000E+00  0.00000000000E+00  0.61767299613E+03  0.61767299613E+03  0.00000000000E+00 0. -1.
         21   -1    0    0  505  502  0.00000000000E+00 -0.00000000000E+00 -0.10992628535E+04  0.10992628535E+04  0.00000000000E+00 0. -1.
         21    1    1    2  503  502 -0.36820332157E+01 -0.62650345633E+02 -0.87730904035E+03  0.87955089418E+03  0.00000000000E+00 0. -1.
         21    1    1    2  504  503 -0.44719432319E+02  0.26810306006E+02 -0.65009771207E+01  0.52544103747E+02  0.00000000000E+00 0. -1.
         21    1    1    2  505  501 -0.73477758370E+02 -0.31510143763E+02 -0.17428986129E+03  0.19175199056E+03  0.00000000000E+00 0. -1.
          2    1    1    2  501    0  0.12187922390E+03  0.67350183389E+02  0.57651002140E+03  0.59308886113E+03  0.00000000000E+00 0. -1.
<scales pt_clust_3="62.71301" pt_clust_4="52.14039" pt_clust_5="113.85947" pt_clust_6="14000.00000"></scales>
<clustering>
<clus scale="   52.140">  1  4  2 -1</clus>
<clus scale="   62.713">  2  3  1 -1</clus>
<clus scale="  113.859">  2  5  1 -1</clus>
<clus scale="   62.713">  2  3  1 -1</clus>
</clustering>
</event>
<event>
 6    0  0.3082502E+002  0.1179523E+03  0.7546771E-02  0.1246514E+00
         21   -1    0    0  504  502  0.00000000000E+00  0.00000000000E+00  0.70404545927E+03  0.70404545927E+03  0.00000000000E+00 0. -1.
         -2   -1    0    0    0  501 -0.00000000000E+00 -0.00000000000E+00 -0.13086597090E+04  0.13086597090E+04  0.00000000000E+00 0.  1.
         21    1    1    2  503  501 -0.91300848953E+02  0.22684146423E+02  0.57224122304E+02  0.11011364898E+03  0.00000000000E+00 0. -1.
         21    1    1    2  504  503  0.71804532700E+02 -0.57273564153E+02  0.59976051365E+03  0.60675268916E+03  0.00000000000E+00 0. -1.
         21    1    1    2  505  502  0.23026204833E+02  0.14528196935E+03 -0.38279830789E+03  0.41008730930E+03  0.00000000000E+00 0. -1.
         -2    1    1    2    0  505 -0.35298885805E+01 -0.11069255162E+03 -0.87880057779E+03  0.88575152081E+03  0.00000000000E+00 0.  1.
<scales pt_clust_3="40.28044" pt_clust_4="91.84853" pt_clust_5="14000.00000" pt_clust_6="117.95235"></scales>
<clustering>
<clus scale="   91.849">  1  4  2 -1</clus>
<clus scale="   40.280">  1  3  2 -1</clus>
<clus scale="  117.952">  2  6  1 -1</clus>
<clus scale="   91.849">  1  3  2 -1</clus>
</clustering>
</event>
<event>
 6    0  0.3082502E+002  0.1243703E+03  0.7546771E-02  0.1236057E+00
         21   -1    0    0  504  502  0.00000000000E+00  0.00000000000E+00  0.18993298994E+04  0.18993298994E+04  0.00000000000E+00 0.  1.
          2   -1    0    0  503    0 -0.00000000000E+00 -0.00000000000E+00 -0.65542687173E+02  0.65542687173E+02  0.00000000000E+00 0.  1.
         21    1    1    2  503  505 -0.33241996072E+02  0.24372832150E+01  0.54755919768E+02  0.64102896986E+02  0.00000000000E+00 0.  1.
         21    1    1    2  504  501  0.87006388410E+02 -0.61493138551E+02  0.74870522124E+03  0.75624799242E+03  0.00000000000E+00 0.  1.
         21    1    1    2  505  502  0.42298028411E+02  0.35959769203E+02  0.10433863468E+04  0.10448623339E+04  0.00000000000E+00 0.  1.
          2    1    1    2  501    0 -0.96062420749E+02  0.23096086133E+02 -0.13060275610E+02  0.99659363202E+02  0.00000000000E+00 0.  1.
<scales pt_clust_3="33.33123" pt_clust_4="124.37029" pt_clust_5="55.23062" pt_clust_6="14000.00000"></scales>
<clustering>
<clus scale="   33.331">  2  3  1 -1</clus>
<clus scale="   55.231">  1  5  2 -1</clus>
<clus scale="  124.370">  1  4  2 -1</clus>
<clus scale="   55.231">  1  3  2 -1</clus>
</clustering>
</event>
<event>
 6    0  0.3082502E+002  0.1327575E+03  0.7546771E-02  0.1223421E+00
          2   -1    0    0  505    0 -0.00000000000E+00  0.00000000000E+00  0.14308830022E+04  0.14308830022E+04  0.00000000000E+00 0. -1.
         21   -1    0    0  503  502  0.00000000000E+00 -0.00000000000E+00 -0.45949180164E+03  0.45949180164E+03  0.00000000000E+00 0.  1.
         21    1    1    2  503  501  0.55534828065E+02 -0.16070518801E+03  0.11000472417E+03  0.20251250312E+03  0.00000000000E+00 0. -1.
         21    1    1    2  504  502 -0.48914211567E+02  0.27798840628E+02 -0.40332018082E+03  0.40722542147E+03  0.00000000000E+00 0.  1.
         21    1    1    2  505  504  0.67888202631E+02  0.50636820584E+02  0.40240284087E+03  0.41121884927E+03  0.00000000000E+00 0. -1.
          2    1    1    2  501    0 -0.74508819130E+02  0.82269526801E+02  0.86230381636E+03  0.86941803000E+03  0.00000000000E+00 0. -1.
<scales pt_clust_3="132.75747" pt_clust_4="56.26167" pt_clust_5="82.96237" pt_clust_6="14000.00000"></scales>
<clustering>
<clus scale="   56.262">  2  4  1 -1</clus>
<clus scale="   82.962">  1  5  2 -1</clus>
<clus scale="  132.757">  2  3  1 -1</clus>
<clus scale="   56.262">  2  3  1 -1</clus>
</clustering>
</event>
<event>
 6    0  0.3082502E+002  0.1232219E+03  0.7546771E-02  0.1237875E+00
         21   -1    0    0  505  502  0.00000000000E+00  0.00000000000E+00  0.37291649850E+02  0.37291649850E+02  0.00000000000E+00 0. -1.
          3   -1    0    0  503    0 -0.00000000000E+00 -0.00000000000E+00 -0.12905374187E+04  0.12905374187E+04  0.00000000000E+00 0. -1.
         21    1    1    2  503  502 -0.11523605972E+03 -0.14556892987E+02 -0.90536814087E+02  0.14726903034E+03  0.00000000000E+00 0. -1.
         21    1    1    2  504  501  0.76466322088E+02  0.18871172494E+01 -0.21044907157E+03  0.22391844799E+03  0.00000000000E+00 0. -1.
         21    1    1    2  505  504  0.32792322039E+02 -0.20289287733E+02 -0.20280476226E+03  0.20643827934E+03  0.00000000000E+00 0.  1.
          3    1    1    2  501    0  0.59774155913E+01  0.32959063470E+02 -0.74945512096E+03  0.75020331091E+03  0.00000000000E+00 0. -1.
<scales pt_clust_3="114.15585" pt_clust_4="32.93868" pt_clust_5="32.93868" pt_clust_6="33.49671"></scales>
<clustering>
<clus scale="   32.939">  4  5 -1 -1</clus>
<clus scale="   33.497">  2  6  1 -1</clus>
<clus scale="  114.156">  1  3  2 -1</clus>
<clus scale="  114.156">  1  3  2 -1</clus>
</clustering>
</event>
<event>
 6    0  0.3082502E+002  0.1770458E+03  0.7546771E-02  0.1170693E+00
         21   -1    0    0  503  502  0.00000000000E+00  0.00000000000E+00  0.17738778820E+03  0.17738778820E+03  0.00000000000E+00 0.  1.
          2   -1    0    0  504    0 -0.00000000000E+00 -0.00000000000E+00 -0.97841860659E+03  0.97841860659E+03  0.00000000000E+00 0.  1.
         21    1    1    2  503  501  0.42948944118E+02  0.80084775326E+02  0.29457406878E+02  0.95529690986E+02  0.00000000000E+00 0.  1.
         21    1    1    2  504  505  0.76353223399E+01  0.40587298912E+02 -0.26968137004E+03  0.27282534400E+03  0.00000000000E+00 0.  1.
         21    1    1    2  505  502  0.12228743839E+03 -0.15050634201E+03  0.61027478247E+01  0.19401963845E+03  0.00000000000E+00 0.  1.
          2    1    1    2  501    0 -0.17287170485E+03  0.29834267767E+02 -0.56690960305E+03  0.59343172135E+03  0.00000000000E+00 0.  1.
<scales pt_clust_3="92.71591" pt_clust_4="41.29924" pt_clust_5="14000.00000" pt_clust_6="177.04585"></scales>
<clustering>
<clus scale="   41.299">  2  4  1 -1</clus>
<clus scale="   92.716">  1  3  2 -1</clus>
<clus scale="  177.046">  2  6  1 -1</clus>
<clus scale="   92.716">  1  3  2 -1</clus>
</clustering>
</event>
<event>
 6    0  0.3082502E+002  0.1360628E+03  0.7546771E-02  0.1218727E+00
          2   -1    0    0  503    0 -0.00000000000E+00  0.00000000000E+00  0.77065960374E+03  0.77065960374E+03  0.00000000000E+00 0.  1.
         21   -1    0    0  505  502  0.00000000000E+00 -0.00000000000E+00 -0.12718577816E+03  0.12718577816E+03  0.00000000000E+00 0.  1.
         21    1    1    2  503  502  0.77978169689E+02  0.33931012157E+02 -0.24297420047E+02  0.88443615683E+02  0.00000000000E+00 0. -1.
         21    1    1    2  504  501 -0.15828390016E+03 -0.56855976485E+01  0.23648301118E+03  0.28462314321E+03  0.00000000000E+00 0.  1.
         21    1    1    2  505  504 -0.44374025006E+02 -0.58394001134E+02 -0.15253062671E+01  0.73356935752E+02  0.00000000000E+00 0.  1.
          2    1    1    2  501    0  0.12467975548E+03  0.30148586626E+02  0.43281354071E+03  0.45142168726E+03  0.00000000000E+00 0.  1.
<scales pt_clust_3="50.18118" pt_clust_4="136.06280" pt_clust_5="73.34108" pt_clust_6="14000.00000"></scales>
<clustering>
<clus scale="   73.341">  2  5  1 -1</clus>
<clus scale="   50.181">  2  3  1 -1</clus>
<clus scale="  136.063">  2  4  1 -1</clus>
<clus scale="   73.341">  2  3  1 -1</clus>
</clustering>
</event>
<event>
 6    0  0.3082502E+002  0.9138377E+02  0.7546771E-02  0.1299535E+00
         21   -1    0    0  504  502  0.00000000000E+00  0.00000000000E+00  0.24687980041E+02  0.24687980041E+02  0.00000000000E+00 0.  1.
          2   -1    0    0  505    0 -0.00000000000E+00 -0.00000000000E+00 -0.16726982858E+04  0.16726982858E+04  0.00000000000E+00 0.  1.
         21    1    1    2  503  501  0.57385257068E+02  0.61413259457E+01 -0.58499979723E+03  0.58783972848E+03  0.00000000000E+00 0.  1.
         21    1    1    2  504  503 -0.72201773175E+02 -0.12330928020E+03 -0.34002880196E+03  0.36883310696E+03  0.00000000000E+00 0.  1.
         21    1    1    2  505  502 -0.44762296629E+00  0.72246320129E+02 -0.15790227247E+03  0.17364578541E+03  0.00000000000E+00 0.  1.
          2    1    1    2  501    0  0.15264139073E+02  0.44921634126E+02 -0.56507943409E+03  0.56706764498E+03  0.00000000000E+00 0.  1.
<scales pt_clust_3="71.99730" pt_clust_4="91.38377" pt_clust_5="14000.00000" pt_clust_6="47.44415"></scales>
<clustering>
<clus scale="   47.444">  2  6  1 -1</clus>
<clus scale="   71.997">  2  3  1 -1</clus>
<clus scale="   91.384">  2  4  1 -1</clus>
<clus scale="   91.384">  1  3  2 -1</clus>
</clustering>
</event>
<event>
 6    0  0.3082502E+002  0.1213656E+03  0.7546771E-02  0.1240861E+00
         21   -1    0    0  504  502  0.00000000000E+00  0.00000000000E+00  0.11595539018E+03  0.11595539018E+03  0.00000000000E+00 0. -1.
          1   -1    0    0  503    0 -0.00000000000E+00 -0.00000000000E+00 -0.99946231699E+03  0.99946231699E+03  0.00000000000E+00 0. -1.
         21    1    1    2  503  505  0.97522809841E+01 -0.31608131275E+02 -0.12287506115E+03  0.12724960353E+03  0.00000000000E+00 0.  1.
         21    1    1    2  504  501  0.12214209336E+03  0.17737630496E+02  0.70602781145E+02  0.14219025005E+03  0.00000000000E+00 0. -1.
         21    1    1    2  505  502 -0.36636253612E+02 -0.34560272794E+02 -0.25969919194E+03  0.26453789488E+03  0.00000000000E+00 0.  1.
          1    1    1    2  501    0 -0.95258120728E+02  0.48430773572E+02 -0.57153545488E+03  0.58143995870E+03  0.00000000000E+00 0. -1.
<scales pt_clust_3="33.07841" pt_clust_4="121.36556" pt_clust_5="55.45875" pt_clust_6="14000.00000"></scales>
<clustering>
<clus scale="   33.078">  2  3  1 -1</clus>
<clus scale="   55.459">  2  5  1 -1</clus>
<clus scale="  121.366">  1  4  2 -1</clus>
<clus scale="  121.366">  1  3  2 -1</clus>
</clustering>
</event>
<event>
 6    0  0.3082502E+002  0.9834255E+02  0.7546771E-02  0.1283820E+00
         21   -1    0    0  501  502  0.00000000000E+00  0.00000000000E+00  0.26507947691E+03  0.26507947691E+03  0.00000000000E+00 0.  1.
          2   -1    0    0  503    0 -0.00000000000E+00 -0.00000000000E+00 -0.44603855305E+03  0.44603855305E+03  0.00000000000E+00 0. -1.
         21    1    1    2  503  504 -0.27576115518E+02 -0.68669596035E+02 -0.47616939138E+02  0.87996184346E+02  0.00000000000E+00 0.  1.
         21    1    1    2  504  505  0.88725106377E+02 -0.54743041882E+01  0.46576038352E+02  0.10035656359E+03  0.00000000000E+00 0.  1.
         21    1    1    2  505  502 -0.10250635603E+03 -0.29767796191E+02  0.14447772256E+03  0.17963153129E+03  0.00000000000E+00 0.  1.
          2    1    1    2  501    0  0.41357365169E+02  0.10391169641E+03 -0.32439589791E+03  0.34313375073E+03  0.00000000000E+00 0. -1.
<scales pt_clust_3="73.99970" pt_clust_4="98.34255" pt_clust_5="14000.00000" pt_clust_6="46.54038"></scales>
<clustering>
<clus scale="   74.000">  2  3  1 -1</clus>
<clus scale="   46.540">  2  6  1 -1</clus>
<clus scale="   98.343">  2  4  1 -1</clus>
<clus scale="   98.343">  1  3  2 -1</clus>
</clustering>
</event>
<event>
 6    0  0.3082502E+002  0.9766013E+02  0.7546771E-02  0.1285295E+00
          1   -1    0    0  503    0 -0.00000000000E+00  0.00000000000E+00  0.29988024369E+04  0.29988024369E+04  0.00000000000E+00 0. -1.
         21   -1    0    0  505  502  0.00000000000E+00 -0.00000000000E+00 -0.52800280973E+03  0.52800280973E+03  0.00000000000E+00 0. -1.
         21    1    1    2  503  504  0.86693058199E+01 -0.37496310118E+02  0.72052784083E+03  0.72155491790E+03  0.00000000000E+00 0. -1.
         21    1    1    2  504  502 -0.10609112543E+03 -0.42395024754E+02 -0.39419865604E+03  0.41042081507E+03  0.00000000000E+00 0. -1.
         21    1    1    2  505  501  0.28781431347E+02 -0.17070761803E+02 -0.12135893023E+03  0.12588793289E+03  0.00000000000E+00 0.  1.
          1    1    1    2  501    0  0.68640388266E+02  0.96962096676E+02  0.22658293726E+04  0.22689415808E+04  0.00000000000E+00 0. -1.
<scales pt_clust_3="38.51482" pt_clust_4="97.66013" pt_clust_5="33.46314" pt_clust_6="14000.00000"></scales>
<clustering>
<clus scale="   33.463">  2  5  1 -1</clus>
<clus scale="   38.515">  1  3  2 -1</clus>
<clus scale="   97.660">  2  4  1 -1</clus>
<clus scale="   33.463">  2  3  1 -1</clus>
</clustering>
</event>
<event>
 6    0  0.3082502E+002  0.8741174E+02  0.7546771E-02  0.1309243E+00
         21   -1    0    0  505  502  0.00000000000E+00  0.00000000000E+00  0.34084251764E+03  0.34084251764E+03  0.00000000000E+00 0. -1.
         -1   -1    0    0    0  501 -0.00000000000E+00 -0.00000000000E+00 -0.26871727111E+03  0.26871727111E+03  0.00000000000E+00 0. -1.
         21    1    1    2  503  501  0.29729956911E+02  0.21529082660E+02 -0.26548614319E+02  0.45301221400E+02  0.00000000000E+00 0. -1.
         21    1    1    2  504  502  0.89451071699E+02 -0.18089549190E+02  0.29426526071E+03  0.30809214479E+03  0.00000000000E+00 0. -1.
         21    1    1    2  505  503 -0.58839908336E+02  0.26883856230E+02 -0.19493897075E+02  0.67563959046E+02  0.00000000000E+00 0. -1.
         -1    1    1    2    0  504 -0.60341120274E+02 -0.30323389700E+02 -0.17609750279E+03  0.18860246352E+03  0.00000000000E+00 0. -1.
<scales pt_clust_3="36.70656" pt_clust_4="14000.00000" pt_clust_5="87.41174" pt_clust_6="39.42195"></scales>
<clustering>
<clus scale="   36.707">  2  3  1 -1</clus>
<clus scale="   39.422">  2  6  1 -1</clus>
<clus scale="   87.412">  2  5  1 -1</clus>
<clus scale="   87.412">  1  3  2 -1</clus>
</clustering>
</event>
<event>
 6    0  0.3082502E+002  0.1265845E+03  0.7546771E-02  0.1232614E+00
         21   -1    0    0  505  502  0.00000000000E+00  0.00000000000E+00  0.10371291757E+04  0.10371291757E+04  0.00000000000E+00 0. -1.
          2   -1    0    0  504    0 -0.00000000000E+00 -0.00000000000E+00 -0.16461355373E+04  0.16461355373E+04  0.00000000000E+00 0.  1.
         21    1    1    2  503  502  0.33730195263E+02  0.37746657801E+02 -0.75006517802E+02  0.90490408113E+02  0.00000000000E+00 0. -1.
         21    1    1    2  504  503  0.19771194787E+02 -0.42289061105E+02 -0.70550828918E+03  0.70705106671E+03  0.00000000000E+00 0.  1.
         21    1    1    2  505  501 -0.55284633612E+02 -0.11397142109E+03  0.10205837865E+04  0.10284148681E+04  0.00000000000E+00 0. -1.
          2    1    1    2  501    0  0.17832435623E+01  0.11851382440E+03 -0.84907534112E+03  0.85730837009E+03  0.00000000000E+00 0.  1.
<scales pt_clust_3="49.15055" pt_clust_4="46.68260" pt_clust_5="14000.00000" pt_clust_6="126.58452"></scales>
<clustering>
<clus scale="   46.683">  2  4  1 -1</clus>
<clus scale="   49.151">  2  3  1 -1</clus>
<clus scale="  126.585">  2  6  1 -1</clus>
<clus scale="  126.585">  1  3  2 -1</clus>
</clustering>
</event>
<event>
 6    0  0.3082502E+002  0.1314291E+03  0.7546771E-02  0.1225350E+00
         21   -1    0    0  504  502  0.00000000000E+00  0.00000000000E+00  0.79299397994E+02  0.79299397994E+02  0.00000000000E+00 0.  1.
          2   -1    0    0  505    0 -0.00000000000E+00 -0.00000000000E+00 -0.15550520181E+04  0.15550520181E+04  0.00000000000E+00 0. -1.
         21    1    1    2  503  502 -0.47597606833E+02 -0.46349173302E+02 -0.51911985055E+02  0.84312705058E+02  0.00000000000E+00 0.  1.
         21    1    1    2  504  501 -0.43377065117E+02 -0.54895376771E+02  0.34789505687E+02  0.78136943087E+02  0.00000000000E+00 0.  1.
         21    1    1    2  505  503  0.15250596337E+02 -0.34132494354E+02 -0.43262507848E+03  0.43423733878E+03  0.00000000000E+00 0. -1.
          2    1    1    2  501    0  0.75724075612E+02  0.13537704443E+03 -0.10260050622E+04  0.10376644291E+04  0.00000000000E+00 0. -1.
<scales pt_clust_3="67.25259" pt_clust_4="14000.00000" pt_clust_5="37.38459" pt_clust_6="131.42912"></scales>
<clustering>
<clus scale="   37.385">  2  5  1 -1</clus>
<clus scale="   67.253">  1  3  2 -1</clus>
<clus scale="  131.429">  2  6  1 -1</clus>
<clus scale="   67.253">  1  3  2 -1</clus>
</clustering>
</event>
<event>
 6    0  0.3082502E+002  0.3387265E+03  0.7546771E-02  0.1067340E+00
          2   -1    0    0  502    0 -0.00000000000E+00  0.00000000000E+00  0.69202725750E+03  0.69202725750E+03  0.00000000000E+00 0.  1.
         21   -1    0    0  503  502  0.00000000000E+00 -0.00000000000E+00 -0.49664747990E+03  0.49664747990E+03  0.00000000000E+00 0.  1.
         21    1    1    2  503  505 -0.17856478634E+02 -0.71402914804E+02 -0.24158668165E+03  0.25254970763E+03  0.00000000000E+00 0.  1.
         21    1    1    2  504  501  0.10128122444E+03 -0.12361486585E+02  0.13576119664E+03  0.16982872339E+03  0.00000000000E+00 0.  1.
         21    1    1    2  505  504 -0.28666408013E+03 -0.51487939250E+02 -0.90285283045E+02  0.30492414641E+03  0.00000000000E+00 0.  1.
          2    1    1    2  501    0  0.20323933432E+03  0.13525234064E+03  0.39149054566E+03  0.46137215998E+03  0.00000000000E+00 0.  1.
<scales pt_clust_3="73.60183" pt_clust_4="72.52535" pt_clust_5="319.60980" pt_clust_6="72.52535"></scales>
<clustering>
<clus scale="   72.525">  4  6 -1 -1</clus>
<clus scale="   73.602">  2  3  1 -1</clus>
<clus scale="  319.610">  2  5  1 -1</clus>
<clus scale="   73.602">  2  3  1 -1</clus>
</clustering>
</event>
<event>
 6    0  0.3082502E+002  0.1853384E+03  0.7546771E-02  0.1162734E+00
         21   -1    0    0  505  502  0.00000000000E+00  0.00000000000E+00  0.15672513270E+03  0.15672513270E+03  0.00000000000E+00 0.  1.
          2   -1    0    0  504    0 -0.00000000000E+00 -0.00000000000E+00 -0.18725538849E+04  0.18725538849E+04  0.00000000000E+00 0.  1.
         21    1    1    2  503  502  0.68795549580E+02 -0.96959235222E+02 -0.40266526726E+03  0.41984906621E+03  0.00000000000E+00 0.  1.
         21    1    1    2  504  503  0.59373272187E+02 -0.15456089560E+02 -0.41917958281E+03  0.42364560519E+03  0.00000000000E+00 0.  1.
         21    1    1    2  505  501 -0.84678762973E+02 -0.56457223412E+02  0.11975299180E+03  0.15715816879E+03  0.00000000000E+00 0.  1.
          2    1    1    2  501    0 -0.43490058794E+02  0.16887254819E+03 -0.10137368939E+04  0.10286261774E+04  0.00000000000E+00 0.  1.
<scales pt_clust_3="60.05966" pt_clust_4="60.05966" pt_clust_5="101.77382" pt_clust_6="165.41001"></scales>
<clustering>
<clus scale="   60.060">  3  4 -1 -1</clus>
<clus scale="  101.774">  1  5  2 -1</clus>
<clus scale="  165.410">  2  6  1 -1</clus>
<clus scale="  101.774">  1  3  2 -1</clus>
</clustering>
</event>
<event>
 6    0  0.3082502E+002  0.8242312E+02  0.7546771E-02  0.1322312E+00
         21   -1    0    0  505  502  0.00000000000E+00  0.00000000000E+00  0.44297909027E+02  0.44297909027E+02  0.00000000000E+00 0. -1.
          2   -1    0    0  504    0 -0.00000000000E+00 -0.00000000000E+00 -0.10687679816E+04  0.10687679816E+04  0.00000000000E+00 0. -1.
         21    1    1    2  503  502 -0.55062753782E+01 -0.49045459391E+02 -0.52152597458E+02  0.71802991421E+02  0.00000000000E+00 0. -1.
         21    1    1    2  504  503 -0.44502403949E+02  0.17134391180E+01 -0.48295743335E+03  0.48500647651E+03  0.00000000000E+00 0. -1.
         21    1    1    2  505  501 -0.48883207647E+02 -0.16152136461E+02  0.15208818514E+01  0.51505073379E+02  0.00000000000E+00 0. -1.
          2    1    1    2  501    0  0.98891886975E+02  0.63484156734E+02 -0.49088092364E+03  0.50475134934E+03  0.00000000000E+00 0. -1.
<scales pt_clust_3="49.92177" pt_clust_4="44.53538" pt_clust_5="14000.00000" pt_clust_6="82.42312"></scales>
<clustering>
<clus scale="   44.535">  2  4  1 -1</clus>
<clus scale="   49.922">  1  3  2 -1</clus>
<clus scale="   82.423">  2  6  1 -1</clus>
<clus scale="   49.922">  1  3  2 -1</clus>
</clustering>
</event>
<event>
 6    0  0.3082502E+002  0.1322861E+03  0.7546771E-02  0.1224103E+00
         21   -1    0    0  501  502  0.00000000000E+00  0.00000000000E+00  0.15101103302E+03  0.15101103302E+03  0.00000000000E+00 0. -1.
          1   -1    0    0  505    0 -0.00000000000E+00 -0.00000000000E+00 -0.13855443968E+04  0.13855443968E+04  0.00000000000E+00 0. -1.
         21    1    1    2  503  502 -0.52173434887E+02  0.15535422854E+02 -0.44493665602E+01  0.54618802019E+02  0.00000000000E+00 0. -1.
         21    1    1    2  504  503 -0.12844726831E+02  0.63683315892E+02 -0.48000701704E+02  0.80775114326E+02  0.00000000000E+00 0.  1.
         21    1    1    2  505  504 -0.66243107580E+02 -0.47977443479E+02  0.90189273546E+02  0.12175421737E+03  0.00000000000E+00 0. -1.
          1    1    1    2  501    0  0.13126126930E+03 -0.31241295267E+02 -0.12722725691E+04  0.12794072961E+04  0.00000000000E+00 0. -1.
<scales pt_clust_3="54.43727" pt_clust_4="68.57586" pt_clust_5="132.28606" pt_clust_6="14000.00000"></scales>
<clustering>
<clus scale="   54.437">  1  3  2 -1</clus>
<clus scale="   68.576">  1  4  2 -1</clus>
<clus scale="  132.286">  1  5  2 -1</clus>
<clus scale="   54.437">  1  3  2 -1</clus>
</clustering>
</event>
<event>
 6    0  0.3082502E+002  0.6397432E+02  0.7546771E-02  0.1381872E+00
          2   -1    0    0  504    0 -0.00000000000E+00  0.00000000000E+00  0.24280161213E+03  0.24280161213E+03  0.00000000000E+00 0.  1.
         21   -1    0    0  503  502  0.00000000000E+00 -0.00000000000E+00 -0.27165991294E+03  0.27165991294E+03  0.00000000000E+00 0. -1.
         21    1    1    2  503  501 -0.18750525035E+02  0.44663507377E+02 -0.29328841656E+02  0.56626778410E+02  0.00000000000E+00 0.  1.
         21    1    1    2  504  505 -0.31097318934E+02  0.38410787582E+02  0.23813310265E+02  0.54858960921E+02  0.00000000000E+00 0.  1.
         21    1    1    2  505  502  0.89545420504E+02 -0.53989991171E+02 -0.19670217616E+03  0.22276680091E+03  0.00000000000E+00 0. -1.
          2    1    1    2  501    0 -0.39697576535E+02 -0.29084303787E+02  0.17335940674E+03  0.18020898484E+03  0.00000000000E+00 0.  1.
<scales pt_clust_3="48.43977" pt_clust_4="63.97432" pt_clust_5="14000.00000" pt_clust_6="49.04801"></scales>
<clustering>
<clus scale="   48.440">  2  3  1 -1</clus>
<clus scale="   49.048">  1  6  2 -1</clus>
<clus scale="   63.974">  1  4  2 -1</clus>
<clus scale="   48.440">  2  3  1 -1</clus>
</clustering>
</event>
<event>
 6    0  0.3082502E+002  0.9771880E+02  0.7546771E-02  0.1285167E+00
          2   -1    0    0  503    0 -0.00000000000E+00  0.00000000000E+00  0.21798187035E+04  0.21798187035E+04  0.00000000000E+00 0. -1.
         21   -1    0    0  501  502  0.00000000000E+00 -0.00000000000E+00 -0.58152517702E+02  0.58152517702E+02  0.00000000000E+00 0. -1.
         21    1    1    2  503  505  0.11779721015E+02  0.27668441576E+02  0.30453492377E+03  0.30601605233E+03  0.00000000000E+00 0. -1.
         21    1    1    2  504  502 -0.29449945482E+02 -0.35024340083E+02 -0.23661267838E+01  0.45821416860E+02  0.00000000000E+00 0. -1.
         21    1    1    2  505  504 -0.59331829853E+02  0.77202400446E+02  0.42736204287E+02  0.10633371914E+03  0.00000000000E+00 0. -1.
          2    1    1    2  501    0  0.77002054320E+02 -0.69846501938E+02  0.17767611845E+04  0.17798000328E+04  0.00000000000E+00 0. -1.
<scales pt_clust_3="30.07166" pt_clust_4="45.42707" pt_clust_5="14000.00000" pt_clust_6="97.71880"></scales>
<clustering>
<clus scale="   30.072">  1  3  2 -1</clus>
<clus scale="   45.427">  2  4  1 -1</clus>
<clus scale="   97.719">  1  6  2 -1</clus>
<clus scale="   45.427">  2  3  1 -1</clus>
</clustering>
</event>
<event>
 6    0  0.3082502E+002  0.3789503E+03  0.7546771E-02  0.1051322E+00
          2   -1    0    0  503    0 -0.00000000000E+00  0.00000000000E+00  0.49146969141E+04  0.49146969141E+04  0.00000000000E+00 0.  1.
         21   -1    0    0  504  502  0.00000000000E+00 -0.00000000000E+00 -0.11925509618E+03  0.11925509618E+03  0.00000000000E+00 0.  1.
         21    1    1    2  503  505  0.11223813456E+03  0.72130654865E+01  0.13981309918E+04  0.14026473888E+04  0.00000000000E+00 0. -1.
         21    1    1    2  504  501 -0.58597502675E+02  0.14292762367E+01  0.32592969530E+02  0.67067218618E+02  0.00000000000E+00 0.  1.
         21    1    1    2  505  502  0.26119265926E+03  0.30085624325E+03  0.39204274458E+03  0.55895759940E+03  0.00000000000E+00 0.  1.
          2    1    1    2  501    0 -0.31483329115E+03 -0.30949858497E+03  0.29726751120E+04  0.30052798035E+04  0.00000000000E+00 0.  1.
<scales pt_clust_3="111.17736" pt_clust_4="58.61493" pt_clust_5="378.95025" pt_clust_6="14000.00000"></scales>
<clustering>
<clus scale="   58.615">  2  4  1 -1</clus>
<clus scale="  111.177">  1  3  2 -1</clus>
<clus scale="  378.950">  2  5  1 -1</clus>
<clus scale="   58.615">  2  3  1 -1</clus>
</clustering>
</event>
<event>
 6    0  0.3082502E+002  0.5763430E+02  0.7546771E-02  0.1408036E+00
         -1   -1    0    0    0  501 -0.00000000000E+00  0.00000000000E+00  0.25570850500E+03  0.25570850500E+03  0.00000000000E+00 0.  1.
         21   -1    0    0  503  502  0.00000000000E+00 -0.00000000000E+00 -0.32285329877E+04  0.32285329877E+04  0.00000000000E+00 0.  1.
         21    1    1    2  503  505 -0.80278933239E+01  0.91085051609E+02 -0.24993717047E+03  0.26613816502E+03  0.00000000000E+00 0. -1.
         21    1    1    2  504  502  0.11097502337E+02 -0.55409395998E+02 -0.29166272023E+04  0.29171745907E+04  0.00000000000E+00 0.  1.
         21    1    1    2  505  501 -0.45118180806E+02  0.81317300843E+01  0.22707606112E+03  0.23165774929E+03  0.00000000000E+00 0.  1.
         -1    1    1    2    0  504  0.42048571792E+02 -0.43807385696E+02 -0.33336171097E+02  0.69270987683E+02  0.00000000000E+00 0.  1.
<scales pt_clust_3="57.63430" pt_clust_4="14000.00000" pt_clust_5="45.84512" pt_clust_6="39.88718"></scales>
<clustering>
<clus scale="   45.845">  1  5  2 -1</clus>
<clus scale="   39.887">  1  6  2 -1</clus>
<clus scale="   57.634">  1  3  2 -1</clus>
<clus scale="   57.634">  2  3  1 -1</clus>
</clustering>
</event>
<event>
 6    0  0.3082502E+002  0.1688793E+03  0.7546771E-02  0.1179022E+00
          3   -1    0    0  502    0 -0.00000000000E+00  0.00000000000E+00  0.13584260264E+04  0.13584260264E+04  0.00000000000E+00 0.  1.
         21   -1    0    0  504  502  0.00000000000E+00 -0.00000000000E+00 -0.30033348205E+03  0.30033348205E+03  0.00000000000E+00 0. -1.
         21    1    1    2  503  501 -0.76242347755E+02 -0.11439964950E+02  0.47115726483E+03  0.47742322586E+03  0.00000000000E+00 0.  1.
         21    1    1    2  504  505  0.44456575438E+02 -0.78505210829E+01 -0.23098355958E+03  0.23535382423E+03  0.00000000000E+00 0. -1.
         21    1    1    2  505  503  0.10964355439E+03 -0.30221489500E+02 -0.88545485097E+01  0.11407651150E+03  0.00000000000E+00 0. -1.
          3    1    1    2  501    0 -0.77857782070E+02  0.49511975534E+02  0.82677338758E+03  0.83190594683E+03  0.00000000000E+00 0.  1.
<scales pt_clust_3="61.20331" pt_clust_4="45.14441" pt_clust_5="154.91171" pt_clust_6="61.20331"></scales>
<clustering>
<clus scale="   45.144">  2  4  1 -1</clus>
<clus scale="   61.203">  3  6 -1 -1</clus>
<clus scale="  154.912">  2  5  1 -1</clus>
<clus scale="   45.144">  2  3  1 -1</clus>
</clustering>
</event>
<event>
 6    0  0.3082502E+002  0.7779478E+02  0.7546771E-02  0.1335429E+00
          2   -1    0    0  504    0 -0.00000000000E+00  0.00000000000E+00  0.30578937129E+04  0.30578937129E+04  0.00000000000E+00 0.  1.
         21   -1    0    0  503  502  0.00000000000E+00 -0.00000000000E+00 -0.98870845642E+02  0.98870845642E+02  0.00000000000E+00 0. -1.
         21    1    1    2  503  505 -0.14390383473E+02  0.71635316228E+02 -0.61755179225E+02  0.95668196538E+02  0.00000000000E+00 0. -1.
         21    1    1    2  504  502 -0.40772250335E+02 -0.57915138749E+02  0.57913258133E+02  0.91490355564E+02  0.00000000000E+00 0.  1.
         21    1    1    2  505  501  0.40197318419E+02 -0.88584765811E+02  0.88334609031E+03  0.88868633410E+03  0.00000000000E+00 0.  1.
          2    1    1    2  501    0  0.14965315388E+02  0.74864588332E+02  0.20795186980E+04  0.20809196723E+04  0.00000000000E+00 0.  1.
<scales pt_clust_3="55.85843" pt_clust_4="70.82753" pt_clust_5="14000.00000" pt_clust_6="77.79478"></scales>
<clustering>
<clus scale="   70.828">  2  4  1 -1</clus>
<clus scale="   55.858">  2  3  1 -1</clus>
<clus scale="   77.795">  1  6  2 -1</clus>
<clus scale="   70.828">  2  3  1 -1</clus>
</clustering>
</event>
<event>
 6    0  0.3082502E+002  0.7066286E+02  0.7546771E-02  0.1357853E+00
         21   -1    0    0  501  502  0.00000000000E+00  0.00000000000E+00  0.75283821476E+03  0.75283821476E+03  0.00000000000E+00 0.  1.
          2   -1    0    0  505    0 -0.00000000000E+00 -0.00000000000E+00 -0.23878564052E+03  0.23878564052E+03  0.00000000000E+00 0. -1.
         21    1    1    2  503  502  0.24151862850E+02 -0.66380033416E+02  0.69197976433E+03  0.69557574394E+03  0.00000000000E+00 0.  1.
         21    1    1    2  504  503  0.39728358484E+02  0.31046799650E+02  0.18952713641E+02  0.53865124067E+02  0.00000000000E+00 0.  1.
         21    1    1    2  505  504  0.31644864824E+02 -0.75213732782E+01 -0.25404994406E+02  0.41272051881E+02  0.00000000000E+00 0.  1.
          2    1    1    2  501    0 -0.95525086158E+02  0.42854607044E+02 -0.17147490932E+03  0.20091093539E+03  0.00000000000E+00 0. -1.
<scales pt_clust_3="70.66286" pt_clust_4="52.19045" pt_clust_5="32.52643" pt_clust_6="14000.00000"></scales>
<clustering>
<clus scale="   32.526">  2  5  1 -1</clus>
<clus scale="   52.190">  2  4  1 -1</clus>
<clus scale="   70.663">  1  3  2 -1</clus>
<clus scale="   70.663">  1  3  2 -1</clus>
</clustering>
</event>
<event>
 6    0  0.3082502E+002  0.1191713E+03  0.7546771E-02  0.1244470E+00
          1   -1    0    0  505    0 -0.00000000000E+00  0.00000000000E+00  0.15077513910E+04  0.15077513910E+04  0.00000000000E+00 0.  1.
         21   -1    0    0  501  502  0.00000000000E+00 -0.00000000000E+00 -0.10499251252E+03  0.10499251252E+03  0.00000000000E+00 0.  1.
         21    1    1    2  503  504  0.12619273442E+02 -0.79947137768E+02  0.36068627930E+02  0.88610026635E+02  0.00000000000E+00 0.  1.
         21    1    1    2  504  502 -0.29529219057E+02 -0.47722051100E+02 -0.57250936713E+02  0.80168813723E+02  0.00000000000E+00 0.  1.
         21    1    1    2  505  503  0.49998961166E+02 -0.20835361942E+02  0.79653582206E+03  0.79837542813E+03  0.00000000000E+00 0. -1.
          1    1    1    2  501    0 -0.33089015551E+02  0.14850455081E+03  0.62740536519E+03  0.64558963501E+03  0.00000000000E+00 0.  1.
<scales pt_clust_3="119.17134" pt_clust_4="55.98729" pt_clust_5="54.16649" pt_clust_6="14000.00000"></scales>
<clustering>
<clus scale="   54.166">  1  5  2 -1</clus>
<clus scale="   55.987">  2  4  1 -1</clus>
<clus scale="  119.171">  2  3  1 -1</clus>
<clus scale="   55.987">  2  3  1 -1</clus>
</clustering>
</event>
<event>
 6    0  0.3082502E+002  0.1177321E+03  0.7546771E-02  0.1246886E+00
          4   -1    0    0  505    0 -0.00000000000E+00  0.00000000000E+00  0.35922210143E+03  0.35922210143E+03  0.00000000000E+00 0. -1.
         21   -1    0    0  504  502  0.00000000000E+00 -0.00000000000E+00 -0.11495060097E+03  0.11495060097E+03  0.00000000000E+00 0.  1.
         21    1    1    2  503  501 -0.91781099825E+02  0.44341721647E+02 -0.42200114096E+02  0.11032138593E+03  0.00000000000E+00 0.  1.
         21    1    1    2  504  503 -0.23060175806E+02  0.39586982938E+02  0.20261246429E+02  0.50094101780E+02  0.00000000000E+00 0. -1.
         21    1    1    2  505  502  0.15552207660E+02 -0.60476931750E+02  0.12274249307E+03  0.13771365235E+03  0.00000000000E+00 0. -1.
          4    1    1    2  501    0  0.99289067971E+02 -0.23451772835E+02  0.14346787506E+03  0.17604356234E+03  0.00000000000E+00 0. -1.
<scales pt_clust_3="117.73207" pt_clust_4="45.81376" pt_clust_5="59.15326" pt_clust_6="14000.00000"></scales>
<clustering>
<clus scale="   45.814">  2  4  1 -1</clus>
<clus scale="   59.153">  1  5  2 -1</clus>
<clus scale="  117.732">  2  3  1 -1</clus>
<clus scale="   45.814">  2  3  1 -1</clus>
</clustering>
</event>
<event>
 6    0  0.3082502E+002  0.1206630E+03  0.7546771E-02  0.1242007E+00
         21   -1    0    0  504  502  0.00000000000E+00  0.00000000000E+00  0.21653956680E+03  0.21653956680E+03  0.00000000000E+00 0.  1.
          1   -1    0    0  503    0 -0.00000000000E+00 -0.00000000000E+00 -0.39233039749E+04  0.39233039749E+04  0.00000000000E+00 0. -1.
         21    1    1    2  503  502 -0.18072217858E+02  0.24644094274E+02 -0.32544323374E+03  0.32687495289E+03  0.00000000000E+00 0.  1.
         21    1    1    2  504  505 -0.84391473492E+01 -0.34422056953E+02  0.18155600433E+03  0.18498291791E+03  0.00000000000E+00 0.  1.
         21    1    1    2  505  501  0.10262821940E+03 -0.43589505212E+02 -0.65385731420E+02  0.12925900454E+03  0.00000000000E+00 0.  1.
          1    1    1    2  501    0 -0.76116854192E+02  0.53367467891E+02 -0.34974914473E+04  0.34987266663E+04  0.00000000000E+00 0. -1.
<scales pt_clust_3="30.56037" pt_clust_4="35.43211" pt_clust_5="14000.00000" pt_clust_6="120.66301"></scales>
<clustering>
<clus scale="   30.560">  2  3  1 -1</clus>
<clus scale="   35.432">  1  4  2 -1</clus>
<clus scale="  120.663">  2  6  1 -1</clus>
<clus scale="   35.432">  1  3  2 -1</clus>
</clustering>
</event>
<event>
 6    0  0.3082502E+002  0.4136822E+03  0.7546771E-02  0.1039142E+00
         21   -1    0    0  504  502  0.00000000000E+00  0.00000000000E+00  0.34009225692E+04  0.34009225692E+04  0.00000000000E+00 0. -1.
          1   -1    0    0  505    0 -0.00000000000E+00 -0.00000000000E+00 -0.21771215308E+03  0.21771215308E+03  0.00000000000E+00 0. -1.
         21    1    1    2  503  501  0.16469014256E+02  0.50388032389E+02  0.13126361428E+01  0.53027400957E+02  0.00000000000E+00 0.  1.
         21    1    1    2  504  503 -0.61954474834E+02 -0.13820501320E+02  0.20356197537E+04  0.20366092274E+04  0.00000000000E+00 0. -1.
         21    1    1    2  505  502 -0.25681673192E+03 -0.24990805071E+03  0.10990524977E+04  0.11559953548E+04  0.00000000000E+00 0. -1.
          1    1    1    2  501    0  0.30230219250E+03  0.21334051964E+03  0.47225528585E+02  0.37300273921E+03  0.00000000000E+00 0. -1.
<scales pt_clust_3="33.80853" pt_clust_4="63.47727" pt_clust_5="403.92457" pt_clust_6="33.80853"></scales>
<clustering>
<clus scale="   33.809">  3  6 -1 -1</clus>
<clus scale="   63.477">  1  4  2 -1</clus>
<clus scale="  403.925">  1  5  2 -1</clus>
<clus scale="   63.477">  1  3  2 -1</clus>
</clustering>
</event>
<event>
 6    0  0.3082502E+002  0.9991142E+02  0.7546771E-02  0.1280482E+00
          3   -1    0    0  505    0 -0.00000000000E+00  0.00000000000E+00  0.68388775409E+03  0.68388775409E+03  0.00000000000E+00 0. -1.
         21   -1    0    0  503  502  0.00000000000E+00 -0.00000000000E+00 -0.50097366788E+03  0.50097366788E+03  0.00000000000E+00 0. -1.
         21    1    1    2  503  501 -0.32306831480E+02 -0.28432867725E+02 -0.36162793887E+03  0.36417979831E+03  0.00000000000E+00 0. -1.
         21    1    1    2  504  502  0.34104931659E+02 -0.17700137466E+02 -0.11702705888E+03  0.12317375427E+03  0.00000000000E+00 0.  1.
         21    1    1    2  505  504  0.98476853373E+02  0.25650253684E+02  0.19623292524E+03  0.22104973900E+03  0.00000000000E+00 0. -1.
          3    1    1    2  501    0 -0.10027495355E+03  0.20482751507E+02  0.46533615871E+03  0.47645813040E+03  0.00000000000E+00 0. -1.
<scales pt_clust_3="45.29832" pt_clust_4="38.42449" pt_clust_5="99.91142" pt_clust_6="14000.00000"></scales>
<clustering>
<clus scale="   38.424">  2  4  1 -1</clus>
<clus scale="   45.298">  2  3  1 -1</clus>
<clus scale="   99.911">  2  5  1 -1</clus>
<clus scale="   38.424">  2  3  1 -1</clus>
</clustering>
</event>
<event>
 6    0  0.3082502E+002  0.1502857E+03  0.7546771E-02  0.1200122E+00
          2   -1    0    0  505    0 -0.00000000000E+00  0.00000000000E+00  0.45699344008E+03  0.45699344008E+03  0.00000000000E+00 0.  1.
         21   -1    0    0  501  502  0.00000000000E+00 -0.00000000000E+00 -0.26903967606E+03  0.26903967606E+03  0.00000000000E+00 0.  1.
         21    1    1    2  503  502 -0.21012379106E+02 -0.24618220143E+02 -0.16001782917E+03  0.16325833054E+03  0.00000000000E+00 0.  1.
         21    1    1    2  504  503 -0.84138160028E+01 -0.73651329295E+02 -0.60252347728E+02  0.95528299542E+02  0.00000000000E+00 0. -1.
         21    1    1    2  505  504 -0.19075467043E+02 -0.36147738166E+02  0.71722057282E+01  0.41496661943E+02  0.00000000000E+00 0.  1.
          2    1    1    2  501    0  0.48501662152E+02  0.13441728760E+03  0.40105173518E+03  0.42574982411E+03  0.00000000000E+00 0.  1.
<scales pt_clust_3="32.36629" pt_clust_4="39.10679" pt_clust_5="39.10679" pt_clust_6="139.42361"></scales>
<clustering>
<clus scale="   32.366">  2  3  1 -1</clus>
<clus scale="   39.107">  4  5 -1 -1</clus>
<clus scale="  139.424">  1  6  2 -1</clus>
<clus scale="   32.366">  2  3  1 -1</clus>
</clustering>
</event>
<event>
 6    0  0.3082502E+002  0.1066626E+03  0.7546771E-02  0.1266878E+00
         21   -1    0    0  503  502  0.00000000000E+00  0.00000000000E+00  0.16318821071E+03  0.16318821071E+03  0.00000000000E+00 0. -1.
          2   -1    0    0  504    0 -0.00000000000E+00 -0.00000000000E+00 -0.22623638202E+04  0.22623638202E+04  0.00000000000E+00 0.  1.
         21    1    1    2  503  505 -0.60663989691E+00 -0.37718735670E+02  0.41935970062E+02  0.56406529919E+02  0.00000000000E+00 0. -1.
         21    1    1    2  504  502 -0.36100028480E+02  0.46465217338E+02 -0.62902453373E+03  0.63177060118E+03  0.00000000000E+00 0. -1.
         21    1    1    2  505  501  0.95193819763E+02 -0.14691556793E+02  0.91415557126E+02  0.13279498954E+03  0.00000000000E+00 0. -1.
          2    1    1    2  501    0 -0.58487151386E+02  0.59450751248E+01 -0.16035026030E+04  0.16045799103E+04  0.00000000000E+00 0.  1.
<scales pt_clust_3="37.72361" pt_clust_4="58.48719" pt_clust_5="106.66259" pt_clust_6="14000.00000"></scales>
<clustering>
<clus scale="   37.724">  1  3  2 -1</clus>
<clus scale="   58.487">  2  4  1 -1</clus>
<clus scale="  106.663">  1  5  2 -1</clus>
<clus scale="   37.724">  1  3  2 -1</clus>
</clustering>
</event>
<event>
 6    0  0.3082502E+002  0.7690082E+02  0.7546771E-02  0.1338084E+00
         21   -1    0    0  504  502  0.00000000000E+00  0.00000000000E+00  0.43253919533E+03  0.43253919533E+03  0.00000000000E+00 0.  1.
          1   -1    0    0  502    0 -0.00000000000E+00 -0.00000000000E+00 -0.37832461359E+03  0.37832461359E+03  0.00000000000E+00 0. -1.
         21    1    1    2  503  505 -0.53487584683E+02  0.68503406870E+02 -0.86673791508E+01  0.87342784071E+02  0.00000000000E+00 0.  1.
         21    1    1    2  504  503  0.77814161139E+02 -0.74592541785E+01  0.37463115657E+03  0.38269986624E+03  0.00000000000E+00 0.  1.
         21    1    1    2  505  501  0.13702603201E+02 -0.49895336650E+02 -0.37947465675E+02  0.64166315969E+02  0.00000000000E+00 0. -1.
          1    1    1    2  501    0 -0.38029179657E+02 -0.11148816041E+02 -0.27380173000E+03  0.27665484264E+03  0.00000000000E+00 0. -1.
<scales pt_clust_3="14000.00000" pt_clust_4="76.90082" pt_clust_5="55.65363" pt_clust_6="39.62972"></scales>
<clustering>
<clus scale="   39.630">  2  6  1 -1</clus>
<clus scale="   55.654">  2  5  1 -1</clus>
<clus scale="   76.901">  1  4  2 -1</clus>
<clus scale="   76.901">  1  3  2 -1</clus>
</clustering>
</event>
<event>
 6    0  0.3082502E+002  0.4231332E+03  0.7546771E-02  0.1036051E+00
          2   -1    0    0  504    0 -0.00000000000E+00  0.00000000000E+00  0.29801257783E+03  0.29801257783E+03  0.00000000000E+00 0.  1.
         21   -1    0    0  503  502  0.00000000000E+00 -0.00000000000E+00 -0.16470535893E+04  0.16470535893E+04  0.00000000000E+00 0.  1.
         21    1    1    2  503  505  0.25719671398E+03 -0.19073657606E+03 -0.44479070833E+03  0.54805963667E+03  0.00000000000E+00 0.  1.
         21    1    1    2  504  502  0.33185751283E+02 -0.14208011290E+03 -0.92465928915E+03  0.93609980962E+03  0.00000000000E+00 0.  1.
         21    1    1    2  505  501 -0.59422898991E+02  0.28902366845E+02 -0.35674330756E+02  0.75093845345E+02  0.00000000000E+00 0.  1.
          2    1    1    2  501    0 -0.23095956628E+03  0.30391432211E+03  0.56083316810E+02  0.38581287545E+03  0.00000000000E+00 0.  1.
<scales pt_clust_3="402.63151" pt_clust_4="145.90426" pt_clust_5="54.13583" pt_clust_6="54.13583"></scales>
<clustering>
<clus scale="   54.136">  5  6 -1 -1</clus>
<clus scale="  145.904">  2  4  1 -1</clus>
<clus scale="  402.632">  2  3  1 -1</clus>
<clus scale="  145.904">  2  3  1 -1</clus>
</clustering>
</event>
<event>
 6    0  0.3082502E+002  0.6618179E+02  0.7546771E-02  0.1373580E+00
         -1   -1    0    0    0  501 -0.00000000000E+00  0.00000000000E+00  0.75380819565E+03  0.75380819565E+03  0.00000000000E+00 0.  1.
         21   -1    0    0  504  502  0.00000000000E+00 -0.00000000000E+00 -0.82131112938E+02  0.82131112938E+02  0.00000000000E+00 0.  1.
         21    1    1    2  503  501 -0.71071414081E+01  0.32604138238E+02  0.66530555196E+02  0.74430209350E+02  0.00000000000E+00 0. -1.
         21    1    1    2  504  505 -0.51150613701E+02 -0.41315073751E+02 -0.52760722973E+02  0.84303110795E+02  0.00000000000E+00 0.  1.
         21    1    1    2  505  503  0.39129743925E+02  0.75894286237E+02  0.44544359911E+03  0.45355383311E+03  0.00000000000E+00 0.  1.
         -1    1    1    2    0  502  0.19128011184E+02 -0.67183350724E+02  0.21246365138E+03  0.22365215533E+03  0.00000000000E+00 0.  1.
<scales pt_clust_3="33.36977" pt_clust_4="14000.00000" pt_clust_5="66.18179" pt_clust_6="59.22934"></scales>
<clustering>
<clus scale="   33.370">  1  3  2 -1</clus>
<clus scale="   59.229">  1  6  2 -1</clus>
<clus scale="   66.182">  1  5  2 -1</clus>
<clus scale="   66.182">  2  3  1 -1</clus>
</clustering>
</event>
<event>
 6    0  0.3082502E+002  0.7971909E+02  0.7546771E-02  0.1329851E+00
         21   -1    0    0  503  502  0.00000000000E+00  0.00000000000E+00  0.52950016132E+03  0.52950016132E+03  0.00000000000E+00 0.  1.
          2   -1    0    0  504    0 -0.00000000000E+00 -0.00000000000E+00 -0.26556681900E+04  0.26556681900E+04  0.00000000000E+00 0.  1.
         21    1    1    2  503  501  0.42997950585E+02 -0.55992110724E+02  0.25247613540E+03  0.26216052175E+03  0.00000000000E+00 0.  1.
         21    1    1    2  504  505  0.26790648581E+02  0.20296040272E+02 -0.13128216592E+03  0.13551632813E+03  0.00000000000E+00 0. -1.
         21    1    1    2  505  502 -0.11535827034E+02  0.11110534296E+03  0.25756955308E+03  0.28074819182E+03  0.00000000000E+00 0.  1.
          2    1    1    2  501    0 -0.58252772131E+02 -0.75409272507E+02 -0.25049315512E+04  0.25067433096E+04  0.00000000000E+00 0.  1.
<scales pt_clust_3="79.71909" pt_clust_4="33.61054" pt_clust_5="14000.00000" pt_clust_6="63.66269"></scales>
<clustering>
<clus scale="   33.611">  2  4  1 -1</clus>
<clus scale="   63.663">  2  6  1 -1</clus>
<clus scale="   79.719">  1  3  2 -1</clus>
<clus scale="   79.719">  1  3  2 -1</clus>
</clustering>
</event>
<event>
 6    0  0.3082502E+002  0.1064877E+03  0.7546771E-02  0.1267216E+00
         21   -1    0    0  505  502  0.00000000000E+00  0.00000000000E+00  0.30037238364E+02  0.30037238364E+02  0.00000000000E+00 0.  1.
          2   -1    0    0  503    0 -0.00000000000E+00 -0.00000000000E+00 -0.15009246480E+04  0.15009246480E+04  0.00000000000E+00 0. -1.
         21    1    1    2  503  504  0.17691760530E+02  0.41393948422E+02 -0.42869175441E+03  0.43104881123E+03  0.00000000000E+00 0.  1.
         21    1    1    2  504  502  0.60766989939E+02  0.55914508187E+02 -0.14308570561E+03  0.16520465624E+03  0.00000000000E+00 0.  1.
         21    1    1    2  505  501  0.34825191310E+02 -0.56117554308E+01 -0.14443470317E+02  0.38116919913E+02  0.00000000000E+00 0.  1.
          2    1    1    2  501    0 -0.11328394178E+03 -0.91696701178E+02 -0.88466647924E+03  0.89659149894E+03  0.00000000000E+00 0. -1.
<scales pt_clust_3="45.62216" pt_clust_4="14000.00000" pt_clust_5="35.27443" pt_clust_6="106.48774"></scales>
<clustering>
<clus scale="   35.274">  1  5  2 -1</clus>
<clus scale="   45.622">  2  3  1 -1</clus>
<clus scale="  106.488">  2  6  1 -1</clus>
<clus scale="   35.274">  1  3  2 -1</clus>
</clustering>
</event>
<event>
 6    0  0.3082502E+002  0.7316262E+02  0.7546771E-02  0.1349657E+00
         -2   -1    0    0    0  501 -0.00000000000E+00  0.00000000000E+00  0.34632652433E+03  0.34632652433E+03  0.00000000000E+00 0.  1.
         21   -1    0    0  505  502  0.00000000000E+00 -0.00000000000E+00 -0.36081915424E+03  0.36081915424E+03  0.00000000000E+00 0. -1.
         21    1    1    2  503  501 -0.41390097055E+02 -0.21024630564E+02  0.61580263960E+02  0.77118766419E+02  0.00000000000E+00 0.  1.
         21    1    1    2  504  502 -0.37614997557E+01  0.88377962824E+02  0.45029657512E+02  0.99259675846E+02  0.00000000000E+00 0.  1.
         21    1    1    2  505  503  0.68597346470E+02 -0.26751087906E+02 -0.31900239134E+03  0.32738928255E+03  0.00000000000E+00 0. -1.
         -2    1    1    2    0  504 -0.23445749659E+02 -0.40602244354E+02  0.19789983995E+03  0.20337795376E+03  0.00000000000E+00 0.  1.
<scales pt_clust_3="46.42386" pt_clust_4="71.73338" pt_clust_5="73.16262" pt_clust_6="14000.00000"></scales>
<clustering>
<clus scale="   46.424">  1  3  2 -1</clus>
<clus scale="   73.163">  2  5  1 -1</clus>
<clus scale="   71.733">  2  4  1 -1</clus>
<clus scale="   73.163">  2  3  1 -1</clus>
</clustering>
</event>
<event>
 6    0  0.3082502E+002  0.2218954E+03  0.7546771E-02  0.1132478E+00
          2   -1    0    0  504    0 -0.00000000000E+00  0.00000000000E+00  0.21083985366E+04  0.21083985366E+04  0.00000000000E+00 0. -1.
         21   -1    0    0  505  502  0.00000000000E+00 -0.00000000000E+00 -0.10949187222E+03  0.10949187222E+03  0.00000000000E+00 0.  1.
         21    1    1    2  503  501  0.10084489583E+03  0.19534429377E+02  0.21656794077E+03  0.23969347074E+03  0.00000000000E+00 0. -1.
         21    1    1    2  504  502  0.12335205244E+03  0.92744730483E+02  0.49067914723E+01  0.15440657523E+03  0.00000000000E+00 0.  1.
         21    1    1    2  505  503 -0.37651169447E+02  0.19788504442E+02  0.12801645635E+02  0.44419338128E+02  0.00000000000E+00 0.  1.
          2    1    1    2  501    0 -0.18654577882E+03 -0.13206766430E+03  0.17646302865E+04  0.17793710247E+04  0.00000000000E+00 0. -1.
<scales pt_clust_3="98.67625" pt_clust_4="221.89537" pt_clust_5="42.53464" pt_clust_6="14000.00000"></scales>
<clustering>
<clus scale="   42.535">  2  5  1 -1</clus>
<clus scale="   98.676">  2  3  1 -1</clus>
<clus scale="  221.895">  2  4  1 -1</clus>
<clus scale="   42.535">  2  3  1 -1</clus>
</clustering>
</event>
<event>
 6    0  0.3082502E+002  0.1421575E+03  0.7546771E-02  0.1210455E+00
         21   -1    0    0  505  502  0.00000000000E+00  0.00000000000E+00  0.19332220526E+02  0.19332220526E+02  0.00000000000E+00 0. -1.
          1   -1    0    0  504    0 -0.00000000000E+00 -0.00000000000E+00 -0.19432299203E+04  0.19432299203E+04  0.00000000000E+00 0. -1.
         21    1    1    2  503  501  0.16043413161E+02  0.41758885466E+02 -0.28781153037E+03  0.29126735594E+03  0.00000000000E+00 0. -1.
         21    1    1    2  504  502  0.94422265930E+02 -0.12002550013E+03 -0.51290074698E+03  0.53515311943E+03  0.00000000000E+00 0. -1.
         21    1    1    2  505  503 -0.34661807702E+02  0.72128807599E+02 -0.34084027125E+03  0.35010869213E+03  0.00000000000E+00 0. -1.
          1    1    1    2  501    0 -0.75803871389E+02  0.61378070654E+01 -0.78234515122E+03  0.78603297337E+03  0.00000000000E+00 0. -1.
<scales pt_clust_3="39.86624" pt_clust_4="131.77884" pt_clust_5="39.86624" pt_clust_6="76.05195"></scales>
<clustering>
<clus scale="   39.866">  3  5 -1 -1</clus>
<clus scale="   76.052">  2  6  1 -1</clus>
<clus scale="  131.779">  1  4  2 -1</clus>
<clus scale="  131.779">  1  3  2 -1</clus>
</clustering>
</event>
<event>
 6    0  0.3082502E+002  0.8229764E+02  0.7546771E-02  0.1322655E+00
          2   -1    0    0  505    0 -0.00000000000E+00  0.00000000000E+00  0.60714829263E+03  0.60714829263E+03  0.00000000000E+00 0.  1.
         21   -1    0    0  504  502  0.00000000000E+00 -0.00000000000E+00 -0.77327621088E+02  0.77327621088E+02  0.00000000000E+00 0.  1.
         21    1    1    2  503  502 -0.15771125598E+02  0.67175991617E+02 -0.24612261974E+02  0.73260532975E+02  0.00000000000E+00 0.  1.
         21    1    1    2  504  501  0.16262530812E+01 -0.37071043651E+02  0.75814833452E+01  0.37873286973E+02  0.00000000000E+00 0. -1.
         21    1    1    2  505  503 -0.48462127292E+02  0.50537402963E+02  0.23440891108E+03  0.24464289172E+03  0.00000000000E+00 0.  1.
          2    1    1    2  501    0  0.62606999809E+02 -0.80642350929E+02  0.31244253909E+03  0.32869920204E+03  0.00000000000E+00 0.  1.
<scales pt_clust_3="40.67072" pt_clust_4="37.10670" pt_clust_5="82.29764" pt_clust_6="14000.00000"></scales>
<clustering>
<clus scale="   37.107">  2  4  1 -1</clus>
<clus scale="   40.671">  2  3  1 -1</clus>
<clus scale="   82.298">  1  5  2 -1</clus>
<clus scale="   37.107">  2  3  1 -1</clus>
</clustering>
</event>
<event>
 6    0  0.3082502E+002  0.1764377E+03  0.7546771E-02  0.1171296E+00
          2   -1    0    0  502    0 -0.00000000000E+00  0.00000000000E+00  0.91925448545E+03  0.91925448545E+03  0.00000000000E+00 0. -1.
         21   -1    0    0  503  502  0.00000000000E+00 -0.00000000000E+00 -0.66932088649E+03  0.66932088649E+03  0.00000000000E+00 0.  1.
         21    1    1    2  503  505  0.22693183252E+02  0.34287563817E+02 -0.60149131441E+03  0.60289503142E+03  0.00000000000E+00 0.  1.
         21    1    1    2  504  501 -0.41052752016E+02 -0.21965849449E+02  0.67795786869E+02  0.82244122630E+02  0.00000000000E+00 0.  1.
         21    1    1    2  505  504 -0.11943946518E+03 -0.88621329170E+02  0.55946028359E+02  0.15890086191E+03  0.00000000000E+00 0. -1.
          2    1    1    2  501    0  0.13779903394E+03  0.76299614802E+02  0.72768309815E+03  0.74453535598E+03  0.00000000000E+00 0. -1.
<scales pt_clust_3="41.11712" pt_clust_4="38.97214" pt_clust_5="38.97214" pt_clust_6="162.10696"></scales>
<clustering>
<clus scale="   38.972">  4  5 -1 -1</clus>
<clus scale="   41.117">  2  3  1 -1</clus>
<clus scale="  162.107">  1  6  2 -1</clus>
<clus scale="   41.117">  2  3  1 -1</clus>
</clustering>
</event>
<event>
 6    0  0.3082502E+002  0.1666149E+03  0.7546771E-02  0.1181425E+00
         21   -1    0    0  504  502  0.00000000000E+00  0.00000000000E+00  0.14053884573E+04  0.14053884573E+04  0.00000000000E+00 0. -1.
         -2   -1    0    0    0  501 -0.00000000000E+00 -0.00000000000E+00 -0.58475610459E+03  0.58475610459E+03  0.00000000000E+00 0.  1.
         21    1    1    2  503  505 -0.11888497590E+03  0.11808877222E+03  0.71793749329E+03  0.73723323303E+03  0.00000000000E+00 0. -1.
         21    1    1    2  504  501 -0.23048865994E+02  0.36150309654E+02 -0.82222049490E+02  0.92728423550E+02  0.00000000000E+00 0.  1.
         21    1    1    2  505  502  0.33411910014E+02  0.23999028489E+02  0.64954427783E+03  0.65084566371E+03  0.00000000000E+00 0. -1.
         -2    1    1    2    0  503  0.10852193188E+03 -0.17823811036E+03 -0.46462736894E+03  0.50933724157E+03  0.00000000000E+00 0.  1.
<scales pt_clust_3="14000.00000" pt_clust_4="42.88978" pt_clust_5="41.13768" pt_clust_6="166.61491"></scales>
<clustering>
<clus scale="   41.138">  1  5  2 -1</clus>
<clus scale="   42.890">  2  4  1 -1</clus>
<clus scale="  166.615">  2  6  1 -1</clus>
<clus scale="   41.138">  1  3  2 -1</clus>
</clustering>
</event>
<event>
 6    0  0.3082502E+002  0.1313791E+03  0.7546771E-02  0.1225424E+00
         21   -1    0    0  503  502  0.00000000000E+00  0.00000000000E+00  0.37832284779E+03  0.37832284779E+03  0.00000000000E+00 0.  1.
          4   -1    0    0  505    0 -0.00000000000E+00 -0.00000000000E+00 -0.45682286937E+03  0.45682286937E+03  0.00000000000E+00 0. -1.
         21    1    1    2  503  501 -0.13633534595E+03  0.12185540841E+01  0.28245459315E+03  0.31363897816E+03  0.00000000000E+00 0.  1.
         21    1    1    2  504  502  0.12297010714E+02  0.57986469216E+02  0.52100732276E+02  0.78918523734E+02  0.00000000000E+00 0.  1.
         21    1    1    2  505  504  0.40429407571E+02 -0.54764610551E+02 -0.12173001045E+03  0.13947005058E+03  0.00000000000E+00 0. -1.
          4    1    1    2  501    0  0.83608927663E+02 -0.44404127492E+01 -0.29132533655E+03  0.30311816469E+03  0.00000000000E+00 0. -1.
<scales pt_clust_3="131.37915" pt_clust_4="59.27602" pt_clust_5="66.96735" pt_clust_6="14000.00000"></scales>
<clustering>
<clus scale="   59.276">  1  4  2 -1</clus>
<clus scale="   66.967">  2  5  1 -1</clus>
<clus scale="  131.379">  1  3  2 -1</clus>
<clus scale="   59.276">  1  3  2 -1</clus>
</clustering>
</event>
<event>
 6    0  0.3082502E+002  0.2257706E+03  0.7546771E-02  0.1129653E+00
         21   -1    0    0  504  502  0.00000000000E+00  0.00000000000E+00  0.26852738972E+03  0.26852738972E+03  0.00000000000E+00 0.  1.
          2   -1    0    0  505    0 -0.00000000000E+00 -0.00000000000E+00 -0.11023206361E+04  0.11023206361E+04  0.00000000000E+00 0.  1.
         21    1    1    2  503  502  0.20817199975E+02 -0.34254585632E+02  0.41630410089E+01  0.40299669503E+02  0.00000000000E+00 0.  1.
         21    1    1    2  504  501 -0.24577559263E+02 -0.19345518332E+03  0.18560701062E+03  0.26921910549E+03  0.00000000000E+00 0.  1.
         21    1    1    2  505  503 -0.34875346639E+02 -0.59913161955E+01 -0.24461809917E+03  0.24716431804E+03  0.00000000000E+00 0.  1.
          2    1    1    2  501    0  0.38635705927E+02  0.23370108515E+03 -0.77894519881E+03  0.81416493275E+03  0.00000000000E+00 0.  1.
<scales pt_clust_3="39.81603" pt_clust_4="14000.00000" pt_clust_5="35.38624" pt_clust_6="225.77061"></scales>
<clustering>
<clus scale="   35.386">  2  5  1 -1</clus>
<clus scale="   39.816">  1  3  2 -1</clus>
<clus scale="  225.771">  2  6  1 -1</clus>
<clus scale="   39.816">  1  3  2 -1</clus>
</clustering>
</event>
<event>
 6    0  0.3082502E+002  0.7043544E+02  0.7546771E-02  0.1358619E+00
         -2   -1    0    0    0  501 -0.00000000000E+00  0.00000000000E+00  0.34488360565E+03  0.34488360565E+03  0.00000000000E+00 0. -1.
         21   -1    0    0  505  502  0.00000000000E+00 -0.00000000000E+00 -0.94810590462E+03  0.94810590462E+03  0.00000000000E+00 0.  1.
         21    1    1    2  503  501  0.29157138257E+02 -0.36208390384E+02  0.39047981111E+02  0.60711869304E+02  0.00000000000E+00 0. -1.
         21    1    1    2  504  502 -0.59745798700E+02 -0.66394647889E+02  0.16258341370E+03  0.18550249632E+03  0.00000000000E+00 0. -1.
         21    1    1    2  505  503  0.62957162647E+02  0.31362806654E+02 -0.91166174741E+03  0.91437102516E+03  0.00000000000E+00 0.  1.
         -2    1    1    2    0  504 -0.32368502203E+02  0.71240231619E+02  0.10680805363E+03  0.13240411948E+03  0.00000000000E+00 0. -1.
<scales pt_clust_3="46.48856" pt_clust_4="70.43544" pt_clust_5="14000.00000" pt_clust_6="60.17646"></scales>
<clustering>
<clus scale="   46.489">  1  3  2 -1</clus>
<clus scale="   60.176">  1  6  2 -1</clus>
<clus scale="   70.435">  1  4  2 -1</clus>
<clus scale="   70.435">  2  3  1 -1</clus>
</clustering>
</event>
<event>
 6    0  0.3082502E+002  0.1747655E+03  0.7546771E-02  0.1172967E+00
         21   -1    0    0  503  502  0.00000000000E+00  0.00000000000E+00  0.95912035347E+03  0.95912035347E+03  0.00000000000E+00 0.  1.
         -3   -1    0    0    0  501 -0.00000000000E+00 -0.00000000000E+00 -0.97710327084E+03  0.97710327084E+03  0.00000000000E+00 0. -1.
         21    1    1    2  503  505 -0.12499689923E+02  0.72046109070E+02  0.15197969638E+03  0.16865560232E+03  0.00000000000E+00 0. -1.
         21    1    1    2  504  502 -0.47251101747E+02 -0.23123549386E+02  0.75589155370E+03  0.75771987311E+03  0.00000000000E+00 0.  1.
         21    1    1    2  505  501 -0.13036628878E+03 -0.22565321332E+02 -0.11101955219E+03  0.17271335775E+03  0.00000000000E+00 0. -1.
         -3    1    1    2    0  504  0.19011708045E+03 -0.26357238351E+02 -0.81483461526E+03  0.83713479113E+03  0.00000000000E+00 0. -1.
<scales pt_clust_3="73.35087" pt_clust_4="52.60575" pt_clust_5="14000.00000" pt_clust_6="174.76546"></scales>
<clustering>
<clus scale="   52.606">  1  4  2 -1</clus>
<clus scale="   73.351">  1  3  2 -1</clus>
<clus scale="  174.765">  2  6  1 -1</clus>
<clus scale="   52.606">  1  3  2 -1</clus>
</clustering>
</event>
<event>
 6    0  0.2054918E+003  0.9785847E+02  0.7546771E-02  0.1284865E+00
         -2   -1    0    0    0  501 -0.00000000000E+00  0.00000000000E+00  0.51493730553E+03  0.51493730553E+03  0.00000000000E+00 0. -1.
         21   -1    0    0  504  502  0.00000000000E+00 -0.00000000000E+00 -0.33804999234E+04  0.33804999234E+04  0.00000000000E+00 0. -1.
         21    1    1    2  503  502 -0.99803188490E+02 -0.10933684680E+02 -0.33023048247E+04  0.33038307125E+04  0.00000000000E+00 0. -1.
         21    1    1    2  504  505  0.58017600358E+02 -0.80982430468E+01 -0.57393626784E+02  0.82010071864E+02  0.00000000000E+00 0.  1.
         21    1    1    2  505  501  0.13496835163E+02 -0.35658251618E+02  0.59817770793E+02  0.70935471878E+02  0.00000000000E+00 0.  1.
         -2    1    1    2    0  503  0.28288752969E+02  0.54690179345E+02  0.43431806281E+03  0.43866097267E+03  0.00000000000E+00 0. -1.
<scales pt_clust_3="97.85847" pt_clust_4="14000.00000" pt_clust_5="38.12710" pt_clust_6="46.00160"></scales>
<clustering>
<clus scale="   38.127">  1  5  2 -1</clus>
<clus scale="   46.002">  1  6  2 -1</clus>
<clus scale="   97.858">  2  3  1 -1</clus>
<clus scale="   97.858">  2  3  1 -1</clus>
</clustering>
</event>
<event>
 6    0  0.3082502E+002  0.1239028E+03  0.7546771E-02  0.1236794E+00
         21   -1    0    0  503  502  0.00000000000E+00  0.00000000000E+00  0.24319615545E+03  0.24319615545E+03  0.00000000000E+00 0. -1.
         -2   -1    0    0    0  501 -0.00000000000E+00 -0.00000000000E+00 -0.20445817606E+04  0.20445817606E+04  0.00000000000E+00 0. -1.
         21    1    1    2  503  505  0.47288002481E+02 -0.11275909596E+03  0.17964870594E+03  0.21731181847E+03  0.00000000000E+00 0. -1.
         21    1    1    2  504  501  0.15770963045E+01 -0.52944004438E+02 -0.17019689981E+04  0.17027930072E+04  0.00000000000E+00 0. -1.
         21    1    1    2  505  504 -0.82603841615E+02  0.11047012733E+03 -0.82502120706E+02  0.16072847788E+03  0.00000000000E+00 0. -1.
         -2    1    1    2    0  502  0.33738742830E+02  0.55232973066E+02 -0.19656319229E+03  0.20694461251E+03  0.00000000000E+00 0. -1.
<scales pt_clust_3="14000.00000" pt_clust_4="52.96749" pt_clust_5="123.90284" pt_clust_6="42.17572"></scales>
<clustering>
<clus scale="   52.967">  2  4  1 -1</clus>
<clus scale="   42.176">  2  6  1 -1</clus>
<clus scale="  123.903">  2  5  1 -1</clus>
<clus scale="  123.903">  1  3  2 -1</clus>
</clustering>
</event>
<event>
 6    0  0.3082502E+002  0.1126148E+03  0.7546771E-02  0.1255803E+00
         21   -1    0    0  503  502  0.00000000000E+00  0.00000000000E+00  0.40653190639E+03  0.40653190639E+03  0.00000000000E+00 0.  1.
         -1   -1    0    0    0  501 -0.00000000000E+00 -0.00000000000E+00 -0.45451783086E+02  0.45451783086E+02  0.00000000000E+00 0. -1.
         21    1    1    2  503  504  0.27482760478E+02  0.40804985550E+02  0.14860435197E+03  0.15653626542E+03  0.00000000000E+00 0.  1.
         21    1    1    2  504  505  0.44380694202E+02  0.35183246054E+02  0.80468981452E+02  0.98401035547E+02  0.00000000000E+00 0.  1.
         21    1    1    2  505  501  0.25554077490E+02 -0.23533961187E+02  0.41354945570E+02  0.54010089137E+02  0.00000000000E+00 0. -1.
         -1    1    1    2    0  502 -0.97417532170E+02 -0.52454270418E+02  0.90651844312E+02  0.14303629937E+03  0.00000000000E+00 0. -1.
<scales pt_clust_3="36.32858" pt_clust_4="36.32858" pt_clust_5="34.73986" pt_clust_6="105.36707"></scales>
<clustering>
<clus scale="   34.740">  2  5  1 -1</clus>
<clus scale="   36.329">  3  4 -1 -1</clus>
<clus scale="  105.367">  2  6  1 -1</clus>
<clus scale="  112.615">  1  3  2 -1</clus>
</clustering>
</event>
<event>
 6    0  0.3082502E+002  0.1643810E+03  0.7546771E-02  0.1183838E+00
          1   -1    0    0  505    0 -0.00000000000E+00  0.00000000000E+00  0.12957963574E+04  0.12957963574E+04  0.00000000000E+00 0. -1.
         21   -1    0    0  504  502  0.00000000000E+00 -0.00000000000E+00 -0.60604697521E+03  0.60604697521E+03  0.00000000000E+00 0.  1.
         21    1    1    2  503  502 -0.33814729829E+02  0.13192311381E+02 -0.47526040716E+03  0.47664444573E+03  0.00000000000E+00 0.  1.
         21    1    1    2  504  501 -0.13251591015E+03  0.14982160690E+02 -0.77090757424E+02  0.15403868495E+03  0.00000000000E+00 0.  1.
         21    1    1    2  505  503  0.14415094519E+02  0.26681646146E+02  0.15662475227E+02  0.34132364719E+02  0.00000000000E+00 0. -1.
          1    1    1    2  501    0  0.15191554546E+03 -0.54856118217E+02  0.12264380715E+04  0.12370278372E+04  0.00000000000E+00 0. -1.
<scales pt_clust_3="36.29498" pt_clust_4="14000.00000" pt_clust_5="30.32664" pt_clust_6="164.38104"></scales>
<clustering>
<clus scale="   30.327">  1  5  2 -1</clus>
<clus scale="   36.295">  2  3  1 -1</clus>
<clus scale="  164.381">  1  6  2 -1</clus>
<clus scale="   36.295">  2  3  1 -1</clus>
</clustering>
</event>
<event>
 6    0  0.3082502E+002  0.1118830E+03  0.7546771E-02  0.1257122E+00
         21   -1    0    0  505  502  0.00000000000E+00  0.00000000000E+00  0.66393603967E+02  0.66393603967E+02  0.00000000000E+00 0.  1.
          2   -1    0    0  503    0 -0.00000000000E+00 -0.00000000000E+00 -0.93646567448E+03  0.93646567448E+03  0.00000000000E+00 0. -1.
         21    1    1    2  503  504  0.10354219156E+03 -0.67920342745E+01  0.68708771707E+00  0.10376699501E+03  0.00000000000E+00 0.  1.
         21    1    1    2  504  502 -0.19630655361E+02  0.67109356391E+02 -0.11286903141E+03  0.13277216047E+03  0.00000000000E+00 0.  1.
         21    1    1    2  505  501 -0.49417024406E+02 -0.25705634430E+02 -0.25239887666E+03  0.25847246446E+03  0.00000000000E+00 0.  1.
          2    1    1    2  501    0 -0.34494511795E+02 -0.34611687686E+02 -0.50549125016E+03  0.50784765851E+03  0.00000000000E+00 0. -1.
<scales pt_clust_3="101.72533" pt_clust_4="69.92159" pt_clust_5="43.62828" pt_clust_6="43.62828"></scales>
<clustering>
<clus scale="   43.628">  5  6 -1 -1</clus>
<clus scale="   69.922">  1  4  2 -1</clus>
<clus scale="  101.725">  1  3  2 -1</clus>
<clus scale="   69.922">  1  3  2 -1</clus>
</clustering>
</event>
<event>
 6    0  0.3082502E+002  0.8375069E+02  0.7546771E-02  0.1318732E+00
         21   -1    0    0  503  502  0.00000000000E+00  0.00000000000E+00  0.77533551375E+03  0.77533551375E+03  0.00000000000E+00 0.  1.
          3   -1    0    0  504    0 -0.00000000000E+00 -0.00000000000E+00 -0.10003633144E+04  0.10003633144E+04  0.00000000000E+00 0. -1.
         21    1    1    2  503  501  0.22056977943E+02 -0.37036003861E+02  0.50065868599E+02  0.66066383710E+02  0.00000000000E+00 0. -1.
         21    1    1    2  504  505  0.20688491647E+02 -0.36360840909E+02 -0.13150098198E+03  0.13799504593E+03  0.00000000000E+00 0.  1.
         21    1    1    2  505  502  0.61600254781E+02  0.39610418300E+02  0.70862070094E+03  0.71239516733E+03  0.00000000000E+00 0.  1.
          3    1    1    2  501    0 -0.10434572437E+03  0.33786426470E+02 -0.85221338817E+03  0.85924223115E+03  0.00000000000E+00 0. -1.
<scales pt_clust_3="43.49313" pt_clust_4="41.83449" pt_clust_5="83.75069" pt_clust_6="14000.00000"></scales>
<clustering>
<clus scale="   41.834">  2  4  1 -1</clus>
<clus scale="   43.493">  1  3  2 -1</clus>
<clus scale="   83.751">  1  5  2 -1</clus>
<clus scale="   43.493">  1  3  2 -1</clus>
</clustering>
</event>
<event>
 6    0  0.3082502E+002  0.1404160E+03  0.7546771E-02  0.1212770E+00
         21   -1    0    0  505  502  0.00000000000E+00  0.00000000000E+00  0.73931466578E+02  0.73931466578E+02  0.00000000000E+00 0. -1.
         -3   -1    0    0    0  501 -0.00000000000E+00 -0.00000000000E+00 -0.11306521541E+04  0.11306521541E+04  0.00000000000E+00 0. -1.
         21    1    1    2  503  501 -0.88619001062E+02 -0.18718324889E+01 -0.14708321551E+03  0.17172741014E+03  0.00000000000E+00 0.  1.
         21    1    1    2  504  502 -0.30442158923E+02  0.81838106689E+02 -0.59927442442E+02  0.10590325351E+03  0.00000000000E+00 0. -1.
         21    1    1    2  505  503  0.16842400653E+02  0.41035513962E+02  0.15785241771E+02  0.47082414165E+02  0.00000000000E+00 0. -1.
         -3    1    1    2    0  504  0.10221875933E+03 -0.12100178816E+03 -0.86549527131E+03  0.87987054284E+03  0.00000000000E+00 0. -1.
<scales pt_clust_3="84.33371" pt_clust_4="14000.00000" pt_clust_5="44.35741" pt_clust_6="140.41604"></scales>
<clustering>
<clus scale="   44.357">  1  5  2 -1</clus>
<clus scale="   84.334">  1  3  2 -1</clus>
<clus scale="  140.416">  2  6  1 -1</clus>
<clus scale="   44.357">  1  3  2 -1</clus>
</clustering>
</event>
<event>
 6    0  0.3082502E+002  0.1163224E+03  0.7546771E-02  0.1249290E+00
          2   -1    0    0  504    0 -0.00000000000E+00  0.00000000000E+00  0.17374993926E+04  0.17374993926E+04  0.00000000000E+00 0. -1.
         21   -1    0    0  503  502  0.00000000000E+00 -0.00000000000E+00 -0.10520380316E+03  0.10520380316E+03  0.00000000000E+00 0. -1.
         21    1    1    2  503  501  0.73495016065E+02 -0.51496836846E+02 -0.41392946023E+01  0.89836381001E+02  0.00000000000E+00 0. -1.
         21    1    1    2  504  505  0.55570480147E+02  0.24478571129E+02  0.31738669456E+03  0.32314330039E+03  0.00000000000E+00 0. -1.
         21    1    1    2  505  502 -0.98150378448E+02 -0.68534424889E+02  0.13670161824E+02  0.12048791437E+03  0.00000000000E+00 0. -1.
          2    1    1    2  501    0 -0.30915117763E+02  0.95552690606E+02  0.13053780277E+04  0.13092356000E+04  0.00000000000E+00 0. -1.
<scales pt_clust_3="90.70583" pt_clust_4="60.72297" pt_clust_5="116.32242" pt_clust_6="14000.00000"></scales>
<clustering>
<clus scale="   60.723">  1  4  2 -1</clus>
<clus scale="   90.706">  2  3  1 -1</clus>
<clus scale="  116.322">  2  5  1 -1</clus>
<clus scale="   90.706">  2  3  1 -1</clus>
</clustering>
</event>
<event>
 6    0  0.3082502E+002  0.4832835E+02  0.7546771E-02  0.1454572E+00
         21   -1    0    0  505  502  0.00000000000E+00  0.00000000000E+00  0.22752136627E+03  0.22752136627E+03  0.00000000000E+00 0. -1.
          2   -1    0    0  503    0 -0.00000000000E+00 -0.00000000000E+00 -0.11390987933E+04  0.11390987933E+04  0.00000000000E+00 0. -1.
         21    1    1    2  503  502 -0.41926926688E+02  0.18545748328E+02 -0.35955153746E+03  0.36246257745E+03  0.00000000000E+00 0.  1.
         21    1    1    2  504  501 -0.64443070858E+02  0.50553066889E+02 -0.48605641640E+02  0.95241956893E+02  0.00000000000E+00 0. -1.
         21    1    1    2  505  504  0.40615927600E+02 -0.17511249715E+02  0.19782417786E+03  0.20270841815E+03  0.00000000000E+00 0. -1.
          2    1    1    2  501    0  0.65754069946E+02 -0.51587565503E+02 -0.70124442584E+03  0.70620720713E+03  0.00000000000E+00 0. -1.
<scales pt_clust_3="43.48359" pt_clust_4="48.32835" pt_clust_5="44.23005" pt_clust_6="14000.00000"></scales>
<clustering>
<clus scale="   44.230">  1  5  2 -1</clus>
<clus scale="   43.484">  2  3  1 -1</clus>
<clus scale="   48.328">  1  4  2 -1</clus>
<clus scale="   44.230">  1  3  2 -1</clus>
</clustering>
</event>
<event>
 6    0  0.3082502E+002  0.1459214E+03  0.7546771E-02  0.1205576E+00
         21   -1    0    0  503  502  0.00000000000E+00  0.00000000000E+00  0.13904083196E+03  0.13904083196E+03  0.00000000000E+00 0. -1.
          1   -1    0    0  505    0 -0.00000000000E+00 -0.00000000000E+00 -0.20720989547E+03  0.20720989547E+03  0.00000000000E+00 0. -1.
         21    1    1    2  503  504  0.10168019726E+03  0.57234582473E+02  0.85467388709E+01  0.11699447291E+03  0.00000000000E+00 0. -1.
         21    1    1    2  504  501 -0.24689867589E+02 -0.30506861003E+02 -0.13934568645E+02  0.41646492447E+02  0.00000000000E+00 0. -1.
         21    1    1    2  505  502  0.43900217649E+02 -0.27451308274E+02 -0.86457306236E+00  0.51783693594E+02  0.00000000000E+00 0. -1.
          1    1    1    2  501    0 -0.12089054733E+03  0.72358680316E+00 -0.61916660666E+02  0.13582606848E+03  0.00000000000E+00 0. -1.
<scales pt_clust_3="132.78042" pt_clust_4="34.48111" pt_clust_5="51.77648" pt_clust_6="34.48111"></scales>
<clustering>
<clus scale="   34.481">  4  6 -1 -1</clus>
<clus scale="   51.776">  1  5  2 -1</clus>
<clus scale="  132.780">  1  3  2 -1</clus>
<clus scale="   51.776">  1  3  2 -1</clus>
</clustering>
</event>
<event>
 6    0  0.3082502E+002  0.7332832E+02  0.7546771E-02  0.1349127E+00
          1   -1    0    0  502    0 -0.00000000000E+00  0.00000000000E+00  0.99810380230E+03  0.99810380230E+03  0.00000000000E+00 0. -1.
         21   -1    0    0  505  502  0.00000000000E+00 -0.00000000000E+00 -0.74677644113E+03  0.74677644113E+03  0.00000000000E+00 0. -1.
         21    1    1    2  503  501 -0.72444330663E+02 -0.25665994081E+02  0.26194609631E+03  0.27298842772E+03  0.00000000000E+00 0. -1.
         21    1    1    2  504  503 -0.38235131600E+01 -0.80679681895E+02 -0.88709026067E+02  0.11997133670E+03  0.00000000000E+00 0.  1.
         21    1    1    2  505  504  0.45456204890E+02  0.58501253871E+02 -0.63362110843E+03  0.63793759280E+03  0.00000000000E+00 0. -1.
          1    1    1    2  501    0  0.30811638934E+02  0.47844422105E+02  0.71171139935E+03  0.71398288620E+03  0.00000000000E+00 0. -1.
<scales pt_clust_3="47.59627" pt_clust_4="73.32832" pt_clust_5="14000.00000" pt_clust_6="56.90734"></scales>
<clustering>
<clus scale="   56.907">  1  6  2 -1</clus>
<clus scale="   47.596">  1  3  2 -1</clus>
<clus scale="   73.328">  1  4  2 -1</clus>
<clus scale="   73.328">  2  3  1 -1</clus>
</clustering>
</event>
<event>
 6    0  0.3082502E+002  0.8508907E+02  0.7546771E-02  0.1315200E+00
         -1   -1    0    0    0  501 -0.00000000000E+00  0.00000000000E+00  0.12933096294E+02  0.12933096294E+02  0.00000000000E+00 0. -1.
         21   -1    0    0  503  502  0.00000000000E+00 -0.00000000000E+00 -0.17265572704E+04  0.17265572704E+04  0.00000000000E+00 0. -1.
         21    1    1    2  503  505 -0.23844103975E+02  0.18839016654E+02 -0.48299558708E+03  0.48395060387E+03  0.00000000000E+00 0. -1.
         21    1    1    2  504  501 -0.82155066362E+01 -0.62809943791E+02 -0.21987067598E+03  0.22881367473E+03  0.00000000000E+00 0. -1.
         21    1    1    2  505  504 -0.58527456369E+02 -0.19391814190E+02 -0.22756312824E+03  0.23576785816E+03  0.00000000000E+00 0. -1.
         -1    1    1    2    0  502  0.90587066981E+02  0.63362741326E+02 -0.78319478281E+03  0.79095822994E+03  0.00000000000E+00 0. -1.
<scales pt_clust_3="30.38832" pt_clust_4="60.71465" pt_clust_5="85.08907" pt_clust_6="14000.00000"></scales>
<clustering>
<clus scale="   30.388">  2  3  1 -1</clus>
<clus scale="   60.715">  1  4  2 -1</clus>
<clus scale="   85.089">  1  5  2 -1</clus>
<clus scale="   30.388">  2  3  1 -1</clus>
</clustering>
</event>
<event>
 6    0  0.3082502E+002  0.9677030E+02  0.7546771E-02  0.1287238E+00
         21   -1    0    0  503  502  0.00000000000E+00  0.00000000000E+00  0.58452610266E+03  0.58452610266E+03  0.00000000000E+00 0. -1.
          2   -1    0    0  504    0 -0.00000000000E+00 -0.00000000000E+00 -0.27263867984E+04  0.27263867984E+04  0.00000000000E+00 0.  1.
         21    1    1    2  503  501  0.94375487862E+01  0.11818206365E+03  0.41683564420E+03  0.43336822884E+03  0.00000000000E+00 0. -1.
         21    1    1    2  504  505  0.41123115016E+02 -0.69401797106E+02 -0.85369481381E+02  0.11745496320E+03  0.00000000000E+00 0.  1.
         21    1    1    2  505  502 -0.62333532789E+01 -0.72276239212E+02  0.13394857099E+03  0.15233164188E+03  0.00000000000E+00 0. -1.
          2    1    1    2  501    0 -0.44327310523E+02  0.23495972666E+02 -0.26072754296E+04  0.26077580672E+04  0.00000000000E+00 0.  1.
<scales pt_clust_3="14000.00000" pt_clust_4="49.46715" pt_clust_5="96.77030" pt_clust_6="50.16942"></scales>
<clustering>
<clus scale="   50.169">  2  6  1 -1</clus>
<clus scale="   49.467">  2  4  1 -1</clus>
<clus scale="   96.770">  2  5  1 -1</clus>
<clus scale="   96.770">  1  3  2 -1</clus>
</clustering>
</event>
<event>
 6    0  0.3082502E+002  0.7580634E+02  0.7546771E-02  0.1341392E+00
          2   -1    0    0  504    0 -0.00000000000E+00  0.00000000000E+00  0.39495000834E+03  0.39495000834E+03  0.00000000000E+00 0.  1.
         21   -1    0    0  505  502  0.00000000000E+00 -0.00000000000E+00 -0.57382481780E+03  0.57382481780E+03  0.00000000000E+00 0.  1.
         21    1    1    2  503  502  0.40878479589E+02 -0.96273377346E+02 -0.53442685151E+03  0.54456558182E+03  0.00000000000E+00 0.  1.
         21    1    1    2  504  503 -0.41256177562E+02 -0.17478323100E+02  0.23022023352E+03  0.23453980449E+03  0.00000000000E+00 0.  1.
         21    1    1    2  505  501  0.10484818443E+01  0.33102203942E+02 -0.77891775651E+01  0.34022441229E+02  0.00000000000E+00 0.  1.
          2    1    1    2  501    0 -0.67078387168E+00  0.80649496504E+02  0.13312098610E+03  0.15564699862E+03  0.00000000000E+00 0.  1.
<scales pt_clust_3="75.80634" pt_clust_4="44.75179" pt_clust_5="33.11880" pt_clust_6="14000.00000"></scales>
<clustering>
<clus scale="   33.119">  2  5  1 -1</clus>
<clus scale="   44.752">  1  4  2 -1</clus>
<clus scale="   75.806">  2  3  1 -1</clus>
<clus scale="   33.119">  2  3  1 -1</clus>
</clustering>
</event>
<event>
 6    0  0.3082502E+002  0.9778537E+02  0.7546771E-02  0.1285023E+00
         21   -1    0    0  504  502  0.00000000000E+00  0.00000000000E+00  0.76289783102E+03  0.76289783102E+03  0.00000000000E+00 0.  1.
         -3   -1    0    0    0  501 -0.00000000000E+00 -0.00000000000E+00 -0.29083649711E+03  0.29083649711E+03  0.00000000000E+00 0.  1.
         21    1    1    2  503  501 -0.71877154905E+02  0.37065288638E+02 -0.38831680669E+02  0.89710982843E+02  0.00000000000E+00 0.  1.
         21    1    1    2  504  503 -0.24672311113E+02  0.30672755759E+02  0.77948230090E+02  0.87323922586E+02  0.00000000000E+00 0. -1.
         21    1    1    2  505  502  0.42559695187E+02  0.31786045101E+02  0.63920347717E+03  0.64140686427E+03  0.00000000000E+00 0.  1.
         -3    1    1    2    0  505  0.53989770831E+02 -0.99524089497E+02 -0.20625869268E+03  0.23529255842E+03  0.00000000000E+00 0.  1.
<scales pt_clust_3="97.78537" pt_clust_4="39.36421" pt_clust_5="63.66471" pt_clust_6="14000.00000"></scales>
<clustering>
<clus scale="   39.364">  1  4  2 -1</clus>
<clus scale="   63.665">  1  5  2 -1</clus>
<clus scale="   97.785">  1  3  2 -1</clus>
<clus scale="   39.364">  1  3  2 -1</clus>
</clustering>
</event>
<event>
 6    0  0.3082502E+002  0.6755124E+02  0.7546771E-02  0.1368624E+00
         21   -1    0    0  501  502  0.00000000000E+00  0.00000000000E+00  0.55299903150E+02  0.55299903150E+02  0.00000000000E+00 0. -1.
          3   -1    0    0  503    0 -0.00000000000E+00 -0.00000000000E+00 -0.94499688709E+03  0.94499688709E+03  0.00000000000E+00 0. -1.
         21    1    1    2  503  504  0.14954865506E+02  0.32329257585E+02 -0.17895853757E+03  0.18246914004E+03  0.00000000000E+00 0. -1.
         21    1    1    2  504  505  0.69480388080E+02  0.52573230193E+01 -0.14176054250E+03  0.15795953654E+03  0.00000000000E+00 0. -1.
         21    1    1    2  505  502 -0.54742219932E+02  0.44071212267E+02  0.12974024250E+02  0.71465430097E+02  0.00000000000E+00 0. -1.
          3    1    1    2  501    0 -0.29693033654E+02 -0.81657792871E+02 -0.58195192812E+03  0.58840268356E+03  0.00000000000E+00 0. -1.
<scales pt_clust_3="35.62062" pt_clust_4="67.55124" pt_clust_5="14000.00000" pt_clust_6="59.75740"></scales>
<clustering>
<clus scale="   35.621">  2  3  1 -1</clus>
<clus scale="   59.757">  2  6  1 -1</clus>
<clus scale="   67.551">  2  4  1 -1</clus>
<clus scale="   67.551">  1  3  2 -1</clus>
</clustering>
</event>
<event>
 6    0  0.3082502E+002  0.1629564E+03  0.7546771E-02  0.1185399E+00
         21   -1    0    0  505  502  0.00000000000E+00  0.00000000000E+00  0.13138645772E+04  0.13138645772E+04  0.00000000000E+00 0. -1.
         -3   -1    0    0    0  501 -0.00000000000E+00 -0.00000000000E+00 -0.23932890707E+03  0.23932890707E+03  0.00000000000E+00 0. -1.
         21    1    1    2  503  501  0.33089690851E+02  0.49129276955E+02  0.86689879565E-01  0.59233613851E+02  0.00000000000E+00 0. -1.
         21    1    1    2  504  503  0.56867388700E+02  0.62586811485E+02  0.54190790604E+03  0.54846621363E+03  0.00000000000E+00 0. -1.
         21    1    1    2  505  504 -0.16001873668E+02  0.72788085716E+02  0.68869685374E+03  0.69271749057E+03  0.00000000000E+00 0.  1.
         -3    1    1    2    0  502 -0.73955205882E+02 -0.18450417416E+03 -0.15615577950E+03  0.25277616626E+03  0.00000000000E+00 0. -1.
<scales pt_clust_3="59.23355" pt_clust_4="73.43313" pt_clust_5="73.43313" pt_clust_6="142.83633"></scales>
<clustering>
<clus scale="   59.234">  2  3  1 -1</clus>
<clus scale="   73.433">  4  5 -1 -1</clus>
<clus scale="  142.836">  2  6  1 -1</clus>
<clus scale="  162.956">  1  3  2 -1</clus>
</clustering>
</event>
<event>
 6    0  0.3082502E+002  0.6807078E+02  0.7546771E-02  0.1366779E+00
          2   -1    0    0  505    0 -0.00000000000E+00  0.00000000000E+00  0.22309190510E+04  0.22309190510E+04  0.00000000000E+00 0. -1.
         21   -1    0    0  503  502  0.00000000000E+00 -0.00000000000E+00 -0.45760717997E+03  0.45760717997E+03  0.00000000000E+00 0. -1.
         21    1    1    2  503  504  0.65514004193E+02  0.43559305510E+02 -0.26453298851E+03  0.27598405724E+03  0.00000000000E+00 0. -1.
         21    1    1    2  504  501 -0.48950061282E+02 -0.36373871297E+02  0.11306461909E+03  0.12846312740E+03  0.00000000000E+00 0.  1.
         21    1    1    2  505  502 -0.65941450460E+02  0.10263482910E+02 -0.17311368533E+03  0.18553156609E+03  0.00000000000E+00 0. -1.
          2    1    1    2  501    0  0.49377507549E+02 -0.17448917123E+02  0.20978939258E+04  0.20985474802E+04  0.00000000000E+00 0. -1.
<scales pt_clust_3="68.07078" pt_clust_4="52.40739" pt_clust_5="14000.00000" pt_clust_6="52.36987"></scales>
<clustering>
<clus scale="   52.370">  1  6  2 -1</clus>
<clus scale="   52.407">  1  4  2 -1</clus>
<clus scale="   68.071">  2  3  1 -1</clus>
<clus scale="   68.071">  2  3  1 -1</clus>
</clustering>
</event>
<event>
 6    0  0.3082502E+002  0.1144296E+03  0.7546771E-02  0.1252580E+00
          2   -1    0    0  505    0 -0.00000000000E+00  0.00000000000E+00  0.17058630997E+04  0.17058630997E+04  0.00000000000E+00 0.  1.
         21   -1    0    0  501  502  0.00000000000E+00 -0.00000000000E+00 -0.19781651619E+03  0.19781651619E+03  0.00000000000E+00 0. -1.
         21    1    1    2  503  502  0.28847808618E+02  0.45475397824E+02 -0.14561314598E+03  0.15525268485E+03  0.00000000000E+00 0. -1.
         21    1    1    2  504  503 -0.36654303165E+01  0.72877009500E+02 -0.13443879242E+02  0.74197249155E+02  0.00000000000E+00 0. -1.
         21    1    1    2  505  504 -0.45563338889E+02 -0.33401974930E+02  0.38140202576E+03  0.38556350324E+03  0.00000000000E+00 0.  1.
          2    1    1    2  501    0  0.20380960588E+02 -0.84950432394E+02  0.12857015830E+04  0.12886661787E+04  0.00000000000E+00 0.  1.
<scales pt_clust_3="53.85358" pt_clust_4="114.42964" pt_clust_5="54.29973" pt_clust_6="14000.00000"></scales>
<clustering>
<clus scale="   53.854">  2  3  1 -1</clus>
<clus scale="   54.300">  1  5  2 -1</clus>
<clus scale="  114.430">  2  4  1 -1</clus>
<clus scale="   53.854">  2  3  1 -1</clus>
</clustering>
</event>
<event>
 6    0  0.3082502E+002  0.2499375E+03  0.7546771E-02  0.1113344E+00
         -4   -1    0    0    0  501 -0.00000000000E+00  0.00000000000E+00  0.13938379676E+03  0.13938379676E+03  0.00000000000E+00 0.  1.
         21   -1    0    0  503  502  0.00000000000E+00 -0.00000000000E+00 -0.11710873184E+04  0.11710873184E+04  0.00000000000E+00 0. -1.
         21    1    1    2  503  501  0.36685821029E+02 -0.12918540675E+00  0.69114076729E+02  0.78247183691E+02  0.00000000000E+00 0.  1.
         21    1    1    2  504  502 -0.58103521196E+02  0.76194674508E+02 -0.34254790163E+03  0.35569750141E+03  0.00000000000E+00 0. -1.
         21    1    1    2  505  504  0.92280994572E+01  0.15552668460E+03 -0.52484477139E+03  0.54748127045E+03  0.00000000000E+00 0. -1.
         -4    1    1    2    0  505  0.12189600709E+02 -0.23159217370E+03 -0.23342492531E+03  0.32904515957E+03  0.00000000000E+00 0.  1.
<scales pt_clust_3="36.68605" pt_clust_4="66.03426" pt_clust_5="66.03426" pt_clust_6="234.92660"></scales>
<clustering>
<clus scale="   36.686">  1  3  2 -1</clus>
<clus scale="   66.034">  4  5 -1 -1</clus>
<clus scale="  234.927">  1  6  2 -1</clus>
<clus scale="  249.938">  2  3  1 -1</clus>
</clustering>
</event>
<event>
 6    0  0.3082502E+002  0.1155160E+03  0.7546771E-02  0.1250683E+00
          2   -1    0    0  504    0 -0.00000000000E+00  0.00000000000E+00  0.30480842801E+04  0.30480842801E+04  0.00000000000E+00 0. -1.
         21   -1    0    0  503  502  0.00000000000E+00 -0.00000000000E+00 -0.48928408248E+02  0.48928408248E+02  0.00000000000E+00 0.  1.
         21    1    1    2  503  505 -0.43364878682E+02  0.30307760410E+02 -0.43469399954E+01  0.53084545129E+02  0.00000000000E+00 0.  1.
         21    1    1    2  504  502 -0.80800922831E+02 -0.92941464475E+02  0.29346428719E+03  0.31825806007E+03  0.00000000000E+00 0.  1.
         21    1    1    2  505  501  0.53392009947E+01  0.61230424489E+02  0.14014346878E+03  0.15302896390E+03  0.00000000000E+00 0.  1.
          2    1    1    2  501    0  0.11882660052E+03  0.14032795763E+01  0.25698950559E+04  0.25726411193E+04  0.00000000000E+00 0. -1.
<scales pt_clust_3="52.90627" pt_clust_4="115.51598" pt_clust_5="71.39674" pt_clust_6="14000.00000"></scales>
<clustering>
<clus scale="   52.906">  2  3  1 -1</clus>
<clus scale="   71.397">  2  5  1 -1</clus>
<clus scale="  115.516">  2  4  1 -1</clus>
<clus scale="   52.906">  2  3  1 -1</clus>
</clustering>
</event>
<event>
 6    0  0.3082502E+002  0.2676270E+03  0.7546771E-02  0.1102645E+00
         21   -1    0    0  505  502  0.00000000000E+00  0.00000000000E+00  0.14237040210E+03  0.14237040210E+03  0.00000000000E+00 0.  1.
          2   -1    0    0  503    0 -0.00000000000E+00 -0.00000000000E+00 -0.10986146141E+04  0.10986146141E+04  0.00000000000E+00 0.  1.
         21    1    1    2  503  502 -0.64809558585E+02 -0.31162567570E+03 -0.15387923350E+03  0.35353876611E+03  0.00000000000E+00 0.  1.
         21    1    1    2  504  501 -0.26907401851E+02  0.11245067088E+03 -0.25726310000E+03  0.28205223678E+03  0.00000000000E+00 0.  1.
         21    1    1    2  505  504  0.65114087375E+02  0.66587656894E+02 -0.85916032958E+02  0.12670960952E+03  0.00000000000E+00 0.  1.
          2    1    1    2  501    0  0.26602873061E+02  0.13258734793E+03 -0.45918584557E+03  0.47868440382E+03  0.00000000000E+00 0.  1.
<scales pt_clust_3="257.38454" pt_clust_4="67.80735" pt_clust_5="93.13303" pt_clust_6="67.80735"></scales>
<clustering>
<clus scale="   67.807">  4  6 -1 -1</clus>
<clus scale="   93.133">  1  5  2 -1</clus>
<clus scale="  257.385">  1  3  2 -1</clus>
<clus scale="   93.133">  1  3  2 -1</clus>
</clustering>
</event>
<event>
 6    0  0.3082502E+002  0.2172544E+03  0.7546771E-02  0.1135947E+00
         -1   -1    0    0    0  501 -0.00000000000E+00  0.00000000000E+00  0.37539733602E+03  0.37539733602E+03  0.00000000000E+00 0. -1.
         21   -1    0    0  503  502  0.00000000000E+00 -0.00000000000E+00 -0.14172618063E+04  0.14172618063E+04  0.00000000000E+00 0.  1.
         21    1    1    2  503  504  0.51654196766E+02 -0.21133701093E+03 -0.13006007817E+04  0.13186712561E+04  0.00000000000E+00 0.  1.
         21    1    1    2  504  505 -0.78046652433E+02  0.18088711060E+02 -0.21757935987E+02  0.83017403008E+02  0.00000000000E+00 0.  1.
         21    1    1    2  505  501 -0.24746263210E+02 -0.32407492183E+02  0.47639358910E+02  0.62706711043E+02  0.00000000000E+00 0.  1.
         -1    1    1    2    0  502  0.51138718877E+02  0.22565579205E+03  0.23285488849E+03  0.32826377221E+03  0.00000000000E+00 0. -1.
<scales pt_clust_3="14000.00000" pt_clust_4="81.79867" pt_clust_5="40.77528" pt_clust_6="217.25441"></scales>
<clustering>
<clus scale="   40.775">  1  5  2 -1</clus>
<clus scale="   81.799">  1  4  2 -1</clus>
<clus scale="  217.254">  1  6  2 -1</clus>
<clus scale="  217.254">  2  3  1 -1</clus>
</clustering>
</event>
<event>
 6    0  0.3082502E+002  0.1724863E+03  0.7546771E-02  0.1175280E+00
         21   -1    0    0  503  502  0.00000000000E+00  0.00000000000E+00  0.27204819756E+03  0.27204819756E+03  0.00000000000E+00 0. -1.
          1   -1    0    0  504    0 -0.00000000000E+00 -0.00000000000E+00 -0.26109351909E+04  0.26109351909E+04  0.00000000000E+00 0. -1.
         21    1    1    2  503  501 -0.16731581512E+02 -0.17427631058E+03  0.23038924666E+03  0.28936375590E+03  0.00000000000E+00 0. -1.
         21    1    1    2  504  505 -0.29847444105E+02  0.49781695597E+02 -0.12645880178E+04  0.12659194058E+04  0.00000000000E+00 0. -1.
         21    1    1    2  505  502 -0.14107348201E+02  0.13529568084E+03 -0.43367074899E+03  0.45450440818E+03  0.00000000000E+00 0. -1.
          1    1    1    2  501    0  0.60686373819E+02 -0.10801065856E+02 -0.87101747321E+03  0.87319581861E+03  0.00000000000E+00 0. -1.
<scales pt_clust_3="172.48628" pt_clust_4="58.04384" pt_clust_5="14000.00000" pt_clust_6="46.58138"></scales>
<clustering>
<clus scale="   58.044">  2  4  1 -1</clus>
<clus scale="   46.581">  2  6  1 -1</clus>
<clus scale="  172.486">  1  3  2 -1</clus>
<clus scale="  172.486">  1  3  2 -1</clus>
</clustering>
</event>
<event>
 6    0  0.3082502E+002  0.9659301E+02  0.7546771E-02  0.1287628E+00
         -2   -1    0    0    0  501 -0.00000000000E+00  0.00000000000E+00  0.21674600774E+03  0.21674600774E+03  0.00000000000E+00 0. -1.
         21   -1    0    0  505  502  0.00000000000E+00 -0.00000000000E+00 -0.54225819875E+03  0.54225819875E+03  0.00000000000E+00 0. -1.
         21    1    1    2  503  501 -0.41934387889E+02  0.11865797267E+02 -0.84774509098E+01  0.44397716229E+02  0.00000000000E+00 0.  1.
         21    1    1    2  504  502 -0.12972594559E+02  0.53094106519E+02 -0.36126151521E+03  0.36537262449E+03  0.00000000000E+00 0. -1.
         21    1    1    2  505  503 -0.75302950220E+02 -0.19301123251E+01 -0.11285635779E+03  0.13568646631E+03  0.00000000000E+00 0. -1.
         -2    1    1    2    0  504  0.13020993267E+03 -0.63029791461E+02  0.15708313290E+03  0.21354739946E+03  0.00000000000E+00 0. -1.
<scales pt_clust_3="43.58084" pt_clust_4="54.87946" pt_clust_5="14000.00000" pt_clust_6="96.59301"></scales>
<clustering>
<clus scale="   43.581">  1  3  2 -1</clus>
<clus scale="   54.879">  2  4  1 -1</clus>
<clus scale="   96.593">  1  6  2 -1</clus>
<clus scale="   54.879">  2  3  1 -1</clus>
</clustering>
</event>
<event>
 6    0  0.3082502E+002  0.1605410E+03  0.7546771E-02  0.1188087E+00
          2   -1    0    0  505    0 -0.00000000000E+00  0.00000000000E+00  0.15300045267E+04  0.15300045267E+04  0.00000000000E+00 0.  1.
         21   -1    0    0  504  502  0.00000000000E+00 -0.00000000000E+00 -0.79718556511E+02  0.79718556511E+02  0.00000000000E+00 0.  1.
         21    1    1    2  503  502 -0.85899532946E+02 -0.13740708651E+03  0.37555130231E+03  0.40902104817E+03  0.00000000000E+00 0. -1.
         21    1    1    2  504  501  0.72587665266E+02  0.14288731497E+03  0.46111128809E+02  0.16676927214E+03  0.00000000000E+00 0.  1.
         21    1    1    2  505  503 -0.39882912386E+02  0.19414171565E+02  0.35673442119E+03  0.35948157675E+03  0.00000000000E+00 0.  1.
          2    1    1    2  501    0  0.53194780065E+02 -0.24894400029E+02  0.67188911788E+03  0.67445118616E+03  0.00000000000E+00 0.  1.
<scales pt_clust_3="160.54097" pt_clust_4="14000.00000" pt_clust_5="44.35715" pt_clust_6="33.25701"></scales>
<clustering>
<clus scale="   44.357">  1  5  2 -1</clus>
<clus scale="   33.257">  1  6  2 -1</clus>
<clus scale="  160.541">  1  3  2 -1</clus>
<clus scale="  160.541">  2  3  1 -1</clus>
</clustering>
</event>
<event>
 6    0  0.3082502E+002  0.7334278E+02  0.7546771E-02  0.1349081E+00
         21   -1    0    0  505  502  0.00000000000E+00  0.00000000000E+00  0.53459012654E+03  0.53459012654E+03  0.00000000000E+00 0.  1.
         -2   -1    0    0    0  501 -0.00000000000E+00 -0.00000000000E+00 -0.31625708276E+03  0.31625708276E+03  0.00000000000E+00 0. -1.
         21    1    1    2  503  502 -0.10978253186E+03 -0.31146887272E+02  0.46511591959E+03  0.47891037945E+03  0.00000000000E+00 0.  1.
         21    1    1    2  504  501 -0.35560574416E+02  0.16884901069E+01 -0.21489782001E+02  0.41583845205E+02  0.00000000000E+00 0. -1.
         21    1    1    2  505  504  0.57464950877E+02 -0.15092505415E+02  0.22623948699E+02  0.63575524801E+02  0.00000000000E+00 0. -1.
         -2    1    1    2    0  503  0.87878155400E+02  0.44550902581E+02 -0.24791704250E+03  0.26677745984E+03  0.00000000000E+00 0. -1.
<scales pt_clust_3="73.34278" pt_clust_4="35.60064" pt_clust_5="56.91201" pt_clust_6="14000.00000"></scales>
<clustering>
<clus scale="   35.601">  2  4  1 -1</clus>
<clus scale="   56.912">  1  5  2 -1</clus>
<clus scale="   73.343">  1  3  2 -1</clus>
<clus scale="   56.912">  1  3  2 -1</clus>
</clustering>
</event>
<event>
 6    0  0.3082502E+002  0.1685602E+03  0.7546771E-02  0.1179358E+00
          2   -1    0    0  504    0 -0.00000000000E+00  0.00000000000E+00  0.16834035343E+04  0.16834035343E+04  0.00000000000E+00 0. -1.
         21   -1    0    0  505  502  0.00000000000E+00 -0.00000000000E+00 -0.51037145116E+03  0.51037145116E+03  0.00000000000E+00 0. -1.
         21    1    1    2  503  501  0.55835271566E+02  0.13399408713E+03 -0.41152716470E+03  0.43637896400E+03  0.00000000000E+00 0. -1.
         21    1    1    2  504  502 -0.31068960422E+02  0.12666986818E+02  0.25824324382E+03  0.26041372052E+03  0.00000000000E+00 0. -1.
         21    1    1    2  505  503  0.52519895272E+02 -0.40985782635E+01 -0.72044725296E+02  0.89250099082E+02  0.00000000000E+00 0.  1.
          2    1    1    2  501    0 -0.77286206417E+02 -0.14256249568E+03  0.13983607294E+04  0.14077322019E+04  0.00000000000E+00 0. -1.
<scales pt_clust_3="168.56020" pt_clust_4="33.55194" pt_clust_5="52.48654" pt_clust_6="14000.00000"></scales>
<clustering>
<clus scale="   33.552">  1  4  2 -1</clus>
<clus scale="   52.487">  2  5  1 -1</clus>
<clus scale="  168.560">  2  3  1 -1</clus>
<clus scale="   52.487">  2  3  1 -1</clus>
</clustering>
</event>
<event>
 6    0  0.3082502E+002  0.1043678E+03  0.7546771E-02  0.1271370E+00
          2   -1    0    0  503    0 -0.00000000000E+00  0.00000000000E+00  0.74376069442E+03  0.74376069442E+03  0.00000000000E+00 0. -1.
         21   -1    0    0  505  502  0.00000000000E+00 -0.00000000000E+00 -0.98033063850E+03  0.98033063850E+03  0.00000000000E+00 0.  1.
         21    1    1    2  503  504  0.53424116722E+01  0.39450840463E+02  0.41252966830E+01  0.40024095848E+02  0.00000000000E+00 0. -1.
         21    1    1    2  504  502 -0.59684096533E+02 -0.26188942010E+02 -0.93923735956E+03  0.94149608053E+03  0.00000000000E+00 0.  1.
         21    1    1    2  505  501 -0.65938875900E+02  0.50894016163E+02  0.10740334306E+03  0.13591767485E+03  0.00000000000E+00 0. -1.
          2    1    1    2  501    0  0.12028056076E+03 -0.64155914616E+02  0.59113877574E+03  0.60665348170E+03  0.00000000000E+00 0. -1.
<scales pt_clust_3="39.81093" pt_clust_4="65.14464" pt_clust_5="14000.00000" pt_clust_6="104.36782"></scales>
<clustering>
<clus scale="   39.811">  1  3  2 -1</clus>
<clus scale="   65.145">  2  4  1 -1</clus>
<clus scale="  104.368">  1  6  2 -1</clus>
<clus scale="   65.145">  2  3  1 -1</clus>
</clustering>
</event>
<event>
 6    0  0.3082502E+002  0.1396616E+03  0.7546771E-02  0.1213785E+00
         21   -1    0    0  501  502  0.00000000000E+00  0.00000000000E+00  0.54903572394E+02  0.54903572394E+02  0.00000000000E+00 0. -1.
          2   -1    0    0  504    0 -0.00000000000E+00 -0.00000000000E+00 -0.21055796888E+04  0.21055796888E+04  0.00000000000E+00 0. -1.
         21    1    1    2  503  502 -0.46022421909E+02 -0.81749130265E+01  0.20758545251E+02  0.51144987265E+02  0.00000000000E+00 0. -1.
         21    1    1    2  504  505 -0.61046146455E+02 -0.10590823018E+02 -0.80910136477E+02  0.10190803557E+03  0.00000000000E+00 0. -1.
         21    1    1    2  505  503 -0.52970365216E+02 -0.49876707839E+02 -0.33717983120E+03  0.34494026171E+03  0.00000000000E+00 0.  1.
          2    1    1    2  501    0  0.16003893358E+03  0.68642443884E+02 -0.16533446939E+04  0.16624899766E+04  0.00000000000E+00 0. -1.
<scales pt_clust_3="46.74283" pt_clust_4="14000.00000" pt_clust_5="80.93418" pt_clust_6="139.66159"></scales>
<clustering>
<clus scale="   46.743">  1  3  2 -1</clus>
<clus scale="   80.934">  1  5  2 -1</clus>
<clus scale="  139.662">  2  6  1 -1</clus>
<clus scale="   46.743">  1  3  2 -1</clus>
</clustering>
</event>
<event>
 6    0  0.3082502E+002  0.6997599E+02  0.7546771E-02  0.1360175E+00
          2   -1    0    0  503    0 -0.00000000000E+00  0.00000000000E+00  0.11675401504E+03  0.11675401504E+03  0.00000000000E+00 0. -1.
         21   -1    0    0  504  502  0.00000000000E+00 -0.00000000000E+00 -0.72890964123E+03  0.72890964123E+03  0.00000000000E+00 0. -1.
         21    1    1    2  503  505  0.15771213208E+02 -0.31446841873E+02 -0.33213738641E+01  0.35336476256E+02  0.00000000000E+00 0. -1.
         21    1    1    2  504  501 -0.61109504833E+02 -0.32094418175E+02 -0.61636537990E+03  0.62021827190E+03  0.00000000000E+00 0. -1.
         21    1    1    2  505  502  0.10600027336E+03  0.27407603402E+02  0.34090375105E+02  0.11467078247E+03  0.00000000000E+00 0. -1.
          2    1    1    2  501    0 -0.60661981740E+02  0.36133656646E+02 -0.26559247535E+02  0.75438125645E+02  0.00000000000E+00 0. -1.
<scales pt_clust_3="35.18004" pt_clust_4="14000.00000" pt_clust_5="69.97599" pt_clust_6="63.58374"></scales>
<clustering>
<clus scale="   35.180">  1  3  2 -1</clus>
<clus scale="   63.584">  1  6  2 -1</clus>
<clus scale="   69.976">  1  5  2 -1</clus>
<clus scale="   69.976">  2  3  1 -1</clus>
</clustering>
</event>
<event>
 6    0  0.3082502E+002  0.1753478E+03  0.7546771E-02  0.1172383E+00
          2   -1    0    0  505    0 -0.00000000000E+00  0.00000000000E+00  0.21269494248E+04  0.21269494248E+04  0.00000000000E+00 0. -1.
         21   -1    0    0  503  502  0.00000000000E+00 -0.00000000000E+00 -0.20696936573E+03  0.20696936573E+03  0.00000000000E+00 0.  1.
         21    1    1    2  503  501 -0.11971883270E+03 -0.75478482673E+02  0.76220646904E+02  0.16074572238E+03  0.00000000000E+00 0. -1.
         21    1    1    2  504  502 -0.23513090163E+02 -0.39105340241E+02 -0.15498274486E+03  0.16156034244E+03  0.00000000000E+00 0.  1.
         21    1    1    2  505  504  0.28902092912E+02  0.88839913172E+01  0.65859637994E+02  0.72468946405E+02  0.00000000000E+00 0.  1.
          2    1    1    2  501    0  0.11432982995E+03  0.10569983160E+03  0.19328825191E+04  0.19391437794E+04  0.00000000000E+00 0. -1.
<scales pt_clust_3="14000.00000" pt_clust_4="45.59400" pt_clust_5="30.23667" pt_clust_6="175.34780"></scales>
<clustering>
<clus scale="   30.237">  1  5  2 -1</clus>
<clus scale="   45.594">  2  4  1 -1</clus>
<clus scale="  175.348">  1  6  2 -1</clus>
<clus scale="   45.594">  2  3  1 -1</clus>
</clustering>
</event>
<event>
 6    0  0.3082502E+002  0.1314249E+03  0.7546771E-02  0.1225357E+00
         21   -1    0    0  504  502  0.00000000000E+00  0.00000000000E+00  0.16008924597E+03  0.16008924597E+03  0.00000000000E+00 0.  1.
         -1   -1    0    0    0  501 -0.00000000000E+00 -0.00000000000E+00 -0.14560364330E+04  0.14560364330E+04  0.00000000000E+00 0.  1.
         21    1    1    2  503  501 -0.44271643260E+02  0.34629727780E+02 -0.84856849313E+02  0.10178350219E+03  0.00000000000E+00 0.  1.
         21    1    1    2  504  503  0.11562043459E+03 -0.16218746338E+02 -0.26180739061E+03  0.28666050025E+03  0.00000000000E+00 0.  1.
         21    1    1    2  505  502  0.46762320766E+02  0.33758120376E+02  0.12920447562E+03  0.14149247985E+03  0.00000000000E+00 0.  1.
         -1    1    1    2    0  505 -0.11811111210E+03 -0.52169101818E+02 -0.10784874227E+04  0.10861891966E+04  0.00000000000E+00 0.  1.
<scales pt_clust_3="56.20673" pt_clust_4="14000.00000" pt_clust_5="57.60437" pt_clust_6="131.42487"></scales>
<clustering>
<clus scale="   56.207">  2  3  1 -1</clus>
<clus scale="   57.604">  1  5  2 -1</clus>
<clus scale="  131.425">  2  6  1 -1</clus>
<clus scale="   57.604">  1  3  2 -1</clus>
</clustering>
</event>
<event>
 6    0  0.3082502E+002  0.8893602E+02  0.7546771E-02  0.1305449E+00
         21   -1    0    0  504  502  0.00000000000E+00  0.00000000000E+00  0.20112653373E+03  0.20112653373E+03  0.00000000000E+00 0. -1.
          3   -1    0    0  503    0 -0.00000000000E+00 -0.00000000000E+00 -0.41003005510E+03  0.41003005510E+03  0.00000000000E+00 0. -1.
         21    1    1    2  503  505  0.27850382930E+02  0.15789791001E+02 -0.12026733546E+03  0.12445558769E+03  0.00000000000E+00 0.  1.
         21    1    1    2  504  501  0.28645832058E+02  0.92810892745E+02  0.16449347269E+03  0.19103022814E+03  0.00000000000E+00 0. -1.
         21    1    1    2  505  502 -0.19721110311E+02 -0.54258947743E+02 -0.34159326554E+02  0.67080661838E+02  0.00000000000E+00 0. -1.
          3    1    1    2  501    0 -0.36775104677E+02 -0.54341736003E+02 -0.21897033206E+03  0.22859011116E+03  0.00000000000E+00 0. -1.
<scales pt_clust_3="32.01502" pt_clust_4="88.93602" pt_clust_5="14000.00000" pt_clust_6="44.69057"></scales>
<clustering>
<clus scale="   32.015">  2  3  1 -1</clus>
<clus scale="   44.691">  2  6  1 -1</clus>
<clus scale="   88.936">  1  4  2 -1</clus>
<clus scale="   88.936">  1  3  2 -1</clus>
</clustering>
</event>
<event>
 6    0  0.3082502E+002  0.7517562E+02  0.7546771E-02  0.1343328E+00
          2   -1    0    0  505    0 -0.00000000000E+00  0.00000000000E+00  0.13366175419E+04  0.13366175419E+04  0.00000000000E+00 0.  1.
         21   -1    0    0  504  502  0.00000000000E+00 -0.00000000000E+00 -0.60106114859E+02  0.60106114859E+02  0.00000000000E+00 0.  1.
         21    1    1    2  503  502  0.26735717479E+02  0.68778809476E+02 -0.21439315312E+02  0.76843786106E+02  0.00000000000E+00 0.  1.
         21    1    1    2  504  501  0.42543255158E+02  0.24178199177E+02  0.19973906895E+03  0.20564583521E+03  0.00000000000E+00 0. -1.
         21    1    1    2  505  503 -0.94117709592E+02 -0.65901704971E+02  0.43222989096E+03  0.44724026721E+03  0.00000000000E+00 0.  1.
          2    1    1    2  501    0  0.24838736956E+02 -0.27055303681E+02  0.66598178244E+03  0.66699376823E+03  0.00000000000E+00 0.  1.
<scales pt_clust_3="14000.00000" pt_clust_4="52.54955" pt_clust_5="75.17562" pt_clust_6="36.72809"></scales>
<clustering>
<clus scale="   36.728">  1  6  2 -1</clus>
<clus scale="   52.550">  1  4  2 -1</clus>
<clus scale="   75.176">  1  5  2 -1</clus>
<clus scale="   75.176">  2  3  1 -1</clus>
</clustering>
</event>
<event>
 6    0  0.3082502E+002  0.1406125E+03  0.7546771E-02  0.1212507E+00
         21   -1    0    0  504  502  0.00000000000E+00  0.00000000000E+00  0.79297371369E+03  0.79297371369E+03  0.00000000000E+00 0.  1.
          3   -1    0    0  505    0 -0.00000000000E+00 -0.00000000000E+00 -0.25391972837E+03  0.25391972837E+03  0.00000000000E+00 0.  1.
         21    1    1    2  503  502 -0.10326211971E+02  0.49438720007E+02  0.58975635202E+03  0.59191500441E+03  0.00000000000E+00 0.  1.
         21    1    1    2  504  501 -0.31855375744E+02  0.19828791106E+01  0.10960590110E+03  0.11415844397E+03  0.00000000000E+00 0.  1.
         21    1    1    2  505  503 -0.11124844259E+03 -0.78011189908E+01  0.43009866526E+01  0.11160453361E+03  0.00000000000E+00 0.  1.
          3    1    1    2  501    0  0.15343003030E+03 -0.43620480126E+02 -0.16460925446E+03  0.22921546008E+03  0.00000000000E+00 0.  1.
<scales pt_clust_3="63.70404" pt_clust_4="31.91703" pt_clust_5="14000.00000" pt_clust_6="140.61253"></scales>
<clustering>
<clus scale="   31.917">  1  4  2 -1</clus>
<clus scale="   63.704">  1  3  2 -1</clus>
<clus scale="  140.613">  2  6  1 -1</clus>
<clus scale="   31.917">  1  3  2 -1</clus>
</clustering>
</event>
<event>
 6    0  0.3082502E+002  0.7689163E+02  0.7546771E-02  0.1338111E+00
         21   -1    0    0  505  502  0.00000000000E+00  0.00000000000E+00  0.16532825935E+03  0.16532825935E+03  0.00000000000E+00 0. -1.
         -2   -1    0    0    0  501 -0.00000000000E+00 -0.00000000000E+00 -0.31911387060E+03  0.31911387060E+03  0.00000000000E+00 0.  1.
         21    1    1    2  503  501  0.38545173976E+02 -0.20506632490E+02 -0.46378261844E+02  0.63696119070E+02  0.00000000000E+00 0.  1.
         21    1    1    2  504  502 -0.76440993257E+02 -0.38423151068E+02  0.27480704027E+02  0.89859629879E+02  0.00000000000E+00 0. -1.
         21    1    1    2  505  503  0.77087191515E+02 -0.28375637080E+02  0.67950383972E+02  0.10660612814E+03  0.00000000000E+00 0. -1.
         -2    1    1    2    0  504 -0.39191372235E+02  0.87305420638E+02 -0.20283843741E+03  0.22428025286E+03  0.00000000000E+00 0.  1.
<scales pt_clust_3="43.66065" pt_clust_4="76.89163" pt_clust_5="14000.00000" pt_clust_6="71.17493"></scales>
<clustering>
<clus scale="   43.661">  2  3  1 -1</clus>
<clus scale="   71.175">  2  6  1 -1</clus>
<clus scale="   76.892">  2  4  1 -1</clus>
<clus scale="   76.892">  1  3  2 -1</clus>
</clustering>
</event>
<event>
 6    0  0.3082502E+002  0.2330438E+03  0.7546771E-02  0.1124516E+00
         21   -1    0    0  504  502  0.00000000000E+00  0.00000000000E+00  0.96430716111E+02  0.96430716111E+02  0.00000000000E+00 0. -1.
          2   -1    0    0  505    0 -0.00000000000E+00 -0.00000000000E+00 -0.16297549762E+04  0.16297549762E+04  0.00000000000E+00 0. -1.
         21    1    1    2  503  501  0.13629316065E+03  0.17882072712E+03 -0.24674544316E+03  0.33382029868E+03  0.00000000000E+00 0. -1.
         21    1    1    2  504  503  0.18496820665E+02 -0.23946731188E+02 -0.11644889944E+02  0.32421933488E+02  0.00000000000E+00 0.  1.
         21    1    1    2  505  502  0.12537595179E+03 -0.84615096823E+02 -0.70444372135E+03  0.72049968803E+03  0.00000000000E+00 0. -1.
          2    1    1    2  501    0 -0.28016593311E+03 -0.70258899110E+02 -0.57049020562E+03  0.63944377211E+03  0.00000000000E+00 0. -1.
<scales pt_clust_3="233.04381" pt_clust_4="30.25852" pt_clust_5="153.94049" pt_clust_6="14000.00000"></scales>
<clustering>
<clus scale="   30.259">  1  4  2 -1</clus>
<clus scale="  153.940">  2  5  1 -1</clus>
<clus scale="  233.044">  1  3  2 -1</clus>
<clus scale="   30.259">  1  3  2 -1</clus>
</clustering>
</event>
<event>
 6    0  0.3082502E+002  0.1063671E+03  0.7546771E-02  0.1267449E+00
         21   -1    0    0  505  502  0.00000000000E+00  0.00000000000E+00  0.11947429338E+04  0.11947429338E+04  0.00000000000E+00 0.  1.
          2   -1    0    0  504    0 -0.00000000000E+00 -0.00000000000E+00 -0.34996254945E+04  0.34996254945E+04  0.00000000000E+00 0. -1.
         21    1    1    2  503  501  0.51711257706E+02 -0.11392696092E+02 -0.32482333003E+02  0.62120444743E+02  0.00000000000E+00 0.  1.
         21    1    1    2  504  502  0.74470001289E+02 -0.38619181446E+02  0.20309312029E+03  0.21973629144E+03  0.00000000000E+00 0.  1.
         21    1    1    2  505  503 -0.22689831752E+02  0.25029597997E+02  0.96739146909E+03  0.96798117941E+03  0.00000000000E+00 0.  1.
          2    1    1    2  501    0 -0.10349142724E+03  0.24982279540E+02 -0.34428848170E+04  0.34445305127E+04  0.00000000000E+00 0. -1.
<scales pt_clust_3="51.16964" pt_clust_4="14000.00000" pt_clust_5="33.78327" pt_clust_6="106.36709"></scales>
<clustering>
<clus scale="   33.783">  1  5  2 -1</clus>
<clus scale="   51.170">  1  3  2 -1</clus>
<clus scale="  106.367">  2  6  1 -1</clus>
<clus scale="   33.783">  1  3  2 -1</clus>
</clustering>
</event>
<event>
 6    0  0.3082502E+002  0.1177260E+03  0.7546771E-02  0.1246896E+00
         21   -1    0    0  503  502  0.00000000000E+00  0.00000000000E+00  0.12225582697E+03  0.12225582697E+03  0.00000000000E+00 0.  1.
          2   -1    0    0  505    0 -0.00000000000E+00 -0.00000000000E+00 -0.49731525758E+03  0.49731525758E+03  0.00000000000E+00 0.  1.
         21    1    1    2  503  501  0.43315624470E+02 -0.43840908824E+01  0.53523909431E+02  0.68994727746E+02  0.00000000000E+00 0.  1.
         21    1    1    2  504  502 -0.18999624065E+02  0.14691077722E+03 -0.10147216796E+03  0.17955601647E+03  0.00000000000E+00 0.  1.
         21    1    1    2  505  504 -0.40061656473E+01 -0.49784031148E+02 -0.22942663035E+03  0.23480008056E+03  0.00000000000E+00 0.  1.
          2    1    1    2  501    0 -0.20309834757E+02 -0.92742655193E+02 -0.97684541732E+02  0.13622025978E+03  0.00000000000E+00 0.  1.
<scales pt_clust_3="43.53692" pt_clust_4="117.72595" pt_clust_5="50.02116" pt_clust_6="14000.00000"></scales>
<clustering>
<clus scale="   43.537">  1  3  2 -1</clus>
<clus scale="   50.021">  2  5  1 -1</clus>
<clus scale="  117.726">  2  4  1 -1</clus>
<clus scale="   43.537">  1  3  2 -1</clus>
</clustering>
</event>
<event>
 6    0  0.3082502E+002  0.8278484E+02  0.7546771E-02  0.1321329E+00
          2   -1    0    0  505    0 -0.00000000000E+00  0.00000000000E+00  0.29703563141E+04  0.29703563141E+04  0.00000000000E+00 0.  1.
         21   -1    0    0  504  502  0.00000000000E+00 -0.00000000000E+00 -0.10116628330E+03  0.10116628330E+03  0.00000000000E+00 0.  1.
         21    1    1    2  503  501  0.95451551630E+02 -0.57269739312E+01  0.27267620132E+03  0.28895693054E+03  0.00000000000E+00 0. -1.
         21    1    1    2  504  503 -0.18060009966E+02  0.49785562505E+02 -0.84191275647E+02  0.99463244915E+02  0.00000000000E+00 0.  1.
         21    1    1    2  505  502 -0.45242074338E+02  0.12952825971E+02  0.95957273191E+03  0.96072600091E+03  0.00000000000E+00 0.  1.
          2    1    1    2  501    0 -0.32149467326E+02 -0.57011414546E+02  0.17211323732E+04  0.17223764211E+04  0.00000000000E+00 0.  1.
<scales pt_clust_3="82.78484" pt_clust_4="53.06510" pt_clust_5="47.05976" pt_clust_6="14000.00000"></scales>
<clustering>
<clus scale="   47.060">  1  5  2 -1</clus>
<clus scale="   53.065">  2  4  1 -1</clus>
<clus scale="   82.785">  2  3  1 -1</clus>
<clus scale="   53.065">  2  3  1 -1</clus>
</clustering>
</event>
<event>
 6    0  0.3082502E+002  0.1394817E+03  0.7546771E-02  0.1214028E+00
          2   -1    0    0  503    0 -0.00000000000E+00  0.00000000000E+00  0.12690218781E+03  0.12690218781E+03  0.00000000000E+00 0.  1.
         21   -1    0    0  501  502  0.00000000000E+00 -0.00000000000E+00 -0.47650640217E+03  0.47650640217E+03  0.00000000000E+00 0.  1.
         21    1    1    2  503  505  0.56707252895E+02 -0.66274606691E+02 -0.21175449177E+01  0.87249756558E+02  0.00000000000E+00 0.  1.
         21    1    1    2  504  502  0.48895819009E+02  0.92059597842E+02 -0.27732701452E+03  0.29627022067E+03  0.00000000000E+00 0.  1.
         21    1    1    2  505  504 -0.17035617785E+02  0.38542609058E+02 -0.98226726476E+02  0.10688421203E+03  0.00000000000E+00 0.  1.
          2    1    1    2  501    0 -0.88567454118E+02 -0.64327600209E+02  0.28067071551E+02  0.11300440072E+03  0.00000000000E+00 0.  1.
<scales pt_clust_3="87.22406" pt_clust_4="37.18764" pt_clust_5="37.18764" pt_clust_6="126.62655"></scales>
<clustering>
<clus scale="   37.188">  4  5 -1 -1</clus>
<clus scale="   87.224">  1  3  2 -1</clus>
<clus scale="  126.627">  1  6  2 -1</clus>
<clus scale="  139.482">  2  3  1 -1</clus>
</clustering>
</event>
<event>
 6    0  0.3082502E+002  0.8177397E+02  0.7546771E-02  0.1324091E+00
         21   -1    0    0  504  502  0.00000000000E+00  0.00000000000E+00  0.17238842548E+03  0.17238842548E+03  0.00000000000E+00 0. -1.
          2   -1    0    0  503    0 -0.00000000000E+00 -0.00000000000E+00 -0.12948112683E+04  0.12948112683E+04  0.00000000000E+00 0. -1.
         21    1    1    2  503  502 -0.34463230204E+02 -0.96257302168E+01 -0.59006644928E+02  0.69008355030E+02  0.00000000000E+00 0.  1.
         21    1    1    2  504  505 -0.40387122647E+02 -0.93688428675E+01  0.32481486366E+02  0.52668224281E+02  0.00000000000E+00 0. -1.
         21    1    1    2  505  501 -0.69523951804E+01  0.76742104806E+02  0.11064460396E+03  0.13483291451E+03  0.00000000000E+00 0. -1.
          2    1    1    2  501    0  0.81802748031E+02 -0.57747531722E+02 -0.12065422882E+04  0.12106901999E+04  0.00000000000E+00 0. -1.
<scales pt_clust_3="35.78224" pt_clust_4="41.75271" pt_clust_5="14000.00000" pt_clust_6="81.77397"></scales>
<clustering>
<clus scale="   35.782">  2  3  1 -1</clus>
<clus scale="   41.753">  1  4  2 -1</clus>
<clus scale="   81.774">  2  6  1 -1</clus>
<clus scale="   41.753">  1  3  2 -1</clus>
</clustering>
</event>
<event>
 6    0  0.3082502E+002  0.7294791E+02  0.7546771E-02  0.1350346E+00
         21   -1    0    0  503  502  0.00000000000E+00  0.00000000000E+00  0.93707265509E+01  0.93707265509E+01  0.00000000000E+00 0.  1.
          1   -1    0    0  504    0 -0.00000000000E+00 -0.00000000000E+00 -0.34561027564E+04  0.34561027564E+04  0.00000000000E+00 0. -1.
         21    1    1    2  503  501  0.96024709113E+02 -0.12429069407E+02 -0.15974002579E+04  0.16003320938E+04  0.00000000000E+00 0. -1.
         21    1    1    2  504  505 -0.39078107735E+02  0.79693756155E+02 -0.47269603560E+03  0.48095710344E+03  0.00000000000E+00 0.  1.
         21    1    1    2  505  502 -0.12299819492E+02 -0.42261940168E+02 -0.14612902901E+03  0.15261405658E+03  0.00000000000E+00 0.  1.
          1    1    1    2  501    0 -0.44646781886E+02 -0.25002746580E+02 -0.12305067073E+04  0.12315702291E+04  0.00000000000E+00 0. -1.
<scales pt_clust_3="14000.00000" pt_clust_4="72.94791" pt_clust_5="44.01542" pt_clust_6="53.96055"></scales>
<clustering>
<clus scale="   44.015">  1  5  2 -1</clus>
<clus scale="   53.961">  2  6  1 -1</clus>
<clus scale="   72.948">  1  4  2 -1</clus>
<clus scale="   44.015">  1  3  2 -1</clus>
</clustering>
</event>
<event>
 6    0  0.3082502E+002  0.1348580E+03  0.7546771E-02  0.1220420E+00
         -1   -1    0    0    0  501 -0.00000000000E+00  0.00000000000E+00  0.33056483322E+03  0.33056483322E+03  0.00000000000E+00 0.  1.
         21   -1    0    0  505  502  0.00000000000E+00 -0.00000000000E+00 -0.12666200479E+03  0.12666200479E+03  0.00000000000E+00 0.  1.
         21    1    1    2  503  504  0.27148897192E+02  0.23988922057E+02  0.13063844096E+03  0.13556892437E+03  0.00000000000E+00 0.  1.
         21    1    1    2  504  502 -0.71772907472E+02 -0.75104638733E+02 -0.62750768601E+02  0.12136604124E+03  0.00000000000E+00 0.  1.
         21    1    1    2  505  501 -0.37900737671E+02  0.80705120662E+01  0.42704821274E+01  0.38985075331E+02  0.00000000000E+00 0. -1.
         -1    1    1    2    0  503  0.82524747950E+02  0.43045204610E+02  0.13174467395E+03  0.16130679706E+03  0.00000000000E+00 0.  1.
<scales pt_clust_3="32.82637" pt_clust_4="124.17036" pt_clust_5="38.75047" pt_clust_6="32.82637"></scales>
<clustering>
<clus scale="   32.826">  3  6 -1 -1</clus>
<clus scale="   38.750">  2  5  1 -1</clus>
<clus scale="  124.170">  2  4  1 -1</clus>
<clus scale="   38.750">  2  3  1 -1</clus>
</clustering>
</event>
<event>
 6    0  0.3082502E+002  0.8722492E+02  0.7546771E-02  0.1309715E+00
         21   -1    0    0  503  502  0.00000000000E+00  0.00000000000E+00  0.79485070082E+03  0.79485070082E+03  0.00000000000E+00 0.  1.
         -2   -1    0    0    0  501 -0.00000000000E+00 -0.00000000000E+00 -0.25720802361E+03  0.25720802361E+03  0.00000000000E+00 0.  1.
         21    1    1    2  503  504  0.75246734143E+02  0.43711396040E+02  0.71120844520E+03  0.71651253280E+03  0.00000000000E+00 0.  1.
         21    1    1    2  504  501 -0.99923126134E+02 -0.14703379950E+02 -0.59888927630E+02  0.11742020342E+03  0.00000000000E+00 0.  1.
         21    1    1    2  505  502 -0.28701665103E+02 -0.50163907758E+02  0.28757683993E+02  0.64553912429E+02  0.00000000000E+00 0.  1.
         -2    1    1    2    0  505  0.53378057094E+02  0.21155891668E+02 -0.14243452435E+03  0.15357207578E+03  0.00000000000E+00 0.  1.
<scales pt_clust_3="14000.00000" pt_clust_4="87.22492" pt_clust_5="50.78092" pt_clust_6="57.41767"></scales>
<clustering>
<clus scale="   57.418">  2  6  1 -1</clus>
<clus scale="   50.781">  2  5  1 -1</clus>
<clus scale="   87.225">  2  4  1 -1</clus>
<clus scale="   87.225">  1  3  2 -1</clus>
</clustering>
</event>
<event>
 6    0  0.3082502E+002  0.1355602E+03  0.7546771E-02  0.1219431E+00
          1   -1    0    0  505    0 -0.00000000000E+00  0.00000000000E+00  0.30142299775E+04  0.30142299775E+04  0.00000000000E+00 0. -1.
         21   -1    0    0  503  502  0.00000000000E+00 -0.00000000000E+00 -0.79588262334E+02  0.79588262334E+02  0.00000000000E+00 0. -1.
         21    1    1    2  503  504 -0.12838581929E+03  0.18515156612E+02 -0.18409037351E+02  0.13101382474E+03  0.00000000000E+00 0. -1.
         21    1    1    2  504  501  0.66558018239E+02 -0.42097103152E+02  0.10375856193E+04  0.10405700617E+04  0.00000000000E+00 0. -1.
         21    1    1    2  505  502  0.31652925660E+02  0.83551678725E+02  0.85772058243E+03  0.86236151830E+03  0.00000000000E+00 0. -1.
          1    1    1    2  501    0  0.30174875387E+02 -0.59969732185E+02  0.10577445508E+04  0.10598728352E+04  0.00000000000E+00 0. -1.
<scales pt_clust_3="129.22702" pt_clust_4="37.80889" pt_clust_5="89.34646" pt_clust_6="37.80889"></scales>
<clustering>
<clus scale="   37.809">  4  6 -1 -1</clus>
<clus scale="   89.346">  1  5  2 -1</clus>
<clus scale="  129.227">  2  3  1 -1</clus>
<clus scale="  129.227">  2  3  1 -1</clus>
</clustering>
</event>
<event>
 6    0  0.3082502E+002  0.9483731E+02  0.7546771E-02  0.1291543E+00
         21   -1    0    0  505  502  0.00000000000E+00  0.00000000000E+00  0.86803768217E+03  0.86803768217E+03  0.00000000000E+00 0. -1.
          2   -1    0    0  503    0 -0.00000000000E+00 -0.00000000000E+00 -0.20768504235E+03  0.20768504235E+03  0.00000000000E+00 0.  1.
         21    1    1    2  503  504  0.37564986053E+02 -0.57249714921E+02 -0.16406788954E+03  0.17778338059E+03  0.00000000000E+00 0.  1.
         21    1    1    2  504  502  0.28401471758E+02  0.48692264906E+02  0.18726869682E+03  0.19556877324E+03  0.00000000000E+00 0.  1.
         21    1    1    2  505  501 -0.47978268814E+01  0.58709126902E+02  0.61824192447E+03  0.62104175214E+03  0.00000000000E+00 0. -1.
          2    1    1    2  501    0 -0.61168630930E+02 -0.50151676886E+02  0.18909908075E+02  0.81328818556E+02  0.00000000000E+00 0.  1.
<scales pt_clust_3="68.22100" pt_clust_4="56.37003" pt_clust_5="14000.00000" pt_clust_6="94.83731"></scales>
<clustering>
<clus scale="   56.370">  1  4  2 -1</clus>
<clus scale="   68.221">  2  3  1 -1</clus>
<clus scale="   94.837">  2  6  1 -1</clus>
<clus scale="   56.370">  1  3  2 -1</clus>
</clustering>
</event>
<event>
 6    0  0.3082502E+002  0.8667208E+02  0.7546771E-02  0.1311117E+00
          2   -1    0    0  503    0 -0.00000000000E+00  0.00000000000E+00  0.29616760332E+04  0.29616760332E+04  0.00000000000E+00 0.  1.
         21   -1    0    0  504  502  0.00000000000E+00 -0.00000000000E+00 -0.34772779475E+02  0.34772779475E+02  0.00000000000E+00 0.  1.
         21    1    1    2  503  505 -0.72863544321E+01 -0.72384847788E+02  0.14011206892E+04  0.14030081407E+04  0.00000000000E+00 0.  1.
         21    1    1    2  504  501 -0.39066693840E+02  0.13215201691E+02  0.17266794707E+02  0.44710069590E+02  0.00000000000E+00 0.  1.
         21    1    1    2  505  502 -0.45914793469E+02 -0.41337406259E+02  0.39362000029E+02  0.73255146316E+02  0.00000000000E+00 0.  1.
          2    1    1    2  501    0  0.92267841741E+02  0.10050705236E+03  0.14691537698E+04  0.14754754561E+04  0.00000000000E+00 0.  1.
<scales pt_clust_3="72.35904" pt_clust_4="41.24134" pt_clust_5="14000.00000" pt_clust_6="86.67208"></scales>
<clustering>
<clus scale="   41.241">  2  4  1 -1</clus>
<clus scale="   72.359">  1  3  2 -1</clus>
<clus scale="   86.672">  1  6  2 -1</clus>
<clus scale="   41.241">  2  3  1 -1</clus>
</clustering>
</event>
<event>
 6    0  0.3082502E+002  0.1674123E+03  0.7546771E-02  0.1180574E+00
         21   -1    0    0  505  502  0.00000000000E+00  0.00000000000E+00  0.65133802803E+03  0.65133802803E+03  0.00000000000E+00 0. -1.
         -1   -1    0    0    0  501 -0.00000000000E+00 -0.00000000000E+00 -0.11619894808E+04  0.11619894808E+04  0.00000000000E+00 0.  1.
         21    1    1    2  503  501  0.26895872190E+02  0.28833589078E+02 -0.17956808086E+03  0.18384629303E+03  0.00000000000E+00 0.  1.
         21    1    1    2  504  502  0.13669603747E+03 -0.88772320470E+01 -0.68113226038E+02  0.15298373596E+03  0.00000000000E+00 0.  1.
         21    1    1    2  505  503 -0.15784795056E+03  0.67170509703E+02  0.59237156753E+03  0.61671056979E+03  0.00000000000E+00 0. -1.
         -1    1    1    2    0  504 -0.57439591038E+01 -0.87126866733E+02 -0.85534171338E+03  0.85978691001E+03  0.00000000000E+00 0.  1.
<scales pt_clust_3="39.43049" pt_clust_4="167.41233" pt_clust_5="14000.00000" pt_clust_6="64.40703"></scales>
<clustering>
<clus scale="   39.430">  2  3  1 -1</clus>
<clus scale="   64.407">  2  6  1 -1</clus>
<clus scale="  167.412">  2  4  1 -1</clus>
<clus scale="  167.412">  1  3  2 -1</clus>
</clustering>
</event>
<event>
 6    0  0.3082502E+002  0.6172812E+02  0.7546771E-02  0.1390719E+00
         21   -1    0    0  505  502  0.00000000000E+00  0.00000000000E+00  0.27076529051E+03  0.27076529051E+03  0.00000000000E+00 0. -1.
          4   -1    0    0  503    0 -0.00000000000E+00 -0.00000000000E+00 -0.59179944992E+03  0.59179944992E+03  0.00000000000E+00 0.  1.
         21    1    1    2  503  504 -0.27851556879E+02  0.15387317493E+02 -0.11177266574E+03  0.11621362901E+03  0.00000000000E+00 0. -1.
         21    1    1    2  504  502 -0.41511062685E+02  0.66628918739E+02  0.61938626859E+02  0.99994873042E+02  0.00000000000E+00 0. -1.
         21    1    1    2  505  501 -0.17077630296E+02 -0.60166387500E+02  0.17785719395E+03  0.18853334209E+03  0.00000000000E+00 0. -1.
          4    1    1    2  501    0  0.86440249860E+02 -0.21849848732E+02 -0.44905731448E+03  0.45782289629E+03  0.00000000000E+00 0.  1.
<scales pt_clust_3="31.81947" pt_clust_4="14000.00000" pt_clust_5="61.72812" pt_clust_6="60.44505"></scales>
<clustering>
<clus scale="   31.819">  2  3  1 -1</clus>
<clus scale="   60.445">  2  6  1 -1</clus>
<clus scale="   61.728">  1  5  2 -1</clus>
<clus scale="   61.728">  1  3  2 -1</clus>
</clustering>
</event>
<event>
 6    0  0.3082502E+002  0.8813195E+02  0.7546771E-02  0.1307440E+00
         21   -1    0    0  504  502  0.00000000000E+00  0.00000000000E+00  0.10040142180E+04  0.10040142180E+04  0.00000000000E+00 0. -1.
          1   -1    0    0  505    0 -0.00000000000E+00 -0.00000000000E+00 -0.27282906437E+03  0.27282906437E+03  0.00000000000E+00 0. -1.
         21    1    1    2  503  502  0.48667314453E+02 -0.29540087622E+02  0.90878046707E+03  0.91056194825E+03  0.00000000000E+00 0. -1.
         21    1    1    2  504  501  0.27579970986E+02 -0.21016315576E+02  0.24744946690E+02  0.42598740670E+02  0.00000000000E+00 0. -1.
         21    1    1    2  505  503 -0.62131891971E+02 -0.39341422556E+02  0.25902311040E+02  0.77968257938E+02  0.00000000000E+00 0. -1.
          1    1    1    2  501    0 -0.14115393468E+02  0.89897825753E+02 -0.22824257114E+03  0.24571433554E+03  0.00000000000E+00 0. -1.
<scales pt_clust_3="14000.00000" pt_clust_4="34.67478" pt_clust_5="72.91528" pt_clust_6="88.13195"></scales>
<clustering>
<clus scale="   34.675">  1  4  2 -1</clus>
<clus scale="   72.915">  2  5  1 -1</clus>
<clus scale="   88.132">  2  6  1 -1</clus>
<clus scale="   34.675">  1  3  2 -1</clus>
</clustering>
</event>
<event>
 6    0  0.3082502E+002  0.2485384E+03  0.7546771E-02  0.1114232E+00
          1   -1    0    0  504    0 -0.00000000000E+00  0.00000000000E+00  0.22254166512E+04  0.22254166512E+04  0.00000000000E+00 0.  1.
         21   -1    0    0  503  502  0.00000000000E+00 -0.00000000000E+00 -0.13955795101E+03  0.13955795101E+03  0.00000000000E+00 0.  1.
         21    1    1    2  503  501  0.29555562298E+03  0.76543897115E+01  0.18869689100E+03  0.35073955099E+03  0.00000000000E+00 0.  1.
         21    1    1    2  504  505 -0.69332692147E+02 -0.91761901123E+02  0.49828090374E+03  0.51138158720E+03  0.00000000000E+00 0.  1.
         21    1    1    2  505  502 -0.44003578902E+02  0.42098788891E+01 -0.34285206438E+02  0.55942054101E+02  0.00000000000E+00 0. -1.
          1    1    1    2  501    0 -0.18221935193E+03  0.79897632522E+02  0.14331661119E+04  0.14469114099E+04  0.00000000000E+00 0.  1.
<scales pt_clust_3="14000.00000" pt_clust_4="116.64596" pt_clust_5="44.20450" pt_clust_6="248.53843"></scales>
<clustering>
<clus scale="   44.205">  2  5  1 -1</clus>
<clus scale="  116.646">  1  4  2 -1</clus>
<clus scale="  248.538">  1  6  2 -1</clus>
<clus scale="   44.205">  2  3  1 -1</clus>
</clustering>
</event>
<event>
 6    0  0.3082502E+002  0.1254025E+03  0.7546771E-02  0.1234442E+00
          2   -1    0    0  504    0 -0.00000000000E+00  0.00000000000E+00  0.65267310138E+03  0.65267310138E+03  0.00000000000E+00 0. -1.
         21   -1    0    0  503  502  0.00000000000E+00 -0.00000000000E+00 -0.23132592671E+03  0.23132592671E+03  0.00000000000E+00 0.  1.
         21    1    1    2  503  505 -0.10015392541E+03 -0.65832126877E+02 -0.15238319137E+03  0.19386932381E+03  0.00000000000E+00 0.  1.
         21    1    1    2  504  502  0.42022687083E+02  0.26470536012E+02 -0.10056915764E+01  0.49675013055E+02  0.00000000000E+00 0.  1.
         21    1    1    2  505  501  0.10926404845E+03 -0.77439993200E+02  0.17183439709E+03  0.21785923174E+03  0.00000000000E+00 0. -1.
          2    1    1    2  501    0 -0.51132810132E+02  0.11680158406E+03  0.40290166053E+03  0.42259545947E+03  0.00000000000E+00 0. -1.
<scales pt_clust_3="78.12257" pt_clust_4="49.66483" pt_clust_5="125.40253" pt_clust_6="14000.00000"></scales>
<clustering>
<clus scale="   49.665">  2  4  1 -1</clus>
<clus scale="   78.123">  2  3  1 -1</clus>
<clus scale="  125.403">  2  5  1 -1</clus>
<clus scale="   49.665">  2  3  1 -1</clus>
</clustering>
</event>
<event>
 6    0  0.3082502E+002  0.1298227E+03  0.7546771E-02  0.1227719E+00
         21   -1    0    0  501  502  0.00000000000E+00  0.00000000000E+00  0.20138507864E+02  0.20138507864E+02  0.00000000000E+00 0. -1.
          2   -1    0    0  503    0 -0.00000000000E+00 -0.00000000000E+00 -0.30086287884E+04  0.30086287884E+04  0.00000000000E+00 0.  1.
         21    1    1    2  503  504  0.20727109854E+02  0.22260425574E+02 -0.21908953971E+03  0.22119079104E+03  0.00000000000E+00 0. -1.
         21    1    1    2  504  505  0.19217576005E+02  0.11544448723E+03 -0.36342690560E+03  0.38180605099E+03  0.00000000000E+00 0. -1.
         21    1    1    2  505  502  0.31933559698E+02  0.30031065749E+01 -0.28069213732E+02  0.42622196608E+02  0.00000000000E+00 0. -1.
          2    1    1    2  501    0 -0.71878245558E+02 -0.14070801938E+03 -0.23779046215E+04  0.23831482576E+04  0.00000000000E+00 0.  1.
<scales pt_clust_3="30.41611" pt_clust_4="14000.00000" pt_clust_5="32.36347" pt_clust_6="129.82275"></scales>
<clustering>
<clus scale="   30.416">  2  3  1 -1</clus>
<clus scale="   32.363">  1  5  2 -1</clus>
<clus scale="  129.823">  2  6  1 -1</clus>
<clus scale="   32.363">  1  3  2 -1</clus>
</clustering>
</event>
<event>
 6    0  0.3082502E+002  0.8870890E+02  0.7546771E-02  0.1306009E+00
          2   -1    0    0  504    0 -0.00000000000E+00  0.00000000000E+00  0.24989861228E+04  0.24989861228E+04  0.00000000000E+00 0. -1.
         21   -1    0    0  505  502  0.00000000000E+00 -0.00000000000E+00 -0.12163798948E+03  0.12163798948E+03  0.00000000000E+00 0. -1.
         21    1    1    2  503  501 -0.78937439407E+02  0.39036134987E+01  0.63536451575E+03  0.64026121654E+03  0.00000000000E+00 0.  1.
         21    1    1    2  504  502  0.99714421673E+02 -0.35795492974E+01  0.77092856996E+02  0.12609158442E+03  0.00000000000E+00 0. -1.
         21    1    1    2  505  503 -0.28478008463E+02 -0.58484024919E+02 -0.82968116478E+02  0.10542811052E+03  0.00000000000E+00 0. -1.
          2    1    1    2  501    0  0.77010261973E+01  0.58159960718E+02  0.17478588770E+04  0.17488432008E+04  0.00000000000E+00 0. -1.
<scales pt_clust_3="88.70890" pt_clust_4="14000.00000" pt_clust_5="64.21691" pt_clust_6="58.66760"></scales>
<clustering>
<clus scale="   58.668">  1  6  2 -1</clus>
<clus scale="   64.217">  2  5  1 -1</clus>
<clus scale="   88.709">  1  3  2 -1</clus>
<clus scale="   64.217">  2  3  1 -1</clus>
</clustering>
</event>
<event>
 6    0  0.3082502E+002  0.1454355E+03  0.7546771E-02  0.1206197E+00
          2   -1    0    0  504    0 -0.00000000000E+00  0.00000000000E+00  0.11202288085E+04  0.11202288085E+04  0.00000000000E+00 0.  1.
         21   -1    0    0  503  502  0.00000000000E+00 -0.00000000000E+00 -0.22339693182E+03  0.22339693182E+03  0.00000000000E+00 0. -1.
         21    1    1    2  503  501  0.80641161083E+00  0.66501791471E+02  0.18249063864E+02  0.68964968646E+02  0.00000000000E+00 0.  1.
         21    1    1    2  504  505 -0.22138397841E+02  0.40064345990E+02  0.70715334575E+02  0.84237278105E+02  0.00000000000E+00 0.  1.
         21    1    1    2  505  502  0.56770995230E+02  0.69734637630E+02 -0.17205575392E+03  0.19413667362E+03  0.00000000000E+00 0. -1.
          2    1    1    2  501    0 -0.35439009000E+02 -0.17630077509E+03  0.97992323217E+03  0.99628681995E+03  0.00000000000E+00 0.  1.
<scales pt_clust_3="68.17735" pt_clust_4="45.77402" pt_clust_5="14000.00000" pt_clust_6="145.43548"></scales>
<clustering>
<clus scale="   45.774">  1  4  2 -1</clus>
<clus scale="   68.177">  2  3  1 -1</clus>
<clus scale="  145.435">  1  6  2 -1</clus>
<clus scale="   68.177">  2  3  1 -1</clus>
</clustering>
</event>
<event>
 6    0  0.3082502E+002  0.2569376E+03  0.7546771E-02  0.1108997E+00
          1   -1    0    0  504    0 -0.00000000000E+00  0.00000000000E+00  0.27583066206E+04  0.27583066206E+04  0.00000000000E+00 0. -1.
         21   -1    0    0  503  502  0.00000000000E+00 -0.00000000000E+00 -0.26830157871E+03  0.26830157871E+03  0.00000000000E+00 0.  1.
         21    1    1    2  503  501 -0.24750850030E+02 -0.18970093107E+02  0.11118371126E+02  0.33107207466E+02  0.00000000000E+00 0. -1.
         21    1    1    2  504  505  0.10127519403E+03  0.77285173980E+01  0.12977577786E+04  0.13017264101E+04  0.00000000000E+00 0.  1.
         21    1    1    2  505  502  0.23977946603E+02  0.27412418597E+03 -0.16210738600E+03  0.31937096902E+03  0.00000000000E+00 0.  1.
          1    1    1    2  501    0 -0.10050229060E+03 -0.26288261026E+03  0.13432362782E+04  0.13724036127E+04  0.00000000000E+00 0. -1.
<scales pt_clust_3="31.18444" pt_clust_4="101.36829" pt_clust_5="256.93760" pt_clust_6="14000.00000"></scales>
<clustering>
<clus scale="   31.184">  2  3  1 -1</clus>
<clus scale="  101.368">  1  4  2 -1</clus>
<clus scale="  256.938">  2  5  1 -1</clus>
<clus scale="   31.184">  2  3  1 -1</clus>
</clustering>
</event>
<event>
 6    0  0.3082502E+002  0.1367521E+03  0.7546771E-02  0.1217767E+00
         21   -1    0    0  504  502  0.00000000000E+00  0.00000000000E+00  0.28372427317E+03  0.28372427317E+03  0.00000000000E+00 0.  1.
         -4   -1    0    0    0  501 -0.00000000000E+00 -0.00000000000E+00 -0.50787994897E+03  0.50787994897E+03  0.00000000000E+00 0.  1.
         21    1    1    2  503  501  0.46047414704E+02 -0.13036718963E+03 -0.13164580395E+03  0.19090989034E+03  0.00000000000E+00 0.  1.
         21    1    1    2  504  503 -0.10538361623E+03 -0.22895893407E+02  0.20209865086E+03  0.22907158965E+03  0.00000000000E+00 0.  1.
         21    1    1    2  505  502 -0.33609127711E+02  0.19681922348E+02 -0.47905001622E+01  0.39241565012E+02  0.00000000000E+00 0. -1.
         -4    1    1    2    0  505  0.92945329240E+02  0.13358116069E+03 -0.28981802255E+03  0.33238117713E+03  0.00000000000E+00 0.  1.
<scales pt_clust_3="136.75215" pt_clust_4="132.75516" pt_clust_5="38.94806" pt_clust_6="14000.00000"></scales>
<clustering>
<clus scale="   38.948">  1  5  2 -1</clus>
<clus scale="  132.755">  1  4  2 -1</clus>
<clus scale="  136.752">  1  3  2 -1</clus>
<clus scale="   38.948">  1  3  2 -1</clus>
</clustering>
</event>
<event>
 6    0  0.3082502E+002  0.1228384E+03  0.7546771E-02  0.1238487E+00
         21   -1    0    0  504  502  0.00000000000E+00  0.00000000000E+00  0.19182129887E+04  0.19182129887E+04  0.00000000000E+00 0.  1.
          2   -1    0    0  503    0 -0.00000000000E+00 -0.00000000000E+00 -0.21279178006E+03  0.21279178006E+03  0.00000000000E+00 0.  1.
         21    1    1    2  503  505 -0.47176012150E+02  0.32848125208E+02 -0.70211079637E+02  0.90742333868E+02  0.00000000000E+00 0. -1.
         21    1    1    2  504  501  0.88477674634E+02 -0.46964645777E+02  0.39867603884E+03  0.41106758666E+03  0.00000000000E+00 0. -1.
         21    1    1    2  505  502 -0.13796505039E+03  0.72909913933E+01  0.14807588103E+04  0.14871900241E+04  0.00000000000E+00 0.  1.
          2    1    1    2  501    0  0.96663387904E+02  0.68255291756E+01 -0.10380256087E+03  0.14200482405E+03  0.00000000000E+00 0.  1.
<scales pt_clust_3="57.48544" pt_clust_4="14000.00000" pt_clust_5="122.83839" pt_clust_6="64.70273"></scales>
<clustering>
<clus scale="   57.485">  2  3  1 -1</clus>
<clus scale="   64.703">  2  6  1 -1</clus>
<clus scale="  122.838">  1  5  2 -1</clus>
<clus scale="  122.838">  1  3  2 -1</clus>
</clustering>
</event>
<event>
 6    0  0.3082502E+002  0.6905801E+02  0.7546771E-02  0.1363326E+00
          4   -1    0    0  503    0 -0.00000000000E+00  0.00000000000E+00  0.15299374726E+03  0.15299374726E+03  0.00000000000E+00 0.  1.
         21   -1    0    0  505  502  0.00000000000E+00 -0.00000000000E+00 -0.14232794309E+03  0.14232794309E+03  0.00000000000E+00 0.  1.
         21    1    1    2  503  504  0.37344187818E+02  0.47613908358E+02  0.48642948131E+02  0.77638965963E+02  0.00000000000E+00 0.  1.
         21    1    1    2  504  502  0.35403748359E+02 -0.47240472864E+02  0.15415677749E+02  0.61014185192E+02  0.00000000000E+00 0.  1.
         21    1    1    2  505  501  0.13875781506E+01 -0.52409925882E+02 -0.38103236460E+02  0.64811899623E+02  0.00000000000E+00 0.  1.
          4    1    1    2  501    0 -0.74135514327E+02  0.52036490387E+02 -0.15289585248E+02  0.91856639572E+02  0.00000000000E+00 0.  1.
<scales pt_clust_3="54.33139" pt_clust_4="69.05801" pt_clust_5="52.42829" pt_clust_6="14000.00000"></scales>
<clustering>
<clus scale="   52.428">  2  5  1 -1</clus>
<clus scale="   54.331">  1  3  2 -1</clus>
<clus scale="   69.058">  1  4  2 -1</clus>
<clus scale="   52.428">  2  3  1 -1</clus>
</clustering>
</event>
<event>
 6    0  0.3082502E+002  0.1126846E+03  0.7546771E-02  0.1255678E+00
         21   -1    0    0  501  502  0.00000000000E+00  0.00000000000E+00  0.37862796140E+03  0.37862796140E+03  0.00000000000E+00 0.  1.
          1   -1    0    0  504    0 -0.00000000000E+00 -0.00000000000E+00 -0.11164218443E+03  0.11164218443E+03  0.00000000000E+00 0. -1.
         21    1    1    2  503  505  0.86155406498E+02 -0.11862819758E+03  0.20476937425E+03  0.25184499193E+03  0.00000000000E+00 0.  1.
         21    1    1    2  504  503 -0.21945412770E+02 -0.21837270088E+02  0.79943716481E+01  0.31974638147E+02  0.00000000000E+00 0. -1.
         21    1    1    2  505  502 -0.60399948221E+01  0.50687287421E+02  0.81395115240E+02  0.96077299236E+02  0.00000000000E+00 0. -1.
          1    1    1    2  501    0 -0.58169998906E+02  0.89778180247E+02 -0.27173084174E+02  0.11037321652E+03  0.00000000000E+00 0. -1.
<scales pt_clust_3="14000.00000" pt_clust_4="30.95913" pt_clust_5="49.67225" pt_clust_6="112.68458"></scales>
<clustering>
<clus scale="   30.959">  2  4  1 -1</clus>
<clus scale="   49.672">  1  5  2 -1</clus>
<clus scale="  112.685">  2  6  1 -1</clus>
<clus scale="   49.672">  1  3  2 -1</clus>
</clustering>
</event>
<event>
 6    0  0.3082502E+002  0.9230590E+02  0.7546771E-02  0.1297362E+00
         21   -1    0    0  504  502  0.00000000000E+00  0.00000000000E+00  0.26766009037E+03  0.26766009037E+03  0.00000000000E+00 0. -1.
         -4   -1    0    0    0  501 -0.00000000000E+00 -0.00000000000E+00 -0.29218688254E+03  0.29218688254E+03  0.00000000000E+00 0.  1.
         21    1    1    2  503  501 -0.74730317382E+02  0.14512554633E+02 -0.97067727283E+02  0.12335873807E+03  0.00000000000E+00 0. -1.
         21    1    1    2  504  503 -0.16622285922E+02 -0.37544365360E+02  0.19831064621E+03  0.20251664662E+03  0.00000000000E+00 0. -1.
         21    1    1    2  505  502 -0.28127636523E+02  0.18419905801E+02  0.24743111959E+02  0.41745400412E+02  0.00000000000E+00 0.  1.
         -4    1    1    2    0  505  0.11948023983E+03  0.46119049264E+01 -0.15051282305E+03  0.19222618781E+03  0.00000000000E+00 0.  1.
<scales pt_clust_3="14000.00000" pt_clust_4="46.14245" pt_clust_5="33.62227" pt_clust_6="92.30590"></scales>
<clustering>
<clus scale="   33.622">  1  5  2 -1</clus>
<clus scale="   46.142">  1  4  2 -1</clus>
<clus scale="   92.306">  1  6  2 -1</clus>
<clus scale="   33.622">  1  3  2 -1</clus>
</clustering>
</event>
<event>
 6    0  0.3082502E+002  0.8694602E+02  0.7546771E-02  0.1310421E+00
         21   -1    0    0  503  502  0.00000000000E+00  0.00000000000E+00  0.15371333700E+03  0.15371333700E+03  0.00000000000E+00 0.  1.
          1   -1    0    0  505    0 -0.00000000000E+00 -0.00000000000E+00 -0.87189026431E+03  0.87189026431E+03  0.00000000000E+00 0.  1.
         21    1    1    2  503  501 -0.80009448448E+02 -0.21807260074E+02  0.61166288626E+02  0.10304553992E+03  0.00000000000E+00 0.  1.
         21    1    1    2  504  502  0.73424458570E+02  0.72092902861E+02  0.24117579858E+02  0.10568914522E+03  0.00000000000E+00 0.  1.
         21    1    1    2  505  504  0.13729161088E+02  0.42619846643E+02 -0.14241563864E+03  0.14928883187E+03  0.00000000000E+00 0.  1.
          1    1    1    2  501    0 -0.71441712100E+01 -0.92905489429E+02 -0.66104515715E+03  0.66758008429E+03  0.00000000000E+00 0.  1.
<scales pt_clust_3="86.94602" pt_clust_4="14000.00000" pt_clust_5="44.77657" pt_clust_6="54.18060"></scales>
<clustering>
<clus scale="   44.777">  2  5  1 -1</clus>
<clus scale="   54.181">  2  6  1 -1</clus>
<clus scale="   86.946">  1  3  2 -1</clus>
<clus scale="   86.946">  1  3  2 -1</clus>
</clustering>
</event>
<event>
 6    0  0.3082502E+002  0.1391099E+03  0.7546771E-02  0.1214532E+00
         21   -1    0    0  505  502  0.00000000000E+00  0.00000000000E+00  0.90908685926E+03  0.90908685926E+03  0.00000000000E+00 0.  1.
          1   -1    0    0  503    0 -0.00000000000E+00 -0.00000000000E+00 -0.19195105782E+04  0.19195105782E+04  0.00000000000E+00 0.  1.
         21    1    1    2  503  504  0.53807948791E+02  0.45796823751E+02 -0.79692978744E+03  0.80005607962E+03  0.00000000000E+00 0.  1.
         21    1    1    2  504  502  0.11054004861E+03  0.13883018164E+02  0.51797195508E+03  0.52981769203E+03  0.00000000000E+00 0.  1.
         21    1    1    2  505  501 -0.24342670218E+03  0.26141567127E+02  0.34107772623E+03  0.41984992104E+03  0.00000000000E+00 0.  1.
          1    1    1    2  501    0  0.79078704787E+02 -0.85821409042E+02 -0.10725436128E+04  0.10788737448E+04  0.00000000000E+00 0.  1.
<scales pt_clust_3="70.65865" pt_clust_4="111.72086" pt_clust_5="139.10993" pt_clust_6="14000.00000"></scales>
<clustering>
<clus scale="   70.659">  2  3  1 -1</clus>
<clus scale="  111.721">  1  4  2 -1</clus>
<clus scale="  139.110">  1  5  2 -1</clus>
<clus scale="  111.721">  1  3  2 -1</clus>
</clustering>
</event>
<event>
 6    0  0.3082502E+002  0.8293425E+02  0.7546771E-02  0.1320925E+00
         21   -1    0    0  501  502  0.00000000000E+00  0.00000000000E+00  0.31469929056E+03  0.31469929056E+03  0.00000000000E+00 0. -1.
          1   -1    0    0  503    0 -0.00000000000E+00 -0.00000000000E+00 -0.20414254022E+03  0.20414254022E+03  0.00000000000E+00 0. -1.
         21    1    1    2  503  504  0.39000253560E+02 -0.33314533852E+02 -0.82269354229E+02  0.96949082455E+02  0.00000000000E+00 0.  1.
         21    1    1    2  504  505 -0.46094342667E+02 -0.49382320925E+02  0.11222217260E+03  0.13098518263E+03  0.00000000000E+00 0. -1.
         21    1    1    2  505  502  0.12787777570E+02 -0.29706788868E+02  0.15346366654E+03  0.15683468210E+03  0.00000000000E+00 0. -1.
          1    1    1    2  501    0 -0.56936884627E+01  0.11240364364E+03 -0.72859734573E+02  0.13407288359E+03  0.00000000000E+00 0. -1.
<scales pt_clust_3="52.63112" pt_clust_4="82.93425" pt_clust_5="32.34224" pt_clust_6="14000.00000"></scales>
<clustering>
<clus scale="   32.342">  1  5  2 -1</clus>
<clus scale="   52.631">  2  3  1 -1</clus>
<clus scale="   82.934">  1  4  2 -1</clus>
<clus scale="   32.342">  1  3  2 -1</clus>
</clustering>
</event>
<event>
 6    0  0.3082502E+002  0.6676680E+02  0.7546771E-02  0.1371446E+00
         21   -1    0    0  503  502  0.00000000000E+00  0.00000000000E+00  0.60671304647E+03  0.60671304647E+03  0.00000000000E+00 0. -1.
          2   -1    0    0  505    0 -0.00000000000E+00 -0.00000000000E+00 -0.54337537457E+03  0.54337537457E+03  0.00000000000E+00 0.  1.
         21    1    1    2  503  501  0.53613702354E+02  0.88317255263E+01  0.38817480218E+03  0.39195931614E+03  0.00000000000E+00 0. -1.
         21    1    1    2  504  502 -0.37032264722E+02 -0.38811840105E+02  0.20306631839E+03  0.21003256230E+03  0.00000000000E+00 0. -1.
         21    1    1    2  505  504  0.11131298756E+02  0.83328910277E+02 -0.24972030703E+03  0.26349164093E+03  0.00000000000E+00 0.  1.
          2    1    1    2  501    0 -0.27712736389E+02 -0.53348795698E+02 -0.27818314165E+03  0.28460490167E+03  0.00000000000E+00 0.  1.
<scales pt_clust_3="33.87997" pt_clust_4="53.64464" pt_clust_5="66.76680" pt_clust_6="14000.00000"></scales>
<clustering>
<clus scale="   53.645">  1  4  2 -1</clus>
<clus scale="   33.880">  1  3  2 -1</clus>
<clus scale="   66.767">  1  5  2 -1</clus>
<clus scale="   53.645">  1  3  2 -1</clus>
</clustering>
</event>
<event>
 6    0  0.3082502E+002  0.2514218E+03  0.7546771E-02  0.1112410E+00
          1   -1    0    0  503    0 -0.00000000000E+00  0.00000000000E+00  0.11326540460E+04  0.11326540460E+04  0.00000000000E+00 0. -1.
         21   -1    0    0  504  502  0.00000000000E+00 -0.00000000000E+00 -0.18113226992E+04  0.18113226992E+04  0.00000000000E+00 0. -1.
         21    1    1    2  503  505  0.24637331633E+02 -0.31249352368E+02  0.22159318625E+03  0.22513786960E+03  0.00000000000E+00 0.  1.
         21    1    1    2  504  501  0.36256248303E+03  0.94219411605E+02 -0.21460622645E+03  0.43172292510E+03  0.00000000000E+00 0.  1.
         21    1    1    2  505  502 -0.13217779814E+03 -0.20874154511E+02 -0.14623925285E+04  0.14685021648E+04  0.00000000000E+00 0. -1.
          1    1    1    2  501    0 -0.25502201652E+03 -0.42095904725E+02  0.77673691552E+03  0.81861378564E+03  0.00000000000E+00 0. -1.
<scales pt_clust_3="39.79347" pt_clust_4="14000.00000" pt_clust_5="133.75059" pt_clust_6="251.42175"></scales>
<clustering>
<clus scale="   39.793">  1  3  2 -1</clus>
<clus scale="  133.751">  2  5  1 -1</clus>
<clus scale="  251.422">  1  6  2 -1</clus>
<clus scale="  133.751">  2  3  1 -1</clus>
</clustering>
</event>
<event>
 6    0  0.3082502E+002  0.8350443E+02  0.7546771E-02  0.1319391E+00
          2   -1    0    0  503    0 -0.00000000000E+00  0.00000000000E+00  0.41274610011E+03  0.41274610011E+03  0.00000000000E+00 0.  1.
         21   -1    0    0  505  502  0.00000000000E+00 -0.00000000000E+00 -0.22887313564E+03  0.22887313564E+03  0.00000000000E+00 0.  1.
         21    1    1    2  503  502  0.36353869176E+02 -0.17006332849E+02  0.24234890064E+02  0.46884422332E+02  0.00000000000E+00 0. -1.
         21    1    1    2  504  501 -0.42844676313E+02  0.83893311961E+02 -0.14667470993E+02  0.95335663765E+02  0.00000000000E+00 0. -1.
         21    1    1    2  505  504  0.41003460580E+02  0.15556933522E+01 -0.15548992977E+03  0.16081300389E+03  0.00000000000E+00 0.  1.
          2    1    1    2  501    0 -0.34512653442E+02 -0.68442672464E+02  0.32979547516E+03  0.33858614576E+03  0.00000000000E+00 0.  1.
<scales pt_clust_3="40.13501" pt_clust_4="83.50443" pt_clust_5="41.28495" pt_clust_6="14000.00000"></scales>
<clustering>
<clus scale="   40.135">  1  3  2 -1</clus>
<clus scale="   41.285">  2  5  1 -1</clus>
<clus scale="   83.504">  2  4  1 -1</clus>
<clus scale="   41.285">  2  3  1 -1</clus>
</clustering>
</event>
<event>
 6    0  0.3082502E+002  0.1109505E+03  0.7546771E-02  0.1258820E+00
         -2   -1    0    0    0  501 -0.00000000000E+00  0.00000000000E+00  0.68300159361E+02  0.68300159361E+02  0.00000000000E+00 0.  1.
         21   -1    0    0  503  502  0.00000000000E+00 -0.00000000000E+00 -0.61824578087E+03  0.61824578087E+03  0.00000000000E+00 0.  1.
         21    1    1    2  503  505 -0.95092922580E+02  0.34098115325E+02 -0.15234943428E+03  0.18279960481E+03  0.00000000000E+00 0.  1.
         21    1    1    2  504  501 -0.41884238882E+02  0.21330565893E+02  0.10488238288E+02  0.48158962306E+02  0.00000000000E+00 0.  1.
         21    1    1    2  505  504  0.84969666658E+02 -0.10047159597E+03 -0.23502662794E+03  0.26935460214E+03  0.00000000000E+00 0.  1.
         -2    1    1    2    0  502  0.52007494803E+02  0.45042914754E+02 -0.17305779757E+03  0.18623277098E+03  0.00000000000E+00 0.  1.
<scales pt_clust_3="14000.00000" pt_clust_4="47.00301" pt_clust_5="110.95046" pt_clust_6="66.22090"></scales>
<clustering>
<clus scale="   47.003">  1  4  2 -1</clus>
<clus scale="   66.221">  2  6  1 -1</clus>
<clus scale="  110.950">  1  5  2 -1</clus>
<clus scale="   66.221">  2  3  1 -1</clus>
</clustering>
</event>
<event>
 6    0  0.3082502E+002  0.1021376E+03  0.7546771E-02  0.1275864E+00
         21   -1    0    0  503  502  0.00000000000E+00  0.00000000000E+00  0.72713151404E+02  0.72713151404E+02  0.00000000000E+00 0. -1.
          2   -1    0    0  505    0 -0.00000000000E+00 -0.00000000000E+00 -0.22523346734E+04  0.22523346734E+04  0.00000000000E+00 0. -1.
         21    1    1    2  503  501 -0.15299093529E+02  0.32020992143E+02 -0.15647405780E+02  0.38784629794E+02  0.00000000000E+00 0. -1.
         21    1    1    2  504  502 -0.26616720512E+02 -0.51924052781E+02  0.40497367471E+02  0.71025304224E+02  0.00000000000E+00 0. -1.
         21    1    1    2  505  504 -0.49264385369E+02 -0.55213228078E+02 -0.39216303283E+03  0.39908310481E+03  0.00000000000E+00 0. -1.
          2    1    1    2  501    0  0.91180199411E+02  0.75116288716E+02 -0.18123084509E+04  0.18161547860E+04  0.00000000000E+00 0. -1.
<scales pt_clust_3="35.48811" pt_clust_4="46.49873" pt_clust_5="102.13763" pt_clust_6="14000.00000"></scales>
<clustering>
<clus scale="   35.488">  1  3  2 -1</clus>
<clus scale="   46.499">  1  4  2 -1</clus>
<clus scale="  102.138">  1  5  2 -1</clus>
<clus scale="   35.488">  1  3  2 -1</clus>
</clustering>
</event>
<event>
 6    0  0.3082502E+002  0.6983632E+02  0.7546771E-02  0.1360651E+00
          3   -1    0    0  503    0 -0.00000000000E+00  0.00000000000E+00  0.12021656468E+04  0.12021656468E+04  0.00000000000E+00 0.  1.
         21   -1    0    0  501  502  0.00000000000E+00 -0.00000000000E+00 -0.28013386509E+02  0.28013386509E+02  0.00000000000E+00 0.  1.
         21    1    1    2  503  505  0.22998074905E+02  0.46881735430E+02  0.42942923306E+03  0.43259250429E+03  0.00000000000E+00 0.  1.
         21    1    1    2  504  502 -0.31884304049E+02  0.42648144426E+02  0.81300005060E+02  0.97186233029E+02  0.00000000000E+00 0.  1.
         21    1    1    2  505  504  0.71070231325E+02 -0.96039332332E+02  0.20144591227E+03  0.23421141455E+03  0.00000000000E+00 0.  1.
          3    1    1    2  501    0 -0.62184002182E+02  0.65094524762E+01  0.46197710988E+03  0.46618888142E+03  0.00000000000E+00 0.  1.
<scales pt_clust_3="52.21885" pt_clust_4="56.25873" pt_clust_5="69.83632" pt_clust_6="14000.00000"></scales>
<clustering>
<clus scale="   52.219">  1  3  2 -1</clus>
<clus scale="   56.259">  2  4  1 -1</clus>
<clus scale="   69.836">  2  5  1 -1</clus>
<clus scale="   56.259">  2  3  1 -1</clus>
</clustering>
</event>
<event>
 6    0  0.3082502E+002  0.1174230E+03  0.7546771E-02  0.1247410E+00
         21   -1    0    0  505  502  0.00000000000E+00  0.00000000000E+00  0.44123718316E+03  0.44123718316E+03  0.00000000000E+00 0. -1.
         -1   -1    0    0    0  501 -0.00000000000E+00 -0.00000000000E+00 -0.42384859998E+03  0.42384859998E+03  0.00000000000E+00 0.  1.
         21    1    1    2  503  502  0.38034917656E+02  0.36127279868E+02  0.47781258458E+02  0.70956916305E+02  0.00000000000E+00 0. -1.
         21    1    1    2  504  501  0.26942436530E+02 -0.32104547307E+02 -0.21129451270E+03  0.21541116020E+03  0.00000000000E+00 0.  1.
         21    1    1    2  505  504  0.58404289779E+02  0.35701027890E+02  0.35507139206E+03  0.36160934434E+03  0.00000000000E+00 0. -1.
         -1    1    1    2    0  503 -0.12338164397E+03 -0.39723760450E+02 -0.17416955464E+03  0.21710836229E+03  0.00000000000E+00 0.  1.
<scales pt_clust_3="52.36683" pt_clust_4="41.91177" pt_clust_5="117.42296" pt_clust_6="14000.00000"></scales>
<clustering>
<clus scale="   41.912">  2  4  1 -1</clus>
<clus scale="   52.367">  1  3  2 -1</clus>
<clus scale="  117.423">  1  5  2 -1</clus>
<clus scale="   52.367">  1  3  2 -1</clus>
</clustering>
</event>
<event>
 6    0  0.3082502E+002  0.3290471E+03  0.7546771E-02  0.1071559E+00
          1   -1    0    0  504    0 -0.00000000000E+00  0.00000000000E+00  0.76767028538E+03  0.76767028538E+03  0.00000000000E+00 0.  1.
         21   -1    0    0  503  502  0.00000000000E+00 -0.00000000000E+00 -0.17983567563E+04  0.17983567563E+04  0.00000000000E+00 0. -1.
         21    1    1    2  503  501 -0.14797363218E+03  0.31192834884E+03 -0.14840617422E+04  0.15236911582E+04  0.00000000000E+00 0. -1.
         21    1    1    2  504  505 -0.44447167295E+02 -0.73585352073E+01  0.32042879767E+02  0.55285123358E+02  0.00000000000E+00 0.  1.
         21    1    1    2  505  502  0.18464806635E+03 -0.21083307813E+03 -0.20908206097E+03  0.34965812369E+03  0.00000000000E+00 0. -1.
          1    1    1    2  501    0  0.77727331200E+01 -0.93736735502E+02  0.63041445258E+03  0.63739263644E+03  0.00000000000E+00 0.  1.
<scales pt_clust_3="14000.00000" pt_clust_4="45.05218" pt_clust_5="329.04714" pt_clust_6="104.90861"></scales>
<clustering>
<clus scale="   45.052">  1  4  2 -1</clus>
<clus scale="  104.909">  1  6  2 -1</clus>
<clus scale="  329.047">  1  5  2 -1</clus>
<clus scale="  329.047">  2  3  1 -1</clus>
</clustering>
</event>
<event>
 6    0  0.3082502E+002  0.3225005E+03  0.7546771E-02  0.1074504E+00
          2   -1    0    0  503    0 -0.00000000000E+00  0.00000000000E+00  0.39746633749E+03  0.39746633749E+03  0.00000000000E+00 0. -1.
         21   -1    0    0  505  502  0.00000000000E+00 -0.00000000000E+00 -0.98418997267E+03  0.98418997267E+03  0.00000000000E+00 0.  1.
         21    1    1    2  503  502 -0.22184527113E+02  0.26316393501E+02 -0.15459142753E+02  0.37731828802E+02  0.00000000000E+00 0. -1.
         21    1    1    2  504  501  0.28188002442E+03  0.38717185410E+02 -0.50705013894E+03  0.58142515598E+03  0.00000000000E+00 0.  1.
         21    1    1    2  505  504  0.25032906369E+02  0.90061410178E+02 -0.33016937463E+03  0.34314649925E+03  0.00000000000E+00 0.  1.
          2    1    1    2  501    0 -0.28472840368E+03 -0.15509498909E+03  0.26595502114E+03  0.41935282612E+03  0.00000000000E+00 0. -1.
<scales pt_clust_3="34.41956" pt_clust_4="322.50054" pt_clust_5="93.80297" pt_clust_6="14000.00000"></scales>
<clustering>
<clus scale="   34.420">  1  3  2 -1</clus>
<clus scale="   93.803">  2  5  1 -1</clus>
<clus scale="  322.501">  2  4  1 -1</clus>
<clus scale="   93.803">  2  3  1 -1</clus>
</clustering>
</event>
<event>
 6    0  0.3082502E+002  0.1046820E+03  0.7546771E-02  0.1270747E+00
          2   -1    0    0  504    0 -0.00000000000E+00  0.00000000000E+00  0.41580291849E+04  0.41580291849E+04  0.00000000000E+00 0.  1.
         21   -1    0    0  505  502  0.00000000000E+00 -0.00000000000E+00 -0.13470796152E+03  0.13470796152E+03  0.00000000000E+00 0. -1.
         21    1    1    2  503  502  0.29367309451E+01 -0.13283311848E+03 -0.79938749118E+02  0.15505955425E+03  0.00000000000E+00 0. -1.
         21    1    1    2  504  503 -0.65120107495E+02  0.17326560435E+01  0.20757550143E+03  0.21755739310E+03  0.00000000000E+00 0. -1.
         21    1    1    2  505  501 -0.25178433625E+02  0.32034894059E+02  0.26330977700E+02  0.48512970882E+02  0.00000000000E+00 0.  1.
          2    1    1    2  501    0  0.87361810175E+02  0.99065568377E+02  0.38693534934E+04  0.38716072282E+04  0.00000000000E+00 0.  1.
<scales pt_clust_3="104.68199" pt_clust_4="66.20586" pt_clust_5="40.74540" pt_clust_6="14000.00000"></scales>
<clustering>
<clus scale="   40.745">  2  5  1 -1</clus>
<clus scale="   66.206">  1  4  2 -1</clus>
<clus scale="  104.682">  2  3  1 -1</clus>
<clus scale="   40.745">  2  3  1 -1</clus>
</clustering>
</event>
<event>
 6    0  0.3082502E+002  0.8629202E+02  0.7546771E-02  0.1312088E+00
         -1   -1    0    0    0  501 -0.00000000000E+00  0.00000000000E+00  0.10727207556E+04  0.10727207556E+04  0.00000000000E+00 0.  1.
         21   -1    0    0  504  502  0.00000000000E+00 -0.00000000000E+00 -0.46719811234E+03  0.46719811234E+03  0.00000000000E+00 0. -1.
         21    1    1    2  503  502 -0.43913312353E+02  0.61233762152E+02 -0.14787708057E+03  0.16596862229E+03  0.00000000000E+00 0. -1.
         21    1    1    2  504  505  0.12889215516E+02 -0.52033505493E+02 -0.30015146681E+03  0.30490083732E+03  0.00000000000E+00 0. -1.
         21    1    1    2  505  501 -0.41426192315E+02  0.55376612546E+02  0.24111584124E+03  0.25083769160E+03  0.00000000000E+00 0.  1.
         -1    1    1    2    0  503  0.72450289153E+02 -0.64576869204E+02  0.81243534938E+03  0.81821171671E+03  0.00000000000E+00 0.  1.
<scales pt_clust_3="33.70746" pt_clust_4="53.60613" pt_clust_5="86.29202" pt_clust_6="14000.00000"></scales>
<clustering>
<clus scale="   53.606">  2  4  1 -1</clus>
<clus scale="   33.707">  2  3  1 -1</clus>
<clus scale="   86.292">  2  5  1 -1</clus>
<clus scale="   53.606">  2  3  1 -1</clus>
</clustering>
</event>
<event>
 6    0  0.3082502E+002  0.8308980E+02  0.7546771E-02  0.1320505E+00
         -1   -1    0    0    0  501 -0.00000000000E+00  0.00000000000E+00  0.82293088314E+03  0.82293088314E+03  0.00000000000E+00 0. -1.
         21   -1    0    0  505  502  0.00000000000E+00 -0.00000000000E+00 -0.65340132781E+02  0.65340132781E+02  0.00000000000E+00 0. -1.
         21    1    1    2  503  501 -0.17476422484E+02 -0.35385701217E+02  0.43382336417E+03  0.43561483502E+03  0.00000000000E+00 0.  1.
         21    1    1    2  504  502 -0.76101747005E+02 -0.33977560869E+02  0.30014596084E+02  0.88582314928E+02  0.00000000000E+00 0. -1.
         21    1    1    2  505  503 -0.38548982356E+01  0.35939160240E+02 -0.14591294076E+02  0.38979345069E+02  0.00000000000E+00 0. -1.
         -1    1    1    2    0  504  0.97433067725E+02  0.33424101846E+02  0.30834408418E+03  0.32509452090E+03  0.00000000000E+00 0. -1.
<scales pt_clust_3="38.75973" pt_clust_4="14000.00000" pt_clust_5="36.14531" pt_clust_6="83.08980"></scales>
<clustering>
<clus scale="   36.145">  2  5  1 -1</clus>
<clus scale="   38.760">  1  3  2 -1</clus>
<clus scale="   83.090">  1  6  2 -1</clus>
<clus scale="   36.145">  2  3  1 -1</clus>
</clustering>
</event>
<event>
 6    0  0.3082502E+002  0.1153698E+03  0.7546771E-02  0.1250937E+00
         -1   -1    0    0    0  501 -0.00000000000E+00  0.00000000000E+00  0.18704072891E+04  0.18704072891E+04  0.00000000000E+00 0. -1.
         21   -1    0    0  504  502  0.00000000000E+00 -0.00000000000E+00 -0.22110557649E+03  0.22110557649E+03  0.00000000000E+00 0.  1.
         21    1    1    2  503  502 -0.49982966383E+02 -0.53290600601E+02  0.39348258970E+02  0.82984760799E+02  0.00000000000E+00 0.  1.
         21    1    1    2  504  505  0.48818159257E+02 -0.65335746385E+02 -0.18588193820E+03  0.20298785032E+03  0.00000000000E+00 0.  1.
         21    1    1    2  505  501 -0.58241353377E+02  0.22590337968E+02  0.97146324022E+03  0.97346967375E+03  0.00000000000E+00 0.  1.
         -1    1    1    2    0  503  0.59406160503E+02  0.96036009018E+02  0.82437215160E+03  0.83207058070E+03  0.00000000000E+00 0. -1.
<scales pt_clust_3="74.75881" pt_clust_4="14000.00000" pt_clust_5="62.46902" pt_clust_6="115.36981"></scales>
<clustering>
<clus scale="   62.469">  1  5  2 -1</clus>
<clus scale="   74.759">  2  3  1 -1</clus>
<clus scale="  115.370">  1  6  2 -1</clus>
<clus scale="   74.759">  2  3  1 -1</clus>
</clustering>
</event>
<event>
 6    0  0.3082502E+002  0.8191844E+02  0.7546771E-02  0.1323694E+00
         21   -1    0    0  505  502  0.00000000000E+00  0.00000000000E+00  0.52895656687E+03  0.52895656687E+03  0.00000000000E+00 0.  1.
          2   -1    0    0  504    0 -0.00000000000E+00 -0.00000000000E+00 -0.44726995121E+03  0.44726995121E+03  0.00000000000E+00 0.  1.
         21    1    1    2  503  502 -0.16918184772E+02 -0.42889077276E+02  0.48790693682E+03  0.49008048004E+03  0.00000000000E+00 0.  1.
         21    1    1    2  504  503 -0.45366959666E+02  0.12035531705E+01 -0.12432374277E+02  0.47055005045E+02  0.00000000000E+00 0. -1.
         21    1    1    2  505  501 -0.87384560330E+01 -0.58841463261E+02 -0.65469251980E+02  0.88458472558E+02  0.00000000000E+00 0.  1.
          2    1    1    2  501    0  0.71023600472E+02  0.10052698737E+03 -0.32831869490E+03  0.35063256043E+03  0.00000000000E+00 0.  1.
<scales pt_clust_3="46.14584" pt_clust_4="45.38292" pt_clust_5="14000.00000" pt_clust_6="81.91844"></scales>
<clustering>
<clus scale="   45.383">  2  4  1 -1</clus>
<clus scale="   46.146">  1  3  2 -1</clus>
<clus scale="   81.918">  2  6  1 -1</clus>
<clus scale="   46.146">  1  3  2 -1</clus>
</clustering>
</event>
<event>
 6    0  0.3082502E+002  0.1232189E+03  0.7546771E-02  0.1237879E+00
         21   -1    0    0  501  502  0.00000000000E+00  0.00000000000E+00  0.54667205376E+03  0.54667205376E+03  0.00000000000E+00 0. -1.
          1   -1    0    0  503    0 -0.00000000000E+00 -0.00000000000E+00 -0.27367315808E+04  0.27367315808E+04  0.00000000000E+00 0. -1.
         21    1    1    2  503  504 -0.19754731927E+02 -0.38251850414E+02 -0.21134510836E+03  0.21568543836E+03  0.00000000000E+00 0.  1.
         21    1    1    2  504  505 -0.17935315153E+03  0.48590165948E+02  0.38522048348E+02  0.18976961137E+03  0.00000000000E+00 0.  1.
         21    1    1    2  505  502  0.61674550174E+02 -0.76473809761E+02  0.42233640106E+03  0.43361276432E+03  0.00000000000E+00 0. -1.
          1    1    1    2  501    0  0.13743333329E+03  0.66135494227E+02 -0.24395728681E+04  0.24443358205E+04  0.00000000000E+00 0. -1.
<scales pt_clust_3="43.05175" pt_clust_4="14000.00000" pt_clust_5="98.28342" pt_clust_6="123.21892"></scales>
<clustering>
<clus scale="   43.052">  2  3  1 -1</clus>
<clus scale="   98.283">  1  5  2 -1</clus>
<clus scale="  123.219">  2  6  1 -1</clus>
<clus scale="   98.283">  1  3  2 -1</clus>
</clustering>
</event>
<event>
 6    0  0.3082502E+002  0.9524440E+02  0.7546771E-02  0.1290627E+00
         21   -1    0    0  503  502  0.00000000000E+00  0.00000000000E+00  0.61226882337E+03  0.61226882337E+03  0.00000000000E+00 0.  1.
          1   -1    0    0  504    0 -0.00000000000E+00 -0.00000000000E+00 -0.58608276387E+03  0.58608276387E+03  0.00000000000E+00 0. -1.
         21    1    1    2  503  501  0.34570963283E+02  0.31628301690E+02  0.29612455085E+03  0.29980868998E+03  0.00000000000E+00 0.  1.
         21    1    1    2  504  505  0.28574585389E+02  0.17976565889E+02 -0.23103653999E+02  0.40907733736E+02  0.00000000000E+00 0. -1.
         21    1    1    2  505  502 -0.12702115560E+03 -0.51251768558E+02  0.28804460231E+03  0.31895267780E+03  0.00000000000E+00 0.  1.
          1    1    1    2  501    0  0.63875606928E+02  0.16469009795E+01 -0.53487943967E+03  0.53868248573E+03  0.00000000000E+00 0. -1.
<scales pt_clust_3="46.96661" pt_clust_4="33.75891" pt_clust_5="14000.00000" pt_clust_6="95.24440"></scales>
<clustering>
<clus scale="   33.759">  2  4  1 -1</clus>
<clus scale="   46.967">  1  3  2 -1</clus>
<clus scale="   95.244">  2  6  1 -1</clus>
<clus scale="   46.967">  1  3  2 -1</clus>
</clustering>
</event>
<event>
 6    0  0.3082502E+002  0.1202006E+03  0.7546771E-02  0.1242766E+00
         21   -1    0    0  504  502  0.00000000000E+00  0.00000000000E+00  0.81303045351E+03  0.81303045351E+03  0.00000000000E+00 0.  1.
          2   -1    0    0  505    0 -0.00000000000E+00 -0.00000000000E+00 -0.11172781295E+04  0.11172781295E+04  0.00000000000E+00 0. -1.
         21    1    1    2  503  502  0.24172187919E+02  0.20598482042E+03  0.29106505507E+03  0.35739740793E+03  0.00000000000E+00 0.  1.
         21    1    1    2  504  501  0.19009791530E+01 -0.10538909024E+03  0.47992652190E+03  0.49136538389E+03  0.00000000000E+00 0.  1.
         21    1    1    2  505  503  0.45452822951E+01 -0.31265380245E+02 -0.15478544371E+03  0.15797695141E+03  0.00000000000E+00 0.  1.
          2    1    1    2  501    0 -0.30618449368E+02 -0.69330349932E+02 -0.92045380924E+03  0.92356883978E+03  0.00000000000E+00 0. -1.
<scales pt_clust_3="120.20062" pt_clust_4="14000.00000" pt_clust_5="31.59404" pt_clust_6="102.74230"></scales>
<clustering>
<clus scale="   31.594">  2  5  1 -1</clus>
<clus scale="  102.742">  2  6  1 -1</clus>
<clus scale="  120.201">  2  3  1 -1</clus>
<clus scale="  120.201">  1  3  2 -1</clus>
</clustering>
</event>
<event>
 6    0  0.3082502E+002  0.2278830E+03  0.7546771E-02  0.1128139E+00
         -1   -1    0    0    0  501 -0.00000000000E+00  0.00000000000E+00  0.21020810525E+03  0.21020810525E+03  0.00000000000E+00 0.  1.
         21   -1    0    0  504  502  0.00000000000E+00 -0.00000000000E+00 -0.76375560294E+03  0.76375560294E+03  0.00000000000E+00 0.  1.
         21    1    1    2  503  501 -0.29662543261E+02 -0.57466630202E+01  0.78733612275E+02  0.84331917508E+02  0.00000000000E+00 0.  1.
         21    1    1    2  504  503 -0.19707440393E+03  0.67146339357E+02 -0.60355179348E+03  0.63845259729E+03  0.00000000000E+00 0.  1.
         21    1    1    2  505  502  0.40562122063E+02 -0.17265216153E+02 -0.39981824385E+02  0.59514029574E+02  0.00000000000E+00 0. -1.
         -1    1    1    2    0  505  0.18617482513E+03 -0.44134460184E+02  0.11252507895E+02  0.19166516382E+03  0.00000000000E+00 0.  1.
<scales pt_clust_3="30.21408" pt_clust_4="211.76550" pt_clust_5="41.95352" pt_clust_6="41.95352"></scales>
<clustering>
<clus scale="   30.214">  1  3  2 -1</clus>
<clus scale="   41.954">  5  6 -1 -1</clus>
<clus scale="  211.766">  2  4  1 -1</clus>
<clus scale="  211.766">  2  3  1 -1</clus>
</clustering>
</event>
<event>
 6    0  0.3082502E+002  0.8721053E+02  0.7546771E-02  0.1309751E+00
          2   -1    0    0  504    0 -0.00000000000E+00  0.00000000000E+00  0.10903548754E+04  0.10903548754E+04  0.00000000000E+00 0.  1.
         21   -1    0    0  503  502  0.00000000000E+00 -0.00000000000E+00 -0.62121259644E+02  0.62121259644E+02  0.00000000000E+00 0. -1.
         21    1    1    2  503  505 -0.37868406855E+02  0.26806334826E+02 -0.25983123858E+02  0.53176296881E+02  0.00000000000E+00 0. -1.
         21    1    1    2  504  502  0.26898483662E+01 -0.47824964772E+02  0.21446160226E+03  0.21974585636E+03  0.00000000000E+00 0.  1.
         21    1    1    2  505  501 -0.14852645792E+02 -0.88262085408E+02  0.11929668195E+03  0.14913918041E+03  0.00000000000E+00 0. -1.
          2    1    1    2  501    0  0.50031204281E+02  0.10928071535E+03  0.72045845540E+03  0.73041480141E+03  0.00000000000E+00 0.  1.
<scales pt_clust_3="46.39608" pt_clust_4="44.71716" pt_clust_5="14000.00000" pt_clust_6="87.21053"></scales>
<clustering>
<clus scale="   46.396">  2  3  1 -1</clus>
<clus scale="   44.717">  1  4  2 -1</clus>
<clus scale="   87.211">  1  6  2 -1</clus>
<clus scale="   46.396">  2  3  1 -1</clus>
</clustering>
</event>
<event>
 6    0  0.3082502E+002  0.1095609E+03  0.7546771E-02  0.1261385E+00
          2   -1    0    0  504    0 -0.00000000000E+00  0.00000000000E+00  0.20240785333E+04  0.20240785333E+04  0.00000000000E+00 0.  1.
         21   -1    0    0  501  502  0.00000000000E+00 -0.00000000000E+00 -0.21477073077E+03  0.21477073077E+03  0.00000000000E+00 0.  1.
         21    1    1    2  503  502  0.58275904675E+02 -0.27446462479E+02 -0.19497852444E+03  0.20534364943E+03  0.00000000000E+00 0.  1.
         21    1    1    2  504  505 -0.16857573316E+02  0.36530056482E+02  0.10197188504E+04  0.10205122031E+04  0.00000000000E+00 0. -1.
         21    1    1    2  505  503  0.73423955488E+02  0.25426727348E+01  0.11963456052E+03  0.14039220240E+03  0.00000000000E+00 0. -1.
          2    1    1    2  501    0 -0.11484228685E+03 -0.11626266738E+02  0.86493291609E+03  0.87260120918E+03  0.00000000000E+00 0.  1.
<scales pt_clust_3="64.25682" pt_clust_4="40.23211" pt_clust_5="14000.00000" pt_clust_6="109.56089"></scales>
<clustering>
<clus scale="   40.232">  1  4  2 -1</clus>
<clus scale="   64.257">  2  3  1 -1</clus>
<clus scale="  109.561">  1  6  2 -1</clus>
<clus scale="   64.257">  2  3  1 -1</clus>
</clustering>
</event>
<event>
 6    0  0.3082502E+002  0.1218101E+03  0.7546771E-02  0.1240140E+00
          1   -1    0    0  505    0 -0.00000000000E+00  0.00000000000E+00  0.91038290655E+03  0.91038290655E+03  0.00000000000E+00 0.  1.
         21   -1    0    0  503  502  0.00000000000E+00 -0.00000000000E+00 -0.15134883577E+03  0.15134883577E+03  0.00000000000E+00 0.  1.
         21    1    1    2  503  501  0.10590461096E+03  0.41516366830E+02  0.40559191192E+02  0.12076606861E+03  0.00000000000E+00 0.  1.
         21    1    1    2  504  502 -0.67649012364E+02 -0.12102359301E+03 -0.35323147756E+02  0.14307628632E+03  0.00000000000E+00 0.  1.
         21    1    1    2  505  504  0.12853186156E+02 -0.27297501488E+02  0.61377424981E+03  0.61451540885E+03  0.00000000000E+00 0.  1.
          1    1    1    2  501    0 -0.51108784748E+02  0.10680472767E+03  0.14002377754E+03  0.18337397854E+03  0.00000000000E+00 0.  1.
<scales pt_clust_3="121.81009" pt_clust_4="14000.00000" pt_clust_5="30.17214" pt_clust_6="101.93455"></scales>
<clustering>
<clus scale="   30.172">  1  5  2 -1</clus>
<clus scale="  101.935">  1  6  2 -1</clus>
<clus scale="  121.810">  1  3  2 -1</clus>
<clus scale="  121.810">  2  3  1 -1</clus>
</clustering>
</event>
<event>
 6    0  0.3082502E+002  0.1163924E+03  0.7546771E-02  0.1249170E+00
          2   -1    0    0  503    0 -0.00000000000E+00  0.00000000000E+00  0.92385634271E+03  0.92385634271E+03  0.00000000000E+00 0.  1.
         21   -1    0    0  504  502  0.00000000000E+00 -0.00000000000E+00 -0.11279259994E+04  0.11279259994E+04  0.00000000000E+00 0.  1.
         21    1    1    2  503  505  0.41657495897E+02  0.94332953171E+01  0.10026739662E+03  0.10898570938E+03  0.00000000000E+00 0. -1.
         21    1    1    2  504  501  0.14199816211E+03 -0.35935507088E+02 -0.99951544493E+03  0.10101910529E+04  0.00000000000E+00 0.  1.
         21    1    1    2  505  502 -0.30434648851E+02  0.49833841315E+01 -0.10920520833E+03  0.11347633892E+03  0.00000000000E+00 0.  1.
          2    1    1    2  501    0 -0.15322100915E+03  0.21518827639E+02  0.80438359991E+03  0.81912924095E+03  0.00000000000E+00 0.  1.
<scales pt_clust_3="42.58969" pt_clust_4="116.39237" pt_clust_5="30.83994" pt_clust_6="14000.00000"></scales>
<clustering>
<clus scale="   30.840">  2  5  1 -1</clus>
<clus scale="   42.590">  1  3  2 -1</clus>
<clus scale="  116.392">  2  4  1 -1</clus>
<clus scale="   30.840">  2  3  1 -1</clus>
</clustering>
</event>
<event>
 6    0  0.3082502E+002  0.1381648E+03  0.7546771E-02  0.1215820E+00
          2   -1    0    0  504    0 -0.00000000000E+00  0.00000000000E+00  0.14780430939E+04  0.14780430939E+04  0.00000000000E+00 0. -1.
         21   -1    0    0  505  502  0.00000000000E+00 -0.00000000000E+00 -0.45165979074E+02  0.45165979074E+02  0.00000000000E+00 0. -1.
         21    1    1    2  503  502  0.13647517125E+03 -0.10551738798E+03  0.28593967824E+03  0.33394743767E+03  0.00000000000E+00 0. -1.
         21    1    1    2  504  503  0.36200141497E+02  0.43799716258E+02  0.46224320325E+03  0.46572271186E+03  0.00000000000E+00 0. -1.
         21    1    1    2  505  501 -0.24321794751E+02  0.73960617682E+02  0.15690909272E+03  0.17516331250E+03  0.00000000000E+00 0.  1.
          2    1    1    2  501    0 -0.14835351800E+03 -0.12242945956E+02  0.52778514064E+03  0.54837561097E+03  0.00000000000E+00 0. -1.
<scales pt_clust_3="14000.00000" pt_clust_4="56.82311" pt_clust_5="83.19124" pt_clust_6="138.16479"></scales>
<clustering>
<clus scale="   56.823">  1  4  2 -1</clus>
<clus scale="   83.191">  2  5  1 -1</clus>
<clus scale="  138.165">  1  6  2 -1</clus>
<clus scale="   83.191">  2  3  1 -1</clus>
</clustering>
</event>
<event>
 6    0  0.3082502E+002  0.9202207E+02  0.7546771E-02  0.1298028E+00
          2   -1    0    0  505    0 -0.00000000000E+00  0.00000000000E+00  0.46186217976E+04  0.46186217976E+04  0.00000000000E+00 0. -1.
         21   -1    0    0  503  502  0.00000000000E+00 -0.00000000000E+00 -0.13832739755E+02  0.13832739755E+02  0.00000000000E+00 0. -1.
         21    1    1    2  503  501  0.21652029943E+02 -0.25101801048E+02  0.42021779055E+02  0.53523272802E+02  0.00000000000E+00 0. -1.
         21    1    1    2  504  502 -0.42521950634E+02 -0.38304550069E+02  0.13679634209E+03  0.14828551531E+03  0.00000000000E+00 0. -1.
         21    1    1    2  505  504  0.46797431958E+02 -0.60616275579E+02  0.17622404717E+04  0.17639035724E+04  0.00000000000E+00 0. -1.
          2    1    1    2  501    0 -0.25927511266E+02  0.12402262670E+03  0.26637304650E+04  0.26667421769E+04  0.00000000000E+00 0. -1.
<scales pt_clust_3="33.14982" pt_clust_4="62.35852" pt_clust_5="92.02207" pt_clust_6="14000.00000"></scales>
<clustering>
<clus scale="   33.150">  2  3  1 -1</clus>
<clus scale="   62.359">  2  4  1 -1</clus>
<clus scale="   92.022">  1  5  2 -1</clus>
<clus scale="   33.150">  2  3  1 -1</clus>
</clustering>
</event>
<event>
 6    0  0.3082502E+002  0.1306558E+03  0.7546771E-02  0.1226486E+00
         21   -1    0    0  503  502  0.00000000000E+00  0.00000000000E+00  0.80972593451E+03  0.80972593451E+03  0.00000000000E+00 0. -1.
          1   -1    0    0  504    0 -0.00000000000E+00 -0.00000000000E+00 -0.26105670883E+03  0.26105670883E+03  0.00000000000E+00 0.  1.
         21    1    1    2  503  501  0.45550223070E+02  0.82415267698E+02  0.69265478505E+03  0.69902628737E+03  0.00000000000E+00 0. -1.
         21    1    1    2  504  505 -0.74634293405E+01 -0.29162397929E+02  0.53146294627E+01  0.30567851034E+02  0.00000000000E+00 0. -1.
         21    1    1    2  505  502 -0.10950653149E+02  0.46991704528E+02  0.77755265492E+02  0.91509662936E+02  0.00000000000E+00 0. -1.
          1    1    1    2  501    0 -0.27136140580E+02 -0.10024457430E+03 -0.22705545433E+03  0.24967884200E+03  0.00000000000E+00 0.  1.
<scales pt_clust_3="14000.00000" pt_clust_4="30.10230" pt_clust_5="47.51299" pt_clust_6="130.65577"></scales>
<clustering>
<clus scale="   30.102">  2  4  1 -1</clus>
<clus scale="   47.513">  1  5  2 -1</clus>
<clus scale="  130.656">  2  6  1 -1</clus>
<clus scale="   47.513">  1  3  2 -1</clus>
</clustering>
</event>
<event>
 6    0  0.3082502E+002  0.5781987E+02  0.7546771E-02  0.1407215E+00
         21   -1    0    0  504  502  0.00000000000E+00  0.00000000000E+00  0.16966566568E+04  0.16966566568E+04  0.00000000000E+00 0. -1.
          2   -1    0    0  505    0 -0.00000000000E+00 -0.00000000000E+00 -0.50403115474E+04  0.50403115474E+04  0.00000000000E+00 0. -1.
         21    1    1    2  503  502  0.87452856931E+02 -0.56778990763E+02  0.14946657106E+03  0.18224190473E+03  0.00000000000E+00 0. -1.
         21    1    1    2  504  501 -0.42386119215E+02  0.37177256406E+02  0.15296224273E+04  0.15306611321E+04  0.00000000000E+00 0. -1.
         21    1    1    2  505  503  0.27718588600E+02  0.13961588189E+02 -0.68021208241E+03  0.68091976264E+03  0.00000000000E+00 0. -1.
          2    1    1    2  501    0 -0.72785326316E+02  0.56401461682E+01 -0.43425318065E+04  0.43431454046E+04  0.00000000000E+00 0. -1.
<scales pt_clust_3="14000.00000" pt_clust_4="57.81987" pt_clust_5="31.03621" pt_clust_6="49.22214"></scales>
<clustering>
<clus scale="   31.036">  2  5  1 -1</clus>
<clus scale="   49.222">  2  6  1 -1</clus>
<clus scale="   57.820">  1  4  2 -1</clus>
<clus scale="   57.820">  1  3  2 -1</clus>
</clustering>
</event>
<event>
 6    0  0.3082502E+002  0.1313161E+03  0.7546771E-02  0.1225516E+00
         21   -1    0    0  505  502  0.00000000000E+00  0.00000000000E+00  0.21106014037E+04  0.21106014037E+04  0.00000000000E+00 0. -1.
          1   -1    0    0  503    0 -0.00000000000E+00 -0.00000000000E+00 -0.19330508494E+03  0.19330508494E+03  0.00000000000E+00 0.  1.
         21    1    1    2  503  502 -0.18937486911E+02 -0.10921475158E+03  0.26923402682E+02  0.11406734846E+03  0.00000000000E+00 0.  1.
         21    1    1    2  504  501  0.53171373946E+01  0.72874562229E+02  0.97022439329E+03  0.97297191486E+03  0.00000000000E+00 0. -1.
         21    1    1    2  505  504 -0.20505370631E+02  0.53612376268E+02  0.10652571803E+04  0.10668025203E+04  0.00000000000E+00 0.  1.
          1    1    1    2  501    0  0.34125720147E+02 -0.17272186920E+02 -0.14510865750E+03  0.15006470504E+03  0.00000000000E+00 0.  1.
<scales pt_clust_3="126.40825" pt_clust_4="31.52219" pt_clust_5="31.52219" pt_clust_6="38.24779"></scales>
<clustering>
<clus scale="   31.522">  4  5 -1 -1</clus>
<clus scale="   38.248">  2  6  1 -1</clus>
<clus scale="  126.408">  2  3  1 -1</clus>
<clus scale="  131.316">  1  3  2 -1</clus>
</clustering>
</event>
<event>
 6    0  0.3082502E+002  0.2841403E+03  0.7546771E-02  0.1093449E+00
          1   -1    0    0  505    0 -0.00000000000E+00  0.00000000000E+00  0.31323492878E+04  0.31323492878E+04  0.00000000000E+00 0.  1.
         21   -1    0    0  503  502  0.00000000000E+00 -0.00000000000E+00 -0.20822412122E+03  0.20822412122E+03  0.00000000000E+00 0.  1.
         21    1    1    2  503  501 -0.39389860532E+03 -0.49604365038E+01  0.39707023268E+03  0.55932592188E+03  0.00000000000E+00 0.  1.
         21    1    1    2  504  502  0.25136889715E+03 -0.41840086324E+02  0.10798672767E+02  0.25505592840E+03  0.00000000000E+00 0.  1.
         21    1    1    2  505  504  0.54738938096E+01  0.34268107163E+02  0.96946478851E+02  0.10297031827E+03  0.00000000000E+00 0.  1.
          1    1    1    2  501    0  0.13705581437E+03  0.12532415665E+02  0.24193097822E+04  0.24232212404E+04  0.00000000000E+00 0.  1.
<scales pt_clust_3="14000.00000" pt_clust_4="284.14026" pt_clust_5="34.70255" pt_clust_6="146.94566"></scales>
<clustering>
<clus scale="   34.703">  1  5  2 -1</clus>
<clus scale="  146.946">  1  6  2 -1</clus>
<clus scale="  284.140">  2  4  1 -1</clus>
<clus scale="  284.140">  2  3  1 -1</clus>
</clustering>
</event>
<event>
 6    0  0.3082502E+002  0.1614537E+03  0.7546771E-02  0.1187065E+00
         21   -1    0    0  504  502  0.00000000000E+00  0.00000000000E+00  0.16537259055E+04  0.16537259055E+04  0.00000000000E+00 0.  1.
          1   -1    0    0  503    0 -0.00000000000E+00 -0.00000000000E+00 -0.13154726702E+04  0.13154726702E+04  0.00000000000E+00 0. -1.
         21    1    1    2  503  502  0.10292102435E+02  0.84177261298E+02  0.13344567651E+04  0.13371486815E+04  0.00000000000E+00 0.  1.
         21    1    1    2  504  505  0.10899945515E+03 -0.17693461624E+03  0.27836324523E+03  0.34737995904E+03  0.00000000000E+00 0.  1.
         21    1    1    2  505  501 -0.38859710465E+02  0.31440316978E+02 -0.23870736391E+03  0.24388476011E+03  0.00000000000E+00 0. -1.
          1    1    1    2  501    0 -0.80431847122E+02  0.61317037967E+02 -0.10358594110E+04  0.10407851751E+04  0.00000000000E+00 0. -1.
<scales pt_clust_3="84.80412" pt_clust_4="151.80689" pt_clust_5="38.64644" pt_clust_6="38.64644"></scales>
<clustering>
<clus scale="   38.646">  5  6 -1 -1</clus>
<clus scale="   84.804">  1  3  2 -1</clus>
<clus scale="  151.807">  1  4  2 -1</clus>
<clus scale="   84.804">  1  3  2 -1</clus>
</clustering>
</event>
<event>
 6    0  0.3082502E+002  0.8661418E+02  0.7546771E-02  0.1311264E+00
          3   -1    0    0  504    0 -0.00000000000E+00  0.00000000000E+00  0.32996680169E+02  0.32996680169E+02  0.00000000000E+00 0. -1.
         21   -1    0    0  505  502  0.00000000000E+00 -0.00000000000E+00 -0.10812211163E+04  0.10812211163E+04  0.00000000000E+00 0. -1.
         21    1    1    2  503  502 -0.54952825193E+02 -0.27293028635E+02 -0.14063312015E+03  0.15343531826E+03  0.00000000000E+00 0.  1.
         21    1    1    2  504  503 -0.49098121666E+02 -0.24461025126E+02 -0.38469659395E+02  0.66999119362E+02  0.00000000000E+00 0. -1.
         21    1    1    2  505  501  0.97928475731E+02  0.15191198312E+02 -0.84209381349E+03  0.84790491778E+03  0.00000000000E+00 0. -1.
          3    1    1    2  501    0  0.61224711281E+01  0.36562855450E+02 -0.27027843071E+02  0.45878441042E+02  0.00000000000E+00 0. -1.
<scales pt_clust_3="86.61418" pt_clust_4="45.45295" pt_clust_5="14000.00000" pt_clust_6="37.07192"></scales>
<clustering>
<clus scale="   37.072">  1  6  2 -1</clus>
<clus scale="   45.453">  1  4  2 -1</clus>
<clus scale="   86.614">  1  3  2 -1</clus>
<clus scale="   86.614">  2  3  1 -1</clus>
</clustering>
</event>
<event>
 6    0  0.3082502E+002  0.8369410E+02  0.7546771E-02  0.1318883E+00
         21   -1    0    0  504  502  0.00000000000E+00  0.00000000000E+00  0.28305173521E+03  0.28305173521E+03  0.00000000000E+00 0. -1.
         -1   -1    0    0    0  501 -0.00000000000E+00 -0.00000000000E+00 -0.95788287342E+02  0.95788287342E+02  0.00000000000E+00 0. -1.
         21    1    1    2  503  502  0.20545945217E+02  0.81400030106E+02  0.14614874818E+03  0.16854541632E+03  0.00000000000E+00 0. -1.
         21    1    1    2  504  505  0.18591317933E+02 -0.51141771005E+02  0.43024474824E+02  0.69370190124E+02  0.00000000000E+00 0. -1.
         21    1    1    2  505  501  0.29080136886E+02  0.34583991292E+02 -0.10582807224E+02  0.46408001721E+02  0.00000000000E+00 0. -1.
         -1    1    1    2    0  503 -0.68217400036E+02 -0.64842250393E+02  0.86730320853E+01  0.94516414390E+02  0.00000000000E+00 0. -1.
<scales pt_clust_3="83.69410" pt_clust_4="50.58225" pt_clust_5="45.18525" pt_clust_6="14000.00000"></scales>
<clustering>
<clus scale="   45.185">  2  5  1 -1</clus>
<clus scale="   50.582">  2  4  1 -1</clus>
<clus scale="   83.694">  1  3  2 -1</clus>
<clus scale="   83.694">  1  3  2 -1</clus>
</clustering>
</event>
<event>
 6    0  0.3082502E+002  0.8549865E+02  0.7546771E-02  0.1314134E+00
         21   -1    0    0  505  502  0.00000000000E+00  0.00000000000E+00  0.18023664369E+02  0.18023664369E+02  0.00000000000E+00 0. -1.
         -2   -1    0    0    0  501 -0.00000000000E+00 -0.00000000000E+00 -0.30130061380E+04  0.30130061380E+04  0.00000000000E+00 0.  1.
         21    1    1    2  503  501  0.67056535350E+02  0.74257685168E+02 -0.19691773287E+04  0.19717175596E+04  0.00000000000E+00 0.  1.
         21    1    1    2  504  502  0.49038543790E+02 -0.12301252488E+02 -0.13361534476E+03  0.14286063119E+03  0.00000000000E+00 0.  1.
         21    1    1    2  505  503 -0.46789690429E+02 -0.39078608602E+02 -0.77999048529E+02  0.98996284537E+02  0.00000000000E+00 0. -1.
         -2    1    1    2    0  504 -0.69305388711E+02 -0.22877824078E+02 -0.81419075164E+03  0.81745532709E+03  0.00000000000E+00 0.  1.
<scales pt_clust_3="85.49865" pt_clust_4="50.55788" pt_clust_5="49.42979" pt_clust_6="14000.00000"></scales>
<clustering>
<clus scale="   50.558">  1  4  2 -1</clus>
<clus scale="   49.430">  1  5  2 -1</clus>
<clus scale="   85.499">  2  3  1 -1</clus>
<clus scale="   50.558">  1  3  2 -1</clus>
</clustering>
</event>
<event>
 6    0  0.3082502E+002  0.9955195E+02  0.7546771E-02  0.1281241E+00
         21   -1    0    0  503  502  0.00000000000E+00  0.00000000000E+00  0.12178800482E+03  0.12178800482E+03  0.00000000000E+00 0. -1.
         -1   -1    0    0    0  501 -0.00000000000E+00 -0.00000000000E+00 -0.20301196451E+04  0.20301196451E+04  0.00000000000E+00 0. -1.
         21    1    1    2  503  504  0.33417648624E+02 -0.95093652667E+01  0.87514772647E+02  0.94159453582E+02  0.00000000000E+00 0. -1.
         21    1    1    2  504  505  0.59399808702E+02  0.49625908776E+02 -0.27854768693E+02  0.82261511259E+02  0.00000000000E+00 0. -1.
         21    1    1    2  505  501  0.20081511039E+02  0.25723651350E+02 -0.19752031487E+03  0.20019802224E+03  0.00000000000E+00 0.  1.
         -1    1    1    2    0  502 -0.11289896836E+03 -0.65840194859E+02 -0.17704713294E+04  0.17752886628E+04  0.00000000000E+00 0. -1.
<scales pt_clust_3="34.76662" pt_clust_4="99.55195" pt_clust_5="32.63393" pt_clust_6="14000.00000"></scales>
<clustering>
<clus scale="   32.634">  2  5  1 -1</clus>
<clus scale="   34.767">  1  3  2 -1</clus>
<clus scale="   99.552">  1  4  2 -1</clus>
<clus scale="   34.767">  1  3  2 -1</clus>
</clustering>
</event>
<event>
 6    0  0.3082502E+002  0.2006390E+03  0.7546771E-02  0.1149201E+00
         21   -1    0    0  505  502  0.00000000000E+00  0.00000000000E+00  0.87664257710E+03  0.87664257710E+03  0.00000000000E+00 0. -1.
          1   -1    0    0  504    0 -0.00000000000E+00 -0.00000000000E+00 -0.11070919893E+03  0.11070919893E+03  0.00000000000E+00 0.  1.
         21    1    1    2  503  502  0.88955407952E+02 -0.80625740611E+02  0.48619063184E+03  0.50079427427E+03  0.00000000000E+00 0. -1.
         21    1    1    2  504  503  0.94486478625E+02 -0.80034876044E+02  0.15363526779E+03  0.19732478693E+03  0.00000000000E+00 0.  1.
         21    1    1    2  505  501 -0.98429467271E+02  0.33630712817E+02  0.74346548069E+02  0.12785458178E+03  0.00000000000E+00 0.  1.
          1    1    1    2  501    0 -0.85012419306E+02  0.12702990384E+03  0.51760930467E+02  0.16137813305E+03  0.00000000000E+00 0.  1.
<scales pt_clust_3="120.05655" pt_clust_4="178.79123" pt_clust_5="75.10776" pt_clust_6="75.10776"></scales>
<clustering>
<clus scale="   75.108">  5  6 -1 -1</clus>
<clus scale="  120.057">  1  3  2 -1</clus>
<clus scale="  178.791">  2  4  1 -1</clus>
<clus scale="  120.057">  1  3  2 -1</clus>
</clustering>
</event>
<event>
 6    0  0.3082502E+002  0.7432375E+02  0.7546771E-02  0.1345978E+00
         21   -1    0    0  501  502  0.00000000000E+00  0.00000000000E+00  0.36551120060E+03  0.36551120060E+03  0.00000000000E+00 0. -1.
          2   -1    0    0  503    0 -0.00000000000E+00 -0.00000000000E+00 -0.26358450322E+04  0.26358450322E+04  0.00000000000E+00 0. -1.
         21    1    1    2  503  504 -0.96843459203E+02 -0.79926524746E+01 -0.14942284393E+04  0.14973847759E+04  0.00000000000E+00 0. -1.
         21    1    1    2  504  505  0.10312750883E+03  0.61690494699E+02 -0.24010518387E+03  0.26849860248E+03  0.00000000000E+00 0. -1.
         21    1    1    2  505  502 -0.37373183252E+02 -0.51837606640E+02  0.34654007521E+03  0.35238319485E+03  0.00000000000E+00 0. -1.
          2    1    1    2  501    0  0.31089133629E+02 -0.18602355844E+01 -0.88254028360E+03  0.88308965959E+03  0.00000000000E+00 0. -1.
<scales pt_clust_3="74.32375" pt_clust_4="14000.00000" pt_clust_5="63.87757" pt_clust_6="31.14474"></scales>
<clustering>
<clus scale="   31.145">  2  6  1 -1</clus>
<clus scale="   63.878">  1  5  2 -1</clus>
<clus scale="   74.324">  2  3  1 -1</clus>
<clus scale="   63.878">  1  3  2 -1</clus>
</clustering>
</event>
<event>
 6    0  0.3082502E+002  0.9114748E+02  0.7546771E-02  0.1300096E+00
          1   -1    0    0  505    0 -0.00000000000E+00  0.00000000000E+00  0.10731231810E+04  0.10731231810E+04  0.00000000000E+00 0.  1.
         21   -1    0    0  504  502  0.00000000000E+00 -0.00000000000E+00 -0.59453840786E+03  0.59453840786E+03  0.00000000000E+00 0. -1.
         21    1    1    2  503  502 -0.95311852467E+02  0.24398433859E+02 -0.55530817850E+03  0.56395638653E+03  0.00000000000E+00 0. -1.
         21    1    1    2  504  501  0.24749487539E+02  0.31856901231E+02 -0.66493546543E+01  0.40885366658E+02  0.00000000000E+00 0. -1.
         21    1    1    2  505  503 -0.65965064926E+02 -0.41281469875E+02  0.43402900670E+03  0.44094980237E+03  0.00000000000E+00 0. -1.
          1    1    1    2  501    0  0.13652742985E+03 -0.14973865214E+02  0.60651329962E+03  0.62187003334E+03  0.00000000000E+00 0.  1.
<scales pt_clust_3="91.14748" pt_clust_4="40.34104" pt_clust_5="77.58780" pt_clust_6="14000.00000"></scales>
<clustering>
<clus scale="   40.341">  2  4  1 -1</clus>
<clus scale="   77.588">  1  5  2 -1</clus>
<clus scale="   91.147">  2  3  1 -1</clus>
<clus scale="   40.341">  2  3  1 -1</clus>
</clustering>
</event>
<event>
 6    0  0.3082502E+002  0.7876258E+02  0.7546771E-02  0.1332600E+00
          2   -1    0    0  504    0 -0.00000000000E+00  0.00000000000E+00  0.83186294570E+03  0.83186294570E+03  0.00000000000E+00 0. -1.
         21   -1    0    0  503  502  0.00000000000E+00 -0.00000000000E+00 -0.60980270453E+03  0.60980270453E+03  0.00000000000E+00 0.  1.
         21    1    1    2  503  501  0.33570483586E+01 -0.36873408317E+02 -0.50204715656E+02  0.62381339267E+02  0.00000000000E+00 0. -1.
         21    1    1    2  504  505  0.15599679916E+02 -0.34906372948E+02  0.39202298201E+03  0.39388300713E+03  0.00000000000E+00 0. -1.
         21    1    1    2  505  502  0.68321463586E+02  0.69239116793E+02 -0.54381617676E+03  0.55244720272E+03  0.00000000000E+00 0.  1.
          2    1    1    2  501    0 -0.87278191861E+02  0.25406644714E+01  0.42405815157E+03  0.43295410111E+03  0.00000000000E+00 0. -1.
<scales pt_clust_3="37.02591" pt_clust_4="38.29243" pt_clust_5="78.76258" pt_clust_6="14000.00000"></scales>
<clustering>
<clus scale="   37.026">  2  3  1 -1</clus>
<clus scale="   38.292">  1  4  2 -1</clus>
<clus scale="   78.763">  2  5  1 -1</clus>
<clus scale="   37.026">  2  3  1 -1</clus>
</clustering>
</event>
<event>
 6    0  0.3082502E+002  0.1181857E+03  0.7546771E-02  0.1246120E+00
         21   -1    0    0  503  502  0.00000000000E+00  0.00000000000E+00  0.97472925639E+02  0.97472925639E+02  0.00000000000E+00 0. -1.
          2   -1    0    0  505    0 -0.00000000000E+00 -0.00000000000E+00 -0.11438341631E+04  0.11438341631E+04  0.00000000000E+00 0. -1.
         21    1    1    2  503  501 -0.14281065597E+02 -0.32205343034E+02  0.17808715276E+02  0.39475097141E+02  0.00000000000E+00 0. -1.
         21    1    1    2  504  502 -0.22136816186E+02  0.13304901361E+03 -0.42093530229E+02  0.14129382131E+03  0.00000000000E+00 0. -1.
         21    1    1    2  505  504  0.93596354062E+02  0.53075523684E+02 -0.55777784119E+03  0.56806109603E+03  0.00000000000E+00 0. -1.
          2    1    1    2  501    0 -0.57178472279E+02 -0.15391919426E+03 -0.46429858133E+03  0.49247707427E+03  0.00000000000E+00 0. -1.
<scales pt_clust_3="35.22972" pt_clust_4="118.18573" pt_clust_5="105.49479" pt_clust_6="14000.00000"></scales>
<clustering>
<clus scale="   35.230">  1  3  2 -1</clus>
<clus scale="  105.495">  2  5  1 -1</clus>
<clus scale="  118.186">  1  4  2 -1</clus>
<clus scale="   35.230">  1  3  2 -1</clus>
</clustering>
</event>
<event>
 6    0  0.3082502E+002  0.8500082E+02  0.7546771E-02  0.1315430E+00
         21   -1    0    0  501  502  0.00000000000E+00  0.00000000000E+00  0.31320010609E+02  0.31320010609E+02  0.00000000000E+00 0.  1.
          2   -1    0    0  505    0 -0.00000000000E+00 -0.00000000000E+00 -0.22945637278E+04  0.22945637278E+04  0.00000000000E+00 0.  1.
         21    1    1    2  503  504  0.29270628172E+02  0.69704808095E+02 -0.15551453380E+03  0.17291703262E+03  0.00000000000E+00 0.  1.
         21    1    1    2  504  502 -0.64345102474E+02 -0.67522964521E+02 -0.87036651990E+02  0.12757359343E+03  0.00000000000E+00 0.  1.
         21    1    1    2  505  503 -0.49532457647E+01  0.38753311932E+02 -0.16357235896E+04  0.16361900914E+04  0.00000000000E+00 0.  1.
          2    1    1    2  501    0  0.40027720066E+02 -0.40935155506E+02 -0.38496894177E+03  0.38920302088E+03  0.00000000000E+00 0.  1.
<scales pt_clust_3="85.00082" pt_clust_4="14000.00000" pt_clust_5="39.06858" pt_clust_6="41.32030"></scales>
<clustering>
<clus scale="   39.069">  2  5  1 -1</clus>
<clus scale="   41.320">  2  6  1 -1</clus>
<clus scale="   85.001">  2  3  1 -1</clus>
<clus scale="   85.001">  1  3  2 -1</clus>
</clustering>
</event>
<event>
 6    0  0.3082502E+002  0.1124386E+03  0.7546771E-02  0.1256119E+00
          2   -1    0    0  503    0 -0.00000000000E+00  0.00000000000E+00  0.31474598632E+04  0.31474598632E+04  0.00000000000E+00 0. -1.
         21   -1    0    0  504  502  0.00000000000E+00 -0.00000000000E+00 -0.12075466051E+03  0.12075466051E+03  0.00000000000E+00 0.  1.
         21    1    1    2  503  505 -0.26762619437E+02  0.28806184195E+02  0.76315828247E+03  0.76417052950E+03  0.00000000000E+00 0.  1.
         21    1    1    2  504  501  0.10504806760E+03  0.11762356170E+03  0.84424474279E+03  0.85884782383E+03  0.00000000000E+00 0. -1.
         21    1    1    2  505  502 -0.13788044264E+01 -0.86414967394E+02 -0.94611017172E+02  0.12814324899E+03  0.00000000000E+00 0.  1.
          2    1    1    2  501    0 -0.76906643740E+02 -0.60014778500E+02  0.15139131946E+04  0.15170529214E+04  0.00000000000E+00 0. -1.
<scales pt_clust_3="39.31964" pt_clust_4="112.43862" pt_clust_5="86.22660" pt_clust_6="14000.00000"></scales>
<clustering>
<clus scale="   39.320">  1  3  2 -1</clus>
<clus scale="   86.227">  2  5  1 -1</clus>
<clus scale="  112.439">  2  4  1 -1</clus>
<clus scale="   86.227">  2  3  1 -1</clus>
</clustering>
</event>
<event>
 6    0  0.3082502E+002  0.2432397E+03  0.7546771E-02  0.1117653E+00
          2   -1    0    0  504    0 -0.00000000000E+00  0.00000000000E+00  0.77349254883E+03  0.77349254883E+03  0.00000000000E+00 0.  1.
         21   -1    0    0  505  502  0.00000000000E+00 -0.00000000000E+00 -0.16090221666E+04  0.16090221666E+04  0.00000000000E+00 0.  1.
         21    1    1    2  503  502  0.38245199496E+02  0.54411256376E+02 -0.65806246363E+02  0.93561435246E+02  0.00000000000E+00 0. -1.
         21    1    1    2  504  503 -0.15987181345E+02  0.60024146259E+02  0.66265274975E+03  0.66555777725E+03  0.00000000000E+00 0.  1.
         21    1    1    2  505  501 -0.27519437040E+02 -0.25542038424E+03 -0.14576081854E+04  0.14800738205E+04  0.00000000000E+00 0.  1.
          2    1    1    2  501    0  0.52614188895E+01  0.14098498161E+03  0.25232064280E+02  0.14332168236E+03  0.00000000000E+00 0.  1.
<scales pt_clust_3="71.82571" pt_clust_4="62.11673" pt_clust_5="243.23974" pt_clust_6="14000.00000"></scales>
<clustering>
<clus scale="   62.117">  1  4  2 -1</clus>
<clus scale="   71.826">  1  3  2 -1</clus>
<clus scale="  243.240">  2  5  1 -1</clus>
<clus scale="  243.240">  2  3  1 -1</clus>
</clustering>
</event>
<event>
 6    0  0.3082502E+002  0.1318669E+03  0.7546771E-02  0.1224712E+00
         -2   -1    0    0    0  501 -0.00000000000E+00  0.00000000000E+00  0.11011896968E+03  0.11011896968E+03  0.00000000000E+00 0.  1.
         21   -1    0    0  503  502  0.00000000000E+00 -0.00000000000E+00 -0.17612763929E+04  0.17612763929E+04  0.00000000000E+00 0.  1.
         21    1    1    2  503  504 -0.75892035649E+02 -0.95271671268E+02 -0.15848460531E+04  0.15895198345E+04  0.00000000000E+00 0.  1.
         21    1    1    2  504  501 -0.87824930404E+01 -0.34106882582E+02  0.64987771278E+02  0.73917670683E+02  0.00000000000E+00 0.  1.
         21    1    1    2  505  502  0.72005058564E+02  0.76847313938E+02 -0.10143761854E+03  0.14621842762E+03  0.00000000000E+00 0.  1.
         -2    1    1    2    0  505  0.12669470125E+02  0.52531239912E+02 -0.29861522924E+02  0.61739429794E+02  0.00000000000E+00 0.  1.
<scales pt_clust_3="123.65455" pt_clust_4="35.21948" pt_clust_5="32.81394" pt_clust_6="32.81394"></scales>
<clustering>
<clus scale="   32.814">  5  6 -1 -1</clus>
<clus scale="   35.219">  1  4  2 -1</clus>
<clus scale="  123.655">  2  3  1 -1</clus>
<clus scale="  123.655">  2  3  1 -1</clus>
</clustering>
</event>
<event>
 6    0  0.3082502E+002  0.9972237E+02  0.7546771E-02  0.1280881E+00
         21   -1    0    0  503  502  0.00000000000E+00  0.00000000000E+00  0.13220780438E+03  0.13220780438E+03  0.00000000000E+00 0.  1.
         -1   -1    0    0    0  501 -0.00000000000E+00 -0.00000000000E+00 -0.20142311058E+04  0.20142311058E+04  0.00000000000E+00 0. -1.
         21    1    1    2  503  505 -0.18676448087E+02  0.27229386646E+02  0.50028537760E+02  0.59942504124E+02  0.00000000000E+00 0.  1.
         21    1    1    2  504  502  0.22123072025E+02 -0.31630433989E+02 -0.80817926096E+02  0.89562558297E+02  0.00000000000E+00 0.  1.
         21    1    1    2  505  501  0.69546352415E+02 -0.63690673859E+02  0.40453697377E+02  0.10261432016E+03  0.00000000000E+00 0.  1.
         -1    1    1    2    0  504 -0.72992976353E+02  0.68091721202E+02 -0.18916876105E+04  0.18943195276E+04  0.00000000000E+00 0. -1.
<scales pt_clust_3="33.01892" pt_clust_4="36.72997" pt_clust_5="99.72237" pt_clust_6="14000.00000"></scales>
<clustering>
<clus scale="   33.019">  1  3  2 -1</clus>
<clus scale="   36.730">  1  4  2 -1</clus>
<clus scale="   99.722">  1  5  2 -1</clus>
<clus scale="   33.019">  1  3  2 -1</clus>
</clustering>
</event>
<event>
 6    0  0.3082502E+002  0.1251764E+03  0.7546771E-02  0.1234794E+00
         -1   -1    0    0    0  501 -0.00000000000E+00  0.00000000000E+00  0.49050619185E+03  0.49050619185E+03  0.00000000000E+00 0.  1.
         21   -1    0    0  505  502  0.00000000000E+00 -0.00000000000E+00 -0.86916029509E+03  0.86916029509E+03  0.00000000000E+00 0. -1.
         21    1    1    2  503  501  0.24319265013E+02 -0.87340111341E+02  0.39238568991E+02  0.98789609758E+02  0.00000000000E+00 0.  1.
         21    1    1    2  504  502 -0.12322741044E+03  0.13860153419E+02 -0.66907726434E+03  0.68047151608E+03  0.00000000000E+00 0. -1.
         21    1    1    2  505  503  0.13120827106E+03 -0.17744229988E+01 -0.13344560523E+03  0.18715364952E+03  0.00000000000E+00 0.  1.
         -1    1    1    2    0  504 -0.32300125639E+02  0.75254380921E+02  0.38463019734E+03  0.39325171159E+03  0.00000000000E+00 0.  1.
<scales pt_clust_3="36.28195" pt_clust_4="125.17644" pt_clust_5="14000.00000" pt_clust_6="81.89335"></scales>
<clustering>
<clus scale="   81.893">  1  6  2 -1</clus>
<clus scale="   36.282">  1  3  2 -1</clus>
<clus scale="  125.176">  2  4  1 -1</clus>
<clus scale="  125.176">  2  3  1 -1</clus>
</clustering>
</event>
<event>
 6    0  0.3082502E+002  0.1037721E+03  0.7546771E-02  0.1272558E+00
         -3   -1    0    0    0  501 -0.00000000000E+00  0.00000000000E+00  0.87535776363E+03  0.87535776363E+03  0.00000000000E+00 0. -1.
         21   -1    0    0  504  502  0.00000000000E+00 -0.00000000000E+00 -0.19280081881E+04  0.19280081881E+04  0.00000000000E+00 0. -1.
         21    1    1    2  503  502  0.74702608209E+02  0.70543989240E+02 -0.18223776504E+04  0.18252718249E+04  0.00000000000E+00 0. -1.
         21    1    1    2  504  501 -0.87613550275E+02 -0.15851910747E+03  0.13132042150E+02  0.18159540786E+03  0.00000000000E+00 0.  1.
         21    1    1    2  505  503 -0.26074737179E+02  0.61869178142E+02  0.39554503285E+02  0.77924616476E+02  0.00000000000E+00 0.  1.
         -3    1    1    2    0  505  0.38985679245E+02  0.26105940085E+02  0.71704068049E+03  0.71857410249E+03  0.00000000000E+00 0. -1.
<scales pt_clust_3="14000.00000" pt_clust_4="103.77214" pt_clust_5="72.52619" pt_clust_6="46.91911"></scales>
<clustering>
<clus scale="   46.919">  1  6  2 -1</clus>
<clus scale="   72.526">  1  5  2 -1</clus>
<clus scale="  103.772">  1  4  2 -1</clus>
<clus scale="  103.772">  2  3  1 -1</clus>
</clustering>
</event>
<event>
 6    0  0.3082502E+002  0.8461331E+02  0.7546771E-02  0.1316447E+00
         21   -1    0    0  503  502  0.00000000000E+00  0.00000000000E+00  0.16844147504E+03  0.16844147504E+03  0.00000000000E+00 0. -1.
          1   -1    0    0  505    0 -0.00000000000E+00 -0.00000000000E+00 -0.28820988691E+04  0.28820988691E+04  0.00000000000E+00 0. -1.
         21    1    1    2  503  504 -0.25505657504E+02  0.59699911571E+02  0.87680120345E+02  0.10909821955E+03  0.00000000000E+00 0. -1.
         21    1    1    2  504  501  0.77340097048E+02  0.80626918782E+01  0.46447229913E+02  0.90575067090E+02  0.00000000000E+00 0. -1.
         21    1    1    2  505  502 -0.26507767443E+02  0.19831594661E+02 -0.39386389273E+03  0.39525272912E+03  0.00000000000E+00 0.  1.
          1    1    1    2  501    0 -0.25326672100E+02 -0.87594198110E+02 -0.24539208516E+04  0.24556143284E+04  0.00000000000E+00 0. -1.
<scales pt_clust_3="65.04347" pt_clust_4="84.61331" pt_clust_5="33.10519" pt_clust_6="14000.00000"></scales>
<clustering>
<clus scale="   33.105">  2  5  1 -1</clus>
<clus scale="   65.043">  1  3  2 -1</clus>
<clus scale="   84.613">  1  4  2 -1</clus>
<clus scale="   65.043">  1  3  2 -1</clus>
</clustering>
</event>
<event>
 6    0  0.3082502E+002  0.1437337E+03  0.7546771E-02  0.1208392E+00
         21   -1    0    0  501  502  0.00000000000E+00  0.00000000000E+00  0.58969248569E+03  0.58969248569E+03  0.00000000000E+00 0.  1.
          2   -1    0    0  504    0 -0.00000000000E+00 -0.00000000000E+00 -0.17918848052E+04  0.17918848052E+04  0.00000000000E+00 0. -1.
         21    1    1    2  503  505 -0.13591592542E+02  0.87812931273E+02  0.16160494481E+03  0.18442342713E+03  0.00000000000E+00 0.  1.
         21    1    1    2  504  503 -0.40807540630E+02  0.19487065166E+02 -0.11321951914E+03  0.12191661329E+03  0.00000000000E+00 0. -1.
         21    1    1    2  505  502  0.59895807171E+02  0.51240244363E+02  0.40473574914E+03  0.41233978342E+03  0.00000000000E+00 0.  1.
          2    1    1    2  501    0 -0.54966739991E+01 -0.15854024080E+03 -0.16553134943E+04  0.16628974670E+04  0.00000000000E+00 0. -1.
<scales pt_clust_3="14000.00000" pt_clust_4="45.22169" pt_clust_5="78.78144" pt_clust_6="143.73368"></scales>
<clustering>
<clus scale="   45.222">  2  4  1 -1</clus>
<clus scale="   78.781">  1  5  2 -1</clus>
<clus scale="  143.734">  2  6  1 -1</clus>
<clus scale="   78.781">  1  3  2 -1</clus>
</clustering>
</event>
<event>
 6    0  0.3082502E+002  0.1010165E+03  0.7546771E-02  0.1278173E+00
         -4   -1    0    0    0  501 -0.00000000000E+00  0.00000000000E+00  0.70568171243E+02  0.70568171243E+02  0.00000000000E+00 0. -1.
         21   -1    0    0  505  502  0.00000000000E+00 -0.00000000000E+00 -0.96060302090E+03  0.96060302090E+03  0.00000000000E+00 0. -1.
         21    1    1    2  503  504  0.58528473688E+02 -0.65136010198E+02 -0.51859263830E+03  0.52593403252E+03  0.00000000000E+00 0. -1.
         21    1    1    2  504  502 -0.65425077997E+02  0.34949038985E+02 -0.23226005387E+03  0.24381675246E+03  0.00000000000E+00 0. -1.
         21    1    1    2  505  501 -0.78141999217E+02  0.78622434661E+02 -0.11680187852E+03  0.16102899770E+03  0.00000000000E+00 0. -1.
         -4    1    1    2    0  503  0.85038603526E+02 -0.48435463448E+02 -0.22380278969E+02  0.10039140947E+03  0.00000000000E+00 0. -1.
<scales pt_clust_3="41.42899" pt_clust_4="74.17463" pt_clust_5="101.01646" pt_clust_6="14000.00000"></scales>
<clustering>
<clus scale="   74.175">  2  4  1 -1</clus>
<clus scale="   41.429">  2  3  1 -1</clus>
<clus scale="  101.016">  2  5  1 -1</clus>
<clus scale="   74.175">  2  3  1 -1</clus>
</clustering>
</event>
<event>
 6    0  0.3082502E+002  0.8714604E+02  0.7546771E-02  0.1309914E+00
         21   -1    0    0  504  502  0.00000000000E+00  0.00000000000E+00  0.12796473712E+02  0.12796473712E+02  0.00000000000E+00 0. -1.
          2   -1    0    0  503    0 -0.00000000000E+00 -0.00000000000E+00 -0.24022869937E+04  0.24022869937E+04  0.00000000000E+00 0. -1.
         21    1    1    2  503  505 -0.12516185614E+01 -0.43260740846E+02 -0.63667393966E+03  0.63814321566E+03  0.00000000000E+00 0.  1.
         21    1    1    2  504  501  0.23418766338E+02  0.27732810667E+02 -0.85836296525E+02  0.93195585761E+02  0.00000000000E+00 0. -1.
         21    1    1    2  505  502  0.26434889156E+02 -0.86450263471E+02 -0.33502893308E+03  0.34701129293E+03  0.00000000000E+00 0. -1.
          2    1    1    2  501    0 -0.48602036933E+02  0.10197819365E+03 -0.13319513507E+04  0.13367333730E+04  0.00000000000E+00 0. -1.
<scales pt_clust_3="41.03094" pt_clust_4="36.29804" pt_clust_5="87.14604" pt_clust_6="14000.00000"></scales>
<clustering>
<clus scale="   36.298">  1  4  2 -1</clus>
<clus scale="   41.031">  2  3  1 -1</clus>
<clus scale="   87.146">  1  5  2 -1</clus>
<clus scale="   36.298">  1  3  2 -1</clus>
</clustering>
</event>
<event>
 6    0  0.3082502E+002  0.1318251E+03  0.7546771E-02  0.1224772E+00
         21   -1    0    0  504  502  0.00000000000E+00  0.00000000000E+00  0.97922867323E+02  0.97922867323E+02  0.00000000000E+00 0.  1.
          2   -1    0    0  503    0 -0.00000000000E+00 -0.00000000000E+00 -0.40208552301E+03  0.40208552301E+03  0.00000000000E+00 0.  1.
         21    1    1    2  503  505  0.36415114968E+02 -0.92421876913E+01 -0.22206046393E+03  0.22521618120E+03  0.00000000000E+00 0.  1.
         21    1    1    2  504  501 -0.40969966477E+02  0.83571967675E+01  0.68500935065E+01  0.42371035767E+02  0.00000000000E+00 0.  1.
         21    1    1    2  505  502  0.10596228323E+03  0.24573335610E+01 -0.15322779104E+02  0.10709263054E+03  0.00000000000E+00 0.  1.
          2    1    1    2  501    0 -0.10140743172E+03 -0.15723426372E+01 -0.73629506153E+02  0.12532854283E+03  0.00000000000E+00 0.  1.
<scales pt_clust_3="37.56965" pt_clust_4="37.14330" pt_clust_5="118.45488" pt_clust_6="37.14330"></scales>
<clustering>
<clus scale="   37.143">  4  6 -1 -1</clus>
<clus scale="   37.570">  2  3  1 -1</clus>
<clus scale="  118.455">  1  5  2 -1</clus>
<clus scale="  118.455">  1  3  2 -1</clus>
</clustering>
</event>
<event>
 6    0  0.3082502E+002  0.1845599E+03  0.7546771E-02  0.1163462E+00
         -1   -1    0    0    0  501 -0.00000000000E+00  0.00000000000E+00  0.18275911707E+04  0.18275911707E+04  0.00000000000E+00 0. -1.
         21   -1    0    0  503  502  0.00000000000E+00 -0.00000000000E+00 -0.57844544582E+03  0.57844544582E+03  0.00000000000E+00 0. -1.
         21    1    1    2  503  504  0.14578771647E+03 -0.51102494539E+02 -0.54099945019E+03  0.56262414482E+03  0.00000000000E+00 0. -1.
         21    1    1    2  504  501 -0.13081353114E+02  0.58378191506E+02  0.34149348125E+03  0.34669429297E+03  0.00000000000E+00 0.  1.
         21    1    1    2  505  502  0.26710187669E+02 -0.17381061607E+02 -0.67519535420E+01  0.32574902986E+02  0.00000000000E+00 0. -1.
         -1    1    1    2    0  505 -0.15941655102E+03  0.10105364640E+02  0.14554036473E+04  0.14641432757E+04  0.00000000000E+00 0. -1.
<scales pt_clust_3="14000.00000" pt_clust_4="59.71985" pt_clust_5="31.86747" pt_clust_6="184.55987"></scales>
<clustering>
<clus scale="   31.867">  2  5  1 -1</clus>
<clus scale="   59.720">  1  4  2 -1</clus>
<clus scale="  184.560">  1  6  2 -1</clus>
<clus scale="   31.867">  2  3  1 -1</clus>
</clustering>
</event>
<event>
 6    0  0.3082502E+002  0.1111814E+03  0.7546771E-02  0.1258398E+00
          2   -1    0    0  504    0 -0.00000000000E+00  0.00000000000E+00  0.13423671018E+04  0.13423671018E+04  0.00000000000E+00 0.  1.
         21   -1    0    0  505  502  0.00000000000E+00 -0.00000000000E+00 -0.54223639330E+03  0.54223639330E+03  0.00000000000E+00 0. -1.
         21    1    1    2  503  502  0.40700318649E+02  0.29023065341E+02 -0.58967862299E+02  0.77305000123E+02  0.00000000000E+00 0.  1.
         21    1    1    2  504  503 -0.41656297175E+02  0.17184378698E+02  0.32718810244E+03  0.33027655737E+03  0.00000000000E+00 0.  1.
         21    1    1    2  505  501  0.41962577350E+02  0.46438601255E+02 -0.46791188263E+03  0.47207936991E+03  0.00000000000E+00 0. -1.
          2    1    1    2  501    0 -0.41006598824E+02 -0.92646045293E+02  0.99982235098E+03  0.10049425677E+04  0.00000000000E+00 0.  1.
<scales pt_clust_3="49.77320" pt_clust_4="45.06162" pt_clust_5="14000.00000" pt_clust_6="111.18135"></scales>
<clustering>
<clus scale="   45.062">  1  4  2 -1</clus>
<clus scale="   49.773">  2  3  1 -1</clus>
<clus scale="  111.181">  1  6  2 -1</clus>
<clus scale="   49.773">  2  3  1 -1</clus>
</clustering>
</event>
<event>
 6    0  0.3082502E+002  0.8444013E+02  0.7546771E-02  0.1316903E+00
         21   -1    0    0  504  502  0.00000000000E+00  0.00000000000E+00  0.11003027813E+04  0.11003027813E+04  0.00000000000E+00 0.  1.
          2   -1    0    0  503    0 -0.00000000000E+00 -0.00000000000E+00 -0.36482298544E+03  0.36482298544E+03  0.00000000000E+00 0. -1.
         21    1    1    2  503  505  0.11314122886E+02 -0.69866461294E+02  0.17945744558E+01  0.70799380562E+02  0.00000000000E+00 0. -1.
         21    1    1    2  504  501  0.47021299760E+02  0.24881454756E+01  0.38208678279E+03  0.38497727606E+03  0.00000000000E+00 0.  1.
         21    1    1    2  505  502  0.30600810672E+02 -0.41150869556E+02  0.66447438010E+03  0.66645030234E+03  0.00000000000E+00 0.  1.
          2    1    1    2  501    0 -0.88936233318E+02  0.10852918537E+03 -0.31287594144E+03  0.34289880783E+03  0.00000000000E+00 0. -1.
<scales pt_clust_3="71.07244" pt_clust_4="47.08708" pt_clust_5="14000.00000" pt_clust_6="84.44013"></scales>
<clustering>
<clus scale="   47.087">  1  4  2 -1</clus>
<clus scale="   71.072">  2  3  1 -1</clus>
<clus scale="   84.440">  2  6  1 -1</clus>
<clus scale="   47.087">  1  3  2 -1</clus>
</clustering>
</event>
<event>
 6    0  0.3082502E+002  0.9540081E+02  0.7546771E-02  0.1290276E+00
          1   -1    0    0  503    0 -0.00000000000E+00  0.00000000000E+00  0.14589286103E+04  0.14589286103E+04  0.00000000000E+00 0.  1.
         21   -1    0    0  504  502  0.00000000000E+00 -0.00000000000E+00 -0.40442283470E+03  0.40442283470E+03  0.00000000000E+00 0. -1.
         21    1    1    2  503  502 -0.42774435698E+02  0.53355270104E+01  0.33546896739E+03  0.33822706616E+03  0.00000000000E+00 0. -1.
         21    1    1    2  504  505  0.71679663844E+01 -0.98533645379E+02 -0.36206318180E+03  0.37529988893E+03  0.00000000000E+00 0. -1.
         21    1    1    2  505  501 -0.57322061846E+02  0.61574712666E+02  0.23045056133E+02  0.87225791061E+02  0.00000000000E+00 0.  1.
          1    1    1    2  501    0  0.92928531159E+02  0.31623405703E+02  0.10580549339E+04  0.10625986989E+04  0.00000000000E+00 0.  1.
<scales pt_clust_3="43.10592" pt_clust_4="14000.00000" pt_clust_5="95.40081" pt_clust_6="64.04259"></scales>
<clustering>
<clus scale="   43.106">  1  3  2 -1</clus>
<clus scale="   64.043">  1  6  2 -1</clus>
<clus scale="   95.401">  1  5  2 -1</clus>
<clus scale="   95.401">  2  3  1 -1</clus>
</clustering>
</event>
<event>
 6    0  0.3082502E+002  0.1216548E+03  0.7546771E-02  0.1240392E+00
          2   -1    0    0  503    0 -0.00000000000E+00  0.00000000000E+00  0.63178006912E+03  0.63178006912E+03  0.00000000000E+00 0. -1.
         21   -1    0    0  501  502  0.00000000000E+00 -0.00000000000E+00 -0.47183985952E+03  0.47183985952E+03  0.00000000000E+00 0.  1.
         21    1    1    2  503  504 -0.20852546776E+02 -0.27366149670E+02  0.40432764865E+02  0.53089955071E+02  0.00000000000E+00 0. -1.
         21    1    1    2  504  505  0.60124176650E+02  0.82733200856E+01  0.59543320224E+02  0.85022181967E+02  0.00000000000E+00 0. -1.
         21    1    1    2  505  502 -0.53297691844E+02 -0.10935677231E+03 -0.43617307573E+03  0.45282060421E+03  0.00000000000E+00 0.  1.
          2    1    1    2  501    0  0.14026061970E+02  0.12844960189E+03  0.49613720024E+03  0.51268718738E+03  0.00000000000E+00 0. -1.
<scales pt_clust_3="34.40545" pt_clust_4="57.75527" pt_clust_5="14000.00000" pt_clust_6="121.65477"></scales>
<clustering>
<clus scale="   34.405">  1  3  2 -1</clus>
<clus scale="   57.755">  1  4  2 -1</clus>
<clus scale="  121.655">  1  6  2 -1</clus>
<clus scale="  121.655">  2  3  1 -1</clus>
</clustering>
</event>
<event>
 6    0  0.3082502E+002  0.1057455E+03  0.7546771E-02  0.1268658E+00
          1   -1    0    0  505    0 -0.00000000000E+00  0.00000000000E+00  0.38761193575E+03  0.38761193575E+03  0.00000000000E+00 0. -1.
         21   -1    0    0  503  502  0.00000000000E+00 -0.00000000000E+00 -0.18896256100E+03  0.18896256100E+03  0.00000000000E+00 0.  1.
         21    1    1    2  503  501 -0.49422952405E+02 -0.93570670725E+02 -0.13523362466E+03  0.17171555516E+03  0.00000000000E+00 0.  1.
         21    1    1    2  504  502 -0.47635447537E+02 -0.10629667492E+02  0.13367870510E+03  0.14230995008E+03  0.00000000000E+00 0. -1.
         21    1    1    2  505  504 -0.30679521287E+01  0.39960847527E+02  0.15754263418E+02  0.43063656153E+02  0.00000000000E+00 0.  1.
          1    1    1    2  501    0  0.10012635207E+03  0.64239490690E+02  0.18445003089E+03  0.21948533536E+03  0.00000000000E+00 0. -1.
<scales pt_clust_3="14000.00000" pt_clust_4="49.04934" pt_clust_5="40.07844" pt_clust_6="105.74549"></scales>
<clustering>
<clus scale="   40.078">  1  5  2 -1</clus>
<clus scale="   49.049">  1  4  2 -1</clus>
<clus scale="  105.745">  1  6  2 -1</clus>
<clus scale="  105.745">  2  3  1 -1</clus>
</clustering>
</event>
<event>
 6    0  0.3403961E+002  0.1237251E+03  0.7546771E-02  0.1237075E+00
          1   -1    0    0  503    0 -0.00000000000E+00  0.00000000000E+00  0.21086318044E+04  0.21086318044E+04  0.00000000000E+00 0. -1.
         21   -1    0    0  504  502  0.00000000000E+00 -0.00000000000E+00 -0.11316434435E+03  0.11316434435E+03  0.00000000000E+00 0. -1.
         21    1    1    2  503  502 -0.50374059888E+02  0.67826166876E+01  0.22570396920E+03  0.23135650307E+03  0.00000000000E+00 0.  1.
         21    1    1    2  504  505  0.39481515227E+02  0.15279892631E+02  0.38803371097E+02  0.57427926760E+02  0.00000000000E+00 0. -1.
         21    1    1    2  505  501  0.86229878538E+02  0.57243335098E+01 -0.81491474643E+02  0.11878223935E+03  0.00000000000E+00 0. -1.
          1    1    1    2  501    0 -0.75337333877E+02 -0.27786842829E+02  0.18124515944E+04  0.18142294796E+04  0.00000000000E+00 0. -1.
<scales pt_clust_3="49.82236" pt_clust_4="42.33515" pt_clust_5="123.72509" pt_clust_6="14000.00000"></scales>
<clustering>
<clus scale="   42.335">  2  4  1 -1</clus>
<clus scale="   49.822">  1  3  2 -1</clus>
<clus scale="  123.725">  2  5  1 -1</clus>
<clus scale="   42.335">  2  3  1 -1</clus>
</clustering>
</event>
<event>
 6    0  0.3082502E+002  0.1062104E+03  0.7546771E-02  0.1267753E+00
          1   -1    0    0  503    0 -0.00000000000E+00  0.00000000000E+00  0.28930496856E+03  0.28930496856E+03  0.00000000000E+00 0. -1.
         21   -1    0    0  501  502  0.00000000000E+00 -0.00000000000E+00 -0.11780059648E+03  0.11780059648E+03  0.00000000000E+00 0. -1.
         21    1    1    2  503  505  0.24993574094E+02  0.23544913314E+02  0.60442074640E+02  0.69514646484E+02  0.00000000000E+00 0.  1.
         21    1    1    2  504  502  0.15330348511E+02 -0.10908226462E+03 -0.30306666282E+02  0.11424733722E+03  0.00000000000E+00 0. -1.
         21    1    1    2  505  504  0.12040406262E+02  0.10064219090E+03  0.41409186645E+02  0.10949220388E+03  0.00000000000E+00 0. -1.
          1    1    1    2  501    0 -0.52364328868E+02 -0.15104839592E+02  0.99959777083E+02  0.11385137747E+03  0.00000000000E+00 0. -1.
<scales pt_clust_3="34.33718" pt_clust_4="14000.00000" pt_clust_5="106.21044" pt_clust_6="40.63939"></scales>
<clustering>
<clus scale="   34.337">  1  3  2 -1</clus>
<clus scale="   40.639">  1  6  2 -1</clus>
<clus scale="  106.210">  1  5  2 -1</clus>
<clus scale="  106.210">  2  3  1 -1</clus>
</clustering>
</event>
<event>
 6    0  0.3082502E+002  0.1238457E+03  0.7546771E-02  0.1236884E+00
         21   -1    0    0  505  502  0.00000000000E+00  0.00000000000E+00  0.76246583041E+02  0.76246583041E+02  0.00000000000E+00 0. -1.
          2   -1    0    0  503    0 -0.00000000000E+00 -0.00000000000E+00 -0.15587320486E+04  0.15587320486E+04  0.00000000000E+00 0. -1.
         21    1    1    2  503  504 -0.18455650536E+02  0.31390411669E+02 -0.20780943923E+03  0.21097566688E+03  0.00000000000E+00 0. -1.
         21    1    1    2  504  502 -0.61851999632E+02 -0.19735461480E+02  0.42013104989E+02  0.77332136199E+02  0.00000000000E+00 0. -1.
         21    1    1    2  505  501 -0.59302412085E+02 -0.21782622238E+02 -0.79297735755E+02  0.10138732468E+03  0.00000000000E+00 0. -1.
          2    1    1    2  501    0  0.13961006225E+03  0.10127672049E+02 -0.12373913955E+04  0.12452835038E+04  0.00000000000E+00 0. -1.
<scales pt_clust_3="36.41386" pt_clust_4="14000.00000" pt_clust_5="63.65688" pt_clust_6="123.84571"></scales>
<clustering>
<clus scale="   36.414">  2  3  1 -1</clus>
<clus scale="   63.657">  1  5  2 -1</clus>
<clus scale="  123.846">  2  6  1 -1</clus>
<clus scale="   63.657">  1  3  2 -1</clus>
</clustering>
</event>
<event>
 6    0  0.3082502E+002  0.2132943E+03  0.7546771E-02  0.1138983E+00
         21   -1    0    0  505  502  0.00000000000E+00  0.00000000000E+00  0.17222323799E+03  0.17222323799E+03  0.00000000000E+00 0.  1.
          2   -1    0    0  503    0 -0.00000000000E+00 -0.00000000000E+00 -0.19075509979E+04  0.19075509979E+04  0.00000000000E+00 0. -1.
         21    1    1    2  503  502 -0.33597207899E+01 -0.43797798522E+02 -0.86531607195E+02  0.97042536668E+02  0.00000000000E+00 0.  1.
         21    1    1    2  504  501  0.48059084915E+02  0.23387782213E+03  0.34955897081E+02  0.24130981345E+03  0.00000000000E+00 0.  1.
         21    1    1    2  505  504 -0.28552870144E+02 -0.20555090342E+02  0.11976018795E+02  0.37164541684E+02  0.00000000000E+00 0. -1.
          2    1    1    2  501    0 -0.16146493982E+02 -0.16952493327E+03 -0.16957280686E+04  0.17042573441E+04  0.00000000000E+00 0. -1.
<scales pt_clust_3="44.74393" pt_clust_4="213.29434" pt_clust_5="35.18207" pt_clust_6="14000.00000"></scales>
<clustering>
<clus scale="   35.182">  1  5  2 -1</clus>
<clus scale="   44.744">  2  3  1 -1</clus>
<clus scale="  213.294">  1  4  2 -1</clus>
<clus scale="   35.182">  1  3  2 -1</clus>
</clustering>
</event>
<event>
 6    0  0.3082502E+002  0.7405379E+02  0.7546771E-02  0.1346826E+00
          1   -1    0    0  503    0 -0.00000000000E+00  0.00000000000E+00  0.40676933153E+03  0.40676933153E+03  0.00000000000E+00 0.  1.
         21   -1    0    0  505  502  0.00000000000E+00 -0.00000000000E+00 -0.12555894314E+03  0.12555894314E+03  0.00000000000E+00 0. -1.
         21    1    1    2  503  504 -0.20746525181E+02 -0.40424097254E+02  0.19878249190E+03  0.20390930590E+03  0.00000000000E+00 0.  1.
         21    1    1    2  504  502 -0.93478884204E+01 -0.91146166202E+02  0.46298612870E+02  0.10265752863E+03  0.00000000000E+00 0.  1.
         21    1    1    2  505  501 -0.27081186959E+02  0.59079807434E+02 -0.62848044893E+02  0.90408467968E+02  0.00000000000E+00 0. -1.
          1    1    1    2  501    0  0.57175600560E+02  0.72490456022E+02  0.98977328514E+02  0.13535297216E+03  0.00000000000E+00 0.  1.
<scales pt_clust_3="45.43705" pt_clust_4="14000.00000" pt_clust_5="63.15114" pt_clust_6="74.05379"></scales>
<clustering>
<clus scale="   45.437">  1  3  2 -1</clus>
<clus scale="   63.151">  2  5  1 -1</clus>
<clus scale="   74.054">  1  6  2 -1</clus>
<clus scale="   63.151">  2  3  1 -1</clus>
</clustering>
</event>
<event>
 6    0  0.3082502E+002  0.7354717E+02  0.7546771E-02  0.1348430E+00
          2   -1    0    0  505    0 -0.00000000000E+00  0.00000000000E+00  0.52345295316E+03  0.52345295316E+03  0.00000000000E+00 0. -1.
         21   -1    0    0  503  502  0.00000000000E+00 -0.00000000000E+00 -0.92459236690E+02  0.92459236690E+02  0.00000000000E+00 0.  1.
         21    1    1    2  503  501 -0.12791508860E-01  0.44599310847E+02  0.24815281684E+02  0.51038190571E+02  0.00000000000E+00 0.  1.
         21    1    1    2  504  502  0.11254397623E+02 -0.80900741869E+02 -0.41706560254E+02  0.91711660486E+02  0.00000000000E+00 0.  1.
         21    1    1    2  505  504 -0.10805215714E+01 -0.57027665232E+02  0.13663915985E+03  0.14806614108E+03  0.00000000000E+00 0.  1.
          2    1    1    2  501    0 -0.10161084543E+02  0.93329096254E+02  0.31124583519E+03  0.32509619772E+03  0.00000000000E+00 0. -1.
<scales pt_clust_3="44.59931" pt_clust_4="44.83792" pt_clust_5="14000.00000" pt_clust_6="73.54717"></scales>
<clustering>
<clus scale="   44.599">  2  3  1 -1</clus>
<clus scale="   44.838">  2  4  1 -1</clus>
<clus scale="   73.547">  2  6  1 -1</clus>
<clus scale="   44.599">  2  3  1 -1</clus>
</clustering>
</event>
<event>
 6    0  0.3082502E+002  0.3081313E+03  0.7546771E-02  0.1081245E+00
          2   -1    0    0  505    0 -0.00000000000E+00  0.00000000000E+00  0.30096557736E+04  0.30096557736E+04  0.00000000000E+00 0.  1.
         21   -1    0    0  504  502  0.00000000000E+00 -0.00000000000E+00 -0.11110535077E+03  0.11110535077E+03  0.00000000000E+00 0. -1.
         21    1    1    2  503  502 -0.31423219616E+03 -0.55318747781E+02  0.44086606480E+03  0.54421036746E+03  0.00000000000E+00 0. -1.
         21    1    1    2  504  501 -0.57208185229E+01  0.45921730798E+02 -0.34513945515E+02  0.57729936420E+02  0.00000000000E+00 0. -1.
         21    1    1    2  505  503  0.43723022655E+02  0.46051347903E+01  0.10185992362E+04  0.10195476026E+04  0.00000000000E+00 0.  1.
          2    1    1    2  501    0  0.27622999203E+03  0.47918821922E+01  0.14735990673E+04  0.14992732179E+04  0.00000000000E+00 0.  1.
<scales pt_clust_3="14000.00000" pt_clust_4="46.27254" pt_clust_5="43.96487" pt_clust_6="308.13131"></scales>
<clustering>
<clus scale="   43.965">  1  5  2 -1</clus>
<clus scale="   46.273">  2  4  1 -1</clus>
<clus scale="  308.131">  1  6  2 -1</clus>
<clus scale="   46.273">  2  3  1 -1</clus>
</clustering>
</event>
<event>
 6    0  0.3082502E+002  0.2261287E+03  0.7546771E-02  0.1129395E+00
          2   -1    0    0  504    0 -0.00000000000E+00  0.00000000000E+00  0.17801549143E+04  0.17801549143E+04  0.00000000000E+00 0. -1.
         21   -1    0    0  505  502  0.00000000000E+00 -0.00000000000E+00 -0.53795586264E+02  0.53795586264E+02  0.00000000000E+00 0.  1.
         21    1    1    2  503  501 -0.10319739353E+03  0.27316370630E+02  0.56740545368E+03  0.57736022984E+03  0.00000000000E+00 0. -1.
         21    1    1    2  504  502  0.23359966340E+03 -0.41311712384E+02  0.31452240859E+03  0.39395406563E+03  0.00000000000E+00 0.  1.
         21    1    1    2  505  503 -0.17767921985E+02  0.32428517066E+02  0.64087996532E+02  0.73990398500E+02  0.00000000000E+00 0. -1.
          2    1    1    2  501    0 -0.11263434789E+03 -0.18433175312E+02  0.78034346922E+03  0.78864580658E+03  0.00000000000E+00 0. -1.
<scales pt_clust_3="52.31715" pt_clust_4="219.66131" pt_clust_5="36.97712" pt_clust_6="52.31715"></scales>
<clustering>
<clus scale="   36.977">  2  5  1 -1</clus>
<clus scale="   52.317">  3  6 -1 -1</clus>
<clus scale="  219.661">  2  4  1 -1</clus>
<clus scale="   36.977">  2  3  1 -1</clus>
</clustering>
</event>
<event>
 6    0  0.3082502E+002  0.1124412E+03  0.7546771E-02  0.1256115E+00
         21   -1    0    0  504  502  0.00000000000E+00  0.00000000000E+00  0.32630686759E+03  0.32630686759E+03  0.00000000000E+00 0. -1.
          2   -1    0    0  503    0 -0.00000000000E+00 -0.00000000000E+00 -0.83292017449E+03  0.83292017449E+03  0.00000000000E+00 0. -1.
         21    1    1    2  503  505  0.60132101199E+02 -0.67308223329E+02 -0.31144141828E+03  0.32425610795E+03  0.00000000000E+00 0. -1.
         21    1    1    2  504  501  0.20511907987E+02  0.24637341925E+02  0.55624006662E+02  0.64200989895E+02  0.00000000000E+00 0. -1.
         21    1    1    2  505  502  0.49212533373E+02 -0.45683549211E+02  0.24325549643E+03  0.25235311897E+03  0.00000000000E+00 0. -1.
          2    1    1    2  501    0 -0.12985654256E+03  0.88354430615E+02 -0.49405139172E+03  0.51841682526E+03  0.00000000000E+00 0. -1.
<scales pt_clust_3="14000.00000" pt_clust_4="32.05834" pt_clust_5="71.98755" pt_clust_6="112.44125"></scales>
<clustering>
<clus scale="   32.058">  1  4  2 -1</clus>
<clus scale="   71.988">  1  5  2 -1</clus>
<clus scale="  112.441">  1  6  2 -1</clus>
<clus scale="   32.058">  1  3  2 -1</clus>
</clustering>
</event>
<event>
 6    0  0.3082502E+002  0.1059709E+03  0.7546771E-02  0.1268218E+00
         -1   -1    0    0    0  501 -0.00000000000E+00  0.00000000000E+00  0.12750523947E+03  0.12750523947E+03  0.00000000000E+00 0. -1.
         21   -1    0    0  505  502  0.00000000000E+00 -0.00000000000E+00 -0.90251457034E+03  0.90251457034E+03  0.00000000000E+00 0. -1.
         21    1    1    2  503  502  0.68232522261E+02  0.98818475349E+02 -0.38642647787E+03  0.40465564492E+03  0.00000000000E+00 0. -1.
         21    1    1    2  504  501 -0.57860568389E+02  0.13794553910E+01  0.31908827320E+02  0.66090252930E+02  0.00000000000E+00 0. -1.
         21    1    1    2  505  504  0.14889535336E+02 -0.26996294987E+02 -0.46761154241E+03  0.46862677346E+03  0.00000000000E+00 0. -1.
         -1    1    1    2    0  503 -0.25261489208E+02 -0.73201635753E+02  0.47119862104E+02  0.90647138502E+02  0.00000000000E+00 0. -1.
<scales pt_clust_3="14000.00000" pt_clust_4="57.27564" pt_clust_5="30.83015" pt_clust_6="105.97087"></scales>
<clustering>
<clus scale="   30.830">  2  5  1 -1</clus>
<clus scale="   57.276">  1  4  2 -1</clus>
<clus scale="  105.971">  1  6  2 -1</clus>
<clus scale="   30.830">  2  3  1 -1</clus>
</clustering>
</event>
<event>
 6    0  0.3082502E+002  0.9276975E+02  0.7546771E-02  0.1296280E+00
          1   -1    0    0  505    0 -0.00000000000E+00  0.00000000000E+00  0.24925629183E+03  0.24925629183E+03  0.00000000000E+00 0. -1.
         21   -1    0    0  503  502  0.00000000000E+00 -0.00000000000E+00 -0.16632818686E+03  0.16632818686E+03  0.00000000000E+00 0. -1.
         21    1    1    2  503  501  0.96373567916E+02  0.14845646020E+02 -0.60056615865E+02  0.11452098021E+03  0.00000000000E+00 0. -1.
         21    1    1    2  504  502 -0.85540317525E+02 -0.18796109583E+02 -0.32779063525E+02  0.93514205677E+02  0.00000000000E+00 0. -1.
         21    1    1    2  505  504 -0.55379272830E+02  0.23339844118E+02  0.78860119792E+02  0.99149032654E+02  0.00000000000E+00 0. -1.
          1    1    1    2  501    0  0.44546022440E+02 -0.19389380555E+02  0.96903664566E+02  0.10840026015E+03  0.00000000000E+00 0. -1.
<scales pt_clust_3="14000.00000" pt_clust_4="92.76975" pt_clust_5="30.60561" pt_clust_6="48.58288"></scales>
<clustering>
<clus scale="   48.583">  1  6  2 -1</clus>
<clus scale="   30.606">  1  5  2 -1</clus>
<clus scale="   92.770">  1  4  2 -1</clus>
<clus scale="   92.770">  2  3  1 -1</clus>
</clustering>
</event>
<event>
 6    0  0.3082502E+002  0.1277440E+03  0.7546771E-02  0.1230842E+00
         21   -1    0    0  505  502  0.00000000000E+00  0.00000000000E+00  0.56712152925E+03  0.56712152925E+03  0.00000000000E+00 0. -1.
          2   -1    0    0  504    0 -0.00000000000E+00 -0.00000000000E+00 -0.71338495000E+03  0.71338495000E+03  0.00000000000E+00 0. -1.
         21    1    1    2  503  502 -0.14111412871E+03 -0.99997694540E+02  0.68642278016E+02  0.18607659328E+03  0.00000000000E+00 0. -1.
         21    1    1    2  504  503 -0.29760304141E+02  0.14996344165E+02 -0.64686265092E+02  0.72765918756E+02  0.00000000000E+00 0. -1.
         21    1    1    2  505  501  0.45360480156E+02  0.23506642248E+02  0.42583859122E+03  0.42889234215E+03  0.00000000000E+00 0. -1.
          2    1    1    2  501    0  0.12551395269E+03  0.61494708127E+02 -0.57605802489E+03  0.59277162507E+03  0.00000000000E+00 0. -1.
<scales pt_clust_3="14000.00000" pt_clust_4="33.32516" pt_clust_5="51.04328" pt_clust_6="127.74405"></scales>
<clustering>
<clus scale="   33.325">  2  4  1 -1</clus>
<clus scale="   51.043">  1  5  2 -1</clus>
<clus scale="  127.744">  2  6  1 -1</clus>
<clus scale="   51.043">  1  3  2 -1</clus>
</clustering>
</event>
<event>
 6    0  0.3082502E+002  0.1796454E+03  0.7546771E-02  0.1168147E+00
         21   -1    0    0  503  502  0.00000000000E+00  0.00000000000E+00  0.25952133699E+03  0.25952133699E+03  0.00000000000E+00 0.  1.
          2   -1    0    0  505    0 -0.00000000000E+00 -0.00000000000E+00 -0.40086924168E+03  0.40086924168E+03  0.00000000000E+00 0. -1.
         21    1    1    2  503  504  0.16260976551E+03  0.72793086068E+02  0.19354219970E+03  0.26305769763E+03  0.00000000000E+00 0.  1.
         21    1    1    2  504  501 -0.81722342542E+02 -0.43616676337E+02 -0.14111243954E+03  0.16880069999E+03  0.00000000000E+00 0. -1.
         21    1    1    2  505  502 -0.37153777615E+02  0.29821736408E+02 -0.72535186401E+02  0.86781866883E+02  0.00000000000E+00 0. -1.
          2    1    1    2  501    0 -0.43733645349E+02 -0.58998146139E+02 -0.12124247846E+03  0.14175031416E+03  0.00000000000E+00 0. -1.
<scales pt_clust_3="175.86827" pt_clust_4="32.62807" pt_clust_5="47.64178" pt_clust_6="32.62807"></scales>
<clustering>
<clus scale="   32.628">  4  6 -1 -1</clus>
<clus scale="   47.642">  2  5  1 -1</clus>
<clus scale="  175.868">  1  3  2 -1</clus>
<clus scale="  175.868">  1  3  2 -1</clus>
</clustering>
</event>
<event>
 6    0  0.3082502E+002  0.7618661E+02  0.7546771E-02  0.1340235E+00
         21   -1    0    0  504  502  0.00000000000E+00  0.00000000000E+00  0.16424786037E+04  0.16424786037E+04  0.00000000000E+00 0.  1.
          1   -1    0    0  503    0 -0.00000000000E+00 -0.00000000000E+00 -0.11665020356E+03  0.11665020356E+03  0.00000000000E+00 0.  1.
         21    1    1    2  503  505  0.34515881103E+02  0.65565788069E+02 -0.17409539703E+02  0.76113800892E+02  0.00000000000E+00 0.  1.
         21    1    1    2  504  501  0.12731996229E+02 -0.27385122270E+02  0.13045763794E+03  0.13390759481E+03  0.00000000000E+00 0. -1.
         21    1    1    2  505  502 -0.74432898627E+02  0.49014603700E+02  0.14483510841E+04  0.14510904695E+04  0.00000000000E+00 0.  1.
          1    1    1    2  501    0  0.27185021295E+02 -0.87195269499E+02 -0.35570782143E+02  0.98016942148E+02  0.00000000000E+00 0.  1.
<scales pt_clust_3="76.18661" pt_clust_4="30.20014" pt_clust_5="66.23317" pt_clust_6="14000.00000"></scales>
<clustering>
<clus scale="   30.200">  1  4  2 -1</clus>
<clus scale="   66.233">  1  5  2 -1</clus>
<clus scale="   76.187">  2  3  1 -1</clus>
<clus scale="   30.200">  1  3  2 -1</clus>
</clustering>
</event>
<event>
 6    0  0.3082502E+002  0.1117100E+03  0.7546771E-02  0.1257436E+00
         21   -1    0    0  505  502  0.00000000000E+00  0.00000000000E+00  0.32377301154E+03  0.32377301154E+03  0.00000000000E+00 0. -1.
          1   -1    0    0  504    0 -0.00000000000E+00 -0.00000000000E+00 -0.66406314125E+03  0.66406314125E+03  0.00000000000E+00 0. -1.
         21    1    1    2  503  502  0.91796789723E+02 -0.86817082589E+01  0.82562677238E+02  0.12376840604E+03  0.00000000000E+00 0. -1.
         21    1    1    2  504  503 -0.51669919396E+02 -0.46166917672E+01 -0.25106042523E+03  0.25636386549E+03  0.00000000000E+00 0. -1.
         21    1    1    2  505  501 -0.81944255546E+01 -0.76573351593E+02  0.20502101639E+03  0.21900740614E+03  0.00000000000E+00 0. -1.
          1    1    1    2  501    0 -0.31932444772E+02  0.89871751619E+02 -0.37681339811E+03  0.38869647511E+03  0.00000000000E+00 0. -1.
<scales pt_clust_3="14000.00000" pt_clust_4="51.87576" pt_clust_5="77.18736" pt_clust_6="111.70996"></scales>
<clustering>
<clus scale="   51.876">  2  4  1 -1</clus>
<clus scale="   77.187">  1  5  2 -1</clus>
<clus scale="  111.710">  2  6  1 -1</clus>
<clus scale="   77.187">  1  3  2 -1</clus>
</clustering>
</event>
<event>
 6    0  0.3082502E+002  0.9309469E+02  0.7546771E-02  0.1295526E+00
          1   -1    0    0  505    0 -0.00000000000E+00  0.00000000000E+00  0.14851651176E+04  0.14851651176E+04  0.00000000000E+00 0. -1.
         21   -1    0    0  501  502  0.00000000000E+00 -0.00000000000E+00 -0.13395969592E+04  0.13395969592E+04  0.00000000000E+00 0. -1.
         21    1    1    2  503  504  0.14542145114E+03  0.29083415445E+02 -0.19760867576E+02  0.14961194937E+03  0.00000000000E+00 0. -1.
         21    1    1    2  504  502 -0.64888742757E+02 -0.11373078562E+02 -0.12384794516E+04  0.12402303205E+04  0.00000000000E+00 0. -1.
         21    1    1    2  505  503  0.32736756559E+02 -0.28775577051E+02  0.22723791773E+02  0.49153837868E+02  0.00000000000E+00 0. -1.
          1    1    1    2  501    0 -0.11326946494E+03  0.11065240167E+02  0.13810846859E+04  0.13857659690E+04  0.00000000000E+00 0. -1.
<scales pt_clust_3="93.09469" pt_clust_4="65.86141" pt_clust_5="43.58588" pt_clust_6="14000.00000"></scales>
<clustering>
<clus scale="   43.586">  1  5  2 -1</clus>
<clus scale="   65.861">  2  4  1 -1</clus>
<clus scale="   93.095">  2  3  1 -1</clus>
<clus scale="   65.861">  2  3  1 -1</clus>
</clustering>
</event>
<event>
 6    0  0.3082502E+002  0.8733262E+02  0.7546771E-02  0.1309443E+00
          4   -1    0    0  504    0 -0.00000000000E+00  0.00000000000E+00  0.16591844875E+03  0.16591844875E+03  0.00000000000E+00 0. -1.
         21   -1    0    0  501  502  0.00000000000E+00 -0.00000000000E+00 -0.16854992388E+03  0.16854992388E+03  0.00000000000E+00 0. -1.
         21    1    1    2  503  502  0.11914773532E+02 -0.79586197517E+02 -0.40163644274E+02  0.89939107094E+02  0.00000000000E+00 0. -1.
         21    1    1    2  504  505  0.28194308293E+02  0.30943351452E+02  0.45707981706E+02  0.61980881010E+02  0.00000000000E+00 0. -1.
         21    1    1    2  505  503 -0.10610944788E+03  0.44776454591E+02  0.43792904127E+01  0.11525330363E+03  0.00000000000E+00 0. -1.
          4    1    1    2  501    0  0.66000366051E+02  0.38663914740E+01 -0.12555102971E+02  0.67295080894E+02  0.00000000000E+00 0. -1.
<scales pt_clust_3="87.33262" pt_clust_4="41.86180" pt_clust_5="14000.00000" pt_clust_6="73.77553"></scales>
<clustering>
<clus scale="   41.862">  1  4  2 -1</clus>
<clus scale="   73.776">  2  6  1 -1</clus>
<clus scale="   87.333">  2  3  1 -1</clus>
<clus scale="   73.776">  2  3  1 -1</clus>
</clustering>
</event>
<event>
 6    0  0.3082502E+002  0.9193243E+02  0.7546771E-02  0.1298238E+00
         21   -1    0    0  505  502  0.00000000000E+00  0.00000000000E+00  0.25006957174E+03  0.25006957174E+03  0.00000000000E+00 0. -1.
          2   -1    0    0  503    0 -0.00000000000E+00 -0.00000000000E+00 -0.46676936503E+03  0.46676936503E+03  0.00000000000E+00 0. -1.
         21    1    1    2  503  504 -0.13747303271E+02 -0.31842605249E+02 -0.66082463213E+02  0.74631305767E+02  0.00000000000E+00 0. -1.
         21    1    1    2  504  502 -0.82782093423E+02  0.61415494102E+02  0.18752171252E+03  0.21398394934E+03  0.00000000000E+00 0. -1.
         21    1    1    2  505  501  0.77038180076E+02  0.34322573552E+01  0.10196263701E+02  0.77785765880E+02  0.00000000000E+00 0. -1.
          2    1    1    2  501    0  0.19491216618E+02 -0.33005146208E+02 -0.34833530630E+03  0.35043791578E+03  0.00000000000E+00 0. -1.
<scales pt_clust_3="34.68342" pt_clust_4="91.93243" pt_clust_5="14000.00000" pt_clust_6="61.51398"></scales>
<clustering>
<clus scale="   34.683">  2  3  1 -1</clus>
<clus scale="   61.514">  2  6  1 -1</clus>
<clus scale="   91.932">  1  4  2 -1</clus>
<clus scale="   91.932">  1  3  2 -1</clus>
</clustering>
</event>
<event>
 6    0  0.3082502E+002  0.1987497E+03  0.7546771E-02  0.1150798E+00
         21   -1    0    0  503  502  0.00000000000E+00  0.00000000000E+00  0.11144300183E+03  0.11144300183E+03  0.00000000000E+00 0.  1.
          1   -1    0    0  504    0 -0.00000000000E+00 -0.00000000000E+00 -0.15321491094E+04  0.15321491094E+04  0.00000000000E+00 0. -1.
         21    1    1    2  503  501 -0.16147752569E+03 -0.13659415384E+03 -0.26779024453E+02  0.21319022097E+03  0.00000000000E+00 0.  1.
         21    1    1    2  504  505  0.60027833409E+02  0.79499690496E+02 -0.25961606561E+03  0.27807201063E+03  0.00000000000E+00 0.  1.
         21    1    1    2  505  502  0.23498255018E+02 -0.23655707686E+02 -0.39115196212E+02  0.51398045388E+02  0.00000000000E+00 0. -1.
          1    1    1    2  501    0  0.77951437264E+02  0.80750171027E+02 -0.10951958213E+04  0.11009318343E+04  0.00000000000E+00 0. -1.
<scales pt_clust_3="14000.00000" pt_clust_4="99.24561" pt_clust_5="33.34307" pt_clust_6="198.74974"></scales>
<clustering>
<clus scale="   33.343">  1  5  2 -1</clus>
<clus scale="   99.246">  2  4  1 -1</clus>
<clus scale="  198.750">  2  6  1 -1</clus>
<clus scale="   33.343">  1  3  2 -1</clus>
</clustering>
</event>
<event>
 6    0  0.3082502E+002  0.1027192E+03  0.7546771E-02  0.1274680E+00
         -3   -1    0    0    0  501 -0.00000000000E+00  0.00000000000E+00  0.76029062286E+03  0.76029062286E+03  0.00000000000E+00 0.  1.
         21   -1    0    0  505  502  0.00000000000E+00 -0.00000000000E+00 -0.61881498159E+03  0.61881498159E+03  0.00000000000E+00 0.  1.
         21    1    1    2  503  501  0.30353231242E+02  0.78359703739E+01  0.38014711097E+02  0.49273109688E+02  0.00000000000E+00 0. -1.
         21    1    1    2  504  503 -0.67540035804E+02 -0.11034404559E+03 -0.13535841068E+03  0.18724145955E+03  0.00000000000E+00 0.  1.
         21    1    1    2  505  504 -0.35239701291E+01  0.10057736311E+03 -0.44566885626E+03  0.45689052712E+03  0.00000000000E+00 0.  1.
         -3    1    1    2    0  502  0.40710774690E+02  0.19307121072E+01  0.68448819710E+03  0.68570050809E+03  0.00000000000E+00 0.  1.
<scales pt_clust_3="31.34838" pt_clust_4="14000.00000" pt_clust_5="102.71918" pt_clust_6="70.36128"></scales>
<clustering>
<clus scale="   31.348">  1  3  2 -1</clus>
<clus scale="   70.361">  1  6  2 -1</clus>
<clus scale="  102.719">  2  5  1 -1</clus>
<clus scale="  102.719">  2  3  1 -1</clus>
</clustering>
</event>
<event>
 6    0  0.3082502E+002  0.1355866E+03  0.7546771E-02  0.1219394E+00
          2   -1    0    0  503    0 -0.00000000000E+00  0.00000000000E+00  0.22401899041E+04  0.22401899041E+04  0.00000000000E+00 0. -1.
         21   -1    0    0  501  502  0.00000000000E+00 -0.00000000000E+00 -0.96885253614E+03  0.96885253614E+03  0.00000000000E+00 0. -1.
         21    1    1    2  503  504  0.28653875147E+02  0.22763709289E+02  0.45182176984E+03  0.45330138178E+03  0.00000000000E+00 0.  1.
         21    1    1    2  504  505 -0.79548915304E+02  0.58947064367E+02  0.27809674871E+03  0.29519584680E+03  0.00000000000E+00 0.  1.
         21    1    1    2  505  502 -0.60054166715E+02  0.17301454482E+02 -0.95485602607E+03  0.95689909279E+03  0.00000000000E+00 0. -1.
          2    1    1    2  501    0  0.11094920687E+03 -0.99012228138E+02  0.14962748754E+04  0.15036461188E+04  0.00000000000E+00 0. -1.
<scales pt_clust_3="36.59551" pt_clust_4="135.58661" pt_clust_5="62.48462" pt_clust_6="14000.00000"></scales>
<clustering>
<clus scale="   36.596">  1  3  2 -1</clus>
<clus scale="   62.485">  2  5  1 -1</clus>
<clus scale="  135.587">  2  4  1 -1</clus>
<clus scale="   62.485">  2  3  1 -1</clus>
</clustering>
</event>
<event>
 6    0  0.3082502E+002  0.7220726E+02  0.7546771E-02  0.1352744E+00
         21   -1    0    0  503  502  0.00000000000E+00  0.00000000000E+00  0.15424124939E+03  0.15424124939E+03  0.00000000000E+00 0.  1.
          2   -1    0    0  505    0 -0.00000000000E+00 -0.00000000000E+00 -0.69485781084E+03  0.69485781084E+03  0.00000000000E+00 0. -1.
         21    1    1    2  503  501  0.15323511257E+02  0.87918625662E+02 -0.21455593712E+02  0.91786912123E+02  0.00000000000E+00 0. -1.
         21    1    1    2  504  502 -0.53226527472E+02 -0.25958535580E+02  0.10174107911E+03  0.11772066928E+03  0.00000000000E+00 0.  1.
         21    1    1    2  505  504 -0.39942488115E+02 -0.20526978600E+02 -0.81729235266E+02  0.93254635834E+02  0.00000000000E+00 0.  1.
          2    1    1    2  501    0  0.77845504329E+02 -0.41433111482E+02 -0.53917281158E+03  0.54633684300E+03  0.00000000000E+00 0. -1.
<scales pt_clust_3="14000.00000" pt_clust_4="59.80979" pt_clust_5="44.90834" pt_clust_6="72.20726"></scales>
<clustering>
<clus scale="   44.908">  2  5  1 -1</clus>
<clus scale="   59.810">  1  4  2 -1</clus>
<clus scale="   72.207">  2  6  1 -1</clus>
<clus scale="   59.810">  1  3  2 -1</clus>
</clustering>
</event>
<event>
 6    0  0.3082502E+002  0.7323650E+02  0.7546771E-02  0.1349421E+00
          4   -1    0    0  505    0 -0.00000000000E+00  0.00000000000E+00  0.48346986722E+03  0.48346986722E+03  0.00000000000E+00 0.  1.
         21   -1    0    0  504  502  0.00000000000E+00 -0.00000000000E+00 -0.43682335536E+03  0.43682335536E+03  0.00000000000E+00 0. -1.
         21    1    1    2  503  502 -0.46088841174E+02  0.37608123823E+02 -0.11859003990E+02  0.60656312399E+02  0.00000000000E+00 0.  1.
         21    1    1    2  504  501  0.75076935959E+02 -0.22273834172E+02 -0.38008973474E+03  0.38807328748E+03  0.00000000000E+00 0. -1.
         21    1    1    2  505  503 -0.15436425823E+02 -0.84518873902E+02  0.13600931997E+03  0.16087342356E+03  0.00000000000E+00 0.  1.
          4    1    1    2  501    0 -0.13551668962E+02  0.69184584250E+02  0.30258593062E+03  0.31069019914E+03  0.00000000000E+00 0.  1.
<scales pt_clust_3="59.48573" pt_clust_4="33.82217" pt_clust_5="73.23650" pt_clust_6="14000.00000"></scales>
<clustering>
<clus scale="   59.486">  2  3  1 -1</clus>
<clus scale="   33.822">  2  4  1 -1</clus>
<clus scale="   73.237">  2  5  1 -1</clus>
<clus scale="   59.486">  2  3  1 -1</clus>
</clustering>
</event>
<event>
 6    0  0.3082502E+002  0.7267632E+02  0.7546771E-02  0.1351222E+00
         21   -1    0    0  503  502  0.00000000000E+00  0.00000000000E+00  0.99164074340E+02  0.99164074340E+02  0.00000000000E+00 0.  1.
         -2   -1    0    0    0  501 -0.00000000000E+00 -0.00000000000E+00 -0.12968960372E+04  0.12968960372E+04  0.00000000000E+00 0.  1.
         21    1    1    2  503  501  0.90402711367E+01 -0.32935602824E+02 -0.39727012099E+03  0.39873553825E+03  0.00000000000E+00 0. -1.
         21    1    1    2  504  505  0.77622679759E+02 -0.48504569456E+02  0.43121732120E+01  0.91632791668E+02  0.00000000000E+00 0.  1.
         21    1    1    2  505  502 -0.23101520749E+02  0.64751978880E+02  0.25123676187E+02  0.73196298642E+02  0.00000000000E+00 0.  1.
         -2    1    1    2    0  504 -0.63561430147E+02  0.16688193400E+02 -0.82989769126E+03  0.83249548297E+03  0.00000000000E+00 0.  1.
<scales pt_clust_3="34.15378" pt_clust_4="14000.00000" pt_clust_5="72.67632" pt_clust_6="56.89279"></scales>
<clustering>
<clus scale="   34.154">  2  3  1 -1</clus>
<clus scale="   56.893">  2  6  1 -1</clus>
<clus scale="   72.676">  1  5  2 -1</clus>
<clus scale="   72.676">  1  3  2 -1</clus>
</clustering>
</event>
<event>
 6    0  0.3082502E+002  0.1332662E+03  0.7546771E-02  0.1222688E+00
         21   -1    0    0  501  502  0.00000000000E+00  0.00000000000E+00  0.62415274779E+03  0.62415274779E+03  0.00000000000E+00 0.  1.
          2   -1    0    0  503    0 -0.00000000000E+00 -0.00000000000E+00 -0.36281933309E+03  0.36281933309E+03  0.00000000000E+00 0.  1.
         21    1    1    2  503  504  0.34017453819E+02 -0.26577590965E+02 -0.28057069574E+03  0.28387227906E+03  0.00000000000E+00 0.  1.
         21    1    1    2  504  505  0.48309799228E+02  0.69604442123E+02  0.72890498990E+02  0.11176600515E+03  0.00000000000E+00 0. -1.
         21    1    1    2  505  502 -0.14794791062E+03 -0.53676805652E+01  0.49076620354E+03  0.51260985436E+03  0.00000000000E+00 0.  1.
          2    1    1    2  501    0  0.65620657575E+02 -0.37659170593E+02 -0.21752592090E+02  0.78723942310E+02  0.00000000000E+00 0.  1.
<scales pt_clust_3="43.16892" pt_clust_4="84.77842" pt_clust_5="133.26623" pt_clust_6="14000.00000"></scales>
<clustering>
<clus scale="   43.169">  2  3  1 -1</clus>
<clus scale="   84.778">  2  4  1 -1</clus>
<clus scale="  133.266">  1  5  2 -1</clus>
<clus scale="  133.266">  1  3  2 -1</clus>
</clustering>
</event>
<event>
 6    0  0.3082502E+002  0.1504343E+03  0.7546771E-02  0.1199940E+00
         21   -1    0    0  505  502  0.00000000000E+00  0.00000000000E+00  0.83060342272E+03  0.83060342272E+03  0.00000000000E+00 0.  1.
          2   -1    0    0  504    0 -0.00000000000E+00 -0.00000000000E+00 -0.28650792863E+03  0.28650792863E+03  0.00000000000E+00 0. -1.
         21    1    1    2  503  501  0.34607295771E+02 -0.45239064818E+02  0.39465997975E+03  0.39874896555E+03  0.00000000000E+00 0.  1.
         21    1    1    2  504  502 -0.33038303969E+02  0.82499256509E+02 -0.62085750900E+01  0.89085370619E+02  0.00000000000E+00 0.  1.
         21    1    1    2  505  503  0.85310754672E+02 -0.47870890864E+02  0.37792733127E+03  0.39038265173E+03  0.00000000000E+00 0.  1.
          2    1    1    2  501    0 -0.86879746474E+02  0.10610699173E+02 -0.22228324184E+03  0.23889436345E+03  0.00000000000E+00 0. -1.
<scales pt_clust_3="40.28863" pt_clust_4="140.86422" pt_clust_5="40.28863" pt_clust_6="87.52530"></scales>
<clustering>
<clus scale="   40.289">  3  5 -1 -1</clus>
<clus scale="   87.525">  2  6  1 -1</clus>
<clus scale="  140.864">  2  4  1 -1</clus>
<clus scale="  150.434">  1  3  2 -1</clus>
</clustering>
</event>
<event>
 6    0  0.3082502E+002  0.2005825E+03  0.7546771E-02  0.1149248E+00
         21   -1    0    0  505  502  0.00000000000E+00  0.00000000000E+00  0.44747954642E+03  0.44747954642E+03  0.00000000000E+00 0.  1.
          2   -1    0    0  504    0 -0.00000000000E+00 -0.00000000000E+00 -0.92352441074E+03  0.92352441074E+03  0.00000000000E+00 0. -1.
         21    1    1    2  503  502  0.50481107458E+02 -0.10481310415E+02  0.11107367192E+03  0.12245636232E+03  0.00000000000E+00 0.  1.
         21    1    1    2  504  503 -0.87930297872E+02 -0.11603794127E+02 -0.22832298752E+03  0.24494442625E+03  0.00000000000E+00 0.  1.
         21    1    1    2  505  501 -0.16807484002E+03  0.16486040284E+03  0.25119357351E+03  0.34427651045E+03  0.00000000000E+00 0.  1.
          2    1    1    2  501    0  0.20552403044E+03 -0.14277529830E+03 -0.60998912224E+03  0.65932665814E+03  0.00000000000E+00 0. -1.
<scales pt_clust_3="51.55774" pt_clust_4="87.47048" pt_clust_5="14000.00000" pt_clust_6="200.58251"></scales>
<clustering>
<clus scale="   51.558">  1  3  2 -1</clus>
<clus scale="   87.470">  2  4  1 -1</clus>
<clus scale="  200.583">  2  6  1 -1</clus>
<clus scale="   51.558">  1  3  2 -1</clus>
</clustering>
</event>
<event>
 6    0  0.3082502E+002  0.5956663E+02  0.7546771E-02  0.1399659E+00
          1   -1    0    0  505    0 -0.00000000000E+00  0.00000000000E+00  0.67450737745E+03  0.67450737745E+03  0.00000000000E+00 0.  1.
         21   -1    0    0  503  502  0.00000000000E+00 -0.00000000000E+00 -0.42690346655E+03  0.42690346655E+03  0.00000000000E+00 0.  1.
         21    1    1    2  503  501 -0.38790756295E+02 -0.48701015006E+02 -0.35078253417E+03  0.35626520727E+03  0.00000000000E+00 0.  1.
         21    1    1    2  504  502 -0.17326455426E+02  0.56487320260E+02 -0.45919792712E+02  0.74830814311E+02  0.00000000000E+00 0.  1.
         21    1    1    2  505  504 -0.57777736336E+02 -0.77385270582E+01  0.34845626294E+03  0.35329862552E+03  0.00000000000E+00 0.  1.
          1    1    1    2  501    0  0.11389494806E+03 -0.47778195433E-01  0.29584997484E+03  0.31701619689E+03  0.00000000000E+00 0.  1.
<scales pt_clust_3="14000.00000" pt_clust_4="59.56663" pt_clust_5="58.29367" pt_clust_6="59.09670"></scales>
<clustering>
<clus scale="   58.294">  1  5  2 -1</clus>
<clus scale="   59.567">  2  4  1 -1</clus>
<clus scale="   59.097">  1  6  2 -1</clus>
<clus scale="   59.567">  2  3  1 -1</clus>
</clustering>
</event>
<event>
 6    0  0.3082502E+002  0.1612504E+03  0.7546771E-02  0.1187292E+00
         -2   -1    0    0    0  501 -0.00000000000E+00  0.00000000000E+00  0.15723292480E+04  0.15723292480E+04  0.00000000000E+00 0.  1.
         21   -1    0    0  503  502  0.00000000000E+00 -0.00000000000E+00 -0.17808773142E+03  0.17808773142E+03  0.00000000000E+00 0.  1.
         21    1    1    2  503  501 -0.17612024229E+02  0.36480774030E+02  0.16219199422E+03  0.16717437979E+03  0.00000000000E+00 0.  1.
         21    1    1    2  504  505  0.51772657211E+01 -0.93578033552E+02 -0.87826367674E+02  0.12844112777E+03  0.00000000000E+00 0.  1.
         21    1    1    2  505  502 -0.39155609094E+02 -0.55152089107E+02 -0.46993487755E+02  0.82360807110E+02  0.00000000000E+00 0.  1.
         -2    1    1    2    0  504  0.51590367602E+02  0.11224934863E+03  0.13668693778E+04  0.13724406648E+04  0.00000000000E+00 0.  1.
<scales pt_clust_3="40.50963" pt_clust_4="46.47093" pt_clust_5="46.47093" pt_clust_6="151.70959"></scales>
<clustering>
<clus scale="   40.510">  1  3  2 -1</clus>
<clus scale="   46.471">  4  5 -1 -1</clus>
<clus scale="  151.710">  1  6  2 -1</clus>
<clus scale="  161.250">  2  3  1 -1</clus>
</clustering>
</event>
<event>
 6    0  0.3082502E+002  0.2204946E+03  0.7546771E-02  0.1133515E+00
         21   -1    0    0  503  502  0.00000000000E+00  0.00000000000E+00  0.29153819433E+03  0.29153819433E+03  0.00000000000E+00 0. -1.
          2   -1    0    0  505    0 -0.00000000000E+00 -0.00000000000E+00 -0.19369178092E+04  0.19369178092E+04  0.00000000000E+00 0. -1.
         21    1    1    2  503  501 -0.12821235699E+03 -0.17367480808E+03  0.17293176427E+03  0.27659852230E+03  0.00000000000E+00 0. -1.
         21    1    1    2  504  502  0.17117671804E+03  0.17177109058E+03 -0.15747874465E+03  0.28914759445E+03  0.00000000000E+00 0. -1.
         21    1    1    2  505  504 -0.29971834875E+02 -0.31207679716E+02 -0.96212061725E+03  0.96309309638E+03  0.00000000000E+00 0. -1.
          2    1    1    2  501    0 -0.12992526173E+02  0.33111397213E+02 -0.69871201729E+03  0.69961679044E+03  0.00000000000E+00 0. -1.
<scales pt_clust_3="220.49461" pt_clust_4="14000.00000" pt_clust_5="40.44598" pt_clust_6="35.56923"></scales>
<clustering>
<clus scale="   35.569">  2  6  1 -1</clus>
<clus scale="   40.446">  2  5  1 -1</clus>
<clus scale="  220.495">  1  3  2 -1</clus>
<clus scale="  220.495">  1  3  2 -1</clus>
</clustering>
</event>
<event>
 6    0  0.3082502E+002  0.1244076E+03  0.7546771E-02  0.1235998E+00
         21   -1    0    0  501  502  0.00000000000E+00  0.00000000000E+00  0.36427702027E+03  0.36427702027E+03  0.00000000000E+00 0.  1.
          2   -1    0    0  503    0 -0.00000000000E+00 -0.00000000000E+00 -0.20482611956E+04  0.20482611956E+04  0.00000000000E+00 0. -1.
         21    1    1    2  503  505  0.44411428447E+02 -0.52862209165E+01 -0.11896277498E+04  0.11904681862E+04  0.00000000000E+00 0.  1.
         21    1    1    2  504  502  0.40690750839E+02  0.31433428667E+02  0.14504278421E+03  0.15388699390E+03  0.00000000000E+00 0.  1.
         21    1    1    2  505  504 -0.89123815933E+02  0.84154152158E+02  0.19292532667E+03  0.22857199645E+03  0.00000000000E+00 0.  1.
          2    1    1    2  501    0  0.40216366460E+01 -0.11030135991E+03 -0.83232453637E+03  0.83961103936E+03  0.00000000000E+00 0. -1.
<scales pt_clust_3="44.72493" pt_clust_4="51.58257" pt_clust_5="124.40761" pt_clust_6="14000.00000"></scales>
<clustering>
<clus scale="   44.725">  2  3  1 -1</clus>
<clus scale="   51.583">  1  4  2 -1</clus>
<clus scale="  124.408">  1  5  2 -1</clus>
<clus scale="   51.583">  1  3  2 -1</clus>
</clustering>
</event>
<event>
 6    0  0.3082502E+002  0.1431720E+03  0.7546771E-02  0.1209123E+00
          2   -1    0    0  504    0 -0.00000000000E+00  0.00000000000E+00  0.40054847599E+04  0.40054847599E+04  0.00000000000E+00 0. -1.
         21   -1    0    0  503  502  0.00000000000E+00 -0.00000000000E+00 -0.10376735026E+02  0.10376735026E+02  0.00000000000E+00 0.  1.
         21    1    1    2  503  505  0.12293031423E+03  0.43284763768E+02  0.61562909979E+03  0.62927308971E+03  0.00000000000E+00 0.  1.
         21    1    1    2  504  502 -0.19993640321E+02  0.28350910427E+02  0.19211841453E+04  0.19214973432E+04  0.00000000000E+00 0. -1.
         21    1    1    2  505  501 -0.45539000428E+02 -0.48417645766E+02  0.44836130109E+03  0.45326143151E+03  0.00000000000E+00 0. -1.
          2    1    1    2  501    0 -0.57397673479E+02 -0.23218028429E+02  0.10099334787E+04  0.10118296305E+04  0.00000000000E+00 0. -1.
<scales pt_clust_3="127.89716" pt_clust_4="34.69178" pt_clust_5="63.20641" pt_clust_6="63.20641"></scales>
<clustering>
<clus scale="   34.692">  1  4  2 -1</clus>
<clus scale="   63.206">  5  6 -1 -1</clus>
<clus scale="  127.897">  2  3  1 -1</clus>
<clus scale="  127.897">  2  3  1 -1</clus>
</clustering>
</event>
<event>
 6    0  0.3082502E+002  0.7141787E+02  0.7546771E-02  0.1355337E+00
         -1   -1    0    0    0  501 -0.00000000000E+00  0.00000000000E+00  0.35009449086E+02  0.35009449086E+02  0.00000000000E+00 0. -1.
         21   -1    0    0  503  502  0.00000000000E+00 -0.00000000000E+00 -0.76492494298E+03  0.76492494298E+03  0.00000000000E+00 0. -1.
         21    1    1    2  503  504  0.18323180574E+02 -0.45918165510E+02 -0.27613021456E+03  0.28052114405E+03  0.00000000000E+00 0. -1.
         21    1    1    2  504  501  0.48194873537E+02 -0.19361194267E+02 -0.72583312309E+02  0.89252108684E+02  0.00000000000E+00 0. -1.
         21    1    1    2  505  502  0.49546922657E+02  0.35603090057E+02 -0.22606142413E+03  0.23415004814E+03  0.00000000000E+00 0. -1.
         -1    1    1    2    0  505 -0.11606497677E+03  0.29676269720E+02 -0.15514054290E+03  0.19601109118E+03  0.00000000000E+00 0. -1.
<scales pt_clust_3="49.43902" pt_clust_4="57.91865" pt_clust_5="14000.00000" pt_clust_6="71.41787"></scales>
<clustering>
<clus scale="   49.439">  2  3  1 -1</clus>
<clus scale="   57.919">  1  4  2 -1</clus>
<clus scale="   71.418">  1  6  2 -1</clus>
<clus scale="   49.439">  2  3  1 -1</clus>
</clustering>
</event>
<event>
 6    0  0.3082502E+002  0.1156636E+03  0.7546771E-02  0.1250427E+00
         21   -1    0    0  503  502  0.00000000000E+00  0.00000000000E+00  0.13244128017E+04  0.13244128017E+04  0.00000000000E+00 0. -1.
          4   -1    0    0  502    0 -0.00000000000E+00 -0.00000000000E+00 -0.29221124834E+02  0.29221124834E+02  0.00000000000E+00 0.  1.
         21    1    1    2  503  505  0.25597680568E+02  0.77159173247E+02  0.73451493631E+03  0.73899998033E+03  0.00000000000E+00 0. -1.
         21    1    1    2  504  501  0.48380554694E+02  0.70490434169E+01  0.18880461472E+03  0.19503217587E+03  0.00000000000E+00 0. -1.
         21    1    1    2  505  504  0.39658072661E+02 -0.28520066169E+02  0.20171598722E+03  0.20754637169E+03  0.00000000000E+00 0.  1.
          4    1    1    2  501    0 -0.11363630792E+03 -0.55688150495E+02  0.17015613861E+03  0.21205539863E+03  0.00000000000E+00 0.  1.
<scales pt_clust_3="81.29440" pt_clust_4="36.74440" pt_clust_5="36.74440" pt_clust_6="109.66638"></scales>
<clustering>
<clus scale="   36.744">  4  5 -1 -1</clus>
<clus scale="   81.294">  1  3  2 -1</clus>
<clus scale="  109.666">  2  6  1 -1</clus>
<clus scale="   81.294">  1  3  2 -1</clus>
</clustering>
</event>
<event>
 6    0  0.3082502E+002  0.9970366E+02  0.7546771E-02  0.1280920E+00
         21   -1    0    0  505  502  0.00000000000E+00  0.00000000000E+00  0.76373319386E+02  0.76373319386E+02  0.00000000000E+00 0. -1.
          2   -1    0    0  504    0 -0.00000000000E+00 -0.00000000000E+00 -0.68073589900E+03  0.68073589900E+03  0.00000000000E+00 0. -1.
         21    1    1    2  503  501 -0.48422807608E+02  0.38820922518E+02 -0.77640409744E+02  0.99397512781E+02  0.00000000000E+00 0. -1.
         21    1    1    2  504  502  0.18262382120E+03 -0.89049734264E+01 -0.12823484023E+03  0.22332696404E+03  0.00000000000E+00 0. -1.
         21    1    1    2  505  503 -0.44545171966E+02 -0.19252810335E+02 -0.34950256419E+02  0.59803540656E+02  0.00000000000E+00 0. -1.
          2    1    1    2  501    0 -0.89655841623E+02 -0.10663138756E+02 -0.36353707322E+03  0.37458120090E+03  0.00000000000E+00 0. -1.
<scales pt_clust_3="66.32935" pt_clust_4="14000.00000" pt_clust_5="48.52776" pt_clust_6="99.70366"></scales>
<clustering>
<clus scale="   48.528">  1  5  2 -1</clus>
<clus scale="   66.329">  1  3  2 -1</clus>
<clus scale="   99.704">  2  6  1 -1</clus>
<clus scale="   48.528">  1  3  2 -1</clus>
</clustering>
</event>
<event>
 6    0  0.3082502E+002  0.1259653E+03  0.7546771E-02  0.1233568E+00
         21   -1    0    0  505  502  0.00000000000E+00  0.00000000000E+00  0.46550296818E+03  0.46550296818E+03  0.00000000000E+00 0.  1.
          4   -1    0    0  503    0 -0.00000000000E+00 -0.00000000000E+00 -0.31557132038E+03  0.31557132038E+03  0.00000000000E+00 0.  1.
         21    1    1    2  503  502  0.10883595589E+03  0.96884593421E+02  0.25419932220E+03  0.29300031595E+03  0.00000000000E+00 0.  1.
         21    1    1    2  504  501  0.85130244455E+01  0.90918820066E+02 -0.86667033736E+01  0.91726850893E+02  0.00000000000E+00 0.  1.
         21    1    1    2  505  504 -0.54391336506E+02 -0.54255263392E+02  0.11551301793E+03  0.13872746089E+03  0.00000000000E+00 0. -1.
          4    1    1    2  501    0 -0.62957643828E+02 -0.13354815009E+03 -0.21111398896E+03  0.25761966083E+03  0.00000000000E+00 0.  1.
<scales pt_clust_3="83.76915" pt_clust_4="14000.00000" pt_clust_5="76.82481" pt_clust_6="125.96534"></scales>
<clustering>
<clus scale="   76.825">  1  5  2 -1</clus>
<clus scale="   83.769">  1  3  2 -1</clus>
<clus scale="  125.965">  2  6  1 -1</clus>
<clus scale="   76.825">  1  3  2 -1</clus>
</clustering>
</event>
<event>
 6    0  0.3082502E+002  0.1189954E+03  0.7546771E-02  0.1244764E+00
         21   -1    0    0  503  502  0.00000000000E+00  0.00000000000E+00  0.88196333324E+02  0.88196333324E+02  0.00000000000E+00 0. -1.
          2   -1    0    0  502    0 -0.00000000000E+00 -0.00000000000E+00 -0.20756440384E+04  0.20756440384E+04  0.00000000000E+00 0.  1.
         21    1    1    2  503  505  0.24221205858E+02  0.54735030009E+02  0.60038350828E+02  0.84777319452E+02  0.00000000000E+00 0. -1.
         21    1    1    2  504  501  0.29257996568E+02  0.26341096098E+02 -0.48076907548E+02  0.62139140211E+02  0.00000000000E+00 0. -1.
         21    1    1    2  505  504  0.40028325185E+02 -0.50620571694E+01 -0.52131326284E+02  0.65920910340E+02  0.00000000000E+00 0. -1.
          2    1    1    2  501    0 -0.93507527611E+02 -0.76014068938E+02 -0.19472778221E+04  0.19510030017E+04  0.00000000000E+00 0.  1.
<scales pt_clust_3="59.85474" pt_clust_4="32.82547" pt_clust_5="32.82547" pt_clust_6="114.26114"></scales>
<clustering>
<clus scale="   32.825">  4  5 -1 -1</clus>
<clus scale="   59.855">  1  3  2 -1</clus>
<clus scale="  114.261">  2  6  1 -1</clus>
<clus scale="   59.855">  1  3  2 -1</clus>
</clustering>
</event>
<event>
 6    0  0.3082502E+002  0.1593198E+03  0.7546771E-02  0.1189467E+00
         21   -1    0    0  505  502  0.00000000000E+00  0.00000000000E+00  0.18371757086E+03  0.18371757086E+03  0.00000000000E+00 0.  1.
          2   -1    0    0  503    0 -0.00000000000E+00 -0.00000000000E+00 -0.12839722387E+04  0.12839722387E+04  0.00000000000E+00 0.  1.
         21    1    1    2  503  502  0.41368947172E+00  0.36320589610E+02 -0.23482057027E+02  0.43252322143E+02  0.00000000000E+00 0. -1.
         21    1    1    2  504  501  0.85764361430E+02 -0.90328600298E+02 -0.52791526856E+03  0.54241064933E+03  0.00000000000E+00 0.  1.
         21    1    1    2  505  504 -0.13613902404E+03  0.58494084175E+02  0.13253014399E+03  0.19879544969E+03  0.00000000000E+00 0.  1.
          2    1    1    2  501    0  0.49960973140E+02 -0.44860734860E+01 -0.68138748627E+03  0.68323138843E+03  0.00000000000E+00 0.  1.
<scales pt_clust_3="36.32295" pt_clust_4="14000.00000" pt_clust_5="159.31976" pt_clust_6="50.14730"></scales>
<clustering>
<clus scale="   36.323">  1  3  2 -1</clus>
<clus scale="   50.147">  2  6  1 -1</clus>
<clus scale="  159.320">  1  5  2 -1</clus>
<clus scale="   36.323">  1  3  2 -1</clus>
</clustering>
</event>
<event>
 6    0  0.3082502E+002  0.6037810E+02  0.7546771E-02  0.1396252E+00
         -3   -1    0    0    0  501 -0.00000000000E+00  0.00000000000E+00  0.16869146923E+03  0.16869146923E+03  0.00000000000E+00 0. -1.
         21   -1    0    0  505  502  0.00000000000E+00 -0.00000000000E+00 -0.66499013679E+03  0.66499013679E+03  0.00000000000E+00 0. -1.
         21    1    1    2  503  501  0.42302248837E+02  0.13242380667E+02  0.61451220956E+02  0.75770003691E+02  0.00000000000E+00 0. -1.
         21    1    1    2  504  502 -0.21746754353E+02  0.47978725147E+02 -0.51712246282E+03  0.51979853881E+03  0.00000000000E+00 0. -1.
         21    1    1    2  505  503  0.70399572818E+02 -0.54211101618E+02 -0.96469469104E+02  0.13115373369E+03  0.00000000000E+00 0. -1.
         -3    1    1    2    0  504 -0.90955067302E+02 -0.70100041955E+01  0.55842043411E+02  0.10695932984E+03  0.00000000000E+00 0. -1.
<scales pt_clust_3="44.32653" pt_clust_4="52.60818" pt_clust_5="14000.00000" pt_clust_6="60.37810"></scales>
<clustering>
<clus scale="   44.327">  1  3  2 -1</clus>
<clus scale="   52.608">  2  4  1 -1</clus>
<clus scale="   60.378">  1  6  2 -1</clus>
<clus scale="   52.608">  2  3  1 -1</clus>
</clustering>
</event>
<event>
 6    0  0.3082502E+002  0.2849507E+03  0.7546771E-02  0.1093015E+00
         21   -1    0    0  503  502  0.00000000000E+00  0.00000000000E+00  0.16234883650E+04  0.16234883650E+04  0.00000000000E+00 0. -1.
          2   -1    0    0  505    0 -0.00000000000E+00 -0.00000000000E+00 -0.49231152240E+03  0.49231152240E+03  0.00000000000E+00 0. -1.
         21    1    1    2  503  501 -0.24105947042E+03 -0.23802748164E+03  0.64737076624E+03  0.73065426795E+03  0.00000000000E+00 0. -1.
         21    1    1    2  504  502  0.23550996041E+03  0.12104989694E+03  0.89914371031E+03  0.93732461335E+03  0.00000000000E+00 0. -1.
         21    1    1    2  505  504 -0.32100922648E+02 -0.63228953660E+01 -0.44646054495E+02  0.55350866504E+02  0.00000000000E+00 0. -1.
          2    1    1    2  501    0  0.37650432653E+02  0.12330048007E+03 -0.37069157941E+03  0.39247013964E+03  0.00000000000E+00 0. -1.
<scales pt_clust_3="284.95075" pt_clust_4="14000.00000" pt_clust_5="32.71771" pt_clust_6="118.26566"></scales>
<clustering>
<clus scale="   32.718">  2  5  1 -1</clus>
<clus scale="  118.266">  2  6  1 -1</clus>
<clus scale="  284.951">  2  3  1 -1</clus>
<clus scale="  284.951">  1  3  2 -1</clus>
</clustering>
</event>
<event>
 6    0  0.3082502E+002  0.8065520E+02  0.7546771E-02  0.1327202E+00
          1   -1    0    0  505    0 -0.00000000000E+00  0.00000000000E+00  0.36306405051E+03  0.36306405051E+03  0.00000000000E+00 0. -1.
         21   -1    0    0  503  502  0.00000000000E+00 -0.00000000000E+00 -0.12923135724E+03  0.12923135724E+03  0.00000000000E+00 0. -1.
         21    1    1    2  503  504 -0.53607181379E+02 -0.11767063034E+02 -0.39464091810E+01  0.55025156185E+02  0.00000000000E+00 0. -1.
         21    1    1    2  504  501 -0.43384698688E+02 -0.43190188056E+02  0.77080677331E+02  0.98432998747E+02  0.00000000000E+00 0. -1.
         21    1    1    2  505  502  0.77440450226E+02  0.94667346540E+02 -0.43564469073E+02  0.12983371210E+03  0.00000000000E+00 0. -1.
          1    1    1    2  501    0  0.19551429840E+02 -0.39710095450E+02  0.20426289419E+03  0.20900354071E+03  0.00000000000E+00 0. -1.
<scales pt_clust_3="53.61679" pt_clust_4="80.65520" pt_clust_5="14000.00000" pt_clust_6="44.26229"></scales>
<clustering>
<clus scale="   44.262">  1  6  2 -1</clus>
<clus scale="   53.617">  2  3  1 -1</clus>
<clus scale="   80.655">  1  4  2 -1</clus>
<clus scale="   53.617">  2  3  1 -1</clus>
</clustering>
</event>
<event>
 6    0  0.3082502E+002  0.5685491E+02  0.7546771E-02  0.1411525E+00
         21   -1    0    0  504  502  0.00000000000E+00  0.00000000000E+00  0.10934012845E+04  0.10934012845E+04  0.00000000000E+00 0.  1.
          2   -1    0    0  505    0 -0.00000000000E+00 -0.00000000000E+00 -0.31648902517E+04  0.31648902517E+04  0.00000000000E+00 0. -1.
         21    1    1    2  503  502  0.10857838291E+02  0.28495685414E+02  0.85952059834E+03  0.86006136741E+03  0.00000000000E+00 0.  1.
         21    1    1    2  504  501  0.90709340927E+02 -0.56564047254E+02 -0.18074985649E+03  0.20999568233E+03  0.00000000000E+00 0. -1.
         21    1    1    2  505  503 -0.62452562436E+02 -0.75406500021E+01  0.21422898557E+03  0.22327391746E+03  0.00000000000E+00 0. -1.
          2    1    1    2  501    0 -0.39114616782E+02  0.35609011842E+02 -0.29644886947E+04  0.29649605690E+04  0.00000000000E+00 0. -1.
<scales pt_clust_3="30.49421" pt_clust_4="56.85491" pt_clust_5="14000.00000" pt_clust_6="52.90697"></scales>
<clustering>
<clus scale="   30.494">  1  3  2 -1</clus>
<clus scale="   52.907">  2  6  1 -1</clus>
<clus scale="   56.855">  2  4  1 -1</clus>
<clus scale="   30.494">  1  3  2 -1</clus>
</clustering>
</event>
<event>
 6    0  0.3082502E+002  0.8045257E+02  0.7546771E-02  0.1327772E+00
         -1   -1    0    0    0  501 -0.00000000000E+00  0.00000000000E+00  0.19578995702E+03  0.19578995702E+03  0.00000000000E+00 0. -1.
         21   -1    0    0  504  502  0.00000000000E+00 -0.00000000000E+00 -0.26748288378E+03  0.26748288378E+03  0.00000000000E+00 0. -1.
         21    1    1    2  503  501  0.19408958335E+02 -0.34368283823E+02  0.56702099292E+02  0.69087007901E+02  0.00000000000E+00 0.  1.
         21    1    1    2  504  503 -0.55549641780E+02  0.51227761816E+01 -0.28490550053E+02  0.62639579980E+02  0.00000000000E+00 0. -1.
         21    1    1    2  505  502  0.95662284639E+02  0.29103159675E+02 -0.19512475969E+03  0.21925313783E+03  0.00000000000E+00 0. -1.
         -1    1    1    2    0  505 -0.59521601194E+02  0.14234796655E+00  0.95220283691E+02  0.11229311510E+03  0.00000000000E+00 0. -1.
<scales pt_clust_3="39.47007" pt_clust_4="14000.00000" pt_clust_5="80.45257" pt_clust_6="51.77756"></scales>
<clustering>
<clus scale="   39.470">  1  3  2 -1</clus>
<clus scale="   51.778">  1  6  2 -1</clus>
<clus scale="   80.453">  2  5  1 -1</clus>
<clus scale="   80.453">  2  3  1 -1</clus>
</clustering>
</event>
<event>
 6    0  0.3082502E+002  0.1130252E+03  0.7546771E-02  0.1255068E+00
          1   -1    0    0  504    0 -0.00000000000E+00  0.00000000000E+00  0.27997291389E+03  0.27997291389E+03  0.00000000000E+00 0. -1.
         21   -1    0    0  503  502  0.00000000000E+00 -0.00000000000E+00 -0.71355400798E+03  0.71355400798E+03  0.00000000000E+00 0. -1.
         21    1    1    2  503  505  0.23036607320E+02 -0.74216594865E+02 -0.60127318713E+03  0.60627405832E+03  0.00000000000E+00 0. -1.
         21    1    1    2  504  502  0.50738622761E+02 -0.20866360093E+02 -0.24195990917E+02  0.59960476980E+02  0.00000000000E+00 0.  1.
         21    1    1    2  505  501 -0.95501701082E+02 -0.46887726886E+02  0.29297090257E+02  0.11035104594E+03  0.00000000000E+00 0.  1.
          1    1    1    2  501    0  0.21726471001E+02  0.14197068184E+03  0.16259099370E+03  0.21694134063E+03  0.00000000000E+00 0. -1.
<scales pt_clust_3="78.04430" pt_clust_4="54.86176" pt_clust_5="14000.00000" pt_clust_6="113.02518"></scales>
<clustering>
<clus scale="   54.862">  1  4  2 -1</clus>
<clus scale="   78.044">  2  3  1 -1</clus>
<clus scale="  113.025">  1  6  2 -1</clus>
<clus scale="   78.044">  2  3  1 -1</clus>
</clustering>
</event>
<event>
 6    0  0.3082502E+002  0.1206339E+03  0.7546771E-02  0.1242055E+00
         21   -1    0    0  505  502  0.00000000000E+00  0.00000000000E+00  0.19996418218E+03  0.19996418218E+03  0.00000000000E+00 0.  1.
         -1   -1    0    0    0  501 -0.00000000000E+00 -0.00000000000E+00 -0.56213268234E+03  0.56213268234E+03  0.00000000000E+00 0.  1.
         21    1    1    2  503  501  0.20297505371E+02  0.65462794105E+02 -0.15788358426E+03  0.17211796046E+03  0.00000000000E+00 0.  1.
         21    1    1    2  504  502  0.62727497636E+02 -0.54957863109E+02  0.15994957193E+03  0.18038561816E+03  0.00000000000E+00 0.  1.
         21    1    1    2  505  503 -0.16892063860E+01  0.56513374666E+02 -0.41632911475E+02  0.70213348106E+02  0.00000000000E+00 0.  1.
         -1    1    1    2    0  504 -0.81335796621E+02 -0.67018305662E+02 -0.32260157636E+03  0.33937993779E+03  0.00000000000E+00 0.  1.
<scales pt_clust_3="55.19618" pt_clust_4="83.39728" pt_clust_5="55.19618" pt_clust_6="104.20828"></scales>
<clustering>
<clus scale="   55.196">  3  5 -1 -1</clus>
<clus scale="   83.397">  1  4  2 -1</clus>
<clus scale="  104.208">  2  6  1 -1</clus>
<clus scale="   83.397">  1  3  2 -1</clus>
</clustering>
</event>
<event>
 6    0  0.3082502E+002  0.6436665E+02  0.7546771E-02  0.1380370E+00
         21   -1    0    0  504  502  0.00000000000E+00  0.00000000000E+00  0.10730061106E+04  0.10730061106E+04  0.00000000000E+00 0. -1.
          4   -1    0    0  503    0 -0.00000000000E+00 -0.00000000000E+00 -0.27806077278E+02  0.27806077278E+02  0.00000000000E+00 0.  1.
         21    1    1    2  503  505 -0.48050116104E+02 -0.20679244333E+02  0.52018146172E+02  0.73772165042E+02  0.00000000000E+00 0. -1.
         21    1    1    2  504  501  0.15734026632E+02 -0.34558345385E+02  0.21046478357E+03  0.21386272222E+03  0.00000000000E+00 0. -1.
         21    1    1    2  505  502 -0.61572405224E+02  0.21193193615E+02  0.61153428925E+03  0.61499146292E+03  0.00000000000E+00 0. -1.
          4    1    1    2  501    0  0.93888494696E+02  0.34044396103E+02  0.17118281433E+03  0.19818583770E+03  0.00000000000E+00 0.  1.
<scales pt_clust_3="14000.00000" pt_clust_4="37.97155" pt_clust_5="50.47991" pt_clust_6="64.36665"></scales>
<clustering>
<clus scale="   37.972">  1  4  2 -1</clus>
<clus scale="   50.480">  1  5  2 -1</clus>
<clus scale="   64.367">  1  6  2 -1</clus>
<clus scale="   37.972">  1  3  2 -1</clus>
</clustering>
</event>
<event>
 6    0  0.3082502E+002  0.3107848E+03  0.7546771E-02  0.1079970E+00
         21   -1    0    0  504  502  0.00000000000E+00  0.00000000000E+00  0.14145631896E+04  0.14145631896E+04  0.00000000000E+00 0.  1.
          2   -1    0    0  505    0 -0.00000000000E+00 -0.00000000000E+00 -0.13747244556E+04  0.13747244556E+04  0.00000000000E+00 0.  1.
         21    1    1    2  503  502  0.28235005789E+02 -0.16892266110E+03  0.40964951939E+03  0.44400992075E+03  0.00000000000E+00 0.  1.
         21    1    1    2  504  501 -0.25941429637E+03 -0.28335226621E+02  0.80247440851E+03  0.84383875150E+03  0.00000000000E+00 0.  1.
         21    1    1    2  505  503 -0.11893649719E+03 -0.10529686590E+03 -0.99230313091E+03  0.10049372239E+04  0.00000000000E+00 0.  1.
          2    1    1    2  501    0  0.35011578777E+03  0.30255475363E+03 -0.17998206301E+03  0.49650174904E+03  0.00000000000E+00 0.  1.
<scales pt_clust_3="175.22253" pt_clust_4="310.78483" pt_clust_5="158.84999" pt_clust_6="14000.00000"></scales>
<clustering>
<clus scale="  158.850">  2  5  1 -1</clus>
<clus scale="  175.223">  1  3  2 -1</clus>
<clus scale="  310.785">  1  4  2 -1</clus>
<clus scale="  175.223">  1  3  2 -1</clus>
</clustering>
</event>
<event>
 6    0  0.3082502E+002  0.9478483E+02  0.7546771E-02  0.1291661E+00
         21   -1    0    0  505  502  0.00000000000E+00  0.00000000000E+00  0.11681992343E+03  0.11681992343E+03  0.00000000000E+00 0.  1.
          2   -1    0    0  503    0 -0.00000000000E+00 -0.00000000000E+00 -0.12004838887E+04  0.12004838887E+04  0.00000000000E+00 0. -1.
         21    1    1    2  503  504  0.69104411225E+02 -0.12744406583E+01 -0.63451630553E+03  0.63826952444E+03  0.00000000000E+00 0. -1.
         21    1    1    2  504  502  0.11173089732E+03 -0.45117419674E+02 -0.91529730079E+02  0.15131776652E+03  0.00000000000E+00 0.  1.
         21    1    1    2  505  501 -0.45149350997E+02  0.18766635956E+02  0.65945136743E+02  0.82093919267E+02  0.00000000000E+00 0.  1.
          2    1    1    2  501    0 -0.13568595755E+03  0.27625224377E+02 -0.42356306644E+03  0.44562260193E+03  0.00000000000E+00 0. -1.
<scales pt_clust_3="67.12633" pt_clust_4="14000.00000" pt_clust_5="48.89428" pt_clust_6="94.78483"></scales>
<clustering>
<clus scale="   48.894">  1  5  2 -1</clus>
<clus scale="   67.126">  2  3  1 -1</clus>
<clus scale="   94.785">  2  6  1 -1</clus>
<clus scale="   48.894">  1  3  2 -1</clus>
</clustering>
</event>
<event>
 6    0  0.3082502E+002  0.1154341E+03  0.7546771E-02  0.1250825E+00
         21   -1    0    0  503  502  0.00000000000E+00  0.00000000000E+00  0.85588705087E+02  0.85588705087E+02  0.00000000000E+00 0. -1.
          1   -1    0    0  505    0 -0.00000000000E+00 -0.00000000000E+00 -0.80494265344E+03  0.80494265344E+03  0.00000000000E+00 0.  1.
         21    1    1    2  503  501  0.40138968972E+02  0.49651762954E+00 -0.18189675316E+02  0.44070938814E+02  0.00000000000E+00 0.  1.
         21    1    1    2  504  502 -0.15271977285E+03  0.30479496778E+02 -0.26679314331E+02  0.15800036252E+03  0.00000000000E+00 0. -1.
         21    1    1    2  505  504  0.24063692430E+02 -0.41372091411E+02 -0.19719880566E+03  0.20292382856E+03  0.00000000000E+00 0. -1.
          1    1    1    2  501    0  0.88517111445E+02  0.10396077003E+02 -0.47728615305E+03  0.48553622864E+03  0.00000000000E+00 0.  1.
<scales pt_clust_3="40.14204" pt_clust_4="115.43414" pt_clust_5="48.65913" pt_clust_6="14000.00000"></scales>
<clustering>
<clus scale="   40.142">  1  3  2 -1</clus>
<clus scale="   48.659">  2  5  1 -1</clus>
<clus scale="  115.434">  1  4  2 -1</clus>
<clus scale="   40.142">  1  3  2 -1</clus>
</clustering>
</event>
<event>
 6    0  0.3082502E+002  0.1277141E+03  0.7546771E-02  0.1230888E+00
         21   -1    0    0  504  502  0.00000000000E+00  0.00000000000E+00  0.10746531920E+03  0.10746531920E+03  0.00000000000E+00 0. -1.
          1   -1    0    0  505    0 -0.00000000000E+00 -0.00000000000E+00 -0.29496015840E+04  0.29496015840E+04  0.00000000000E+00 0. -1.
         21    1    1    2  503  501  0.32854783218E+02 -0.45546613226E+02 -0.11274530455E+03  0.12595806626E+03  0.00000000000E+00 0. -1.
         21    1    1    2  504  503 -0.18711445724E+02 -0.42799977850E+02 -0.15347908530E+02  0.49168227559E+02  0.00000000000E+00 0.  1.
         21    1    1    2  505  502 -0.63104740818E+02 -0.31079621957E+02  0.67449110615E+02  0.97455290967E+02  0.00000000000E+00 0. -1.
          1    1    1    2  501    0  0.48961403324E+02  0.11942621303E+03 -0.27814921623E+04  0.27844853184E+04  0.00000000000E+00 0. -1.
<scales pt_clust_3="57.96791" pt_clust_4="46.71142" pt_clust_5="14000.00000" pt_clust_6="127.71408"></scales>
<clustering>
<clus scale="   46.711">  1  4  2 -1</clus>
<clus scale="   57.968">  1  3  2 -1</clus>
<clus scale="  127.714">  2  6  1 -1</clus>
<clus scale="   46.711">  1  3  2 -1</clus>
</clustering>
</event>
<event>
 6    0  0.3082502E+002  0.1070527E+03  0.7546771E-02  0.1266127E+00
         21   -1    0    0  505  502  0.00000000000E+00  0.00000000000E+00  0.44708517129E+03  0.44708517129E+03  0.00000000000E+00 0.  1.
          1   -1    0    0  503    0 -0.00000000000E+00 -0.00000000000E+00 -0.39693633227E+03  0.39693633227E+03  0.00000000000E+00 0. -1.
         21    1    1    2  503  502 -0.10757825859E+02  0.10774200292E+03  0.30533023463E+03  0.32396083434E+03  0.00000000000E+00 0.  1.
         21    1    1    2  504  501 -0.37388016451E+02  0.30525633927E+02 -0.46020116900E+02  0.66689798772E+02  0.00000000000E+00 0. -1.
         21    1    1    2  505  504  0.61343838918E+02 -0.94692742768E+02  0.93973495280E+02  0.14683596263E+03  0.00000000000E+00 0. -1.
          1    1    1    2  501    0 -0.13197996607E+02 -0.43574894083E+02 -0.30313477399E+03  0.30653490782E+03  0.00000000000E+00 0. -1.
<scales pt_clust_3="107.05266" pt_clust_4="45.62742" pt_clust_5="14000.00000" pt_clust_6="45.52975"></scales>
<clustering>
<clus scale="   45.530">  2  6  1 -1</clus>
<clus scale="   45.627">  2  4  1 -1</clus>
<clus scale="  107.053">  1  3  2 -1</clus>
<clus scale="  107.053">  1  3  2 -1</clus>
</clustering>
</event>
<event>
 6    0  0.3082502E+002  0.9883418E+02  0.7546771E-02  0.1282767E+00
         21   -1    0    0  504  502  0.00000000000E+00  0.00000000000E+00  0.10156668980E+04  0.10156668980E+04  0.00000000000E+00 0.  1.
          3   -1    0    0  503    0 -0.00000000000E+00 -0.00000000000E+00 -0.23855952719E+02  0.23855952719E+02  0.00000000000E+00 0. -1.
         21    1    1    2  503  502 -0.12061927705E+03 -0.22454245535E+02  0.56653572290E+03  0.57966880928E+03  0.00000000000E+00 0.  1.
         21    1    1    2  504  505  0.36972021894E+02  0.37133299999E+02  0.29626592754E+03  0.30086427537E+03  0.00000000000E+00 0. -1.
         21    1    1    2  505  501  0.48029904360E+02  0.76886774338E+01  0.86199831511E+02  0.98976756999E+02  0.00000000000E+00 0. -1.
          3    1    1    2  501    0  0.35617350795E+02 -0.22367731898E+02  0.42809463375E+02  0.60013009110E+02  0.00000000000E+00 0. -1.
<scales pt_clust_3="91.35746" pt_clust_4="52.40050" pt_clust_5="35.06507" pt_clust_6="35.06507"></scales>
<clustering>
<clus scale="   35.065">  5  6 -1 -1</clus>
<clus scale="   52.400">  1  4  2 -1</clus>
<clus scale="   91.357">  1  3  2 -1</clus>
<clus scale="   52.400">  1  3  2 -1</clus>
</clustering>
</event>
<event>
 6    0  0.3082502E+002  0.8024042E+02  0.7546771E-02  0.1328371E+00
         21   -1    0    0  503  502  0.00000000000E+00  0.00000000000E+00  0.61940410605E+02  0.61940410605E+02  0.00000000000E+00 0.  1.
         -1   -1    0    0    0  501 -0.00000000000E+00 -0.00000000000E+00 -0.12819385687E+04  0.12819385687E+04  0.00000000000E+00 0.  1.
         21    1    1    2  503  505  0.38452815802E+02 -0.74832420350E+02  0.95972470771E+01  0.84679497696E+02  0.00000000000E+00 0.  1.
         21    1    1    2  504  501  0.12923936857E+02 -0.42863803351E+02 -0.17836154366E+03  0.18389446440E+03  0.00000000000E+00 0. -1.
         21    1    1    2  505  504 -0.10072530631E+02  0.70619549722E+02 -0.10463999105E+03  0.12664163772E+03  0.00000000000E+00 0.  1.
         -1    1    1    2    0  502 -0.41304222028E+02  0.47076673980E+02 -0.94659387046E+03  0.94866337948E+03  0.00000000000E+00 0.  1.
<scales pt_clust_3="14000.00000" pt_clust_4="44.76979" pt_clust_5="80.24042" pt_clust_6="31.84864"></scales>
<clustering>
<clus scale="   44.770">  2  4  1 -1</clus>
<clus scale="   31.849">  2  6  1 -1</clus>
<clus scale="   80.240">  2  5  1 -1</clus>
<clus scale="   80.240">  1  3  2 -1</clus>
</clustering>
</event>
<event>
 6    0  0.3082502E+002  0.9743689E+02  0.7546771E-02  0.1285780E+00
          2   -1    0    0  503    0 -0.00000000000E+00  0.00000000000E+00  0.18828045055E+03  0.18828045055E+03  0.00000000000E+00 0.  1.
         21   -1    0    0  501  502  0.00000000000E+00 -0.00000000000E+00 -0.30637695453E+03  0.30637695453E+03  0.00000000000E+00 0.  1.
         21    1    1    2  503  504  0.44768363013E+02 -0.12641360664E+02  0.35081174183E+02  0.58264046447E+02  0.00000000000E+00 0.  1.
         21    1    1    2  504  505 -0.78096120576E+02  0.72387588927E+02  0.25302116947E+02  0.10944936821E+03  0.00000000000E+00 0. -1.
         21    1    1    2  505  502  0.17103295678E+01  0.31336832512E+02 -0.21981367178E+03  0.22204272697E+03  0.00000000000E+00 0.  1.
          2    1    1    2  501    0  0.31617427994E+02 -0.91083060775E+02  0.41333876663E+02  0.10490126345E+03  0.00000000000E+00 0.  1.
<scales pt_clust_3="45.77590" pt_clust_4="97.43689" pt_clust_5="31.38347" pt_clust_6="14000.00000"></scales>
<clustering>
<clus scale="   31.383">  2  5  1 -1</clus>
<clus scale="   45.776">  1  3  2 -1</clus>
<clus scale="   97.437">  1  4  2 -1</clus>
<clus scale="   31.383">  2  3  1 -1</clus>
</clustering>
</event>
<event>
 6    0  0.3082502E+002  0.1477005E+03  0.7546771E-02  0.1203327E+00
         21   -1    0    0  505  502  0.00000000000E+00  0.00000000000E+00  0.10731635145E+04  0.10731635145E+04  0.00000000000E+00 0. -1.
          4   -1    0    0  503    0 -0.00000000000E+00 -0.00000000000E+00 -0.21359987171E+03  0.21359987171E+03  0.00000000000E+00 0.  1.
         21    1    1    2  503  504 -0.56245709684E+02 -0.24283120683E+02 -0.72004002273E+02  0.94540076958E+02  0.00000000000E+00 0. -1.
         21    1    1    2  504  502  0.54361342406E+02  0.59172057587E+02  0.71708880554E+02  0.10769703570E+03  0.00000000000E+00 0. -1.
         21    1    1    2  505  501 -0.32894727176E+02  0.14212338339E+03  0.88978496170E+03  0.90166423754E+03  0.00000000000E+00 0. -1.
          4    1    1    2  501    0  0.34779094454E+02 -0.17701232030E+03 -0.29926197169E+02  0.18286203604E+03  0.00000000000E+00 0.  1.
<scales pt_clust_3="61.26377" pt_clust_4="72.71142" pt_clust_5="147.70055" pt_clust_6="14000.00000"></scales>
<clustering>
<clus scale="   61.264">  2  3  1 -1</clus>
<clus scale="   72.711">  2  4  1 -1</clus>
<clus scale="  147.701">  1  5  2 -1</clus>
<clus scale="  147.701">  1  3  2 -1</clus>
</clustering>
</event>
<event>
 6    0  0.3082502E+002  0.1329692E+03  0.7546771E-02  0.1223115E+00
         21   -1    0    0  504  502  0.00000000000E+00  0.00000000000E+00  0.15764263870E+03  0.15764263870E+03  0.00000000000E+00 0.  1.
          2   -1    0    0  502    0 -0.00000000000E+00 -0.00000000000E+00 -0.71868798440E+03  0.71868798440E+03  0.00000000000E+00 0.  1.
         21    1    1    2  503  501  0.23131251037E+02 -0.33322091079E+02 -0.95792363051E+02  0.10402688762E+03  0.00000000000E+00 0.  1.
         21    1    1    2  504  505 -0.20175250121E+02  0.29172398066E+02  0.12573580253E+03  0.13064287797E+03  0.00000000000E+00 0.  1.
         21    1    1    2  505  503 -0.78898575363E+02  0.56102148208E+02 -0.89640152593E+02  0.13193859627E+03  0.00000000000E+00 0.  1.
          2    1    1    2  501    0  0.75942574447E+02 -0.51952455195E+02 -0.50134863258E+03  0.50972226124E+03  0.00000000000E+00 0.  1.
<scales pt_clust_3="35.11024" pt_clust_4="35.46928" pt_clust_5="121.06826" pt_clust_6="35.11024"></scales>
<clustering>
<clus scale="   35.469">  1  4  2 -1</clus>
<clus scale="   35.110">  3  6 -1 -1</clus>
<clus scale="  121.068">  1  5  2 -1</clus>
<clus scale="   35.469">  1  3  2 -1</clus>
</clustering>
</event>
<event>
 6    0  0.3082502E+002  0.8866702E+02  0.7546771E-02  0.1306112E+00
         -3   -1    0    0    0  501 -0.00000000000E+00  0.00000000000E+00  0.47861409719E+03  0.47861409719E+03  0.00000000000E+00 0.  1.
         21   -1    0    0  504  502  0.00000000000E+00 -0.00000000000E+00 -0.12575318203E+03  0.12575318203E+03  0.00000000000E+00 0. -1.
         21    1    1    2  503  505  0.29047959883E+02 -0.10948591198E+03 -0.55655646194E+02  0.12620816078E+03  0.00000000000E+00 0. -1.
         21    1    1    2  504  503 -0.39198063041E+02  0.21594304153E+02  0.47418625028E+00  0.44755189315E+02  0.00000000000E+00 0.  1.
         21    1    1    2  505  501  0.39878403998E+02  0.15625146752E+02  0.45306836281E+02  0.62346946439E+02  0.00000000000E+00 0. -1.
         -3    1    1    2    0  502 -0.29728300840E+02  0.72266461073E+02  0.36273553882E+03  0.37105698268E+03  0.00000000000E+00 0.  1.
<scales pt_clust_3="88.66702" pt_clust_4="43.33001" pt_clust_5="42.83027" pt_clust_6="14000.00000"></scales>
<clustering>
<clus scale="   42.830">  1  5  2 -1</clus>
<clus scale="   43.330">  2  4  1 -1</clus>
<clus scale="   88.667">  2  3  1 -1</clus>
<clus scale="   43.330">  2  3  1 -1</clus>
</clustering>
</event>
<event>
 6    0  0.3082502E+002  0.1624221E+03  0.7546771E-02  0.1185989E+00
         21   -1    0    0  501  502  0.00000000000E+00  0.00000000000E+00  0.12133258251E+03  0.12133258251E+03  0.00000000000E+00 0.  1.
          2   -1    0    0  503    0 -0.00000000000E+00 -0.00000000000E+00 -0.14202285132E+04  0.14202285132E+04  0.00000000000E+00 0.  1.
         21    1    1    2  503  504  0.16680964285E+02  0.36203797483E+02 -0.52819603662E+03  0.52969804853E+03  0.00000000000E+00 0.  1.
         21    1    1    2  504  505  0.10792373723E+03  0.45452854979E+02  0.38578654197E+02  0.12329561080E+03  0.00000000000E+00 0.  1.
         21    1    1    2  505  502  0.41571305341E+02 -0.13860617431E+02  0.13961196638E+02  0.45991359568E+02  0.00000000000E+00 0.  1.
          2    1    1    2  501    0 -0.16617600685E+03 -0.67796035032E+02 -0.82323974486E+03  0.84257607677E+03  0.00000000000E+00 0.  1.
<scales pt_clust_3="39.86188" pt_clust_4="30.89536" pt_clust_5="30.89536" pt_clust_6="154.37007"></scales>
<clustering>
<clus scale="   30.895">  4  5 -1 -1</clus>
<clus scale="   39.862">  2  3  1 -1</clus>
<clus scale="  154.370">  2  6  1 -1</clus>
<clus scale="  162.422">  1  3  2 -1</clus>
</clustering>
</event>
<event>
 6    0  0.3082502E+002  0.1166536E+03  0.7546771E-02  0.1248722E+00
         21   -1    0    0  505  502  0.00000000000E+00  0.00000000000E+00  0.14634141074E+03  0.14634141074E+03  0.00000000000E+00 0.  1.
          2   -1    0    0  504    0 -0.00000000000E+00 -0.00000000000E+00 -0.17916567466E+04  0.17916567466E+04  0.00000000000E+00 0.  1.
         21    1    1    2  503  502  0.10830291939E+03  0.38349678226E+02  0.23445337993E+02  0.11725998483E+03  0.00000000000E+00 0.  1.
         21    1    1    2  504  503 -0.30523676428E+01  0.31312885534E+02 -0.58692327030E+02  0.66592814934E+02  0.00000000000E+00 0.  1.
         21    1    1    2  505  501 -0.17496814783E+02  0.35067715029E+02  0.63710330726E+02  0.74798993350E+02  0.00000000000E+00 0.  1.
          2    1    1    2  501    0 -0.87753736966E+02 -0.10473027879E+03 -0.16737786776E+04  0.16793463643E+04  0.00000000000E+00 0.  1.
<scales pt_clust_3="116.65363" pt_clust_4="31.46131" pt_clust_5="39.28458" pt_clust_6="14000.00000"></scales>
<clustering>
<clus scale="   31.461">  2  4  1 -1</clus>
<clus scale="   39.285">  1  5  2 -1</clus>
<clus scale="  116.654">  1  3  2 -1</clus>
<clus scale="   39.285">  1  3  2 -1</clus>
</clustering>
</event>
<event>
 6    0  0.3082502E+002  0.1466557E+03  0.7546771E-02  0.1204644E+00
         21   -1    0    0  501  502  0.00000000000E+00  0.00000000000E+00  0.23976640391E+03  0.23976640391E+03  0.00000000000E+00 0. -1.
          1   -1    0    0  503    0 -0.00000000000E+00 -0.00000000000E+00 -0.29077950280E+04  0.29077950280E+04  0.00000000000E+00 0. -1.
         21    1    1    2  503  504 -0.50992574069E+02 -0.67916336913E+02 -0.68593043343E+03  0.69116816401E+03  0.00000000000E+00 0. -1.
         21    1    1    2  504  505 -0.13646884831E+03  0.61487729613E+02 -0.53037146637E+03  0.55108835933E+03  0.00000000000E+00 0. -1.
         21    1    1    2  505  502  0.52142723751E+01 -0.93735217992E+02  0.21030799513E+03  0.23031051332E+03  0.00000000000E+00 0. -1.
          1    1    1    2  501    0  0.18224715000E+03  0.10016382529E+03 -0.16620347194E+04  0.16749943952E+04  0.00000000000E+00 0. -1.
<scales pt_clust_3="84.92863" pt_clust_4="146.65574" pt_clust_5="94.17329" pt_clust_6="14000.00000"></scales>
<clustering>
<clus scale="   84.929">  2  3  1 -1</clus>
<clus scale="   94.173">  1  5  2 -1</clus>
<clus scale="  146.656">  1  4  2 -1</clus>
<clus scale="   94.173">  1  3  2 -1</clus>
</clustering>
</event>
<event>
 6    0  0.3224208E+002  0.1118692E+03  0.7546771E-02  0.1257147E+00
          2   -1    0    0  503    0 -0.00000000000E+00  0.00000000000E+00  0.10129625951E+04  0.10129625951E+04  0.00000000000E+00 0. -1.
         21   -1    0    0  504  502  0.00000000000E+00 -0.00000000000E+00 -0.30078617935E+03  0.30078617935E+03  0.00000000000E+00 0.  1.
         21    1    1    2  503  505 -0.49837973740E+02  0.46587316775E+01 -0.11023771414E+02  0.51254765082E+02  0.00000000000E+00 0.  1.
         21    1    1    2  504  501 -0.19713214272E+02 -0.39385101972E+02  0.75301515621E+02  0.87235974971E+02  0.00000000000E+00 0. -1.
         21    1    1    2  505  502 -0.43207693628E+02 -0.74379386289E+01 -0.25784661165E+03  0.26154751549E+03  0.00000000000E+00 0.  1.
          2    1    1    2  501    0  0.11275888164E+03  0.42164308923E+02  0.90574528321E+03  0.91371051893E+03  0.00000000000E+00 0. -1.
<scales pt_clust_3="14000.00000" pt_clust_4="48.09181" pt_clust_5="43.84322" pt_clust_6="111.86918"></scales>
<clustering>
<clus scale="   43.843">  2  5  1 -1</clus>
<clus scale="   48.092">  2  4  1 -1</clus>
<clus scale="  111.869">  1  6  2 -1</clus>
<clus scale="   43.843">  2  3  1 -1</clus>
</clustering>
</event>
<event>
 6    0  0.3082502E+002  0.1893335E+03  0.7546771E-02  0.1159064E+00
          3   -1    0    0  504    0 -0.00000000000E+00  0.00000000000E+00  0.79268641051E+03  0.79268641051E+03  0.00000000000E+00 0.  1.
         21   -1    0    0  501  502  0.00000000000E+00 -0.00000000000E+00 -0.26852370781E+03  0.26852370781E+03  0.00000000000E+00 0.  1.
         21    1    1    2  503  502 -0.11833433708E+03  0.40006600529E+02 -0.12886509667E+03  0.17947076798E+03  0.00000000000E+00 0.  1.
         21    1    1    2  504  505 -0.38030986191E+02 -0.15008757146E+02  0.47146469867E+02  0.62405194677E+02  0.00000000000E+00 0.  1.
         21    1    1    2  505  503 -0.63815374183E+02 -0.12815060575E+03 -0.23081201277E+02  0.14500938448E+03  0.00000000000E+00 0.  1.
          3    1    1    2  501    0  0.22018069745E+03  0.10315276236E+03  0.62896253078E+03  0.67432477119E+03  0.00000000000E+00 0.  1.
<scales pt_clust_3="125.98795" pt_clust_4="40.88543" pt_clust_5="189.33349" pt_clust_6="14000.00000"></scales>
<clustering>
<clus scale="   40.885">  1  4  2 -1</clus>
<clus scale="  125.988">  2  3  1 -1</clus>
<clus scale="  189.333">  2  5  1 -1</clus>
<clus scale="  125.988">  2  3  1 -1</clus>
</clustering>
</event>
<event>
 6    0  0.3082502E+002  0.8877982E+02  0.7546771E-02  0.1305834E+00
          1   -1    0    0  505    0 -0.00000000000E+00  0.00000000000E+00  0.11377621220E+04  0.11377621220E+04  0.00000000000E+00 0. -1.
         21   -1    0    0  503  502  0.00000000000E+00 -0.00000000000E+00 -0.10242476970E+03  0.10242476970E+03  0.00000000000E+00 0.  1.
         21    1    1    2  503  501 -0.50888917042E+02  0.77117697399E+01  0.26822125008E+02  0.58039466401E+02  0.00000000000E+00 0.  1.
         21    1    1    2  504  502  0.88580212786E+02 -0.83988172098E+02 -0.35778605647E+02  0.12720289215E+03  0.00000000000E+00 0.  1.
         21    1    1    2  505  504  0.37919961001E+02 -0.49033142416E+01  0.30055183855E+03  0.30297421274E+03  0.00000000000E+00 0.  1.
          1    1    1    2  501    0 -0.75611256746E+02  0.81179716600E+02  0.74374199437E+03  0.75197032038E+03  0.00000000000E+00 0. -1.
<scales pt_clust_3="49.52977" pt_clust_4="88.77982" pt_clust_5="38.23566" pt_clust_6="14000.00000"></scales>
<clustering>
<clus scale="   38.236">  1  5  2 -1</clus>
<clus scale="   49.530">  2  3  1 -1</clus>
<clus scale="   88.780">  2  4  1 -1</clus>
<clus scale="   49.530">  2  3  1 -1</clus>
</clustering>
</event>
<event>
 6    0  0.3082502E+002  0.9158457E+02  0.7546771E-02  0.1299059E+00
         21   -1    0    0  505  502  0.00000000000E+00  0.00000000000E+00  0.30978306899E+04  0.30978306899E+04  0.00000000000E+00 0. -1.
          2   -1    0    0  503    0 -0.00000000000E+00 -0.00000000000E+00 -0.29024506527E+03  0.29024506527E+03  0.00000000000E+00 0.  1.
         21    1    1    2  503  504 -0.68735955861E+02 -0.32539367428E+01 -0.66870128527E+02  0.95952247611E+02  0.00000000000E+00 0. -1.
         21    1    1    2  504  502 -0.23308459580E+02  0.45089823927E+02  0.19450200156E+04  0.19456822036E+04  0.00000000000E+00 0. -1.
         21    1    1    2  505  501 -0.25786989795E+02 -0.37884362314E+02  0.11207664589E+04  0.11217030129E+04  0.00000000000E+00 0. -1.
          2    1    1    2  501    0  0.11783140524E+03 -0.39515248708E+01 -0.19133072124E+03  0.22473829113E+03  0.00000000000E+00 0.  1.
<scales pt_clust_3="91.58457" pt_clust_4="49.30935" pt_clust_5="45.82787" pt_clust_6="14000.00000"></scales>
<clustering>
<clus scale="   45.828">  1  5  2 -1</clus>
<clus scale="   49.309">  1  4  2 -1</clus>
<clus scale="   91.585">  2  3  1 -1</clus>
<clus scale="   45.828">  1  3  2 -1</clus>
</clustering>
</event>
<event>
 6    0  0.3082502E+002  0.5612684E+02  0.7546771E-02  0.1414844E+00
          1   -1    0    0  503    0 -0.00000000000E+00  0.00000000000E+00  0.11303477493E+04  0.11303477493E+04  0.00000000000E+00 0.  1.
         21   -1    0    0  505  502  0.00000000000E+00 -0.00000000000E+00 -0.26449642840E+03  0.26449642840E+03  0.00000000000E+00 0.  1.
         21    1    1    2  503  502 -0.30170664699E+01 -0.99942786115E+02  0.61436658544E+03  0.62244996947E+03  0.00000000000E+00 0.  1.
         21    1    1    2  504  501 -0.58396275924E+02  0.55730609322E+02 -0.15230798954E+03  0.17237676622E+03  0.00000000000E+00 0.  1.
         21    1    1    2  505  504  0.45118044413E+02 -0.25002865181E+01 -0.91611168426E+02  0.10214937858E+03  0.00000000000E+00 0.  1.
          1    1    1    2  501    0  0.16295297980E+02  0.46712463312E+02  0.49540389339E+03  0.49786806340E+03  0.00000000000E+00 0.  1.
<scales pt_clust_3="56.12684" pt_clust_4="14000.00000" pt_clust_5="45.18727" pt_clust_6="49.56604"></scales>
<clustering>
<clus scale="   45.187">  2  5  1 -1</clus>
<clus scale="   49.566">  1  6  2 -1</clus>
<clus scale="   56.127">  1  3  2 -1</clus>
<clus scale="   45.187">  2  3  1 -1</clus>
</clustering>
</event>
<event>
 6    0  0.3082502E+002  0.9665923E+02  0.7546771E-02  0.1287482E+00
          2   -1    0    0  504    0 -0.00000000000E+00  0.00000000000E+00  0.21213334412E+04  0.21213334412E+04  0.00000000000E+00 0. -1.
         21   -1    0    0  501  502  0.00000000000E+00 -0.00000000000E+00 -0.82163894136E+02  0.82163894136E+02  0.00000000000E+00 0. -1.
         21    1    1    2  503  502  0.15689949806E+02 -0.32444522906E+02 -0.28629402451E+02  0.46026777817E+02  0.00000000000E+00 0. -1.
         21    1    1    2  504  505  0.66535927962E+02  0.41401279048E+02  0.18606112540E+04  0.18622608126E+04  0.00000000000E+00 0. -1.
         21    1    1    2  505  503  0.24832195056E+02 -0.77847871621E+02  0.65458269392E+02  0.10469820466E+03  0.00000000000E+00 0. -1.
          2    1    1    2  501    0 -0.10705807282E+03  0.68891115479E+02  0.14172942617E+03  0.19051154031E+03  0.00000000000E+00 0. -1.
<scales pt_clust_3="36.03917" pt_clust_4="78.29766" pt_clust_5="96.65923" pt_clust_6="14000.00000"></scales>
<clustering>
<clus scale="   36.039">  2  3  1 -1</clus>
<clus scale="   78.298">  1  4  2 -1</clus>
<clus scale="   96.659">  2  5  1 -1</clus>
<clus scale="   36.039">  2  3  1 -1</clus>
</clustering>
</event>
<event>
 6    0  0.3082502E+002  0.1630897E+03  0.7546771E-02  0.1185252E+00
          2   -1    0    0  504    0 -0.00000000000E+00  0.00000000000E+00  0.74415786978E+03  0.74415786978E+03  0.00000000000E+00 0.  1.
         21   -1    0    0  503  502  0.00000000000E+00 -0.00000000000E+00 -0.73691394142E+02  0.73691394142E+02  0.00000000000E+00 0.  1.
         21    1    1    2  503  501  0.80785453234E+02  0.15288742215E+02  0.13337786749E+03  0.15668340892E+03  0.00000000000E+00 0.  1.
         21    1    1    2  504  505 -0.12361907319E+02  0.39336832225E+02  0.32985529799E+03  0.33242250335E+03  0.00000000000E+00 0. -1.
         21    1    1    2  505  502 -0.15043211927E+03 -0.16739604638E+02  0.75857249736E+02  0.16930552031E+03  0.00000000000E+00 0.  1.
          2    1    1    2  501    0  0.82008573353E+02 -0.37885969803E+02  0.13137606042E+03  0.15943783134E+03  0.00000000000E+00 0.  1.
<scales pt_clust_3="52.99073" pt_clust_4="41.23352" pt_clust_5="154.18426" pt_clust_6="52.99073"></scales>
<clustering>
<clus scale="   41.234">  1  4  2 -1</clus>
<clus scale="   52.991">  3  6 -1 -1</clus>
<clus scale="  154.184">  2  5  1 -1</clus>
<clus scale="  154.184">  2  3  1 -1</clus>
</clustering>
</event>
<event>
 6    0  0.3082502E+002  0.1326407E+03  0.7546771E-02  0.1223589E+00
         21   -1    0    0  504  502  0.00000000000E+00  0.00000000000E+00  0.54798644878E+03  0.54798644878E+03  0.00000000000E+00 0. -1.
          2   -1    0    0  505    0 -0.00000000000E+00 -0.00000000000E+00 -0.11453637545E+04  0.11453637545E+04  0.00000000000E+00 0. -1.
         21    1    1    2  503  501  0.84169120198E+02  0.42628330811E+02 -0.37084265351E+02  0.10137483968E+03  0.00000000000E+00 0.  1.
         21    1    1    2  504  503  0.15309468423E+02  0.33776040628E+02  0.12418710538E+02  0.39107865133E+02  0.00000000000E+00 0.  1.
         21    1    1    2  505  502  0.18078807638E+02 -0.54647873595E+02  0.48500846778E+03  0.48841216938E+03  0.00000000000E+00 0. -1.
          2    1    1    2  501    0 -0.11755739626E+03 -0.21756497844E+02 -0.10577202187E+04  0.10644553291E+04  0.00000000000E+00 0. -1.
<scales pt_clust_3="36.52084" pt_clust_4="36.52084" pt_clust_5="57.56069" pt_clust_6="119.16449"></scales>
<clustering>
<clus scale="   36.521">  3  4 -1 -1</clus>
<clus scale="   57.561">  1  5  2 -1</clus>
<clus scale="  119.164">  2  6  1 -1</clus>
<clus scale="   57.561">  1  3  2 -1</clus>
</clustering>
</event>
<event>
 6    0  0.3082502E+002  0.2663230E+03  0.7546771E-02  0.1103403E+00
         21   -1    0    0  504  502  0.00000000000E+00  0.00000000000E+00  0.20900904099E+03  0.20900904099E+03  0.00000000000E+00 0.  1.
          2   -1    0    0  505    0 -0.00000000000E+00 -0.00000000000E+00 -0.21202531933E+04  0.21202531933E+04  0.00000000000E+00 0. -1.
         21    1    1    2  503  502 -0.26376205266E+03 -0.64698368203E+02 -0.56400575266E+03  0.62598625248E+03  0.00000000000E+00 0.  1.
         21    1    1    2  504  501  0.12584525242E+02  0.75396339851E+02  0.13776443676E+03  0.15755005037E+03  0.00000000000E+00 0.  1.
         21    1    1    2  505  503 -0.18685446390E+02  0.29163097024E+02 -0.89545765138E+03  0.89612724406E+03  0.00000000000E+00 0.  1.
          2    1    1    2  501    0  0.26986297380E+03 -0.39861068673E+02 -0.58954518499E+03  0.64959868732E+03  0.00000000000E+00 0. -1.
<scales pt_clust_3="266.32298" pt_clust_4="76.64716" pt_clust_5="34.63571" pt_clust_6="14000.00000"></scales>
<clustering>
<clus scale="   34.636">  2  5  1 -1</clus>
<clus scale="   76.647">  1  4  2 -1</clus>
<clus scale="  266.323">  1  3  2 -1</clus>
<clus scale="   76.647">  1  3  2 -1</clus>
</clustering>
</event>
<event>
 6    0  0.3082502E+002  0.1009691E+03  0.7546771E-02  0.1278271E+00
         21   -1    0    0  503  502  0.00000000000E+00  0.00000000000E+00  0.58364874130E+02  0.58364874130E+02  0.00000000000E+00 0. -1.
          1   -1    0    0  504    0 -0.00000000000E+00 -0.00000000000E+00 -0.45515974977E+04  0.45515974977E+04  0.00000000000E+00 0. -1.
         21    1    1    2  503  501 -0.17496526331E+01  0.10914881842E+03 -0.32484391099E+03  0.34269533460E+03  0.00000000000E+00 0. -1.
         21    1    1    2  504  505 -0.26840547060E+02  0.21329314520E+02 -0.11843973276E+04  0.11848934063E+04  0.00000000000E+00 0. -1.
         21    1    1    2  505  502  0.62924183679E+02 -0.81158212810E+02 -0.50417598978E+01  0.10281793492E+03  0.00000000000E+00 0. -1.
          1    1    1    2  501    0 -0.34333983985E+02 -0.49319920133E+02 -0.29789496251E+04  0.29795556960E+04  0.00000000000E+00 0. -1.
<scales pt_clust_3="100.96910" pt_clust_4="34.28345" pt_clust_5="14000.00000" pt_clust_6="65.57999"></scales>
<clustering>
<clus scale="   34.283">  2  4  1 -1</clus>
<clus scale="   65.580">  2  6  1 -1</clus>
<clus scale="  100.969">  2  3  1 -1</clus>
<clus scale="  100.969">  1  3  2 -1</clus>
</clustering>
</event>
<event>
 6    0  0.3082502E+002  0.8034809E+02  0.7546771E-02  0.1328066E+00
         -1   -1    0    0    0  501 -0.00000000000E+00  0.00000000000E+00  0.12225583701E+03  0.12225583701E+03  0.00000000000E+00 0.  1.
         21   -1    0    0  505  502  0.00000000000E+00 -0.00000000000E+00 -0.11408365106E+04  0.11408365106E+04  0.00000000000E+00 0. -1.
         21    1    1    2  503  502 -0.15866908985E+02  0.71395207712E+02 -0.29430441099E+03  0.30325586691E+03  0.00000000000E+00 0. -1.
         21    1    1    2  504  501  0.38983934021E+02  0.15183528652E+02 -0.15977242369E+02  0.44783467126E+02  0.00000000000E+00 0. -1.
         21    1    1    2  505  504  0.74577203053E+02 -0.16807272956E+02 -0.77429367237E+03  0.77805843914E+03  0.00000000000E+00 0. -1.
         -1    1    1    2    0  503 -0.97694228090E+02 -0.69771463408E+02  0.65994652152E+02  0.13699457442E+03  0.00000000000E+00 0.  1.
<scales pt_clust_3="73.42126" pt_clust_4="41.83643" pt_clust_5="80.34809" pt_clust_6="14000.00000"></scales>
<clustering>
<clus scale="   41.836">  1  4  2 -1</clus>
<clus scale="   73.421">  2  3  1 -1</clus>
<clus scale="   80.348">  2  5  1 -1</clus>
<clus scale="   73.421">  2  3  1 -1</clus>
</clustering>
</event>
<event>
 6    0  0.3082502E+002  0.9369109E+02  0.7546771E-02  0.1294152E+00
         -1   -1    0    0    0  501 -0.00000000000E+00  0.00000000000E+00  0.14057153623E+04  0.14057153623E+04  0.00000000000E+00 0. -1.
         21   -1    0    0  504  502  0.00000000000E+00 -0.00000000000E+00 -0.28850213953E+03  0.28850213953E+03  0.00000000000E+00 0. -1.
         21    1    1    2  503  501 -0.27472213117E+01 -0.48321653223E+02  0.10425554789E+04  0.10436783298E+04  0.00000000000E+00 0. -1.
         21    1    1    2  504  503 -0.12121032462E+03 -0.57834667373E+01 -0.20806582204E+02  0.12311906898E+03  0.00000000000E+00 0. -1.
         21    1    1    2  505  502  0.34464151663E+02 -0.11694342996E+02 -0.20441480024E+03  0.20762934755E+03  0.00000000000E+00 0. -1.
         -1    1    1    2    0  505  0.89493394272E+02  0.65799462957E+02  0.29987912627E+03  0.31979075552E+03  0.00000000000E+00 0. -1.
<scales pt_clust_3="48.46643" pt_clust_4="93.69109" pt_clust_5="36.39417" pt_clust_6="14000.00000"></scales>
<clustering>
<clus scale="   36.394">  2  5  1 -1</clus>
<clus scale="   48.466">  1  3  2 -1</clus>
<clus scale="   93.691">  2  4  1 -1</clus>
<clus scale="   36.394">  2  3  1 -1</clus>
</clustering>
</event>
<event>
 6    0  0.3082502E+002  0.8966557E+02  0.7546771E-02  0.1303664E+00
         21   -1    0    0  505  502  0.00000000000E+00  0.00000000000E+00  0.86527502095E+02  0.86527502095E+02  0.00000000000E+00 0.  1.
          2   -1    0    0  504    0 -0.00000000000E+00 -0.00000000000E+00 -0.75561385740E+03  0.75561385740E+03  0.00000000000E+00 0.  1.
         21    1    1    2  503  502  0.11256920057E+03 -0.25289449971E+02 -0.49988907467E+01  0.11548320270E+03  0.00000000000E+00 0.  1.
         21    1    1    2  504  503 -0.47969940044E+02  0.10081383107E+01 -0.44010810344E+03  0.44271579394E+03  0.00000000000E+00 0.  1.
         21    1    1    2  505  501 -0.70847563157E+02 -0.20518640095E+02 -0.22014739849E+02  0.76974285104E+02  0.00000000000E+00 0.  1.
          2    1    1    2  501    0  0.62483026274E+01  0.44799951755E+02 -0.20196462127E+03  0.20696807775E+03  0.00000000000E+00 0.  1.
<scales pt_clust_3="89.66557" pt_clust_4="56.62856" pt_clust_5="14000.00000" pt_clust_6="45.23358"></scales>
<clustering>
<clus scale="   45.234">  2  6  1 -1</clus>
<clus scale="   56.629">  2  4  1 -1</clus>
<clus scale="   89.666">  2  3  1 -1</clus>
<clus scale="   89.666">  1  3  2 -1</clus>
</clustering>
</event>
<event>
 6    0  0.3082502E+002  0.1251725E+03  0.7546771E-02  0.1234800E+00
          1   -1    0    0  504    0 -0.00000000000E+00  0.00000000000E+00  0.11784963381E+04  0.11784963381E+04  0.00000000000E+00 0. -1.
         21   -1    0    0  503  502  0.00000000000E+00 -0.00000000000E+00 -0.79392070525E+03  0.79392070525E+03  0.00000000000E+00 0.  1.
         21    1    1    2  503  501  0.24796081737E+02 -0.56398344464E+02 -0.22497985916E+03  0.23326284736E+03  0.00000000000E+00 0.  1.
         21    1    1    2  504  505  0.31219882145E+02 -0.22650880759E+02  0.21378308035E+02  0.44099608782E+02  0.00000000000E+00 0.  1.
         21    1    1    2  505  502 -0.11790431092E+03 -0.28140799756E+02 -0.54338608780E+03  0.55674210507E+03  0.00000000000E+00 0.  1.
          1    1    1    2  501    0  0.61888347043E+02  0.10719002498E+03  0.11315632718E+04  0.11383124822E+04  0.00000000000E+00 0. -1.
<scales pt_clust_3="61.72900" pt_clust_4="38.57128" pt_clust_5="125.17246" pt_clust_6="14000.00000"></scales>
<clustering>
<clus scale="   38.571">  1  4  2 -1</clus>
<clus scale="   61.729">  2  3  1 -1</clus>
<clus scale="  125.172">  2  5  1 -1</clus>
<clus scale="   61.729">  2  3  1 -1</clus>
</clustering>
</event>
<event>
 6    0  0.3082502E+002  0.1417356E+03  0.7546771E-02  0.1211012E+00
         21   -1    0    0  501  502  0.00000000000E+00  0.00000000000E+00  0.12778763726E+04  0.12778763726E+04  0.00000000000E+00 0. -1.
          2   -1    0    0  505    0 -0.00000000000E+00 -0.00000000000E+00 -0.52213180895E+02  0.52213180895E+02  0.00000000000E+00 0. -1.
         21    1    1    2  503  502  0.49055754578E+02 -0.26476001880E+02  0.76580366475E+03  0.76782986310E+03  0.00000000000E+00 0. -1.
         21    1    1    2  504  503  0.62126581299E+02 -0.11367280675E+03  0.16870902319E+03  0.21270626132E+03  0.00000000000E+00 0. -1.
         21    1    1    2  505  504 -0.30590553383E+02  0.60983146158E+00  0.65275117066E+02  0.72090184898E+02  0.00000000000E+00 0. -1.
          2    1    1    2  501    0 -0.80591782493E+02  0.13953897717E+03  0.22587538672E+03  0.27746324420E+03  0.00000000000E+00 0. -1.
<scales pt_clust_3="55.18042" pt_clust_4="14000.00000" pt_clust_5="30.59663" pt_clust_6="141.73561"></scales>
<clustering>
<clus scale="   30.597">  2  5  1 -1</clus>
<clus scale="   55.180">  1  3  2 -1</clus>
<clus scale="  141.736">  1  6  2 -1</clus>
<clus scale="   55.180">  1  3  2 -1</clus>
</clustering>
</event>
<event>
 6    0  0.3082502E+002  0.7911918E+02  0.7546771E-02  0.1331570E+00
          3   -1    0    0  503    0 -0.00000000000E+00  0.00000000000E+00  0.25027409264E+04  0.25027409264E+04  0.00000000000E+00 0. -1.
         21   -1    0    0  505  502  0.00000000000E+00 -0.00000000000E+00 -0.54088467471E+02  0.54088467471E+02  0.00000000000E+00 0. -1.
         21    1    1    2  503  504  0.57385690863E+02  0.18643851389E+02  0.16676257682E+04  0.16687169962E+04  0.00000000000E+00 0. -1.
         21    1    1    2  504  502  0.30926834351E+02 -0.10705542399E+03  0.41858813541E+02  0.11903568020E+03  0.00000000000E+00 0. -1.
         21    1    1    2  505  501 -0.73484379204E+01  0.34990839226E+02  0.15554701990E+02  0.38991115957E+02  0.00000000000E+00 0. -1.
          3    1    1    2  501    0 -0.80964087294E+02  0.53420733378E+02  0.72361317516E+03  0.73008560146E+03  0.00000000000E+00 0. -1.
<scales pt_clust_3="60.38927" pt_clust_4="79.11918" pt_clust_5="35.75414" pt_clust_6="14000.00000"></scales>
<clustering>
<clus scale="   35.754">  2  5  1 -1</clus>
<clus scale="   60.389">  1  3  2 -1</clus>
<clus scale="   79.119">  2  4  1 -1</clus>
<clus scale="   35.754">  2  3  1 -1</clus>
</clustering>
</event>
<event>
 6    0  0.3082502E+002  0.1343769E+03  0.7546771E-02  0.1221102E+00
          1   -1    0    0  503    0 -0.00000000000E+00  0.00000000000E+00  0.14943042498E+04  0.14943042498E+04  0.00000000000E+00 0.  1.
         21   -1    0    0  505  502  0.00000000000E+00 -0.00000000000E+00 -0.20970280969E+03  0.20970280969E+03  0.00000000000E+00 0.  1.
         21    1    1    2  503  504 -0.23844919783E+02 -0.18883246517E+02  0.91104206176E+02  0.96047558957E+02  0.00000000000E+00 0.  1.
         21    1    1    2  504  502 -0.13991861535E+03 -0.34163294280E+02 -0.12519492294E+03  0.19083531730E+03  0.00000000000E+00 0.  1.
         21    1    1    2  505  501  0.11562853570E+03 -0.75811720742E+02  0.59639557818E+02  0.15057972017E+03  0.00000000000E+00 0.  1.
          1    1    1    2  501    0  0.48134999435E+02  0.12885826154E+03  0.12590525991E+04  0.12665444631E+04  0.00000000000E+00 0.  1.
<scales pt_clust_3="30.41640" pt_clust_4="14000.00000" pt_clust_5="134.37687" pt_clust_6="114.96318"></scales>
<clustering>
<clus scale="   30.416">  1  3  2 -1</clus>
<clus scale="  114.963">  1  6  2 -1</clus>
<clus scale="  134.377">  1  5  2 -1</clus>
<clus scale="  134.377">  2  3  1 -1</clus>
</clustering>
</event>
<event>
 6    0  0.3082502E+002  0.7289576E+02  0.7546771E-02  0.1350514E+00
          1   -1    0    0  504    0 -0.00000000000E+00  0.00000000000E+00  0.17041371462E+04  0.17041371462E+04  0.00000000000E+00 0. -1.
         21   -1    0    0  501  502  0.00000000000E+00 -0.00000000000E+00 -0.84596470428E+02  0.84596470428E+02  0.00000000000E+00 0. -1.
         21    1    1    2  503  502 -0.32766474264E+02 -0.88022761486E+01 -0.53024923270E+02  0.62950491570E+02  0.00000000000E+00 0. -1.
         21    1    1    2  504  505 -0.84802671814E+01  0.32656635489E+02  0.67832273201E+03  0.67916132070E+03  0.00000000000E+00 0. -1.
         21    1    1    2  505  503  0.97606674783E+02  0.34640495567E+02  0.85631180158E+02  0.13438647964E+03  0.00000000000E+00 0. -1.
          1    1    1    2  501    0 -0.56359933337E+02 -0.58494854908E+02  0.90861168689E+03  0.91223532473E+03  0.00000000000E+00 0. -1.
<scales pt_clust_3="33.92721" pt_clust_4="33.73975" pt_clust_5="72.89576" pt_clust_6="14000.00000"></scales>
<clustering>
<clus scale="   33.740">  1  4  2 -1</clus>
<clus scale="   33.927">  2  3  1 -1</clus>
<clus scale="   72.896">  2  5  1 -1</clus>
<clus scale="   33.927">  2  3  1 -1</clus>
</clustering>
</event>
<event>
 6    0  0.3082502E+002  0.1102768E+03  0.7546771E-02  0.1260058E+00
          1   -1    0    0  505    0 -0.00000000000E+00  0.00000000000E+00  0.65507147193E+03  0.65507147193E+03  0.00000000000E+00 0.  1.
         21   -1    0    0  501  502  0.00000000000E+00 -0.00000000000E+00 -0.23817231869E+03  0.23817231869E+03  0.00000000000E+00 0.  1.
         21    1    1    2  503  504  0.38703262561E+02 -0.16675228696E+03 -0.55622033518E+02  0.17999466201E+03  0.00000000000E+00 0.  1.
         21    1    1    2  504  502 -0.22387437857E+02  0.58120010143E+02 -0.10396031724E+03  0.12118944060E+03  0.00000000000E+00 0.  1.
         21    1    1    2  505  503  0.31070217333E+02  0.40515844243E+02  0.18758922456E+03  0.19441350059E+03  0.00000000000E+00 0.  1.
          1    1    1    2  501    0 -0.47386042037E+02  0.68116432576E+02  0.38889227943E+03  0.39764618742E+03  0.00000000000E+00 0.  1.
<scales pt_clust_3="110.27683" pt_clust_4="62.78241" pt_clust_5="51.05773" pt_clust_6="14000.00000"></scales>
<clustering>
<clus scale="   51.058">  1  5  2 -1</clus>
<clus scale="   62.782">  2  4  1 -1</clus>
<clus scale="  110.277">  2  3  1 -1</clus>
<clus scale="   62.782">  2  3  1 -1</clus>
</clustering>
</event>
<event>
 6    0  0.3082502E+002  0.7249770E+02  0.7546771E-02  0.1351800E+00
         21   -1    0    0  503  502  0.00000000000E+00  0.00000000000E+00  0.95360127965E+03  0.95360127965E+03  0.00000000000E+00 0. -1.
          2   -1    0    0  505    0 -0.00000000000E+00 -0.00000000000E+00 -0.30856729653E+03  0.30856729653E+03  0.00000000000E+00 0.  1.
         21    1    1    2  503  504  0.33085899482E+02 -0.53692174051E+02  0.76496711155E+03  0.76756251084E+03  0.00000000000E+00 0. -1.
         21    1    1    2  504  501  0.32467344475E+02  0.82255285458E+02  0.13205155887E+03  0.15892663289E+03  0.00000000000E+00 0. -1.
         21    1    1    2  505  502 -0.22788795165E+01  0.60401062555E+02  0.66964460149E+00  0.60447746638E+02  0.00000000000E+00 0. -1.
          2    1    1    2  501    0 -0.63274364441E+02 -0.88964173963E+02 -0.25265433189E+03  0.27523168580E+03  0.00000000000E+00 0.  1.
<scales pt_clust_3="62.82277" pt_clust_4="72.49770" pt_clust_5="60.44404" pt_clust_6="14000.00000"></scales>
<clustering>
<clus scale="   60.444">  2  5  1 -1</clus>
<clus scale="   62.823">  1  3  2 -1</clus>
<clus scale="   72.498">  1  4  2 -1</clus>
<clus scale="   62.823">  1  3  2 -1</clus>
</clustering>
</event>
<event>
 6    0  0.3082502E+002  0.8828058E+02  0.7546771E-02  0.1307070E+00
          1   -1    0    0  503    0 -0.00000000000E+00  0.00000000000E+00  0.17402810583E+04  0.17402810583E+04  0.00000000000E+00 0. -1.
         21   -1    0    0  504  502  0.00000000000E+00 -0.00000000000E+00 -0.27292248069E+03  0.27292248069E+03  0.00000000000E+00 0. -1.
         21    1    1    2  503  505  0.69290558151E+02  0.27760553172E+02  0.82024085715E+03  0.82363031361E+03  0.00000000000E+00 0. -1.
         21    1    1    2  504  501  0.10664115970E+02 -0.62615069485E+02 -0.16971244986E+03  0.18120895655E+03  0.00000000000E+00 0. -1.
         21    1    1    2  505  502  0.75326429492E+02  0.65820112419E+02 -0.60470720440E+02  0.11688911929E+03  0.00000000000E+00 0. -1.
          1    1    1    2  501    0 -0.15528110361E+03 -0.30965596106E+02  0.87730089075E+03  0.89147514951E+03  0.00000000000E+00 0. -1.
<scales pt_clust_3="74.41973" pt_clust_4="63.51669" pt_clust_5="14000.00000" pt_clust_6="88.28058"></scales>
<clustering>
<clus scale="   63.517">  2  4  1 -1</clus>
<clus scale="   74.420">  1  3  2 -1</clus>
<clus scale="   88.281">  1  6  2 -1</clus>
<clus scale="   63.517">  2  3  1 -1</clus>
</clustering>
</event>
<event>
 6    0  0.3082502E+002  0.1150491E+03  0.7546771E-02  0.1251495E+00
          2   -1    0    0  503    0 -0.00000000000E+00  0.00000000000E+00  0.84539484899E+03  0.84539484899E+03  0.00000000000E+00 0. -1.
         21   -1    0    0  504  502  0.00000000000E+00 -0.00000000000E+00 -0.12604142060E+03  0.12604142060E+03  0.00000000000E+00 0. -1.
         21    1    1    2  503  505  0.40461186957E+02  0.29306246205E+02  0.85177870779E+02  0.98748333592E+02  0.00000000000E+00 0.  1.
         21    1    1    2  504  501  0.86031672892E+02 -0.41828809021E+02 -0.18548344847E+02  0.97443004373E+02  0.00000000000E+00 0. -1.
         21    1    1    2  505  502 -0.54070410473E+02 -0.80403238057E+02 -0.14258967897E+02  0.97936755839E+02  0.00000000000E+00 0. -1.
          2    1    1    2  501    0 -0.72422449376E+02  0.92925800873E+02  0.66698287036E+03  0.67730817579E+03  0.00000000000E+00 0. -1.
<scales pt_clust_3="49.95962" pt_clust_4="14000.00000" pt_clust_5="94.29376" pt_clust_6="115.04912"></scales>
<clustering>
<clus scale="   49.960">  1  3  2 -1</clus>
<clus scale="   94.294">  2  5  1 -1</clus>
<clus scale="  115.049">  1  6  2 -1</clus>
<clus scale="   94.294">  2  3  1 -1</clus>
</clustering>
</event>
<event>
 6    0  0.3082502E+002  0.9393644E+02  0.7546771E-02  0.1293590E+00
         21   -1    0    0  504  502  0.00000000000E+00  0.00000000000E+00  0.15753538690E+03  0.15753538690E+03  0.00000000000E+00 0.  1.
          2   -1    0    0  503    0 -0.00000000000E+00 -0.00000000000E+00 -0.67054207226E+03  0.67054207226E+03  0.00000000000E+00 0.  1.
         21    1    1    2  503  505  0.38215349051E+02 -0.29798280463E+02 -0.51983533814E+02  0.71067842302E+02  0.00000000000E+00 0.  1.
         21    1    1    2  504  501  0.77968095676E+02  0.53675183290E+02  0.10658816503E+03  0.14255204723E+03  0.00000000000E+00 0.  1.
         21    1    1    2  505  502 -0.57664157803E+02  0.48375660467E+02 -0.48272638707E+03  0.48855923325E+03  0.00000000000E+00 0.  1.
          2    1    1    2  501    0 -0.58519286924E+02 -0.72252563293E+02 -0.84884929506E+02  0.12589833637E+03  0.00000000000E+00 0.  1.
<scales pt_clust_3="48.45978" pt_clust_4="93.93644" pt_clust_5="36.67644" pt_clust_6="14000.00000"></scales>
<clustering>
<clus scale="   48.460">  2  3  1 -1</clus>
<clus scale="   36.676">  2  5  1 -1</clus>
<clus scale="   93.936">  1  4  2 -1</clus>
<clus scale="   93.936">  1  3  2 -1</clus>
</clustering>
</event>
<event>
 6    0  0.3082502E+002  0.1781691E+03  0.7546771E-02  0.1169587E+00
          2   -1    0    0  505    0 -0.00000000000E+00  0.00000000000E+00  0.27598224981E+04  0.27598224981E+04  0.00000000000E+00 0. -1.
         21   -1    0    0  504  502  0.00000000000E+00 -0.00000000000E+00 -0.50317168454E+03  0.50317168454E+03  0.00000000000E+00 0.  1.
         21    1    1    2  503  502  0.14133657477E+03 -0.12807973752E+03 -0.27536589330E+03  0.33497286715E+03  0.00000000000E+00 0.  1.
         21    1    1    2  504  501 -0.10974234881E+03  0.12187716125E+03 -0.15879559436E+03  0.22828374087E+03  0.00000000000E+00 0.  1.
         21    1    1    2  505  503 -0.12904414900E+02 -0.39038571999E+02  0.95638140265E+02  0.10410181507E+03  0.00000000000E+00 0.  1.
          2    1    1    2  501    0 -0.18689811063E+02  0.45241148269E+02  0.25951741610E+04  0.25956357596E+04  0.00000000000E+00 0. -1.
<scales pt_clust_3="178.16905" pt_clust_4="14000.00000" pt_clust_5="41.11610" pt_clust_6="32.08780"></scales>
<clustering>
<clus scale="   41.116">  1  5  2 -1</clus>
<clus scale="   32.088">  1  6  2 -1</clus>
<clus scale="  178.169">  2  3  1 -1</clus>
<clus scale="  178.169">  2  3  1 -1</clus>
</clustering>
</event>
<event>
 6    0  0.3082502E+002  0.1738380E+03  0.7546771E-02  0.1173903E+00
          2   -1    0    0  503    0 -0.00000000000E+00  0.00000000000E+00  0.59557194640E+03  0.59557194640E+03  0.00000000000E+00 0. -1.
         21   -1    0    0  504  502  0.00000000000E+00 -0.00000000000E+00 -0.44548750035E+03  0.44548750035E+03  0.00000000000E+00 0.  1.
         21    1    1    2  503  505  0.47739081112E+02 -0.39086298840E+02  0.94756262514E+00  0.61706211174E+02  0.00000000000E+00 0. -1.
         21    1    1    2  504  501  0.52151845774E+02 -0.68400203269E+02 -0.32337859171E+03  0.33462234893E+03  0.00000000000E+00 0.  1.
         21    1    1    2  505  502 -0.96647878762E+01 -0.45588920411E+02 -0.64220496285E+02  0.79347526313E+02  0.00000000000E+00 0.  1.
          2    1    1    2  501    0 -0.90226139010E+02  0.15307542252E+03  0.53673597142E+03  0.56538336034E+03  0.00000000000E+00 0. -1.
<scales pt_clust_3="63.52800" pt_clust_4="173.83803" pt_clust_5="46.60212" pt_clust_6="14000.00000"></scales>
<clustering>
<clus scale="   46.602">  2  5  1 -1</clus>
<clus scale="   63.528">  2  3  1 -1</clus>
<clus scale="  173.838">  2  4  1 -1</clus>
<clus scale="   46.602">  2  3  1 -1</clus>
</clustering>
</event>
<event>
 6    0  0.3082502E+002  0.9446803E+02  0.7546771E-02  0.1292379E+00
          2   -1    0    0  504    0 -0.00000000000E+00  0.00000000000E+00  0.51220448225E+04  0.51220448225E+04  0.00000000000E+00 0. -1.
         21   -1    0    0  503  502  0.00000000000E+00 -0.00000000000E+00 -0.15574366472E+02  0.15574366472E+02  0.00000000000E+00 0. -1.
         21    1    1    2  503  501 -0.59018401982E+02 -0.74715176445E+02  0.18165975162E+03  0.20509947519E+03  0.00000000000E+00 0. -1.
         21    1    1    2  504  505  0.35193510893E+02 -0.35074445371E+02  0.14585061166E+04  0.14593522166E+04  0.00000000000E+00 0. -1.
         21    1    1    2  505  502  0.30324707701E+02 -0.13689764405E+02  0.11855719531E+03  0.12313734651E+03  0.00000000000E+00 0. -1.
          2    1    1    2  501    0 -0.64998166112E+01  0.12347938622E+03  0.33477473925E+04  0.33500301507E+04  0.00000000000E+00 0. -1.
<scales pt_clust_3="94.46803" pt_clust_4="50.68016" pt_clust_5="33.27157" pt_clust_6="14000.00000"></scales>
<clustering>
<clus scale="   33.272">  2  5  1 -1</clus>
<clus scale="   50.680">  1  4  2 -1</clus>
<clus scale="   94.468">  2  3  1 -1</clus>
<clus scale="   33.272">  2  3  1 -1</clus>
</clustering>
</event>
<event>
 6    0  0.3082502E+002  0.9238452E+02  0.7546771E-02  0.1297178E+00
         21   -1    0    0  501  502  0.00000000000E+00  0.00000000000E+00  0.38323368997E+03  0.38323368997E+03  0.00000000000E+00 0.  1.
          1   -1    0    0  503    0 -0.00000000000E+00 -0.00000000000E+00 -0.54173865694E+03  0.54173865694E+03  0.00000000000E+00 0. -1.
         21    1    1    2  503  505 -0.51984910408E+02 -0.14758554797E+01 -0.13246037192E+03  0.14230375676E+03  0.00000000000E+00 0. -1.
         21    1    1    2  504  502  0.14438358518E+02 -0.32860932764E+02  0.34928113460E+03  0.35112051790E+03  0.00000000000E+00 0.  1.
         21    1    1    2  505  504  0.40927454861E+02  0.10915071421E+03 -0.12797410597E+03  0.17310778946E+03  0.00000000000E+00 0. -1.
          1    1    1    2  501    0 -0.33809029701E+01 -0.74813925971E+02 -0.24735162369E+03  0.25844028279E+03  0.00000000000E+00 0. -1.
<scales pt_clust_3="50.23940" pt_clust_4="35.89300" pt_clust_5="14000.00000" pt_clust_6="92.38452"></scales>
<clustering>
<clus scale="   35.893">  1  4  2 -1</clus>
<clus scale="   50.239">  2  3  1 -1</clus>
<clus scale="   92.385">  2  6  1 -1</clus>
<clus scale="   35.893">  1  3  2 -1</clus>
</clustering>
</event>
<event>
 6    0  0.3082502E+002  0.1238414E+03  0.7546771E-02  0.1236891E+00
          1   -1    0    0  505    0 -0.00000000000E+00  0.00000000000E+00  0.13723976249E+04  0.13723976249E+04  0.00000000000E+00 0.  1.
         21   -1    0    0  503  502  0.00000000000E+00 -0.00000000000E+00 -0.12407677662E+03  0.12407677662E+03  0.00000000000E+00 0. -1.
         21    1    1    2  503  504 -0.18114676589E+02 -0.40892095412E+02  0.11468179425E+02  0.46171680871E+02  0.00000000000E+00 0.  1.
         21    1    1    2  504  501  0.13351718927E+03  0.85059979785E+02 -0.37123235658E+02  0.16260434993E+03  0.00000000000E+00 0. -1.
         21    1    1    2  505  502 -0.31605511302E+02  0.34347133989E+02  0.74214648073E+03  0.74361282454E+03  0.00000000000E+00 0.  1.
          1    1    1    2  501    0 -0.83797001381E+02 -0.78515018361E+02  0.53182942379E+03  0.54408554617E+03  0.00000000000E+00 0.  1.
<scales pt_clust_3="44.72477" pt_clust_4="14000.00000" pt_clust_5="46.55424" pt_clust_6="123.84143"></scales>
<clustering>
<clus scale="   44.725">  2  3  1 -1</clus>
<clus scale="   46.554">  1  5  2 -1</clus>
<clus scale="  123.841">  1  6  2 -1</clus>
<clus scale="   44.725">  2  3  1 -1</clus>
</clustering>
</event>
<event>
 6    0  0.3082502E+002  0.1454920E+03  0.7546771E-02  0.1206124E+00
          2   -1    0    0  504    0 -0.00000000000E+00  0.00000000000E+00  0.18560955263E+04  0.18560955263E+04  0.00000000000E+00 0.  1.
         21   -1    0    0  503  502  0.00000000000E+00 -0.00000000000E+00 -0.25857628810E+03  0.25857628810E+03  0.00000000000E+00 0.  1.
         21    1    1    2  503  505  0.91603737092E+01  0.10994574192E+03 -0.18701943496E+03  0.21713647244E+03  0.00000000000E+00 0.  1.
         21    1    1    2  504  502  0.25301558236E+02 -0.23305030359E+02 -0.36736179564E+02  0.50327330330E+02  0.00000000000E+00 0.  1.
         21    1    1    2  505  501  0.80443433251E+02  0.56027821033E+02  0.31678423503E+03  0.33160596232E+03  0.00000000000E+00 0.  1.
          2    1    1    2  501    0 -0.11490536520E+03 -0.14266853259E+03  0.15044906177E+04  0.15156020493E+04  0.00000000000E+00 0.  1.
<scales pt_clust_3="94.00473" pt_clust_4="34.39903" pt_clust_5="145.49202" pt_clust_6="14000.00000"></scales>
<clustering>
<clus scale="   34.399">  2  4  1 -1</clus>
<clus scale="   94.005">  2  3  1 -1</clus>
<clus scale="  145.492">  2  5  1 -1</clus>
<clus scale="   34.399">  2  3  1 -1</clus>
</clustering>
</event>
<event>
 6    0  0.3082502E+002  0.1319493E+03  0.7546771E-02  0.1224592E+00
          1   -1    0    0  504    0 -0.00000000000E+00  0.00000000000E+00  0.35160654984E+04  0.35160654984E+04  0.00000000000E+00 0.  1.
         21   -1    0    0  503  502  0.00000000000E+00 -0.00000000000E+00 -0.18082722234E+02  0.18082722234E+02  0.00000000000E+00 0.  1.
         21    1    1    2  503  501  0.16597646395E+02 -0.27154931436E+02  0.20032861699E+03  0.20284089073E+03  0.00000000000E+00 0.  1.
         21    1    1    2  504  505  0.82789242249E+02 -0.30509520871E+02  0.21296196057E+04  0.21314465873E+04  0.00000000000E+00 0.  1.
         21    1    1    2  505  502 -0.15560246012E+03 -0.75116517926E+01  0.44015513256E+03  0.46691015327E+03  0.00000000000E+00 0.  1.
          1    1    1    2  501    0  0.56215571480E+02  0.65176104100E+02  0.72787942094E+03  0.73295058936E+03  0.00000000000E+00 0.  1.
<scales pt_clust_3="31.82565" pt_clust_4="131.94931" pt_clust_5="14000.00000" pt_clust_6="84.72850"></scales>
<clustering>
<clus scale="   31.826">  2  3  1 -1</clus>
<clus scale="   84.729">  1  6  2 -1</clus>
<clus scale="  131.949">  1  4  2 -1</clus>
<clus scale="   31.826">  2  3  1 -1</clus>
</clustering>
</event>
<event>
 6    0  0.3082502E+002  0.8419659E+02  0.7546771E-02  0.1317547E+00
          4   -1    0    0  503    0 -0.00000000000E+00  0.00000000000E+00  0.14871501381E+03  0.14871501381E+03  0.00000000000E+00 0. -1.
         21   -1    0    0  504  502  0.00000000000E+00 -0.00000000000E+00 -0.33022461942E+04  0.33022461942E+04  0.00000000000E+00 0. -1.
         21    1    1    2  503  505  0.49766861398E+02 -0.45181592629E+01 -0.10381876336E+03  0.11521931210E+03  0.00000000000E+00 0.  1.
         21    1    1    2  504  501 -0.15745256582E+00 -0.80848004455E+02 -0.16531297506E+04  0.16551055546E+04  0.00000000000E+00 0. -1.
         21    1    1    2  505  502 -0.75477765744E+02  0.36333488932E+02 -0.15320115062E+04  0.15342999285E+04  0.00000000000E+00 0. -1.
          4    1    1    2  501    0  0.25868356911E+02  0.49032674787E+02  0.13542883972E+03  0.14633641281E+03  0.00000000000E+00 0. -1.
<scales pt_clust_3="49.97153" pt_clust_4="80.87943" pt_clust_5="14000.00000" pt_clust_6="84.19659"></scales>
<clustering>
<clus scale="   49.972">  1  3  2 -1</clus>
<clus scale="   80.879">  2  4  1 -1</clus>
<clus scale="   84.197">  1  6  2 -1</clus>
<clus scale="   80.879">  2  3  1 -1</clus>
</clustering>
</event>
<event>
 6    0  0.3082502E+002  0.9987129E+02  0.7546771E-02  0.1280567E+00
         21   -1    0    0  504  502  0.00000000000E+00  0.00000000000E+00  0.55326809084E+02  0.55326809084E+02  0.00000000000E+00 0.  1.
          1   -1    0    0  505    0 -0.00000000000E+00 -0.00000000000E+00 -0.21920945571E+04  0.21920945571E+04  0.00000000000E+00 0. -1.
         21    1    1    2  503  502  0.92925227038E+02  0.97749443104E+02 -0.11553558902E+03  0.17759088878E+03  0.00000000000E+00 0.  1.
         21    1    1    2  504  501 -0.30095566934E+02 -0.78630476971E+02 -0.55621687570E+02  0.10090722068E+03  0.00000000000E+00 0.  1.
         21    1    1    2  505  503 -0.21332311415E+02 -0.27535495910E+02 -0.21519849211E+03  0.21799922488E+03  0.00000000000E+00 0.  1.
          1    1    1    2  501    0 -0.41497348688E+02  0.84165297774E+01 -0.17504119793E+04  0.17509240318E+04  0.00000000000E+00 0. -1.
<scales pt_clust_3="14000.00000" pt_clust_4="99.87129" pt_clust_5="34.83204" pt_clust_6="62.48129"></scales>
<clustering>
<clus scale="   34.832">  2  5  1 -1</clus>
<clus scale="   62.481">  2  6  1 -1</clus>
<clus scale="   99.871">  1  4  2 -1</clus>
<clus scale="   99.871">  1  3  2 -1</clus>
</clustering>
</event>
<event>
 6    0  0.3082502E+002  0.1638966E+03  0.7546771E-02  0.1184366E+00
         21   -1    0    0  501  502  0.00000000000E+00  0.00000000000E+00  0.30285428362E+03  0.30285428362E+03  0.00000000000E+00 0. -1.
          2   -1    0    0  505    0 -0.00000000000E+00 -0.00000000000E+00 -0.15920121528E+04  0.15920121528E+04  0.00000000000E+00 0.  1.
         21    1    1    2  503  502  0.68157076086E+02  0.95402241684E+02  0.23162216649E+03  0.25960701599E+03  0.00000000000E+00 0. -1.
         21    1    1    2  504  503  0.34760288266E+01  0.42658986019E+02  0.43363492567E+02  0.60928354255E+02  0.00000000000E+00 0. -1.
         21    1    1    2  505  504 -0.37097138227E+02 -0.18220389555E+02 -0.70174095683E+03  0.70295700491E+03  0.00000000000E+00 0.  1.
          2    1    1    2  501    0 -0.34535966686E+02 -0.11984083815E+03 -0.86240257139E+03  0.87137406125E+03  0.00000000000E+00 0.  1.
<scales pt_clust_3="32.72449" pt_clust_4="32.72449" pt_clust_5="41.33014" pt_clust_6="154.68832"></scales>
<clustering>
<clus scale="   32.724">  3  4 -1 -1</clus>
<clus scale="   41.330">  2  5  1 -1</clus>
<clus scale="  154.688">  2  6  1 -1</clus>
<clus scale="  163.897">  1  3  2 -1</clus>
</clustering>
</event>
<event>
 6    0  0.3082502E+002  0.6786119E+02  0.7546771E-02  0.1367521E+00
          2   -1    0    0  505    0 -0.00000000000E+00  0.00000000000E+00  0.60214026693E+03  0.60214026693E+03  0.00000000000E+00 0.  1.
         21   -1    0    0  504  502  0.00000000000E+00 -0.00000000000E+00 -0.81130320467E+02  0.81130320467E+02  0.00000000000E+00 0.  1.
         21    1    1    2  503  502  0.31382699914E+02 -0.11768843434E+02 -0.10816033351E+02  0.35218831711E+02  0.00000000000E+00 0.  1.
         21    1    1    2  504  501 -0.57995897876E+02  0.62702782198E+02 -0.28651659682E+01  0.85459769727E+02  0.00000000000E+00 0.  1.
         21    1    1    2  505  503  0.88818683959E+02 -0.53343655613E+02  0.24018171640E+03  0.26157515384E+03  0.00000000000E+00 0.  1.
          2    1    1    2  501    0 -0.62205485997E+02  0.24097168488E+01  0.29450942938E+03  0.30101683212E+03  0.00000000000E+00 0.  1.
<scales pt_clust_3="33.51685" pt_clust_4="67.86119" pt_clust_5="14000.00000" pt_clust_6="60.47374"></scales>
<clustering>
<clus scale="   33.517">  2  3  1 -1</clus>
<clus scale="   60.474">  1  6  2 -1</clus>
<clus scale="   67.861">  2  4  1 -1</clus>
<clus scale="   33.517">  2  3  1 -1</clus>
</clustering>
</event>
<event>
 6    0  0.3082502E+002  0.2787505E+03  0.7546771E-02  0.1096373E+00
         -1   -1    0    0    0  501 -0.00000000000E+00  0.00000000000E+00  0.10288479439E+04  0.10288479439E+04  0.00000000000E+00 0. -1.
         21   -1    0    0  503  502  0.00000000000E+00 -0.00000000000E+00 -0.18191247153E+03  0.18191247153E+03  0.00000000000E+00 0. -1.
         21    1    1    2  503  501 -0.31934335864E+02 -0.30020101863E+02  0.18332466999E+03  0.18849122778E+03  0.00000000000E+00 0. -1.
         21    1    1    2  504  502  0.97687517802E+02 -0.15226483186E+03 -0.15649482040E+02  0.18158286385E+03  0.00000000000E+00 0. -1.
         21    1    1    2  505  504  0.11808045729E+02 -0.94900378541E+02 -0.76214505776E+01  0.95935386068E+02  0.00000000000E+00 0. -1.
         -1    1    1    2    0  505 -0.77561227668E+02  0.27718531226E+03  0.68688173502E+03  0.74475093775E+03  0.00000000000E+00 0. -1.
<scales pt_clust_3="43.82931" pt_clust_4="42.36322" pt_clust_5="42.36322" pt_clust_6="272.59300"></scales>
<clustering>
<clus scale="   42.363">  4  5 -1 -1</clus>
<clus scale="   43.829">  1  3  2 -1</clus>
<clus scale="  272.593">  1  6  2 -1</clus>
<clus scale="  278.751">  2  3  1 -1</clus>
</clustering>
</event>
<event>
 6    0  0.3082502E+002  0.8691454E+02  0.7546771E-02  0.1310500E+00
         21   -1    0    0  501  502  0.00000000000E+00  0.00000000000E+00  0.55164193113E+03  0.55164193113E+03  0.00000000000E+00 0. -1.
          2   -1    0    0  503    0 -0.00000000000E+00 -0.00000000000E+00 -0.52950856164E+03  0.52950856164E+03  0.00000000000E+00 0. -1.
         21    1    1    2  503  504  0.31681878182E+02 -0.30886866472E+02 -0.54657518146E+01  0.44582668925E+02  0.00000000000E+00 0.  1.
         21    1    1    2  504  505 -0.98014191952E+02 -0.43349266179E+02  0.31241633588E+03  0.33028761349E+03  0.00000000000E+00 0. -1.
         21    1    1    2  505  502  0.45418694614E+02 -0.24951513183E+02  0.20224641874E+03  0.20877990738E+03  0.00000000000E+00 0. -1.
          2    1    1    2  501    0  0.20913619155E+02  0.99187645833E+02 -0.48706363332E+03  0.49750030297E+03  0.00000000000E+00 0. -1.
<scales pt_clust_3="44.24635" pt_clust_4="86.91454" pt_clust_5="52.09735" pt_clust_6="14000.00000"></scales>
<clustering>
<clus scale="   44.246">  2  3  1 -1</clus>
<clus scale="   52.097">  1  5  2 -1</clus>
<clus scale="   86.915">  1  4  2 -1</clus>
<clus scale="   52.097">  1  3  2 -1</clus>
</clustering>
</event>
<event>
 6    0  0.3082502E+002  0.7205485E+02  0.7546771E-02  0.1353242E+00
         21   -1    0    0  504  502  0.00000000000E+00  0.00000000000E+00  0.23495660450E+03  0.23495660450E+03  0.00000000000E+00 0.  1.
          1   -1    0    0  503    0 -0.00000000000E+00 -0.00000000000E+00 -0.29377452756E+04  0.29377452756E+04  0.00000000000E+00 0. -1.
         21    1    1    2  503  505 -0.55123250086E+02 -0.41930708995E+02 -0.23740083975E+03  0.24729722152E+03  0.00000000000E+00 0. -1.
         21    1    1    2  504  501  0.10186970311E+03 -0.30211289520E+02 -0.68816195427E+03  0.69631676249E+03  0.00000000000E+00 0. -1.
         21    1    1    2  505  502 -0.10434184782E+02  0.36264662101E+02  0.22402757283E+03  0.22718351903E+03  0.00000000000E+00 0.  1.
          1    1    1    2  501    0 -0.36312268246E+02  0.35877336414E+02 -0.20012534499E+04  0.20019043771E+04  0.00000000000E+00 0. -1.
<scales pt_clust_3="14000.00000" pt_clust_4="72.05485" pt_clust_5="37.73590" pt_clust_6="52.19609"></scales>
<clustering>
<clus scale="   37.736">  1  5  2 -1</clus>
<clus scale="   52.196">  2  6  1 -1</clus>
<clus scale="   72.055">  2  4  1 -1</clus>
<clus scale="   37.736">  1  3  2 -1</clus>
</clustering>
</event>
<event>
 6    0  0.3082502E+002  0.8005158E+02  0.7546771E-02  0.1328905E+00
          2   -1    0    0  505    0 -0.00000000000E+00  0.00000000000E+00  0.25838486207E+04  0.25838486207E+04  0.00000000000E+00 0.  1.
         21   -1    0    0  503  502  0.00000000000E+00 -0.00000000000E+00 -0.34564602778E+02  0.34564602778E+02  0.00000000000E+00 0. -1.
         21    1    1    2  503  501  0.45916459945E+02 -0.66069572675E+02  0.35490523974E+02  0.87937972567E+02  0.00000000000E+00 0. -1.
         21    1    1    2  504  502 -0.44918664506E+01  0.89035562069E+02  0.25663186481E+03  0.27167521457E+03  0.00000000000E+00 0. -1.
         21    1    1    2  505  504  0.11966585013E+02 -0.28939110335E+02  0.67400008302E+03  0.67472719167E+03  0.00000000000E+00 0. -1.
          2    1    1    2  501    0 -0.53391178507E+02  0.59731209414E+01  0.15831615461E+04  0.15840728447E+04  0.00000000000E+00 0.  1.
<scales pt_clust_3="80.05158" pt_clust_4="14000.00000" pt_clust_5="31.31567" pt_clust_6="47.05683"></scales>
<clustering>
<clus scale="   31.316">  1  5  2 -1</clus>
<clus scale="   47.057">  1  6  2 -1</clus>
<clus scale="   80.052">  2  3  1 -1</clus>
<clus scale="   80.052">  2  3  1 -1</clus>
</clustering>
</event>
<event>
 6    0  0.3082502E+002  0.8523556E+02  0.7546771E-02  0.1314818E+00
         -2   -1    0    0    0  501 -0.00000000000E+00  0.00000000000E+00  0.10925835225E+03  0.10925835225E+03  0.00000000000E+00 0. -1.
         21   -1    0    0  505  502  0.00000000000E+00 -0.00000000000E+00 -0.60819249839E+03  0.60819249839E+03  0.00000000000E+00 0. -1.
         21    1    1    2  503  501  0.53616045160E+02 -0.35905229035E+02 -0.24505615011E+02  0.69024567639E+02  0.00000000000E+00 0. -1.
         21    1    1    2  504  502  0.31001519198E+02  0.48030961032E+02 -0.44515458066E+03  0.44881028074E+03  0.00000000000E+00 0. -1.
         21    1    1    2  505  503  0.22241756060E+02  0.24375615449E+02 -0.71746580620E+02  0.78971122392E+02  0.00000000000E+00 0. -1.
         -2    1    1    2    0  504 -0.10685932042E+03 -0.36501347446E+02  0.42472630155E+02  0.12064487987E+03  0.00000000000E+00 0. -1.
<scales pt_clust_3="65.02269" pt_clust_4="14000.00000" pt_clust_5="32.99797" pt_clust_6="85.23556"></scales>
<clustering>
<clus scale="   32.998">  2  5  1 -1</clus>
<clus scale="   65.023">  1  3  2 -1</clus>
<clus scale="   85.236">  1  6  2 -1</clus>
<clus scale="   32.998">  2  3  1 -1</clus>
</clustering>
</event>
<event>
 6    0  0.3082502E+002  0.1510822E+03  0.7546771E-02  0.1199149E+00
         21   -1    0    0  501  502  0.00000000000E+00  0.00000000000E+00  0.16152536946E+03  0.16152536946E+03  0.00000000000E+00 0.  1.
          2   -1    0    0  504    0 -0.00000000000E+00 -0.00000000000E+00 -0.13116958573E+04  0.13116958573E+04  0.00000000000E+00 0. -1.
         21    1    1    2  503  505 -0.75589630669E+02  0.68047931131E+02  0.47695753516E+02  0.11233520419E+03  0.00000000000E+00 0.  1.
         21    1    1    2  504  503 -0.12113707533E+03  0.30182622456E+02 -0.41527885521E+03  0.43363776277E+03  0.00000000000E+00 0. -1.
         21    1    1    2  505  502  0.36515634336E+02 -0.14659911173E+02  0.56540619205E+02  0.68885021352E+02  0.00000000000E+00 0.  1.
          2    1    1    2  501    0  0.16021107167E+03 -0.83570642414E+02 -0.83912800537E+03  0.85836323847E+03  0.00000000000E+00 0. -1.
<scales pt_clust_3="72.62026" pt_clust_4="151.08220" pt_clust_5="39.34850" pt_clust_6="14000.00000"></scales>
<clustering>
<clus scale="   39.349">  1  5  2 -1</clus>
<clus scale="   72.620">  1  3  2 -1</clus>
<clus scale="  151.082">  2  4  1 -1</clus>
<clus scale="   39.349">  1  3  2 -1</clus>
</clustering>
</event>
<event>
 6    0  0.3082502E+002  0.9344228E+02  0.7546771E-02  0.1294723E+00
         21   -1    0    0  504  502  0.00000000000E+00  0.00000000000E+00  0.12928978608E+02  0.12928978608E+02  0.00000000000E+00 0.  1.
          1   -1    0    0  503    0 -0.00000000000E+00 -0.00000000000E+00 -0.27621857569E+04  0.27621857569E+04  0.00000000000E+00 0.  1.
         21    1    1    2  503  505  0.98490767594E+01 -0.42860660298E+02 -0.63156358044E+03  0.63309288154E+03  0.00000000000E+00 0.  1.
         21    1    1    2  504  501  0.42485389214E+02 -0.45538509521E+02 -0.27857911340E+03  0.28545592755E+03  0.00000000000E+00 0.  1.
         21    1    1    2  505  502 -0.46808264835E+02 -0.50881002245E+02 -0.20151098448E+03  0.21304123289E+03  0.00000000000E+00 0.  1.
          1    1    1    2  501    0 -0.55262011380E+01  0.13928017206E+03 -0.16376030999E+04  0.16435246935E+04  0.00000000000E+00 0.  1.
<scales pt_clust_3="43.97773" pt_clust_4="67.38227" pt_clust_5="14000.00000" pt_clust_6="93.44228"></scales>
<clustering>
<clus scale="   43.978">  2  3  1 -1</clus>
<clus scale="   67.382">  1  4  2 -1</clus>
<clus scale="   93.442">  2  6  1 -1</clus>
<clus scale="   67.382">  1  3  2 -1</clus>
</clustering>
</event>
<event>
 6    0  0.3082502E+002  0.9893346E+02  0.7546771E-02  0.1282555E+00
          2   -1    0    0  505    0 -0.00000000000E+00  0.00000000000E+00  0.28004861663E+04  0.28004861663E+04  0.00000000000E+00 0. -1.
         21   -1    0    0  503  502  0.00000000000E+00 -0.00000000000E+00 -0.16298462226E+03  0.16298462226E+03  0.00000000000E+00 0.  1.
         21    1    1    2  503  504  0.13004172578E+01  0.32539910692E+02 -0.15170079943E+03  0.15515691870E+03  0.00000000000E+00 0.  1.
         21    1    1    2  504  501  0.65742087760E+02 -0.10501868154E+03  0.46740174709E+03  0.48354455715E+03  0.00000000000E+00 0.  1.
         21    1    1    2  505  502 -0.32106405027E+02 -0.27365776439E+01  0.87564328901E+03  0.87623597261E+03  0.00000000000E+00 0. -1.
          2    1    1    2  501    0 -0.34936099991E+02  0.75215348491E+02  0.14461573074E+04  0.14485333401E+04  0.00000000000E+00 0. -1.
<scales pt_clust_3="32.56229" pt_clust_4="98.93346" pt_clust_5="32.22282" pt_clust_6="14000.00000"></scales>
<clustering>
<clus scale="   32.223">  1  5  2 -1</clus>
<clus scale="   32.562">  2  3  1 -1</clus>
<clus scale="   98.933">  2  4  1 -1</clus>
<clus scale="   32.562">  2  3  1 -1</clus>
</clustering>
</event>
<event>
 6    0  0.3082502E+002  0.9882679E+02  0.7546771E-02  0.1282783E+00
          2   -1    0    0  504    0 -0.00000000000E+00  0.00000000000E+00  0.39305376427E+03  0.39305376427E+03  0.00000000000E+00 0. -1.
         21   -1    0    0  505  502  0.00000000000E+00 -0.00000000000E+00 -0.31753974462E+04  0.31753974462E+04  0.00000000000E+00 0. -1.
         21    1    1    2  503  502  0.78307049120E+02 -0.85714356320E+02 -0.23479859012E+04  0.23508544696E+04  0.00000000000E+00 0. -1.
         21    1    1    2  504  503  0.30547901969E+02 -0.10731679295E+02  0.86836380954E+02  0.92676320128E+02  0.00000000000E+00 0. -1.
         21    1    1    2  505  501 -0.43508091948E+02  0.63946873634E+02 -0.81679224949E+03  0.82044605888E+03  0.00000000000E+00 0. -1.
          2    1    1    2  501    0 -0.65346859141E+02  0.32499161982E+02  0.29559808782E+03  0.30447436189E+03  0.00000000000E+00 0. -1.
<scales pt_clust_3="14000.00000" pt_clust_4="32.37813" pt_clust_5="98.82679" pt_clust_6="41.38594"></scales>
<clustering>
<clus scale="   32.378">  1  4  2 -1</clus>
<clus scale="   41.386">  1  6  2 -1</clus>
<clus scale="   98.827">  1  5  2 -1</clus>
<clus scale="   98.827">  2  3  1 -1</clus>
</clustering>
</event>
<event>
 6    0  0.3082502E+002  0.9134538E+02  0.7546771E-02  0.1299626E+00
         21   -1    0    0  505  502  0.00000000000E+00  0.00000000000E+00  0.34009053467E+03  0.34009053467E+03  0.00000000000E+00 0.  1.
          2   -1    0    0  503    0 -0.00000000000E+00 -0.00000000000E+00 -0.49155281023E+03  0.49155281023E+03  0.00000000000E+00 0. -1.
         21    1    1    2  503  504 -0.31426170197E+02  0.19880240406E+02 -0.31468257353E+03  0.31687213544E+03  0.00000000000E+00 0. -1.
         21    1    1    2  504  502  0.11024786664E+03 -0.39430756234E+02  0.18311292195E+03  0.21734700095E+03  0.00000000000E+00 0.  1.
         21    1    1    2  505  501 -0.16498748399E+02  0.43514470528E+02  0.12743785538E+03  0.13566917420E+03  0.00000000000E+00 0.  1.
          2    1    1    2  501    0 -0.62322948047E+02 -0.23963954700E+02 -0.14733047936E+03  0.16175503432E+03  0.00000000000E+00 0. -1.
<scales pt_clust_3="37.18640" pt_clust_4="91.34538" pt_clust_5="47.23629" pt_clust_6="14000.00000"></scales>
<clustering>
<clus scale="   37.186">  2  3  1 -1</clus>
<clus scale="   47.236">  1  5  2 -1</clus>
<clus scale="   91.345">  1  4  2 -1</clus>
<clus scale="   47.236">  1  3  2 -1</clus>
</clustering>
</event>
<event>
 6    0  0.3082502E+002  0.7016794E+02  0.7546771E-02  0.1359523E+00
         -3   -1    0    0    0  501 -0.00000000000E+00  0.00000000000E+00  0.50032148450E+02  0.50032148450E+02  0.00000000000E+00 0.  1.
         21   -1    0    0  505  502  0.00000000000E+00 -0.00000000000E+00 -0.15175912983E+04  0.15175912983E+04  0.00000000000E+00 0.  1.
         21    1    1    2  503  501 -0.47218217077E+02 -0.27882555413E+02 -0.32982400501E+02  0.63990902971E+02  0.00000000000E+00 0.  1.
         21    1    1    2  504  502 -0.80817770346E+02 -0.39677550100E+02 -0.44113126060E+03  0.45022506490E+03  0.00000000000E+00 0.  1.
         21    1    1    2  505  503  0.48702224261E+02 -0.99819524586E+01 -0.91777801814E+03  0.91912351542E+03  0.00000000000E+00 0.  1.
         -3    1    1    2    0  504  0.79333763161E+02  0.77542057972E+02 -0.75667470600E+02  0.13428396345E+03  0.00000000000E+00 0.  1.
<scales pt_clust_3="51.92327" pt_clust_4="14000.00000" pt_clust_5="49.71465" pt_clust_6="70.16794"></scales>
<clustering>
<clus scale="   49.715">  2  5  1 -1</clus>
<clus scale="   51.923">  1  3  2 -1</clus>
<clus scale="   70.168">  1  6  2 -1</clus>
<clus scale="   49.715">  2  3  1 -1</clus>
</clustering>
</event>
<event>
 6    0  0.3082502E+002  0.9439305E+02  0.7546771E-02  0.1292549E+00
         -2   -1    0    0    0  501 -0.00000000000E+00  0.00000000000E+00  0.17501110370E+03  0.17501110370E+03  0.00000000000E+00 0. -1.
         21   -1    0    0  504  502  0.00000000000E+00 -0.00000000000E+00 -0.51973874904E+03  0.51973874904E+03  0.00000000000E+00 0. -1.
         21    1    1    2  503  502 -0.10353138255E+02  0.32397977530E+02 -0.14518522867E+03  0.14911595167E+03  0.00000000000E+00 0. -1.
         21    1    1    2  504  501  0.19811720101E+02 -0.41003351238E+02 -0.23925830709E+01  0.45601573656E+02  0.00000000000E+00 0. -1.
         21    1    1    2  505  503 -0.67318324435E+02 -0.83140659704E+02 -0.31925899365E+03  0.33670525854E+03  0.00000000000E+00 0. -1.
         -2    1    1    2    0  505  0.57859742590E+02  0.91746033412E+02  0.12210916005E+03  0.16332706887E+03  0.00000000000E+00 0. -1.
<scales pt_clust_3="34.01200" pt_clust_4="43.37094" pt_clust_5="94.39305" pt_clust_6="14000.00000"></scales>
<clustering>
<clus scale="   34.012">  2  3  1 -1</clus>
<clus scale="   43.371">  1  4  2 -1</clus>
<clus scale="   94.393">  2  5  1 -1</clus>
<clus scale="   34.012">  2  3  1 -1</clus>
</clustering>
</event>
<event>
 6    0  0.3082502E+002  0.1713380E+03  0.7546771E-02  0.1176460E+00
          2   -1    0    0  504    0 -0.00000000000E+00  0.00000000000E+00  0.28909518013E+03  0.28909518013E+03  0.00000000000E+00 0. -1.
         21   -1    0    0  503  502  0.00000000000E+00 -0.00000000000E+00 -0.66152292168E+03  0.66152292168E+03  0.00000000000E+00 0. -1.
         21    1    1    2  503  505 -0.44038249747E+02  0.10320065985E+03 -0.32522271330E+03  0.34403423795E+03  0.00000000000E+00 0. -1.
         21    1    1    2  504  502 -0.10375048266E+03  0.44271680387E+02  0.74811548456E+02  0.13535476393E+03  0.00000000000E+00 0. -1.
         21    1    1    2  505  501 -0.42689386151E+02  0.29168768481E+02 -0.19472245588E+03  0.20146968896E+03  0.00000000000E+00 0. -1.
          2    1    1    2  501    0  0.19047811856E+03 -0.17664110872E+03  0.72705879177E+02  0.26975941097E+03  0.00000000000E+00 0. -1.
<scales pt_clust_3="31.75396" pt_clust_4="112.80135" pt_clust_5="31.75396" pt_clust_6="164.82866"></scales>
<clustering>
<clus scale="   31.754">  3  5 -1 -1</clus>
<clus scale="  112.801">  1  4  2 -1</clus>
<clus scale="  164.829">  1  6  2 -1</clus>
<clus scale="  171.338">  2  3  1 -1</clus>
</clustering>
</event>
<event>
 6    0  0.3082502E+002  0.1147664E+03  0.7546771E-02  0.1251989E+00
         21   -1    0    0  503  502  0.00000000000E+00  0.00000000000E+00  0.12742558745E+03  0.12742558745E+03  0.00000000000E+00 0. -1.
          1   -1    0    0  505    0 -0.00000000000E+00 -0.00000000000E+00 -0.10885382126E+04  0.10885382126E+04  0.00000000000E+00 0. -1.
         21    1    1    2  503  501 -0.29119391496E+02  0.13680109750E+03  0.14830762125E+02  0.14065002930E+03  0.00000000000E+00 0. -1.
         21    1    1    2  504  502 -0.49592872334E+02 -0.50747293314E+02  0.67184914214E+01  0.71273269127E+02  0.00000000000E+00 0. -1.
         21    1    1    2  505  504  0.77485275677E+02  0.24843385579E+02 -0.24679577908E+03  0.25986403816E+03  0.00000000000E+00 0. -1.
          1    1    1    2  501    0  0.12269881533E+01 -0.11089718976E+03 -0.73586609957E+03  0.74417646341E+03  0.00000000000E+00 0. -1.
<scales pt_clust_3="114.76643" pt_clust_4="70.95591" pt_clust_5="76.77536" pt_clust_6="14000.00000"></scales>
<clustering>
<clus scale="   70.956">  1  4  2 -1</clus>
<clus scale="   76.775">  2  5  1 -1</clus>
<clus scale="  114.766">  1  3  2 -1</clus>
<clus scale="   70.956">  1  3  2 -1</clus>
</clustering>
</event>
<event>
 6    0  0.3082502E+002  0.7032801E+02  0.7546771E-02  0.1358981E+00
         21   -1    0    0  504  502  0.00000000000E+00  0.00000000000E+00  0.27693745010E+03  0.27693745010E+03  0.00000000000E+00 0.  1.
          2   -1    0    0  503    0 -0.00000000000E+00 -0.00000000000E+00 -0.22173638380E+04  0.22173638380E+04  0.00000000000E+00 0.  1.
         21    1    1    2  503  505 -0.46205914430E+02 -0.78476356634E+02 -0.54237943565E+03  0.54997179682E+03  0.00000000000E+00 0.  1.
         21    1    1    2  504  501 -0.61111199254E+02  0.91882960694E+02  0.13855956308E+03  0.17713218132E+03  0.00000000000E+00 0.  1.
         21    1    1    2  505  502  0.46368835521E+02 -0.44812039589E+02  0.10550734415E+03  0.12365268889E+03  0.00000000000E+00 0. -1.
          2    1    1    2  501    0  0.60948278163E+02  0.31405435529E+02 -0.16421138594E+04  0.16435446210E+04  0.00000000000E+00 0.  1.
<scales pt_clust_3="14000.00000" pt_clust_4="50.90618" pt_clust_5="64.48401" pt_clust_6="70.32801"></scales>
<clustering>
<clus scale="   64.484">  1  5  2 -1</clus>
<clus scale="   50.906">  1  4  2 -1</clus>
<clus scale="   70.328">  2  6  1 -1</clus>
<clus scale="   64.484">  1  3  2 -1</clus>
</clustering>
</event>
<event>
 6    0  0.3082502E+002  0.8684346E+02  0.7546771E-02  0.1310681E+00
         21   -1    0    0  504  502  0.00000000000E+00  0.00000000000E+00  0.49500019103E+02  0.49500019103E+02  0.00000000000E+00 0. -1.
          3   -1    0    0  505    0 -0.00000000000E+00 -0.00000000000E+00 -0.73031608537E+03  0.73031608537E+03  0.00000000000E+00 0. -1.
         21    1    1    2  503  501 -0.96035968697E+02 -0.72172252992E+02 -0.88939553920E+02  0.14947235743E+03  0.00000000000E+00 0. -1.
         21    1    1    2  504  503 -0.13355966218E+02  0.50493423528E+02 -0.53677274658E+02  0.74894709212E+02  0.00000000000E+00 0. -1.
         21    1    1    2  505  502  0.46114483363E+02  0.26003479909E+02 -0.39880682507E+03  0.40230536942E+03  0.00000000000E+00 0. -1.
          3    1    1    2  501    0  0.63277451553E+02 -0.43246504453E+01 -0.13939241262E+03  0.15314366840E+03  0.00000000000E+00 0. -1.
<scales pt_clust_3="86.84346" pt_clust_4="52.22995" pt_clust_5="53.58129" pt_clust_6="14000.00000"></scales>
<clustering>
<clus scale="   52.230">  1  4  2 -1</clus>
<clus scale="   53.581">  2  5  1 -1</clus>
<clus scale="   86.843">  1  3  2 -1</clus>
<clus scale="   52.230">  1  3  2 -1</clus>
</clustering>
</event>
<event>
 6    0  0.3082502E+002  0.6895348E+02  0.7546771E-02  0.1363688E+00
         21   -1    0    0  501  502  0.00000000000E+00  0.00000000000E+00  0.64029584239E+03  0.64029584239E+03  0.00000000000E+00 0. -1.
          3   -1    0    0  504    0 -0.00000000000E+00 -0.00000000000E+00 -0.59173914641E+02  0.59173914641E+02  0.00000000000E+00 0.  1.
         21    1    1    2  503  502  0.28984159102E+02 -0.42289092541E+02  0.92852326787E+02  0.10606603328E+03  0.00000000000E+00 0. -1.
         21    1    1    2  504  505  0.14136465160E+02 -0.53058018466E+02 -0.18444543637E+02  0.57924037849E+02  0.00000000000E+00 0.  1.
         21    1    1    2  505  503  0.27191428765E+02  0.99051766724E+02  0.29668713147E+03  0.31396477553E+03  0.00000000000E+00 0. -1.
          3    1    1    2  501    0 -0.70312053027E+02 -0.37046557174E+01  0.21002701312E+03  0.22151491037E+03  0.00000000000E+00 0.  1.
<scales pt_clust_3="51.26840" pt_clust_4="56.67621" pt_clust_5="68.95348" pt_clust_6="14000.00000"></scales>
<clustering>
<clus scale="   51.268">  1  3  2 -1</clus>
<clus scale="   56.676">  2  4  1 -1</clus>
<clus scale="   68.953">  2  5  1 -1</clus>
<clus scale="   51.268">  1  3  2 -1</clus>
</clustering>
</event>
<event>
 6    0  0.3082502E+002  0.1207536E+03  0.7546771E-02  0.1241859E+00
          2   -1    0    0  505    0 -0.00000000000E+00  0.00000000000E+00  0.25537544836E+03  0.25537544836E+03  0.00000000000E+00 0. -1.
         21   -1    0    0  501  502  0.00000000000E+00 -0.00000000000E+00 -0.74644712816E+03  0.74644712816E+03  0.00000000000E+00 0. -1.
         21    1    1    2  503  502 -0.11783421174E+03  0.26103071023E+02 -0.64239430715E+03  0.65363347346E+03  0.00000000000E+00 0. -1.
         21    1    1    2  504  503 -0.51010447934E+02  0.51649534794E+02 -0.93549475614E+00  0.72599004080E+02  0.00000000000E+00 0.  1.
         21    1    1    2  505  504  0.65668302256E+02  0.20810351729E+02  0.27823603001E+01  0.68943006818E+02  0.00000000000E+00 0. -1.
          2    1    1    2  501    0  0.10317635742E+03 -0.98562957546E+02  0.14947576181E+03  0.20664709216E+03  0.00000000000E+00 0. -1.
<scales pt_clust_3="14000.00000" pt_clust_4="68.21653" pt_clust_5="68.88684" pt_clust_6="120.75362"></scales>
<clustering>
<clus scale="   68.887">  1  5  2 -1</clus>
<clus scale="   68.217">  1  4  2 -1</clus>
<clus scale="  120.754">  1  6  2 -1</clus>
<clus scale="  120.754">  2  3  1 -1</clus>
</clustering>
</event>
<event>
 6    0  0.3082502E+002  0.3385077E+03  0.7546771E-02  0.1067433E+00
          2   -1    0    0  505    0 -0.00000000000E+00  0.00000000000E+00  0.57959173177E+03  0.57959173177E+03  0.00000000000E+00 0. -1.
         21   -1    0    0  501  502  0.00000000000E+00 -0.00000000000E+00 -0.38320889889E+03  0.38320889889E+03  0.00000000000E+00 0.  1.
         21    1    1    2  503  502  0.34542563970E+03  0.22641695678E+02 -0.16455798584E+03  0.38328951153E+03  0.00000000000E+00 0.  1.
         21    1    1    2  504  503 -0.64583298818E+02 -0.41966536112E+02  0.10493780830E+02  0.77732310371E+02  0.00000000000E+00 0. -1.
         21    1    1    2  505  504  0.34574434020E+02 -0.14721679856E+02  0.64667262327E+02  0.74792875078E+02  0.00000000000E+00 0. -1.
          2    1    1    2  501    0 -0.31541677490E+03  0.34046520290E+02  0.28577977556E+03  0.42698593367E+03  0.00000000000E+00 0. -1.
<scales pt_clust_3="338.50765" pt_clust_4="75.25480" pt_clust_5="37.57818" pt_clust_6="14000.00000"></scales>
<clustering>
<clus scale="   37.578">  1  5  2 -1</clus>
<clus scale="   75.255">  1  4  2 -1</clus>
<clus scale="  338.508">  2  3  1 -1</clus>
<clus scale="  338.508">  2  3  1 -1</clus>
</clustering>
</event>
<event>
 6    0  0.3082502E+002  0.9657763E+02  0.7546771E-02  0.1287662E+00
         -2   -1    0    0    0  501 -0.00000000000E+00  0.00000000000E+00  0.11879848908E+03  0.11879848908E+03  0.00000000000E+00 0.  1.
         21   -1    0    0  503  502  0.00000000000E+00 -0.00000000000E+00 -0.90172732867E+03  0.90172732867E+03  0.00000000000E+00 0. -1.
         21    1    1    2  503  504 -0.47939148999E+02  0.19286407900E+01 -0.69185988371E+03  0.69352143467E+03  0.00000000000E+00 0. -1.
         21    1    1    2  504  505 -0.51616237159E+02  0.38531486473E+02 -0.13962770595E+03  0.15376868230E+03  0.00000000000E+00 0. -1.
         21    1    1    2  505  501 -0.22331471809E+02 -0.32259985385E+02  0.30607060261E+02  0.49761364812E+02  0.00000000000E+00 0.  1.
         -2    1    1    2    0  502  0.12188685797E+03 -0.82001418772E+01  0.17951689811E+02  0.12347433595E+03  0.00000000000E+00 0.  1.
<scales pt_clust_3="48.20130" pt_clust_4="96.57763" pt_clust_5="39.23520" pt_clust_6="14000.00000"></scales>
<clustering>
<clus scale="   39.235">  1  5  2 -1</clus>
<clus scale="   48.201">  2  3  1 -1</clus>
<clus scale="   96.578">  2  4  1 -1</clus>
<clus scale="   48.201">  2  3  1 -1</clus>
</clustering>
</event>
<event>
 6    0  0.3082502E+002  0.9103368E+02  0.7546771E-02  0.1300368E+00
         -4   -1    0    0    0  501 -0.00000000000E+00  0.00000000000E+00  0.59759464217E+03  0.59759464217E+03  0.00000000000E+00 0.  1.
         21   -1    0    0  504  502  0.00000000000E+00 -0.00000000000E+00 -0.19020733663E+03  0.19020733663E+03  0.00000000000E+00 0. -1.
         21    1    1    2  503  501 -0.15088350311E-01 -0.37128893060E+02  0.34277800442E+02  0.50532390906E+02  0.00000000000E+00 0. -1.
         21    1    1    2  504  503 -0.55012836070E+01 -0.33404365360E+02 -0.79806815390E+01  0.34782280320E+02  0.00000000000E+00 0.  1.
         21    1    1    2  505  502  0.31165256557E+02  0.12068051617E+03 -0.13476477847E+03  0.18356635235E+03  0.00000000000E+00 0. -1.
         -4    1    1    2    0  505 -0.25648884600E+02 -0.50147257745E+02  0.51585496511E+03  0.51892095522E+03  0.00000000000E+00 0.  1.
<scales pt_clust_3="38.73799" pt_clust_4="33.85433" pt_clust_5="14000.00000" pt_clust_6="91.03368"></scales>
<clustering>
<clus scale="   33.854">  2  4  1 -1</clus>
<clus scale="   38.738">  1  3  2 -1</clus>
<clus scale="   91.034">  1  6  2 -1</clus>
<clus scale="   33.854">  2  3  1 -1</clus>
</clustering>
</event>
<event>
 6    0  0.3082502E+002  0.1168056E+03  0.7546771E-02  0.1248462E+00
         21   -1    0    0  503  502  0.00000000000E+00  0.00000000000E+00  0.15813330526E+03  0.15813330526E+03  0.00000000000E+00 0. -1.
         -3   -1    0    0    0  501 -0.00000000000E+00 -0.00000000000E+00 -0.34371518153E+03  0.34371518153E+03  0.00000000000E+00 0.  1.
         21    1    1    2  503  501 -0.85448309318E+02  0.85263050279E+02 -0.84723193532E+02  0.14747617038E+03  0.00000000000E+00 0.  1.
         21    1    1    2  504  502  0.78763343193E+02 -0.84914664082E+02  0.82472930897E+02  0.14218280043E+03  0.00000000000E+00 0. -1.
         21    1    1    2  505  504  0.13893706304E+02  0.31793045678E+02 -0.10504881247E+02  0.36251694558E+02  0.00000000000E+00 0.  1.
         -3    1    1    2    0  505 -0.72087401786E+01 -0.32141431874E+02 -0.17282673239E+03  0.17593782142E+03  0.00000000000E+00 0.  1.
<scales pt_clust_3="14000.00000" pt_clust_4="116.80558" pt_clust_5="30.24396" pt_clust_6="32.93991"></scales>
<clustering>
<clus scale="   32.940">  2  6  1 -1</clus>
<clus scale="   30.244">  2  5  1 -1</clus>
<clus scale="  116.806">  1  4  2 -1</clus>
<clus scale="  116.806">  1  3  2 -1</clus>
</clustering>
</event>
<event>
 6    0  0.3082502E+002  0.8298645E+02  0.7546771E-02  0.1320784E+00
         21   -1    0    0  501  502  0.00000000000E+00  0.00000000000E+00  0.82528437389E+03  0.82528437389E+03  0.00000000000E+00 0.  1.
          1   -1    0    0  505    0 -0.00000000000E+00 -0.00000000000E+00 -0.12003273573E+04  0.12003273573E+04  0.00000000000E+00 0.  1.
         21    1    1    2  503  502 -0.61204047839E+02 -0.48116769977E+02  0.60481917867E+03  0.60980931274E+03  0.00000000000E+00 0.  1.
         21    1    1    2  504  503  0.66832406744E+02  0.11454607490E+03  0.19545068227E+03  0.23619556106E+03  0.00000000000E+00 0.  1.
         21    1    1    2  505  504  0.42655572880E+01 -0.37215355356E+02 -0.18198242939E+03  0.18579769176E+03  0.00000000000E+00 0. -1.
          1    1    1    2  501    0 -0.98939161924E+01 -0.29213949570E+02 -0.99333041497E+03  0.99380916565E+03  0.00000000000E+00 0.  1.
<scales pt_clust_3="82.98645" pt_clust_4="14000.00000" pt_clust_5="63.36066" pt_clust_6="30.84387"></scales>
<clustering>
<clus scale="   30.844">  2  6  1 -1</clus>
<clus scale="   63.361">  2  5  1 -1</clus>
<clus scale="   82.986">  1  3  2 -1</clus>
<clus scale="   82.986">  1  3  2 -1</clus>
</clustering>
</event>
<event>
 6    0  0.3082502E+002  0.7949541E+02  0.7546771E-02  0.1330490E+00
         21   -1    0    0  503  502  0.00000000000E+00  0.00000000000E+00  0.35365134434E+02  0.35365134434E+02  0.00000000000E+00 0. -1.
          2   -1    0    0  505    0 -0.00000000000E+00 -0.00000000000E+00 -0.36860109213E+04  0.36860109213E+04  0.00000000000E+00 0. -1.
         21    1    1    2  503  501 -0.37584948957E+02  0.22615679805E+02  0.14734023146E+02  0.46272981308E+02  0.00000000000E+00 0. -1.
         21    1    1    2  504  502 -0.38755588147E+02 -0.28386630690E+01 -0.13632014761E+03  0.14175061292E+03  0.00000000000E+00 0. -1.
         21    1    1    2  505  504 -0.45552929518E+02  0.83734023804E+01 -0.70206020852E+03  0.70358632707E+03  0.00000000000E+00 0. -1.
          2    1    1    2  501    0  0.12189346662E+03 -0.28150419116E+02 -0.28269994539E+04  0.28297661345E+04  0.00000000000E+00 0. -1.
<scales pt_clust_3="79.49541" pt_clust_4="38.85941" pt_clust_5="47.19551" pt_clust_6="14000.00000"></scales>
<clustering>
<clus scale="   38.859">  1  4  2 -1</clus>
<clus scale="   47.196">  2  5  1 -1</clus>
<clus scale="   79.495">  1  3  2 -1</clus>
<clus scale="   38.859">  1  3  2 -1</clus>
</clustering>
</event>
<event>
 6    0  0.3082502E+002  0.1443969E+03  0.7546771E-02  0.1207532E+00
          1   -1    0    0  505    0 -0.00000000000E+00  0.00000000000E+00  0.20441177180E+04  0.20441177180E+04  0.00000000000E+00 0.  1.
         21   -1    0    0  504  502  0.00000000000E+00 -0.00000000000E+00 -0.20676778598E+02  0.20676778598E+02  0.00000000000E+00 0. -1.
         21    1    1    2  503  502 -0.76559529661E+01  0.40562918716E+02  0.80342060204E+02  0.90326134802E+02  0.00000000000E+00 0. -1.
         21    1    1    2  504  501 -0.20898703766E+02 -0.35809002391E+02  0.78220928058E+03  0.78330734651E+03  0.00000000000E+00 0.  1.
         21    1    1    2  505  503  0.11463962776E+03  0.42103018307E+02  0.28852013447E+03  0.31330301052E+03  0.00000000000E+00 0. -1.
          1    1    1    2  501    0 -0.86084971029E+02 -0.46856934632E+02  0.87236946418E+03  0.87785800480E+03  0.00000000000E+00 0.  1.
<scales pt_clust_3="41.27910" pt_clust_4="38.80872" pt_clust_5="131.49190" pt_clust_6="38.80872"></scales>
<clustering>
<clus scale="   38.809">  4  6 -1 -1</clus>
<clus scale="   41.279">  2  3  1 -1</clus>
<clus scale="  131.492">  2  5  1 -1</clus>
<clus scale="   41.279">  2  3  1 -1</clus>
</clustering>
</event>
<event>
 6    0  0.3082502E+002  0.1585108E+03  0.7546771E-02  0.1190388E+00
         21   -1    0    0  503  502  0.00000000000E+00  0.00000000000E+00  0.31724298939E+03  0.31724298939E+03  0.00000000000E+00 0.  1.
          2   -1    0    0  504    0 -0.00000000000E+00 -0.00000000000E+00 -0.62335202501E+03  0.62335202501E+03  0.00000000000E+00 0. -1.
         21    1    1    2  503  501  0.36720463812E+02 -0.18540006749E+03  0.90121159134E+02  0.20938815824E+03  0.00000000000E+00 0.  1.
         21    1    1    2  504  505  0.12973576514E+02 -0.31002566310E+02 -0.58277448060E+02  0.67273573993E+02  0.00000000000E+00 0. -1.
         21    1    1    2  505  502  0.49320931021E+01  0.40027084887E+02  0.14309361931E+03  0.14866834550E+03  0.00000000000E+00 0. -1.
          2    1    1    2  501    0 -0.54626133428E+02  0.17637554891E+03 -0.48104636600E+03  0.51526493666E+03  0.00000000000E+00 0. -1.
<scales pt_clust_3="158.51085" pt_clust_4="33.60763" pt_clust_5="40.18478" pt_clust_6="14000.00000"></scales>
<clustering>
<clus scale="   33.608">  2  4  1 -1</clus>
<clus scale="   40.185">  1  5  2 -1</clus>
<clus scale="  158.511">  1  3  2 -1</clus>
<clus scale="   40.185">  1  3  2 -1</clus>
</clustering>
</event>
<event>
 6    0  0.3082502E+002  0.1152852E+03  0.7546771E-02  0.1251084E+00
         21   -1    0    0  503  502  0.00000000000E+00  0.00000000000E+00  0.34618757205E+04  0.34618757205E+04  0.00000000000E+00 0.  1.
          1   -1    0    0  504    0 -0.00000000000E+00 -0.00000000000E+00 -0.55935789564E+03  0.55935789564E+03  0.00000000000E+00 0. -1.
         21    1    1    2  503  501  0.54615090232E+02  0.59852051363E+02  0.78060474932E+03  0.78479860525E+03  0.00000000000E+00 0.  1.
         21    1    1    2  504  505 -0.49117175719E+02  0.56145484075E+02  0.94234618758E+01  0.75190517796E+02  0.00000000000E+00 0. -1.
         21    1    1    2  505  502  0.31159450115E+02  0.20486945529E+02  0.26272106670E+04  0.26274753120E+04  0.00000000000E+00 0.  1.
          1    1    1    2  501    0 -0.36657364627E+02 -0.13648448097E+03 -0.51472105335E+03  0.53376918110E+03  0.00000000000E+00 0. -1.
<scales pt_clust_3="14000.00000" pt_clust_4="74.36287" pt_clust_5="37.29110" pt_clust_6="115.28523"></scales>
<clustering>
<clus scale="   37.291">  1  5  2 -1</clus>
<clus scale="   74.363">  2  4  1 -1</clus>
<clus scale="  115.285">  2  6  1 -1</clus>
<clus scale="   37.291">  1  3  2 -1</clus>
</clustering>
</event>
<event>
 6    0  0.3082502E+002  0.1170268E+03  0.7546771E-02  0.1248084E+00
         21   -1    0    0  501  502  0.00000000000E+00  0.00000000000E+00  0.41939862459E+02  0.41939862459E+02  0.00000000000E+00 0.  1.
          1   -1    0    0  503    0 -0.00000000000E+00 -0.00000000000E+00 -0.15801900341E+04  0.15801900341E+04  0.00000000000E+00 0. -1.
         21    1    1    2  503  505 -0.19946373378E+02 -0.34259532480E+02 -0.28390311881E+03  0.28665755571E+03  0.00000000000E+00 0. -1.
         21    1    1    2  504  502  0.79434539624E+02 -0.99704289059E+02 -0.11622719717E+03  0.17250957279E+03  0.00000000000E+00 0.  1.
         21    1    1    2  505  504 -0.19400271986E+02  0.38702351689E+02 -0.92592366184E+03  0.92693520277E+03  0.00000000000E+00 0. -1.
          1    1    1    2  501    0 -0.40087894260E+02  0.95261469849E+02 -0.21219619384E+03  0.23602756531E+03  0.00000000000E+00 0. -1.
<scales pt_clust_3="39.64307" pt_clust_4="117.02680" pt_clust_5="36.53931" pt_clust_6="14000.00000"></scales>
<clustering>
<clus scale="   39.643">  2  3  1 -1</clus>
<clus scale="   36.539">  2  5  1 -1</clus>
<clus scale="  117.027">  1  4  2 -1</clus>
<clus scale="  117.027">  1  3  2 -1</clus>
</clustering>
</event>
<event>
 6    0  0.3082502E+002  0.1719014E+03  0.7546771E-02  0.1175879E+00
          2   -1    0    0  504    0 -0.00000000000E+00  0.00000000000E+00  0.20497529758E+04  0.20497529758E+04  0.00000000000E+00 0.  1.
         21   -1    0    0  505  502  0.00000000000E+00 -0.00000000000E+00 -0.14093253772E+03  0.14093253772E+03  0.00000000000E+00 0. -1.
         21    1    1    2  503  502  0.34641842252E+02  0.17596131725E+02  0.13725145890E+02  0.41207532272E+02  0.00000000000E+00 0.  1.
         21    1    1    2  504  503  0.36576837754E+02  0.19090323984E+02  0.34299447432E+03  0.34546709676E+03  0.00000000000E+00 0.  1.
         21    1    1    2  505  501  0.11916753568E+03 -0.94449604327E+02 -0.71666411708E+02  0.16810027925E+03  0.00000000000E+00 0. -1.
          2    1    1    2  501    0 -0.19038621568E+03  0.57763148618E+02  0.16237672296E+04  0.16359106053E+04  0.00000000000E+00 0.  1.
<scales pt_clust_3="38.85461" pt_clust_4="41.63665" pt_clust_5="14000.00000" pt_clust_6="171.90135"></scales>
<clustering>
<clus scale="   38.855">  2  3  1 -1</clus>
<clus scale="   41.637">  1  4  2 -1</clus>
<clus scale="  171.901">  1  6  2 -1</clus>
<clus scale="   38.855">  2  3  1 -1</clus>
</clustering>
</event>
<event>
 6    0  0.3082502E+002  0.1021042E+03  0.7546771E-02  0.1275932E+00
          1   -1    0    0  503    0 -0.00000000000E+00  0.00000000000E+00  0.16991045787E+04  0.16991045787E+04  0.00000000000E+00 0.  1.
         21   -1    0    0  504  502  0.00000000000E+00 -0.00000000000E+00 -0.80712682909E+02  0.80712682909E+02  0.00000000000E+00 0.  1.
         21    1    1    2  503  505 -0.47869969544E+01 -0.36335583722E+02  0.10720737953E+04  0.10727000572E+04  0.00000000000E+00 0.  1.
         21    1    1    2  504  501 -0.86625306567E+02 -0.37228835911E+02  0.14442476592E+03  0.17247736945E+03  0.00000000000E+00 0.  1.
         21    1    1    2  505  502  0.57040082392E+02  0.91961161882E+02 -0.20763577573E+02  0.11018871289E+03  0.00000000000E+00 0.  1.
          1    1    1    2  501    0  0.34372221129E+02 -0.18396742249E+02  0.42265691211E+03  0.42445112212E+03  0.00000000000E+00 0.  1.
<scales pt_clust_3="36.64956" pt_clust_4="102.10417" pt_clust_5="14000.00000" pt_clust_6="53.05194"></scales>
<clustering>
<clus scale="   36.650">  1  3  2 -1</clus>
<clus scale="   53.052">  1  6  2 -1</clus>
<clus scale="  102.104">  1  4  2 -1</clus>
<clus scale="  102.104">  2  3  1 -1</clus>
</clustering>
</event>
<event>
 6    0  0.3082502E+002  0.8808446E+02  0.7546771E-02  0.1307558E+00
          1   -1    0    0  504    0 -0.00000000000E+00  0.00000000000E+00  0.55981339430E+03  0.55981339430E+03  0.00000000000E+00 0. -1.
         21   -1    0    0  505  502  0.00000000000E+00 -0.00000000000E+00 -0.13583016803E+04  0.13583016803E+04  0.00000000000E+00 0. -1.
         21    1    1    2  503  501  0.10426437704E+02 -0.12285568113E+03 -0.10403226950E+03  0.16132247856E+03  0.00000000000E+00 0.  1.
         21    1    1    2  504  502  0.33837424190E+01  0.53611403480E+02  0.72194719793E+02  0.89987276111E+02  0.00000000000E+00 0. -1.
         21    1    1    2  505  503  0.45787401143E+02  0.74433244193E+02 -0.12131614809E+04  0.12163048848E+04  0.00000000000E+00 0. -1.
          1    1    1    2  501    0 -0.59597581266E+02 -0.51889665390E+01  0.44651074460E+03  0.45050043519E+03  0.00000000000E+00 0. -1.
<scales pt_clust_3="14000.00000" pt_clust_4="53.71808" pt_clust_5="88.08446" pt_clust_6="72.19779"></scales>
<clustering>
<clus scale="   53.718">  1  4  2 -1</clus>
<clus scale="   72.198">  1  6  2 -1</clus>
<clus scale="   88.084">  2  5  1 -1</clus>
<clus scale="   88.084">  2  3  1 -1</clus>
</clustering>
</event>
<event>
 6    0  0.3082502E+002  0.7312063E+02  0.7546771E-02  0.1349792E+00
         21   -1    0    0  503  502  0.00000000000E+00  0.00000000000E+00  0.87274619099E+02  0.87274619099E+02  0.00000000000E+00 0. -1.
          1   -1    0    0  504    0 -0.00000000000E+00 -0.00000000000E+00 -0.24304455091E+04  0.24304455091E+04  0.00000000000E+00 0. -1.
         21    1    1    2  503  505  0.54668951654E+02  0.47536735415E+02  0.64904240662E+02  0.97267651070E+02  0.00000000000E+00 0. -1.
         21    1    1    2  504  502 -0.83980453447E+02 -0.51593958133E+02 -0.57526976226E+03  0.58365225302E+03  0.00000000000E+00 0. -1.
         21    1    1    2  505  501  0.31703852331E+02  0.42390960385E+02 -0.40088352371E+03  0.40436336055E+03  0.00000000000E+00 0.  1.
          1    1    1    2  501    0 -0.23923505381E+01 -0.38333737667E+02 -0.14319218447E+04  0.14324368636E+04  0.00000000000E+00 0. -1.
<scales pt_clust_3="73.12063" pt_clust_4="14000.00000" pt_clust_5="40.86702" pt_clust_6="38.40832"></scales>
<clustering>
<clus scale="   38.408">  2  6  1 -1</clus>
<clus scale="   40.867">  2  5  1 -1</clus>
<clus scale="   73.121">  1  3  2 -1</clus>
<clus scale="   73.121">  1  3  2 -1</clus>
</clustering>
</event>
<event>
 6    0  0.3082502E+002  0.6735395E+02  0.7546771E-02  0.1369329E+00
         21   -1    0    0  503  502  0.00000000000E+00  0.00000000000E+00  0.60281924110E+02  0.60281924110E+02  0.00000000000E+00 0.  1.
          2   -1    0    0  504    0 -0.00000000000E+00 -0.00000000000E+00 -0.16942126866E+04  0.16942126866E+04  0.00000000000E+00 0.  1.
         21    1    1    2  503  501 -0.82203493916E+01  0.70340275281E+02 -0.12846572880E+03  0.14669278083E+03  0.00000000000E+00 0. -1.
         21    1    1    2  504  505  0.20425237062E+02 -0.40925439826E+02 -0.14577544693E+03  0.15278273091E+03  0.00000000000E+00 0. -1.
         21    1    1    2  505  502  0.70388658248E+02 -0.42588470332E+02  0.99131242912E+01  0.82865017036E+02  0.00000000000E+00 0.  1.
          2    1    1    2  501    0 -0.82593545919E+02  0.13173634878E+02 -0.13696027110E+04  0.13721540819E+04  0.00000000000E+00 0.  1.
<scales pt_clust_3="67.00229" pt_clust_4="45.73928" pt_clust_5="14000.00000" pt_clust_6="67.35395"></scales>
<clustering>
<clus scale="   45.739">  2  4  1 -1</clus>
<clus scale="   67.002">  1  3  2 -1</clus>
<clus scale="   67.354">  2  6  1 -1</clus>
<clus scale="   67.002">  1  3  2 -1</clus>
</clustering>
</event>
<event>
 6    0  0.3082502E+002  0.8409912E+02  0.7546771E-02  0.1317805E+00
         -1   -1    0    0    0  501 -0.00000000000E+00  0.00000000000E+00  0.29343933192E+03  0.29343933192E+03  0.00000000000E+00 0.  1.
         21   -1    0    0  505  502  0.00000000000E+00 -0.00000000000E+00 -0.65305716520E+03  0.65305716520E+03  0.00000000000E+00 0.  1.
         21    1    1    2  503  501  0.70656068715E+01 -0.35234693457E+02  0.29180232362E+02  0.46291385637E+02  0.00000000000E+00 0. -1.
         21    1    1    2  504  502  0.59618491068E+02 -0.15347879491E+02 -0.36315144380E+03  0.36833258479E+03  0.00000000000E+00 0.  1.
         21    1    1    2  505  503 -0.10664276210E+03  0.84812671657E+02 -0.25900325541E+03  0.29265774259E+03  0.00000000000E+00 0.  1.
         -1    1    1    2    0  504  0.39958664158E+02 -0.34230098709E+02  0.23335663357E+03  0.23921478410E+03  0.00000000000E+00 0.  1.
<scales pt_clust_3="35.93614" pt_clust_4="61.72153" pt_clust_5="14000.00000" pt_clust_6="84.09912"></scales>
<clustering>
<clus scale="   35.936">  1  3  2 -1</clus>
<clus scale="   61.722">  2  4  1 -1</clus>
<clus scale="   84.099">  1  6  2 -1</clus>
<clus scale="   61.722">  2  3  1 -1</clus>
</clustering>
</event>
<event>
 6    0  0.3082502E+002  0.1097522E+03  0.7546771E-02  0.1261029E+00
         21   -1    0    0  505  502  0.00000000000E+00  0.00000000000E+00  0.69530387274E+02  0.69530387274E+02  0.00000000000E+00 0.  1.
          1   -1    0    0  504    0 -0.00000000000E+00 -0.00000000000E+00 -0.25244183037E+04  0.25244183037E+04  0.00000000000E+00 0. -1.
         21    1    1    2  503  502  0.81238378800E+02  0.75459299103E+02 -0.16798595086E+03  0.20127856244E+03  0.00000000000E+00 0.  1.
         21    1    1    2  504  503  0.19280418720E+02 -0.23526222817E+02 -0.43149157847E+03  0.43256236544E+03  0.00000000000E+00 0.  1.
         21    1    1    2  505  501 -0.47825380166E+02 -0.10052591045E+03 -0.83264828823E+01  0.11163357908E+03  0.00000000000E+00 0.  1.
          1    1    1    2  501    0 -0.52693417355E+02  0.48592834168E+02 -0.18470839042E+04  0.18484741840E+04  0.00000000000E+00 0. -1.
<scales pt_clust_3="14000.00000" pt_clust_4="30.41739" pt_clust_5="109.75219" pt_clust_6="45.23182"></scales>
<clustering>
<clus scale="   30.417">  2  4  1 -1</clus>
<clus scale="   45.232">  2  6  1 -1</clus>
<clus scale="  109.752">  1  5  2 -1</clus>
<clus scale="  109.752">  1  3  2 -1</clus>
</clustering>
</event>
<event>
 6    0  0.3082502E+002  0.1092664E+03  0.7546771E-02  0.1261935E+00
         21   -1    0    0  501  502  0.00000000000E+00  0.00000000000E+00  0.13310066230E+02  0.13310066230E+02  0.00000000000E+00 0.  1.
          2   -1    0    0  505    0 -0.00000000000E+00 -0.00000000000E+00 -0.36100098963E+04  0.36100098963E+04  0.00000000000E+00 0.  1.
         21    1    1    2  503  502  0.17636181322E+01 -0.11556657986E+03 -0.46339902770E+03  0.47759543926E+03  0.00000000000E+00 0.  1.
         21    1    1    2  504  503  0.41063561928E+02  0.98830930918E+02 -0.52769855816E+03  0.53844176780E+03  0.00000000000E+00 0.  1.
         21    1    1    2  505  504 -0.56095829652E+01  0.33422286869E+02 -0.20099545644E+04  0.20102402512E+04  0.00000000000E+00 0.  1.
          2    1    1    2  501    0 -0.37217597095E+02 -0.16686637930E+02 -0.59564767987E+03  0.59704250431E+03  0.00000000000E+00 0.  1.
<scales pt_clust_3="109.26636" pt_clust_4="14000.00000" pt_clust_5="33.88977" pt_clust_6="39.53532"></scales>
<clustering>
<clus scale="   33.890">  2  5  1 -1</clus>
<clus scale="   39.535">  2  6  1 -1</clus>
<clus scale="  109.266">  1  3  2 -1</clus>
<clus scale="  109.266">  1  3  2 -1</clus>
</clustering>
</event>
<event>
 6    0  0.3082502E+002  0.7873732E+02  0.7546771E-02  0.1332673E+00
         21   -1    0    0  505  502  0.00000000000E+00  0.00000000000E+00  0.85769673998E+02  0.85769673998E+02  0.00000000000E+00 0.  1.
         -1   -1    0    0    0  501 -0.00000000000E+00 -0.00000000000E+00 -0.15361507175E+04  0.15361507175E+04  0.00000000000E+00 0.  1.
         21    1    1    2  503  501  0.31329418924E+02 -0.45059825702E+02 -0.13005043127E+03  0.14115606631E+03  0.00000000000E+00 0.  1.
         21    1    1    2  504  503  0.94430768775E+02  0.25074927056E+02 -0.12085583463E+02  0.98447871414E+02  0.00000000000E+00 0.  1.
         21    1    1    2  505  504 -0.68774603595E+02  0.13422240003E+01  0.38091027206E+01  0.68893083313E+02  0.00000000000E+00 0.  1.
         -1    1    1    2    0  502 -0.56985584104E+02  0.18642674646E+02 -0.13120541315E+04  0.13134233705E+04  0.00000000000E+00 0.  1.
<scales pt_clust_3="54.88097" pt_clust_4="14000.00000" pt_clust_5="78.73732" pt_clust_6="36.32454"></scales>
<clustering>
<clus scale="   54.881">  2  3  1 -1</clus>
<clus scale="   36.325">  2  6  1 -1</clus>
<clus scale="   78.737">  1  5  2 -1</clus>
<clus scale="   78.737">  1  3  2 -1</clus>
</clustering>
</event>
<event>
 6    0  0.3082502E+002  0.1310133E+03  0.7546771E-02  0.1225960E+00
          1   -1    0    0  504    0 -0.00000000000E+00  0.00000000000E+00  0.12580800023E+03  0.12580800023E+03  0.00000000000E+00 0. -1.
         21   -1    0    0  503  502  0.00000000000E+00 -0.00000000000E+00 -0.29138485848E+03  0.29138485848E+03  0.00000000000E+00 0. -1.
         21    1    1    2  503  501  0.13507885146E+02 -0.34094776678E+02 -0.99757348043E+02  0.10628473666E+03  0.00000000000E+00 0. -1.
         21    1    1    2  504  505  0.58184799977E+02  0.10619432148E+02 -0.33310900035E+02  0.67881214991E+02  0.00000000000E+00 0. -1.
         21    1    1    2  505  502  0.49189264432E+02  0.45521717876E+02 -0.85984365206E+02  0.10901890475E+03  0.00000000000E+00 0. -1.
          1    1    1    2  501    0 -0.12088194956E+03 -0.22046373347E+02  0.53475755030E+02  0.13400800231E+03  0.00000000000E+00 0. -1.
<scales pt_clust_3="36.67311" pt_clust_4="48.45264" pt_clust_5="48.45264" pt_clust_6="121.58620"></scales>
<clustering>
<clus scale="   36.673">  2  3  1 -1</clus>
<clus scale="   48.453">  4  5 -1 -1</clus>
<clus scale="  121.586">  1  6  2 -1</clus>
<clus scale="   36.673">  2  3  1 -1</clus>
</clustering>
</event>
<event>
 6    0  0.3082502E+002  0.2187264E+03  0.7546771E-02  0.1134836E+00
          2   -1    0    0  503    0 -0.00000000000E+00  0.00000000000E+00  0.16378723869E+04  0.16378723869E+04  0.00000000000E+00 0. -1.
         21   -1    0    0  501  502  0.00000000000E+00 -0.00000000000E+00 -0.17108410420E+03  0.17108410420E+03  0.00000000000E+00 0. -1.
         21    1    1    2  503  504 -0.95804951005E+02 -0.11638288136E+03  0.32667627455E+03  0.35977903228E+03  0.00000000000E+00 0. -1.
         21    1    1    2  504  505 -0.76521730367E+02 -0.47429826790E+02 -0.35372152796E+02  0.96728242416E+02  0.00000000000E+00 0. -1.
         21    1    1    2  505  502 -0.35105467555E+02 -0.33973467198E+02 -0.63855423307E+02  0.80399660518E+02  0.00000000000E+00 0. -1.
          2    1    1    2  501    0  0.20743214893E+03  0.19778617535E+03  0.12393395842E+04  0.12720495559E+04  0.00000000000E+00 0. -1.
<scales pt_clust_3="218.72639" pt_clust_4="146.72485" pt_clust_5="36.39509" pt_clust_6="14000.00000"></scales>
<clustering>
<clus scale="   36.395">  4  5 -1 -1</clus>
<clus scale="  146.725">  2  4  1 -1</clus>
<clus scale="  218.726">  2  3  1 -1</clus>
<clus scale="  146.725">  2  3  1 -1</clus>
</clustering>
</event>
<event>
 6    0  0.3082502E+002  0.1232958E+03  0.7546771E-02  0.1237757E+00
          2   -1    0    0  503    0 -0.00000000000E+00  0.00000000000E+00  0.34552972178E+04  0.34552972178E+04  0.00000000000E+00 0.  1.
         21   -1    0    0  504  502  0.00000000000E+00 -0.00000000000E+00 -0.90195413667E+01  0.90195413667E+01  0.00000000000E+00 0. -1.
         21    1    1    2  503  505 -0.29779441174E+02 -0.70918497140E+01  0.58323865813E+03  0.58404147266E+03  0.00000000000E+00 0.  1.
         21    1    1    2  504  501  0.60405304607E+01 -0.31043340867E+02  0.82712915811E+02  0.88552828653E+02  0.00000000000E+00 0.  1.
         21    1    1    2  505  502 -0.79532240178E+02  0.10273493665E+03  0.14982353327E+04  0.15038580241E+04  0.00000000000E+00 0. -1.
          2    1    1    2  501    0  0.10327115089E+03 -0.64599746066E+02  0.12820907698E+04  0.12878644338E+04  0.00000000000E+00 0.  1.
<scales pt_clust_3="30.61224" pt_clust_4="31.67668" pt_clust_5="123.29579" pt_clust_6="14000.00000"></scales>
<clustering>
<clus scale="   30.612">  1  3  2 -1</clus>
<clus scale="   31.677">  2  4  1 -1</clus>
<clus scale="  123.296">  2  5  1 -1</clus>
<clus scale="   31.677">  2  3  1 -1</clus>
</clustering>
</event>
<event>
 6    0  0.3082502E+002  0.1060470E+03  0.7546771E-02  0.1268070E+00
         -2   -1    0    0    0  501 -0.00000000000E+00  0.00000000000E+00  0.81371246333E+03  0.81371246333E+03  0.00000000000E+00 0. -1.
         21   -1    0    0  503  502  0.00000000000E+00 -0.00000000000E+00 -0.81849554367E+02  0.81849554367E+02  0.00000000000E+00 0. -1.
         21    1    1    2  503  505 -0.55381115141E+02 -0.65129819574E+02  0.12480319925E+03  0.15127722848E+03  0.00000000000E+00 0. -1.
         21    1    1    2  504  502 -0.22311095591E+02  0.38244105209E+02 -0.22968515464E+02  0.49879347152E+02  0.00000000000E+00 0. -1.
         21    1    1    2  505  501 -0.44498450013E+02 -0.25510944949E+02  0.51804286820E+03  0.52057596339E+03  0.00000000000E+00 0. -1.
         -2    1    1    2    0  504  0.12219066074E+03  0.52396659315E+02  0.11198535697E+03  0.17382947868E+03  0.00000000000E+00 0. -1.
<scales pt_clust_3="106.04697" pt_clust_4="44.27637" pt_clust_5="51.31668" pt_clust_6="14000.00000"></scales>
<clustering>
<clus scale="   44.276">  2  4  1 -1</clus>
<clus scale="   51.317">  1  5  2 -1</clus>
<clus scale="  106.047">  2  3  1 -1</clus>
<clus scale="   44.276">  2  3  1 -1</clus>
</clustering>
</event>
<event>
 6    0  0.3082502E+002  0.6932233E+02  0.7546771E-02  0.1362413E+00
         21   -1    0    0  503  502  0.00000000000E+00  0.00000000000E+00  0.52089654659E+02  0.52089654659E+02  0.00000000000E+00 0.  1.
          2   -1    0    0  505    0 -0.00000000000E+00 -0.00000000000E+00 -0.11273709666E+04  0.11273709666E+04  0.00000000000E+00 0. -1.
         21    1    1    2  503  501 -0.26200508505E+02  0.39631078364E+02 -0.50310981805E+01  0.47774480292E+02  0.00000000000E+00 0.  1.
         21    1    1    2  504  502  0.72926021028E+02 -0.87655679603E+02 -0.98117051591E+02  0.15042831689E+03  0.00000000000E+00 0.  1.
         21    1    1    2  505  504  0.19583223769E+02  0.62618686576E+02 -0.47546968498E+03  0.47997502424E+03  0.00000000000E+00 0.  1.
          2    1    1    2  501    0 -0.66308736292E+02 -0.14594085338E+02 -0.49666347720E+03  0.50128279985E+03  0.00000000000E+00 0. -1.
<scales pt_clust_3="47.50883" pt_clust_4="69.32233" pt_clust_5="67.86358" pt_clust_6="14000.00000"></scales>
<clustering>
<clus scale="   47.509">  1  3  2 -1</clus>
<clus scale="   67.864">  2  5  1 -1</clus>
<clus scale="   69.322">  1  4  2 -1</clus>
<clus scale="   47.509">  1  3  2 -1</clus>
</clustering>
</event>
<event>
 6    0  0.3082502E+002  0.1384457E+03  0.7546771E-02  0.1215436E+00
         21   -1    0    0  503  502  0.00000000000E+00  0.00000000000E+00  0.12405737259E+03  0.12405737259E+03  0.00000000000E+00 0. -1.
          1   -1    0    0  505    0 -0.00000000000E+00 -0.00000000000E+00 -0.10768201175E+04  0.10768201175E+04  0.00000000000E+00 0.  1.
         21    1    1    2  503  501  0.42774066972E+02 -0.48752737813E+02 -0.31305690405E+02  0.72017334728E+02  0.00000000000E+00 0. -1.
         21    1    1    2  504  502  0.42340117489E+02  0.30293596929E+02  0.58965449358E+02  0.78659467210E+02  0.00000000000E+00 0. -1.
         21    1    1    2  505  504 -0.19053080083E+03  0.84102087047E+02 -0.34686170276E+03  0.40458396898E+03  0.00000000000E+00 0. -1.
          1    1    1    2  501    0  0.10541661637E+03 -0.65642946162E+02 -0.63356080114E+03  0.64561671921E+03  0.00000000000E+00 0.  1.
<scales pt_clust_3="69.43115" pt_clust_4="52.06138" pt_clust_5="14000.00000" pt_clust_6="138.44573"></scales>
<clustering>
<clus scale="   52.061">  1  4  2 -1</clus>
<clus scale="   69.431">  1  3  2 -1</clus>
<clus scale="  138.446">  2  6  1 -1</clus>
<clus scale="   52.061">  1  3  2 -1</clus>
</clustering>
</event>
<event>
 6    0  0.3082502E+002  0.7860189E+02  0.7546771E-02  0.1333067E+00
         21   -1    0    0  503  502  0.00000000000E+00  0.00000000000E+00  0.12424531088E+03  0.12424531088E+03  0.00000000000E+00 0. -1.
          1   -1    0    0  504    0 -0.00000000000E+00 -0.00000000000E+00 -0.10490684306E+04  0.10490684306E+04  0.00000000000E+00 0.  1.
         21    1    1    2  503  501  0.31108088410E+02 -0.53023291420E+02  0.50669406370E+02  0.79665371018E+02  0.00000000000E+00 0. -1.
         21    1    1    2  504  505  0.44703569761E+02 -0.33632400685E+02 -0.16688657223E+03  0.17601328222E+03  0.00000000000E+00 0. -1.
         21    1    1    2  505  502  0.58627689848E+01  0.46373540802E+02  0.41595371597E+02  0.62570378655E+02  0.00000000000E+00 0. -1.
          1    1    1    2  501    0 -0.81674427156E+02  0.40282151303E+02 -0.85020132548E+03  0.85506470960E+03  0.00000000000E+00 0.  1.
<scales pt_clust_3="38.07041" pt_clust_4="14000.00000" pt_clust_5="46.74267" pt_clust_6="78.60189"></scales>
<clustering>
<clus scale="   46.743">  1  5  2 -1</clus>
<clus scale="   38.070">  1  3  2 -1</clus>
<clus scale="   78.602">  2  6  1 -1</clus>
<clus scale="   46.743">  1  3  2 -1</clus>
</clustering>
</event>
<event>
 6    0  0.3082502E+002  0.1003421E+03  0.7546771E-02  0.1279578E+00
         21   -1    0    0  504  502  0.00000000000E+00  0.00000000000E+00  0.27562386295E+03  0.27562386295E+03  0.00000000000E+00 0. -1.
          1   -1    0    0  503    0 -0.00000000000E+00 -0.00000000000E+00 -0.33492544642E+03  0.33492544642E+03  0.00000000000E+00 0. -1.
         21    1    1    2  503  505 -0.83937862207E+01  0.29079873081E+02 -0.19442112393E+03  0.19676297441E+03  0.00000000000E+00 0. -1.
         21    1    1    2  504  501 -0.51618736995E+02 -0.16621670785E+02  0.98693916111E+02  0.11261111413E+03  0.00000000000E+00 0. -1.
         21    1    1    2  505  502 -0.34942872289E+02  0.71127468769E+02  0.12411101890E+03  0.14725374749E+03  0.00000000000E+00 0. -1.
          1    1    1    2  501    0  0.94955395504E+02 -0.83585671065E+02 -0.87685394543E+02  0.15392147335E+03  0.00000000000E+00 0. -1.
<scales pt_clust_3="30.26706" pt_clust_4="54.20384" pt_clust_5="100.34208" pt_clust_6="14000.00000"></scales>
<clustering>
<clus scale="   30.267">  2  3  1 -1</clus>
<clus scale="   54.204">  1  4  2 -1</clus>
<clus scale="  100.342">  1  5  2 -1</clus>
<clus scale="   54.204">  1  3  2 -1</clus>
</clustering>
</event>
<event>
 6    0  0.3082502E+002  0.1250659E+03  0.7546771E-02  0.1234966E+00
          2   -1    0    0  503    0 -0.00000000000E+00  0.00000000000E+00  0.31582354841E+04  0.31582354841E+04  0.00000000000E+00 0.  1.
         21   -1    0    0  504  502  0.00000000000E+00 -0.00000000000E+00 -0.96360109717E+03  0.96360109717E+03  0.00000000000E+00 0. -1.
         21    1    1    2  503  505  0.17014625511E+02  0.10504291217E+03  0.11971147499E+04  0.12018349452E+04  0.00000000000E+00 0. -1.
         21    1    1    2  504  501 -0.72571581330E+02  0.80071264450E+02 -0.89940529531E+03  0.90587412317E+03  0.00000000000E+00 0. -1.
         21    1    1    2  505  502 -0.20237828343E+01 -0.33142179985E+02 -0.50224447140E+02  0.60207930388E+02  0.00000000000E+00 0. -1.
          2    1    1    2  501    0  0.57580738653E+02 -0.15197199664E+03  0.19471493794E+04  0.19539195826E+04  0.00000000000E+00 0.  1.
<scales pt_clust_3="14000.00000" pt_clust_4="88.23047" pt_clust_5="33.20391" pt_clust_6="125.06593"></scales>
<clustering>
<clus scale="   33.204">  2  5  1 -1</clus>
<clus scale="   88.230">  2  4  1 -1</clus>
<clus scale="  125.066">  2  6  1 -1</clus>
<clus scale="   33.204">  2  3  1 -1</clus>
</clustering>
</event>
<event>
 6    0  0.3082502E+002  0.1031982E+03  0.7546771E-02  0.1273711E+00
         21   -1    0    0  505  502  0.00000000000E+00  0.00000000000E+00  0.23247605098E+03  0.23247605098E+03  0.00000000000E+00 0. -1.
          2   -1    0    0  504    0 -0.00000000000E+00 -0.00000000000E+00 -0.12638849349E+04  0.12638849349E+04  0.00000000000E+00 0.  1.
         21    1    1    2  503  502  0.36565671167E+02  0.32771112833E+02  0.31361655522E+02  0.58262746084E+02  0.00000000000E+00 0.  1.
         21    1    1    2  504  503  0.23199888508E+02  0.23178094591E+02 -0.13242982764E+03  0.13642990195E+03  0.00000000000E+00 0. -1.
         21    1    1    2  505  501 -0.12839943795E+03  0.14060248808E+02  0.16073121206E+03  0.20620045779E+03  0.00000000000E+00 0. -1.
          2    1    1    2  501    0  0.68633878275E+02 -0.70009456232E+02 -0.10910719239E+04  0.10954678801E+04  0.00000000000E+00 0.  1.
<scales pt_clust_3="49.49185" pt_clust_4="32.79419" pt_clust_5="14000.00000" pt_clust_6="103.19816"></scales>
<clustering>
<clus scale="   32.794">  2  4  1 -1</clus>
<clus scale="   49.492">  1  3  2 -1</clus>
<clus scale="  103.198">  2  6  1 -1</clus>
<clus scale="   49.492">  1  3  2 -1</clus>
</clustering>
</event>
<event>
 6    0  0.3082502E+002  0.1428855E+03  0.7546771E-02  0.1209498E+00
         21   -1    0    0  505  502  0.00000000000E+00  0.00000000000E+00  0.45094475753E+02  0.45094475753E+02  0.00000000000E+00 0. -1.
          2   -1    0    0  504    0 -0.00000000000E+00 -0.00000000000E+00 -0.14545706763E+04  0.14545706763E+04  0.00000000000E+00 0.  1.
         21    1    1    2  503  501  0.55759437305E+02  0.86799314354E+01 -0.10655619363E+03  0.12057644239E+03  0.00000000000E+00 0. -1.
         21    1    1    2  504  502 -0.46291754977E+01 -0.57305464748E+02 -0.82725766759E+03  0.82925303385E+03  0.00000000000E+00 0.  1.
         21    1    1    2  505  503 -0.12844415823E+03  0.14886006066E+02 -0.96342666154E+02  0.16124950940E+03  0.00000000000E+00 0. -1.
          2    1    1    2  501    0  0.77313896420E+02  0.33739527246E+02 -0.37931967319E+03  0.38858616644E+03  0.00000000000E+00 0.  1.
<scales pt_clust_3="49.50375" pt_clust_4="57.49213" pt_clust_5="129.43327" pt_clust_6="49.50375"></scales>
<clustering>
<clus scale="   49.504">  3  6 -1 -1</clus>
<clus scale="   57.492">  2  4  1 -1</clus>
<clus scale="  129.433">  1  5  2 -1</clus>
<clus scale="  129.433">  1  3  2 -1</clus>
</clustering>
</event>
<event>
 6    0  0.3082502E+002  0.2391497E+03  0.7546771E-02  0.1120361E+00
         21   -1    0    0  505  502  0.00000000000E+00  0.00000000000E+00  0.21981122943E+04  0.21981122943E+04  0.00000000000E+00 0. -1.
         -2   -1    0    0    0  501 -0.00000000000E+00 -0.00000000000E+00 -0.43119723076E+02  0.43119723076E+02  0.00000000000E+00 0. -1.
         21    1    1    2  503  501  0.36217246660E+02  0.15852765223E+02  0.68688539563E+02  0.79253483129E+02  0.00000000000E+00 0.  1.
         21    1    1    2  504  502 -0.70798874309E+02  0.31700955786E+01  0.38751887172E+03  0.39394594305E+03  0.00000000000E+00 0. -1.
         21    1    1    2  505  503  0.63157694166E+02  0.22763754640E+03  0.95978849594E+03  0.98843396532E+03  0.00000000000E+00 0. -1.
         -2    1    1    2    0  504 -0.28576066518E+02 -0.24666040720E+03  0.73899666402E+03  0.77959862589E+03  0.00000000000E+00 0. -1.
<scales pt_clust_3="39.53478" pt_clust_4="67.87336" pt_clust_5="239.14970" pt_clust_6="14000.00000"></scales>
<clustering>
<clus scale="   39.535">  2  3  1 -1</clus>
<clus scale="   67.873">  1  4  2 -1</clus>
<clus scale="  239.150">  1  5  2 -1</clus>
<clus scale="   67.873">  1  3  2 -1</clus>
</clustering>
</event>
<event>
 6    0  0.3082502E+002  0.1165660E+03  0.7546771E-02  0.1248872E+00
          4   -1    0    0  504    0 -0.00000000000E+00  0.00000000000E+00  0.36182262106E+03  0.36182262106E+03  0.00000000000E+00 0.  1.
         21   -1    0    0  505  502  0.00000000000E+00 -0.00000000000E+00 -0.26207660216E+03  0.26207660216E+03  0.00000000000E+00 0.  1.
         21    1    1    2  503  502 -0.41733945138E+02 -0.25506976814E+02 -0.11104228217E+03  0.12133720152E+03  0.00000000000E+00 0.  1.
         21    1    1    2  504  503 -0.69538069165E+02 -0.88684972127E+01  0.14034156731E+02  0.71492313301E+02  0.00000000000E+00 0.  1.
         21    1    1    2  505  501  0.28379693837E+02 -0.62708458266E+02 -0.92266187218E+02  0.11511214994E+03  0.00000000000E+00 0.  1.
          4    1    1    2  501    0  0.82892320465E+02  0.97083932292E+02  0.28902033155E+03  0.31595755846E+03  0.00000000000E+00 0.  1.
<scales pt_clust_3="48.91143" pt_clust_4="78.98775" pt_clust_5="116.56604" pt_clust_6="14000.00000"></scales>
<clustering>
<clus scale="   48.911">  2  3  1 -1</clus>
<clus scale="   78.988">  2  4  1 -1</clus>
<clus scale="  116.566">  2  5  1 -1</clus>
<clus scale="   48.911">  2  3  1 -1</clus>
</clustering>
</event>
<event>
 6    0  0.3082502E+002  0.2044001E+03  0.7546771E-02  0.1146079E+00
         21   -1    0    0  501  502  0.00000000000E+00  0.00000000000E+00  0.72360389375E+02  0.72360389375E+02  0.00000000000E+00 0.  1.
          2   -1    0    0  504    0 -0.00000000000E+00 -0.00000000000E+00 -0.20131494121E+04  0.20131494121E+04  0.00000000000E+00 0. -1.
         21    1    1    2  503  502  0.63275829175E+02  0.63991626248E+02 -0.78985505420E+02  0.11973917009E+03  0.00000000000E+00 0.  1.
         21    1    1    2  504  505 -0.20707312585E+02  0.36527134217E+02 -0.37395176685E+03  0.37630167188E+03  0.00000000000E+00 0.  1.
         21    1    1    2  505  503  0.92675927567E+02  0.48558472890E+02 -0.18322800523E+02  0.10621900893E+03  0.00000000000E+00 0.  1.
          2    1    1    2  501    0 -0.13524444416E+03 -0.14907723335E+03 -0.14695289499E+04  0.14832499506E+04  0.00000000000E+00 0. -1.
<scales pt_clust_3="63.16503" pt_clust_4="41.98838" pt_clust_5="63.16503" pt_clust_6="192.82029"></scales>
<clustering>
<clus scale="   41.988">  2  4  1 -1</clus>
<clus scale="   63.165">  3  5 -1 -1</clus>
<clus scale="  192.820">  2  6  1 -1</clus>
<clus scale="  204.400">  1  3  2 -1</clus>
</clustering>
</event>
<event>
 6    0  0.3082502E+002  0.1612128E+03  0.7546771E-02  0.1187334E+00
          2   -1    0    0  503    0 -0.00000000000E+00  0.00000000000E+00  0.28456010739E+04  0.28456010739E+04  0.00000000000E+00 0. -1.
         21   -1    0    0  501  502  0.00000000000E+00 -0.00000000000E+00 -0.10365184183E+03  0.10365184183E+03  0.00000000000E+00 0. -1.
         21    1    1    2  503  505  0.62535901097E+02  0.30269986051E+02  0.10755966218E+04  0.10778381621E+04  0.00000000000E+00 0.  1.
         21    1    1    2  504  502 -0.10737091538E+03  0.33536384402E+02 -0.48620241946E+02  0.12254440206E+03  0.00000000000E+00 0. -1.
         21    1    1    2  505  504 -0.35740825248E+02  0.21343300005E+02  0.14084329678E+02  0.43946688010E+02  0.00000000000E+00 0. -1.
          2    1    1    2  501    0  0.80575839533E+02 -0.85149670458E+02  0.17008885226E+04  0.17049236635E+04  0.00000000000E+00 0. -1.
<scales pt_clust_3="69.47669" pt_clust_4="33.50732" pt_clust_5="33.50732" pt_clust_6="151.51160"></scales>
<clustering>
<clus scale="   33.507">  4  5 -1 -1</clus>
<clus scale="   69.477">  1  3  2 -1</clus>
<clus scale="  151.512">  1  6  2 -1</clus>
<clus scale="  161.213">  2  3  1 -1</clus>
</clustering>
</event>
<event>
 6    0  0.3082502E+002  0.1005801E+03  0.7546771E-02  0.1279081E+00
         21   -1    0    0  503  502  0.00000000000E+00  0.00000000000E+00  0.49507678203E+03  0.49507678203E+03  0.00000000000E+00 0. -1.
         -2   -1    0    0    0  501 -0.00000000000E+00 -0.00000000000E+00 -0.21053195092E+03  0.21053195092E+03  0.00000000000E+00 0.  1.
         21    1    1    2  503  505 -0.50652192037E+02  0.40290528180E+02  0.54551254482E+02  0.84645204145E+02  0.00000000000E+00 0.  1.
         21    1    1    2  504  502  0.31534333492E+02 -0.25722803985E+02  0.33868632657E+03  0.34112241884E+03  0.00000000000E+00 0. -1.
         21    1    1    2  505  501 -0.68971291135E+02 -0.66410015773E+02  0.36339462862E+02  0.10241037915E+03  0.00000000000E+00 0.  1.
         -2    1    1    2    0  504  0.88089149680E+02  0.51842291577E+02 -0.14503221280E+03  0.17743073082E+03  0.00000000000E+00 0.  1.
<scales pt_clust_3="46.47162" pt_clust_4="40.69492" pt_clust_5="14000.00000" pt_clust_6="100.58011"></scales>
<clustering>
<clus scale="   40.695">  1  4  2 -1</clus>
<clus scale="   46.472">  1  3  2 -1</clus>
<clus scale="  100.580">  2  6  1 -1</clus>
<clus scale="   40.695">  1  3  2 -1</clus>
</clustering>
</event>
<event>
 6    0  0.3082502E+002  0.8716037E+02  0.7546771E-02  0.1309878E+00
         21   -1    0    0  503  502  0.00000000000E+00  0.00000000000E+00  0.12468180014E+04  0.12468180014E+04  0.00000000000E+00 0. -1.
         -4   -1    0    0    0  501 -0.00000000000E+00 -0.00000000000E+00 -0.45376144172E+02  0.45376144172E+02  0.00000000000E+00 0. -1.
         21    1    1    2  503  501  0.72091050298E+02  0.61547093147E+02  0.88842132698E+03  0.89346383164E+03  0.00000000000E+00 0. -1.
         21    1    1    2  504  505 -0.45227716781E+02 -0.16707828432E+02  0.43611398870E+02  0.65012706509E+02  0.00000000000E+00 0. -1.
         21    1    1    2  505  502 -0.19603867630E+02 -0.78747020203E+02  0.28453869435E+03  0.29588456093E+03  0.00000000000E+00 0. -1.
         -4    1    1    2    0  504 -0.72594658867E+01  0.33907755489E+02 -0.15129563009E+02  0.37833046455E+02  0.00000000000E+00 0. -1.
<scales pt_clust_3="14000.00000" pt_clust_4="49.40199" pt_clust_5="87.16037" pt_clust_6="34.67616"></scales>
<clustering>
<clus scale="   34.676">  2  6  1 -1</clus>
<clus scale="   49.402">  2  4  1 -1</clus>
<clus scale="   87.160">  2  5  1 -1</clus>
<clus scale="   87.160">  1  3  2 -1</clus>
</clustering>
</event>
<event>
 6    0  0.3082502E+002  0.1097627E+03  0.7546771E-02  0.1261010E+00
          2   -1    0    0  503    0 -0.00000000000E+00  0.00000000000E+00  0.43240869225E+03  0.43240869225E+03  0.00000000000E+00 0. -1.
         21   -1    0    0  505  502  0.00000000000E+00 -0.00000000000E+00 -0.77903206106E+03  0.77903206106E+03  0.00000000000E+00 0.  1.
         21    1    1    2  503  502 -0.31055486715E+02  0.12337478239E+02  0.40987733151E+02  0.52883370668E+02  0.00000000000E+00 0.  1.
         21    1    1    2  504  501 -0.85983509557E+02 -0.49491875373E+02 -0.63092871394E+02  0.11757261613E+03  0.00000000000E+00 0. -1.
         21    1    1    2  505  504 -0.20568528085E+02  0.23148341858E+02 -0.66902837150E+03  0.66974463190E+03  0.00000000000E+00 0.  1.
          2    1    1    2  501    0  0.13760752436E+03  0.14006055277E+02  0.34451014093E+03  0.37124013461E+03  0.00000000000E+00 0. -1.
<scales pt_clust_3="34.92511" pt_clust_4="14000.00000" pt_clust_5="30.96627" pt_clust_6="109.76267"></scales>
<clustering>
<clus scale="   30.966">  2  5  1 -1</clus>
<clus scale="   34.925">  1  3  2 -1</clus>
<clus scale="  109.763">  1  6  2 -1</clus>
<clus scale="   30.966">  2  3  1 -1</clus>
</clustering>
</event>
<event>
 6    0  0.3082502E+002  0.7171813E+02  0.7546771E-02  0.1354346E+00
         -4   -1    0    0    0  501 -0.00000000000E+00  0.00000000000E+00  0.11408173741E+04  0.11408173741E+04  0.00000000000E+00 0. -1.
         21   -1    0    0  503  502  0.00000000000E+00 -0.00000000000E+00 -0.95633394658E+02  0.95633394658E+02  0.00000000000E+00 0.  1.
         21    1    1    2  503  504 -0.36714020414E+02  0.63100769618E+02 -0.65412510444E+02  0.98022563443E+02  0.00000000000E+00 0.  1.
         21    1    1    2  504  505 -0.69069392880E+01 -0.71512631040E+02  0.14646666512E+03  0.16313873298E+03  0.00000000000E+00 0.  1.
         21    1    1    2  505  501 -0.27035636172E+02  0.49476047291E+02  0.23856672862E+03  0.24513850959E+03  0.00000000000E+00 0. -1.
         -4    1    1    2    0  502  0.70656595874E+02 -0.41064185869E+02  0.72556309611E+03  0.73015096271E+03  0.00000000000E+00 0. -1.
<scales pt_clust_3="71.71813" pt_clust_4="14000.00000" pt_clust_5="56.38089" pt_clust_6="48.77725"></scales>
<clustering>
<clus scale="   56.381">  1  5  2 -1</clus>
<clus scale="   48.777">  1  6  2 -1</clus>
<clus scale="   71.718">  2  3  1 -1</clus>
<clus scale="   71.718">  2  3  1 -1</clus>
</clustering>
</event>
<event>
 6    0  0.3082502E+002  0.1007128E+03  0.7546771E-02  0.1278804E+00
          2   -1    0    0  504    0 -0.00000000000E+00  0.00000000000E+00  0.25832920511E+04  0.25832920511E+04  0.00000000000E+00 0.  1.
         21   -1    0    0  503  502  0.00000000000E+00 -0.00000000000E+00 -0.24950599203E+02  0.24950599203E+02  0.00000000000E+00 0.  1.
         21    1    1    2  503  501 -0.41395806989E+02  0.87165396266E+01  0.30368017443E+02  0.52075016877E+02  0.00000000000E+00 0.  1.
         21    1    1    2  504  505  0.25617047092E+02  0.16515327313E+02  0.95105758723E+03  0.95154585983E+03  0.00000000000E+00 0.  1.
         21    1    1    2  505  502  0.91369260749E+02  0.69017526600E+02  0.28609614443E+03  0.30816029051E+03  0.00000000000E+00 0.  1.
          2    1    1    2  501    0 -0.75590500852E+02 -0.94249393540E+02  0.12908197028E+04  0.12964614831E+04  0.00000000000E+00 0.  1.
<scales pt_clust_3="41.75986" pt_clust_4="30.47932" pt_clust_5="14000.00000" pt_clust_6="100.71280"></scales>
<clustering>
<clus scale="   30.479">  1  4  2 -1</clus>
<clus scale="   41.760">  2  3  1 -1</clus>
<clus scale="  100.713">  1  6  2 -1</clus>
<clus scale="   41.760">  2  3  1 -1</clus>
</clustering>
</event>
<event>
 6    0  0.3082502E+002  0.1179945E+03  0.7546771E-02  0.1246443E+00
         21   -1    0    0  504  502  0.00000000000E+00  0.00000000000E+00  0.20239570115E+03  0.20239570115E+03  0.00000000000E+00 0.  1.
          2   -1    0    0  505    0 -0.00000000000E+00 -0.00000000000E+00 -0.29262959655E+04  0.29262959655E+04  0.00000000000E+00 0. -1.
         21    1    1    2  503  502  0.60828113535E+02  0.21581009854E+02  0.14153572711E+03  0.15555758236E+03  0.00000000000E+00 0.  1.
         21    1    1    2  504  501  0.30875931404E+01  0.83387705416E+02  0.16379648578E+02  0.85037259677E+02  0.00000000000E+00 0.  1.
         21    1    1    2  505  503 -0.19797243273E+02 -0.55418942023E+02 -0.31657080785E+03  0.32199420237E+03  0.00000000000E+00 0. -1.
          2    1    1    2  501    0 -0.44118463402E+02 -0.49549773247E+02 -0.25652448322E+04  0.25661026223E+04  0.00000000000E+00 0. -1.
<scales pt_clust_3="64.44311" pt_clust_4="14000.00000" pt_clust_5="58.84887" pt_clust_6="117.99452"></scales>
<clustering>
<clus scale="   58.849">  2  5  1 -1</clus>
<clus scale="   64.443">  1  3  2 -1</clus>
<clus scale="  117.995">  2  6  1 -1</clus>
<clus scale="   64.443">  1  3  2 -1</clus>
</clustering>
</event>
<event>
 6    0  0.3082502E+002  0.8606050E+02  0.7546771E-02  0.1312682E+00
          2   -1    0    0  505    0 -0.00000000000E+00  0.00000000000E+00  0.16847307380E+04  0.16847307380E+04  0.00000000000E+00 0. -1.
         21   -1    0    0  504  502  0.00000000000E+00 -0.00000000000E+00 -0.31818435327E+02  0.31818435327E+02  0.00000000000E+00 0. -1.
         21    1    1    2  503  502  0.27810029946E+02 -0.14536281624E+02  0.33110545171E+02  0.45618082496E+02  0.00000000000E+00 0. -1.
         21    1    1    2  504  501 -0.29822805309E+02  0.43490765160E+02  0.18077763314E+02  0.55746317341E+02  0.00000000000E+00 0. -1.
         21    1    1    2  505  503  0.62352952949E+02 -0.83351215295E+02  0.51418199613E+03  0.52461265804E+03  0.00000000000E+00 0. -1.
          2    1    1    2  501    0 -0.60340177586E+02  0.54396731759E+02  0.10875419981E+04  0.10905721154E+04  0.00000000000E+00 0. -1.
<scales pt_clust_3="31.37995" pt_clust_4="34.08448" pt_clust_5="86.06050" pt_clust_6="14000.00000"></scales>
<clustering>
<clus scale="   31.380">  2  3  1 -1</clus>
<clus scale="   34.084">  2  4  1 -1</clus>
<clus scale="   86.060">  2  5  1 -1</clus>
<clus scale="   31.380">  2  3  1 -1</clus>
</clustering>
</event>
<event>
 6    0  0.3082502E+002  0.2051550E+03  0.7546771E-02  0.1145461E+00
         21   -1    0    0  505  502  0.00000000000E+00  0.00000000000E+00  0.13569111643E+03  0.13569111643E+03  0.00000000000E+00 0.  1.
          2   -1    0    0  504    0 -0.00000000000E+00 -0.00000000000E+00 -0.34266568208E+04  0.34266568208E+04  0.00000000000E+00 0. -1.
         21    1    1    2  503  502  0.17090116495E+02 -0.28385564703E+02 -0.25453688506E+02  0.41781606287E+02  0.00000000000E+00 0.  1.
         21    1    1    2  504  503 -0.22019515843E+02 -0.38083905418E+02 -0.16278175287E+03  0.16862129758E+03  0.00000000000E+00 0. -1.
         21    1    1    2  505  501  0.18815687161E+03  0.53030863276E+02  0.43571290007E+02  0.20028414342E+03  0.00000000000E+00 0.  1.
          2    1    1    2  501    0 -0.18322747226E+03  0.13438606845E+02 -0.31463015530E+04  0.31516608899E+04  0.00000000000E+00 0. -1.
<scales pt_clust_3="33.13325" pt_clust_4="44.36314" pt_clust_5="205.15496" pt_clust_6="14000.00000"></scales>
<clustering>
<clus scale="   33.133">  1  3  2 -1</clus>
<clus scale="   44.363">  2  4  1 -1</clus>
<clus scale="  205.155">  1  5  2 -1</clus>
<clus scale="   33.133">  1  3  2 -1</clus>
</clustering>
</event>
<event>
 6    0  0.3082502E+002  0.9415751E+02  0.7546771E-02  0.1293085E+00
         21   -1    0    0  503  502  0.00000000000E+00  0.00000000000E+00  0.11256078862E+03  0.11256078862E+03  0.00000000000E+00 0.  1.
          2   -1    0    0  504    0 -0.00000000000E+00 -0.00000000000E+00 -0.24886372369E+04  0.24886372369E+04  0.00000000000E+00 0. -1.
         21    1    1    2  503  505  0.93264858644E+02  0.78620227958E+01  0.79774451612E+02  0.12298011380E+03  0.00000000000E+00 0.  1.
         21    1    1    2  504  502  0.34316399635E+02  0.36990208992E+02 -0.39672045472E+03  0.39991625378E+03  0.00000000000E+00 0. -1.
         21    1    1    2  505  501 -0.97923661985E+02 -0.53192971991E+02 -0.31910959651E+03  0.33800809225E+03  0.00000000000E+00 0.  1.
          2    1    1    2  501    0 -0.29657596294E+02  0.83407402029E+01 -0.17400208487E+04  0.17402935657E+04  0.00000000000E+00 0. -1.
<scales pt_clust_3="14000.00000" pt_clust_4="45.38552" pt_clust_5="94.15751" pt_clust_6="30.80813"></scales>
<clustering>
<clus scale="   30.808">  2  6  1 -1</clus>
<clus scale="   45.386">  2  4  1 -1</clus>
<clus scale="   94.158">  2  5  1 -1</clus>
<clus scale="   94.158">  1  3  2 -1</clus>
</clustering>
</event>
<event>
 6    0  0.3082502E+002  0.1444189E+03  0.7546771E-02  0.1207504E+00
          2   -1    0    0  504    0 -0.00000000000E+00  0.00000000000E+00  0.25038245947E+04  0.25038245947E+04  0.00000000000E+00 0.  1.
         21   -1    0    0  501  502  0.00000000000E+00 -0.00000000000E+00 -0.64660655740E+02  0.64660655740E+02  0.00000000000E+00 0.  1.
         21    1    1    2  503  502 -0.25356077094E+02 -0.32634144328E+02 -0.24133036312E+02  0.47857303134E+02  0.00000000000E+00 0.  1.
         21    1    1    2  504  505 -0.19616674229E+02 -0.11286566277E+03  0.53507545340E+03  0.54720125418E+03  0.00000000000E+00 0. -1.
         21    1    1    2  505  503 -0.73822405764E+02  0.19742157790E+02  0.59853127934E+02  0.97066458216E+02  0.00000000000E+00 0.  1.
          2    1    1    2  501    0  0.11879515709E+03  0.12575764930E+03  0.18683683939E+04  0.18763602349E+04  0.00000000000E+00 0.  1.
<scales pt_clust_3="41.32696" pt_clust_4="144.41891" pt_clust_5="90.29244" pt_clust_6="14000.00000"></scales>
<clustering>
<clus scale="   41.327">  2  3  1 -1</clus>
<clus scale="   90.292">  2  5  1 -1</clus>
<clus scale="  144.419">  2  4  1 -1</clus>
<clus scale="   41.327">  2  3  1 -1</clus>
</clustering>
</event>
<event>
 6    0  0.3082502E+002  0.1074619E+03  0.7546771E-02  0.1265344E+00
          2   -1    0    0  505    0 -0.00000000000E+00  0.00000000000E+00  0.55315245782E+03  0.55315245782E+03  0.00000000000E+00 0. -1.
         21   -1    0    0  503  502  0.00000000000E+00 -0.00000000000E+00 -0.11696004767E+04  0.11696004767E+04  0.00000000000E+00 0.  1.
         21    1    1    2  503  504  0.61279250207E+02  0.89031361773E+02 -0.90168947130E+03  0.90814405935E+03  0.00000000000E+00 0.  1.
         21    1    1    2  504  501 -0.10288183988E+03 -0.53194438240E+02 -0.21784871027E+03  0.24672328995E+03  0.00000000000E+00 0.  1.
         21    1    1    2  505  502 -0.30606947383E+01  0.75028544519E+02  0.31578638052E+02  0.81460792570E+02  0.00000000000E+00 0.  1.
          2    1    1    2  501    0  0.44663284415E+02 -0.11086546805E+03  0.47151152466E+03  0.48642479262E+03  0.00000000000E+00 0. -1.
<scales pt_clust_3="14000.00000" pt_clust_4="107.46192" pt_clust_5="75.09095" pt_clust_6="56.76730"></scales>
<clustering>
<clus scale="   75.091">  1  5  2 -1</clus>
<clus scale="   56.767">  1  6  2 -1</clus>
<clus scale="  107.462">  1  4  2 -1</clus>
<clus scale="  107.462">  2  3  1 -1</clus>
</clustering>
</event>
<event>
 6    0  0.3082502E+002  0.1166595E+03  0.7546771E-02  0.1248712E+00
          1   -1    0    0  504    0 -0.00000000000E+00  0.00000000000E+00  0.12024945531E+04  0.12024945531E+04  0.00000000000E+00 0. -1.
         21   -1    0    0  505  502  0.00000000000E+00 -0.00000000000E+00 -0.28479030123E+03  0.28479030123E+03  0.00000000000E+00 0.  1.
         21    1    1    2  503  502  0.31949886335E+02 -0.51577083231E+01 -0.96193392824E+01  0.33762832823E+02  0.00000000000E+00 0.  1.
         21    1    1    2  504  503 -0.28494114084E+02  0.32292651385E+02  0.27444175428E+03  0.27780029943E+03  0.00000000000E+00 0. -1.
         21    1    1    2  505  501 -0.67876079597E+00  0.11695859927E+03 -0.24227911816E+03  0.26903335436E+03  0.00000000000E+00 0.  1.
          1    1    1    2  501    0 -0.27770114551E+01 -0.14409354234E+03  0.89516095504E+03  0.90668836772E+03  0.00000000000E+00 0. -1.
<scales pt_clust_3="32.36352" pt_clust_4="42.90717" pt_clust_5="116.65950" pt_clust_6="14000.00000"></scales>
<clustering>
<clus scale="   32.364">  2  3  1 -1</clus>
<clus scale="   42.907">  1  4  2 -1</clus>
<clus scale="  116.660">  2  5  1 -1</clus>
<clus scale="   32.364">  2  3  1 -1</clus>
</clustering>
</event>
<event>
 6    0  0.3082502E+002  0.8726247E+02  0.7546771E-02  0.1309620E+00
         21   -1    0    0  504  502  0.00000000000E+00  0.00000000000E+00  0.11136492620E+03  0.11136492620E+03  0.00000000000E+00 0.  1.
          1   -1    0    0  503    0 -0.00000000000E+00 -0.00000000000E+00 -0.42235468174E+03  0.42235468174E+03  0.00000000000E+00 0.  1.
         21    1    1    2  503  505 -0.64921101788E+02 -0.42954311345E+02 -0.17435733124E+03  0.19094580718E+03  0.00000000000E+00 0.  1.
         21    1    1    2  504  501  0.40205993146E+02 -0.16328935782E+02  0.53946909350E+02  0.69234565478E+02  0.00000000000E+00 0.  1.
         21    1    1    2  505  502  0.39327992685E+01 -0.65990395453E+02 -0.43069955106E+02  0.78900064860E+02  0.00000000000E+00 0.  1.
          1    1    1    2  501    0  0.20782309374E+02  0.12527364258E+03 -0.14750937854E+03  0.19463917043E+03  0.00000000000E+00 0.  1.
<scales pt_clust_3="73.99968" pt_clust_4="43.39535" pt_clust_5="14000.00000" pt_clust_6="87.26247"></scales>
<clustering>
<clus scale="   43.395">  1  4  2 -1</clus>
<clus scale="   74.000">  2  3  1 -1</clus>
<clus scale="   87.262">  2  6  1 -1</clus>
<clus scale="   43.395">  1  3  2 -1</clus>
</clustering>
</event>
<event>
 6    0  0.3082502E+002  0.8500284E+02  0.7546771E-02  0.1315425E+00
          2   -1    0    0  503    0 -0.00000000000E+00  0.00000000000E+00  0.11674299244E+03  0.11674299244E+03  0.00000000000E+00 0. -1.
         21   -1    0    0  505  502  0.00000000000E+00 -0.00000000000E+00 -0.16981497221E+04  0.16981497221E+04  0.00000000000E+00 0. -1.
         21    1    1    2  503  504 -0.34862661596E+02 -0.22523894256E+02 -0.38238441236E+02  0.56435001322E+02  0.00000000000E+00 0.  1.
         21    1    1    2  504  502  0.39509168749E+02  0.74602834120E+02 -0.15566984540E+04  0.15589857709E+04  0.00000000000E+00 0. -1.
         21    1    1    2  505  501 -0.89363476043E+01 -0.11931859189E+03 -0.24454092531E+02  0.12212611236E+03  0.00000000000E+00 0. -1.
          2    1    1    2  501    0  0.42898404517E+01  0.67239652028E+02  0.37984258141E+02  0.77345829897E+02  0.00000000000E+00 0. -1.
<scales pt_clust_3="41.50579" pt_clust_4="85.00284" pt_clust_5="14000.00000" pt_clust_6="57.01832"></scales>
<clustering>
<clus scale="   41.506">  1  3  2 -1</clus>
<clus scale="   57.018">  1  6  2 -1</clus>
<clus scale="   85.003">  2  4  1 -1</clus>
<clus scale="   85.003">  2  3  1 -1</clus>
</clustering>
</event>
<event>
 6    0  0.3082502E+002  0.3176855E+03  0.7546771E-02  0.1076719E+00
          2   -1    0    0  504    0 -0.00000000000E+00  0.00000000000E+00  0.13345482035E+04  0.13345482035E+04  0.00000000000E+00 0.  1.
         21   -1    0    0  505  502  0.00000000000E+00 -0.00000000000E+00 -0.45465706720E+03  0.45465706720E+03  0.00000000000E+00 0.  1.
         21    1    1    2  503  501 -0.21747233202E+03 -0.20605891967E+03  0.12588754866E+03  0.32496487268E+03  0.00000000000E+00 0.  1.
         21    1    1    2  504  502  0.92471306920E+00  0.40522975242E+02  0.15894014523E+03  0.16402724280E+03  0.00000000000E+00 0. -1.
         21    1    1    2  505  503  0.26975551588E+03  0.18086417248E+03 -0.27671715462E+03  0.42667583819E+03  0.00000000000E+00 0.  1.
          2    1    1    2  501    0 -0.53207896927E+02 -0.15328228062E+02  0.87178059706E+03  0.87353731705E+03  0.00000000000E+00 0.  1.
<scales pt_clust_3="14000.00000" pt_clust_4="40.53352" pt_clust_5="317.68547" pt_clust_6="54.57017"></scales>
<clustering>
<clus scale="   40.534">  1  4  2 -1</clus>
<clus scale="   54.570">  1  6  2 -1</clus>
<clus scale="  317.685">  2  5  1 -1</clus>
<clus scale="  317.685">  2  3  1 -1</clus>
</clustering>
</event>
<event>
 6    0  0.3082502E+002  0.1639440E+03  0.7546771E-02  0.1184315E+00
         21   -1    0    0  503  502  0.00000000000E+00  0.00000000000E+00  0.10388594424E+04  0.10388594424E+04  0.00000000000E+00 0.  1.
          1   -1    0    0  505    0 -0.00000000000E+00 -0.00000000000E+00 -0.15420974099E+03  0.15420974099E+03  0.00000000000E+00 0.  1.
         21    1    1    2  503  501 -0.16366785868E+03  0.36885439063E+02  0.84876592613E+03  0.86518859270E+03  0.00000000000E+00 0.  1.
         21    1    1    2  504  502  0.69523307233E+02 -0.27406453399E+02  0.10922690809E+03  0.13234470669E+03  0.00000000000E+00 0. -1.
         21    1    1    2  505  504 -0.36686377595E+02 -0.12966571993E+02 -0.48738819091E+02  0.62365814166E+02  0.00000000000E+00 0.  1.
          1    1    1    2  501    0  0.13083092904E+03  0.34875863288E+01 -0.24604313708E+02  0.13317006986E+03  0.00000000000E+00 0.  1.
<scales pt_clust_3="14000.00000" pt_clust_4="71.35125" pt_clust_5="38.91044" pt_clust_6="163.94401"></scales>
<clustering>
<clus scale="   38.910">  2  5  1 -1</clus>
<clus scale="   71.351">  2  4  1 -1</clus>
<clus scale="  163.944">  2  6  1 -1</clus>
<clus scale="  163.944">  1  3  2 -1</clus>
</clustering>
</event>
<event>
 6    0  0.3082502E+002  0.7296466E+02  0.7546771E-02  0.1350292E+00
         21   -1    0    0  504  502  0.00000000000E+00  0.00000000000E+00  0.14752252130E+02  0.14752252130E+02  0.00000000000E+00 0. -1.
          2   -1    0    0  505    0 -0.00000000000E+00 -0.00000000000E+00 -0.19013236901E+04  0.19013236901E+04  0.00000000000E+00 0. -1.
         21    1    1    2  503  501 -0.66926874774E+02  0.42339351241E+02 -0.25393880444E+03  0.26600139780E+03  0.00000000000E+00 0.  1.
         21    1    1    2  504  503  0.17300840284E+01 -0.40346936433E+02 -0.78891764713E+02  0.88627191142E+02  0.00000000000E+00 0. -1.
         21    1    1    2  505  502 -0.25560160426E+02 -0.40790825622E+02 -0.77212401100E+03  0.77362310050E+03  0.00000000000E+00 0. -1.
          2    1    1    2  501    0  0.90756951172E+02  0.38798410814E+02 -0.78161685786E+03  0.78782425283E+03  0.00000000000E+00 0. -1.
<scales pt_clust_3="72.96466" pt_clust_4="40.38401" pt_clust_5="50.69008" pt_clust_6="14000.00000"></scales>
<clustering>
<clus scale="   40.384">  1  4  2 -1</clus>
<clus scale="   50.690">  2  5  1 -1</clus>
<clus scale="   72.965">  1  3  2 -1</clus>
<clus scale="   40.384">  1  3  2 -1</clus>
</clustering>
</event>
<event>
 6    0  0.3082502E+002  0.1895695E+03  0.7546771E-02  0.1158850E+00
         -4   -1    0    0    0  501 -0.00000000000E+00  0.00000000000E+00  0.80846989152E+03  0.80846989152E+03  0.00000000000E+00 0.  1.
         21   -1    0    0  504  502  0.00000000000E+00 -0.00000000000E+00 -0.30709190480E+03  0.30709190480E+03  0.00000000000E+00 0.  1.
         21    1    1    2  503  505  0.74004978696E+02  0.39611763982E+02  0.32413917255E+03  0.33483134844E+03  0.00000000000E+00 0.  1.
         21    1    1    2  504  503  0.80227709144E+02 -0.17178656612E+03 -0.22071057172E+03  0.29096437253E+03  0.00000000000E+00 0.  1.
         21    1    1    2  505  501  0.43470087877E+02  0.19677697129E+02  0.27556315277E+02  0.55101822257E+02  0.00000000000E+00 0.  1.
         -4    1    1    2    0  502 -0.19770277572E+03  0.11249710500E+03  0.37039307062E+03  0.43466425310E+03  0.00000000000E+00 0.  1.
<scales pt_clust_3="104.39726" pt_clust_4="14000.00000" pt_clust_5="47.71646" pt_clust_6="189.56951"></scales>
<clustering>
<clus scale="   47.716">  1  5  2 -1</clus>
<clus scale="  104.397">  1  3  2 -1</clus>
<clus scale="  189.570">  1  6  2 -1</clus>
<clus scale="  189.570">  2  3  1 -1</clus>
</clustering>
</event>
<event>
 6    0  0.3082502E+002  0.1332370E+03  0.7546771E-02  0.1222730E+00
          2   -1    0    0  502    0 -0.00000000000E+00  0.00000000000E+00  0.70391226311E+03  0.70391226311E+03  0.00000000000E+00 0.  1.
         21   -1    0    0  503  502  0.00000000000E+00 -0.00000000000E+00 -0.42175622937E+03  0.42175622937E+03  0.00000000000E+00 0.  1.
         21    1    1    2  503  504  0.64460071387E+01  0.32261754558E+02 -0.18124620450E+03  0.18420792182E+03  0.00000000000E+00 0.  1.
         21    1    1    2  504  505  0.11664375253E+03 -0.42702383000E+02 -0.21596247785E+03  0.24913660982E+03  0.00000000000E+00 0.  1.
         21    1    1    2  505  501 -0.31901391221E+02 -0.18787766646E+02  0.16255587909E+03  0.16671860353E+03  0.00000000000E+00 0.  1.
          2    1    1    2  501    0 -0.91188368447E+02  0.29228395087E+02  0.51680883700E+03  0.52560535730E+03  0.00000000000E+00 0.  1.
<scales pt_clust_3="32.89942" pt_clust_4="123.43474" pt_clust_5="31.18871" pt_clust_6="31.18871"></scales>
<clustering>
<clus scale="   31.189">  5  6 -1 -1</clus>
<clus scale="   32.899">  2  3  1 -1</clus>
<clus scale="  123.435">  2  4  1 -1</clus>
<clus scale="   32.899">  2  3  1 -1</clus>
</clustering>
</event>
<event>
 6    0  0.3082502E+002  0.1138786E+03  0.7546771E-02  0.1253551E+00
          2   -1    0    0  503    0 -0.00000000000E+00  0.00000000000E+00  0.53982192057E+03  0.53982192057E+03  0.00000000000E+00 0.  1.
         21   -1    0    0  505  502  0.00000000000E+00 -0.00000000000E+00 -0.16646968549E+03  0.16646968549E+03  0.00000000000E+00 0. -1.
         21    1    1    2  503  504  0.35785669815E+02  0.26002850808E+02  0.75985088201E+02  0.87923239494E+02  0.00000000000E+00 0.  1.
         21    1    1    2  504  502 -0.86928826805E+01  0.36318561782E+02  0.12855984086E+02  0.39495322078E+02  0.00000000000E+00 0. -1.
         21    1    1    2  505  501 -0.82086621172E+02 -0.11138798259E+03 -0.11048108148E+03  0.17706373261E+03  0.00000000000E+00 0. -1.
          2    1    1    2  501    0  0.54993834038E+02  0.49066570001E+02  0.39499224428E+03  0.40180931188E+03  0.00000000000E+00 0.  1.
<scales pt_clust_3="44.81347" pt_clust_4="37.34440" pt_clust_5="113.87858" pt_clust_6="14000.00000"></scales>
<clustering>
<clus scale="   37.344">  2  4  1 -1</clus>
<clus scale="   44.813">  1  3  2 -1</clus>
<clus scale="  113.879">  2  5  1 -1</clus>
<clus scale="   37.344">  2  3  1 -1</clus>
</clustering>
</event>
<event>
 6    0  0.3082502E+002  0.1091118E+03  0.7546771E-02  0.1262224E+00
          2   -1    0    0  505    0 -0.00000000000E+00  0.00000000000E+00  0.15935772873E+04  0.15935772873E+04  0.00000000000E+00 0. -1.
         21   -1    0    0  503  502  0.00000000000E+00 -0.00000000000E+00 -0.84855865891E+02  0.84855865891E+02  0.00000000000E+00 0. -1.
         21    1    1    2  503  501  0.59717899091E+02 -0.25481024964E+02  0.12224271479E+02  0.66067714644E+02  0.00000000000E+00 0. -1.
         21    1    1    2  504  502  0.14767319824E+02 -0.64522045953E+02 -0.30043750932E+02  0.72689718110E+02  0.00000000000E+00 0. -1.
         21    1    1    2  505  504 -0.57934523634E+02 -0.18548784678E+02  0.21195157756E+03  0.22050836191E+03  0.00000000000E+00 0. -1.
          2    1    1    2  501    0 -0.16550695282E+02  0.10855185560E+03  0.13145893233E+04  0.13191673585E+04  0.00000000000E+00 0. -1.
<scales pt_clust_3="63.62944" pt_clust_4="109.11175" pt_clust_5="60.83146" pt_clust_6="14000.00000"></scales>
<clustering>
<clus scale="   60.831">  1  5  2 -1</clus>
<clus scale="   63.629">  2  3  1 -1</clus>
<clus scale="  109.112">  2  4  1 -1</clus>
<clus scale="   63.629">  2  3  1 -1</clus>
</clustering>
</event>
<event>
 6    0  0.3082502E+002  0.7704099E+02  0.7546771E-02  0.1337665E+00
         -2   -1    0    0    0  501 -0.00000000000E+00  0.00000000000E+00  0.12995223291E+03  0.12995223291E+03  0.00000000000E+00 0. -1.
         21   -1    0    0  505  502  0.00000000000E+00 -0.00000000000E+00 -0.39875663995E+03  0.39875663995E+03  0.00000000000E+00 0. -1.
         21    1    1    2  503  504  0.40214761574E+02 -0.31217318247E+02 -0.24236603599E+03  0.24765508960E+03  0.00000000000E+00 0. -1.
         21    1    1    2  504  501  0.39262527830E+02 -0.87885229872E+01  0.45746404771E+01  0.40493352089E+02  0.00000000000E+00 0. -1.
         21    1    1    2  505  503  0.37640696602E+02  0.19366561623E+02 -0.96086798826E+02  0.10499789835E+03  0.00000000000E+00 0. -1.
         -2    1    1    2    0  502 -0.11711798601E+03  0.20639279611E+02  0.65073787297E+02  0.13556253281E+03  0.00000000000E+00 0. -1.
<scales pt_clust_3="77.04099" pt_clust_4="40.23412" pt_clust_5="43.62512" pt_clust_6="14000.00000"></scales>
<clustering>
<clus scale="   40.234">  1  4  2 -1</clus>
<clus scale="   43.625">  2  5  1 -1</clus>
<clus scale="   77.041">  2  3  1 -1</clus>
<clus scale="   43.625">  2  3  1 -1</clus>
</clustering>
</event>
<event>
 6    0  0.8140056E+002  0.2458785E+03  0.7546771E-02  0.1115938E+00
         21   -1    0    0  505  502  0.00000000000E+00  0.00000000000E+00  0.69399114104E+03  0.69399114104E+03  0.00000000000E+00 0. -1.
          2   -1    0    0  503    0 -0.00000000000E+00 -0.00000000000E+00 -0.16267052900E+04  0.16267052900E+04  0.00000000000E+00 0.  1.
         21    1    1    2  503  504 -0.35351566580E+02  0.50325735477E+02 -0.71549389968E+02  0.94348969871E+02  0.00000000000E+00 0. -1.
         21    1    1    2  504  502 -0.20988116389E+03  0.16535200964E+03  0.61350219361E+03  0.66916091608E+03  0.00000000000E+00 0. -1.
         21    1    1    2  505  501  0.76070523265E+01 -0.29269720714E+02  0.17379493236E+02  0.34880231951E+02  0.00000000000E+00 0.  1.
          2    1    1    2  501    0  0.23762567814E+03 -0.18640802441E+03 -0.14920464458E+04  0.15223063131E+04  0.00000000000E+00 0.  1.
<scales pt_clust_3="61.01813" pt_clust_4="245.87848" pt_clust_5="30.24209" pt_clust_6="14000.00000"></scales>
<clustering>
<clus scale="   30.242">  1  5  2 -1</clus>
<clus scale="   61.018">  2  3  1 -1</clus>
<clus scale="  245.878">  1  4  2 -1</clus>
<clus scale="   30.242">  1  3  2 -1</clus>
</clustering>
</event>
<event>
 6    0  0.3082502E+002  0.2931403E+03  0.7546771E-02  0.1088721E+00
         21   -1    0    0  504  502  0.00000000000E+00  0.00000000000E+00  0.18212819388E+03  0.18212819388E+03  0.00000000000E+00 0. -1.
          2   -1    0    0  503    0 -0.00000000000E+00 -0.00000000000E+00 -0.30949069008E+04  0.30949069008E+04  0.00000000000E+00 0. -1.
         21    1    1    2  503  505  0.20180588706E+03 -0.12212142306E+03 -0.41138224296E+03  0.47420945567E+03  0.00000000000E+00 0. -1.
         21    1    1    2  504  501  0.20225017644E+02 -0.40232823532E+02  0.44904926877E+02  0.63593898181E+02  0.00000000000E+00 0. -1.
         21    1    1    2  505  502  0.44202128364E+02  0.40974180564E+01  0.81732833203E+02  0.93010069401E+02  0.00000000000E+00 0. -1.
          2    1    1    2  501    0 -0.26623303307E+03  0.15825682853E+03 -0.26280342240E+04  0.26462216714E+04  0.00000000000E+00 0. -1.
<scales pt_clust_3="293.14030" pt_clust_4="59.23278" pt_clust_5="44.39163" pt_clust_6="14000.00000"></scales>
<clustering>
<clus scale="   44.392">  1  5  2 -1</clus>
<clus scale="   59.233">  1  4  2 -1</clus>
<clus scale="  293.140">  1  3  2 -1</clus>
<clus scale="   44.392">  1  3  2 -1</clus>
</clustering>
</event>
<event>
 6    0  0.3082502E+002  0.7677118E+02  0.7546771E-02  0.1338472E+00
         21   -1    0    0  503  502  0.00000000000E+00  0.00000000000E+00  0.26510805772E+03  0.26510805772E+03  0.00000000000E+00 0.  1.
          2   -1    0    0  504    0 -0.00000000000E+00 -0.00000000000E+00 -0.25367340277E+04  0.25367340277E+04  0.00000000000E+00 0.  1.
         21    1    1    2  503  501  0.30019203280E+02  0.23387100531E+02  0.15519201458E+01  0.38085659939E+02  0.00000000000E+00 0. -1.
         21    1    1    2  504  505 -0.29565369763E+02  0.58310512966E+02 -0.15261602222E+03  0.16602974809E+03  0.00000000000E+00 0. -1.
         21    1    1    2  505  502  0.25965047301E+02  0.30642749641E+02  0.23546960911E+03  0.23887046407E+03  0.00000000000E+00 0.  1.
          2    1    1    2  501    0 -0.26418880818E+02 -0.11234036314E+03 -0.23560314770E+04  0.23588562133E+04  0.00000000000E+00 0.  1.
<scales pt_clust_3="38.05403" pt_clust_4="65.58468" pt_clust_5="76.77118" pt_clust_6="14000.00000"></scales>
<clustering>
<clus scale="   38.054">  1  3  2 -1</clus>
<clus scale="   65.585">  2  4  1 -1</clus>
<clus scale="   76.771">  1  5  2 -1</clus>
<clus scale="   38.054">  1  3  2 -1</clus>
</clustering>
</event>
<event>
 6    0  0.3082502E+002  0.1456346E+03  0.7546771E-02  0.1205942E+00
         -2   -1    0    0    0  501 -0.00000000000E+00  0.00000000000E+00  0.10664181567E+04  0.10664181567E+04  0.00000000000E+00 0.  1.
         21   -1    0    0  505  502  0.00000000000E+00 -0.00000000000E+00 -0.58216109156E+03  0.58216109156E+03  0.00000000000E+00 0.  1.
         21    1    1    2  503  501 -0.67498676879E+01 -0.35747771621E+02  0.44707967275E+03  0.44855735160E+03  0.00000000000E+00 0. -1.
         21    1    1    2  504  502  0.13848875596E+03 -0.15912406258E+03 -0.29050068889E+01  0.21096929133E+03  0.00000000000E+00 0.  1.
         21    1    1    2  505  503 -0.12410639018E+03  0.65369304754E+02 -0.45558512147E+03  0.47668998835E+03  0.00000000000E+00 0.  1.
         -2    1    1    2    0  504 -0.76324980925E+01  0.12950252945E+03  0.49566752074E+03  0.51236261698E+03  0.00000000000E+00 0.  1.
<scales pt_clust_3="36.37944" pt_clust_4="145.63456" pt_clust_5="14000.00000" pt_clust_6="101.23178"></scales>
<clustering>
<clus scale="   36.379">  1  3  2 -1</clus>
<clus scale="  101.232">  1  6  2 -1</clus>
<clus scale="  145.635">  1  4  2 -1</clus>
<clus scale="  145.635">  2  3  1 -1</clus>
</clustering>
</event>
<event>
 6    0  0.3082502E+002  0.1277003E+03  0.7546771E-02  0.1230908E+00
         21   -1    0    0  504  502  0.00000000000E+00  0.00000000000E+00  0.26376055530E+03  0.26376055530E+03  0.00000000000E+00 0.  1.
          2   -1    0    0  505    0 -0.00000000000E+00 -0.00000000000E+00 -0.16930156527E+04  0.16930156527E+04  0.00000000000E+00 0. -1.
         21    1    1    2  503  501  0.59878395457E+02 -0.56840176725E+00 -0.13353440397E+03  0.14634610472E+03  0.00000000000E+00 0. -1.
         21    1    1    2  504  503  0.21054543584E+02 -0.14993691665E+03 -0.73093021540E+01  0.15158429561E+03  0.00000000000E+00 0. -1.
         21    1    1    2  505  502 -0.31907687025E+02  0.11767312070E+03  0.16448896254E+03  0.20474785133E+03  0.00000000000E+00 0.  1.
          2    1    1    2  501    0 -0.49025252015E+02  0.32832197717E+02 -0.14529003538E+04  0.14540979563E+04  0.00000000000E+00 0. -1.
<scales pt_clust_3="36.36073" pt_clust_4="127.70032" pt_clust_5="14000.00000" pt_clust_6="59.00363"></scales>
<clustering>
<clus scale="   59.004">  2  6  1 -1</clus>
<clus scale="   36.361">  2  3  1 -1</clus>
<clus scale="  127.700">  2  4  1 -1</clus>
<clus scale="  127.700">  1  3  2 -1</clus>
</clustering>
</event>
<event>
 6    0  0.3082502E+002  0.9866057E+02  0.7546771E-02  0.1283138E+00
         21   -1    0    0  504  502  0.00000000000E+00  0.00000000000E+00  0.10397114353E+03  0.10397114353E+03  0.00000000000E+00 0. -1.
          1   -1    0    0  503    0 -0.00000000000E+00 -0.00000000000E+00 -0.16605469613E+04  0.16605469613E+04  0.00000000000E+00 0. -1.
         21    1    1    2  503  502  0.13534614843E+02 -0.29433899935E+02 -0.19916475683E+03  0.20178240911E+03  0.00000000000E+00 0. -1.
         21    1    1    2  504  505  0.87618428079E+02  0.16259029428E+02  0.31201739650E+02  0.94418713898E+02  0.00000000000E+00 0. -1.
         21    1    1    2  505  501 -0.12852017938E+03 -0.33138462893E+02 -0.72748808952E+02  0.15135383521E+03  0.00000000000E+00 0. -1.
          1    1    1    2  501    0  0.27367136455E+02  0.46313333399E+02 -0.13158639916E+04  0.13169631466E+04  0.00000000000E+00 0. -1.
<scales pt_clust_3="32.39661" pt_clust_4="98.66057" pt_clust_5="14000.00000" pt_clust_6="44.23640"></scales>
<clustering>
<clus scale="   32.397">  2  3  1 -1</clus>
<clus scale="   44.236">  2  6  1 -1</clus>
<clus scale="   98.661">  1  4  2 -1</clus>
<clus scale="   98.661">  1  3  2 -1</clus>
</clustering>
</event>
<event>
 6    0  0.3082502E+002  0.1893610E+03  0.7546771E-02  0.1159039E+00
          2   -1    0    0  502    0 -0.00000000000E+00  0.00000000000E+00  0.65173768420E+03  0.65173768420E+03  0.00000000000E+00 0. -1.
         21   -1    0    0  505  502  0.00000000000E+00 -0.00000000000E+00 -0.37378644252E+03  0.37378644252E+03  0.00000000000E+00 0.  1.
         21    1    1    2  503  504  0.55830070688E+02  0.13115584494E+03 -0.26424060619E+03  0.30023649081E+03  0.00000000000E+00 0.  1.
         21    1    1    2  504  501 -0.62532622256E+02 -0.65306436905E+02  0.18376355694E+03  0.20480308691E+03  0.00000000000E+00 0. -1.
         21    1    1    2  505  503  0.49586453883E+02  0.58142264807E+01 -0.68891458698E+02  0.85080283966E+02  0.00000000000E+00 0.  1.
          2    1    1    2  501    0 -0.42883902315E+02 -0.71663634520E+02  0.42731974963E+03  0.43540426504E+03  0.00000000000E+00 0. -1.
<scales pt_clust_3="171.13845" pt_clust_4="78.29250" pt_clust_5="49.92616" pt_clust_6="78.29250"></scales>
<clustering>
<clus scale="   49.926">  2  5  1 -1</clus>
<clus scale="   78.293">  4  6 -1 -1</clus>
<clus scale="  171.138">  2  3  1 -1</clus>
<clus scale="   49.926">  2  3  1 -1</clus>
</clustering>
</event>
<event>
 6    0  0.3082502E+002  0.9270360E+02  0.7546771E-02  0.1296434E+00
          1   -1    0    0  504    0 -0.00000000000E+00  0.00000000000E+00  0.26998908794E+04  0.26998908794E+04  0.00000000000E+00 0.  1.
         21   -1    0    0  505  502  0.00000000000E+00 -0.00000000000E+00 -0.11152993407E+03  0.11152993407E+03  0.00000000000E+00 0. -1.
         21    1    1    2  503  502 -0.86985192401E+02 -0.74241910784E+02 -0.18412528672E+02  0.11583309642E+03  0.00000000000E+00 0. -1.
         21    1    1    2  504  503 -0.77224940297E+02  0.45990806397E+02  0.63784046811E+03  0.64414230450E+03  0.00000000000E+00 0.  1.
         21    1    1    2  505  501  0.35238754652E+02 -0.70879199386E+00 -0.31126533609E+02  0.47022689311E+02  0.00000000000E+00 0. -1.
          1    1    1    2  501    0  0.12897137805E+03  0.28959896381E+02  0.20000595395E+04  0.20044227233E+04  0.00000000000E+00 0.  1.
<scales pt_clust_3="14000.00000" pt_clust_4="88.55322" pt_clust_5="35.24588" pt_clust_6="92.70360"></scales>
<clustering>
<clus scale="   35.246">  2  5  1 -1</clus>
<clus scale="   88.553">  1  4  2 -1</clus>
<clus scale="   92.704">  1  6  2 -1</clus>
<clus scale="   35.246">  2  3  1 -1</clus>
</clustering>
</event>
