<event>
 5    0  0.5619558E-005  0.4722600E+03  0.7546771E-02  0.1021284E+00
         21   -1    0    0  502  501  0.00000000000E+00  0.00000000000E+00  0.34125431829E+03  0.34125431829E+03  0.00000000000E+00 0. -1.
         21   -1    0    0  501  502 -0.00000000000E+00 -0.00000000000E+00 -0.65355809613E+03  0.65355809613E+03  0.00000000000E+00 0. -1.
         25    1    1    2    0    0  0.21368611759E+03  0.65316382451E+02 -0.26973415506E+03  0.37189985356E+03  0.12500000000E+03 0.  0.
         25    1    1    2    0    0 -0.31459856192E+03 -0.20042331730E+03  0.43989824095E+02  0.39585586506E+03  0.12500000000E+03 0.  0.
         25    1    1    2    0    0  0.10091244433E+03  0.13510693484E+03 -0.86559446876E+02  0.22705669580E+03  0.12500000000E+03 0.  0.
</event>
<event>
 5    0  0.5619558E-005  0.3182175E+03  0.7546771E-02  0.1076473E+00
         21   -1    0    0  502  501  0.00000000000E+00  0.00000000000E+00  0.42129120422E+03  0.42129120422E+03  0.00000000000E+00 0.  1.
         21   -1    0    0  501  502 -0.00000000000E+00 -0.00000000000E+00 -0.24036198280E+03  0.24036198280E+03  0.00000000000E+00 0.  1.
         25    1    1    2    0    0 -0.48324438255E+02 -0.39668080816E+02 -0.18171174584E+02  0.14093970184E+03  0.12500000000E+03 0.  0.
         25    1    1    2    0    0  0.35704448434E+02 -0.10589268634E+02  0.31602330307E+03  0.34188107337E+03  0.12500000000E+03 0.  0.
         25    1    1    2    0    0  0.12619989820E+02  0.50257349450E+02 -0.11692290706E+03  0.17883241181E+03  0.12500000000E+03 0.  0.
</event>
<event>
 5    0  0.5619558E-005  0.4059522E+03  0.7546771E-02  0.1041738E+00
         21   -1    0    0  502  501  0.00000000000E+00  0.00000000000E+00  0.22283163250E+03  0.22283163250E+03  0.00000000000E+00 0.  1.
         21   -1    0    0  501  502 -0.00000000000E+00 -0.00000000000E+00 -0.73955908271E+03  0.73955908271E+03  0.00000000000E+00 0.  1.
         25    1    1    2    0    0  0.23269962569E+02 -0.19057280474E+03  0.23878093592E+02  0.23033594686E+03  0.12500000000E+03 0.  0.
         25    1    1    2    0    0  0.79787192793E+02 -0.83094709296E+02 -0.24258963415E+03  0.29621859739E+03  0.12500000000E+03 0.  0.
         25    1    1    2    0    0 -0.10305715536E+03  0.27366751403E+03 -0.29801590966E+03  0.43583617096E+03  0.12500000000E+03 0.  0.
</event>
<event>
 5    0  0.5619558E-005  0.2997998E+03  0.7546771E-02  0.1085341E+00
         21   -1    0    0  502  501  0.00000000000E+00  0.00000000000E+00  0.95334672154E+02  0.95334672154E+02  0.00000000000E+00 0. -1.
         21   -1    0    0  501  502 -0.00000000000E+00 -0.00000000000E+00 -0.94278312476E+03  0.94278312476E+03  0.00000000000E+00 0. -1.
         25    1    1    2    0    0  0.67994196523E+02 -0.53624887412E+02 -0.18662052681E+03  0.24073026469E+03  0.12500000000E+03 0.  0.
         25    1    1    2    0    0 -0.88082322254E+02  0.25500241605E+02 -0.35881921750E+02  0.15912658522E+03  0.12500000000E+03 0.  0.
         25    1    1    2    0    0  0.20088125730E+02  0.28124645807E+02 -0.62494600405E+03  0.63826094701E+03  0.12500000000E+03 0.  0.
</event>
<event>
 5    0  0.5619558E-005  0.2831380E+03  0.7546771E-02  0.1093987E+00
         21   -1    0    0  502  501  0.00000000000E+00  0.00000000000E+00  0.51652378990E+03  0.51652378990E+03  0.00000000000E+00 0.  1.
         21   -1    0    0  501  502 -0.00000000000E+00 -0.00000000000E+00 -0.15520512723E+03  0.15520512723E+03  0.00000000000E+00 0.  1.
         25    1    1    2    0    0 -0.45265422612E+02  0.13544177927E+01 -0.69163420002E+00  0.13295213909E+03  0.12500000000E+03 0.  0.
         25    1    1    2    0    0  0.24328768328E+02 -0.10901758687E+03  0.32898411923E+03  0.36923200555E+03  0.12500000000E+03 0.  0.
         25    1    1    2    0    0  0.20936654284E+02  0.10766316908E+03  0.33026177641E+02  0.16954477249E+03  0.12500000000E+03 0.  0.
</event>
<event>
 5    0  0.5619558E-005  0.3046911E+03  0.7546771E-02  0.1082919E+00
         21   -1    0    0  502  501  0.00000000000E+00  0.00000000000E+00  0.11633589052E+04  0.11633589052E+04  0.00000000000E+00 0.  1.
         21   -1    0    0  501  502 -0.00000000000E+00 -0.00000000000E+00 -0.79800525248E+02  0.79800525248E+02  0.00000000000E+00 0.  1.
         25    1    1    2    0    0  0.13725278372E+03 -0.75728198978E+02  0.41931373823E+03  0.46478177442E+03  0.12500000000E+03 0.  0.
         25    1    1    2    0    0 -0.47328600315E+01  0.16703335730E+02  0.52923672631E+03  0.54407528326E+03  0.12500000000E+03 0.  0.
         25    1    1    2    0    0 -0.13251992369E+03  0.59024863248E+02  0.13500791539E+03  0.23430237275E+03  0.12500000000E+03 0.  0.
</event>
<event>
 5    0  0.5619558E-005  0.4700289E+03  0.7546771E-02  0.1021912E+00
         21   -1    0    0  502  501  0.00000000000E+00  0.00000000000E+00  0.65480432108E+03  0.65480432108E+03  0.00000000000E+00 0.  1.
         21   -1    0    0  501  502 -0.00000000000E+00 -0.00000000000E+00 -0.33739412449E+03  0.33739412449E+03  0.00000000000E+00 0.  1.
         25    1    1    2    0    0  0.17764260342E+03 -0.15789593684E+02  0.52587747015E+03  0.56919093407E+03  0.12500000000E+03 0.  0.
         25    1    1    2    0    0 -0.20323440057E+03  0.21500512792E+02 -0.12267887919E+03  0.26914977433E+03  0.12500000000E+03 0.  0.
         25    1    1    2    0    0  0.25591797147E+02 -0.57109191078E+01 -0.85788394370E+02  0.15385773717E+03  0.12500000000E+03 0.  0.
</event>
<event>
 5    0  0.5619558E-005  0.3285848E+03  0.7546771E-02  0.1071765E+00
         21   -1    0    0  502  501  0.00000000000E+00  0.00000000000E+00  0.14209102253E+03  0.14209102253E+03  0.00000000000E+00 0.  1.
         21   -1    0    0  501  502 -0.00000000000E+00 -0.00000000000E+00 -0.75985056577E+03  0.75985056577E+03  0.00000000000E+00 0.  1.
         25    1    1    2    0    0 -0.74959531350E+02 -0.23525935681E+03 -0.27703306890E+03  0.39158424071E+03  0.12500000000E+03 0.  0.
         25    1    1    2    0    0  0.10461167353E+03  0.14014284694E+03 -0.23617097669E+03  0.31935145219E+03  0.12500000000E+03 0.  0.
         25    1    1    2    0    0 -0.29652142178E+02  0.95116509876E+02 -0.10455549765E+03  0.19100589540E+03  0.12500000000E+03 0.  0.
</event>
<event>
 5    0  0.5619558E-005  0.2506236E+03  0.7546771E-02  0.1112911E+00
         21   -1    0    0  502  501  0.00000000000E+00  0.00000000000E+00  0.35268701605E+02  0.35268701605E+02  0.00000000000E+00 0.  1.
         21   -1    0    0  501  502 -0.00000000000E+00 -0.00000000000E+00 -0.17809612957E+04  0.17809612957E+04  0.00000000000E+00 0.  1.
         25    1    1    2    0    0  0.45396788288E+02  0.15326374683E+03 -0.71288642780E+03  0.74120355060E+03  0.12500000000E+03 0.  0.
         25    1    1    2    0    0 -0.17144866483E+02 -0.78920240225E+02 -0.56847117189E+03  0.58762813414E+03  0.12500000000E+03 0.  0.
         25    1    1    2    0    0 -0.28251921804E+02 -0.74343506607E+02 -0.46433499438E+03  0.48739831254E+03  0.12500000000E+03 0.  0.
</event>
<event>
 5    0  0.5619558E-005  0.2832595E+03  0.7546771E-02  0.1093922E+00
         21   -1    0    0  502  501  0.00000000000E+00  0.00000000000E+00  0.38198319020E+02  0.38198319020E+02  0.00000000000E+00 0.  1.
         21   -1    0    0  501  502 -0.00000000000E+00 -0.00000000000E+00 -0.21005098672E+04  0.21005098672E+04  0.00000000000E+00 0.  1.
         25    1    1    2    0    0  0.17623609821E+03  0.34124296496E+02 -0.59239481064E+03  0.63149049209E+03  0.12500000000E+03 0.  0.
         25    1    1    2    0    0 -0.72262359064E+02  0.22225534663E+02 -0.45678176771E+03  0.47957315004E+03  0.12500000000E+03 0.  0.
         25    1    1    2    0    0 -0.10397373915E+03 -0.56349831159E+02 -0.10131349698E+04  0.10276445441E+04  0.12500000000E+03 0.  0.
</event>
<event>
 5    0  0.6094765E-005  0.3664265E+03  0.7546771E-02  0.1056068E+00
         21   -1    0    0  502  501  0.00000000000E+00  0.00000000000E+00  0.20880946090E+03  0.20880946090E+03  0.00000000000E+00 0. -1.
         21   -1    0    0  501  502 -0.00000000000E+00 -0.00000000000E+00 -0.64301871907E+03  0.64301871907E+03  0.00000000000E+00 0. -1.
         25    1    1    2    0    0 -0.90238274152E+02 -0.14582411666E+03 -0.16889285278E+01  0.21221562525E+03  0.12500000000E+03 0.  0.
         25    1    1    2    0    0 -0.82006653556E+01  0.17503816671E+03 -0.45300952847E+02  0.21996087618E+03  0.12500000000E+03 0.  0.
         25    1    1    2    0    0  0.98438939507E+02 -0.29214050055E+02 -0.38721937679E+03  0.41965167853E+03  0.12500000000E+03 0.  0.
</event>
<event>
 5    0  0.5619558E-005  0.3913224E+03  0.7546771E-02  0.1046827E+00
         21   -1    0    0  502  501  0.00000000000E+00  0.00000000000E+00  0.25474155673E+03  0.25474155673E+03  0.00000000000E+00 0. -1.
         21   -1    0    0  501  502 -0.00000000000E+00 -0.00000000000E+00 -0.60113172067E+03  0.60113172067E+03  0.00000000000E+00 0. -1.
         25    1    1    2    0    0  0.10423433427E+03 -0.66224680002E+02  0.15496889984E+02  0.17639631028E+03  0.12500000000E+03 0.  0.
         25    1    1    2    0    0 -0.22518173757E+03  0.92900857768E+02 -0.41365002191E+03  0.49605314729E+03  0.12500000000E+03 0.  0.
         25    1    1    2    0    0  0.12094740330E+03 -0.26676177767E+02  0.51762967979E+02  0.18342381983E+03  0.12500000000E+03 0.  0.
</event>
<event>
 5    0  0.5619558E-005  0.3236619E+03  0.7546771E-02  0.1073976E+00
         21   -1    0    0  502  501  0.00000000000E+00  0.00000000000E+00  0.59614156241E+03  0.59614156241E+03  0.00000000000E+00 0. -1.
         21   -1    0    0  501  502 -0.00000000000E+00 -0.00000000000E+00 -0.17572512620E+03  0.17572512620E+03  0.00000000000E+00 0. -1.
         25    1    1    2    0    0 -0.23843448223E+03 -0.13547616619E+02  0.14054874372E+03  0.30399587101E+03  0.12500000000E+03 0.  0.
         25    1    1    2    0    0  0.36487051595E+02 -0.14767078672E+02  0.13543814076E+03  0.18846183041E+03  0.12500000000E+03 0.  0.
         25    1    1    2    0    0  0.20194743063E+03  0.28314695291E+02  0.14442955173E+03  0.27940898719E+03  0.12500000000E+03 0.  0.
</event>
<event>
 5    0  0.5619558E-005  0.3902293E+03  0.7546771E-02  0.1047216E+00
         21   -1    0    0  502  501  0.00000000000E+00  0.00000000000E+00  0.14592440512E+03  0.14592440512E+03  0.00000000000E+00 0.  1.
         21   -1    0    0  501  502 -0.00000000000E+00 -0.00000000000E+00 -0.10435465674E+04  0.10435465674E+04  0.00000000000E+00 0.  1.
         25    1    1    2    0    0  0.15480947846E+03 -0.11952193801E+03 -0.24166588001E+03  0.33508038714E+03  0.12500000000E+03 0.  0.
         25    1    1    2    0    0  0.85962653420E+02 -0.17064781622E+02 -0.25761058814E+02  0.15482059523E+03  0.12500000000E+03 0.  0.
         25    1    1    2    0    0 -0.24077213188E+03  0.13658671963E+03 -0.63019522345E+03  0.69956999016E+03  0.12500000000E+03 0.  0.
</event>
<event>
 5    0  0.5619558E-005  0.3121676E+03  0.7546771E-02  0.1079312E+00
         21   -1    0    0  502  501  0.00000000000E+00  0.00000000000E+00  0.37008861310E+03  0.37008861310E+03  0.00000000000E+00 0.  1.
         21   -1    0    0  501  502 -0.00000000000E+00 -0.00000000000E+00 -0.26331149562E+03  0.26331149562E+03  0.00000000000E+00 0.  1.
         25    1    1    2    0    0  0.60325524691E+02  0.15413858830E+03 -0.34489016708E+02  0.21026736696E+03  0.12500000000E+03 0.  0.
         25    1    1    2    0    0  0.89451159174E+01  0.21126323923E+02  0.15027476912E+03  0.19680915348E+03  0.12500000000E+03 0.  0.
         25    1    1    2    0    0 -0.69270640608E+02 -0.17526491223E+03 -0.90086349397E+01  0.22632358828E+03  0.12500000000E+03 0.  0.
</event>
<event>
 5    0  0.6174883E-005  0.3039370E+03  0.7546771E-02  0.1083289E+00
         21   -1    0    0  502  501  0.00000000000E+00  0.00000000000E+00  0.60389505551E+03  0.60389505551E+03  0.00000000000E+00 0. -1.
         21   -1    0    0  501  502 -0.00000000000E+00 -0.00000000000E+00 -0.15296976786E+03  0.15296976786E+03  0.00000000000E+00 0. -1.
         25    1    1    2    0    0 -0.32216447339E+02  0.94982078001E+02  0.25308359489E+03  0.29955934407E+03  0.12500000000E+03 0.  0.
         25    1    1    2    0    0 -0.11570032007E+03 -0.13125318944E+03  0.95535448381E+02  0.23529977837E+03  0.12500000000E+03 0.  0.
         25    1    1    2    0    0  0.14791676741E+03  0.36271111434E+02  0.10230624439E+03  0.22200570093E+03  0.12500000000E+03 0.  0.
</event>
<event>
 5    0  0.5619558E-005  0.2738707E+03  0.7546771E-02  0.1099085E+00
         21   -1    0    0  502  501  0.00000000000E+00  0.00000000000E+00  0.39806036523E+03  0.39806036523E+03  0.00000000000E+00 0.  1.
         21   -1    0    0  501  502 -0.00000000000E+00 -0.00000000000E+00 -0.18842655726E+03  0.18842655726E+03  0.00000000000E+00 0.  1.
         25    1    1    2    0    0  0.11268218860E+03  0.69776138853E+02  0.49073379977E+02  0.18867745441E+03  0.12500000000E+03 0.  0.
         25    1    1    2    0    0  0.13919778939E+02 -0.11847741350E+03  0.39722980262E+02  0.17729515762E+03  0.12500000000E+03 0.  0.
         25    1    1    2    0    0 -0.12660196754E+03  0.48701274651E+02  0.12083744774E+03  0.22051431045E+03  0.12500000000E+03 0.  0.
</event>
<event>
 5    0  0.5619558E-005  0.4180135E+03  0.7546771E-02  0.1037715E+00
         21   -1    0    0  502  501  0.00000000000E+00  0.00000000000E+00  0.46614659613E+03  0.46614659613E+03  0.00000000000E+00 0. -1.
         21   -1    0    0  501  502 -0.00000000000E+00 -0.00000000000E+00 -0.37485041526E+03  0.37485041526E+03  0.00000000000E+00 0. -1.
         25    1    1    2    0    0 -0.10920828304E+03 -0.17032118648E+03  0.78786332324E+02  0.25053551008E+03  0.12500000000E+03 0.  0.
         25    1    1    2    0    0  0.33115751825E+02  0.21049524871E+03 -0.20788682404E+03  0.32287278355E+03  0.12500000000E+03 0.  0.
         25    1    1    2    0    0  0.76092531214E+02 -0.40174062229E+02  0.22039667259E+03  0.26758871776E+03  0.12500000000E+03 0.  0.
</event>
<event>
 5    0  0.5619558E-005  0.2418114E+03  0.7546771E-02  0.1118592E+00
         21   -1    0    0  502  501  0.00000000000E+00  0.00000000000E+00  0.13162651236E+03  0.13162651236E+03  0.00000000000E+00 0.  1.
         21   -1    0    0  501  502 -0.00000000000E+00 -0.00000000000E+00 -0.44423249868E+03  0.44423249868E+03  0.00000000000E+00 0.  1.
         25    1    1    2    0    0  0.45704995740E+02 -0.14690495661E+02 -0.59880443481E+02  0.14668137172E+03  0.12500000000E+03 0.  0.
         25    1    1    2    0    0  0.70008812715E+02  0.45233504061E+02 -0.41015164505E+02  0.15573871538E+03  0.12500000000E+03 0.  0.
         25    1    1    2    0    0 -0.11571380845E+03 -0.30543008400E+02 -0.21171037833E+03  0.27343892394E+03  0.12500000000E+03 0.  0.
</event>
<event>
 5    0  0.5619558E-005  0.3386630E+03  0.7546771E-02  0.1067367E+00
         21   -1    0    0  502  501  0.00000000000E+00  0.00000000000E+00  0.37124006678E+03  0.37124006678E+03  0.00000000000E+00 0.  1.
         21   -1    0    0  501  502 -0.00000000000E+00 -0.00000000000E+00 -0.30894465634E+03  0.30894465634E+03  0.00000000000E+00 0.  1.
         25    1    1    2    0    0  0.52886956059E+02 -0.19942969242E+03 -0.65927887496E+02  0.25008142412E+03  0.12500000000E+03 0.  0.
         25    1    1    2    0    0 -0.62774986480E+02  0.15279764366E+03  0.19150387878E+03  0.28211089030E+03  0.12500000000E+03 0.  0.
         25    1    1    2    0    0  0.98880304206E+01  0.46632048765E+02 -0.63280580848E+02  0.14799240869E+03  0.12500000000E+03 0.  0.
</event>
<event>
 5    0  0.5619558E-005  0.4706977E+03  0.7546771E-02  0.1021723E+00
         21   -1    0    0  502  501  0.00000000000E+00  0.00000000000E+00  0.10226109713E+04  0.10226109713E+04  0.00000000000E+00 0.  1.
         21   -1    0    0  501  502 -0.00000000000E+00 -0.00000000000E+00 -0.21665749426E+03  0.21665749426E+03  0.00000000000E+00 0.  1.
         25    1    1    2    0    0 -0.12193785887E+03 -0.22704292944E+02  0.42473638191E+03  0.45979378037E+03  0.12500000000E+03 0.  0.
         25    1    1    2    0    0  0.20777846473E+03 -0.10991294672E+03 -0.78497341814E+02  0.27756004563E+03  0.12500000000E+03 0.  0.
         25    1    1    2    0    0 -0.85840605856E+02  0.13261723966E+03  0.45971443697E+03  0.50191463958E+03  0.12500000000E+03 0.  0.
</event>
<event>
 5    0  0.5619558E-005  0.3754563E+03  0.7546771E-02  0.1052626E+00
         21   -1    0    0  502  501  0.00000000000E+00  0.00000000000E+00  0.10171451848E+04  0.10171451848E+04  0.00000000000E+00 0. -1.
         21   -1    0    0  501  502 -0.00000000000E+00 -0.00000000000E+00 -0.13859123058E+03  0.13859123058E+03  0.00000000000E+00 0. -1.
         25    1    1    2    0    0  0.11468586165E+03 -0.10305342302E+03  0.12257338658E+03  0.23328542594E+03  0.12500000000E+03 0.  0.
         25    1    1    2    0    0 -0.53200333296E+02 -0.13170211103E+03  0.54659970211E+03  0.57842195313E+03  0.12500000000E+03 0.  0.
         25    1    1    2    0    0 -0.61485528359E+02  0.23475553405E+03  0.20938086551E+03  0.34402903629E+03  0.12500000000E+03 0.  0.
</event>
<event>
 5    0  0.5619558E-005  0.2540273E+03  0.7546771E-02  0.1110786E+00
         21   -1    0    0  502  501  0.00000000000E+00  0.00000000000E+00  0.80677971018E+02  0.80677971018E+02  0.00000000000E+00 0. -1.
         21   -1    0    0  501  502 -0.00000000000E+00 -0.00000000000E+00 -0.79984501184E+03  0.79984501184E+03  0.00000000000E+00 0. -1.
         25    1    1    2    0    0  0.46808788562E+02 -0.12738301645E+03 -0.29799994290E+03  0.35049459559E+03  0.12500000000E+03 0.  0.
         25    1    1    2    0    0  0.47421431635E+02  0.29961665111E+02 -0.16652171453E+03  0.21564084716E+03  0.12500000000E+03 0.  0.
         25    1    1    2    0    0 -0.94230220197E+02  0.97421351336E+02 -0.25464538339E+03  0.31438754011E+03  0.12500000000E+03 0.  0.
</event>
<event>
 5    0  0.5619558E-005  0.2964983E+03  0.7546771E-02  0.1087004E+00
         21   -1    0    0  502  501  0.00000000000E+00  0.00000000000E+00  0.94902313123E+02  0.94902313123E+02  0.00000000000E+00 0. -1.
         21   -1    0    0  501  502 -0.00000000000E+00 -0.00000000000E+00 -0.92633388252E+03  0.92633388252E+03  0.00000000000E+00 0. -1.
         25    1    1    2    0    0  0.75308644838E+02  0.12284944781E+03 -0.14997986427E+03  0.24265683279E+03  0.12500000000E+03 0.  0.
         25    1    1    2    0    0 -0.10822575935E+03  0.37484434422E+02 -0.27843753469E+03  0.32599134733E+03  0.12500000000E+03 0.  0.
         25    1    1    2    0    0  0.32917114510E+02 -0.16033388223E+03 -0.40301417043E+03  0.45258801552E+03  0.12500000000E+03 0.  0.
</event>
<event>
 5    0  0.5619558E-005  0.2807970E+03  0.7546771E-02  0.1095254E+00
         21   -1    0    0  502  501  0.00000000000E+00  0.00000000000E+00  0.10266324243E+04  0.10266324243E+04  0.00000000000E+00 0. -1.
         21   -1    0    0  501  502 -0.00000000000E+00 -0.00000000000E+00 -0.76801559401E+02  0.76801559401E+02  0.00000000000E+00 0. -1.
         25    1    1    2    0    0  0.84058105285E+02 -0.83919215006E+02  0.25718384887E+03  0.30963968065E+03  0.12500000000E+03 0.  0.
         25    1    1    2    0    0 -0.16710199889E+03 -0.11132433565E+02  0.40441734377E+03  0.45522016327E+03  0.12500000000E+03 0.  0.
         25    1    1    2    0    0  0.83043893602E+02  0.95051648570E+02  0.28822967229E+03  0.33857413981E+03  0.12500000000E+03 0.  0.
</event>
<event>
 5    0  0.5619558E-005  0.2605031E+03  0.7546771E-02  0.1106841E+00
         21   -1    0    0  502  501  0.00000000000E+00  0.00000000000E+00  0.57368348053E+03  0.57368348053E+03  0.00000000000E+00 0. -1.
         21   -1    0    0  501  502 -0.00000000000E+00 -0.00000000000E+00 -0.11829144736E+03  0.11829144736E+03  0.00000000000E+00 0. -1.
         25    1    1    2    0    0 -0.52152360130E+02 -0.21028692407E+02  0.13526585535E+03  0.19257187281E+03  0.12500000000E+03 0.  0.
         25    1    1    2    0    0 -0.98511658169E+02 -0.67268826612E+01  0.23553336226E+03  0.28434268495E+03  0.12500000000E+03 0.  0.
         25    1    1    2    0    0  0.15066401830E+03  0.27755575068E+02  0.84592815563E+02  0.21506037013E+03  0.12500000000E+03 0.  0.
</event>
<event>
 5    0  0.5619558E-005  0.3031928E+03  0.7546771E-02  0.1083655E+00
         21   -1    0    0  502  501  0.00000000000E+00  0.00000000000E+00  0.11155989048E+03  0.11155989048E+03  0.00000000000E+00 0. -1.
         21   -1    0    0  501  502 -0.00000000000E+00 -0.00000000000E+00 -0.82400476260E+03  0.82400476260E+03  0.00000000000E+00 0. -1.
         25    1    1    2    0    0 -0.11477556396E+03  0.51380631460E+02 -0.86129270012E+02  0.19712090332E+03  0.12500000000E+03 0.  0.
         25    1    1    2    0    0  0.28271484642E+02 -0.52757316822E+02 -0.58157045015E+02  0.15029921226E+03  0.12500000000E+03 0.  0.
         25    1    1    2    0    0  0.86504079322E+02  0.13766853624E+01 -0.56815855709E+03  0.58814453750E+03  0.12500000000E+03 0.  0.
</event>
<event>
 5    0  0.5619558E-005  0.3583947E+03  0.7546771E-02  0.1059221E+00
         21   -1    0    0  502  501  0.00000000000E+00  0.00000000000E+00  0.69090047040E+02  0.69090047040E+02  0.00000000000E+00 0. -1.
         21   -1    0    0  501  502 -0.00000000000E+00 -0.00000000000E+00 -0.18591206444E+04  0.18591206444E+04  0.00000000000E+00 0.  1.
         25    1    1    2    0    0  0.10706211712E+03 -0.21794958515E+02 -0.32167989322E+03  0.36199484919E+03  0.12500000000E+03 0.  0.
         25    1    1    2    0    0 -0.27035741177E+03  0.71458473697E+02 -0.10956039409E+04  0.11376170001E+04  0.12500000000E+03 0.  0.
         25    1    1    2    0    0  0.16329529465E+03 -0.49663515183E+02 -0.37274676318E+03  0.42859884210E+03  0.12500000000E+03 0.  0.
</event>
<event>
 5    0  0.5619558E-005  0.2123519E+03  0.7546771E-02  0.1139717E+00
         21   -1    0    0  502  501  0.00000000000E+00  0.00000000000E+00  0.10540469210E+04  0.10540469210E+04  0.00000000000E+00 0. -1.
         21   -1    0    0  501  502 -0.00000000000E+00 -0.00000000000E+00 -0.42781134655E+02  0.42781134655E+02  0.00000000000E+00 0. -1.
         25    1    1    2    0    0  0.49446850513E+02 -0.37947953090E+02  0.25649241217E+03  0.29205889076E+03  0.12500000000E+03 0.  0.
         25    1    1    2    0    0  0.19925298592E+02  0.49037528816E+02  0.35640936272E+03  0.38138475401E+03  0.12500000000E+03 0.  0.
         25    1    1    2    0    0 -0.69372149105E+02 -0.11089575726E+02  0.39836401147E+03  0.42338441090E+03  0.12500000000E+03 0.  0.
</event>
<event>
 5    0  0.5619558E-005  0.3385277E+03  0.7546771E-02  0.1067425E+00
         21   -1    0    0  502  501  0.00000000000E+00  0.00000000000E+00  0.27159301811E+03  0.27159301811E+03  0.00000000000E+00 0. -1.
         21   -1    0    0  501  502 -0.00000000000E+00 -0.00000000000E+00 -0.42195858546E+03  0.42195858546E+03  0.00000000000E+00 0. -1.
         25    1    1    2    0    0  0.11041735535E+03  0.38341852740E+02 -0.11209709751E+03  0.20457968937E+03  0.12500000000E+03 0.  0.
         25    1    1    2    0    0 -0.22965145571E+02 -0.21184663577E+03  0.27985852293E+02  0.24862542695E+03  0.12500000000E+03 0.  0.
         25    1    1    2    0    0 -0.87452209783E+02  0.17350478303E+03 -0.66254322138E+02  0.24034648725E+03  0.12500000000E+03 0.  0.
</event>
<event>
 5    0  0.5619558E-005  0.2625310E+03  0.7546771E-02  0.1105632E+00
         21   -1    0    0  502  501  0.00000000000E+00  0.00000000000E+00  0.29024016860E+03  0.29024016860E+03  0.00000000000E+00 0.  1.
         21   -1    0    0  501  502 -0.00000000000E+00 -0.00000000000E+00 -0.23746725633E+03  0.23746725633E+03  0.00000000000E+00 0.  1.
         25    1    1    2    0    0 -0.53003297292E+00 -0.11482984383E+03 -0.80340565552E+02  0.18779185404E+03  0.12500000000E+03 0.  0.
         25    1    1    2    0    0 -0.39513970630E+02 -0.56021598950E+00  0.22307332441E+02  0.13298227249E+03  0.12500000000E+03 0.  0.
         25    1    1    2    0    0  0.40044003603E+02  0.11539005982E+03  0.11080614538E+03  0.20693329839E+03  0.12500000000E+03 0.  0.
</event>
<event>
 5    0  0.5619558E-005  0.4948529E+03  0.7546771E-02  0.1015131E+00
         21   -1    0    0  502  501  0.00000000000E+00  0.00000000000E+00  0.26673345670E+04  0.26673345670E+04  0.00000000000E+00 0.  1.
         21   -1    0    0  501  502 -0.00000000000E+00 -0.00000000000E+00 -0.91806792393E+02  0.91806792393E+02  0.00000000000E+00 0.  1.
         25    1    1    2    0    0  0.24891973803E+03  0.29451991177E+03  0.62505079971E+03  0.74499430644E+03  0.12500000000E+03 0.  0.
         25    1    1    2    0    0 -0.61859395097E+01 -0.47503111804E+02  0.55490445938E+03  0.57082288893E+03  0.12500000000E+03 0.  0.
         25    1    1    2    0    0 -0.24273379852E+03 -0.24701679996E+03  0.13955725155E+04  0.14433241640E+04  0.12500000000E+03 0.  0.
</event>
<event>
 5    0  0.5619558E-005  0.2985509E+03  0.7546771E-02  0.1085967E+00
         21   -1    0    0  502  501  0.00000000000E+00  0.00000000000E+00  0.41678208551E+02  0.41678208551E+02  0.00000000000E+00 0. -1.
         21   -1    0    0  501  502 -0.00000000000E+00 -0.00000000000E+00 -0.21385912141E+04  0.21385912141E+04  0.00000000000E+00 0. -1.
         25    1    1    2    0    0  0.15742290790E+03 -0.27760415796E+02 -0.56846000342E+03  0.60359289932E+03  0.12500000000E+03 0.  0.
         25    1    1    2    0    0 -0.16637000509E+03  0.11152316931E+03 -0.91274177575E+03  0.94278255451E+03  0.12500000000E+03 0.  0.
         25    1    1    2    0    0  0.89470971876E+01 -0.83762753513E+02 -0.61571122639E+03  0.63389396883E+03  0.12500000000E+03 0.  0.
</event>
<event>
 5    0  0.5619558E-005  0.2904038E+03  0.7546771E-02  0.1090138E+00
         21   -1    0    0  502  501  0.00000000000E+00  0.00000000000E+00  0.31902055637E+02  0.31902055637E+02  0.00000000000E+00 0. -1.
         21   -1    0    0  501  502 -0.00000000000E+00 -0.00000000000E+00 -0.26435404105E+04  0.26435404105E+04  0.00000000000E+00 0. -1.
         25    1    1    2    0    0 -0.39432229974E+02  0.95997973432E+02 -0.43558096662E+03  0.46489384825E+03  0.12500000000E+03 0.  0.
         25    1    1    2    0    0 -0.11067323629E+03  0.68502253834E+01 -0.10213396390E+04  0.10349179432E+04  0.12500000000E+03 0.  0.
         25    1    1    2    0    0  0.15010546626E+03 -0.10284819881E+03 -0.11547177493E+04  0.11756306748E+04  0.12500000000E+03 0.  0.
</event>
<event>
 5    0  0.5619558E-005  0.3505972E+03  0.7546771E-02  0.1062370E+00
         21   -1    0    0  502  501  0.00000000000E+00  0.00000000000E+00  0.11602239371E+04  0.11602239371E+04  0.00000000000E+00 0. -1.
         21   -1    0    0  501  502 -0.00000000000E+00 -0.00000000000E+00 -0.10594370319E+03  0.10594370319E+03  0.00000000000E+00 0. -1.
         25    1    1    2    0    0 -0.10055861711E+03 -0.48781098153E+02  0.65461504966E+03  0.67574957955E+03  0.12500000000E+03 0.  0.
         25    1    1    2    0    0 -0.10009782858E+03  0.58399196766E+02  0.69157503330E+02  0.18395054155E+03  0.12500000000E+03 0.  0.
         25    1    1    2    0    0  0.20065644570E+03 -0.96180986134E+01  0.33050768095E+03  0.40646751923E+03  0.12500000000E+03 0.  0.
</event>
<event>
 5    0  0.5619558E-005  0.2343552E+03  0.7546771E-02  0.1123611E+00
         21   -1    0    0  502  501  0.00000000000E+00  0.00000000000E+00  0.74505356247E+03  0.74505356247E+03  0.00000000000E+00 0. -1.
         21   -1    0    0  501  502 -0.00000000000E+00 -0.00000000000E+00 -0.73715974433E+02  0.73715974433E+02  0.00000000000E+00 0. -1.
         25    1    1    2    0    0 -0.61066617467E+02 -0.10325283488E+03  0.27666583184E+03  0.32643416210E+03  0.12500000000E+03 0.  0.
         25    1    1    2    0    0 -0.80921480981E+01  0.20584999474E+02  0.14130891325E+03  0.18995376813E+03  0.12500000000E+03 0.  0.
         25    1    1    2    0    0  0.69158765565E+02  0.82667835406E+02  0.25336284294E+03  0.30238160667E+03  0.12500000000E+03 0.  0.
</event>
<event>
 5    0  0.5619558E-005  0.3160567E+03  0.7546771E-02  0.1077479E+00
         21   -1    0    0  502  501  0.00000000000E+00  0.00000000000E+00  0.94877862246E+03  0.94877862246E+03  0.00000000000E+00 0.  1.
         21   -1    0    0  501  502 -0.00000000000E+00 -0.00000000000E+00 -0.10528463706E+03  0.10528463706E+03  0.00000000000E+00 0.  1.
         25    1    1    2    0    0 -0.44011507895E+02 -0.12821012908E+03  0.33632472999E+03  0.38355465585E+03  0.12500000000E+03 0.  0.
         25    1    1    2    0    0  0.24853021457E+02 -0.45412076969E+02  0.18293155041E+02  0.13652680664E+03  0.12500000000E+03 0.  0.
         25    1    1    2    0    0  0.19158486438E+02  0.17362220605E+03  0.48887610037E+03  0.53398179702E+03  0.12500000000E+03 0.  0.
</event>
<event>
 5    0  0.5619558E-005  0.3119468E+03  0.7546771E-02  0.1079416E+00
         21   -1    0    0  502  501  0.00000000000E+00  0.00000000000E+00  0.27674734331E+03  0.27674734331E+03  0.00000000000E+00 0.  1.
         21   -1    0    0  501  502 -0.00000000000E+00 -0.00000000000E+00 -0.35162319146E+03  0.35162319146E+03  0.00000000000E+00 0.  1.
         25    1    1    2    0    0 -0.73530405449E+02 -0.58021914197E+02 -0.15189209898E+03  0.21787490169E+03  0.12500000000E+03 0.  0.
         25    1    1    2    0    0 -0.23708441406E+02  0.14725780353E+03  0.11322131136E+03  0.22514665496E+03  0.12500000000E+03 0.  0.
         25    1    1    2    0    0  0.97238846855E+02 -0.89235889330E+02 -0.36205060537E+02  0.18534897812E+03  0.12500000000E+03 0.  0.
</event>
<event>
 5    0  0.5619558E-005  0.4738283E+03  0.7546771E-02  0.1020845E+00
         21   -1    0    0  502  501  0.00000000000E+00  0.00000000000E+00  0.40285696956E+03  0.40285696956E+03  0.00000000000E+00 0. -1.
         21   -1    0    0  501  502 -0.00000000000E+00 -0.00000000000E+00 -0.55730276632E+03  0.55730276632E+03  0.00000000000E+00 0. -1.
         25    1    1    2    0    0 -0.55545187486E+02  0.28733800178E+03 -0.64612258365E+02  0.32472779224E+03  0.12500000000E+03 0.  0.
         25    1    1    2    0    0 -0.93868416458E+02  0.87112467340E+02  0.58124659724E+02  0.18815774670E+03  0.12500000000E+03 0.  0.
         25    1    1    2    0    0  0.14941360394E+03 -0.37445046912E+03 -0.14795819811E+03  0.44727419695E+03  0.12500000000E+03 0.  0.
</event>
<event>
 5    0  0.5619558E-005  0.3820487E+03  0.7546771E-02  0.1050179E+00
         21   -1    0    0  502  501  0.00000000000E+00  0.00000000000E+00  0.37042189828E+03  0.37042189828E+03  0.00000000000E+00 0.  1.
         21   -1    0    0  501  502 -0.00000000000E+00 -0.00000000000E+00 -0.39404035086E+03  0.39404035086E+03  0.00000000000E+00 0.  1.
         25    1    1    2    0    0 -0.88972114656E+02  0.61564960669E+02 -0.11793123717E+03  0.20307402165E+03  0.12500000000E+03 0.  0.
         25    1    1    2    0    0 -0.14534019918E+03 -0.17315493351E+03  0.14174644645E+00  0.25832426249E+03  0.12500000000E+03 0.  0.
         25    1    1    2    0    0  0.23431231384E+03  0.11158997285E+03  0.94171038151E+02  0.30306396500E+03  0.12500000000E+03 0.  0.
</event>
<event>
 5    0  0.5619558E-005  0.4104474E+03  0.7546771E-02  0.1040221E+00
         21   -1    0    0  502  501  0.00000000000E+00  0.00000000000E+00  0.12747353807E+04  0.12747353807E+04  0.00000000000E+00 0.  1.
         21   -1    0    0  501  502 -0.00000000000E+00 -0.00000000000E+00 -0.13215847777E+03  0.13215847777E+03  0.00000000000E+00 0.  1.
         25    1    1    2    0    0  0.16791040062E+03 -0.16825517639E+03  0.59611925115E+03  0.65382479963E+03  0.12500000000E+03 0.  0.
         25    1    1    2    0    0 -0.15576580862E+03 -0.35449843184E+01  0.49549420009E+03  0.53424250708E+03  0.12500000000E+03 0.  0.
         25    1    1    2    0    0 -0.12144592001E+02  0.17180016071E+03  0.50963451640E+02  0.21882655172E+03  0.12500000000E+03 0.  0.
</event>
<event>
 5    0  0.5619558E-005  0.2839804E+03  0.7546771E-02  0.1093535E+00
         21   -1    0    0  502  501  0.00000000000E+00  0.00000000000E+00  0.49760068925E+03  0.49760068925E+03  0.00000000000E+00 0. -1.
         21   -1    0    0  501  502 -0.00000000000E+00 -0.00000000000E+00 -0.16206744709E+03  0.16206744709E+03  0.00000000000E+00 0. -1.
         25    1    1    2    0    0  0.42377653685E+02  0.90283877504E+02  0.33102342961E+02  0.16330281436E+03  0.12500000000E+03 0.  0.
         25    1    1    2    0    0 -0.56933434220E+02  0.31039268223E+02 -0.69790052244E+01  0.14099134235E+03  0.12500000000E+03 0.  0.
         25    1    1    2    0    0  0.14555780535E+02 -0.12132314573E+03  0.30940990442E+03  0.35537397962E+03  0.12500000000E+03 0.  0.
</event>
<event>
 5    0  0.5619558E-005  0.3533669E+03  0.7546771E-02  0.1061242E+00
         21   -1    0    0  502  501  0.00000000000E+00  0.00000000000E+00  0.10382163405E+03  0.10382163405E+03  0.00000000000E+00 0. -1.
         21   -1    0    0  501  502 -0.00000000000E+00 -0.00000000000E+00 -0.12027178421E+04  0.12027178421E+04  0.00000000000E+00 0. -1.
         25    1    1    2    0    0 -0.15956251602E+03 -0.15818701694E+03 -0.26019715408E+03  0.36580170562E+03  0.12500000000E+03 0.  0.
         25    1    1    2    0    0  0.62542591591E+02  0.11257842925E+03 -0.15391772205E+03  0.23643422691E+03  0.12500000000E+03 0.  0.
         25    1    1    2    0    0  0.97019924426E+02  0.45608587687E+02 -0.68478133194E+03  0.70430354364E+03  0.12500000000E+03 0.  0.
</event>
<event>
 5    0  0.5896259E-005  0.4597363E+03  0.7546771E-02  0.1024858E+00
         21   -1    0    0  502  501  0.00000000000E+00  0.00000000000E+00  0.30617308098E+03  0.30617308098E+03  0.00000000000E+00 0. -1.
         21   -1    0    0  501  502 -0.00000000000E+00 -0.00000000000E+00 -0.69032030047E+03  0.69032030047E+03  0.00000000000E+00 0. -1.
         25    1    1    2    0    0  0.74338752526E+02  0.13397162475E+03 -0.28544781168E+03  0.34724645362E+03  0.12500000000E+03 0.  0.
         25    1    1    2    0    0 -0.26711389831E+03  0.85787851142E+02  0.24870407071E+02  0.30814432855E+03  0.12500000000E+03 0.  0.
         25    1    1    2    0    0  0.19277514578E+03 -0.21975947589E+03 -0.12356981489E+03  0.34110259926E+03  0.12500000000E+03 0.  0.
</event>
<event>
 5    0  0.5619558E-005  0.2172873E+03  0.7546771E-02  0.1135922E+00
         21   -1    0    0  502  501  0.00000000000E+00  0.00000000000E+00  0.36701638611E+03  0.36701638611E+03  0.00000000000E+00 0. -1.
         21   -1    0    0  501  502 -0.00000000000E+00 -0.00000000000E+00 -0.12864215241E+03  0.12864215241E+03  0.00000000000E+00 0. -1.
         25    1    1    2    0    0 -0.50587300263E+02  0.44995145260E+02  0.46565505143E+02  0.14958938570E+03  0.12500000000E+03 0.  0.
         25    1    1    2    0    0  0.72842893601E+02  0.17348357168E+02  0.11092876324E+03  0.18313176447E+03  0.12500000000E+03 0.  0.
         25    1    1    2    0    0 -0.22255593338E+02 -0.62343502429E+02  0.80879965318E+02  0.16293738834E+03  0.12500000000E+03 0.  0.
</event>
<event>
 5    0  0.5619558E-005  0.2376934E+03  0.7546771E-02  0.1121339E+00
         21   -1    0    0  502  501  0.00000000000E+00  0.00000000000E+00  0.30305053334E+03  0.30305053334E+03  0.00000000000E+00 0. -1.
         21   -1    0    0  501  502 -0.00000000000E+00 -0.00000000000E+00 -0.18643138457E+03  0.18643138457E+03  0.00000000000E+00 0. -1.
         25    1    1    2    0    0  0.59753045126E+02 -0.63841552460E+01 -0.18889239182E+02  0.13997495203E+03  0.12500000000E+03 0.  0.
         25    1    1    2    0    0 -0.47107360365E+02 -0.50614669634E+02 -0.16997627262E+02  0.14385710798E+03  0.12500000000E+03 0.  0.
         25    1    1    2    0    0 -0.12645684761E+02  0.56998824880E+02  0.15250601521E+03  0.20564985790E+03  0.12500000000E+03 0.  0.
</event>
<event>
 5    0  0.5619558E-005  0.3514868E+03  0.7546771E-02  0.1062006E+00
         21   -1    0    0  502  501  0.00000000000E+00  0.00000000000E+00  0.15575536794E+04  0.15575536794E+04  0.00000000000E+00 0. -1.
         21   -1    0    0  501  502 -0.00000000000E+00 -0.00000000000E+00 -0.79318601148E+02  0.79318601148E+02  0.00000000000E+00 0. -1.
         25    1    1    2    0    0  0.24602233563E+02 -0.61344135130E+02  0.77883274134E+03  0.79156415520E+03  0.12500000000E+03 0.  0.
         25    1    1    2    0    0 -0.19717818928E+03  0.10082007939E+03  0.42986314481E+03  0.49945094854E+03  0.12500000000E+03 0.  0.
         25    1    1    2    0    0  0.17257595572E+03 -0.39475944256E+02  0.26953919209E+03  0.34585717680E+03  0.12500000000E+03 0.  0.
</event>
<event>
 5    0  0.5619558E-005  0.2964196E+03  0.7546771E-02  0.1087044E+00
         21   -1    0    0  502  501  0.00000000000E+00  0.00000000000E+00  0.26811696221E+03  0.26811696221E+03  0.00000000000E+00 0.  1.
         21   -1    0    0  501  502 -0.00000000000E+00 -0.00000000000E+00 -0.32770981208E+03  0.32770981208E+03  0.00000000000E+00 0.  1.
         25    1    1    2    0    0 -0.10703563283E+02  0.14468054307E+03 -0.61508371925E+02  0.20113504326E+03  0.12500000000E+03 0.  0.
         25    1    1    2    0    0 -0.17785130460E+02 -0.21421216991E+03 -0.46684591695E+01  0.24869652011E+03  0.12500000000E+03 0.  0.
         25    1    1    2    0    0  0.28488693744E+02  0.69531626838E+02  0.65839812273E+01  0.14599521092E+03  0.12500000000E+03 0.  0.
</event>
<event>
 5    0  0.5619558E-005  0.2541845E+03  0.7546771E-02  0.1110689E+00
         21   -1    0    0  502  501  0.00000000000E+00  0.00000000000E+00  0.27135733737E+03  0.27135733737E+03  0.00000000000E+00 0.  1.
         21   -1    0    0  501  502 -0.00000000000E+00 -0.00000000000E+00 -0.23809837093E+03  0.23809837093E+03  0.00000000000E+00 0.  1.
         25    1    1    2    0    0 -0.11170647802E+03  0.59857808289E+02  0.85098815643E+02  0.19730205997E+03  0.12500000000E+03 0.  0.
         25    1    1    2    0    0 -0.60252712573E+01 -0.51095220178E+01 -0.24309108321E+01  0.12527298367E+03  0.12500000000E+03 0.  0.
         25    1    1    2    0    0  0.11773174927E+03 -0.54748286272E+02 -0.49408938373E+02  0.18688066467E+03  0.12500000000E+03 0.  0.
</event>
<event>
 5    0  0.5619558E-005  0.3187407E+03  0.7546771E-02  0.1076230E+00
         21   -1    0    0  502  501  0.00000000000E+00  0.00000000000E+00  0.14523870396E+04  0.14523870396E+04  0.00000000000E+00 0. -1.
         21   -1    0    0  501  502 -0.00000000000E+00 -0.00000000000E+00 -0.69950784908E+02  0.69950784908E+02  0.00000000000E+00 0. -1.
         25    1    1    2    0    0 -0.69133949816E+01 -0.45571858459E+02  0.10801566962E+03  0.17151377261E+03  0.12500000000E+03 0.  0.
         25    1    1    2    0    0  0.30979535301E+02 -0.12558200492E+03  0.91796514460E+03  0.93542267359E+03  0.12500000000E+03 0.  0.
         25    1    1    2    0    0 -0.24066140320E+02  0.17115386338E+03  0.35645544053E+03  0.41540137836E+03  0.12500000000E+03 0.  0.
</event>
<event>
 5    0  0.6122919E-005  0.2784791E+03  0.7546771E-02  0.1096523E+00
         21   -1    0    0  502  501  0.00000000000E+00  0.00000000000E+00  0.23848288504E+03  0.23848288504E+03  0.00000000000E+00 0.  1.
         21   -1    0    0  501  502 -0.00000000000E+00 -0.00000000000E+00 -0.32518315600E+03  0.32518315600E+03  0.00000000000E+00 0.  1.
         25    1    1    2    0    0  0.88578817331E+01 -0.49023792165E+02 -0.25741413693E+02  0.13700151330E+03  0.12500000000E+03 0.  0.
         25    1    1    2    0    0 -0.74503638691E+02  0.10979901144E+03 -0.16104108582E+03  0.24324030590E+03  0.12500000000E+03 0.  0.
         25    1    1    2    0    0  0.65645756958E+02 -0.60775219277E+02  0.10008222855E+03  0.18342422184E+03  0.12500000000E+03 0.  0.
</event>
<event>
 5    0  0.5619558E-005  0.3085707E+03  0.7546771E-02  0.1081033E+00
         21   -1    0    0  502  501  0.00000000000E+00  0.00000000000E+00  0.38973301097E+03  0.38973301097E+03  0.00000000000E+00 0. -1.
         21   -1    0    0  501  502 -0.00000000000E+00 -0.00000000000E+00 -0.24431060245E+03  0.24431060245E+03  0.00000000000E+00 0. -1.
         25    1    1    2    0    0 -0.53392939901E+02 -0.11091336301E+03 -0.24470746655E+02  0.17713384083E+03  0.12500000000E+03 0.  0.
         25    1    1    2    0    0 -0.82909757123E+02  0.10349551743E+03 -0.29770232209E+02  0.18465269205E+03  0.12500000000E+03 0.  0.
         25    1    1    2    0    0  0.13630269702E+03  0.74178455790E+01  0.19966338738E+03  0.27225708055E+03  0.12500000000E+03 0.  0.
</event>
<event>
 5    0  0.5736597E-005  0.4653685E+03  0.7546771E-02  0.1023236E+00
         21   -1    0    0  502  501  0.00000000000E+00  0.00000000000E+00  0.20981659048E+03  0.20981659048E+03  0.00000000000E+00 0.  1.
         21   -1    0    0  501  502 -0.00000000000E+00 -0.00000000000E+00 -0.10321768162E+04  0.10321768162E+04  0.00000000000E+00 0.  1.
         25    1    1    2    0    0  0.56505089687E+02  0.20583035692E+03 -0.24550000935E+03  0.34850282005E+03  0.12500000000E+03 0.  0.
         25    1    1    2    0    0 -0.35115403769E+02 -0.25663181848E+03 -0.66934234888E+03  0.72851709784E+03  0.12500000000E+03 0.  0.
         25    1    1    2    0    0 -0.21389685918E+02  0.50801461564E+02  0.92482132529E+02  0.16497348877E+03  0.12500000000E+03 0.  0.
</event>
<event>
 5    0  0.5619558E-005  0.4025277E+03  0.7546771E-02  0.1042908E+00
         21   -1    0    0  502  501  0.00000000000E+00  0.00000000000E+00  0.14194317184E+03  0.14194317184E+03  0.00000000000E+00 0. -1.
         21   -1    0    0  501  502 -0.00000000000E+00 -0.00000000000E+00 -0.11415027370E+04  0.11415027370E+04  0.00000000000E+00 0. -1.
         25    1    1    2    0    0  0.14157967501E+03  0.79512906051E+02 -0.88961636884E+03  0.91291258635E+03  0.12500000000E+03 0.  0.
         25    1    1    2    0    0 -0.49547153032E+02 -0.13099059094E+03 -0.81017714926E+02  0.20445616993E+03  0.12500000000E+03 0.  0.
         25    1    1    2    0    0 -0.92032521978E+02  0.51477684891E+02 -0.28925481448E+02  0.16607715261E+03  0.12500000000E+03 0.  0.
</event>
<event>
 5    0  0.5619558E-005  0.3541452E+03  0.7546771E-02  0.1060926E+00
         21   -1    0    0  502  501  0.00000000000E+00  0.00000000000E+00  0.35061844060E+03  0.35061844060E+03  0.00000000000E+00 0. -1.
         21   -1    0    0  501  502 -0.00000000000E+00 -0.00000000000E+00 -0.35770736803E+03  0.35770736803E+03  0.00000000000E+00 0. -1.
         25    1    1    2    0    0 -0.12002967461E+03 -0.24740206111E+03 -0.68774157315E+02  0.30978990839E+03  0.12500000000E+03 0.  0.
         25    1    1    2    0    0 -0.44686493781E+01  0.70786327575E+02  0.14160473018E+02  0.14441673032E+03  0.12500000000E+03 0.  0.
         25    1    1    2    0    0  0.12449832399E+03  0.17661573354E+03  0.47524756862E+02  0.25411916992E+03  0.12500000000E+03 0.  0.
</event>
<event>
 5    0  0.5619558E-005  0.3023989E+03  0.7546771E-02  0.1084048E+00
         21   -1    0    0  502  501  0.00000000000E+00  0.00000000000E+00  0.10360958075E+04  0.10360958075E+04  0.00000000000E+00 0.  1.
         21   -1    0    0  501  502 -0.00000000000E+00 -0.00000000000E+00 -0.88259286699E+02  0.88259286699E+02  0.00000000000E+00 0.  1.
         25    1    1    2    0    0 -0.70777135699E+02  0.93306132161E+01  0.57458596465E+02  0.15499339853E+03  0.12500000000E+03 0.  0.
         25    1    1    2    0    0  0.65387772934E+02  0.80009440669E+02  0.72761490775E+03  0.74547000303E+03  0.12500000000E+03 0.  0.
         25    1    1    2    0    0  0.53893627646E+01 -0.89340053885E+02  0.16276301657E+03  0.22389169261E+03  0.12500000000E+03 0.  0.
</event>
<event>
 5    0  0.5619558E-005  0.2950239E+03  0.7546771E-02  0.1087755E+00
         21   -1    0    0  502  501  0.00000000000E+00  0.00000000000E+00  0.12384536016E+03  0.12384536016E+03  0.00000000000E+00 0.  1.
         21   -1    0    0  501  502 -0.00000000000E+00 -0.00000000000E+00 -0.70280493715E+03  0.70280493715E+03  0.00000000000E+00 0.  1.
         25    1    1    2    0    0  0.15144652462E+02 -0.92315104991E+02 -0.16294519248E+03  0.22567138689E+03  0.12500000000E+03 0.  0.
         25    1    1    2    0    0 -0.66310742330E+02  0.19991078917E+02  0.14860177083E+02  0.14367526804E+03  0.12500000000E+03 0.  0.
         25    1    1    2    0    0  0.51166089869E+02  0.72324026073E+02 -0.43087456160E+03  0.45730364238E+03  0.12500000000E+03 0.  0.
</event>
<event>
 5    0  0.5619558E-005  0.3991912E+03  0.7546771E-02  0.1044060E+00
         21   -1    0    0  502  501  0.00000000000E+00  0.00000000000E+00  0.20644751774E+03  0.20644751774E+03  0.00000000000E+00 0.  1.
         21   -1    0    0  501  502 -0.00000000000E+00 -0.00000000000E+00 -0.77188419390E+03  0.77188419390E+03  0.00000000000E+00 0.  1.
         25    1    1    2    0    0 -0.64632820942E+02 -0.25602500042E+03 -0.55580946688E+02  0.29738938114E+03  0.12500000000E+03 0.  0.
         25    1    1    2    0    0 -0.36792460889E+02 -0.47685310246E+01 -0.23750079746E+03  0.27093920510E+03  0.12500000000E+03 0.  0.
         25    1    1    2    0    0  0.10142528183E+03  0.26079353144E+03 -0.27235493201E+03  0.41000312539E+03  0.12500000000E+03 0.  0.
</event>
<event>
 5    0  0.5619558E-005  0.3902747E+03  0.7546771E-02  0.1047200E+00
         21   -1    0    0  502  501  0.00000000000E+00  0.00000000000E+00  0.35914869875E+03  0.35914869875E+03  0.00000000000E+00 0. -1.
         21   -1    0    0  501  502 -0.00000000000E+00 -0.00000000000E+00 -0.42409830239E+03  0.42409830239E+03  0.00000000000E+00 0. -1.
         25    1    1    2    0    0  0.26062055886E+03 -0.65291764359E+02  0.16345245279E+03  0.33841955398E+03  0.12500000000E+03 0.  0.
         25    1    1    2    0    0 -0.98758101527E+02 -0.11962648967E+02 -0.12576365806E+03  0.20331690849E+03  0.12500000000E+03 0.  0.
         25    1    1    2    0    0 -0.16186245733E+03  0.77254413326E+02 -0.10263839837E+03  0.24151053868E+03  0.12500000000E+03 0.  0.
</event>
<event>
 5    0  0.5619558E-005  0.3140654E+03  0.7546771E-02  0.1078413E+00
         21   -1    0    0  502  501  0.00000000000E+00  0.00000000000E+00  0.14464341740E+03  0.14464341740E+03  0.00000000000E+00 0.  1.
         21   -1    0    0  501  502 -0.00000000000E+00 -0.00000000000E+00 -0.68193259163E+03  0.68193259163E+03  0.00000000000E+00 0.  1.
         25    1    1    2    0    0  0.70279512048E+02 -0.52355321356E+02 -0.35367511455E+03  0.38521601231E+03  0.12500000000E+03 0.  0.
         25    1    1    2    0    0  0.11379392689E+03  0.33691885647E+02 -0.43549948170E+02  0.17778019839E+03  0.12500000000E+03 0.  0.
         25    1    1    2    0    0 -0.18407343894E+03  0.18663435709E+02 -0.14006411151E+03  0.26357979833E+03  0.12500000000E+03 0.  0.
</event>
<event>
 5    0  0.5619558E-005  0.4313253E+03  0.7546771E-02  0.1033442E+00
         21   -1    0    0  502  501  0.00000000000E+00  0.00000000000E+00  0.12829137993E+03  0.12829137993E+03  0.00000000000E+00 0. -1.
         21   -1    0    0  501  502 -0.00000000000E+00 -0.00000000000E+00 -0.14501483235E+04  0.14501483235E+04  0.00000000000E+00 0. -1.
         25    1    1    2    0    0 -0.35709105154E+02 -0.13279692197E+03 -0.65271131960E+02  0.19696569078E+03  0.12500000000E+03 0.  0.
         25    1    1    2    0    0  0.11597921248E+03 -0.85423198823E+01 -0.11248967898E+04  0.11377793884E+04  0.12500000000E+03 0.  0.
         25    1    1    2    0    0 -0.80270107324E+02  0.14133924186E+03 -0.13168902180E+03  0.24369462423E+03  0.12500000000E+03 0.  0.
</event>
<event>
 5    0  0.5619558E-005  0.3762404E+03  0.7546771E-02  0.1052332E+00
         21   -1    0    0  502  501  0.00000000000E+00  0.00000000000E+00  0.30964053445E+03  0.30964053445E+03  0.00000000000E+00 0. -1.
         21   -1    0    0  501  502 -0.00000000000E+00 -0.00000000000E+00 -0.45716500046E+03  0.45716500046E+03  0.00000000000E+00 0. -1.
         25    1    1    2    0    0  0.51400322713E+02  0.22634707403E+01 -0.76607256650E+02  0.15537306152E+03  0.12500000000E+03 0.  0.
         25    1    1    2    0    0 -0.11965529257E+02  0.27314767990E+03 -0.12572744339E+02  0.30089184573E+03  0.12500000000E+03 0.  0.
         25    1    1    2    0    0 -0.39434793457E+02 -0.27541115064E+03 -0.58344465021E+02  0.31054062767E+03  0.12500000000E+03 0.  0.
</event>
<event>
 5    0  0.5619558E-005  0.4207173E+03  0.7546771E-02  0.1036833E+00
         21   -1    0    0  502  501  0.00000000000E+00  0.00000000000E+00  0.71896096896E+03  0.71896096896E+03  0.00000000000E+00 0. -1.
         21   -1    0    0  501  502 -0.00000000000E+00 -0.00000000000E+00 -0.24619285656E+03  0.24619285656E+03  0.00000000000E+00 0. -1.
         25    1    1    2    0    0 -0.29704865971E+03  0.73742825974E+01  0.26987909076E+03  0.42041885056E+03  0.12500000000E+03 0.  0.
         25    1    1    2    0    0  0.12677127623E+02 -0.10377309273E+03  0.13697502005E+03  0.21287724269E+03  0.12500000000E+03 0.  0.
         25    1    1    2    0    0  0.28437153208E+03  0.96398810134E+02  0.65914001589E+02  0.33185773226E+03  0.12500000000E+03 0.  0.
</event>
<event>
 5    0  0.5619558E-005  0.3051274E+03  0.7546771E-02  0.1082705E+00
         21   -1    0    0  502  501  0.00000000000E+00  0.00000000000E+00  0.51334882644E+03  0.51334882644E+03  0.00000000000E+00 0.  1.
         21   -1    0    0  501  502 -0.00000000000E+00 -0.00000000000E+00 -0.18136351714E+03  0.18136351714E+03  0.00000000000E+00 0.  1.
         25    1    1    2    0    0 -0.14177824289E+03 -0.60395899136E+02  0.25598853774E+03  0.32388866335E+03  0.12500000000E+03 0.  0.
         25    1    1    2    0    0  0.14919447929E+03  0.12460273886E+02 -0.33275463418E+02  0.19785476376E+03  0.12500000000E+03 0.  0.
         25    1    1    2    0    0 -0.74162363960E+01  0.47935625250E+02  0.10927223497E+03  0.17296891647E+03  0.12500000000E+03 0.  0.
</event>
<event>
 5    0  0.5619558E-005  0.4161440E+03  0.7546771E-02  0.1038329E+00
         21   -1    0    0  502  501  0.00000000000E+00  0.00000000000E+00  0.13216866206E+03  0.13216866206E+03  0.00000000000E+00 0.  1.
         21   -1    0    0  501  502 -0.00000000000E+00 -0.00000000000E+00 -0.13102636831E+04  0.13102636831E+04  0.00000000000E+00 0.  1.
         25    1    1    2    0    0 -0.18979065607E+03 -0.12010726477E+03 -0.54452786178E+03  0.60214768989E+03  0.12500000000E+03 0.  0.
         25    1    1    2    0    0  0.92692240803E+02  0.25959674884E+03 -0.21406083822E+03  0.37071466922E+03  0.12500000000E+03 0.  0.
         25    1    1    2    0    0  0.97098415270E+02 -0.13948948408E+03 -0.41950632108E+03  0.46956998610E+03  0.12500000000E+03 0.  0.
</event>
<event>
 5    0  0.5619558E-005  0.4422333E+03  0.7546771E-02  0.1030064E+00
         21   -1    0    0  502  501  0.00000000000E+00  0.00000000000E+00  0.11548056481E+04  0.11548056481E+04  0.00000000000E+00 0.  1.
         21   -1    0    0  501  502 -0.00000000000E+00 -0.00000000000E+00 -0.16935342449E+03  0.16935342449E+03  0.00000000000E+00 0.  1.
         25    1    1    2    0    0  0.12866862366E+03 -0.14009130328E+03  0.43493209335E+03  0.49088910540E+03  0.12500000000E+03 0.  0.
         25    1    1    2    0    0  0.19991750802E+03  0.12320110060E+03  0.30170077248E+03  0.40223609648E+03  0.12500000000E+03 0.  0.
         25    1    1    2    0    0 -0.32858613167E+03  0.16890202681E+02  0.24881935773E+03  0.43103387066E+03  0.12500000000E+03 0.  0.
</event>
<event>
 5    0  0.5619558E-005  0.2270649E+03  0.7546771E-02  0.1128723E+00
         21   -1    0    0  502  501  0.00000000000E+00  0.00000000000E+00  0.16153712349E+04  0.16153712349E+04  0.00000000000E+00 0. -1.
         21   -1    0    0  501  502 -0.00000000000E+00 -0.00000000000E+00 -0.31917399405E+02  0.31917399405E+02  0.00000000000E+00 0. -1.
         25    1    1    2    0    0  0.49538277913E+02  0.10380835252E+03  0.51302999640E+03  0.54042112490E+03  0.12500000000E+03 0.  0.
         25    1    1    2    0    0 -0.41158061553E+02 -0.80179746686E+02  0.60015369964E+03  0.61962266017E+03  0.12500000000E+03 0.  0.
         25    1    1    2    0    0 -0.83802163602E+01 -0.23628605834E+02  0.47027013944E+03  0.48724484921E+03  0.12500000000E+03 0.  0.
</event>
<event>
 5    0  0.5619558E-005  0.2856709E+03  0.7546771E-02  0.1092631E+00
         21   -1    0    0  502  501  0.00000000000E+00  0.00000000000E+00  0.26654134920E+03  0.26654134920E+03  0.00000000000E+00 0.  1.
         21   -1    0    0  501  502 -0.00000000000E+00 -0.00000000000E+00 -0.30617330197E+03  0.30617330197E+03  0.00000000000E+00 0.  1.
         25    1    1    2    0    0 -0.11823771154E+03  0.13199927667E+03 -0.79152210157E+02  0.23085501477E+03  0.12500000000E+03 0.  0.
         25    1    1    2    0    0  0.88853528573E+02 -0.14351517035E+03  0.14563825672E+02  0.21054372153E+03  0.12500000000E+03 0.  0.
         25    1    1    2    0    0  0.29384182966E+02  0.11515893680E+02  0.24956431712E+02  0.13131591488E+03  0.12500000000E+03 0.  0.
</event>
<event>
 5    0  0.5619558E-005  0.3213480E+03  0.7546771E-02  0.1075031E+00
         21   -1    0    0  502  501  0.00000000000E+00  0.00000000000E+00  0.19912536480E+04  0.19912536480E+04  0.00000000000E+00 0. -1.
         21   -1    0    0  501  502 -0.00000000000E+00 -0.00000000000E+00 -0.51859057799E+02  0.51859057799E+02  0.00000000000E+00 0. -1.
         25    1    1    2    0    0  0.84987633507E+00 -0.18289332868E+03  0.12672093061E+04  0.12864272686E+04  0.12500000000E+03 0.  0.
         25    1    1    2    0    0 -0.13251008327E+02  0.10821591593E+01  0.26861605876E+03  0.29657435377E+03  0.12500000000E+03 0.  0.
         25    1    1    2    0    0  0.12401131992E+02  0.18181116952E+03  0.40356922532E+03  0.46011108339E+03  0.12500000000E+03 0.  0.
</event>
<event>
 5    0  0.5619558E-005  0.3041304E+03  0.7546771E-02  0.1083194E+00
         21   -1    0    0  502  501  0.00000000000E+00  0.00000000000E+00  0.52448370210E+03  0.52448370210E+03  0.00000000000E+00 0.  1.
         21   -1    0    0  501  502 -0.00000000000E+00 -0.00000000000E+00 -0.17635495519E+03  0.17635495519E+03  0.00000000000E+00 0.  1.
         25    1    1    2    0    0  0.10566293486E+02 -0.43172551241E+02 -0.10041666582E+03  0.16638516314E+03  0.12500000000E+03 0.  0.
         25    1    1    2    0    0 -0.46967637786E+02 -0.40828124170E+00  0.12469036139E+03  0.18269869161E+03  0.12500000000E+03 0.  0.
         25    1    1    2    0    0  0.36401344299E+02  0.43580832482E+02  0.32385505135E+03  0.35175480254E+03  0.12500000000E+03 0.  0.
</event>
<event>
 5    0  0.5619558E-005  0.5740393E+03  0.7546771E-02  0.9960780E-01
         21   -1    0    0  502  501  0.00000000000E+00  0.00000000000E+00  0.54790781658E+03  0.54790781658E+03  0.00000000000E+00 0.  1.
         21   -1    0    0  501  502 -0.00000000000E+00 -0.00000000000E+00 -0.60141708906E+03  0.60141708906E+03  0.00000000000E+00 0.  1.
         25    1    1    2    0    0 -0.49183400260E+03  0.66149085936E+02 -0.95388270472E+02  0.52057690097E+03  0.12500000000E+03 0.  0.
         25    1    1    2    0    0  0.39095097724E+03  0.56533355661E+02  0.82823747337E+02  0.42252036641E+03  0.12500000000E+03 0.  0.
         25    1    1    2    0    0  0.10088302536E+03 -0.12268244160E+03 -0.40944749339E+02  0.20622763826E+03  0.12500000000E+03 0.  0.
</event>
<event>
 5    0  0.5619558E-005  0.3240759E+03  0.7546771E-02  0.1073789E+00
         21   -1    0    0  502  501  0.00000000000E+00  0.00000000000E+00  0.18343531693E+03  0.18343531693E+03  0.00000000000E+00 0.  1.
         21   -1    0    0  501  502 -0.00000000000E+00 -0.00000000000E+00 -0.57254617627E+03  0.57254617627E+03  0.00000000000E+00 0.  1.
         25    1    1    2    0    0  0.42685496457E+02 -0.36262265090E+02  0.99271995429E+02  0.16916539999E+03  0.12500000000E+03 0.  0.
         25    1    1    2    0    0  0.50193696738E+02  0.51382235218E+02 -0.12361522569E+03  0.18990857093E+03  0.12500000000E+03 0.  0.
         25    1    1    2    0    0 -0.92879193195E+02 -0.15119970128E+02 -0.36476762908E+03  0.39690752229E+03  0.12500000000E+03 0.  0.
</event>
<event>
 5    0  0.5619558E-005  0.2583610E+03  0.7546771E-02  0.1108132E+00
         21   -1    0    0  502  501  0.00000000000E+00  0.00000000000E+00  0.20071942327E+04  0.20071942327E+04  0.00000000000E+00 0.  1.
         21   -1    0    0  501  502 -0.00000000000E+00 -0.00000000000E+00 -0.33255568096E+02  0.33255568096E+02  0.00000000000E+00 0.  1.
         25    1    1    2    0    0  0.86407082213E+02 -0.30395068423E+02  0.47055000138E+03  0.49541129159E+03  0.12500000000E+03 0.  0.
         25    1    1    2    0    0  0.25366235698E+02 -0.25519596927E+02  0.10562482984E+04  0.10642274961E+04  0.12500000000E+03 0.  0.
         25    1    1    2    0    0 -0.11177331791E+03  0.55914665350E+02  0.44714036492E+03  0.48081101312E+03  0.12500000000E+03 0.  0.
</event>
<event>
 5    0  0.5619558E-005  0.2546962E+03  0.7546771E-02  0.1110372E+00
         21   -1    0    0  502  501  0.00000000000E+00  0.00000000000E+00  0.20912610291E+03  0.20912610291E+03  0.00000000000E+00 0. -1.
         21   -1    0    0  501  502 -0.00000000000E+00 -0.00000000000E+00 -0.31019626377E+03  0.31019626377E+03  0.00000000000E+00 0. -1.
         25    1    1    2    0    0  0.40431690862E+02 -0.15392989354E+02  0.82671930292E+02  0.15598497942E+03  0.12500000000E+03 0.  0.
         25    1    1    2    0    0 -0.25992349491E+02 -0.83713888267E+02 -0.78372609622E+02  0.17161259645E+03  0.12500000000E+03 0.  0.
         25    1    1    2    0    0 -0.14439341371E+02  0.99106877622E+02 -0.10536948154E+03  0.19172479081E+03  0.12500000000E+03 0.  0.
</event>
<event>
 5    0  0.5619558E-005  0.4200609E+03  0.7546771E-02  0.1037046E+00
         21   -1    0    0  502  501  0.00000000000E+00  0.00000000000E+00  0.24379115244E+03  0.24379115244E+03  0.00000000000E+00 0. -1.
         21   -1    0    0  501  502 -0.00000000000E+00 -0.00000000000E+00 -0.72378003382E+03  0.72378003382E+03  0.00000000000E+00 0. -1.
         25    1    1    2    0    0 -0.47312914415E+02  0.36289671865E+02 -0.42928820530E+03  0.45107517706E+03  0.12500000000E+03 0.  0.
         25    1    1    2    0    0  0.76247094473E+02  0.36732072041E+02 -0.23564789400E+03  0.27985316593E+03  0.12500000000E+03 0.  0.
         25    1    1    2    0    0 -0.28934180058E+02 -0.73021743906E+02  0.18494721791E+03  0.23664284327E+03  0.12500000000E+03 0.  0.
</event>
<event>
 5    0  0.5619558E-005  0.3604215E+03  0.7546771E-02  0.1058417E+00
         21   -1    0    0  502  501  0.00000000000E+00  0.00000000000E+00  0.10731069211E+04  0.10731069211E+04  0.00000000000E+00 0. -1.
         21   -1    0    0  501  502 -0.00000000000E+00 -0.00000000000E+00 -0.12105381567E+03  0.12105381567E+03  0.00000000000E+00 0. -1.
         25    1    1    2    0    0 -0.12779772461E+03 -0.12353445063E+03  0.59580853648E+02  0.22531732519E+03  0.12500000000E+03 0.  0.
         25    1    1    2    0    0  0.42136989201E+02  0.11761262374E+03  0.23459897327E+03  0.29371743800E+03  0.12500000000E+03 0.  0.
         25    1    1    2    0    0  0.85660735411E+02  0.59218268910E+01  0.65787327847E+03  0.67512597354E+03  0.12500000000E+03 0.  0.
</event>
<event>
 5    0  0.5619558E-005  0.3197817E+03  0.7546771E-02  0.1075750E+00
         21   -1    0    0  502  501  0.00000000000E+00  0.00000000000E+00  0.75186248639E+03  0.75186248639E+03  0.00000000000E+00 0.  1.
         21   -1    0    0  501  502 -0.00000000000E+00 -0.00000000000E+00 -0.13600933443E+03  0.13600933443E+03  0.00000000000E+00 0.  1.
         25    1    1    2    0    0  0.13232254168E+03 -0.22303270007E+02  0.36767235390E+03  0.41087060093E+03  0.12500000000E+03 0.  0.
         25    1    1    2    0    0 -0.62559536725E+02  0.49529686192E+02 -0.40414587882E+02  0.15370499134E+03  0.12500000000E+03 0.  0.
         25    1    1    2    0    0 -0.69763004959E+02 -0.27226416185E+02  0.28859538595E+03  0.32329622854E+03  0.12500000000E+03 0.  0.
</event>
<event>
 5    0  0.5619558E-005  0.2071937E+03  0.7546771E-02  0.1143808E+00
         21   -1    0    0  502  501  0.00000000000E+00  0.00000000000E+00  0.22180176196E+03  0.22180176196E+03  0.00000000000E+00 0. -1.
         21   -1    0    0  501  502 -0.00000000000E+00 -0.00000000000E+00 -0.19354772266E+03  0.19354772266E+03  0.00000000000E+00 0. -1.
         25    1    1    2    0    0 -0.15315994792E+02 -0.10405571406E+02 -0.17916441790E+01  0.12637668140E+03  0.12500000000E+03 0.  0.
         25    1    1    2    0    0  0.45716159030E+02  0.12157080510E+01  0.74525519501E+02  0.15254670825E+03  0.12500000000E+03 0.  0.
         25    1    1    2    0    0 -0.30400164237E+02  0.91898633548E+01 -0.44479836019E+02  0.13642609496E+03  0.12500000000E+03 0.  0.
</event>
<event>
 5    0  0.5619558E-005  0.3496056E+03  0.7546771E-02  0.1062777E+00
         21   -1    0    0  502  501  0.00000000000E+00  0.00000000000E+00  0.15208927343E+03  0.15208927343E+03  0.00000000000E+00 0.  1.
         21   -1    0    0  501  502 -0.00000000000E+00 -0.00000000000E+00 -0.80363354490E+03  0.80363354490E+03  0.00000000000E+00 0.  1.
         25    1    1    2    0    0  0.16209839646E+02 -0.49760431226E+01 -0.64715194115E+02  0.14177650107E+03  0.12500000000E+03 0.  0.
         25    1    1    2    0    0 -0.15183679757E+03  0.37922102245E+02 -0.59357906837E+03  0.62646117944E+03  0.12500000000E+03 0.  0.
         25    1    1    2    0    0  0.13562695792E+03 -0.32946059122E+02  0.67499910057E+01  0.18748513782E+03  0.12500000000E+03 0.  0.
</event>
<event>
 5    0  0.5619558E-005  0.2446288E+03  0.7546771E-02  0.1116747E+00
         21   -1    0    0  502  501  0.00000000000E+00  0.00000000000E+00  0.26092805717E+03  0.26092805717E+03  0.00000000000E+00 0.  1.
         21   -1    0    0  501  502 -0.00000000000E+00 -0.00000000000E+00 -0.22934773336E+03  0.22934773336E+03  0.00000000000E+00 0.  1.
         25    1    1    2    0    0 -0.52059584708E+02 -0.81483608712E+02  0.49526584696E+02  0.16561298693E+03  0.12500000000E+03 0.  0.
         25    1    1    2    0    0  0.15668990596E+02 -0.32541937744E+02  0.49094721476E+02  0.13906756148E+03  0.12500000000E+03 0.  0.
         25    1    1    2    0    0  0.36390594112E+02  0.11402554646E+03 -0.67040982363E+02  0.18559524213E+03  0.12500000000E+03 0.  0.
</event>
<event>
 5    0  0.5619558E-005  0.4189043E+03  0.7546771E-02  0.1037423E+00
         21   -1    0    0  502  501  0.00000000000E+00  0.00000000000E+00  0.29015583327E+03  0.29015583327E+03  0.00000000000E+00 0.  1.
         21   -1    0    0  501  502 -0.00000000000E+00 -0.00000000000E+00 -0.60478133092E+03  0.60478133092E+03  0.00000000000E+00 0.  1.
         25    1    1    2    0    0  0.10593011014E+03 -0.13695737045E+03  0.70535652155E+02  0.22489728273E+03  0.12500000000E+03 0.  0.
         25    1    1    2    0    0 -0.26934159706E+03 -0.66667836580E+01 -0.19676430904E+03  0.35627311886E+03  0.12500000000E+03 0.  0.
         25    1    1    2    0    0  0.16341148692E+03  0.14362415411E+03 -0.18839684076E+03  0.31376676260E+03  0.12500000000E+03 0.  0.
</event>
<event>
 5    0  0.5619558E-005  0.3673021E+03  0.7546771E-02  0.1055729E+00
         21   -1    0    0  502  501  0.00000000000E+00  0.00000000000E+00  0.79121704847E+03  0.79121704847E+03  0.00000000000E+00 0. -1.
         21   -1    0    0  501  502 -0.00000000000E+00 -0.00000000000E+00 -0.17051051534E+03  0.17051051534E+03  0.00000000000E+00 0. -1.
         25    1    1    2    0    0 -0.50464957916E+02  0.12210639107E+03  0.91853295942E+02  0.20376140629E+03  0.12500000000E+03 0.  0.
         25    1    1    2    0    0 -0.17150637996E+03 -0.15814551268E+03  0.37231863602E+03  0.45680478136E+03  0.12500000000E+03 0.  0.
         25    1    1    2    0    0  0.22197133788E+03  0.36039121605E+02  0.15653460117E+03  0.30116137616E+03  0.12500000000E+03 0.  0.
</event>
<event>
 5    0  0.5619558E-005  0.3638767E+03  0.7546771E-02  0.1057059E+00
         21   -1    0    0  502  501  0.00000000000E+00  0.00000000000E+00  0.18198790921E+03  0.18198790921E+03  0.00000000000E+00 0.  1.
         21   -1    0    0  501  502 -0.00000000000E+00 -0.00000000000E+00 -0.72755520483E+03  0.72755520483E+03  0.00000000000E+00 0.  1.
         25    1    1    2    0    0 -0.36090458428E+02 -0.34612869313E+02  0.30923753425E+02  0.13813707119E+03  0.12500000000E+03 0.  0.
         25    1    1    2    0    0  0.15665371179E+03 -0.23278198164E+02 -0.41530270346E+02  0.20599034754E+03  0.12500000000E+03 0.  0.
         25    1    1    2    0    0 -0.12056325336E+03  0.57891067477E+02 -0.53496077870E+03  0.56541569531E+03  0.12500000000E+03 0.  0.
</event>
<event>
 5    0  0.5619558E-005  0.3560662E+03  0.7546771E-02  0.1060152E+00
         21   -1    0    0  502  501  0.00000000000E+00  0.00000000000E+00  0.24625078351E+03  0.24625078351E+03  0.00000000000E+00 0. -1.
         21   -1    0    0  501  502 -0.00000000000E+00 -0.00000000000E+00 -0.51485370213E+03  0.51485370213E+03  0.00000000000E+00 0.  1.
         25    1    1    2    0    0 -0.97740185140E+02 -0.19425728187E+03 -0.61148207670E+02  0.25817269153E+03  0.12500000000E+03 0.  0.
         25    1    1    2    0    0  0.60899032453E+02  0.25135696005E+03 -0.21749284866E+03  0.36030147479E+03  0.12500000000E+03 0.  0.
         25    1    1    2    0    0  0.36841152687E+02 -0.57099678182E+02  0.10038137703E+02  0.14263031932E+03  0.12500000000E+03 0.  0.
</event>
<event>
 5    0  0.5619558E-005  0.3593833E+03  0.7546771E-02  0.1058828E+00
         21   -1    0    0  502  501  0.00000000000E+00  0.00000000000E+00  0.10463207013E+04  0.10463207013E+04  0.00000000000E+00 0. -1.
         21   -1    0    0  501  502 -0.00000000000E+00 -0.00000000000E+00 -0.12343861078E+03  0.12343861078E+03  0.00000000000E+00 0. -1.
         25    1    1    2    0    0 -0.11469153108E+03  0.29164600974E+02  0.32988748553E+03  0.37209605529E+03  0.12500000000E+03 0.  0.
         25    1    1    2    0    0 -0.16010533053E+02 -0.12965997562E+03  0.55960016434E+03  0.58808620999E+03  0.12500000000E+03 0.  0.
         25    1    1    2    0    0  0.13070206413E+03  0.10049537464E+03  0.33394440670E+02  0.20957704683E+03  0.12500000000E+03 0.  0.
</event>
<event>
 5    0  0.5619558E-005  0.3818314E+03  0.7546771E-02  0.1050259E+00
         21   -1    0    0  502  501  0.00000000000E+00  0.00000000000E+00  0.25089914647E+04  0.25089914647E+04  0.00000000000E+00 0.  1.
         21   -1    0    0  501  502 -0.00000000000E+00 -0.00000000000E+00 -0.58109079902E+02  0.58109079902E+02  0.00000000000E+00 0.  1.
         25    1    1    2    0    0 -0.28544157158E+03  0.13467840299E+03  0.12116337609E+04  0.12582911163E+04  0.12500000000E+03 0.  0.
         25    1    1    2    0    0  0.17689580896E+03 -0.12843155688E+03  0.66271027446E+03  0.70894054751E+03  0.12500000000E+03 0.  0.
         25    1    1    2    0    0  0.10854576261E+03 -0.62468461087E+01  0.57653834949E+03  0.59986888076E+03  0.12500000000E+03 0.  0.
</event>
<event>
 5    0  0.5619558E-005  0.3347656E+03  0.7546771E-02  0.1069047E+00
         21   -1    0    0  502  501  0.00000000000E+00  0.00000000000E+00  0.39234508555E+03  0.39234508555E+03  0.00000000000E+00 0.  1.
         21   -1    0    0  501  502 -0.00000000000E+00 -0.00000000000E+00 -0.28563637194E+03  0.28563637194E+03  0.00000000000E+00 0.  1.
         25    1    1    2    0    0 -0.12726433936E+03  0.71163258270E+02 -0.15403092001E+03  0.24619290347E+03  0.12500000000E+03 0.  0.
         25    1    1    2    0    0  0.98530486768E+02 -0.11932505427E+03  0.19946652580E+03  0.28170662100E+03  0.12500000000E+03 0.  0.
         25    1    1    2    0    0  0.28733852595E+02  0.48161796004E+02  0.61273107815E+02  0.15008193303E+03  0.12500000000E+03 0.  0.
</event>
<event>
 5    0  0.5619558E-005  0.2827005E+03  0.7546771E-02  0.1094223E+00
         21   -1    0    0  502  501  0.00000000000E+00  0.00000000000E+00  0.12895069596E+03  0.12895069596E+03  0.00000000000E+00 0.  1.
         21   -1    0    0  501  502 -0.00000000000E+00 -0.00000000000E+00 -0.61976829964E+03  0.61976829964E+03  0.00000000000E+00 0.  1.
         25    1    1    2    0    0 -0.75519252876E+02 -0.13425931282E+03 -0.19760551312E+03  0.28000296329E+03  0.12500000000E+03 0.  0.
         25    1    1    2    0    0 -0.72660493240E+02  0.48487301931E+02 -0.14149807291E+03  0.20803189747E+03  0.12500000000E+03 0.  0.
         25    1    1    2    0    0  0.14817974612E+03  0.85772010886E+02 -0.15171401764E+03  0.26068413484E+03  0.12500000000E+03 0.  0.
</event>
<event>
 5    0  0.5619558E-005  0.3582752E+03  0.7546771E-02  0.1059269E+00
         21   -1    0    0  502  501  0.00000000000E+00  0.00000000000E+00  0.33212133708E+03  0.33212133708E+03  0.00000000000E+00 0.  1.
         21   -1    0    0  501  502 -0.00000000000E+00 -0.00000000000E+00 -0.38648868017E+03  0.38648868017E+03  0.00000000000E+00 0.  1.
         25    1    1    2    0    0 -0.15548534231E+03 -0.19879675525E+03 -0.71058304957E+02  0.29046535814E+03  0.12500000000E+03 0.  0.
         25    1    1    2    0    0  0.19995313820E+03  0.15871576999E+03  0.41761168496E+02  0.28729940534E+03  0.12500000000E+03 0.  0.
         25    1    1    2    0    0 -0.44467795882E+02  0.40080985268E+02 -0.25070206630E+02  0.14084525378E+03  0.12500000000E+03 0.  0.
</event>
<event>
 5    0  0.6573557E-005  0.4845999E+03  0.7546771E-02  0.1017879E+00
         21   -1    0    0  502  501  0.00000000000E+00  0.00000000000E+00  0.49195158573E+03  0.49195158573E+03  0.00000000000E+00 0. -1.
         21   -1    0    0  501  502 -0.00000000000E+00 -0.00000000000E+00 -0.47735805033E+03  0.47735805033E+03  0.00000000000E+00 0. -1.
         25    1    1    2    0    0 -0.71106180664E+02 -0.72435283878E+02  0.22448442791E+03  0.27626295020E+03  0.12500000000E+03 0.  0.
         25    1    1    2    0    0 -0.24793389506E+03 -0.26707719278E+02 -0.18655135100E+03  0.33557551333E+03  0.12500000000E+03 0.  0.
         25    1    1    2    0    0  0.31904007572E+03  0.99143003157E+02 -0.23339541508E+02  0.35747117253E+03  0.12500000000E+03 0.  0.
</event>
<event>
 5    0  0.5619558E-005  0.3501459E+03  0.7546771E-02  0.1062555E+00
         21   -1    0    0  502  501  0.00000000000E+00  0.00000000000E+00  0.62787968295E+03  0.62787968295E+03  0.00000000000E+00 0.  1.
         21   -1    0    0  501  502 -0.00000000000E+00 -0.00000000000E+00 -0.19526381038E+03  0.19526381038E+03  0.00000000000E+00 0.  1.
         25    1    1    2    0    0  0.16970667458E+02 -0.14601559004E+02  0.86215576495E+01  0.12728134323E+03  0.12500000000E+03 0.  0.
         25    1    1    2    0    0  0.17745325750E+03  0.96853485375E+02  0.41255091975E+02  0.24124103888E+03  0.12500000000E+03 0.  0.
         25    1    1    2    0    0 -0.19442392495E+03 -0.82251926371E+02  0.38273922294E+03  0.45462111121E+03  0.12500000000E+03 0.  0.
</event>
<event>
 5    0  0.5619558E-005  0.4368444E+03  0.7546771E-02  0.1031719E+00
         21   -1    0    0  502  501  0.00000000000E+00  0.00000000000E+00  0.37542847549E+03  0.37542847549E+03  0.00000000000E+00 0. -1.
         21   -1    0    0  501  502 -0.00000000000E+00 -0.00000000000E+00 -0.50830735695E+03  0.50830735695E+03  0.00000000000E+00 0. -1.
         25    1    1    2    0    0  0.17463489540E+02  0.10625802779E+03  0.11707976791E+03  0.20230772104E+03  0.12500000000E+03 0.  0.
         25    1    1    2    0    0 -0.11550920242E+03 -0.32280189685E+03 -0.15646225407E+03  0.39705022025E+03  0.12500000000E+03 0.  0.
         25    1    1    2    0    0  0.98045712880E+02  0.21654386906E+03 -0.93496395301E+02  0.28437789115E+03  0.12500000000E+03 0.  0.
</event>
<event>
 5    0  0.5619558E-005  0.2520744E+03  0.7546771E-02  0.1112001E+00
         21   -1    0    0  502  501  0.00000000000E+00  0.00000000000E+00  0.23906268484E+03  0.23906268484E+03  0.00000000000E+00 0. -1.
         21   -1    0    0  501  502 -0.00000000000E+00 -0.00000000000E+00 -0.26579422073E+03  0.26579422073E+03  0.00000000000E+00 0. -1.
         25    1    1    2    0    0 -0.10051939782E+03  0.11289946396E+03 -0.53477720756E+02  0.20331085784E+03  0.12500000000E+03 0.  0.
         25    1    1    2    0    0  0.47530550575E+02 -0.22116196012E+02 -0.27746925847E+01  0.13557646655E+03  0.12500000000E+03 0.  0.
         25    1    1    2    0    0  0.52988847243E+02 -0.90783267946E+02  0.29520877447E+02  0.16596958118E+03  0.12500000000E+03 0.  0.
</event>
<event>
 5    0  0.5619558E-005  0.2454471E+03  0.7546771E-02  0.1116216E+00
         21   -1    0    0  502  501  0.00000000000E+00  0.00000000000E+00  0.39651808991E+03  0.39651808991E+03  0.00000000000E+00 0.  1.
         21   -1    0    0  501  502 -0.00000000000E+00 -0.00000000000E+00 -0.15193327361E+03  0.15193327361E+03  0.00000000000E+00 0.  1.
         25    1    1    2    0    0  0.65494362007E+02  0.66685008652E+02  0.11013925595E+03  0.19102894423E+03  0.12500000000E+03 0.  0.
         25    1    1    2    0    0 -0.11682282692E+03  0.13331901382E+01  0.30302754590E+02  0.17376020033E+03  0.12500000000E+03 0.  0.
         25    1    1    2    0    0  0.51328464908E+02 -0.68018198790E+02  0.10414280576E+03  0.18366221895E+03  0.12500000000E+03 0.  0.
</event>
<event>
 5    0  0.6150736E-005  0.2784105E+03  0.7546771E-02  0.1096560E+00
         21   -1    0    0  502  501  0.00000000000E+00  0.00000000000E+00  0.13973193713E+03  0.13973193713E+03  0.00000000000E+00 0.  1.
         21   -1    0    0  501  502 -0.00000000000E+00 -0.00000000000E+00 -0.55472216353E+03  0.55472216353E+03  0.00000000000E+00 0.  1.
         25    1    1    2    0    0  0.38075727056E+02  0.77502788464E+02 -0.77732223957E+02  0.17065679550E+03  0.12500000000E+03 0.  0.
         25    1    1    2    0    0 -0.14066150632E+03 -0.77443128782E+02 -0.29194016732E+03  0.35586115108E+03  0.12500000000E+03 0.  0.
         25    1    1    2    0    0  0.10258577926E+03 -0.59659682568E-01 -0.45317835124E+02  0.16793615408E+03  0.12500000000E+03 0.  0.
</event>
<event>
 5    0  0.7011719E-005  0.4508482E+03  0.7546771E-02  0.1027469E+00
         21   -1    0    0  502  501  0.00000000000E+00  0.00000000000E+00  0.34797963029E+03  0.34797963029E+03  0.00000000000E+00 0. -1.
         21   -1    0    0  501  502 -0.00000000000E+00 -0.00000000000E+00 -0.58412648819E+03  0.58412648819E+03  0.00000000000E+00 0. -1.
         25    1    1    2    0    0  0.17933771684E+03 -0.30054674160E+02 -0.29671236383E+03  0.36976820708E+03  0.12500000000E+03 0.  0.
         25    1    1    2    0    0 -0.22937899365E+03 -0.14669540244E+02 -0.15512426572E+03  0.30416846640E+03  0.12500000000E+03 0.  0.
         25    1    1    2    0    0  0.50041276810E+02  0.44724214404E+02  0.21568977165E+03  0.25816944500E+03  0.12500000000E+03 0.  0.
</event>
<event>
 5    0  0.5619558E-005  0.3288750E+03  0.7546771E-02  0.1071636E+00
         21   -1    0    0  502  501  0.00000000000E+00  0.00000000000E+00  0.15712874326E+04  0.15712874326E+04  0.00000000000E+00 0. -1.
         21   -1    0    0  501  502 -0.00000000000E+00 -0.00000000000E+00 -0.68834482908E+02  0.68834482908E+02  0.00000000000E+00 0. -1.
         25    1    1    2    0    0  0.73001143570E+02 -0.57818834968E+01  0.14415022491E+03  0.20436948031E+03  0.12500000000E+03 0.  0.
         25    1    1    2    0    0  0.10975248276E+03  0.34948652380E+02  0.23246916747E+03  0.28798251613E+03  0.12500000000E+03 0.  0.
         25    1    1    2    0    0 -0.18275362633E+03 -0.29166768883E+02  0.11258335573E+04  0.11477699191E+04  0.12500000000E+03 0.  0.
</event>
<event>
 5    0  0.5619558E-005  0.2786316E+03  0.7546771E-02  0.1096439E+00
         21   -1    0    0  502  501  0.00000000000E+00  0.00000000000E+00  0.11120818211E+04  0.11120818211E+04  0.00000000000E+00 0.  1.
         21   -1    0    0  501  502 -0.00000000000E+00 -0.00000000000E+00 -0.69811023000E+02  0.69811023000E+02  0.00000000000E+00 0.  1.
         25    1    1    2    0    0  0.12508154118E+03 -0.29377045684E+02  0.27462008460E+03  0.32794754706E+03  0.12500000000E+03 0.  0.
         25    1    1    2    0    0 -0.27985270959E+02  0.23394715069E+02  0.63239143061E+03  0.64565812130E+03  0.12500000000E+03 0.  0.
         25    1    1    2    0    0 -0.97096270223E+02  0.59823306156E+01  0.13525928288E+03  0.20828717574E+03  0.12500000000E+03 0.  0.
</event>
<event>
 5    0  0.5619558E-005  0.2714834E+03  0.7546771E-02  0.1100434E+00
         21   -1    0    0  502  501  0.00000000000E+00  0.00000000000E+00  0.67179765675E+02  0.67179765675E+02  0.00000000000E+00 0. -1.
         21   -1    0    0  501  502 -0.00000000000E+00 -0.00000000000E+00 -0.10971049570E+04  0.10971049570E+04  0.00000000000E+00 0. -1.
         25    1    1    2    0    0 -0.87074230360E+02  0.10524809522E+03 -0.31677482981E+03  0.36692012202E+03  0.12500000000E+03 0.  0.
         25    1    1    2    0    0 -0.39979161713E+02 -0.11857305646E+03 -0.38541871129E+03  0.42406424761E+03  0.12500000000E+03 0.  0.
         25    1    1    2    0    0  0.12705339207E+03  0.13324961233E+02 -0.32773165026E+03  0.37330035308E+03  0.12500000000E+03 0.  0.
</event>
<event>
 5    0  0.5619558E-005  0.4564954E+03  0.7546771E-02  0.1025803E+00
         21   -1    0    0  502  501  0.00000000000E+00  0.00000000000E+00  0.17793919237E+04  0.17793919237E+04  0.00000000000E+00 0.  1.
         21   -1    0    0  501  502 -0.00000000000E+00 -0.00000000000E+00 -0.11711196110E+03  0.11711196110E+03  0.00000000000E+00 0.  1.
         25    1    1    2    0    0 -0.30035845499E+03 -0.19822928880E+03  0.95945890763E+03  0.10323257470E+04  0.12500000000E+03 0.  0.
         25    1    1    2    0    0  0.79462486713E+02  0.51111778731E+02  0.45137839153E+03  0.47780137407E+03  0.12500000000E+03 0.  0.
         25    1    1    2    0    0  0.22089596828E+03  0.14711751007E+03  0.25144266340E+03  0.38637676373E+03  0.12500000000E+03 0.  0.
</event>
<event>
 5    0  0.5619558E-005  0.3091483E+03  0.7546771E-02  0.1080755E+00
         21   -1    0    0  502  501  0.00000000000E+00  0.00000000000E+00  0.29695208098E+03  0.29695208098E+03  0.00000000000E+00 0.  1.
         21   -1    0    0  501  502 -0.00000000000E+00 -0.00000000000E+00 -0.32184546749E+03  0.32184546749E+03  0.00000000000E+00 0.  1.
         25    1    1    2    0    0 -0.92960242528E+01  0.44047091712E+02  0.12314666824E+03  0.18115370339E+03  0.12500000000E+03 0.  0.
         25    1    1    2    0    0 -0.95777020478E+02 -0.27447003020E+02  0.61674275007E+02  0.17133386070E+03  0.12500000000E+03 0.  0.
         25    1    1    2    0    0  0.10507304473E+03 -0.16600088692E+02 -0.20971432976E+03  0.26630998438E+03  0.12500000000E+03 0.  0.
</event>
<event>
 5    0  0.5619558E-005  0.2644961E+03  0.7546771E-02  0.1104472E+00
         21   -1    0    0  502  501  0.00000000000E+00  0.00000000000E+00  0.12843894664E+04  0.12843894664E+04  0.00000000000E+00 0. -1.
         21   -1    0    0  501  502 -0.00000000000E+00 -0.00000000000E+00 -0.54468048305E+02  0.54468048305E+02  0.00000000000E+00 0. -1.
         25    1    1    2    0    0 -0.11935202169E+03  0.56739642178E+02  0.60490779178E+03  0.63166662776E+03  0.12500000000E+03 0.  0.
         25    1    1    2    0    0 -0.28116373292E+02  0.34102728786E+01  0.22914041853E+03  0.26254997965E+03  0.12500000000E+03 0.  0.
         25    1    1    2    0    0  0.14746839498E+03 -0.60149915056E+02  0.39587320781E+03  0.44464090732E+03  0.12500000000E+03 0.  0.
</event>
<event>
 5    0  0.5619558E-005  0.3584362E+03  0.7546771E-02  0.1059205E+00
         21   -1    0    0  502  501  0.00000000000E+00  0.00000000000E+00  0.67403277683E+03  0.67403277683E+03  0.00000000000E+00 0.  1.
         21   -1    0    0  501  502 -0.00000000000E+00 -0.00000000000E+00 -0.19060874666E+03  0.19060874666E+03  0.00000000000E+00 0.  1.
         25    1    1    2    0    0 -0.82468214885E+02  0.72994132976E+02  0.39500721035E+03  0.42870134842E+03  0.12500000000E+03 0.  0.
         25    1    1    2    0    0  0.18914554322E+03 -0.64156464718E+02 -0.23698692650E+02  0.23680945192E+03  0.12500000000E+03 0.  0.
         25    1    1    2    0    0 -0.10667732834E+03 -0.88376682572E+01  0.11211551248E+03  0.19913072314E+03  0.12500000000E+03 0.  0.
</event>
<event>
 5    0  0.5619558E-005  0.3580600E+03  0.7546771E-02  0.1059355E+00
         21   -1    0    0  502  501  0.00000000000E+00  0.00000000000E+00  0.94356255792E+02  0.94356255792E+02  0.00000000000E+00 0. -1.
         21   -1    0    0  501  502 -0.00000000000E+00 -0.00000000000E+00 -0.13587541727E+04  0.13587541727E+04  0.00000000000E+00 0. -1.
         25    1    1    2    0    0  0.15480321449E+03  0.20513627798E+03 -0.62054572525E+03  0.68318879154E+03  0.12500000000E+03 0.  0.
         25    1    1    2    0    0 -0.10492813351E+02 -0.12523955508E+03 -0.46044392406E+03  0.49338489285E+03  0.12500000000E+03 0.  0.
         25    1    1    2    0    0 -0.14431040114E+03 -0.79896722896E+02 -0.18340826755E+03  0.27653674405E+03  0.12500000000E+03 0.  0.
</event>
<event>
 5    0  0.6168314E-005  0.3295763E+03  0.7546771E-02  0.1071325E+00
         21   -1    0    0  502  501  0.00000000000E+00  0.00000000000E+00  0.14551273880E+03  0.14551273880E+03  0.00000000000E+00 0.  1.
         21   -1    0    0  501  502 -0.00000000000E+00 -0.00000000000E+00 -0.74646747360E+03  0.74646747360E+03  0.00000000000E+00 0.  1.
         25    1    1    2    0    0 -0.57239534455E+02  0.86268687703E+02 -0.43004507134E+03  0.45965466838E+03  0.12500000000E+03 0.  0.
         25    1    1    2    0    0  0.85738419835E+01  0.48940745255E+02  0.47392445204E+02  0.14261749954E+03  0.12500000000E+03 0.  0.
         25    1    1    2    0    0  0.48665692471E+02 -0.13520943296E+03 -0.21830210867E+03  0.28970804447E+03  0.12500000000E+03 0.  0.
</event>
<event>
 5    0  0.5619558E-005  0.2558513E+03  0.7546771E-02  0.1109662E+00
         21   -1    0    0  502  501  0.00000000000E+00  0.00000000000E+00  0.13448003155E+04  0.13448003155E+04  0.00000000000E+00 0.  1.
         21   -1    0    0  501  502 -0.00000000000E+00 -0.00000000000E+00 -0.48676299537E+02  0.48676299537E+02  0.00000000000E+00 0.  1.
         25    1    1    2    0    0 -0.15126540719E+02 -0.77979891206E+02  0.80588638846E+03  0.81938241790E+03  0.12500000000E+03 0.  0.
         25    1    1    2    0    0 -0.27948617200E+01  0.70846216269E+01  0.10809492386E+03  0.16543130199E+03  0.12500000000E+03 0.  0.
         25    1    1    2    0    0  0.17921402439E+02  0.70895269580E+02  0.38214270366E+03  0.40866289515E+03  0.12500000000E+03 0.  0.
</event>
<event>
 5    0  0.5619558E-005  0.2948752E+03  0.7546771E-02  0.1087831E+00
         21   -1    0    0  502  501  0.00000000000E+00  0.00000000000E+00  0.61030688717E+03  0.61030688717E+03  0.00000000000E+00 0.  1.
         21   -1    0    0  501  502 -0.00000000000E+00 -0.00000000000E+00 -0.14247158191E+03  0.14247158191E+03  0.00000000000E+00 0.  1.
         25    1    1    2    0    0 -0.54383345901E+02 -0.43457232682E+02  0.19557706171E+03  0.24232512550E+03  0.12500000000E+03 0.  0.
         25    1    1    2    0    0 -0.77369575650E+02  0.44887819969E+02  0.28974729726E+03  0.32799308512E+03  0.12500000000E+03 0.  0.
         25    1    1    2    0    0  0.13175292155E+03 -0.14305872866E+01 -0.17489053710E+02  0.18246025846E+03  0.12500000000E+03 0.  0.
</event>
<event>
 5    0  0.5619558E-005  0.3121579E+03  0.7546771E-02  0.1079316E+00
         21   -1    0    0  502  501  0.00000000000E+00  0.00000000000E+00  0.36405595209E+03  0.36405595209E+03  0.00000000000E+00 0.  1.
         21   -1    0    0  501  502 -0.00000000000E+00 -0.00000000000E+00 -0.26765813012E+03  0.26765813012E+03  0.00000000000E+00 0.  1.
         25    1    1    2    0    0  0.18653550739E+03 -0.69657714374E+02  0.95526004960E+02  0.25376743351E+03  0.12500000000E+03 0.  0.
         25    1    1    2    0    0 -0.98590426352E+02 -0.66915600153E+02 -0.69196527959E+01  0.17283127989E+03  0.12500000000E+03 0.  0.
         25    1    1    2    0    0 -0.87945081036E+02  0.13657331453E+03  0.77914698007E+01  0.20511536881E+03  0.12500000000E+03 0.  0.
</event>
<event>
 5    0  0.5619558E-005  0.2718241E+03  0.7546771E-02  0.1100240E+00
         21   -1    0    0  502  501  0.00000000000E+00  0.00000000000E+00  0.35056295761E+02  0.35056295761E+02  0.00000000000E+00 0.  1.
         21   -1    0    0  501  502 -0.00000000000E+00 -0.00000000000E+00 -0.21077054895E+04  0.21077054895E+04  0.00000000000E+00 0.  1.
         25    1    1    2    0    0 -0.93401593623E+02 -0.21026527517E+02 -0.43038701714E+03  0.45828370806E+03  0.12500000000E+03 0.  0.
         25    1    1    2    0    0  0.23907169851E+02 -0.87504414516E+02 -0.39094923255E+03  0.42035089837E+03  0.12500000000E+03 0.  0.
         25    1    1    2    0    0  0.69494423772E+02  0.10853094203E+03 -0.12513129441E+04  0.12641271788E+04  0.12500000000E+03 0.  0.
</event>
<event>
 5    0  0.5619558E-005  0.6467353E+03  0.7546771E-02  0.9812924E-01
         21   -1    0    0  502  501  0.00000000000E+00  0.00000000000E+00  0.80453639010E+03  0.80453639010E+03  0.00000000000E+00 0. -1.
         21   -1    0    0  501  502 -0.00000000000E+00 -0.00000000000E+00 -0.51988523624E+03  0.51988523624E+03  0.00000000000E+00 0. -1.
         25    1    1    2    0    0 -0.62426314024E+02 -0.16521271382E+03 -0.93179123104E+02  0.23558360400E+03  0.12500000000E+03 0.  0.
         25    1    1    2    0    0  0.24154183106E+03 -0.35637783398E+03  0.23240845150E+03  0.50496168670E+03  0.12500000000E+03 0.  0.
         25    1    1    2    0    0 -0.17911551704E+03  0.52159054780E+03  0.14542182546E+03  0.58387633564E+03  0.12500000000E+03 0.  0.
</event>
<event>
 5    0  0.5619558E-005  0.2891942E+03  0.7546771E-02  0.1090771E+00
         21   -1    0    0  502  501  0.00000000000E+00  0.00000000000E+00  0.11615790269E+03  0.11615790269E+03  0.00000000000E+00 0. -1.
         21   -1    0    0  501  502 -0.00000000000E+00 -0.00000000000E+00 -0.71999649360E+03  0.71999649360E+03  0.00000000000E+00 0. -1.
         25    1    1    2    0    0  0.96837116154E+02  0.54676291283E+02 -0.29592344315E+03  0.33994500747E+03  0.12500000000E+03 0.  0.
         25    1    1    2    0    0  0.49253272355E+02 -0.12398860363E+03 -0.12093277546E+03  0.21920035321E+03  0.12500000000E+03 0.  0.
         25    1    1    2    0    0 -0.14609038851E+03  0.69312312352E+02 -0.18698237230E+03  0.27700903561E+03  0.12500000000E+03 0.  0.
</event>
<event>
 5    0  0.5619558E-005  0.3574006E+03  0.7546771E-02  0.1059618E+00
         21   -1    0    0  502  501  0.00000000000E+00  0.00000000000E+00  0.11596138543E+04  0.11596138543E+04  0.00000000000E+00 0. -1.
         21   -1    0    0  501  502 -0.00000000000E+00 -0.00000000000E+00 -0.11015318557E+03  0.11015318557E+03  0.00000000000E+00 0. -1.
         25    1    1    2    0    0  0.94054380516E+02 -0.22001710425E+02  0.27853821352E+03  0.32021686113E+03  0.12500000000E+03 0.  0.
         25    1    1    2    0    0  0.81756269299E+02  0.21004290726E+03  0.27437835197E+03  0.37644467122E+03  0.12500000000E+03 0.  0.
         25    1    1    2    0    0 -0.17581064981E+03 -0.18804119683E+03  0.49654410327E+03  0.57310550755E+03  0.12500000000E+03 0.  0.
</event>
<event>
 5    0  0.5619558E-005  0.3612889E+03  0.7546771E-02  0.1058075E+00
         21   -1    0    0  502  501  0.00000000000E+00  0.00000000000E+00  0.16907419766E+03  0.16907419766E+03  0.00000000000E+00 0.  1.
         21   -1    0    0  501  502 -0.00000000000E+00 -0.00000000000E+00 -0.77202596567E+03  0.77202596567E+03  0.00000000000E+00 0.  1.
         25    1    1    2    0    0  0.13588746572E+02  0.15031416261E+03 -0.57827235369E+03  0.61057588927E+03  0.12500000000E+03 0.  0.
         25    1    1    2    0    0 -0.79837592128E+02 -0.10237287905E+03 -0.12301083090E+02  0.18063932054E+03  0.12500000000E+03 0.  0.
         25    1    1    2    0    0  0.66248845556E+02 -0.47941283563E+02 -0.12378331241E+02  0.14988495352E+03  0.12500000000E+03 0.  0.
</event>
<event>
 5    0  0.5625487E-005  0.3303921E+03  0.7546771E-02  0.1070963E+00
         21   -1    0    0  502  501  0.00000000000E+00  0.00000000000E+00  0.49210241809E+03  0.49210241809E+03  0.00000000000E+00 0.  1.
         21   -1    0    0  501  502 -0.00000000000E+00 -0.00000000000E+00 -0.22182162408E+03  0.22182162408E+03  0.00000000000E+00 0.  1.
         25    1    1    2    0    0 -0.91494594508E+02  0.23926895028E+03  0.15270129907E+03  0.32336292015E+03  0.12500000000E+03 0.  0.
         25    1    1    2    0    0  0.79377550994E+02 -0.12067392873E+03  0.10349834201E+03  0.21725537847E+03  0.12500000000E+03 0.  0.
         25    1    1    2    0    0  0.12117043514E+02 -0.11859502154E+03  0.14081152934E+02  0.17330574355E+03  0.12500000000E+03 0.  0.
</event>
<event>
 5    0  0.5619558E-005  0.2373672E+03  0.7546771E-02  0.1121559E+00
         21   -1    0    0  502  501  0.00000000000E+00  0.00000000000E+00  0.12175323544E+03  0.12175323544E+03  0.00000000000E+00 0. -1.
         21   -1    0    0  501  502 -0.00000000000E+00 -0.00000000000E+00 -0.46276542271E+03  0.46276542271E+03  0.00000000000E+00 0. -1.
         25    1    1    2    0    0  0.53973245816E+01 -0.39905421681E+02 -0.70485544686E+02  0.14904625390E+03  0.12500000000E+03 0.  0.
         25    1    1    2    0    0  0.12915361269E+02  0.28233646191E+02  0.83744516063E+01  0.12907004600E+03  0.12500000000E+03 0.  0.
         25    1    1    2    0    0 -0.18312685851E+02  0.11671775490E+02 -0.27890109418E+03  0.30640235825E+03  0.12500000000E+03 0.  0.
</event>
<event>
 5    0  0.5619558E-005  0.3921507E+03  0.7546771E-02  0.1046532E+00
         21   -1    0    0  502  501  0.00000000000E+00  0.00000000000E+00  0.93783425501E+02  0.93783425501E+02  0.00000000000E+00 0. -1.
         21   -1    0    0  501  502 -0.00000000000E+00 -0.00000000000E+00 -0.16397582298E+04  0.16397582298E+04  0.00000000000E+00 0. -1.
         25    1    1    2    0    0  0.11791338180E+02 -0.13537593261E+03 -0.14899793159E+03  0.23725737587E+03  0.12500000000E+03 0.  0.
         25    1    1    2    0    0 -0.37723798205E+02  0.19985638709E+03 -0.27055691942E+03  0.36082087947E+03  0.12500000000E+03 0.  0.
         25    1    1    2    0    0  0.25932460025E+02 -0.64480454475E+02 -0.11264199533E+04  0.11354634000E+04  0.12500000000E+03 0.  0.
</event>
<event>
 5    0  0.5619558E-005  0.3722256E+03  0.7546771E-02  0.1053845E+00
         21   -1    0    0  502  501  0.00000000000E+00  0.00000000000E+00  0.25381567628E+04  0.25381567628E+04  0.00000000000E+00 0.  1.
         21   -1    0    0  501  502 -0.00000000000E+00 -0.00000000000E+00 -0.54587600537E+02  0.54587600537E+02  0.00000000000E+00 0.  1.
         25    1    1    2    0    0  0.67490103099E+02 -0.22009211180E+03  0.39870741692E+03  0.47706189955E+03  0.12500000000E+03 0.  0.
         25    1    1    2    0    0 -0.62319845033E+02  0.69584379760E+02  0.11512152712E+04  0.11617432374E+04  0.12500000000E+03 0.  0.
         25    1    1    2    0    0 -0.51702580659E+01  0.15050773204E+03  0.93364647421E+03  0.95393922646E+03  0.12500000000E+03 0.  0.
</event>
<event>
 5    0  0.5701969E-005  0.3735556E+03  0.7546771E-02  0.1053342E+00
         21   -1    0    0  502  501  0.00000000000E+00  0.00000000000E+00  0.70002023813E+03  0.70002023813E+03  0.00000000000E+00 0.  1.
         21   -1    0    0  501  502 -0.00000000000E+00 -0.00000000000E+00 -0.19934252181E+03  0.19934252181E+03  0.00000000000E+00 0.  1.
         25    1    1    2    0    0  0.71580783977E+02 -0.14434214721E+02 -0.23589074912E+02  0.14667515006E+03  0.12500000000E+03 0.  0.
         25    1    1    2    0    0 -0.10521773608E+01 -0.11575646041E+03  0.53214499949E+03  0.55875215049E+03  0.12500000000E+03 0.  0.
         25    1    1    2    0    0 -0.70528606616E+02  0.13019067514E+03 -0.78782082473E+01  0.19393545939E+03  0.12500000000E+03 0.  0.
</event>
<event>
 5    0  0.5619558E-005  0.2462202E+03  0.7546771E-02  0.1115717E+00
         21   -1    0    0  502  501  0.00000000000E+00  0.00000000000E+00  0.85213531705E+03  0.85213531705E+03  0.00000000000E+00 0. -1.
         21   -1    0    0  501  502 -0.00000000000E+00 -0.00000000000E+00 -0.71144073471E+02  0.71144073471E+02  0.00000000000E+00 0. -1.
         25    1    1    2    0    0  0.61332637775E+02 -0.12780717458E+03  0.38722059322E+03  0.43088415397E+03  0.12500000000E+03 0.  0.
         25    1    1    2    0    0 -0.65526806403E+01  0.33426234899E+02  0.18020792818E+03  0.22194627319E+03  0.12500000000E+03 0.  0.
         25    1    1    2    0    0 -0.54779957135E+02  0.94380939681E+02  0.21356272218E+03  0.27044896336E+03  0.12500000000E+03 0.  0.
</event>
<event>
 5    0  0.5619558E-005  0.2631696E+03  0.7546771E-02  0.1105254E+00
         21   -1    0    0  502  501  0.00000000000E+00  0.00000000000E+00  0.11869759906E+03  0.11869759906E+03  0.00000000000E+00 0. -1.
         21   -1    0    0  501  502 -0.00000000000E+00 -0.00000000000E+00 -0.58348477197E+03  0.58348477197E+03  0.00000000000E+00 0. -1.
         25    1    1    2    0    0 -0.14561465041E+03  0.19651609313E+02 -0.22567603843E+03  0.29689137152E+03  0.12500000000E+03 0.  0.
         25    1    1    2    0    0  0.80316334351E+02 -0.59080378722E+02 -0.52941405702E+02  0.16843098632E+03  0.12500000000E+03 0.  0.
         25    1    1    2    0    0  0.65298316060E+02  0.39428769409E+02 -0.18616972878E+03  0.23686001319E+03  0.12500000000E+03 0.  0.
</event>
<event>
 5    0  0.5619558E-005  0.4752635E+03  0.7546771E-02  0.1020445E+00
         21   -1    0    0  502  501  0.00000000000E+00  0.00000000000E+00  0.12245008681E+04  0.12245008681E+04  0.00000000000E+00 0. -1.
         21   -1    0    0  501  502 -0.00000000000E+00 -0.00000000000E+00 -0.18446327578E+03  0.18446327578E+03  0.00000000000E+00 0. -1.
         25    1    1    2    0    0  0.73270917922E+02  0.40265275519E+03  0.32970005964E+03  0.54020829131E+03  0.12500000000E+03 0.  0.
         25    1    1    2    0    0 -0.10397319611E+03 -0.17704573806E+03  0.34682533262E+03  0.42198155199E+03  0.12500000000E+03 0.  0.
         25    1    1    2    0    0  0.30702278192E+02 -0.22560701712E+03  0.36351220008E+03  0.44677430059E+03  0.12500000000E+03 0.  0.
</event>
<event>
 5    0  0.5619558E-005  0.5058171E+03  0.7546771E-02  0.1012272E+00
         21   -1    0    0  502  501  0.00000000000E+00  0.00000000000E+00  0.41968527298E+03  0.41968527298E+03  0.00000000000E+00 0.  1.
         21   -1    0    0  501  502 -0.00000000000E+00 -0.00000000000E+00 -0.60962570969E+03  0.60962570969E+03  0.00000000000E+00 0.  1.
         25    1    1    2    0    0 -0.16378745264E+03 -0.37622868499E+03 -0.13471560894E+03  0.44960832771E+03  0.12500000000E+03 0.  0.
         25    1    1    2    0    0 -0.41768223527E+02  0.29493268953E+03 -0.35795316177E+02  0.32501720033E+03  0.12500000000E+03 0.  0.
         25    1    1    2    0    0  0.20555567617E+03  0.81295995461E+02 -0.19429511595E+02  0.25468545464E+03  0.12500000000E+03 0.  0.
</event>
<event>
 5    0  0.5619558E-005  0.2905222E+03  0.7546771E-02  0.1090077E+00
         21   -1    0    0  502  501  0.00000000000E+00  0.00000000000E+00  0.14174348421E+04  0.14174348421E+04  0.00000000000E+00 0.  1.
         21   -1    0    0  501  502 -0.00000000000E+00 -0.00000000000E+00 -0.59546391998E+02  0.59546391998E+02  0.00000000000E+00 0.  1.
         25    1    1    2    0    0  0.12852866196E+03  0.12787286279E+02  0.82209044326E+03  0.84151103887E+03  0.12500000000E+03 0.  0.
         25    1    1    2    0    0 -0.49174538710E+02  0.66366881116E+02  0.13800470114E+03  0.20369829578E+03  0.12500000000E+03 0.  0.
         25    1    1    2    0    0 -0.79354123251E+02 -0.79154167395E+02  0.39779330568E+03  0.43177189943E+03  0.12500000000E+03 0.  0.
</event>
<event>
 5    0  0.5619558E-005  0.2475681E+03  0.7546771E-02  0.1114851E+00
         21   -1    0    0  502  501  0.00000000000E+00  0.00000000000E+00  0.41024329215E+03  0.41024329215E+03  0.00000000000E+00 0. -1.
         21   -1    0    0  501  502 -0.00000000000E+00 -0.00000000000E+00 -0.14939908498E+03  0.14939908498E+03  0.00000000000E+00 0. -1.
         25    1    1    2    0    0  0.98466031494E+02 -0.97801192001E+01  0.20278591025E+02  0.16070915140E+03  0.12500000000E+03 0.  0.
         25    1    1    2    0    0 -0.43252899615E+02  0.81300123664E+02  0.16709466921E+03  0.22809241967E+03  0.12500000000E+03 0.  0.
         25    1    1    2    0    0 -0.55213131879E+02 -0.71520004464E+02  0.73470946940E+02  0.17084080606E+03  0.12500000000E+03 0.  0.
</event>
<event>
 5    0  0.5619558E-005  0.3216870E+03  0.7546771E-02  0.1074876E+00
         21   -1    0    0  502  501  0.00000000000E+00  0.00000000000E+00  0.62935895156E+03  0.62935895156E+03  0.00000000000E+00 0.  1.
         21   -1    0    0  501  502 -0.00000000000E+00 -0.00000000000E+00 -0.16442528535E+03  0.16442528535E+03  0.00000000000E+00 0.  1.
         25    1    1    2    0    0 -0.18784794724E+03 -0.25715831237E+02  0.12565798196E+03  0.25954399182E+03  0.12500000000E+03 0.  0.
         25    1    1    2    0    0  0.18670976893E+03 -0.28550090311E+01  0.33815341683E+03  0.40600667753E+03  0.12500000000E+03 0.  0.
         25    1    1    2    0    0  0.11381783118E+01  0.28570840268E+02  0.11222674133E+01  0.12823356755E+03  0.12500000000E+03 0.  0.
</event>
<event>
 5    0  0.5619558E-005  0.2337698E+03  0.7546771E-02  0.1124014E+00
         21   -1    0    0  502  501  0.00000000000E+00  0.00000000000E+00  0.30597606423E+04  0.30597606423E+04  0.00000000000E+00 0.  1.
         21   -1    0    0  501  502 -0.00000000000E+00 -0.00000000000E+00 -0.17860332441E+02  0.17860332441E+02  0.00000000000E+00 0.  1.
         25    1    1    2    0    0  0.10137687023E+03  0.17272154173E+02  0.13113416624E+04  0.13212938934E+04  0.12500000000E+03 0.  0.
         25    1    1    2    0    0 -0.10638326906E+03 -0.12444849725E+02  0.75289621155E+03  0.77068150333E+03  0.12500000000E+03 0.  0.
         25    1    1    2    0    0  0.50063988375E+01 -0.48273044477E+01  0.97766243596E+03  0.98564557808E+03  0.12500000000E+03 0.  0.
</event>
<event>
 5    0  0.5619558E-005  0.2816497E+03  0.7546771E-02  0.1094791E+00
         21   -1    0    0  502  501  0.00000000000E+00  0.00000000000E+00  0.86420776253E+02  0.86420776253E+02  0.00000000000E+00 0. -1.
         21   -1    0    0  501  502 -0.00000000000E+00 -0.00000000000E+00 -0.91791038866E+03  0.91791038866E+03  0.00000000000E+00 0. -1.
         25    1    1    2    0    0 -0.77104514972E+02 -0.25399409010E+02 -0.19055854699E+02  0.15026097898E+03  0.12500000000E+03 0.  0.
         25    1    1    2    0    0  0.37689578248E+02  0.20069432874E+02 -0.39334461692E+03  0.41493164992E+03  0.12500000000E+03 0.  0.
         25    1    1    2    0    0  0.39414936724E+02  0.53299761355E+01 -0.41908914079E+03  0.43913853601E+03  0.12500000000E+03 0.  0.
</event>
<event>
 5    0  0.5619558E-005  0.3053590E+03  0.7546771E-02  0.1082592E+00
         21   -1    0    0  502  501  0.00000000000E+00  0.00000000000E+00  0.55625975881E+02  0.55625975881E+02  0.00000000000E+00 0.  1.
         21   -1    0    0  501  502 -0.00000000000E+00 -0.00000000000E+00 -0.16762697030E+04  0.16762697030E+04  0.00000000000E+00 0.  1.
         25    1    1    2    0    0 -0.22698985766E+02  0.14202312231E+03 -0.27520266926E+03  0.33473470151E+03  0.12500000000E+03 0.  0.
         25    1    1    2    0    0 -0.44195330787E+02 -0.18530491794E+03 -0.77812957899E+03  0.81080317068E+03  0.12500000000E+03 0.  0.
         25    1    1    2    0    0  0.66894316553E+02  0.43281795627E+02 -0.56731147891E+03  0.58635780674E+03  0.12500000000E+03 0.  0.
</event>
<event>
 5    0  0.5619558E-005  0.2574984E+03  0.7546771E-02  0.1108656E+00
         21   -1    0    0  502  501  0.00000000000E+00  0.00000000000E+00  0.63310151349E+02  0.63310151349E+02  0.00000000000E+00 0.  1.
         21   -1    0    0  501  502 -0.00000000000E+00 -0.00000000000E+00 -0.10473112396E+04  0.10473112396E+04  0.00000000000E+00 0.  1.
         25    1    1    2    0    0  0.65164399477E+02 -0.93524789552E+02 -0.60747499524E+03  0.63059032268E+03  0.12500000000E+03 0.  0.
         25    1    1    2    0    0 -0.23120387355E+02  0.84579493131E+02 -0.27033803625E+03  0.31047688612E+03  0.12500000000E+03 0.  0.
         25    1    1    2    0    0 -0.42044012123E+02  0.89452964206E+01 -0.10618805675E+03  0.16955418214E+03  0.12500000000E+03 0.  0.
</event>
<event>
 5    0  0.5619558E-005  0.3587991E+03  0.7546771E-02  0.1059060E+00
         21   -1    0    0  502  501  0.00000000000E+00  0.00000000000E+00  0.61418803527E+02  0.61418803527E+02  0.00000000000E+00 0. -1.
         21   -1    0    0  501  502 -0.00000000000E+00 -0.00000000000E+00 -0.20960480146E+04  0.20960480146E+04  0.00000000000E+00 0. -1.
         25    1    1    2    0    0 -0.85871492612E+02  0.18338635703E+03 -0.79223538819E+03  0.82720395277E+03  0.12500000000E+03 0.  0.
         25    1    1    2    0    0  0.50787342517E+02  0.89253928470E+02 -0.58269412012E+03  0.60473387165E+03  0.12500000000E+03 0.  0.
         25    1    1    2    0    0  0.35084150095E+02 -0.27264028550E+03 -0.65969970279E+03  0.72552899372E+03  0.12500000000E+03 0.  0.
</event>
<event>
 5    0  0.5619558E-005  0.4941490E+03  0.7546771E-02  0.1015318E+00
         21   -1    0    0  502  501  0.00000000000E+00  0.00000000000E+00  0.65801152465E+03  0.65801152465E+03  0.00000000000E+00 0. -1.
         21   -1    0    0  501  502 -0.00000000000E+00 -0.00000000000E+00 -0.37109257450E+03  0.37109257450E+03  0.00000000000E+00 0. -1.
         25    1    1    2    0    0 -0.28854638087E+02  0.22469149390E+01 -0.90030265391E+01  0.12862228910E+03  0.12500000000E+03 0.  0.
         25    1    1    2    0    0  0.33980593713E+03  0.47118149760E+02 -0.10083029967E+03  0.37878746584E+03  0.12500000000E+03 0.  0.
         25    1    1    2    0    0 -0.31095129904E+03 -0.49365064699E+02  0.39675227635E+03  0.52169434421E+03  0.12500000000E+03 0.  0.
</event>
<event>
 5    0  0.5619558E-005  0.3550005E+03  0.7546771E-02  0.1060581E+00
         21   -1    0    0  502  501  0.00000000000E+00  0.00000000000E+00  0.23612028393E+03  0.23612028393E+03  0.00000000000E+00 0.  1.
         21   -1    0    0  501  502 -0.00000000000E+00 -0.00000000000E+00 -0.53373365316E+03  0.53373365316E+03  0.00000000000E+00 0.  1.
         25    1    1    2    0    0  0.56285508827E+02  0.12148975852E+03  0.14497903770E+02  0.18374713370E+03  0.12500000000E+03 0.  0.
         25    1    1    2    0    0  0.26511007086E+02  0.13845479157E+03 -0.71679246054E+02  0.20158243257E+03  0.12500000000E+03 0.  0.
         25    1    1    2    0    0 -0.82796515913E+02 -0.25994455009E+03 -0.24043202695E+03  0.38452437082E+03  0.12500000000E+03 0.  0.
</event>
<event>
 5    0  0.6139052E-005  0.2846103E+03  0.7546771E-02  0.1093197E+00
         21   -1    0    0  502  501  0.00000000000E+00  0.00000000000E+00  0.34968188566E+03  0.34968188566E+03  0.00000000000E+00 0.  1.
         21   -1    0    0  501  502 -0.00000000000E+00 -0.00000000000E+00 -0.23164779736E+03  0.23164779736E+03  0.00000000000E+00 0.  1.
         25    1    1    2    0    0 -0.85868312562E+00 -0.13726234097E+03  0.44750988936E+02  0.19096947032E+03  0.12500000000E+03 0.  0.
         25    1    1    2    0    0 -0.81806980505E+02 -0.59190211970E+01 -0.39169162947E+02  0.15455303361E+03  0.12500000000E+03 0.  0.
         25    1    1    2    0    0  0.82665663631E+02  0.14318136216E+03  0.11245226231E+03  0.23580717910E+03  0.12500000000E+03 0.  0.
</event>
<event>
 5    0  0.5619558E-005  0.2716019E+03  0.7546771E-02  0.1100366E+00
         21   -1    0    0  502  501  0.00000000000E+00  0.00000000000E+00  0.91599585099E+03  0.91599585099E+03  0.00000000000E+00 0. -1.
         21   -1    0    0  501  502 -0.00000000000E+00 -0.00000000000E+00 -0.80532648502E+02  0.80532648502E+02  0.00000000000E+00 0. -1.
         25    1    1    2    0    0 -0.76465258577E+02  0.34348738411E+02  0.32366639043E+03  0.35694776073E+03  0.12500000000E+03 0.  0.
         25    1    1    2    0    0  0.33918876985E+02 -0.15074661308E+03  0.33871439907E+03  0.39271806135E+03  0.12500000000E+03 0.  0.
         25    1    1    2    0    0  0.42546381592E+02  0.11639787466E+03  0.17308241299E+03  0.24686267741E+03  0.12500000000E+03 0.  0.
</event>
<event>
 5    0  0.5619558E-005  0.2714206E+03  0.7546771E-02  0.1100469E+00
         21   -1    0    0  502  501  0.00000000000E+00  0.00000000000E+00  0.79746559023E+02  0.79746559023E+02  0.00000000000E+00 0.  1.
         21   -1    0    0  501  502 -0.00000000000E+00 -0.00000000000E+00 -0.92379113851E+03  0.92379113851E+03  0.00000000000E+00 0.  1.
         25    1    1    2    0    0 -0.11818616291E+03  0.93759751307E+02 -0.51878360958E+03  0.55454512318E+03  0.12500000000E+03 0.  0.
         25    1    1    2    0    0  0.18211256882E+02 -0.76392543613E+02 -0.17262266347E+03  0.22713664288E+03  0.12500000000E+03 0.  0.
         25    1    1    2    0    0  0.99974906029E+02 -0.17367207694E+02 -0.15263830644E+03  0.22185593148E+03  0.12500000000E+03 0.  0.
</event>
<event>
 5    0  0.5619558E-005  0.3887833E+03  0.7546771E-02  0.1047734E+00
         21   -1    0    0  502  501  0.00000000000E+00  0.00000000000E+00  0.66347459715E+03  0.66347459715E+03  0.00000000000E+00 0.  1.
         21   -1    0    0  501  502 -0.00000000000E+00 -0.00000000000E+00 -0.22781946978E+03  0.22781946978E+03  0.00000000000E+00 0.  1.
         25    1    1    2    0    0  0.25601663909E+03 -0.83268868446E+02  0.11991290450E+03  0.32012861261E+03  0.12500000000E+03 0.  0.
         25    1    1    2    0    0  0.62693957912E+01  0.12655681245E+03  0.15657939056E+03  0.23706125295E+03  0.12500000000E+03 0.  0.
         25    1    1    2    0    0 -0.26228603488E+03 -0.43287944008E+02  0.15916283230E+03  0.33410420138E+03  0.12500000000E+03 0.  0.
</event>
<event>
 5    0  0.5909179E-005  0.4737266E+03  0.7546771E-02  0.1020874E+00
         21   -1    0    0  502  501  0.00000000000E+00  0.00000000000E+00  0.50729667528E+03  0.50729667528E+03  0.00000000000E+00 0.  1.
         21   -1    0    0  501  502 -0.00000000000E+00 -0.00000000000E+00 -0.44237806220E+03  0.44237806220E+03  0.00000000000E+00 0.  1.
         25    1    1    2    0    0 -0.66770530282E+02 -0.16211458109E+03 -0.15411342847E+03  0.26479310782E+03  0.12500000000E+03 0.  0.
         25    1    1    2    0    0  0.28270288044E+03 -0.53437479853E+02  0.15132641578E+03  0.34828317068E+03  0.12500000000E+03 0.  0.
         25    1    1    2    0    0 -0.21593235016E+03  0.21555206094E+03  0.67705625778E+02  0.33659845897E+03  0.12500000000E+03 0.  0.
</event>
<event>
 5    0  0.5619558E-005  0.2310097E+03  0.7546771E-02  0.1125931E+00
         21   -1    0    0  502  501  0.00000000000E+00  0.00000000000E+00  0.12164830820E+04  0.12164830820E+04  0.00000000000E+00 0.  1.
         21   -1    0    0  501  502 -0.00000000000E+00 -0.00000000000E+00 -0.43868674515E+02  0.43868674515E+02  0.00000000000E+00 0.  1.
         25    1    1    2    0    0 -0.13502542164E+02 -0.40449877638E+02  0.38536903788E+03  0.40737305581E+03  0.12500000000E+03 0.  0.
         25    1    1    2    0    0 -0.48360230293E+02 -0.33842092236E+02  0.55579524301E+03  0.57272799062E+03  0.12500000000E+03 0.  0.
         25    1    1    2    0    0  0.61862772457E+02  0.74291969874E+02  0.23145012660E+03  0.28025071009E+03  0.12500000000E+03 0.  0.
</event>
<event>
 5    0  0.5619558E-005  0.3275979E+03  0.7546771E-02  0.1072205E+00
         21   -1    0    0  502  501  0.00000000000E+00  0.00000000000E+00  0.54265367680E+03  0.54265367680E+03  0.00000000000E+00 0.  1.
         21   -1    0    0  501  502 -0.00000000000E+00 -0.00000000000E+00 -0.19776960616E+03  0.19776960616E+03  0.00000000000E+00 0.  1.
         25    1    1    2    0    0  0.26068540616E+02  0.10747395775E+03 -0.93953750618E+02  0.19152683274E+03  0.12500000000E+03 0.  0.
         25    1    1    2    0    0 -0.61976974682E+02 -0.13710303189E+03  0.27843983675E+03  0.34028242598E+03  0.12500000000E+03 0.  0.
         25    1    1    2    0    0  0.35908434066E+02  0.29629074134E+02  0.16039798452E+03  0.20861402424E+03  0.12500000000E+03 0.  0.
</event>
<event>
 5    0  0.5619558E-005  0.2953711E+03  0.7546771E-02  0.1087578E+00
         21   -1    0    0  502  501  0.00000000000E+00  0.00000000000E+00  0.86168190421E+02  0.86168190421E+02  0.00000000000E+00 0.  1.
         21   -1    0    0  501  502 -0.00000000000E+00 -0.00000000000E+00 -0.10124860447E+04  0.10124860447E+04  0.00000000000E+00 0.  1.
         25    1    1    2    0    0  0.25477708774E+02  0.97701462884E+02 -0.40197521346E+02  0.16563674175E+03  0.12500000000E+03 0.  0.
         25    1    1    2    0    0 -0.65791916683E+02 -0.43517817950E+02 -0.39459474307E+03  0.42136965723E+03  0.12500000000E+03 0.  0.
         25    1    1    2    0    0  0.40314207909E+02 -0.54183644934E+02 -0.49152558991E+03  0.51164783618E+03  0.12500000000E+03 0.  0.
</event>
<event>
 5    0  0.6128117E-005  0.3476158E+03  0.7546771E-02  0.1063598E+00
         21   -1    0    0  502  501  0.00000000000E+00  0.00000000000E+00  0.55447743275E+03  0.55447743275E+03  0.00000000000E+00 0. -1.
         21   -1    0    0  501  502 -0.00000000000E+00 -0.00000000000E+00 -0.21792901248E+03  0.21792901248E+03  0.00000000000E+00 0. -1.
         25    1    1    2    0    0 -0.19429539989E+03 -0.15494879072E+03  0.17335904420E+03  0.32777765081E+03  0.12500000000E+03 0.  0.
         25    1    1    2    0    0  0.19053853575E+03  0.66658055036E+02  0.16900145401E+03  0.29143562131E+03  0.12500000000E+03 0.  0.
         25    1    1    2    0    0  0.37568641365E+01  0.88290735681E+02 -0.58120779489E+01  0.15319317310E+03  0.12500000000E+03 0.  0.
</event>
<event>
 5    0  0.5619558E-005  0.2624721E+03  0.7546771E-02  0.1105667E+00
         21   -1    0    0  502  501  0.00000000000E+00  0.00000000000E+00  0.44653248030E+03  0.44653248030E+03  0.00000000000E+00 0.  1.
         21   -1    0    0  501  502 -0.00000000000E+00 -0.00000000000E+00 -0.15428124362E+03  0.15428124362E+03  0.00000000000E+00 0.  1.
         25    1    1    2    0    0 -0.71062438035E+02  0.87931947187E+02  0.22512096275E+03  0.28122294591E+03  0.12500000000E+03 0.  0.
         25    1    1    2    0    0 -0.38450643477E+02 -0.59523717566E+02  0.25571198790E+02  0.14594660374E+03  0.12500000000E+03 0.  0.
         25    1    1    2    0    0  0.10951308151E+03 -0.28408229621E+02  0.41559075139E+02  0.17364417427E+03  0.12500000000E+03 0.  0.
</event>
<event>
 5    0  0.5619558E-005  0.2652501E+03  0.7546771E-02  0.1104029E+00
         21   -1    0    0  502  501  0.00000000000E+00  0.00000000000E+00  0.11894968898E+03  0.11894968898E+03  0.00000000000E+00 0. -1.
         21   -1    0    0  501  502 -0.00000000000E+00 -0.00000000000E+00 -0.59149049406E+03  0.59149049406E+03  0.00000000000E+00 0. -1.
         25    1    1    2    0    0 -0.39675741768E+02  0.53030190500E+02 -0.32398047354E+03  0.35351762731E+03  0.12500000000E+03 0.  0.
         25    1    1    2    0    0 -0.71864042865E+02 -0.49665876545E+02 -0.41384333735E+02  0.15801519873E+03  0.12500000000E+03 0.  0.
         25    1    1    2    0    0  0.11153978463E+03 -0.33643139547E+01 -0.10717599781E+03  0.19890735701E+03  0.12500000000E+03 0.  0.
</event>
<event>
 5    0  0.5619558E-005  0.2407915E+03  0.7546771E-02  0.1119267E+00
         21   -1    0    0  502  501  0.00000000000E+00  0.00000000000E+00  0.21665366441E+03  0.21665366441E+03  0.00000000000E+00 0. -1.
         21   -1    0    0  501  502 -0.00000000000E+00 -0.00000000000E+00 -0.26761862792E+03  0.26761862792E+03  0.00000000000E+00 0. -1.
         25    1    1    2    0    0 -0.70047715125E+01  0.12213022929E+03 -0.88199533474E+02  0.19588010985E+03  0.12500000000E+03 0.  0.
         25    1    1    2    0    0  0.11219331927E+02 -0.95400074280E+02  0.28481255666E+02  0.16019747035E+03  0.12500000000E+03 0.  0.
         25    1    1    2    0    0 -0.42145604148E+01 -0.26730155008E+02  0.87533142985E+01  0.12819471213E+03  0.12500000000E+03 0.  0.
</event>
<event>
 5    0  0.5619558E-005  0.3311769E+03  0.7546771E-02  0.1070617E+00
         21   -1    0    0  502  501  0.00000000000E+00  0.00000000000E+00  0.10213362266E+03  0.10213362266E+03  0.00000000000E+00 0.  1.
         21   -1    0    0  501  502 -0.00000000000E+00 -0.00000000000E+00 -0.10738693844E+04  0.10738693844E+04  0.00000000000E+00 0.  1.
         25    1    1    2    0    0 -0.90167242919E+02 -0.12869903198E+03 -0.14758992282E+03  0.24920144030E+03  0.12500000000E+03 0.  0.
         25    1    1    2    0    0 -0.31717008777E+01  0.17062472731E+03 -0.23624522536E+03  0.31711143745E+03  0.12500000000E+03 0.  0.
         25    1    1    2    0    0  0.93338943797E+02 -0.41925695331E+02 -0.58790061360E+03  0.60969012935E+03  0.12500000000E+03 0.  0.
</event>
<event>
 5    0  0.5619558E-005  0.2703731E+03  0.7546771E-02  0.1101066E+00
         21   -1    0    0  502  501  0.00000000000E+00  0.00000000000E+00  0.10988741250E+04  0.10988741250E+04  0.00000000000E+00 0. -1.
         21   -1    0    0  501  502 -0.00000000000E+00 -0.00000000000E+00 -0.66524089008E+02  0.66524089008E+02  0.00000000000E+00 0. -1.
         25    1    1    2    0    0 -0.65168384145E+02 -0.49750603657E+02  0.68976105327E+03  0.70577429215E+03  0.12500000000E+03 0.  0.
         25    1    1    2    0    0  0.10918289440E+03  0.50038166069E+02  0.20757029002E+03  0.27043510829E+03  0.12500000000E+03 0.  0.
         25    1    1    2    0    0 -0.44014510259E+02 -0.28756241193E+00  0.13501869274E+03  0.18918881361E+03  0.12500000000E+03 0.  0.
</event>
<event>
 5    0  0.5619558E-005  0.3557302E+03  0.7546771E-02  0.1060287E+00
         21   -1    0    0  502  501  0.00000000000E+00  0.00000000000E+00  0.49576024793E+03  0.49576024793E+03  0.00000000000E+00 0.  1.
         21   -1    0    0  501  502 -0.00000000000E+00 -0.00000000000E+00 -0.25525234441E+03  0.25525234441E+03  0.00000000000E+00 0.  1.
         25    1    1    2    0    0 -0.10132809753E+03 -0.93612819232E+02  0.35377031752E+03  0.39976140488E+03  0.12500000000E+03 0.  0.
         25    1    1    2    0    0  0.14865120560E+02  0.69732531246E+02  0.22999656142E+02  0.14573119744E+03  0.12500000000E+03 0.  0.
         25    1    1    2    0    0  0.86462976966E+02  0.23880287985E+02 -0.13626207014E+03  0.20551999002E+03  0.12500000000E+03 0.  0.
</event>
<event>
 5    0  0.5619558E-005  0.2238206E+03  0.7546771E-02  0.1131066E+00
         21   -1    0    0  502  501  0.00000000000E+00  0.00000000000E+00  0.17686384804E+03  0.17686384804E+03  0.00000000000E+00 0.  1.
         21   -1    0    0  501  502 -0.00000000000E+00 -0.00000000000E+00 -0.28324411699E+03  0.28324411699E+03  0.00000000000E+00 0.  1.
         25    1    1    2    0    0 -0.49352385267E+02 -0.59375931415E+02 -0.50017259681E+02  0.15520272365E+03  0.12500000000E+03 0.  0.
         25    1    1    2    0    0  0.31879107410E+02  0.39057941043E+02  0.44635080807E+02  0.14198271263E+03  0.12500000000E+03 0.  0.
         25    1    1    2    0    0  0.17473277856E+02  0.20317990372E+02 -0.10099809008E+03  0.16292252874E+03  0.12500000000E+03 0.  0.
</event>
<event>
 5    0  0.5619558E-005  0.2689862E+03  0.7546771E-02  0.1101861E+00
         21   -1    0    0  502  501  0.00000000000E+00  0.00000000000E+00  0.34030340309E+03  0.34030340309E+03  0.00000000000E+00 0. -1.
         21   -1    0    0  501  502 -0.00000000000E+00 -0.00000000000E+00 -0.21261495087E+03  0.21261495087E+03  0.00000000000E+00 0. -1.
         25    1    1    2    0    0 -0.19136356622E+02 -0.16878793621E+02  0.40305812330E+02  0.13379331944E+03  0.12500000000E+03 0.  0.
         25    1    1    2    0    0 -0.44816014258E+02  0.13764802672E+03 -0.38623848268E+02  0.19512113173E+03  0.12500000000E+03 0.  0.
         25    1    1    2    0    0  0.63952370879E+02 -0.12076923310E+03  0.12600648816E+03  0.22400390278E+03  0.12500000000E+03 0.  0.
</event>
<event>
 5    0  0.5619558E-005  0.2271611E+03  0.7546771E-02  0.1128654E+00
         21   -1    0    0  502  501  0.00000000000E+00  0.00000000000E+00  0.50551488416E+02  0.50551488416E+02  0.00000000000E+00 0. -1.
         21   -1    0    0  501  502 -0.00000000000E+00 -0.00000000000E+00 -0.10207841170E+04  0.10207841170E+04  0.00000000000E+00 0. -1.
         25    1    1    2    0    0 -0.62987723163E+02 -0.36333948224E+02 -0.20527987586E+03  0.25110244223E+03  0.12500000000E+03 0.  0.
         25    1    1    2    0    0  0.54305466699E+02  0.22723317119E+02 -0.58127551438E+03  0.59747105074E+03  0.12500000000E+03 0.  0.
         25    1    1    2    0    0  0.86822564640E+01  0.13610631104E+02 -0.18367723838E+03  0.22276211247E+03  0.12500000000E+03 0.  0.
</event>
<event>
 5    0  0.5619558E-005  0.4128285E+03  0.7546771E-02  0.1039426E+00
         21   -1    0    0  502  501  0.00000000000E+00  0.00000000000E+00  0.10272065512E+04  0.10272065512E+04  0.00000000000E+00 0.  1.
         21   -1    0    0  501  502 -0.00000000000E+00 -0.00000000000E+00 -0.16591344836E+03  0.16591344836E+03  0.00000000000E+00 0.  1.
         25    1    1    2    0    0  0.13822694718E+03 -0.34253606498E+02  0.56758844341E+03  0.59838251944E+03  0.12500000000E+03 0.  0.
         25    1    1    2    0    0 -0.26099002161E+03 -0.88866928902E+02  0.16198824909E+03  0.34333411609E+03  0.12500000000E+03 0.  0.
         25    1    1    2    0    0  0.12276307443E+03  0.12312053540E+03  0.13171641032E+03  0.25140336400E+03  0.12500000000E+03 0.  0.
</event>
<event>
 5    0  0.5619558E-005  0.2738638E+03  0.7546771E-02  0.1099088E+00
         21   -1    0    0  502  501  0.00000000000E+00  0.00000000000E+00  0.44622441199E+02  0.44622441199E+02  0.00000000000E+00 0.  1.
         21   -1    0    0  501  502 -0.00000000000E+00 -0.00000000000E+00 -0.16807997934E+04  0.16807997934E+04  0.00000000000E+00 0.  1.
         25    1    1    2    0    0  0.34378293248E+01  0.35516851837E+02 -0.58486556196E+03  0.59913770621E+03  0.12500000000E+03 0.  0.
         25    1    1    2    0    0 -0.97673455428E+02 -0.51704866667E+02 -0.19958255872E+03  0.26013783823E+03  0.12500000000E+03 0.  0.
         25    1    1    2    0    0  0.94235626103E+02  0.16188014830E+02 -0.85172923152E+03  0.86614669016E+03  0.12500000000E+03 0.  0.
</event>
<event>
 5    0  0.5619558E-005  0.3047745E+03  0.7546771E-02  0.1082878E+00
         21   -1    0    0  502  501  0.00000000000E+00  0.00000000000E+00  0.57735040722E+03  0.57735040722E+03  0.00000000000E+00 0. -1.
         21   -1    0    0  501  502 -0.00000000000E+00 -0.00000000000E+00 -0.16088584465E+03  0.16088584465E+03  0.00000000000E+00 0. -1.
         25    1    1    2    0    0 -0.20225154470E+03 -0.12448683792E+02  0.15890877351E+03  0.28624754211E+03  0.12500000000E+03 0.  0.
         25    1    1    2    0    0  0.17207381808E+03  0.46135669217E+02  0.22920968799E+03  0.31606958081E+03  0.12500000000E+03 0.  0.
         25    1    1    2    0    0  0.30177726618E+02 -0.33686985425E+02  0.28346101058E+02  0.13591912896E+03  0.12500000000E+03 0.  0.
</event>
<event>
 5    0  0.5619558E-005  0.2692392E+03  0.7546771E-02  0.1101716E+00
         21   -1    0    0  502  501  0.00000000000E+00  0.00000000000E+00  0.10479545539E+03  0.10479545539E+03  0.00000000000E+00 0. -1.
         21   -1    0    0  501  502 -0.00000000000E+00 -0.00000000000E+00 -0.69172623391E+03  0.69172623391E+03  0.00000000000E+00 0. -1.
         25    1    1    2    0    0 -0.10502273492E+03 -0.58463388353E+02 -0.32928777532E+03  0.37216015586E+03  0.12500000000E+03 0.  0.
         25    1    1    2    0    0  0.75266162188E+02 -0.43278599534E+02 -0.50782742791E+02  0.16044288490E+03  0.12500000000E+03 0.  0.
         25    1    1    2    0    0  0.29756572736E+02  0.10174198789E+03 -0.20686026040E+03  0.26391864855E+03  0.12500000000E+03 0.  0.
</event>
<event>
 5    0  0.5619558E-005  0.2765454E+03  0.7546771E-02  0.1097591E+00
         21   -1    0    0  502  501  0.00000000000E+00  0.00000000000E+00  0.49617261129E+03  0.49617261129E+03  0.00000000000E+00 0. -1.
         21   -1    0    0  501  502 -0.00000000000E+00 -0.00000000000E+00 -0.15413461960E+03  0.15413461960E+03  0.00000000000E+00 0. -1.
         25    1    1    2    0    0 -0.82781988779E+02  0.91459405807E+02  0.92518500101E+02  0.19850026055E+03  0.12500000000E+03 0.  0.
         25    1    1    2    0    0  0.52149786863E+01 -0.16572619805E+03  0.10531609886E+03  0.23282793948E+03  0.12500000000E+03 0.  0.
         25    1    1    2    0    0  0.77567010093E+02  0.74266792239E+02  0.14420339273E+03  0.21897903086E+03  0.12500000000E+03 0.  0.
</event>
<event>
 5    0  0.5619558E-005  0.4714980E+03  0.7546771E-02  0.1021498E+00
         21   -1    0    0  502  501  0.00000000000E+00  0.00000000000E+00  0.64550943438E+03  0.64550943438E+03  0.00000000000E+00 0.  1.
         21   -1    0    0  501  502 -0.00000000000E+00 -0.00000000000E+00 -0.34439528185E+03  0.34439528185E+03  0.00000000000E+00 0.  1.
         25    1    1    2    0    0 -0.50934306415E+02 -0.27438016076E+02  0.14988279846E+03  0.20356080559E+03  0.12500000000E+03 0.  0.
         25    1    1    2    0    0  0.54661494654E+02 -0.11182299091E+03  0.42188300265E+03  0.45727729904E+03  0.12500000000E+03 0.  0.
         25    1    1    2    0    0 -0.37271882394E+01  0.13926100699E+03 -0.27065164858E+03  0.32906661161E+03  0.12500000000E+03 0.  0.
</event>
<event>
 5    0  0.5619558E-005  0.3324335E+03  0.7546771E-02  0.1070065E+00
         21   -1    0    0  502  501  0.00000000000E+00  0.00000000000E+00  0.26668174124E+04  0.26668174124E+04  0.00000000000E+00 0. -1.
         21   -1    0    0  501  502 -0.00000000000E+00 -0.00000000000E+00 -0.41439658474E+02  0.41439658474E+02  0.00000000000E+00 0. -1.
         25    1    1    2    0    0  0.17020987453E+03  0.68322887306E+02  0.11067903155E+04  0.11288264795E+04  0.12500000000E+03 0.  0.
         25    1    1    2    0    0 -0.22974177409E+03 -0.11814916343E+03  0.99688326824E+03  0.10373725262E+04  0.12500000000E+03 0.  0.
         25    1    1    2    0    0  0.59531899559E+02  0.49826276126E+02  0.52170417023E+03  0.54205806524E+03  0.12500000000E+03 0.  0.
</event>
<event>
 5    0  0.5619558E-005  0.2960229E+03  0.7546771E-02  0.1087246E+00
         21   -1    0    0  502  501  0.00000000000E+00  0.00000000000E+00  0.19089323836E+04  0.19089323836E+04  0.00000000000E+00 0.  1.
         21   -1    0    0  501  502 -0.00000000000E+00 -0.00000000000E+00 -0.45905015437E+02  0.45905015437E+02  0.00000000000E+00 0.  1.
         25    1    1    2    0    0 -0.11321809640E+03 -0.12013845088E+02  0.19900023683E+03  0.26112978399E+03  0.12500000000E+03 0.  0.
         25    1    1    2    0    0 -0.74891472992E+01  0.80595803000E+01  0.44508596384E+03  0.46243654632E+03  0.12500000000E+03 0.  0.
         25    1    1    2    0    0  0.12070724370E+03  0.39542647882E+01  0.12189411675E+04  0.12312710687E+04  0.12500000000E+03 0.  0.
</event>
<event>
 5    0  0.5619558E-005  0.2942964E+03  0.7546771E-02  0.1088127E+00
         21   -1    0    0  502  501  0.00000000000E+00  0.00000000000E+00  0.20564722148E+04  0.20564722148E+04  0.00000000000E+00 0. -1.
         21   -1    0    0  501  502 -0.00000000000E+00 -0.00000000000E+00 -0.42116004405E+02  0.42116004405E+02  0.00000000000E+00 0. -1.
         25    1    1    2    0    0  0.57005634093E+01 -0.52368543774E+02  0.26420594111E+03  0.29699282840E+03  0.12500000000E+03 0.  0.
         25    1    1    2    0    0 -0.50636493342E+02 -0.13880131947E+03  0.86031373145E+03  0.88181323264E+03  0.12500000000E+03 0.  0.
         25    1    1    2    0    0  0.44935929933E+02  0.19116986325E+03  0.88983653785E+03  0.91978215818E+03  0.12500000000E+03 0.  0.
</event>
<event>
 5    0  0.5619558E-005  0.3577333E+03  0.7546771E-02  0.1059485E+00
         21   -1    0    0  502  501  0.00000000000E+00  0.00000000000E+00  0.84241295900E+03  0.84241295900E+03  0.00000000000E+00 0.  1.
         21   -1    0    0  501  502 -0.00000000000E+00 -0.00000000000E+00 -0.15191259834E+03  0.15191259834E+03  0.00000000000E+00 0.  1.
         25    1    1    2    0    0  0.19634062798E+03  0.31292215776E+02  0.25071985716E+03  0.34353208254E+03  0.12500000000E+03 0.  0.
         25    1    1    2    0    0 -0.11736224110E+03  0.12689399284E+03  0.74099593305E+02  0.22581348671E+03  0.12500000000E+03 0.  0.
         25    1    1    2    0    0 -0.78978386880E+02 -0.15818620861E+03  0.36568091020E+03  0.42497998809E+03  0.12500000000E+03 0.  0.
</event>
<event>
 5    0  0.5619558E-005  0.3698504E+03  0.7546771E-02  0.1054750E+00
         21   -1    0    0  502  501  0.00000000000E+00  0.00000000000E+00  0.59271193722E+03  0.59271193722E+03  0.00000000000E+00 0.  1.
         21   -1    0    0  501  502 -0.00000000000E+00 -0.00000000000E+00 -0.23078544803E+03  0.23078544803E+03  0.00000000000E+00 0.  1.
         25    1    1    2    0    0  0.20922146922E+01  0.90462399334E+02 -0.65131232303E+02  0.16749597152E+03  0.12500000000E+03 0.  0.
         25    1    1    2    0    0  0.21360361094E+02 -0.24097023968E+03  0.35225868805E+03  0.44523488716E+03  0.12500000000E+03 0.  0.
         25    1    1    2    0    0 -0.23452575787E+02  0.15050784035E+03  0.74799033438E+02  0.21076652657E+03  0.12500000000E+03 0.  0.
</event>
<event>
 5    0  0.5619558E-005  0.2760090E+03  0.7546771E-02  0.1097889E+00
         21   -1    0    0  502  501  0.00000000000E+00  0.00000000000E+00  0.14167388812E+04  0.14167388812E+04  0.00000000000E+00 0. -1.
         21   -1    0    0  501  502 -0.00000000000E+00 -0.00000000000E+00 -0.53772072831E+02  0.53772072831E+02  0.00000000000E+00 0. -1.
         25    1    1    2    0    0 -0.74955015078E+01  0.68719626797E+01  0.41406529587E+03  0.43264127827E+03  0.12500000000E+03 0.  0.
         25    1    1    2    0    0 -0.11061805378E+03 -0.81365849550E+02  0.71189806437E+03  0.73571775114E+03  0.12500000000E+03 0.  0.
         25    1    1    2    0    0  0.11811355529E+03  0.74493886870E+02  0.23700344810E+03  0.30215192459E+03  0.12500000000E+03 0.  0.
</event>
<event>
 5    0  0.5619558E-005  0.2178475E+03  0.7546771E-02  0.1135498E+00
         21   -1    0    0  502  501  0.00000000000E+00  0.00000000000E+00  0.25032486924E+02  0.25032486924E+02  0.00000000000E+00 0. -1.
         21   -1    0    0  501  502 -0.00000000000E+00 -0.00000000000E+00 -0.18958382750E+04  0.18958382750E+04  0.00000000000E+00 0. -1.
         25    1    1    2    0    0  0.19626523858E+01 -0.30678509849E+02 -0.79606505371E+03  0.80640535261E+03  0.12500000000E+03 0.  0.
         25    1    1    2    0    0 -0.39858540468E+02 -0.30239024832E+02 -0.33934336836E+03  0.36507810605E+03  0.12500000000E+03 0.  0.
         25    1    1    2    0    0  0.37895888083E+02  0.60917534681E+02 -0.73539736601E+03  0.74938730327E+03  0.12500000000E+03 0.  0.
</event>
<event>
 5    0  0.5619558E-005  0.3766191E+03  0.7546771E-02  0.1052190E+00
         21   -1    0    0  502  501  0.00000000000E+00  0.00000000000E+00  0.38586002892E+03  0.38586002892E+03  0.00000000000E+00 0.  1.
         21   -1    0    0  501  502 -0.00000000000E+00 -0.00000000000E+00 -0.36759938571E+03  0.36759938571E+03  0.00000000000E+00 0.  1.
         25    1    1    2    0    0  0.32898599728E+01  0.19628947643E+03 -0.93473611885E+02  0.25080410255E+03  0.12500000000E+03 0.  0.
         25    1    1    2    0    0  0.17552887243E+03 -0.16110736655E+03  0.58652458086E+02  0.27537443500E+03  0.12500000000E+03 0.  0.
         25    1    1    2    0    0 -0.17881873240E+03 -0.35182109880E+02  0.53081797004E+02  0.22728087708E+03  0.12500000000E+03 0.  0.
</event>
<event>
 5    0  0.5619558E-005  0.3347675E+03  0.7546771E-02  0.1069047E+00
         21   -1    0    0  502  501  0.00000000000E+00  0.00000000000E+00  0.83239154348E+03  0.83239154348E+03  0.00000000000E+00 0.  1.
         21   -1    0    0  501  502 -0.00000000000E+00 -0.00000000000E+00 -0.13463530655E+03  0.13463530655E+03  0.00000000000E+00 0.  1.
         25    1    1    2    0    0  0.22856954740E+03 -0.11111612823E+03  0.40106344557E+03  0.49098647570E+03  0.12500000000E+03 0.  0.
         25    1    1    2    0    0 -0.10795149723E+03  0.10470464557E+03  0.12736176169E+03  0.23337224963E+03  0.12500000000E+03 0.  0.
         25    1    1    2    0    0 -0.12061805017E+03  0.64114826601E+01  0.16933102967E+03  0.24266812470E+03  0.12500000000E+03 0.  0.
</event>
<event>
 5    0  0.5619558E-005  0.3556189E+03  0.7546771E-02  0.1060332E+00
         21   -1    0    0  502  501  0.00000000000E+00  0.00000000000E+00  0.11496594728E+04  0.11496594728E+04  0.00000000000E+00 0.  1.
         21   -1    0    0  501  502 -0.00000000000E+00 -0.00000000000E+00 -0.11000198240E+03  0.11000198240E+03  0.00000000000E+00 0.  1.
         25    1    1    2    0    0  0.32219226247E+02 -0.10764527068E+03  0.11073883897E+03  0.20128008668E+03  0.12500000000E+03 0.  0.
         25    1    1    2    0    0 -0.12573790150E+03 -0.13108746137E+03  0.36517089341E+03  0.42657792230E+03  0.12500000000E+03 0.  0.
         25    1    1    2    0    0  0.93518675250E+02  0.23873273205E+03  0.56374775806E+03  0.63180344624E+03  0.12500000000E+03 0.  0.
</event>
<event>
 5    0  0.5619558E-005  0.2968005E+03  0.7546771E-02  0.1086851E+00
         21   -1    0    0  502  501  0.00000000000E+00  0.00000000000E+00  0.37564145349E+02  0.37564145349E+02  0.00000000000E+00 0.  1.
         21   -1    0    0  501  502 -0.00000000000E+00 -0.00000000000E+00 -0.23450693017E+04  0.23450693017E+04  0.00000000000E+00 0.  1.
         25    1    1    2    0    0  0.16824260667E+03  0.49847024450E+02 -0.44409732273E+03  0.49359673074E+03  0.12500000000E+03 0.  0.
         25    1    1    2    0    0 -0.92903773330E+02 -0.12736591069E+02 -0.10850957073E+04  0.10962896633E+04  0.12500000000E+03 0.  0.
         25    1    1    2    0    0 -0.75338833337E+02 -0.37110433381E+02 -0.77831212622E+03  0.79274705291E+03  0.12500000000E+03 0.  0.
</event>
<event>
 5    0  0.5619558E-005  0.2565882E+03  0.7546771E-02  0.1109211E+00
         21   -1    0    0  502  501  0.00000000000E+00  0.00000000000E+00  0.46715401643E+03  0.46715401643E+03  0.00000000000E+00 0. -1.
         21   -1    0    0  501  502 -0.00000000000E+00 -0.00000000000E+00 -0.14093322413E+03  0.14093322413E+03  0.00000000000E+00 0. -1.
         25    1    1    2    0    0  0.44045706927E+02  0.18978266009E+02 -0.52444514123E+02  0.14379021504E+03  0.12500000000E+03 0.  0.
         25    1    1    2    0    0 -0.49841745981E+01 -0.36646339461E+02  0.23755406499E+03  0.27096997986E+03  0.12500000000E+03 0.  0.
         25    1    1    2    0    0 -0.39061532329E+02  0.17668073451E+02  0.14111124143E+03  0.19332704566E+03  0.12500000000E+03 0.  0.
</event>
<event>
 5    0  0.5619558E-005  0.3117882E+03  0.7546771E-02  0.1079492E+00
         21   -1    0    0  502  501  0.00000000000E+00  0.00000000000E+00  0.68090158700E+03  0.68090158700E+03  0.00000000000E+00 0. -1.
         21   -1    0    0  501  502 -0.00000000000E+00 -0.00000000000E+00 -0.14276936297E+03  0.14276936297E+03  0.00000000000E+00 0. -1.
         25    1    1    2    0    0  0.10995048753E+03 -0.54279035293E+02  0.37237395215E+02  0.17901661091E+03  0.12500000000E+03 0.  0.
         25    1    1    2    0    0  0.46036993489E+02  0.80528949025E+02  0.73590927172E+02  0.17217706282E+03  0.12500000000E+03 0.  0.
         25    1    1    2    0    0 -0.15598748102E+03 -0.26249913732E+02  0.42730390164E+03  0.47247727624E+03  0.12500000000E+03 0.  0.
</event>
<event>
 5    0  0.5619558E-005  0.3530693E+03  0.7546771E-02  0.1061362E+00
         21   -1    0    0  502  501  0.00000000000E+00  0.00000000000E+00  0.39827054503E+03  0.39827054503E+03  0.00000000000E+00 0.  1.
         21   -1    0    0  501  502 -0.00000000000E+00 -0.00000000000E+00 -0.31299811159E+03  0.31299811159E+03  0.00000000000E+00 0.  1.
         25    1    1    2    0    0  0.14269017776E+03  0.67222902588E+02 -0.11662417402E+03  0.23260611219E+03  0.12500000000E+03 0.  0.
         25    1    1    2    0    0 -0.39510427769E+02  0.87080960769E+02 -0.25708904839E+02  0.15946822699E+03  0.12500000000E+03 0.  0.
         25    1    1    2    0    0 -0.10317974999E+03 -0.15430386336E+03  0.22760551230E+03  0.31919431744E+03  0.12500000000E+03 0.  0.
</event>
<event>
 5    0  0.5636619E-005  0.3651089E+03  0.7546771E-02  0.1056579E+00
         21   -1    0    0  502  501  0.00000000000E+00  0.00000000000E+00  0.85697140358E+03  0.85697140358E+03  0.00000000000E+00 0. -1.
         21   -1    0    0  501  502 -0.00000000000E+00 -0.00000000000E+00 -0.15555307706E+03  0.15555307706E+03  0.00000000000E+00 0. -1.
         25    1    1    2    0    0  0.71401121174E+02  0.75205688866E+02  0.47664436048E+03  0.50355621545E+03  0.12500000000E+03 0.  0.
         25    1    1    2    0    0 -0.13680707503E+03  0.64423889231E+02  0.23988940333E+03  0.30990085368E+03  0.12500000000E+03 0.  0.
         25    1    1    2    0    0  0.65405953851E+02 -0.13962957810E+03 -0.15115437296E+02  0.19906741151E+03  0.12500000000E+03 0.  0.
</event>
<event>
 5    0  0.5619558E-005  0.2756928E+03  0.7546771E-02  0.1098065E+00
         21   -1    0    0  502  501  0.00000000000E+00  0.00000000000E+00  0.65764725383E+03  0.65764725383E+03  0.00000000000E+00 0. -1.
         21   -1    0    0  501  502 -0.00000000000E+00 -0.00000000000E+00 -0.11557339526E+03  0.11557339526E+03  0.00000000000E+00 0. -1.
         25    1    1    2    0    0  0.87002201548E+02  0.15862847610E+03  0.14503015763E+03  0.26342194883E+03  0.12500000000E+03 0.  0.
         25    1    1    2    0    0 -0.83623333183E+02 -0.10636720289E+03  0.22507639463E+03  0.29084571017E+03  0.12500000000E+03 0.  0.
         25    1    1    2    0    0 -0.33788683644E+01 -0.52261273212E+02  0.17196730631E+03  0.21895299009E+03  0.12500000000E+03 0.  0.
</event>
<event>
 5    0  0.5619558E-005  0.3006086E+03  0.7546771E-02  0.1084937E+00
         21   -1    0    0  502  501  0.00000000000E+00  0.00000000000E+00  0.31366671301E+03  0.31366671301E+03  0.00000000000E+00 0.  1.
         21   -1    0    0  501  502 -0.00000000000E+00 -0.00000000000E+00 -0.28809414787E+03  0.28809414787E+03  0.00000000000E+00 0.  1.
         25    1    1    2    0    0 -0.53677054716E+00 -0.10130603146E+03 -0.13818124595E+03  0.21209020926E+03  0.12500000000E+03 0.  0.
         25    1    1    2    0    0  0.11398211025E+03  0.61309238117E+02  0.89625723586E+02  0.20101869183E+03  0.12500000000E+03 0.  0.
         25    1    1    2    0    0 -0.11344533970E+03  0.39996793340E+02  0.74128087494E+02  0.18865195979E+03  0.12500000000E+03 0.  0.
</event>
<event>
 5    0  0.5619558E-005  0.3662100E+03  0.7546771E-02  0.1056152E+00
         21   -1    0    0  502  501  0.00000000000E+00  0.00000000000E+00  0.11954415515E+04  0.11954415515E+04  0.00000000000E+00 0. -1.
         21   -1    0    0  501  502 -0.00000000000E+00 -0.00000000000E+00 -0.11218427465E+03  0.11218427465E+03  0.00000000000E+00 0. -1.
         25    1    1    2    0    0  0.32988756143E+02  0.18593278003E+03  0.87383308801E+03  0.90270068263E+03  0.12500000000E+03 0.  0.
         25    1    1    2    0    0 -0.83722887389E+02 -0.11532832624E+03  0.14898703813E+03  0.24110637121E+03  0.12500000000E+03 0.  0.
         25    1    1    2    0    0  0.50734131245E+02 -0.70604453783E+02  0.60437150681E+02  0.16381877228E+03  0.12500000000E+03 0.  0.
</event>
<event>
 5    0  0.5619558E-005  0.3199519E+03  0.7546771E-02  0.1075671E+00
         21   -1    0    0  502  501  0.00000000000E+00  0.00000000000E+00  0.30916179047E+03  0.30916179047E+03  0.00000000000E+00 0. -1.
         21   -1    0    0  501  502 -0.00000000000E+00 -0.00000000000E+00 -0.33111866047E+03  0.33111866047E+03  0.00000000000E+00 0. -1.
         25    1    1    2    0    0  0.11509415873E+03 -0.55223068517E+02 -0.26024686033E+02  0.18055064928E+03  0.12500000000E+03 0.  0.
         25    1    1    2    0    0  0.10477561398E+03 -0.69997810952E+02  0.22747600173E+01  0.17750435870E+03  0.12500000000E+03 0.  0.
         25    1    1    2    0    0 -0.21986977271E+03  0.12522087947E+03  0.17930560183E+01  0.28222544296E+03  0.12500000000E+03 0.  0.
</event>
<event>
 5    0  0.5619558E-005  0.4002230E+03  0.7546771E-02  0.1043703E+00
         21   -1    0    0  502  501  0.00000000000E+00  0.00000000000E+00  0.24027599953E+03  0.24027599953E+03  0.00000000000E+00 0.  1.
         21   -1    0    0  501  502 -0.00000000000E+00 -0.00000000000E+00 -0.66664343603E+03  0.66664343603E+03  0.00000000000E+00 0.  1.
         25    1    1    2    0    0 -0.67994207617E+02 -0.27078388546E+03 -0.13236360096E+03  0.33330503710E+03  0.12500000000E+03 0.  0.
         25    1    1    2    0    0  0.65197431467E+02  0.95939623596E+02 -0.31443057389E+03  0.35769638276E+03  0.12500000000E+03 0.  0.
         25    1    1    2    0    0  0.27967761507E+01  0.17484426187E+03  0.20426738346E+02  0.21591801570E+03  0.12500000000E+03 0.  0.
</event>
<event>
 5    0  0.5663048E-005  0.2846729E+03  0.7546771E-02  0.1093164E+00
         21   -1    0    0  502  501  0.00000000000E+00  0.00000000000E+00  0.23671835563E+03  0.23671835563E+03  0.00000000000E+00 0. -1.
         21   -1    0    0  501  502 -0.00000000000E+00 -0.00000000000E+00 -0.34234217225E+03  0.34234217225E+03  0.00000000000E+00 0. -1.
         25    1    1    2    0    0  0.23141266706E+02  0.41627374050E+02  0.70122246448E+02  0.15103140714E+03  0.12500000000E+03 0.  0.
         25    1    1    2    0    0  0.35027869330E+02 -0.79607486952E+01 -0.23942919950E+03  0.27247324038E+03  0.12500000000E+03 0.  0.
         25    1    1    2    0    0 -0.58169136037E+02 -0.33666625355E+02  0.63683136438E+02  0.15555588037E+03  0.12500000000E+03 0.  0.
</event>
<event>
 5    0  0.6375670E-005  0.5573347E+03  0.7546771E-02  0.9998103E-01
         21   -1    0    0  502  501  0.00000000000E+00  0.00000000000E+00  0.62473195688E+03  0.62473195688E+03  0.00000000000E+00 0. -1.
         21   -1    0    0  501  502 -0.00000000000E+00 -0.00000000000E+00 -0.49720846957E+03  0.49720846957E+03  0.00000000000E+00 0. -1.
         25    1    1    2    0    0 -0.25666228316E+03  0.32499765420E+03  0.12508560808E+03  0.45030035774E+03  0.12500000000E+03 0.  0.
         25    1    1    2    0    0  0.42872200045E+02 -0.27056482982E+03  0.19017732724E+03  0.35614009669E+03  0.12500000000E+03 0.  0.
         25    1    1    2    0    0  0.21379008311E+03 -0.54432824381E+02 -0.18773944801E+03  0.31549997202E+03  0.12500000000E+03 0.  0.
</event>
<event>
 5    0  0.5619558E-005  0.2848371E+03  0.7546771E-02  0.1093076E+00
         21   -1    0    0  502  501  0.00000000000E+00  0.00000000000E+00  0.34348450018E+02  0.34348450018E+02  0.00000000000E+00 0.  1.
         21   -1    0    0  501  502 -0.00000000000E+00 -0.00000000000E+00 -0.23620336370E+04  0.23620336370E+04  0.00000000000E+00 0.  1.
         25    1    1    2    0    0  0.10523870233E+03  0.34695781848E+02 -0.47065598771E+03  0.49942070493E+03  0.12500000000E+03 0.  0.
         25    1    1    2    0    0 -0.15286008195E+02 -0.13407692359E+03 -0.12305319249E+04  0.12442042042E+04  0.12500000000E+03 0.  0.
         25    1    1    2    0    0 -0.89952694140E+02  0.99381141745E+02 -0.62649727432E+03  0.65275717786E+03  0.12500000000E+03 0.  0.
</event>
<event>
 5    0  0.5619558E-005  0.2510541E+03  0.7546771E-02  0.1112640E+00
         21   -1    0    0  502  501  0.00000000000E+00  0.00000000000E+00  0.14361611939E+03  0.14361611939E+03  0.00000000000E+00 0.  1.
         21   -1    0    0  501  502 -0.00000000000E+00 -0.00000000000E+00 -0.43886559893E+03  0.43886559893E+03  0.00000000000E+00 0.  1.
         25    1    1    2    0    0  0.11188259252E+03 -0.28514433571E+01 -0.11998964544E+03  0.20627253877E+03  0.12500000000E+03 0.  0.
         25    1    1    2    0    0  0.45142952475E+01 -0.10679839719E+02  0.74166984541E+01  0.12575549791E+03  0.12500000000E+03 0.  0.
         25    1    1    2    0    0 -0.11639688777E+03  0.13531283076E+02 -0.18267653255E+03  0.25045368164E+03  0.12500000000E+03 0.  0.
</event>
<event>
 5    0  0.5619558E-005  0.5003205E+03  0.7546771E-02  0.1013695E+00
         21   -1    0    0  502  501  0.00000000000E+00  0.00000000000E+00  0.17456302275E+04  0.17456302275E+04  0.00000000000E+00 0.  1.
         21   -1    0    0  501  502 -0.00000000000E+00 -0.00000000000E+00 -0.14339839049E+03  0.14339839049E+03  0.00000000000E+00 0. -1.
         25    1    1    2    0    0  0.21421853784E+02  0.11056139348E+03 -0.50614863869E+02  0.17569741601E+03  0.12500000000E+03 0.  0.
         25    1    1    2    0    0 -0.14476384870E+03  0.29674729634E+02  0.10940175882E+04  0.11110070408E+04  0.12500000000E+03 0.  0.
         25    1    1    2    0    0  0.12334199491E+03 -0.14023612311E+03  0.55882911269E+03  0.60232416117E+03  0.12500000000E+03 0.  0.
</event>
<event>
 5    0  0.5619558E-005  0.2957431E+03  0.7546771E-02  0.1087388E+00
         21   -1    0    0  502  501  0.00000000000E+00  0.00000000000E+00  0.19135296748E+03  0.19135296748E+03  0.00000000000E+00 0.  1.
         21   -1    0    0  501  502 -0.00000000000E+00 -0.00000000000E+00 -0.45708203486E+03  0.45708203486E+03  0.00000000000E+00 0.  1.
         25    1    1    2    0    0  0.15568474301E+03 -0.13616759935E+03 -0.11731535601E+03  0.26863962306E+03  0.12500000000E+03 0.  0.
         25    1    1    2    0    0 -0.67071881129E+02  0.13516128302E+03 -0.73902669835E+02  0.20941302317E+03  0.12500000000E+03 0.  0.
         25    1    1    2    0    0 -0.88612861886E+02  0.10063163355E+01 -0.74511041539E+02  0.17038235612E+03  0.12500000000E+03 0.  0.
</event>
<event>
 5    0  0.5619558E-005  0.2609683E+03  0.7546771E-02  0.1106563E+00
         21   -1    0    0  502  501  0.00000000000E+00  0.00000000000E+00  0.80095555401E+03  0.80095555401E+03  0.00000000000E+00 0. -1.
         21   -1    0    0  501  502 -0.00000000000E+00 -0.00000000000E+00 -0.85028991000E+02  0.85028991000E+02  0.00000000000E+00 0. -1.
         25    1    1    2    0    0 -0.16242712611E+02 -0.33864934515E+02  0.81295205492E+02  0.15376790933E+03  0.12500000000E+03 0.  0.
         25    1    1    2    0    0 -0.68830777044E+02  0.11562225359E+03  0.41089802241E+03  0.45007595605E+03  0.12500000000E+03 0.  0.
         25    1    1    2    0    0  0.85073489655E+02 -0.81757319078E+02  0.22373333511E+03  0.28214067963E+03  0.12500000000E+03 0.  0.
</event>
<event>
 5    0  0.5619558E-005  0.3084921E+03  0.7546771E-02  0.1081071E+00
         21   -1    0    0  502  501  0.00000000000E+00  0.00000000000E+00  0.19821389702E+04  0.19821389702E+04  0.00000000000E+00 0.  1.
         21   -1    0    0  501  502 -0.00000000000E+00 -0.00000000000E+00 -0.48012454925E+02  0.48012454925E+02  0.00000000000E+00 0.  1.
         25    1    1    2    0    0  0.10721530558E+03 -0.59283405603E+02  0.99061276638E+03  0.10059564090E+04  0.12500000000E+03 0.  0.
         25    1    1    2    0    0 -0.17538540898E+03  0.77043475851E+02  0.38757799073E+03  0.45004159558E+03  0.12500000000E+03 0.  0.
         25    1    1    2    0    0  0.68170103405E+02 -0.17760070248E+02  0.55593575820E+03  0.57415342056E+03  0.12500000000E+03 0.  0.
</event>
<event>
 5    0  0.5619558E-005  0.5074642E+03  0.7546771E-02  0.1011849E+00
         21   -1    0    0  502  501  0.00000000000E+00  0.00000000000E+00  0.12114425931E+03  0.12114425931E+03  0.00000000000E+00 0. -1.
         21   -1    0    0  501  502 -0.00000000000E+00 -0.00000000000E+00 -0.21257296434E+04  0.21257296434E+04  0.00000000000E+00 0. -1.
         25    1    1    2    0    0  0.47303915334E+02  0.18826750881E+03 -0.12243565896E+04  0.12459359429E+04  0.12500000000E+03 0.  0.
         25    1    1    2    0    0  0.14004537601E+03  0.12859872637E+03 -0.20256081384E+03  0.30464113817E+03  0.12500000000E+03 0.  0.
         25    1    1    2    0    0 -0.18734929134E+03 -0.31686623517E+03 -0.57766798063E+03  0.69629682163E+03  0.12500000000E+03 0.  0.
</event>
<event>
 5    0  0.5619558E-005  0.3004806E+03  0.7546771E-02  0.1085001E+00
         21   -1    0    0  502  501  0.00000000000E+00  0.00000000000E+00  0.26705351476E+03  0.26705351476E+03  0.00000000000E+00 0. -1.
         21   -1    0    0  501  502 -0.00000000000E+00 -0.00000000000E+00 -0.33809177546E+03  0.33809177546E+03  0.00000000000E+00 0. -1.
         25    1    1    2    0    0 -0.58001222443E+02 -0.10843225003E+03  0.13710105845E+03  0.22258345599E+03  0.12500000000E+03 0.  0.
         25    1    1    2    0    0  0.71524481234E+02  0.82418981127E+02 -0.19103133731E+03  0.25303480334E+03  0.12500000000E+03 0.  0.
         25    1    1    2    0    0 -0.13523258791E+02  0.26013268906E+02 -0.17107981851E+02  0.12952703089E+03  0.12500000000E+03 0.  0.
</event>
<event>
 5    0  0.5619558E-005  0.2437293E+03  0.7546771E-02  0.1117333E+00
         21   -1    0    0  502  501  0.00000000000E+00  0.00000000000E+00  0.90978419381E+03  0.90978419381E+03  0.00000000000E+00 0.  1.
         21   -1    0    0  501  502 -0.00000000000E+00 -0.00000000000E+00 -0.65294585599E+02  0.65294585599E+02  0.00000000000E+00 0.  1.
         25    1    1    2    0    0 -0.14037633928E+02 -0.84029063771E+02  0.17381293784E+03  0.23042108429E+03  0.12500000000E+03 0.  0.
         25    1    1    2    0    0  0.23877849746E+02 -0.51436108103E+02  0.32466201996E+03  0.35248581834E+03  0.12500000000E+03 0.  0.
         25    1    1    2    0    0 -0.98402158178E+01  0.13546517187E+03  0.34601465041E+03  0.39217187678E+03  0.12500000000E+03 0.  0.
</event>
<event>
 5    0  0.5619558E-005  0.2797957E+03  0.7546771E-02  0.1095801E+00
         21   -1    0    0  502  501  0.00000000000E+00  0.00000000000E+00  0.21745946223E+03  0.21745946223E+03  0.00000000000E+00 0. -1.
         21   -1    0    0  501  502 -0.00000000000E+00 -0.00000000000E+00 -0.36000092563E+03  0.36000092563E+03  0.00000000000E+00 0. -1.
         25    1    1    2    0    0 -0.38590162114E+02 -0.34851384238E+02 -0.12051540214E+03  0.18125336341E+03  0.12500000000E+03 0.  0.
         25    1    1    2    0    0 -0.50357778550E+02 -0.51035360187E+02 -0.12644760399E+03  0.19171465881E+03  0.12500000000E+03 0.  0.
         25    1    1    2    0    0  0.88947940663E+02  0.85886744425E+02  0.10442154273E+03  0.20449236563E+03  0.12500000000E+03 0.  0.
</event>
<event>
 5    0  0.5619558E-005  0.3227667E+03  0.7546771E-02  0.1074383E+00
         21   -1    0    0  502  501  0.00000000000E+00  0.00000000000E+00  0.64952829843E+03  0.64952829843E+03  0.00000000000E+00 0. -1.
         21   -1    0    0  501  502 -0.00000000000E+00 -0.00000000000E+00 -0.16039081054E+03  0.16039081054E+03  0.00000000000E+00 0. -1.
         25    1    1    2    0    0 -0.13197687493E+03  0.73470487565E+01  0.12011747779E+03  0.21800248419E+03  0.12500000000E+03 0.  0.
         25    1    1    2    0    0  0.10515338506E+03  0.17541165299E+03  0.19662461941E+03  0.31002052086E+03  0.12500000000E+03 0.  0.
         25    1    1    2    0    0  0.26823489866E+02 -0.18275870175E+03  0.17239539069E+03  0.28189610392E+03  0.12500000000E+03 0.  0.
</event>
<event>
 5    0  0.5619558E-005  0.2789052E+03  0.7546771E-02  0.1096288E+00
         21   -1    0    0  502  501  0.00000000000E+00  0.00000000000E+00  0.85539492137E+02  0.85539492137E+02  0.00000000000E+00 0. -1.
         21   -1    0    0  501  502 -0.00000000000E+00 -0.00000000000E+00 -0.90938246497E+03  0.90938246497E+03  0.00000000000E+00 0. -1.
         25    1    1    2    0    0 -0.12871989010E+03 -0.70199084819E+02 -0.53145493116E+03  0.56530174727E+03  0.12500000000E+03 0.  0.
         25    1    1    2    0    0  0.11982074162E+03  0.51261649958E+02 -0.21639193762E+03  0.28184257583E+03  0.12500000000E+03 0.  0.
         25    1    1    2    0    0  0.88991484709E+01  0.18937434861E+02 -0.75996104053E+02  0.14777763401E+03  0.12500000000E+03 0.  0.
</event>
<event>
 5    0  0.5619558E-005  0.3909407E+03  0.7546771E-02  0.1046963E+00
         21   -1    0    0  502  501  0.00000000000E+00  0.00000000000E+00  0.44102501424E+03  0.44102501424E+03  0.00000000000E+00 0.  1.
         21   -1    0    0  501  502 -0.00000000000E+00 -0.00000000000E+00 -0.34654408587E+03  0.34654408587E+03  0.00000000000E+00 0.  1.
         25    1    1    2    0    0 -0.97596047052E+02 -0.12038597689E+03  0.30477582737E+03  0.36404817920E+03  0.12500000000E+03 0.  0.
         25    1    1    2    0    0 -0.63983400085E+02  0.61757134038E+02 -0.10830125853E+03  0.18778173950E+03  0.12500000000E+03 0.  0.
         25    1    1    2    0    0  0.16157944714E+03  0.58628842849E+02 -0.10199364047E+03  0.23573918140E+03  0.12500000000E+03 0.  0.
</event>
<event>
 5    0  0.5619558E-005  0.2619340E+03  0.7546771E-02  0.1105987E+00
         21   -1    0    0  502  501  0.00000000000E+00  0.00000000000E+00  0.12936245430E+03  0.12936245430E+03  0.00000000000E+00 0. -1.
         21   -1    0    0  501  502 -0.00000000000E+00 -0.00000000000E+00 -0.53036579474E+03  0.53036579474E+03  0.00000000000E+00 0. -1.
         25    1    1    2    0    0  0.12212954081E+03 -0.38273011369E+02 -0.31741792663E+03  0.36436189192E+03  0.12500000000E+03 0.  0.
         25    1    1    2    0    0 -0.79460418181E+02  0.21515110769E+02 -0.52800644787E+02  0.15871284176E+03  0.12500000000E+03 0.  0.
         25    1    1    2    0    0 -0.42669122625E+02  0.16757900599E+02 -0.30784769030E+02  0.13665351537E+03  0.12500000000E+03 0.  0.
</event>
<event>
 5    0  0.5619558E-005  0.2212762E+03  0.7546771E-02  0.1132935E+00
         21   -1    0    0  502  501  0.00000000000E+00  0.00000000000E+00  0.27482811137E+03  0.27482811137E+03  0.00000000000E+00 0. -1.
         21   -1    0    0  501  502 -0.00000000000E+00 -0.00000000000E+00 -0.17815925849E+03  0.17815925849E+03  0.00000000000E+00 0. -1.
         25    1    1    2    0    0 -0.14186688107E+02 -0.78611158592E+01 -0.63290179678E+02  0.14104504992E+03  0.12500000000E+03 0.  0.
         25    1    1    2    0    0 -0.20122339677E+02 -0.28675987708E+02  0.54075170108E+02  0.14062839275E+03  0.12500000000E+03 0.  0.
         25    1    1    2    0    0  0.34309027784E+02  0.36537103567E+02  0.10588386244E+03  0.17131392719E+03  0.12500000000E+03 0.  0.
</event>
<event>
 5    0  0.5619558E-005  0.2476515E+03  0.7546771E-02  0.1114798E+00
         21   -1    0    0  502  501  0.00000000000E+00  0.00000000000E+00  0.90128044781E+02  0.90128044781E+02  0.00000000000E+00 0.  1.
         21   -1    0    0  501  502 -0.00000000000E+00 -0.00000000000E+00 -0.68049032158E+03  0.68049032158E+03  0.00000000000E+00 0.  1.
         25    1    1    2    0    0  0.51227063571E+02  0.72880129523E+02 -0.38508829295E+03  0.41455243177E+03  0.12500000000E+03 0.  0.
         25    1    1    2    0    0 -0.31015550630E+00  0.17634461366E+02 -0.68312823764E+02  0.14353644943E+03  0.12500000000E+03 0.  0.
         25    1    1    2    0    0 -0.50916908064E+02 -0.90514590888E+02 -0.13696116009E+03  0.21252948516E+03  0.12500000000E+03 0.  0.
</event>
<event>
 5    0  0.5619558E-005  0.2606353E+03  0.7546771E-02  0.1106762E+00
         21   -1    0    0  502  501  0.00000000000E+00  0.00000000000E+00  0.18885842394E+03  0.18885842394E+03  0.00000000000E+00 0. -1.
         21   -1    0    0  501  502 -0.00000000000E+00 -0.00000000000E+00 -0.35969153382E+03  0.35969153382E+03  0.00000000000E+00 0. -1.
         25    1    1    2    0    0 -0.98835687541E+02 -0.70650195209E+02 -0.53289334593E+02  0.18227642853E+03  0.12500000000E+03 0.  0.
         25    1    1    2    0    0 -0.55202915028E+01  0.56158506644E+02 -0.14602676725E+03  0.20033239439E+03  0.12500000000E+03 0.  0.
         25    1    1    2    0    0  0.10435597904E+03  0.14491688565E+02  0.28482991969E+02  0.16594113484E+03  0.12500000000E+03 0.  0.
</event>
<event>
 5    0  0.6283779E-005  0.3473406E+03  0.7546771E-02  0.1063712E+00
         21   -1    0    0  502  501  0.00000000000E+00  0.00000000000E+00  0.84693519069E+03  0.84693519069E+03  0.00000000000E+00 0. -1.
         21   -1    0    0  501  502 -0.00000000000E+00 -0.00000000000E+00 -0.14244952794E+03  0.14244952794E+03  0.00000000000E+00 0. -1.
         25    1    1    2    0    0  0.18696615115E+03  0.51615594085E+02  0.29425389081E+03  0.37393965220E+03  0.12500000000E+03 0.  0.
         25    1    1    2    0    0  0.45705709594E+02  0.55707028644E+02  0.43030131356E+02  0.15056187145E+03  0.12500000000E+03 0.  0.
         25    1    1    2    0    0 -0.23267186074E+03 -0.10732262273E+03  0.36720164059E+03  0.46488319499E+03  0.12500000000E+03 0.  0.
</event>
<event>
 5    0  0.6083301E-005  0.2908209E+03  0.7546771E-02  0.1089921E+00
         21   -1    0    0  502  501  0.00000000000E+00  0.00000000000E+00  0.23842317437E+03  0.23842317437E+03  0.00000000000E+00 0. -1.
         21   -1    0    0  501  502 -0.00000000000E+00 -0.00000000000E+00 -0.35473404154E+03  0.35473404154E+03  0.00000000000E+00 0. -1.
         25    1    1    2    0    0  0.12970764357E+02  0.84213729893E+02  0.58792852706E+02  0.16230154824E+03  0.12500000000E+03 0.  0.
         25    1    1    2    0    0  0.50315694317E+02  0.26542647894E+02 -0.20800428301E+03  0.24925280942E+03  0.12500000000E+03 0.  0.
         25    1    1    2    0    0 -0.63286458674E+02 -0.11075637779E+03  0.32900563130E+02  0.18160285825E+03  0.12500000000E+03 0.  0.
</event>
<event>
 5    0  0.5619558E-005  0.2143217E+03  0.7546771E-02  0.1138189E+00
         21   -1    0    0  502  501  0.00000000000E+00  0.00000000000E+00  0.22322570214E+03  0.22322570214E+03  0.00000000000E+00 0.  1.
         21   -1    0    0  501  502 -0.00000000000E+00 -0.00000000000E+00 -0.20577282111E+03  0.20577282111E+03  0.00000000000E+00 0.  1.
         25    1    1    2    0    0 -0.25795214469E+02  0.20103425013E+02 -0.51885527133E+02  0.13923594619E+03  0.12500000000E+03 0.  0.
         25    1    1    2    0    0  0.20183019370E+02  0.38819804890E+02  0.73363122429E+02  0.15139841233E+03  0.12500000000E+03 0.  0.
         25    1    1    2    0    0  0.56121950991E+01 -0.58923229903E+02 -0.40247142643E+01  0.13836416473E+03  0.12500000000E+03 0.  0.
</event>
<event>
 5    0  0.5619558E-005  0.3458864E+03  0.7546771E-02  0.1064316E+00
         21   -1    0    0  502  501  0.00000000000E+00  0.00000000000E+00  0.43907573798E+03  0.43907573798E+03  0.00000000000E+00 0. -1.
         21   -1    0    0  501  502 -0.00000000000E+00 -0.00000000000E+00 -0.27247548351E+03  0.27247548351E+03  0.00000000000E+00 0. -1.
         25    1    1    2    0    0 -0.12692191281E+03 -0.42573245018E+02  0.20374781455E+03  0.27397048213E+03  0.12500000000E+03 0.  0.
         25    1    1    2    0    0  0.21296791487E+03  0.36324199276E+02 -0.10555952959E+03  0.27100294188E+03  0.12500000000E+03 0.  0.
         25    1    1    2    0    0 -0.86046002059E+02  0.62490457417E+01  0.68411969511E+02  0.16657779749E+03  0.12500000000E+03 0.  0.
</event>
<event>
 5    0  0.5914068E-005  0.2819099E+03  0.7546771E-02  0.1094650E+00
         21   -1    0    0  502  501  0.00000000000E+00  0.00000000000E+00  0.10676795444E+03  0.10676795444E+03  0.00000000000E+00 0.  1.
         21   -1    0    0  501  502 -0.00000000000E+00 -0.00000000000E+00 -0.74435446583E+03  0.74435446583E+03  0.00000000000E+00 0.  1.
         25    1    1    2    0    0  0.34783755575E+02 -0.62319623521E+02 -0.34802123441E+03  0.37661309686E+03  0.12500000000E+03 0.  0.
         25    1    1    2    0    0  0.93130871838E+02 -0.49939942062E+02 -0.14427665627E+03  0.21819282904E+03  0.12500000000E+03 0.  0.
         25    1    1    2    0    0 -0.12791462741E+03  0.11225956558E+03 -0.14528862072E+03  0.25631649436E+03  0.12500000000E+03 0.  0.
</event>
<event>
 5    0  0.5619558E-005  0.3307932E+03  0.7546771E-02  0.1070786E+00
         21   -1    0    0  502  501  0.00000000000E+00  0.00000000000E+00  0.28909974216E+04  0.28909974216E+04  0.00000000000E+00 0. -1.
         21   -1    0    0  501  502 -0.00000000000E+00 -0.00000000000E+00 -0.37849956039E+02  0.37849956039E+02  0.00000000000E+00 0. -1.
         25    1    1    2    0    0  0.14973064419E+03  0.12436145548E+03  0.75332288943E+03  0.78803896678E+03  0.12500000000E+03 0.  0.
         25    1    1    2    0    0 -0.11638471986E+03 -0.10740689240E+03  0.18300418508E+04  0.18411300387E+04  0.12500000000E+03 0.  0.
         25    1    1    2    0    0 -0.33345924333E+02 -0.16954563078E+02  0.26978272526E+03  0.29967837214E+03  0.12500000000E+03 0.  0.
</event>
<event>
 5    0  0.5619558E-005  0.2162366E+03  0.7546771E-02  0.1136720E+00
         21   -1    0    0  502  501  0.00000000000E+00  0.00000000000E+00  0.30653678254E+04  0.30653678254E+04  0.00000000000E+00 0.  1.
         21   -1    0    0  501  502 -0.00000000000E+00 -0.00000000000E+00 -0.15253724956E+02  0.15253724956E+02  0.00000000000E+00 0.  1.
         25    1    1    2    0    0 -0.62062520576E+01 -0.90899611621E+02  0.12414761900E+04  0.12510752924E+04  0.12500000000E+03 0.  0.
         25    1    1    2    0    0  0.34015072929E+02  0.25607511861E+02  0.85740317844E+03  0.86751252454E+03  0.12500000000E+03 0.  0.
         25    1    1    2    0    0 -0.27808820872E+02  0.65292099760E+02  0.95123473198E+03  0.96203373336E+03  0.12500000000E+03 0.  0.
</event>
<event>
 5    0  0.5619558E-005  0.2158965E+03  0.7546771E-02  0.1136980E+00
         21   -1    0    0  502  501  0.00000000000E+00  0.00000000000E+00  0.21997185652E+02  0.21997185652E+02  0.00000000000E+00 0. -1.
         21   -1    0    0  501  502 -0.00000000000E+00 -0.00000000000E+00 -0.21189660287E+04  0.21189660287E+04  0.00000000000E+00 0. -1.
         25    1    1    2    0    0 -0.40937797229E+02  0.50505312870E+02 -0.79520105846E+03  0.80758678373E+03  0.12500000000E+03 0.  0.
         25    1    1    2    0    0  0.60818599153E+02 -0.77383962694E+02 -0.73650412540E+03  0.75349220727E+03  0.12500000000E+03 0.  0.
         25    1    1    2    0    0 -0.19880801923E+02  0.26878649824E+02 -0.56526365922E+03  0.57988422339E+03  0.12500000000E+03 0.  0.
</event>
<event>
 5    0  0.5619558E-005  0.2429368E+03  0.7546771E-02  0.1117852E+00
         21   -1    0    0  502  501  0.00000000000E+00  0.00000000000E+00  0.32323345334E+03  0.32323345334E+03  0.00000000000E+00 0. -1.
         21   -1    0    0  501  502 -0.00000000000E+00 -0.00000000000E+00 -0.18258714045E+03  0.18258714045E+03  0.00000000000E+00 0. -1.
         25    1    1    2    0    0 -0.28241490356E+02  0.23870119343E+02  0.88963359535E+02  0.15781902203E+03  0.12500000000E+03 0.  0.
         25    1    1    2    0    0  0.82319088618E+02  0.57816591807E+02 -0.38998235776E+02  0.16512132822E+03  0.12500000000E+03 0.  0.
         25    1    1    2    0    0 -0.54077598262E+02 -0.81686711150E+02  0.90681189136E+02  0.18288024353E+03  0.12500000000E+03 0.  0.
</event>
<event>
 5    0  0.5619558E-005  0.4220353E+03  0.7546771E-02  0.1036406E+00
         21   -1    0    0  502  501  0.00000000000E+00  0.00000000000E+00  0.42097452268E+03  0.42097452268E+03  0.00000000000E+00 0. -1.
         21   -1    0    0  501  502 -0.00000000000E+00 -0.00000000000E+00 -0.42309879691E+03  0.42309879691E+03  0.00000000000E+00 0. -1.
         25    1    1    2    0    0  0.68039292106E+02  0.24061703931E+03  0.23621792962E+02  0.28055105414E+03  0.12500000000E+03 0.  0.
         25    1    1    2    0    0 -0.60997721060E+02  0.11612163196E+03  0.21705705633E+02  0.18248587080E+03  0.12500000000E+03 0.  0.
         25    1    1    2    0    0 -0.70415710461E+01 -0.35673867128E+03 -0.47451772823E+02  0.38103639465E+03  0.12500000000E+03 0.  0.
</event>
<event>
 5    0  0.5619558E-005  0.2899365E+03  0.7546771E-02  0.1090382E+00
         21   -1    0    0  502  501  0.00000000000E+00  0.00000000000E+00  0.10985378465E+03  0.10985378465E+03  0.00000000000E+00 0. -1.
         21   -1    0    0  501  502 -0.00000000000E+00 -0.00000000000E+00 -0.76522804597E+03  0.76522804597E+03  0.00000000000E+00 0. -1.
         25    1    1    2    0    0  0.42077545842E+02 -0.22410363268E+01 -0.83264728038E+02  0.15599216981E+03  0.12500000000E+03 0.  0.
         25    1    1    2    0    0 -0.19514431630E+03 -0.27700113395E+02 -0.34524858815E+03  0.41673755301E+03  0.12500000000E+03 0.  0.
         25    1    1    2    0    0  0.15306677046E+03  0.29941149721E+02 -0.22686094513E+03  0.30235210780E+03  0.12500000000E+03 0.  0.
</event>
<event>
 5    0  0.5619558E-005  0.3666586E+03  0.7546771E-02  0.1055978E+00
         21   -1    0    0  502  501  0.00000000000E+00  0.00000000000E+00  0.19354091136E+04  0.19354091136E+04  0.00000000000E+00 0.  1.
         21   -1    0    0  501  502 -0.00000000000E+00 -0.00000000000E+00 -0.69462589941E+02  0.69462589941E+02  0.00000000000E+00 0.  1.
         25    1    1    2    0    0 -0.17817526144E+03  0.66487497224E+02  0.50258292981E+03  0.55170790498E+03  0.12500000000E+03 0.  0.
         25    1    1    2    0    0  0.18404586015E+03 -0.21408917831E+03  0.87359806930E+03  0.92655579518E+03  0.12500000000E+03 0.  0.
         25    1    1    2    0    0 -0.58705987080E+01  0.14760168108E+03  0.48976552456E+03  0.52660800339E+03  0.12500000000E+03 0.  0.
</event>
<event>
 5    0  0.5619558E-005  0.3157540E+03  0.7546771E-02  0.1077620E+00
         21   -1    0    0  502  501  0.00000000000E+00  0.00000000000E+00  0.71691541460E+03  0.71691541460E+03  0.00000000000E+00 0.  1.
         21   -1    0    0  501  502 -0.00000000000E+00 -0.00000000000E+00 -0.13906880047E+03  0.13906880047E+03  0.00000000000E+00 0.  1.
         25    1    1    2    0    0  0.81846048942E+02  0.66825173625E+02  0.10749645870E+03  0.19581845723E+03  0.12500000000E+03 0.  0.
         25    1    1    2    0    0 -0.22073531294E+03  0.13986814834E+02  0.20962842033E+03  0.32937635613E+03  0.12500000000E+03 0.  0.
         25    1    1    2    0    0  0.13888926400E+03 -0.80811988458E+02  0.26072173510E+03  0.33078940171E+03  0.12500000000E+03 0.  0.
</event>
<event>
 5    0  0.5619558E-005  0.2116317E+03  0.7546771E-02  0.1140280E+00
         21   -1    0    0  502  501  0.00000000000E+00  0.00000000000E+00  0.49998590736E+03  0.49998590736E+03  0.00000000000E+00 0. -1.
         21   -1    0    0  501  502 -0.00000000000E+00 -0.00000000000E+00 -0.89578441553E+02  0.89578441553E+02  0.00000000000E+00 0. -1.
         25    1    1    2    0    0 -0.16549380575E+02 -0.43023244417E+02  0.11915548137E+03  0.17873978376E+03  0.12500000000E+03 0.  0.
         25    1    1    2    0    0  0.73154789324E+02  0.24195500454E+02  0.11412665002E+03  0.18597563735E+03  0.12500000000E+03 0.  0.
         25    1    1    2    0    0 -0.56605408749E+02  0.18827743963E+02  0.17712533442E+03  0.22484892781E+03  0.12500000000E+03 0.  0.
</event>
<event>
 5    0  0.5619558E-005  0.3020815E+03  0.7546771E-02  0.1084205E+00
         21   -1    0    0  502  501  0.00000000000E+00  0.00000000000E+00  0.84526293190E+03  0.84526293190E+03  0.00000000000E+00 0. -1.
         21   -1    0    0  501  502 -0.00000000000E+00 -0.00000000000E+00 -0.10795837106E+03  0.10795837106E+03  0.00000000000E+00 0. -1.
         25    1    1    2    0    0  0.19758767506E+03  0.88115104340E+02  0.34965588153E+03  0.42975504237E+03  0.12500000000E+03 0.  0.
         25    1    1    2    0    0 -0.14159354836E+03 -0.17133238515E+02  0.26760955297E+03  0.32799718541E+03  0.12500000000E+03 0.  0.
         25    1    1    2    0    0 -0.55994126699E+02 -0.70981865825E+02  0.12003912634E+03  0.19546907518E+03  0.12500000000E+03 0.  0.
</event>
<event>
 5    0  0.5619558E-005  0.4070614E+03  0.7546771E-02  0.1041362E+00
         21   -1    0    0  502  501  0.00000000000E+00  0.00000000000E+00  0.22028081706E+03  0.22028081706E+03  0.00000000000E+00 0.  1.
         21   -1    0    0  501  502 -0.00000000000E+00 -0.00000000000E+00 -0.75221714698E+03  0.75221714698E+03  0.00000000000E+00 0.  1.
         25    1    1    2    0    0 -0.96834668810E+02 -0.35274042328E+02 -0.32394160738E+03  0.36219383779E+03  0.12500000000E+03 0.  0.
         25    1    1    2    0    0 -0.63050862348E+02  0.22671452963E+03 -0.19649248450E+03  0.33107277999E+03  0.12500000000E+03 0.  0.
         25    1    1    2    0    0  0.15988553116E+03 -0.19144048730E+03 -0.11502238041E+02  0.27923134626E+03  0.12500000000E+03 0.  0.
</event>
<event>
 5    0  0.5619558E-005  0.2866784E+03  0.7546771E-02  0.1092096E+00
         21   -1    0    0  502  501  0.00000000000E+00  0.00000000000E+00  0.60740811859E+02  0.60740811859E+02  0.00000000000E+00 0. -1.
         21   -1    0    0  501  502 -0.00000000000E+00 -0.00000000000E+00 -0.13530357649E+04  0.13530357649E+04  0.00000000000E+00 0. -1.
         25    1    1    2    0    0 -0.10743414013E+03  0.12866725970E+03 -0.61824107042E+03  0.65264414450E+03  0.12500000000E+03 0.  0.
         25    1    1    2    0    0  0.77214951919E+02 -0.51822119347E+02 -0.53323076839E+03  0.55552473681E+03  0.12500000000E+03 0.  0.
         25    1    1    2    0    0  0.30219188208E+02 -0.76845140356E+02 -0.14082311426E+03  0.20560769549E+03  0.12500000000E+03 0.  0.
</event>
<event>
 5    0  0.5619558E-005  0.2339578E+03  0.7546771E-02  0.1123885E+00
         21   -1    0    0  502  501  0.00000000000E+00  0.00000000000E+00  0.17840474155E+03  0.17840474155E+03  0.00000000000E+00 0.  1.
         21   -1    0    0  501  502 -0.00000000000E+00 -0.00000000000E+00 -0.30680928619E+03  0.30680928619E+03  0.00000000000E+00 0.  1.
         25    1    1    2    0    0 -0.25513192287E+02  0.10391629206E+03  0.16856623477E+02  0.16540454798E+03  0.12500000000E+03 0.  0.
         25    1    1    2    0    0  0.26320565637E+02 -0.68420737661E+02 -0.34251314322E+02  0.14890373417E+03  0.12500000000E+03 0.  0.
         25    1    1    2    0    0 -0.80737334978E+00 -0.35495554402E+02 -0.11100985380E+03  0.17090574559E+03  0.12500000000E+03 0.  0.
</event>
<event>
 5    0  0.5619558E-005  0.3862744E+03  0.7546771E-02  0.1048639E+00
         21   -1    0    0  502  501  0.00000000000E+00  0.00000000000E+00  0.21037047709E+03  0.21037047709E+03  0.00000000000E+00 0.  1.
         21   -1    0    0  501  502 -0.00000000000E+00 -0.00000000000E+00 -0.70926246382E+03  0.70926246382E+03  0.00000000000E+00 0.  1.
         25    1    1    2    0    0  0.17119186993E+02  0.62215480574E+02  0.79237269071E+01  0.14089577011E+03  0.12500000000E+03 0.  0.
         25    1    1    2    0    0 -0.22699635050E+03 -0.14395959430E+03 -0.40466211646E+03  0.50162549420E+03  0.12500000000E+03 0.  0.
         25    1    1    2    0    0  0.20987716351E+03  0.81744113722E+02 -0.10215359719E+03  0.27711167661E+03  0.12500000000E+03 0.  0.
</event>
<event>
 5    0  0.5619558E-005  0.3412004E+03  0.7546771E-02  0.1066286E+00
         21   -1    0    0  502  501  0.00000000000E+00  0.00000000000E+00  0.80276028344E+03  0.80276028344E+03  0.00000000000E+00 0.  1.
         21   -1    0    0  501  502 -0.00000000000E+00 -0.00000000000E+00 -0.14502176812E+03  0.14502176812E+03  0.00000000000E+00 0.  1.
         25    1    1    2    0    0  0.73013155324E+02 -0.50063417579E+02  0.26187564007E+03  0.30338279037E+03  0.12500000000E+03 0.  0.
         25    1    1    2    0    0  0.11856245559E+03  0.11328751291E+03  0.34463356826E+03  0.40160728682E+03  0.12500000000E+03 0.  0.
         25    1    1    2    0    0 -0.19157561091E+03 -0.63224095333E+02  0.51229306987E+02  0.24279197437E+03  0.12500000000E+03 0.  0.
</event>
<event>
 5    0  0.5619558E-005  0.3988638E+03  0.7546771E-02  0.1044174E+00
         21   -1    0    0  502  501  0.00000000000E+00  0.00000000000E+00  0.45726375493E+03  0.45726375493E+03  0.00000000000E+00 0. -1.
         21   -1    0    0  501  502 -0.00000000000E+00 -0.00000000000E+00 -0.34792237997E+03  0.34792237997E+03  0.00000000000E+00 0. -1.
         25    1    1    2    0    0 -0.26208199424E+03  0.11624950919E+03  0.82834607215E+02  0.32355446565E+03  0.12500000000E+03 0.  0.
         25    1    1    2    0    0  0.59655710502E+02 -0.34121241824E+02 -0.12345893315E+03  0.18865357435E+03  0.12500000000E+03 0.  0.
         25    1    1    2    0    0  0.20242628374E+03 -0.82128267364E+02  0.14996570090E+03  0.29297809491E+03  0.12500000000E+03 0.  0.
</event>
<event>
 5    0  0.5619558E-005  0.3475850E+03  0.7546771E-02  0.1063611E+00
         21   -1    0    0  502  501  0.00000000000E+00  0.00000000000E+00  0.38433376169E+03  0.38433376169E+03  0.00000000000E+00 0.  1.
         21   -1    0    0  501  502 -0.00000000000E+00 -0.00000000000E+00 -0.31435002779E+03  0.31435002779E+03  0.00000000000E+00 0.  1.
         25    1    1    2    0    0 -0.76107040081E+02  0.18244146558E+03 -0.22638860035E+02  0.23497805833E+03  0.12500000000E+03 0.  0.
         25    1    1    2    0    0  0.71908054240E+02 -0.52539867696E+02 -0.11271898657E+03  0.19042525015E+03  0.12500000000E+03 0.  0.
         25    1    1    2    0    0  0.41989858414E+01 -0.12990159788E+03  0.20534158051E+03  0.27328048101E+03  0.12500000000E+03 0.  0.
</event>
<event>
 5    0  0.5619558E-005  0.2609723E+03  0.7546771E-02  0.1106560E+00
         21   -1    0    0  502  501  0.00000000000E+00  0.00000000000E+00  0.73354224273E+03  0.73354224273E+03  0.00000000000E+00 0. -1.
         21   -1    0    0  501  502 -0.00000000000E+00 -0.00000000000E+00 -0.92846101962E+02  0.92846101962E+02  0.00000000000E+00 0. -1.
         25    1    1    2    0    0 -0.74218880026E+01 -0.59775392107E+02  0.42821540860E+03  0.45013511092E+03  0.12500000000E+03 0.  0.
         25    1    1    2    0    0 -0.22141832916E+02 -0.26847589686E+01  0.19452677982E+03  0.23229967017E+03  0.12500000000E+03 0.  0.
         25    1    1    2    0    0  0.29563720919E+02  0.62460151076E+02  0.17953952348E+02  0.14395356360E+03  0.12500000000E+03 0.  0.
</event>
<event>
 5    0  0.5619558E-005  0.2997967E+03  0.7546771E-02  0.1085342E+00
         21   -1    0    0  502  501  0.00000000000E+00  0.00000000000E+00  0.62493582695E+02  0.62493582695E+02  0.00000000000E+00 0.  1.
         21   -1    0    0  501  502 -0.00000000000E+00 -0.00000000000E+00 -0.14381967125E+04  0.14381967125E+04  0.00000000000E+00 0.  1.
         25    1    1    2    0    0 -0.32870172004E+02 -0.60195907501E+02 -0.74230712244E+02  0.16074574373E+03  0.12500000000E+03 0.  0.
         25    1    1    2    0    0  0.73931585992E+02 -0.40659579291E+02 -0.54209064193E+03  0.56267783399E+03  0.12500000000E+03 0.  0.
         25    1    1    2    0    0 -0.41061413988E+02  0.10085548679E+03 -0.75938177566E+03  0.77726671751E+03  0.12500000000E+03 0.  0.
</event>
<event>
 5    0  0.5619558E-005  0.3361400E+03  0.7546771E-02  0.1068452E+00
         21   -1    0    0  502  501  0.00000000000E+00  0.00000000000E+00  0.47564419781E+03  0.47564419781E+03  0.00000000000E+00 0.  1.
         21   -1    0    0  501  502 -0.00000000000E+00 -0.00000000000E+00 -0.23755166986E+03  0.23755166986E+03  0.00000000000E+00 0.  1.
         25    1    1    2    0    0  0.15722573245E+03  0.17314241792E+03  0.13553536991E+03  0.29781380815E+03  0.12500000000E+03 0.  0.
         25    1    1    2    0    0  0.27461704496E+02 -0.53085714399E+02 -0.85305208205E+01  0.13881645462E+03  0.12500000000E+03 0.  0.
         25    1    1    2    0    0 -0.18468743694E+03 -0.12005670352E+03  0.11108767886E+03  0.27656560491E+03  0.12500000000E+03 0.  0.
</event>
<event>
 5    0  0.5619558E-005  0.3613334E+03  0.7546771E-02  0.1058057E+00
         21   -1    0    0  502  501  0.00000000000E+00  0.00000000000E+00  0.23649887517E+03  0.23649887517E+03  0.00000000000E+00 0. -1.
         21   -1    0    0  501  502 -0.00000000000E+00 -0.00000000000E+00 -0.55206117262E+03  0.55206117262E+03  0.00000000000E+00 0. -1.
         25    1    1    2    0    0 -0.46516529589E+02  0.76325897082E+01 -0.54652944727E+02  0.14433983621E+03  0.12500000000E+03 0.  0.
         25    1    1    2    0    0  0.85746900977E+02  0.11195703688E+03 -0.38438338497E+03  0.42809169085E+03  0.12500000000E+03 0.  0.
         25    1    1    2    0    0 -0.39230371387E+02 -0.11958962659E+03  0.12347403225E+03  0.21612852072E+03  0.12500000000E+03 0.  0.
</event>
<event>
 5    0  0.5619558E-005  0.3379675E+03  0.7546771E-02  0.1067665E+00
         21   -1    0    0  502  501  0.00000000000E+00  0.00000000000E+00  0.61744191245E+02  0.61744191245E+02  0.00000000000E+00 0. -1.
         21   -1    0    0  501  502 -0.00000000000E+00 -0.00000000000E+00 -0.18499229847E+04  0.18499229847E+04  0.00000000000E+00 0. -1.
         25    1    1    2    0    0 -0.16926478425E+03 -0.16945614529E+02 -0.88184265540E+03  0.90675751440E+03  0.12500000000E+03 0.  0.
         25    1    1    2    0    0  0.10477895562E+03 -0.13766234778E+03 -0.57303491183E+03  0.61149289588E+03  0.12500000000E+03 0.  0.
         25    1    1    2    0    0  0.64485828635E+02  0.15460796231E+03 -0.33330122624E+03  0.39341676568E+03  0.12500000000E+03 0.  0.
</event>
<event>
 5    0  0.5619558E-005  0.3534847E+03  0.7546771E-02  0.1061194E+00
         21   -1    0    0  502  501  0.00000000000E+00  0.00000000000E+00  0.61637174173E+03  0.61637174173E+03  0.00000000000E+00 0.  1.
         21   -1    0    0  501  502 -0.00000000000E+00 -0.00000000000E+00 -0.20272091652E+03  0.20272091652E+03  0.00000000000E+00 0.  1.
         25    1    1    2    0    0 -0.36310033555E+02  0.27395236768E+03  0.27447769524E+03  0.40906151552E+03  0.12500000000E+03 0.  0.
         25    1    1    2    0    0  0.30151701553E+02 -0.12895543435E+03  0.11875272799E+03  0.21740708259E+03  0.12500000000E+03 0.  0.
         25    1    1    2    0    0  0.61583320024E+01 -0.14499693333E+03  0.20420401972E+02  0.19262406014E+03  0.12500000000E+03 0.  0.
</event>
<event>
 5    0  0.5619558E-005  0.5556673E+03  0.7546771E-02  0.1000191E+00
         21   -1    0    0  502  501  0.00000000000E+00  0.00000000000E+00  0.96999082871E+03  0.96999082871E+03  0.00000000000E+00 0.  1.
         21   -1    0    0  501  502 -0.00000000000E+00 -0.00000000000E+00 -0.31831865002E+03  0.31831865002E+03  0.00000000000E+00 0. -1.
         25    1    1    2    0    0 -0.34625275693E+03  0.29095166524E+03  0.25391509091E+03  0.53351824391E+03  0.12500000000E+03 0.  0.
         25    1    1    2    0    0 -0.43350572038E+02 -0.66498066950E+00  0.13273596683E+03  0.18741278288E+03  0.12500000000E+03 0.  0.
         25    1    1    2    0    0  0.38960332897E+03 -0.29028668457E+03  0.26502112095E+03  0.56737845195E+03  0.12500000000E+03 0.  0.
</event>
<event>
 5    0  0.5619558E-005  0.2802059E+03  0.7546771E-02  0.1095577E+00
         21   -1    0    0  502  501  0.00000000000E+00  0.00000000000E+00  0.14615725949E+04  0.14615725949E+04  0.00000000000E+00 0.  1.
         21   -1    0    0  501  502 -0.00000000000E+00 -0.00000000000E+00 -0.53719789292E+02  0.53719789292E+02  0.00000000000E+00 0.  1.
         25    1    1    2    0    0  0.11362156262E+03  0.45917720966E+02  0.33349582832E+03  0.37664673648E+03  0.12500000000E+03 0.  0.
         25    1    1    2    0    0 -0.24087630253E+01 -0.13247470376E+03  0.63495756007E+03  0.66056903679E+03  0.12500000000E+03 0.  0.
         25    1    1    2    0    0 -0.11121279959E+03  0.86556982794E+02  0.43939941719E+03  0.47807661090E+03  0.12500000000E+03 0.  0.
</event>
<event>
 5    0  0.5619558E-005  0.2968682E+03  0.7546771E-02  0.1086817E+00
         21   -1    0    0  502  501  0.00000000000E+00  0.00000000000E+00  0.41229305725E+03  0.41229305725E+03  0.00000000000E+00 0.  1.
         21   -1    0    0  501  502 -0.00000000000E+00 -0.00000000000E+00 -0.21375755654E+03  0.21375755654E+03  0.00000000000E+00 0.  1.
         25    1    1    2    0    0  0.29669314843E+02  0.32835576469E+02  0.51844995245E+02  0.14237748016E+03  0.12500000000E+03 0.  0.
         25    1    1    2    0    0 -0.68109524340E+02  0.12767677965E+03  0.19281287326E+03  0.27155491427E+03  0.12500000000E+03 0.  0.
         25    1    1    2    0    0  0.38440209497E+02 -0.16051235612E+03 -0.46122367787E+02  0.21211821936E+03  0.12500000000E+03 0.  0.
</event>
<event>
 5    0  0.5619558E-005  0.2494508E+03  0.7546771E-02  0.1113652E+00
         21   -1    0    0  502  501  0.00000000000E+00  0.00000000000E+00  0.56540252524E+02  0.56540252524E+02  0.00000000000E+00 0. -1.
         21   -1    0    0  501  502 -0.00000000000E+00 -0.00000000000E+00 -0.11005561851E+04  0.11005561851E+04  0.00000000000E+00 0. -1.
         25    1    1    2    0    0 -0.32440029227E+01 -0.12338422458E+03 -0.52739536139E+03  0.55588223361E+03  0.12500000000E+03 0.  0.
         25    1    1    2    0    0 -0.33869024796E+02  0.70208118025E+02 -0.36841695667E+03  0.39677744977E+03  0.12500000000E+03 0.  0.
         25    1    1    2    0    0  0.37113027718E+02  0.53176106560E+02 -0.14820361454E+03  0.20443675428E+03  0.12500000000E+03 0.  0.
</event>
<event>
 5    0  0.5879390E-005  0.3953916E+03  0.7546771E-02  0.1045387E+00
         21   -1    0    0  502  501  0.00000000000E+00  0.00000000000E+00  0.17851810007E+03  0.17851810007E+03  0.00000000000E+00 0. -1.
         21   -1    0    0  501  502 -0.00000000000E+00 -0.00000000000E+00 -0.87573503821E+03  0.87573503821E+03  0.00000000000E+00 0. -1.
         25    1    1    2    0    0 -0.70504941350E+02 -0.12445539806E+03 -0.49827552448E+03  0.53325752799E+03  0.12500000000E+03 0.  0.
         25    1    1    2    0    0 -0.10518712126E+03  0.15355293714E+03 -0.20434019850E+03  0.30335252052E+03  0.12500000000E+03 0.  0.
         25    1    1    2    0    0  0.17569206261E+03 -0.29097539081E+02  0.53987848452E+01  0.21764308976E+03  0.12500000000E+03 0.  0.
</event>
<event>
 5    0  0.5619558E-005  0.2519386E+03  0.7546771E-02  0.1112086E+00
         21   -1    0    0  502  501  0.00000000000E+00  0.00000000000E+00  0.77475308999E+02  0.77475308999E+02  0.00000000000E+00 0. -1.
         21   -1    0    0  501  502 -0.00000000000E+00 -0.00000000000E+00 -0.81926807846E+03  0.81926807846E+03  0.00000000000E+00 0. -1.
         25    1    1    2    0    0  0.47421797285E+02  0.71307613460E+01 -0.86226690441E+02  0.15924734459E+03  0.12500000000E+03 0.  0.
         25    1    1    2    0    0  0.74420142203E+02  0.11720264953E+02 -0.18765222219E+03  0.23772689934E+03  0.12500000000E+03 0.  0.
         25    1    1    2    0    0 -0.12184193949E+03 -0.18851026299E+02 -0.46791385683E+03  0.49976914353E+03  0.12500000000E+03 0.  0.
</event>
<event>
 5    0  0.5619558E-005  0.6798047E+03  0.7546771E-02  0.9752406E-01
         21   -1    0    0  502  501  0.00000000000E+00  0.00000000000E+00  0.42088180412E+03  0.42088180412E+03  0.00000000000E+00 0. -1.
         21   -1    0    0  501  502 -0.00000000000E+00 -0.00000000000E+00 -0.10980147367E+04  0.10980147367E+04  0.00000000000E+00 0. -1.
         25    1    1    2    0    0  0.18028951301E+03 -0.20253114390E+03 -0.87102045725E+02  0.31102240936E+03  0.12500000000E+03 0.  0.
         25    1    1    2    0    0 -0.36154714519E+03  0.40560366448E+03 -0.69453558743E+03  0.89063761039E+03  0.12500000000E+03 0.  0.
         25    1    1    2    0    0  0.18125763217E+03 -0.20307252058E+03  0.10450470061E+03  0.31723652104E+03  0.12500000000E+03 0.  0.
</event>
<event>
 5    0  0.5619558E-005  0.2653460E+03  0.7546771E-02  0.1103973E+00
         21   -1    0    0  502  501  0.00000000000E+00  0.00000000000E+00  0.13225012267E+04  0.13225012267E+04  0.00000000000E+00 0.  1.
         21   -1    0    0  501  502 -0.00000000000E+00 -0.00000000000E+00 -0.53238893543E+02  0.53238893543E+02  0.00000000000E+00 0.  1.
         25    1    1    2    0    0 -0.49983112190E+01 -0.11412455488E+03  0.37830665632E+03  0.41447596234E+03  0.12500000000E+03 0.  0.
         25    1    1    2    0    0  0.80758853754E+02  0.11832888063E+03  0.66882118860E+03  0.69532042884E+03  0.12500000000E+03 0.  0.
         25    1    1    2    0    0 -0.75760542535E+02 -0.42043257518E+01  0.22213448825E+03  0.26594372906E+03  0.12500000000E+03 0.  0.
</event>
<event>
 5    0  0.5661250E-005  0.2952624E+03  0.7546771E-02  0.1087633E+00
         21   -1    0    0  502  501  0.00000000000E+00  0.00000000000E+00  0.68581450288E+03  0.68581450288E+03  0.00000000000E+00 0. -1.
         21   -1    0    0  501  502 -0.00000000000E+00 -0.00000000000E+00 -0.12711878692E+03  0.12711878692E+03  0.00000000000E+00 0. -1.
         25    1    1    2    0    0  0.56481878775E+02 -0.19475126935E+03  0.28596619075E+03  0.37218264575E+03  0.12500000000E+03 0.  0.
         25    1    1    2    0    0  0.23036450429E+02  0.13324584323E+03  0.16730294220E+03  0.24879792454E+03  0.12500000000E+03 0.  0.
         25    1    1    2    0    0 -0.79518329204E+02  0.61505426122E+02  0.10542658301E+03  0.19195271951E+03  0.12500000000E+03 0.  0.
</event>
<event>
 5    0  0.5619558E-005  0.4689029E+03  0.7546771E-02  0.1022230E+00
         21   -1    0    0  502  501  0.00000000000E+00  0.00000000000E+00  0.84319114935E+02  0.84319114935E+02  0.00000000000E+00 0.  1.
         21   -1    0    0  501  502 -0.00000000000E+00 -0.00000000000E+00 -0.26075926140E+04  0.26075926140E+04  0.00000000000E+00 0.  1.
         25    1    1    2    0    0  0.37305022658E+02  0.47202349073E+01 -0.15119612593E+03  0.19974787565E+03  0.12500000000E+03 0.  0.
         25    1    1    2    0    0  0.17741979866E+03 -0.28486002770E+03 -0.15169306464E+04  0.15586297208E+04  0.12500000000E+03 0.  0.
         25    1    1    2    0    0 -0.21472482131E+03  0.28013979279E+03 -0.85514672668E+03  0.93353413250E+03  0.12500000000E+03 0.  0.
</event>
<event>
 5    0  0.5619558E-005  0.3925724E+03  0.7546771E-02  0.1046382E+00
         21   -1    0    0  502  501  0.00000000000E+00  0.00000000000E+00  0.58922857835E+03  0.58922857835E+03  0.00000000000E+00 0. -1.
         21   -1    0    0  501  502 -0.00000000000E+00 -0.00000000000E+00 -0.26155063081E+03  0.26155063081E+03  0.00000000000E+00 0. -1.
         25    1    1    2    0    0 -0.13235126637E+03  0.57849074414E+02  0.10543473915E+03  0.21818537380E+03  0.12500000000E+03 0.  0.
         25    1    1    2    0    0 -0.71870479917E+02 -0.73912391937E+01  0.33378471300E+03  0.36367187262E+03  0.12500000000E+03 0.  0.
         25    1    1    2    0    0  0.20422174629E+03 -0.50457835220E+02 -0.11154150461E+03  0.26892196274E+03  0.12500000000E+03 0.  0.
</event>
<event>
 5    0  0.5619558E-005  0.2483101E+03  0.7546771E-02  0.1114378E+00
         21   -1    0    0  502  501  0.00000000000E+00  0.00000000000E+00  0.93982558616E+03  0.93982558616E+03  0.00000000000E+00 0. -1.
         21   -1    0    0  501  502 -0.00000000000E+00 -0.00000000000E+00 -0.65605666511E+02  0.65605666511E+02  0.00000000000E+00 0. -1.
         25    1    1    2    0    0  0.78326404556E+01 -0.26501277166E+02  0.24597867099E+03  0.27729798869E+03  0.12500000000E+03 0.  0.
         25    1    1    2    0    0 -0.55190220273E+02 -0.11120126590E+03  0.29829874325E+03  0.34643732792E+03  0.12500000000E+03 0.  0.
         25    1    1    2    0    0  0.47357579817E+02  0.13770254306E+03  0.32994250540E+03  0.38169593606E+03  0.12500000000E+03 0.  0.
</event>
<event>
 5    0  0.5619558E-005  0.2655839E+03  0.7546771E-02  0.1103834E+00
         21   -1    0    0  502  501  0.00000000000E+00  0.00000000000E+00  0.13933022843E+03  0.13933022843E+03  0.00000000000E+00 0. -1.
         21   -1    0    0  501  502 -0.00000000000E+00 -0.00000000000E+00 -0.50624200810E+03  0.50624200810E+03  0.00000000000E+00 0. -1.
         25    1    1    2    0    0 -0.39370459634E+02  0.17103991511E+03 -0.19176502485E+03  0.28845018705E+03  0.12500000000E+03 0.  0.
         25    1    1    2    0    0 -0.48865325107E+01 -0.80540460061E+02 -0.10397150647E+03  0.18150955364E+03  0.12500000000E+03 0.  0.
         25    1    1    2    0    0  0.44256992145E+02 -0.90499455051E+02 -0.71175248360E+02  0.17561249585E+03  0.12500000000E+03 0.  0.
</event>
<event>
 5    0  0.5619558E-005  0.3826844E+03  0.7546771E-02  0.1049946E+00
         21   -1    0    0  502  501  0.00000000000E+00  0.00000000000E+00  0.27218293146E+03  0.27218293146E+03  0.00000000000E+00 0.  1.
         21   -1    0    0  501  502 -0.00000000000E+00 -0.00000000000E+00 -0.53804744205E+03  0.53804744205E+03  0.00000000000E+00 0.  1.
         25    1    1    2    0    0  0.63869205492E+02 -0.96632228424E+02 -0.19720002565E+03  0.26063367606E+03  0.12500000000E+03 0.  0.
         25    1    1    2    0    0  0.26752128047E+02  0.13999567546E+03 -0.24595489260E+03  0.31053707459E+03  0.12500000000E+03 0.  0.
         25    1    1    2    0    0 -0.90621333539E+02 -0.43363447039E+02  0.17729040766E+03  0.23905962286E+03  0.12500000000E+03 0.  0.
</event>
<event>
 5    0  0.5619558E-005  0.3084169E+03  0.7546771E-02  0.1081107E+00
         21   -1    0    0  502  501  0.00000000000E+00  0.00000000000E+00  0.17013683032E+03  0.17013683032E+03  0.00000000000E+00 0.  1.
         21   -1    0    0  501  502 -0.00000000000E+00 -0.00000000000E+00 -0.55908513478E+03  0.55908513478E+03  0.00000000000E+00 0.  1.
         25    1    1    2    0    0 -0.30561336420E+02 -0.18830422938E+02 -0.41090753073E+03  0.43099719131E+03  0.12500000000E+03 0.  0.
         25    1    1    2    0    0 -0.30122994028E+00  0.27683690739E+01  0.87745828287E+02  0.15274843694E+03  0.12500000000E+03 0.  0.
         25    1    1    2    0    0  0.30862566360E+02  0.16062053864E+02 -0.65786602014E+02  0.14547633684E+03  0.12500000000E+03 0.  0.
</event>
<event>
 5    0  0.5619558E-005  0.3382655E+03  0.7546771E-02  0.1067537E+00
         21   -1    0    0  502  501  0.00000000000E+00  0.00000000000E+00  0.30261294203E+03  0.30261294203E+03  0.00000000000E+00 0. -1.
         21   -1    0    0  501  502 -0.00000000000E+00 -0.00000000000E+00 -0.37811846257E+03  0.37811846257E+03  0.00000000000E+00 0. -1.
         25    1    1    2    0    0  0.18843608465E+03 -0.32036184987E+02  0.43193472205E+01  0.22842533114E+03  0.12500000000E+03 0.  0.
         25    1    1    2    0    0  0.61379066625E+02 -0.57418325865E+02 -0.43263523023E+02  0.15671945122E+03  0.12500000000E+03 0.  0.
         25    1    1    2    0    0 -0.24981515128E+03  0.89454510851E+02 -0.36561344731E+02  0.29558662224E+03  0.12500000000E+03 0.  0.
</event>
<event>
 5    0  0.6472360E-005  0.3695848E+03  0.7546771E-02  0.1054852E+00
         21   -1    0    0  502  501  0.00000000000E+00  0.00000000000E+00  0.23665455601E+03  0.23665455601E+03  0.00000000000E+00 0.  1.
         21   -1    0    0  501  502 -0.00000000000E+00 -0.00000000000E+00 -0.57718282821E+03  0.57718282821E+03  0.00000000000E+00 0.  1.
         25    1    1    2    0    0  0.55378750617E+01 -0.18746350144E+03 -0.11395221462E+03  0.25255363717E+03  0.12500000000E+03 0.  0.
         25    1    1    2    0    0  0.12669329431E+03  0.34184610611E+00 -0.24132933878E+03  0.29986022984E+03  0.12500000000E+03 0.  0.
         25    1    1    2    0    0 -0.13223116937E+03  0.18712165533E+03  0.14753281203E+02  0.26142351722E+03  0.12500000000E+03 0.  0.
</event>
<event>
 5    0  0.5619558E-005  0.3182710E+03  0.7546771E-02  0.1076448E+00
         21   -1    0    0  502  501  0.00000000000E+00  0.00000000000E+00  0.10476905680E+04  0.10476905680E+04  0.00000000000E+00 0. -1.
         21   -1    0    0  501  502 -0.00000000000E+00 -0.00000000000E+00 -0.96685463152E+02  0.96685463152E+02  0.00000000000E+00 0. -1.
         25    1    1    2    0    0 -0.15939614402E+03  0.64552129446E+02  0.38863443254E+03  0.44298513553E+03  0.12500000000E+03 0.  0.
         25    1    1    2    0    0 -0.46931694228E+02  0.47316831851E+01  0.34278978482E+03  0.36790597892E+03  0.12500000000E+03 0.  0.
         25    1    1    2    0    0  0.20632783825E+03 -0.69283812631E+02  0.21958088753E+03  0.33348491675E+03  0.12500000000E+03 0.  0.
</event>
<event>
 5    0  0.5619558E-005  0.4372299E+03  0.7546771E-02  0.1031600E+00
         21   -1    0    0  502  501  0.00000000000E+00  0.00000000000E+00  0.66048556243E+03  0.66048556243E+03  0.00000000000E+00 0.  1.
         21   -1    0    0  501  502 -0.00000000000E+00 -0.00000000000E+00 -0.28943859357E+03  0.28943859357E+03  0.00000000000E+00 0.  1.
         25    1    1    2    0    0  0.16581824431E+03 -0.89322472635E+02  0.44704845864E+02  0.23042941979E+03  0.12500000000E+03 0.  0.
         25    1    1    2    0    0 -0.34128141759E+03 -0.33102804315E+02  0.87423680319E+02  0.37528216255E+03  0.12500000000E+03 0.  0.
         25    1    1    2    0    0  0.17546317328E+03  0.12242527695E+03  0.23891844267E+03  0.34421257366E+03  0.12500000000E+03 0.  0.
</event>
<event>
 5    0  0.5619558E-005  0.2492652E+03  0.7546771E-02  0.1113770E+00
         21   -1    0    0  502  501  0.00000000000E+00  0.00000000000E+00  0.83987115209E+02  0.83987115209E+02  0.00000000000E+00 0. -1.
         21   -1    0    0  501  502 -0.00000000000E+00 -0.00000000000E+00 -0.73979368289E+03  0.73979368289E+03  0.00000000000E+00 0. -1.
         25    1    1    2    0    0 -0.98727729788E+01 -0.59443512326E+02 -0.12421839292E+03  0.18624234734E+03  0.12500000000E+03 0.  0.
         25    1    1    2    0    0 -0.77774115984E+02  0.10784679882E+03 -0.20957457523E+03  0.27789610957E+03  0.12500000000E+03 0.  0.
         25    1    1    2    0    0  0.87646888963E+02 -0.48403286496E+02 -0.32201359953E+03  0.35964234118E+03  0.12500000000E+03 0.  0.
</event>
<event>
 5    0  0.5619558E-005  0.2929907E+03  0.7546771E-02  0.1088798E+00
         21   -1    0    0  502  501  0.00000000000E+00  0.00000000000E+00  0.56234765045E+03  0.56234765045E+03  0.00000000000E+00 0.  1.
         21   -1    0    0  501  502 -0.00000000000E+00 -0.00000000000E+00 -0.15265214097E+03  0.15265214097E+03  0.00000000000E+00 0.  1.
         25    1    1    2    0    0  0.68110801382E+02 -0.13084210355E+03  0.48992938285E+01  0.19341080737E+03  0.12500000000E+03 0.  0.
         25    1    1    2    0    0 -0.14689851689E+02  0.12184318126E+02  0.78814238953E+02  0.14899977722E+03  0.12500000000E+03 0.  0.
         25    1    1    2    0    0 -0.53420949692E+02  0.11865778542E+03  0.32598197671E+03  0.37258920683E+03  0.12500000000E+03 0.  0.
</event>
<event>
 5    0  0.5619558E-005  0.2483649E+03  0.7546771E-02  0.1114343E+00
         21   -1    0    0  502  501  0.00000000000E+00  0.00000000000E+00  0.49158795731E+03  0.49158795731E+03  0.00000000000E+00 0.  1.
         21   -1    0    0  501  502 -0.00000000000E+00 -0.00000000000E+00 -0.12548133107E+03  0.12548133107E+03  0.00000000000E+00 0.  1.
         25    1    1    2    0    0 -0.56889163899E+01 -0.25415207605E+02 -0.11823642527E+02  0.12823063234E+03  0.12500000000E+03 0.  0.
         25    1    1    2    0    0  0.93078718861E+02  0.85183046247E+01  0.20469837841E+03  0.25741529780E+03  0.12500000000E+03 0.  0.
         25    1    1    2    0    0 -0.87389802471E+02  0.16896902980E+02  0.17323189036E+03  0.23142335825E+03  0.12500000000E+03 0.  0.
</event>
<event>
 5    0  0.5619558E-005  0.5419844E+03  0.7546771E-02  0.1003366E+00
         21   -1    0    0  502  501  0.00000000000E+00  0.00000000000E+00  0.48005522177E+03  0.48005522177E+03  0.00000000000E+00 0.  1.
         21   -1    0    0  501  502 -0.00000000000E+00 -0.00000000000E+00 -0.61190272375E+03  0.61190272375E+03  0.00000000000E+00 0.  1.
         25    1    1    2    0    0 -0.31689154294E+03  0.62732736698E+02 -0.19671437696E+03  0.39834305861E+03  0.12500000000E+03 0.  0.
         25    1    1    2    0    0  0.40231850553E+03  0.10023828270E+03  0.14575011053E+03  0.45692011110E+03  0.12500000000E+03 0.  0.
         25    1    1    2    0    0 -0.85426962595E+02 -0.16297101940E+03 -0.80883235559E+02  0.23669477581E+03  0.12500000000E+03 0.  0.
</event>
<event>
 5    0  0.5619558E-005  0.3173650E+03  0.7546771E-02  0.1076868E+00
         21   -1    0    0  502  501  0.00000000000E+00  0.00000000000E+00  0.78628294515E+02  0.78628294515E+02  0.00000000000E+00 0. -1.
         21   -1    0    0  501  502 -0.00000000000E+00 -0.00000000000E+00 -0.12809710543E+04  0.12809710543E+04  0.00000000000E+00 0. -1.
         25    1    1    2    0    0  0.37995818083E+02  0.13560655938E+03 -0.48911259042E+03  0.52410776301E+03  0.12500000000E+03 0.  0.
         25    1    1    2    0    0  0.80897118853E+02  0.34021409973E+01 -0.89906449405E+02  0.17396576688E+03  0.12500000000E+03 0.  0.
         25    1    1    2    0    0 -0.11889293694E+03 -0.13900870038E+03 -0.62332371993E+03  0.66152581889E+03  0.12500000000E+03 0.  0.
</event>
<event>
 5    0  0.5619558E-005  0.4500183E+03  0.7546771E-02  0.1027717E+00
         21   -1    0    0  502  501  0.00000000000E+00  0.00000000000E+00  0.48091648775E+03  0.48091648775E+03  0.00000000000E+00 0. -1.
         21   -1    0    0  501  502 -0.00000000000E+00 -0.00000000000E+00 -0.42110520105E+03  0.42110520105E+03  0.00000000000E+00 0. -1.
         25    1    1    2    0    0  0.14985961683E+03 -0.21951449993E+03 -0.22627772506E+03  0.37077099306E+03  0.12500000000E+03 0.  0.
         25    1    1    2    0    0  0.53043144715E+02  0.13288726094E+03  0.87524601465E+02  0.20918450034E+03  0.12500000000E+03 0.  0.
         25    1    1    2    0    0 -0.20290276155E+03  0.86627238990E+02  0.19856441030E+03  0.32206619539E+03  0.12500000000E+03 0.  0.
</event>
<event>
 5    0  0.5619558E-005  0.3249654E+03  0.7546771E-02  0.1073386E+00
         21   -1    0    0  502  501  0.00000000000E+00  0.00000000000E+00  0.14621942619E+03  0.14621942619E+03  0.00000000000E+00 0. -1.
         21   -1    0    0  501  502 -0.00000000000E+00 -0.00000000000E+00 -0.72221951870E+03  0.72221951870E+03  0.00000000000E+00 0. -1.
         25    1    1    2    0    0 -0.10266390466E+03 -0.90111979188E+02 -0.25215490801E+03  0.31283724802E+03  0.12500000000E+03 0.  0.
         25    1    1    2    0    0  0.13475165574E+03  0.24151924848E+02 -0.36114571274E+03  0.40594648665E+03  0.12500000000E+03 0.  0.
         25    1    1    2    0    0 -0.32087751080E+02  0.65960054340E+02  0.37300528242E+02  0.14965521022E+03  0.12500000000E+03 0.  0.
</event>
<event>
 5    0  0.5619558E-005  0.2139982E+03  0.7546771E-02  0.1138438E+00
         21   -1    0    0  502  501  0.00000000000E+00  0.00000000000E+00  0.62681857239E+02  0.62681857239E+02  0.00000000000E+00 0. -1.
         21   -1    0    0  501  502 -0.00000000000E+00 -0.00000000000E+00 -0.73059774510E+03  0.73059774510E+03  0.00000000000E+00 0. -1.
         25    1    1    2    0    0  0.31537755703E+02  0.31710069036E+02 -0.24172894492E+03  0.27578622396E+03  0.12500000000E+03 0.  0.
         25    1    1    2    0    0  0.53200063819E+02 -0.19898705439E+02 -0.15660825270E+03  0.20827229793E+03  0.12500000000E+03 0.  0.
         25    1    1    2    0    0 -0.84737819521E+02 -0.11811363597E+02 -0.26957869023E+03  0.30922108045E+03  0.12500000000E+03 0.  0.
</event>
<event>
 5    0  0.5619558E-005  0.2853815E+03  0.7546771E-02  0.1092785E+00
         21   -1    0    0  502  501  0.00000000000E+00  0.00000000000E+00  0.18006363858E+03  0.18006363858E+03  0.00000000000E+00 0.  1.
         21   -1    0    0  501  502 -0.00000000000E+00 -0.00000000000E+00 -0.45229882423E+03  0.45229882423E+03  0.00000000000E+00 0.  1.
         25    1    1    2    0    0 -0.75054321186E+02  0.17938650755E+03 -0.15179515787E+03  0.27654916412E+03  0.12500000000E+03 0.  0.
         25    1    1    2    0    0  0.14354485416E+02 -0.31041989266E+02 -0.65763921474E+02  0.14532566778E+03  0.12500000000E+03 0.  0.
         25    1    1    2    0    0  0.60699835770E+02 -0.14834451828E+03 -0.54676106298E+02  0.21048763091E+03  0.12500000000E+03 0.  0.
</event>
<event>
 5    0  0.5619558E-005  0.3248843E+03  0.7546771E-02  0.1073423E+00
         21   -1    0    0  502  501  0.00000000000E+00  0.00000000000E+00  0.40905908754E+03  0.40905908754E+03  0.00000000000E+00 0.  1.
         21   -1    0    0  501  502 -0.00000000000E+00 -0.00000000000E+00 -0.25803068194E+03  0.25803068194E+03  0.00000000000E+00 0.  1.
         25    1    1    2    0    0 -0.13775609016E+03 -0.75781669469E+02  0.12920447155E+02  0.20127478669E+03  0.12500000000E+03 0.  0.
         25    1    1    2    0    0 -0.77468919865E+02  0.74268786172E+02 -0.27262781978E+02  0.16698965664E+03  0.12500000000E+03 0.  0.
         25    1    1    2    0    0  0.21522501003E+03  0.15128832966E+01  0.16537074042E+03  0.29882532614E+03  0.12500000000E+03 0.  0.
</event>
<event>
 5    0  0.5619558E-005  0.4314132E+03  0.7546771E-02  0.1033414E+00
         21   -1    0    0  502  501  0.00000000000E+00  0.00000000000E+00  0.91017267119E+03  0.91017267119E+03  0.00000000000E+00 0. -1.
         21   -1    0    0  501  502 -0.00000000000E+00 -0.00000000000E+00 -0.20448575070E+03  0.20448575070E+03  0.00000000000E+00 0. -1.
         25    1    1    2    0    0 -0.12732607090E+03 -0.23801059033E+03  0.31352021540E+03  0.43218155317E+03  0.12500000000E+03 0.  0.
         25    1    1    2    0    0  0.17832963724E+03  0.27470442918E+03  0.41224319179E+03  0.54114086161E+03  0.12500000000E+03 0.  0.
         25    1    1    2    0    0 -0.51003566344E+02 -0.36693838844E+02 -0.20076486693E+02  0.14133600711E+03  0.12500000000E+03 0.  0.
</event>
<event>
 5    0  0.5619558E-005  0.2648353E+03  0.7546771E-02  0.1104272E+00
         21   -1    0    0  502  501  0.00000000000E+00  0.00000000000E+00  0.92950326179E+03  0.92950326179E+03  0.00000000000E+00 0. -1.
         21   -1    0    0  501  502 -0.00000000000E+00 -0.00000000000E+00 -0.75457202125E+02  0.75457202125E+02  0.00000000000E+00 0. -1.
         25    1    1    2    0    0 -0.34641646333E+02 -0.15416547157E+03  0.30725732886E+03  0.36742223997E+03  0.12500000000E+03 0.  0.
         25    1    1    2    0    0 -0.35794823340E+01  0.82708485868E+02  0.40507161432E+03  0.43192767803E+03  0.12500000000E+03 0.  0.
         25    1    1    2    0    0  0.38221128667E+02  0.71456985707E+02  0.14171711649E+03  0.20561054591E+03  0.12500000000E+03 0.  0.
</event>
<event>
 5    0  0.5619558E-005  0.3528768E+03  0.7546771E-02  0.1061440E+00
         21   -1    0    0  502  501  0.00000000000E+00  0.00000000000E+00  0.19789342698E+03  0.19789342698E+03  0.00000000000E+00 0.  1.
         21   -1    0    0  501  502 -0.00000000000E+00 -0.00000000000E+00 -0.62923784650E+03  0.62923784650E+03  0.00000000000E+00 0. -1.
         25    1    1    2    0    0  0.12657604729E+03 -0.56358112676E+02  0.10422021759E+03  0.21373952925E+03  0.12500000000E+03 0.  0.
         25    1    1    2    0    0 -0.61090396216E+02  0.59104414099E+02 -0.21190486796E+03  0.26029606478E+03  0.12500000000E+03 0.  0.
         25    1    1    2    0    0 -0.65485651069E+02 -0.27463014235E+01 -0.32365976917E+03  0.35309567945E+03  0.12500000000E+03 0.  0.
</event>
<event>
 5    0  0.5619558E-005  0.2188083E+03  0.7546771E-02  0.1134775E+00
         21   -1    0    0  502  501  0.00000000000E+00  0.00000000000E+00  0.19465547069E+03  0.19465547069E+03  0.00000000000E+00 0. -1.
         21   -1    0    0  501  502 -0.00000000000E+00 -0.00000000000E+00 -0.24595796679E+03  0.24595796679E+03  0.00000000000E+00 0. -1.
         25    1    1    2    0    0  0.68978782712E+02  0.35055931269E+02  0.39520663938E+01  0.14706328437E+03  0.12500000000E+03 0.  0.
         25    1    1    2    0    0 -0.48733606144E+02  0.39730726720E+02 -0.12944963470E+02  0.14052069987E+03  0.12500000000E+03 0.  0.
         25    1    1    2    0    0 -0.20245176568E+02 -0.74786657989E+02 -0.42309599026E+02  0.15302945323E+03  0.12500000000E+03 0.  0.
</event>
<event>
 5    0  0.5619558E-005  0.4371561E+03  0.7546771E-02  0.1031623E+00
         21   -1    0    0  502  501  0.00000000000E+00  0.00000000000E+00  0.92234724093E+02  0.92234724093E+02  0.00000000000E+00 0. -1.
         21   -1    0    0  501  502 -0.00000000000E+00 -0.00000000000E+00 -0.20719473151E+04  0.20719473151E+04  0.00000000000E+00 0. -1.
         25    1    1    2    0    0 -0.14722344819E+03 -0.25694527015E+03 -0.58361169423E+03  0.66627563755E+03  0.12500000000E+03 0.  0.
         25    1    1    2    0    0 -0.11255440886E+02  0.15566310876E+03 -0.11359343423E+04  0.11533991150E+04  0.12500000000E+03 0.  0.
         25    1    1    2    0    0  0.15847888908E+03  0.10128216139E+03 -0.26016655443E+03  0.34450728663E+03  0.12500000000E+03 0.  0.
</event>
<event>
 5    0  0.5619558E-005  0.2770002E+03  0.7546771E-02  0.1097339E+00
         21   -1    0    0  502  501  0.00000000000E+00  0.00000000000E+00  0.20563646356E+03  0.20563646356E+03  0.00000000000E+00 0.  1.
         21   -1    0    0  501  502 -0.00000000000E+00 -0.00000000000E+00 -0.37312975819E+03  0.37312975819E+03  0.00000000000E+00 0.  1.
         25    1    1    2    0    0  0.95323612725E+02 -0.11763591358E+03 -0.22279913525E+02  0.19760109780E+03  0.12500000000E+03 0.  0.
         25    1    1    2    0    0 -0.58657014215E+02  0.12939095645E+03 -0.16224971501E+03  0.24926418706E+03  0.12500000000E+03 0.  0.
         25    1    1    2    0    0 -0.36666598511E+02 -0.11755042875E+02  0.17036333905E+02  0.13190093689E+03  0.12500000000E+03 0.  0.
</event>
<event>
 5    0  0.5619558E-005  0.2389191E+03  0.7546771E-02  0.1120515E+00
         21   -1    0    0  502  501  0.00000000000E+00  0.00000000000E+00  0.19434668425E+03  0.19434668425E+03  0.00000000000E+00 0. -1.
         21   -1    0    0  501  502 -0.00000000000E+00 -0.00000000000E+00 -0.29371385404E+03  0.29371385404E+03  0.00000000000E+00 0. -1.
         25    1    1    2    0    0  0.19119140973E+02  0.92782385320E+02 -0.65316648086E+02  0.16989813741E+03  0.12500000000E+03 0.  0.
         25    1    1    2    0    0  0.68237761056E+02 -0.79649110079E+02 -0.21523266572E+02  0.16458621988E+03  0.12500000000E+03 0.  0.
         25    1    1    2    0    0 -0.87356902029E+02 -0.13133275241E+02 -0.12527255129E+02  0.15357618100E+03  0.12500000000E+03 0.  0.
</event>
<event>
 5    0  0.5619558E-005  0.2419275E+03  0.7546771E-02  0.1118515E+00
         21   -1    0    0  502  501  0.00000000000E+00  0.00000000000E+00  0.52306198397E+03  0.52306198397E+03  0.00000000000E+00 0.  1.
         21   -1    0    0  501  502 -0.00000000000E+00 -0.00000000000E+00 -0.11189671843E+03  0.11189671843E+03  0.00000000000E+00 0.  1.
         25    1    1    2    0    0  0.11712778439E+03  0.51720063853E+02  0.83317596869E+02  0.19738466209E+03  0.12500000000E+03 0.  0.
         25    1    1    2    0    0 -0.62576562018E+02 -0.61400658027E+02  0.18437939139E+03  0.23938802579E+03  0.12500000000E+03 0.  0.
         25    1    1    2    0    0 -0.54551222375E+02  0.96805941740E+01  0.14346827728E+03  0.19818601452E+03  0.12500000000E+03 0.  0.
</event>
<event>
 5    0  0.5619558E-005  0.2347264E+03  0.7546771E-02  0.1123357E+00
         21   -1    0    0  502  501  0.00000000000E+00  0.00000000000E+00  0.50457433150E+02  0.50457433150E+02  0.00000000000E+00 0. -1.
         21   -1    0    0  501  502 -0.00000000000E+00 -0.00000000000E+00 -0.10919402442E+04  0.10919402442E+04  0.00000000000E+00 0. -1.
         25    1    1    2    0    0  0.92490968878E+02  0.22616136356E+02 -0.59410562863E+03  0.61453443102E+03  0.12500000000E+03 0.  0.
         25    1    1    2    0    0 -0.58706041348E+02 -0.49894080776E+02 -0.25751636712E+03  0.29643801700E+03  0.12500000000E+03 0.  0.
         25    1    1    2    0    0 -0.33784927531E+02  0.27277944420E+02 -0.18986081528E+03  0.23142522931E+03  0.12500000000E+03 0.  0.
</event>
<event>
 5    0  0.5619558E-005  0.2997050E+03  0.7546771E-02  0.1085388E+00
         21   -1    0    0  502  501  0.00000000000E+00  0.00000000000E+00  0.58279726396E+02  0.58279726396E+02  0.00000000000E+00 0.  1.
         21   -1    0    0  501  502 -0.00000000000E+00 -0.00000000000E+00 -0.15412409346E+04  0.15412409346E+04  0.00000000000E+00 0.  1.
         25    1    1    2    0    0 -0.14723700877E+02  0.38549062547E+02 -0.23311588498E+03  0.26771408894E+03  0.12500000000E+03 0.  0.
         25    1    1    2    0    0  0.14753621352E+03  0.88649784126E+02 -0.82866643363E+03  0.85553420549E+03  0.12500000000E+03 0.  0.
         25    1    1    2    0    0 -0.13281251264E+03 -0.12719884667E+03 -0.42117888955E+03  0.47627236652E+03  0.12500000000E+03 0.  0.
</event>
<event>
 5    0  0.5937676E-005  0.5741802E+03  0.7546771E-02  0.9960471E-01
         21   -1    0    0  502  501  0.00000000000E+00  0.00000000000E+00  0.62131143421E+03  0.62131143421E+03  0.00000000000E+00 0. -1.
         21   -1    0    0  501  502 -0.00000000000E+00 -0.00000000000E+00 -0.53062427808E+03  0.53062427808E+03  0.00000000000E+00 0.  1.
         25    1    1    2    0    0  0.39691663375E+02 -0.41758593898E+03  0.77947839833E+02  0.44458329963E+03  0.12500000000E+03 0.  0.
         25    1    1    2    0    0 -0.25422858966E+03  0.10766371335E+03  0.54916247624E+02  0.30800072277E+03  0.12500000000E+03 0.  0.
         25    1    1    2    0    0  0.21453692628E+03  0.30992222563E+03 -0.42176931329E+02  0.39935168988E+03  0.12500000000E+03 0.  0.
</event>
<event>
 5    0  0.5619558E-005  0.3687066E+03  0.7546771E-02  0.1055189E+00
         21   -1    0    0  502  501  0.00000000000E+00  0.00000000000E+00  0.11488826506E+04  0.11488826506E+04  0.00000000000E+00 0.  1.
         21   -1    0    0  501  502 -0.00000000000E+00 -0.00000000000E+00 -0.11832764629E+03  0.11832764629E+03  0.00000000000E+00 0.  1.
         25    1    1    2    0    0  0.87923138481E+02 -0.10745324359E+02  0.31038302892E+03  0.34613373848E+03  0.12500000000E+03 0.  0.
         25    1    1    2    0    0  0.20331672746E+03  0.17125096294E+02  0.19968809135E+03  0.31165893925E+03  0.12500000000E+03 0.  0.
         25    1    1    2    0    0 -0.29123986594E+03 -0.63797719350E+01  0.52048388408E+03  0.60941761919E+03  0.12500000000E+03 0.  0.
</event>
<event>
 5    0  0.5619558E-005  0.2521041E+03  0.7546771E-02  0.1111982E+00
         21   -1    0    0  502  501  0.00000000000E+00  0.00000000000E+00  0.48058831119E+02  0.48058831119E+02  0.00000000000E+00 0. -1.
         21   -1    0    0  501  502 -0.00000000000E+00 -0.00000000000E+00 -0.13224723022E+04  0.13224723022E+04  0.00000000000E+00 0. -1.
         25    1    1    2    0    0  0.13593281180E+03  0.12076160814E+02 -0.35588057488E+03  0.40112285719E+03  0.12500000000E+03 0.  0.
         25    1    1    2    0    0 -0.97248044245E+02  0.34817381028E+02 -0.37847283523E+03  0.41174764011E+03  0.12500000000E+03 0.  0.
         25    1    1    2    0    0 -0.38684767552E+02 -0.46893541842E+02 -0.54006006100E+03  0.55766063604E+03  0.12500000000E+03 0.  0.
</event>
<event>
 5    0  0.5619558E-005  0.3067583E+03  0.7546771E-02  0.1081910E+00
         21   -1    0    0  502  501  0.00000000000E+00  0.00000000000E+00  0.48476728421E+03  0.48476728421E+03  0.00000000000E+00 0.  1.
         21   -1    0    0  501  502 -0.00000000000E+00 -0.00000000000E+00 -0.19411512449E+03  0.19411512449E+03  0.00000000000E+00 0.  1.
         25    1    1    2    0    0 -0.16389368132E+02 -0.12833897889E+02  0.28334151295E+03  0.31038803663E+03  0.12500000000E+03 0.  0.
         25    1    1    2    0    0 -0.84267765939E+02 -0.70991700172E+02  0.64403379663E+02  0.17864398445E+03  0.12500000000E+03 0.  0.
         25    1    1    2    0    0  0.10065713407E+03  0.83825598061E+02 -0.57092732893E+02  0.18985038762E+03  0.12500000000E+03 0.  0.
</event>
<event>
 5    0  0.5619558E-005  0.2298474E+03  0.7546771E-02  0.1126747E+00
         21   -1    0    0  502  501  0.00000000000E+00  0.00000000000E+00  0.48704613816E+02  0.48704613816E+02  0.00000000000E+00 0. -1.
         21   -1    0    0  501  502 -0.00000000000E+00 -0.00000000000E+00 -0.10846982723E+04  0.10846982723E+04  0.00000000000E+00 0. -1.
         25    1    1    2    0    0 -0.44243679163E+02  0.78877241291E+02 -0.48649089465E+03  0.51036997650E+03  0.12500000000E+03 0.  0.
         25    1    1    2    0    0  0.45864168101E+02 -0.86443899402E+02 -0.22643127184E+03  0.27653605647E+03  0.12500000000E+03 0.  0.
         25    1    1    2    0    0 -0.16204889390E+01  0.75666581111E+01 -0.32307149199E+03  0.34649685314E+03  0.12500000000E+03 0.  0.
</event>
<event>
 5    0  0.5619558E-005  0.2418175E+03  0.7546771E-02  0.1118588E+00
         21   -1    0    0  502  501  0.00000000000E+00  0.00000000000E+00  0.28891864496E+02  0.28891864496E+02  0.00000000000E+00 0.  1.
         21   -1    0    0  501  502 -0.00000000000E+00 -0.00000000000E+00 -0.20239500752E+04  0.20239500752E+04  0.00000000000E+00 0.  1.
         25    1    1    2    0    0 -0.96876166859E+02  0.71443571635E+02 -0.83084496439E+03  0.84877413397E+03  0.12500000000E+03 0.  0.
         25    1    1    2    0    0  0.69939680330E+02  0.26704460929E+02 -0.52510013057E+03  0.54494021162E+03  0.12500000000E+03 0.  0.
         25    1    1    2    0    0  0.26936486529E+02 -0.98148032564E+02 -0.63911311576E+03  0.65912759412E+03  0.12500000000E+03 0.  0.
</event>
<event>
 5    0  0.5619558E-005  0.3295241E+03  0.7546771E-02  0.1071348E+00
         21   -1    0    0  502  501  0.00000000000E+00  0.00000000000E+00  0.33135197297E+03  0.33135197297E+03  0.00000000000E+00 0.  1.
         21   -1    0    0  501  502 -0.00000000000E+00 -0.00000000000E+00 -0.32770636661E+03  0.32770636661E+03  0.00000000000E+00 0.  1.
         25    1    1    2    0    0 -0.37773146132E+02 -0.18787307721E+02 -0.17876278816E+03  0.22217314854E+03  0.12500000000E+03 0.  0.
         25    1    1    2    0    0 -0.12810527894E+03 -0.11725659096E+02  0.41682078500E+02  0.18414898653E+03  0.12500000000E+03 0.  0.
         25    1    1    2    0    0  0.16587842507E+03  0.30512966817E+02  0.14072631602E+03  0.25273620451E+03  0.12500000000E+03 0.  0.
</event>
<event>
 5    0  0.5619558E-005  0.2480987E+03  0.7546771E-02  0.1114512E+00
         21   -1    0    0  502  501  0.00000000000E+00  0.00000000000E+00  0.13129068233E+03  0.13129068233E+03  0.00000000000E+00 0.  1.
         21   -1    0    0  501  502 -0.00000000000E+00 -0.00000000000E+00 -0.46882977182E+03  0.46882977182E+03  0.00000000000E+00 0.  1.
         25    1    1    2    0    0 -0.73354801051E+02 -0.20656131192E+02 -0.37061306132E+02  0.15101702886E+03  0.12500000000E+03 0.  0.
         25    1    1    2    0    0  0.42282530849E+01  0.10862320245E+03 -0.13878077659E+03  0.21610641403E+03  0.12500000000E+03 0.  0.
         25    1    1    2    0    0  0.69126547966E+02 -0.87967071257E+02 -0.16169700677E+03  0.23299701126E+03  0.12500000000E+03 0.  0.
</event>
<event>
 5    0  0.5619558E-005  0.6221887E+03  0.7546771E-02  0.9860412E-01
         21   -1    0    0  502  501  0.00000000000E+00  0.00000000000E+00  0.19332651177E+04  0.19332651177E+04  0.00000000000E+00 0. -1.
         21   -1    0    0  501  502 -0.00000000000E+00 -0.00000000000E+00 -0.20024093607E+03  0.20024093607E+03  0.00000000000E+00 0. -1.
         25    1    1    2    0    0 -0.31946676312E+02 -0.24737092625E+03  0.11179197296E+04  0.11522076579E+04  0.12500000000E+03 0.  0.
         25    1    1    2    0    0 -0.31640937152E+01  0.46078553680E+03  0.25007980365E+03  0.53897887770E+03  0.12500000000E+03 0.  0.
         25    1    1    2    0    0  0.35110770028E+02 -0.21341461054E+03  0.36502464846E+03  0.44231951816E+03  0.12500000000E+03 0.  0.
</event>
<event>
 5    0  0.5619558E-005  0.1238319E+04  0.7546771E-02  0.9079962E-01
         21   -1    0    0  502  501  0.00000000000E+00  0.00000000000E+00  0.24829228533E+04  0.24829228533E+04  0.00000000000E+00 0.  1.
         21   -1    0    0  501  502 -0.00000000000E+00 -0.00000000000E+00 -0.61759205576E+03  0.61759205576E+03  0.00000000000E+00 0.  1.
         25    1    1    2    0    0  0.24071109660E+03  0.36143258333E+02 -0.27208427607E+03  0.38587954135E+03  0.12500000000E+03 0.  0.
         25    1    1    2    0    0 -0.73552632884E+03 -0.34251681142E+03  0.47407712684E+03  0.94799307419E+03  0.12500000000E+03 0.  0.
         25    1    1    2    0    0  0.49481523224E+03  0.30637355309E+03  0.16633379467E+04  0.17666422935E+04  0.12500000000E+03 0.  0.
</event>
<event>
 5    0  0.5619558E-005  0.3766303E+03  0.7546771E-02  0.1052186E+00
         21   -1    0    0  502  501  0.00000000000E+00  0.00000000000E+00  0.42586913915E+03  0.42586913915E+03  0.00000000000E+00 0.  1.
         21   -1    0    0  501  502 -0.00000000000E+00 -0.00000000000E+00 -0.33308435289E+03  0.33308435289E+03  0.00000000000E+00 0.  1.
         25    1    1    2    0    0  0.16946840422E+03  0.12236711177E+03  0.16303733944E+03  0.29308603536E+03  0.12500000000E+03 0.  0.
         25    1    1    2    0    0  0.60076118994E+02  0.48858685727E+02 -0.37094955953E+02  0.15164876195E+03  0.12500000000E+03 0.  0.
         25    1    1    2    0    0 -0.22954452322E+03 -0.17122579749E+03 -0.33157597230E+02  0.31421869473E+03  0.12500000000E+03 0.  0.
</event>
<event>
 5    0  0.5619558E-005  0.4636126E+03  0.7546771E-02  0.1023739E+00
         21   -1    0    0  502  501  0.00000000000E+00  0.00000000000E+00  0.56844061497E+03  0.56844061497E+03  0.00000000000E+00 0.  1.
         21   -1    0    0  501  502 -0.00000000000E+00 -0.00000000000E+00 -0.37811629349E+03  0.37811629349E+03  0.00000000000E+00 0.  1.
         25    1    1    2    0    0 -0.22391880635E+03  0.87511637567E+02  0.37123633578E+03  0.45960780623E+03  0.12500000000E+03 0.  0.
         25    1    1    2    0    0  0.21474859626E+03 -0.15475019534E+03 -0.18203520928E+03  0.34471205371E+03  0.12500000000E+03 0.  0.
         25    1    1    2    0    0  0.91702100890E+01  0.67238557769E+02  0.11231949860E+01  0.14223704852E+03  0.12500000000E+03 0.  0.
</event>
<event>
 5    0  0.5619558E-005  0.3567528E+03  0.7546771E-02  0.1059877E+00
         21   -1    0    0  502  501  0.00000000000E+00  0.00000000000E+00  0.35837038165E+03  0.35837038165E+03  0.00000000000E+00 0.  1.
         21   -1    0    0  501  502 -0.00000000000E+00 -0.00000000000E+00 -0.35514248346E+03  0.35514248346E+03  0.00000000000E+00 0.  1.
         25    1    1    2    0    0  0.14684975736E+03 -0.24482895632E+02  0.14290247927E+03  0.24126827806E+03  0.12500000000E+03 0.  0.
         25    1    1    2    0    0 -0.16612163369E+03  0.13929145766E+03  0.21056433318E+01  0.25025575137E+03  0.12500000000E+03 0.  0.
         25    1    1    2    0    0  0.19271876332E+02 -0.11480856203E+03 -0.14178022441E+03  0.22198883568E+03  0.12500000000E+03 0.  0.
</event>
<event>
 5    0  0.5619558E-005  0.2688985E+03  0.7546771E-02  0.1101912E+00
         21   -1    0    0  502  501  0.00000000000E+00  0.00000000000E+00  0.11883619769E+04  0.11883619769E+04  0.00000000000E+00 0. -1.
         21   -1    0    0  501  502 -0.00000000000E+00 -0.00000000000E+00 -0.60845420613E+02  0.60845420613E+02  0.00000000000E+00 0. -1.
         25    1    1    2    0    0 -0.19619546260E+02 -0.80691996633E+02  0.36954885787E+03  0.39885772309E+03  0.12500000000E+03 0.  0.
         25    1    1    2    0    0  0.66545531250E+02  0.16297749540E+03  0.54217825256E+03  0.58358566576E+03  0.12500000000E+03 0.  0.
         25    1    1    2    0    0 -0.46925984990E+02 -0.82285498766E+02  0.21578944588E+03  0.26676400868E+03  0.12500000000E+03 0.  0.
</event>
<event>
 5    0  0.5619558E-005  0.3277138E+03  0.7546771E-02  0.1072153E+00
         21   -1    0    0  502  501  0.00000000000E+00  0.00000000000E+00  0.45417713088E+03  0.45417713088E+03  0.00000000000E+00 0.  1.
         21   -1    0    0  501  502 -0.00000000000E+00 -0.00000000000E+00 -0.23646360540E+03  0.23646360540E+03  0.00000000000E+00 0.  1.
         25    1    1    2    0    0  0.11389481101E+03  0.74470313112E+02  0.28430316161E+03  0.33907394948E+03  0.12500000000E+03 0.  0.
         25    1    1    2    0    0 -0.10062172349E+03  0.24793563349E+02  0.29145488743E+02  0.16496639517E+03  0.12500000000E+03 0.  0.
         25    1    1    2    0    0 -0.13273087516E+02 -0.99263876460E+02 -0.95735124873E+02  0.18660039163E+03  0.12500000000E+03 0.  0.
</event>
<event>
 5    0  0.5619558E-005  0.6342957E+03  0.7546771E-02  0.9836702E-01
         21   -1    0    0  502  501  0.00000000000E+00  0.00000000000E+00  0.70348995707E+03  0.70348995707E+03  0.00000000000E+00 0.  1.
         21   -1    0    0  501  502 -0.00000000000E+00 -0.00000000000E+00 -0.57190732023E+03  0.57190732023E+03  0.00000000000E+00 0.  1.
         25    1    1    2    0    0 -0.29267325165E+02 -0.21633151745E+03  0.99641578690E+02  0.27057225646E+03  0.12500000000E+03 0.  0.
         25    1    1    2    0    0 -0.12176183139E+03 -0.11832968378E+03 -0.38277620288E+03  0.43700169238E+03  0.12500000000E+03 0.  0.
         25    1    1    2    0    0  0.15102915656E+03  0.33466120123E+03  0.41471726103E+03  0.56782332845E+03  0.12500000000E+03 0.  0.
</event>
<event>
 5    0  0.5619558E-005  0.3109954E+03  0.7546771E-02  0.1079870E+00
         21   -1    0    0  502  501  0.00000000000E+00  0.00000000000E+00  0.35508469809E+03  0.35508469809E+03  0.00000000000E+00 0. -1.
         21   -1    0    0  501  502 -0.00000000000E+00 -0.00000000000E+00 -0.27238041548E+03  0.27238041548E+03  0.00000000000E+00 0. -1.
         25    1    1    2    0    0  0.71432435072E+02  0.18669403955E+02  0.20558949448E+03  0.25168070976E+03  0.12500000000E+03 0.  0.
         25    1    1    2    0    0 -0.13663483120E+02 -0.60071994498E+02  0.52562529009E+02  0.14894010457E+03  0.12500000000E+03 0.  0.
         25    1    1    2    0    0 -0.57768951952E+02  0.41402590543E+02 -0.17544774088E+03  0.22684429923E+03  0.12500000000E+03 0.  0.
</event>
<event>
 5    0  0.5619558E-005  0.3480356E+03  0.7546771E-02  0.1063424E+00
         21   -1    0    0  502  501  0.00000000000E+00  0.00000000000E+00  0.14645553933E+03  0.14645553933E+03  0.00000000000E+00 0. -1.
         21   -1    0    0  501  502 -0.00000000000E+00 -0.00000000000E+00 -0.82706866468E+03  0.82706866468E+03  0.00000000000E+00 0. -1.
         25    1    1    2    0    0  0.21934953098E+03  0.78879953173E+02 -0.35729878146E+03  0.44454885332E+03  0.12500000000E+03 0.  0.
         25    1    1    2    0    0  0.42387077330E-01 -0.92783101545E+02 -0.18122229337E+03  0.23890421793E+03  0.12500000000E+03 0.  0.
         25    1    1    2    0    0 -0.21939191805E+03  0.13903148372E+02 -0.14209205052E+03  0.29007113276E+03  0.12500000000E+03 0.  0.
</event>
<event>
 5    0  0.5619558E-005  0.3072952E+03  0.7546771E-02  0.1081650E+00
         21   -1    0    0  502  501  0.00000000000E+00  0.00000000000E+00  0.60087534169E+02  0.60087534169E+02  0.00000000000E+00 0.  1.
         21   -1    0    0  501  502 -0.00000000000E+00 -0.00000000000E+00 -0.15715467277E+04  0.15715467277E+04  0.00000000000E+00 0.  1.
         25    1    1    2    0    0  0.32911906873E+02 -0.23280748491E+02 -0.29549294394E+03  0.32336707746E+03  0.12500000000E+03 0.  0.
         25    1    1    2    0    0 -0.18887318154E+03 -0.61366976281E+02 -0.85912587749E+03  0.89059601271E+03  0.12500000000E+03 0.  0.
         25    1    1    2    0    0  0.15596127467E+03  0.84647724771E+02 -0.35684037208E+03  0.41767117168E+03  0.12500000000E+03 0.  0.
</event>
<event>
 5    0  0.5619558E-005  0.2996216E+03  0.7546771E-02  0.1085430E+00
         21   -1    0    0  502  501  0.00000000000E+00  0.00000000000E+00  0.12992204510E+03  0.12992204510E+03  0.00000000000E+00 0.  1.
         21   -1    0    0  501  502 -0.00000000000E+00 -0.00000000000E+00 -0.69097676535E+03  0.69097676535E+03  0.00000000000E+00 0.  1.
         25    1    1    2    0    0  0.41521849532E+02  0.18772174210E+02 -0.51625914363E+02  0.14271192503E+03  0.12500000000E+03 0.  0.
         25    1    1    2    0    0 -0.15909683426E+03  0.51167814906E+02 -0.42719649669E+03  0.47544904536E+03  0.12500000000E+03 0.  0.
         25    1    1    2    0    0  0.11757498473E+03 -0.69939989116E+02 -0.82232309205E+02  0.20273784005E+03  0.12500000000E+03 0.  0.
</event>
<event>
 5    0  0.5619558E-005  0.2514821E+03  0.7546771E-02  0.1112372E+00
         21   -1    0    0  502  501  0.00000000000E+00  0.00000000000E+00  0.15884764019E+03  0.15884764019E+03  0.00000000000E+00 0.  1.
         21   -1    0    0  501  502 -0.00000000000E+00 -0.00000000000E+00 -0.39813792649E+03  0.39813792649E+03  0.00000000000E+00 0.  1.
         25    1    1    2    0    0  0.53971333175E+02 -0.92898803346E+02 -0.40791586803E+01  0.16487793061E+03  0.12500000000E+03 0.  0.
         25    1    1    2    0    0 -0.55283666852E+02  0.10828577589E+03 -0.78977253634E+02  0.19142753112E+03  0.12500000000E+03 0.  0.
         25    1    1    2    0    0  0.13123336763E+01 -0.15386972539E+02 -0.15623387398E+03  0.20068010495E+03  0.12500000000E+03 0.  0.
</event>
<event>
 5    0  0.5619558E-005  0.3455381E+03  0.7546771E-02  0.1064461E+00
         21   -1    0    0  502  501  0.00000000000E+00  0.00000000000E+00  0.35065350540E+03  0.35065350540E+03  0.00000000000E+00 0. -1.
         21   -1    0    0  501  502 -0.00000000000E+00 -0.00000000000E+00 -0.34049736916E+03  0.34049736916E+03  0.00000000000E+00 0. -1.
         25    1    1    2    0    0 -0.15453888650E+02  0.92703371393E+02 -0.19748044002E+02  0.15763160528E+03  0.12500000000E+03 0.  0.
         25    1    1    2    0    0 -0.18087692766E+03 -0.16455580100E+03 -0.45846454907E+02  0.27842767827E+03  0.12500000000E+03 0.  0.
         25    1    1    2    0    0  0.19633081631E+03  0.71852429603E+02  0.75750635147E+02  0.25509159100E+03  0.12500000000E+03 0.  0.
</event>
<event>
 5    0  0.5619558E-005  0.2354279E+03  0.7546771E-02  0.1122877E+00
         21   -1    0    0  502  501  0.00000000000E+00  0.00000000000E+00  0.20110321659E+04  0.20110321659E+04  0.00000000000E+00 0. -1.
         21   -1    0    0  501  502 -0.00000000000E+00 -0.00000000000E+00 -0.27561108281E+02  0.27561108281E+02  0.00000000000E+00 0. -1.
         25    1    1    2    0    0 -0.53537583696E+01  0.10879600430E+03  0.49141543590E+03  0.51863220486E+03  0.12500000000E+03 0.  0.
         25    1    1    2    0    0 -0.34737140744E+02 -0.75598613610E+02  0.65233610770E+03  0.66939466440E+03  0.12500000000E+03 0.  0.
         25    1    1    2    0    0  0.40090899114E+02 -0.33197390686E+02  0.83971951400E+03  0.85056640489E+03  0.12500000000E+03 0.  0.
</event>
<event>
 5    0  0.5619558E-005  0.3558229E+03  0.7546771E-02  0.1060250E+00
         21   -1    0    0  502  501  0.00000000000E+00  0.00000000000E+00  0.16728283242E+03  0.16728283242E+03  0.00000000000E+00 0.  1.
         21   -1    0    0  501  502 -0.00000000000E+00 -0.00000000000E+00 -0.75686165242E+03  0.75686165242E+03  0.00000000000E+00 0.  1.
         25    1    1    2    0    0 -0.14525218178E+03 -0.15802335701E+03 -0.81427692449E+02  0.26139060192E+03  0.12500000000E+03 0.  0.
         25    1    1    2    0    0  0.12726564181E+03 -0.37907017795E+02 -0.15358500613E+03  0.23842575300E+03  0.12500000000E+03 0.  0.
         25    1    1    2    0    0  0.17986539969E+02  0.19593037480E+03 -0.35456612142E+03  0.42432812993E+03  0.12500000000E+03 0.  0.
</event>
<event>
 5    0  0.5619558E-005  0.5188479E+03  0.7546771E-02  0.1008973E+00
         21   -1    0    0  502  501  0.00000000000E+00  0.00000000000E+00  0.71962616635E+03  0.71962616635E+03  0.00000000000E+00 0. -1.
         21   -1    0    0  501  502 -0.00000000000E+00 -0.00000000000E+00 -0.37408746011E+03  0.37408746011E+03  0.00000000000E+00 0. -1.
         25    1    1    2    0    0  0.65889806381E+02  0.20799346244E+03 -0.14318334827E+03  0.28936001490E+03  0.12500000000E+03 0.  0.
         25    1    1    2    0    0  0.12353126184E+02  0.66796222212E+02 -0.74473559430E+02  0.16057909603E+03  0.12500000000E+03 0.  0.
         25    1    1    2    0    0 -0.78242932565E+02 -0.27478968465E+03  0.56319561394E+03  0.64377451553E+03  0.12500000000E+03 0.  0.
</event>
<event>
 5    0  0.7563492E-005  0.2790914E+03  0.7546771E-02  0.1096186E+00
         21   -1    0    0  502  501  0.00000000000E+00  0.00000000000E+00  0.10284533581E+03  0.10284533581E+03  0.00000000000E+00 0. -1.
         21   -1    0    0  501  502 -0.00000000000E+00 -0.00000000000E+00 -0.75737027070E+03  0.75737027070E+03  0.00000000000E+00 0. -1.
         25    1    1    2    0    0  0.41062411201E+02 -0.75162688569E+02 -0.67374508107E+02  0.16583086477E+03  0.12500000000E+03 0.  0.
         25    1    1    2    0    0  0.52951012970E+01 -0.70714798740E+02 -0.38827253429E+03  0.41401591968E+03  0.12500000000E+03 0.  0.
         25    1    1    2    0    0 -0.46357512498E+02  0.14587748731E+03 -0.19887789249E+03  0.28036882207E+03  0.12500000000E+03 0.  0.
</event>
<event>
 5    0  0.5619558E-005  0.3477724E+03  0.7546771E-02  0.1063533E+00
         21   -1    0    0  502  501  0.00000000000E+00  0.00000000000E+00  0.39424648565E+03  0.39424648565E+03  0.00000000000E+00 0.  1.
         21   -1    0    0  501  502 -0.00000000000E+00 -0.00000000000E+00 -0.30677665173E+03  0.30677665173E+03  0.00000000000E+00 0.  1.
         25    1    1    2    0    0  0.10507845039E+03 -0.21001419130E+03 -0.11545508629E+03  0.29000399693E+03  0.12500000000E+03 0.  0.
         25    1    1    2    0    0 -0.43512452167E+02  0.87752762970E+02  0.14949364506E+03  0.21809913071E+03  0.12500000000E+03 0.  0.
         25    1    1    2    0    0 -0.61565998227E+02  0.12226142833E+03  0.53431275152E+02  0.19292000974E+03  0.12500000000E+03 0.  0.
</event>
<event>
 5    0  0.5619558E-005  0.3605554E+03  0.7546771E-02  0.1058364E+00
         21   -1    0    0  502  501  0.00000000000E+00  0.00000000000E+00  0.18117163022E+03  0.18117163022E+03  0.00000000000E+00 0.  1.
         21   -1    0    0  501  502 -0.00000000000E+00 -0.00000000000E+00 -0.71755276019E+03  0.71755276019E+03  0.00000000000E+00 0.  1.
         25    1    1    2    0    0  0.17187109485E+03 -0.95462124967E+02 -0.36846789458E+03  0.43594297779E+03  0.12500000000E+03 0.  0.
         25    1    1    2    0    0 -0.85398795955E+02  0.16351714629E+03 -0.19246498924E+03  0.29444623204E+03  0.12500000000E+03 0.  0.
         25    1    1    2    0    0 -0.86472298900E+02 -0.68055021323E+02  0.24551753845E+02  0.16833518058E+03  0.12500000000E+03 0.  0.
</event>
<event>
 5    0  0.5619558E-005  0.2528294E+03  0.7546771E-02  0.1111530E+00
         21   -1    0    0  502  501  0.00000000000E+00  0.00000000000E+00  0.50630782002E+02  0.50630782002E+02  0.00000000000E+00 0.  1.
         21   -1    0    0  501  502 -0.00000000000E+00 -0.00000000000E+00 -0.12625262611E+04  0.12625262611E+04  0.00000000000E+00 0.  1.
         25    1    1    2    0    0  0.13079268257E+03 -0.22889550714E+02 -0.55274180598E+03  0.58204738761E+03  0.12500000000E+03 0.  0.
         25    1    1    2    0    0 -0.62493880937E+00  0.27422942216E+02 -0.19666377926E+03  0.23463599549E+03  0.12500000000E+03 0.  0.
         25    1    1    2    0    0 -0.13016774376E+03 -0.45333915020E+01 -0.46248989390E+03  0.49647366004E+03  0.12500000000E+03 0.  0.
</event>
<event>
 5    0  0.5619558E-005  0.4024582E+03  0.7546771E-02  0.1042932E+00
         21   -1    0    0  502  501  0.00000000000E+00  0.00000000000E+00  0.79446716787E+03  0.79446716787E+03  0.00000000000E+00 0. -1.
         21   -1    0    0  501  502 -0.00000000000E+00 -0.00000000000E+00 -0.20387572226E+03  0.20387572226E+03  0.00000000000E+00 0. -1.
         25    1    1    2    0    0 -0.10413614665E+03 -0.20370512355E+03  0.51783172606E+03  0.57975409522E+03  0.12500000000E+03 0.  0.
         25    1    1    2    0    0  0.11442024501E+03  0.17651329451E+02 -0.27929305706E+02  0.17265169567E+03  0.12500000000E+03 0.  0.
         25    1    1    2    0    0 -0.10284098356E+02  0.18605379410E+03  0.10068902525E+03  0.24593709924E+03  0.12500000000E+03 0.  0.
</event>
<event>
 5    0  0.5619558E-005  0.2563124E+03  0.7546771E-02  0.1109379E+00
         21   -1    0    0  502  501  0.00000000000E+00  0.00000000000E+00  0.14450159478E+03  0.14450159478E+03  0.00000000000E+00 0.  1.
         21   -1    0    0  501  502 -0.00000000000E+00 -0.00000000000E+00 -0.45463876410E+03  0.45463876410E+03  0.00000000000E+00 0.  1.
         25    1    1    2    0    0  0.10109251061E+02 -0.45241468973E+02 -0.45846939904E+02  0.14098201790E+03  0.12500000000E+03 0.  0.
         25    1    1    2    0    0  0.43844601425E+02  0.11003033104E+03 -0.23139092195E+02  0.17375108751E+03  0.12500000000E+03 0.  0.
         25    1    1    2    0    0 -0.53953852486E+02 -0.64788862067E+02 -0.24115113722E+03  0.28440725348E+03  0.12500000000E+03 0.  0.
</event>
<event>
 5    0  0.5619558E-005  0.2270587E+03  0.7546771E-02  0.1128727E+00
         21   -1    0    0  502  501  0.00000000000E+00  0.00000000000E+00  0.25419912311E+02  0.25419912311E+02  0.00000000000E+00 0.  1.
         21   -1    0    0  501  502 -0.00000000000E+00 -0.00000000000E+00 -0.20281610307E+04  0.20281610307E+04  0.00000000000E+00 0.  1.
         25    1    1    2    0    0  0.82155941296E+02  0.14157944949E+02 -0.44336643078E+03  0.46813335497E+03  0.12500000000E+03 0.  0.
         25    1    1    2    0    0 -0.88219594258E+02 -0.36803246571E+02 -0.77290769274E+03  0.78876389196E+03  0.12500000000E+03 0.  0.
         25    1    1    2    0    0  0.60636529619E+01  0.22645301622E+02 -0.78646699492E+03  0.79668369612E+03  0.12500000000E+03 0.  0.
</event>
<event>
 5    0  0.5619558E-005  0.2909199E+03  0.7546771E-02  0.1089870E+00
         21   -1    0    0  502  501  0.00000000000E+00  0.00000000000E+00  0.37365744919E+02  0.37365744919E+02  0.00000000000E+00 0.  1.
         21   -1    0    0  501  502 -0.00000000000E+00 -0.00000000000E+00 -0.22650262996E+04  0.22650262996E+04  0.00000000000E+00 0.  1.
         25    1    1    2    0    0 -0.24812075125E+02  0.29306753697E+02 -0.88585894991E+03  0.89545832065E+03  0.12500000000E+03 0.  0.
         25    1    1    2    0    0  0.47650292356E+02 -0.17348172104E+03 -0.87747285184E+03  0.90440591751E+03  0.12500000000E+03 0.  0.
         25    1    1    2    0    0 -0.22838217231E+02  0.14417496734E+03 -0.46432875294E+03  0.50252780638E+03  0.12500000000E+03 0.  0.
</event>
<event>
 5    0  0.5619558E-005  0.2897539E+03  0.7546771E-02  0.1090478E+00
         21   -1    0    0  502  501  0.00000000000E+00  0.00000000000E+00  0.26354966726E+03  0.26354966726E+03  0.00000000000E+00 0. -1.
         21   -1    0    0  501  502 -0.00000000000E+00 -0.00000000000E+00 -0.31856346927E+03  0.31856346927E+03  0.00000000000E+00 0. -1.
         25    1    1    2    0    0  0.10461068415E+03  0.43396909430E+02 -0.73739862945E+01  0.16883738526E+03  0.12500000000E+03 0.  0.
         25    1    1    2    0    0 -0.20370580272E+03 -0.58484848599E+02  0.22767629722E+00  0.24605199331E+03  0.12500000000E+03 0.  0.
         25    1    1    2    0    0  0.99095118564E+02  0.15087939168E+02 -0.47867492016E+02  0.16722375795E+03  0.12500000000E+03 0.  0.
</event>
<event>
 5    0  0.5619558E-005  0.2863161E+03  0.7546771E-02  0.1092288E+00
         21   -1    0    0  502  501  0.00000000000E+00  0.00000000000E+00  0.17256629182E+04  0.17256629182E+04  0.00000000000E+00 0. -1.
         21   -1    0    0  501  502 -0.00000000000E+00 -0.00000000000E+00 -0.47504583446E+02  0.47504583446E+02  0.00000000000E+00 0. -1.
         25    1    1    2    0    0  0.32146929771E+02 -0.10128065431E+03  0.69935033691E+03  0.71833633472E+03  0.12500000000E+03 0.  0.
         25    1    1    2    0    0  0.81448275700E+02  0.13534391162E+03  0.68726382726E+03  0.71617621037E+03  0.12500000000E+03 0.  0.
         25    1    1    2    0    0 -0.11359520547E+03 -0.34063257314E+02  0.29154417053E+03  0.33865495652E+03  0.12500000000E+03 0.  0.
</event>
<event>
 5    0  0.5619558E-005  0.2543158E+03  0.7546771E-02  0.1110607E+00
         21   -1    0    0  502  501  0.00000000000E+00  0.00000000000E+00  0.60580021412E+02  0.60580021412E+02  0.00000000000E+00 0.  1.
         21   -1    0    0  501  502 -0.00000000000E+00 -0.00000000000E+00 -0.10676216836E+04  0.10676216836E+04  0.00000000000E+00 0.  1.
         25    1    1    2    0    0 -0.47895378680E+02 -0.61319258081E+02 -0.49154190305E+03  0.51312031841E+03  0.12500000000E+03 0.  0.
         25    1    1    2    0    0 -0.33722045456E+02  0.24338870116E+02 -0.40449875686E+03  0.42541015650E+03  0.12500000000E+03 0.  0.
         25    1    1    2    0    0  0.81617424135E+02  0.36980387965E+02 -0.11100100223E+03  0.18967123006E+03  0.12500000000E+03 0.  0.
</event>
<event>
 5    0  0.5619558E-005  0.2665308E+03  0.7546771E-02  0.1103282E+00
         21   -1    0    0  502  501  0.00000000000E+00  0.00000000000E+00  0.70700362915E+03  0.70700362915E+03  0.00000000000E+00 0. -1.
         21   -1    0    0  501  502 -0.00000000000E+00 -0.00000000000E+00 -0.10047851525E+03  0.10047851525E+03  0.00000000000E+00 0. -1.
         25    1    1    2    0    0  0.12836146404E+03 -0.62022204377E+02  0.27925394584E+03  0.33753693954E+03  0.12500000000E+03 0.  0.
         25    1    1    2    0    0  0.41407316962E-01 -0.32833688534E+02  0.16886809326E+03  0.21264873792E+03  0.12500000000E+03 0.  0.
         25    1    1    2    0    0 -0.12840287136E+03  0.94855892911E+02  0.15840307480E+03  0.25729646694E+03  0.12500000000E+03 0.  0.
</event>
<event>
 5    0  0.5619558E-005  0.3578940E+03  0.7546771E-02  0.1059421E+00
         21   -1    0    0  502  501  0.00000000000E+00  0.00000000000E+00  0.96834836050E+03  0.96834836050E+03  0.00000000000E+00 0.  1.
         21   -1    0    0  501  502 -0.00000000000E+00 -0.00000000000E+00 -0.13227483499E+03  0.13227483499E+03  0.00000000000E+00 0.  1.
         25    1    1    2    0    0  0.15710334607E+03  0.97600508749E+02  0.41351609435E+03  0.46992327133E+03  0.12500000000E+03 0.  0.
         25    1    1    2    0    0 -0.84647508394E+02 -0.58004588909E+02 -0.20483541087E+02  0.16301628283E+03  0.12500000000E+03 0.  0.
         25    1    1    2    0    0 -0.72455837675E+02 -0.39595919841E+02  0.44304097224E+03  0.46768364133E+03  0.12500000000E+03 0.  0.
</event>
<event>
 5    0  0.5619558E-005  0.2650366E+03  0.7546771E-02  0.1104154E+00
         21   -1    0    0  502  501  0.00000000000E+00  0.00000000000E+00  0.50231242377E+03  0.50231242377E+03  0.00000000000E+00 0.  1.
         21   -1    0    0  501  502 -0.00000000000E+00 -0.00000000000E+00 -0.13984201082E+03  0.13984201082E+03  0.00000000000E+00 0.  1.
         25    1    1    2    0    0  0.56708055153E+02  0.67828497336E+02  0.22958500741E+02  0.15481796190E+03  0.12500000000E+03 0.  0.
         25    1    1    2    0    0 -0.70847326972E+02  0.72577150686E+02  0.14992904296E+03  0.21997841817E+03  0.12500000000E+03 0.  0.
         25    1    1    2    0    0  0.14139271819E+02 -0.14040564802E+03  0.18958286925E+03  0.26735805452E+03  0.12500000000E+03 0.  0.
</event>
<event>
 5    0  0.5619558E-005  0.4120818E+03  0.7546771E-02  0.1039675E+00
         21   -1    0    0  502  501  0.00000000000E+00  0.00000000000E+00  0.20572874138E+03  0.20572874138E+03  0.00000000000E+00 0. -1.
         21   -1    0    0  501  502 -0.00000000000E+00 -0.00000000000E+00 -0.82541422124E+03  0.82541422124E+03  0.00000000000E+00 0. -1.
         25    1    1    2    0    0  0.37276899031E+02  0.10864549210E+03  0.91124643052E+01  0.17000425630E+03  0.12500000000E+03 0.  0.
         25    1    1    2    0    0  0.79245870875E+02  0.15890523978E+03 -0.88542515430E+02  0.23451132237E+03  0.12500000000E+03 0.  0.
         25    1    1    2    0    0 -0.11652276991E+03 -0.26755073189E+03 -0.54025542874E+03  0.62662738395E+03  0.12500000000E+03 0.  0.
</event>
<event>
 5    0  0.5619558E-005  0.3157165E+03  0.7546771E-02  0.1077638E+00
         21   -1    0    0  502  501  0.00000000000E+00  0.00000000000E+00  0.85444004056E+02  0.85444004056E+02  0.00000000000E+00 0. -1.
         21   -1    0    0  501  502 -0.00000000000E+00 -0.00000000000E+00 -0.11665758590E+04  0.11665758590E+04  0.00000000000E+00 0. -1.
         25    1    1    2    0    0  0.12743311612E+03  0.93359346702E+02 -0.48253826107E+03  0.52289897695E+03  0.12500000000E+03 0.  0.
         25    1    1    2    0    0 -0.19026568055E+03 -0.42308976927E+02 -0.49858736975E+03  0.54973215660E+03  0.12500000000E+03 0.  0.
         25    1    1    2    0    0  0.62832564432E+02 -0.51050369776E+02 -0.10000622410E+03  0.17938872949E+03  0.12500000000E+03 0.  0.
</event>
<event>
 5    0  0.5960390E-005  0.3326192E+03  0.7546771E-02  0.1069984E+00
         21   -1    0    0  502  501  0.00000000000E+00  0.00000000000E+00  0.70586465614E+03  0.70586465614E+03  0.00000000000E+00 0. -1.
         21   -1    0    0  501  502 -0.00000000000E+00 -0.00000000000E+00 -0.15673759294E+03  0.15673759294E+03  0.00000000000E+00 0. -1.
         25    1    1    2    0    0 -0.17501816785E+03 -0.13162201182E+03  0.39046391578E+03  0.46480402602E+03  0.12500000000E+03 0.  0.
         25    1    1    2    0    0  0.26098653274E+02  0.73007031482E+02  0.12554178144E+02  0.14762714431E+03  0.12500000000E+03 0.  0.
         25    1    1    2    0    0  0.14891951458E+03  0.58614980341E+02  0.14610896928E+03  0.25017107876E+03  0.12500000000E+03 0.  0.
</event>
<event>
 5    0  0.5619558E-005  0.3876435E+03  0.7546771E-02  0.1048144E+00
         21   -1    0    0  502  501  0.00000000000E+00  0.00000000000E+00  0.17895092490E+03  0.17895092490E+03  0.00000000000E+00 0.  1.
         21   -1    0    0  501  502 -0.00000000000E+00 -0.00000000000E+00 -0.83971328784E+03  0.83971328784E+03  0.00000000000E+00 0.  1.
         25    1    1    2    0    0  0.29048266700E+01  0.14313391866E+03 -0.21576939824E+03  0.28753641492E+03  0.12500000000E+03 0.  0.
         25    1    1    2    0    0 -0.14551145080E+03 -0.15513904905E+03  0.59921670671E+00  0.24671251674E+03  0.12500000000E+03 0.  0.
         25    1    1    2    0    0  0.14260662413E+03  0.12005130393E+02 -0.44559218141E+03  0.48441528107E+03  0.12500000000E+03 0.  0.
</event>
<event>
 5    0  0.5619558E-005  0.2728806E+03  0.7546771E-02  0.1099642E+00
         21   -1    0    0  502  501  0.00000000000E+00  0.00000000000E+00  0.31043844100E+03  0.31043844100E+03  0.00000000000E+00 0. -1.
         21   -1    0    0  501  502 -0.00000000000E+00 -0.00000000000E+00 -0.23986662666E+03  0.23986662666E+03  0.00000000000E+00 0. -1.
         25    1    1    2    0    0 -0.24980035162E+02 -0.10512826002E+02 -0.28542998892E+01  0.12793618994E+03  0.12500000000E+03 0.  0.
         25    1    1    2    0    0 -0.11647344510E+03 -0.87020061852E+02 -0.14786482377E+02  0.19230755222E+03  0.12500000000E+03 0.  0.
         25    1    1    2    0    0  0.14145348026E+03  0.97532887855E+02  0.88212596611E+02  0.23006132550E+03  0.12500000000E+03 0.  0.
</event>
<event>
 5    0  0.5619558E-005  0.2723802E+03  0.7546771E-02  0.1099925E+00
         21   -1    0    0  502  501  0.00000000000E+00  0.00000000000E+00  0.99167148319E+03  0.99167148319E+03  0.00000000000E+00 0. -1.
         21   -1    0    0  501  502 -0.00000000000E+00 -0.00000000000E+00 -0.74814072364E+02  0.74814072364E+02  0.00000000000E+00 0. -1.
         25    1    1    2    0    0 -0.24465484387E+02  0.93759416676E+02  0.49284842632E+03  0.51760405666E+03  0.12500000000E+03 0.  0.
         25    1    1    2    0    0  0.73860950423E+02 -0.89283309732E+01  0.71264897043E+02  0.16198407527E+03  0.12500000000E+03 0.  0.
         25    1    1    2    0    0 -0.49395466037E+02 -0.84831085703E+02  0.35274408746E+03  0.38689742362E+03  0.12500000000E+03 0.  0.
</event>
<event>
 5    0  0.5619558E-005  0.2932734E+03  0.7546771E-02  0.1088652E+00
         21   -1    0    0  502  501  0.00000000000E+00  0.00000000000E+00  0.64627013227E+02  0.64627013227E+02  0.00000000000E+00 0. -1.
         21   -1    0    0  501  502 -0.00000000000E+00 -0.00000000000E+00 -0.13308562775E+04  0.13308562775E+04  0.00000000000E+00 0. -1.
         25    1    1    2    0    0 -0.66159529766E+02 -0.92555357080E+02 -0.42158346636E+03  0.45420391523E+03  0.12500000000E+03 0.  0.
         25    1    1    2    0    0 -0.88068262403E+02 -0.60701589932E+02 -0.32381326621E+03  0.36320893882E+03  0.12500000000E+03 0.  0.
         25    1    1    2    0    0  0.15422779217E+03  0.15325694701E+03 -0.52083253172E+03  0.57807043670E+03  0.12500000000E+03 0.  0.
</event>
<event>
 5    0  0.5619558E-005  0.2881456E+03  0.7546771E-02  0.1091321E+00
         21   -1    0    0  502  501  0.00000000000E+00  0.00000000000E+00  0.11990152984E+04  0.11990152984E+04  0.00000000000E+00 0.  1.
         21   -1    0    0  501  502 -0.00000000000E+00 -0.00000000000E+00 -0.69246741439E+02  0.69246741439E+02  0.00000000000E+00 0.  1.
         25    1    1    2    0    0  0.49094878179E+02 -0.13479680640E+03  0.37860181164E+03  0.42372729184E+03  0.12500000000E+03 0.  0.
         25    1    1    2    0    0  0.56759870405E+02 -0.35205544291E+02  0.20182943697E+03  0.24661961574E+03  0.12500000000E+03 0.  0.
         25    1    1    2    0    0 -0.10585474858E+03  0.17000235069E+03  0.54933730837E+03  0.59791513227E+03  0.12500000000E+03 0.  0.
</event>
<event>
 5    0  0.5619558E-005  0.3252700E+03  0.7546771E-02  0.1073249E+00
         21   -1    0    0  502  501  0.00000000000E+00  0.00000000000E+00  0.32228976633E+03  0.32228976633E+03  0.00000000000E+00 0.  1.
         21   -1    0    0  501  502 -0.00000000000E+00 -0.00000000000E+00 -0.32827769667E+03  0.32827769667E+03  0.00000000000E+00 0.  1.
         25    1    1    2    0    0  0.19931434475E+03  0.51558801259E+02 -0.13663855461E+03  0.27691083874E+03  0.12500000000E+03 0.  0.
         25    1    1    2    0    0 -0.71469482159E+02  0.39422024975E+02  0.50050512219E+02  0.15745487197E+03  0.12500000000E+03 0.  0.
         25    1    1    2    0    0 -0.12784486259E+03 -0.90980826234E+02  0.80600112040E+02  0.21620175229E+03  0.12500000000E+03 0.  0.
</event>
<event>
 5    0  0.5619558E-005  0.3613639E+03  0.7546771E-02  0.1058045E+00
         21   -1    0    0  502  501  0.00000000000E+00  0.00000000000E+00  0.39755103383E+03  0.39755103383E+03  0.00000000000E+00 0. -1.
         21   -1    0    0  501  502 -0.00000000000E+00 -0.00000000000E+00 -0.32847064588E+03  0.32847064588E+03  0.00000000000E+00 0. -1.
         25    1    1    2    0    0 -0.13892300030E+03 -0.13945817358E+03  0.11830862923E+03  0.26147679427E+03  0.12500000000E+03 0.  0.
         25    1    1    2    0    0  0.17414435588E+03  0.31550424734E+02  0.10052505759E+03  0.23885554879E+03  0.12500000000E+03 0.  0.
         25    1    1    2    0    0 -0.35221355588E+02  0.10790774885E+03 -0.14975329887E+03  0.22568933664E+03  0.12500000000E+03 0.  0.
</event>
<event>
 5    0  0.5619558E-005  0.3439824E+03  0.7546771E-02  0.1065112E+00
         21   -1    0    0  502  501  0.00000000000E+00  0.00000000000E+00  0.67007775690E+03  0.67007775690E+03  0.00000000000E+00 0. -1.
         21   -1    0    0  501  502 -0.00000000000E+00 -0.00000000000E+00 -0.17658236274E+03  0.17658236274E+03  0.00000000000E+00 0. -1.
         25    1    1    2    0    0 -0.80073145228E+02  0.20568913247E+03  0.19476529707E+03  0.31980970709E+03  0.12500000000E+03 0.  0.
         25    1    1    2    0    0 -0.73596074152E+01 -0.22651986678E+03  0.10480010262E+03  0.27923731015E+03  0.12500000000E+03 0.  0.
         25    1    1    2    0    0  0.87432752643E+02  0.20830734311E+02  0.19392999447E+03  0.24761310241E+03  0.12500000000E+03 0.  0.
</event>
<event>
 5    0  0.5619558E-005  0.2712655E+03  0.7546771E-02  0.1100558E+00
         21   -1    0    0  502  501  0.00000000000E+00  0.00000000000E+00  0.40087978667E+03  0.40087978667E+03  0.00000000000E+00 0. -1.
         21   -1    0    0  501  502 -0.00000000000E+00 -0.00000000000E+00 -0.18355865549E+03  0.18355865549E+03  0.00000000000E+00 0. -1.
         25    1    1    2    0    0 -0.59575370926E+02 -0.82082327646E+02  0.10566227007E+03  0.19255193754E+03  0.12500000000E+03 0.  0.
         25    1    1    2    0    0  0.34203172682E+02 -0.68332255405E+02 -0.29388276955E+02  0.14942498109E+03  0.12500000000E+03 0.  0.
         25    1    1    2    0    0  0.25372198244E+02  0.15041458305E+03  0.14104713807E+03  0.24246152354E+03  0.12500000000E+03 0.  0.
</event>
<event>
 5    0  0.5619558E-005  0.2561528E+03  0.7546771E-02  0.1109477E+00
         21   -1    0    0  502  501  0.00000000000E+00  0.00000000000E+00  0.77189156336E+02  0.77189156336E+02  0.00000000000E+00 0.  1.
         21   -1    0    0  501  502 -0.00000000000E+00 -0.00000000000E+00 -0.85004526670E+03  0.85004526670E+03  0.00000000000E+00 0.  1.
         25    1    1    2    0    0  0.10177407917E+03 -0.11337685999E+01 -0.10744910762E+03  0.19372547419E+03  0.12500000000E+03 0.  0.
         25    1    1    2    0    0 -0.84444853055E+02 -0.67063722060E+02 -0.36648602420E+03  0.40195208913E+03  0.12500000000E+03 0.  0.
         25    1    1    2    0    0 -0.17329226113E+02  0.68197490660E+02 -0.29892097854E+03  0.33155685971E+03  0.12500000000E+03 0.  0.
</event>
<event>
 5    0  0.5619558E-005  0.3837455E+03  0.7546771E-02  0.1049558E+00
         21   -1    0    0  502  501  0.00000000000E+00  0.00000000000E+00  0.14460478826E+03  0.14460478826E+03  0.00000000000E+00 0.  1.
         21   -1    0    0  501  502 -0.00000000000E+00 -0.00000000000E+00 -0.10183662108E+04  0.10183662108E+04  0.00000000000E+00 0.  1.
         25    1    1    2    0    0  0.22088238769E+03  0.13993185219E+02 -0.11153857665E+03  0.27758006504E+03  0.12500000000E+03 0.  0.
         25    1    1    2    0    0 -0.12035957008E+03  0.13923065228E+03 -0.45470610659E+03  0.50621561021E+03  0.12500000000E+03 0.  0.
         25    1    1    2    0    0 -0.10052281761E+03 -0.15322383750E+03 -0.30751673934E+03  0.37917532384E+03  0.12500000000E+03 0.  0.
</event>
<event>
 5    0  0.5619558E-005  0.2709284E+03  0.7546771E-02  0.1100749E+00
         21   -1    0    0  502  501  0.00000000000E+00  0.00000000000E+00  0.19748704666E+04  0.19748704666E+04  0.00000000000E+00 0.  1.
         21   -1    0    0  501  502 -0.00000000000E+00 -0.00000000000E+00 -0.37168102023E+02  0.37168102023E+02  0.00000000000E+00 0.  1.
         25    1    1    2    0    0  0.68550786003E+02 -0.91961204016E+02  0.41525176496E+03  0.44857006321E+03  0.12500000000E+03 0.  0.
         25    1    1    2    0    0 -0.54458489623E+02  0.13804864648E+03  0.58122698097E+03  0.61275848366E+03  0.12500000000E+03 0.  0.
         25    1    1    2    0    0 -0.14092296380E+02 -0.46087442461E+02  0.94122361862E+03  0.95071002173E+03  0.12500000000E+03 0.  0.
</event>
<event>
 5    0  0.5619558E-005  0.2857737E+03  0.7546771E-02  0.1092577E+00
         21   -1    0    0  502  501  0.00000000000E+00  0.00000000000E+00  0.75515709862E+03  0.75515709862E+03  0.00000000000E+00 0.  1.
         21   -1    0    0  501  502 -0.00000000000E+00 -0.00000000000E+00 -0.10814522262E+03  0.10814522262E+03  0.00000000000E+00 0.  1.
         25    1    1    2    0    0  0.49915521403E+02 -0.47763123672E+02  0.11395218386E+03  0.18271008584E+03  0.12500000000E+03 0.  0.
         25    1    1    2    0    0  0.81308020878E+02  0.14336953098E+03  0.18932541923E+03  0.28041920591E+03  0.12500000000E+03 0.  0.
         25    1    1    2    0    0 -0.13122354228E+03 -0.95606407311E+02  0.34373427291E+03  0.40017302950E+03  0.12500000000E+03 0.  0.
</event>
<event>
 5    0  0.5619558E-005  0.5484846E+03  0.7546771E-02  0.1001845E+00
         21   -1    0    0  502  501  0.00000000000E+00  0.00000000000E+00  0.51587643383E+03  0.51587643383E+03  0.00000000000E+00 0.  1.
         21   -1    0    0  501  502 -0.00000000000E+00 -0.00000000000E+00 -0.58315394417E+03  0.58315394417E+03  0.00000000000E+00 0.  1.
         25    1    1    2    0    0  0.94082685327E+02 -0.23500191398E+03  0.12077714893E+03  0.30706606936E+03  0.12500000000E+03 0.  0.
         25    1    1    2    0    0 -0.30326165538E+03  0.35814771294E+03 -0.56623810445E+02  0.48894649177E+03  0.12500000000E+03 0.  0.
         25    1    1    2    0    0  0.20917897005E+03 -0.12314579896E+03 -0.13143084883E+03  0.30301781687E+03  0.12500000000E+03 0.  0.
</event>
<event>
 5    0  0.5619558E-005  0.2714652E+03  0.7546771E-02  0.1100444E+00
         21   -1    0    0  502  501  0.00000000000E+00  0.00000000000E+00  0.54803349539E+02  0.54803349539E+02  0.00000000000E+00 0.  1.
         21   -1    0    0  501  502 -0.00000000000E+00 -0.00000000000E+00 -0.13446869360E+04  0.13446869360E+04  0.00000000000E+00 0.  1.
         25    1    1    2    0    0  0.38085377267E+02 -0.37797715436E+02 -0.81379428680E+03  0.82508502863E+03  0.12500000000E+03 0.  0.
         25    1    1    2    0    0 -0.44359860400E+02  0.11154098679E+03 -0.29633025370E+03  0.34328677255E+03  0.12500000000E+03 0.  0.
         25    1    1    2    0    0  0.62744831333E+01 -0.73743271350E+02 -0.17975904598E+03  0.23111848438E+03  0.12500000000E+03 0.  0.
</event>
<event>
 5    0  0.5619558E-005  0.2378428E+03  0.7546771E-02  0.1121238E+00
         21   -1    0    0  502  501  0.00000000000E+00  0.00000000000E+00  0.80914366716E+02  0.80914366716E+02  0.00000000000E+00 0. -1.
         21   -1    0    0  501  502 -0.00000000000E+00 -0.00000000000E+00 -0.69912412904E+03  0.69912412904E+03  0.00000000000E+00 0. -1.
         25    1    1    2    0    0 -0.27144671322E+02  0.20394446326E+02 -0.78562663693E+02  0.15149210788E+03  0.12500000000E+03 0.  0.
         25    1    1    2    0    0  0.61964898665E+02  0.38333695823E+02 -0.41421638577E+03  0.43875885763E+03  0.12500000000E+03 0.  0.
         25    1    1    2    0    0 -0.34820227343E+02 -0.58728142149E+02 -0.12543071286E+03  0.18978753026E+03  0.12500000000E+03 0.  0.
</event>
<event>
 5    0  0.5619558E-005  0.2840602E+03  0.7546771E-02  0.1093492E+00
         21   -1    0    0  502  501  0.00000000000E+00  0.00000000000E+00  0.29558695553E+03  0.29558695553E+03  0.00000000000E+00 0.  1.
         21   -1    0    0  501  502 -0.00000000000E+00 -0.00000000000E+00 -0.27298296186E+03  0.27298296186E+03  0.00000000000E+00 0.  1.
         25    1    1    2    0    0  0.96378583764E+01  0.41484313279E+02  0.23228772848E+02  0.13408360247E+03  0.12500000000E+03 0.  0.
         25    1    1    2    0    0 -0.39671225188E+02 -0.18981523042E+03  0.39685801320E+02  0.23410166730E+03  0.12500000000E+03 0.  0.
         25    1    1    2    0    0  0.30033366812E+02  0.14833091714E+03 -0.40310580505E+02  0.20038464762E+03  0.12500000000E+03 0.  0.
</event>
<event>
 5    0  0.5619558E-005  0.3446875E+03  0.7546771E-02  0.1064817E+00
         21   -1    0    0  502  501  0.00000000000E+00  0.00000000000E+00  0.43143086267E+03  0.43143086267E+03  0.00000000000E+00 0.  1.
         21   -1    0    0  501  502 -0.00000000000E+00 -0.00000000000E+00 -0.27538466515E+03  0.27538466515E+03  0.00000000000E+00 0.  1.
         25    1    1    2    0    0  0.81416770428E+02  0.33882485116E+02  0.26283745770E+02  0.15521774575E+03  0.12500000000E+03 0.  0.
         25    1    1    2    0    0  0.18717781554E+03  0.38701611426E+02  0.28209650994E+02  0.23011765201E+03  0.12500000000E+03 0.  0.
         25    1    1    2    0    0 -0.26859458597E+03 -0.72584096542E+02  0.10155280076E+03  0.32148013006E+03  0.12500000000E+03 0.  0.
</event>
<event>
 5    0  0.5619558E-005  0.2253290E+03  0.7546771E-02  0.1129971E+00
         21   -1    0    0  502  501  0.00000000000E+00  0.00000000000E+00  0.14848924803E+03  0.14848924803E+03  0.00000000000E+00 0.  1.
         21   -1    0    0  501  502 -0.00000000000E+00 -0.00000000000E+00 -0.34193154119E+03  0.34193154119E+03  0.00000000000E+00 0.  1.
         25    1    1    2    0    0 -0.39076136185E+02  0.65906329450E+02 -0.15591061729E+03  0.21401801154E+03  0.12500000000E+03 0.  0.
         25    1    1    2    0    0  0.19169397564E+02 -0.42616929785E+01  0.12128103004E+02  0.12711301551E+03  0.12500000000E+03 0.  0.
         25    1    1    2    0    0  0.19906738621E+02 -0.61644636472E+02 -0.49659778882E+02  0.14928976216E+03  0.12500000000E+03 0.  0.
</event>
<event>
 5    0  0.5619558E-005  0.2458414E+03  0.7546771E-02  0.1115961E+00
         21   -1    0    0  502  501  0.00000000000E+00  0.00000000000E+00  0.12393621018E+04  0.12393621018E+04  0.00000000000E+00 0.  1.
         21   -1    0    0  501  502 -0.00000000000E+00 -0.00000000000E+00 -0.48765415992E+02  0.48765415992E+02  0.00000000000E+00 0.  1.
         25    1    1    2    0    0  0.63071751249E+02  0.45841940662E+02  0.13924031325E+03  0.20271259005E+03  0.12500000000E+03 0.  0.
         25    1    1    2    0    0 -0.25155519093E+02 -0.29546951618E+02  0.64920639237E+03  0.66226864820E+03  0.12500000000E+03 0.  0.
         25    1    1    2    0    0 -0.37916232156E+02 -0.16294989043E+02  0.40214998014E+03  0.42314627950E+03  0.12500000000E+03 0.  0.
</event>
<event>
 5    0  0.5619558E-005  0.3631154E+03  0.7546771E-02  0.1057357E+00
         21   -1    0    0  502  501  0.00000000000E+00  0.00000000000E+00  0.10433541939E+03  0.10433541939E+03  0.00000000000E+00 0.  1.
         21   -1    0    0  501  502 -0.00000000000E+00 -0.00000000000E+00 -0.12637397866E+04  0.12637397866E+04  0.00000000000E+00 0.  1.
         25    1    1    2    0    0 -0.87224951382E+02  0.26545991174E+02 -0.74386379523E+03  0.75978367161E+03  0.12500000000E+03 0.  0.
         25    1    1    2    0    0  0.13836303105E+02 -0.13273591357E+03 -0.33213820387E+02  0.18584516109E+03  0.12500000000E+03 0.  0.
         25    1    1    2    0    0  0.73388648278E+02  0.10618992240E+03 -0.38232675155E+03  0.42244637324E+03  0.12500000000E+03 0.  0.
</event>
<event>
 5    0  0.5619558E-005  0.4516443E+03  0.7546771E-02  0.1027233E+00
         21   -1    0    0  502  501  0.00000000000E+00  0.00000000000E+00  0.48033070635E+03  0.48033070635E+03  0.00000000000E+00 0.  1.
         21   -1    0    0  501  502 -0.00000000000E+00 -0.00000000000E+00 -0.42467117988E+03  0.42467117988E+03  0.00000000000E+00 0.  1.
         25    1    1    2    0    0 -0.20961773703E+03  0.24669826239E+03 -0.85285405161E+02  0.35734888929E+03  0.12500000000E+03 0.  0.
         25    1    1    2    0    0  0.11254598996E+03 -0.30286409626E+03  0.15418007065E+03  0.37919619572E+03  0.12500000000E+03 0.  0.
         25    1    1    2    0    0  0.97071747063E+02  0.56165833869E+02 -0.13235139023E+02  0.16845680122E+03  0.12500000000E+03 0.  0.
</event>
<event>
 5    0  0.5619558E-005  0.5631997E+03  0.7546771E-02  0.9984841E-01
         21   -1    0    0  502  501  0.00000000000E+00  0.00000000000E+00  0.10326732347E+03  0.10326732347E+03  0.00000000000E+00 0. -1.
         21   -1    0    0  501  502 -0.00000000000E+00 -0.00000000000E+00 -0.30715805338E+04  0.30715805338E+04  0.00000000000E+00 0. -1.
         25    1    1    2    0    0  0.21765938113E+03 -0.70107343532E+02 -0.10734078337E+04  0.11045904324E+04  0.12500000000E+03 0.  0.
         25    1    1    2    0    0  0.27938197650E+03  0.83302402122E+02 -0.62851312765E+03  0.70402225152E+03  0.12500000000E+03 0.  0.
         25    1    1    2    0    0 -0.49704135763E+03 -0.13195058589E+02 -0.12663922489E+04  0.13662351734E+04  0.12500000000E+03 0.  0.
</event>
<event>
 5    0  0.6469668E-005  0.2943092E+03  0.7546771E-02  0.1088120E+00
         21   -1    0    0  502  501  0.00000000000E+00  0.00000000000E+00  0.74358746543E+03  0.74358746543E+03  0.00000000000E+00 0.  1.
         21   -1    0    0  501  502 -0.00000000000E+00 -0.00000000000E+00 -0.11648654449E+03  0.11648654449E+03  0.00000000000E+00 0.  1.
         25    1    1    2    0    0 -0.24148992975E+01 -0.13749436951E+02  0.12338924240E+02  0.12638088387E+03  0.12500000000E+03 0.  0.
         25    1    1    2    0    0 -0.13011826232E+03 -0.17930586150E+02  0.15646306489E+03  0.23949521662E+03  0.12500000000E+03 0.  0.
         25    1    1    2    0    0  0.13253316162E+03  0.31680023101E+02  0.45829893181E+03  0.49419790944E+03  0.12500000000E+03 0.  0.
</event>
<event>
 5    0  0.5619558E-005  0.3746156E+03  0.7546771E-02  0.1052942E+00
         21   -1    0    0  502  501  0.00000000000E+00  0.00000000000E+00  0.47865362208E+03  0.47865362208E+03  0.00000000000E+00 0.  1.
         21   -1    0    0  501  502 -0.00000000000E+00 -0.00000000000E+00 -0.29319078535E+03  0.29319078535E+03  0.00000000000E+00 0.  1.
         25    1    1    2    0    0 -0.62324939602E+02 -0.99305728610E+02  0.32255780424E+03  0.36525958291E+03  0.12500000000E+03 0.  0.
         25    1    1    2    0    0 -0.40443835703E+02  0.11380484869E+03 -0.16739189676E+03  0.24131368493E+03  0.12500000000E+03 0.  0.
         25    1    1    2    0    0  0.10276877530E+03 -0.14499120079E+02  0.30296929260E+02  0.16527113960E+03  0.12500000000E+03 0.  0.
</event>
<event>
 5    0  0.5619558E-005  0.2622707E+03  0.7546771E-02  0.1105787E+00
         21   -1    0    0  502  501  0.00000000000E+00  0.00000000000E+00  0.11752700548E+03  0.11752700548E+03  0.00000000000E+00 0. -1.
         21   -1    0    0  501  502 -0.00000000000E+00 -0.00000000000E+00 -0.58527765571E+03  0.58527765571E+03  0.00000000000E+00 0. -1.
         25    1    1    2    0    0  0.64967718675E+02  0.95427921426E+02 -0.37353932833E+02  0.17420565133E+03  0.12500000000E+03 0.  0.
         25    1    1    2    0    0 -0.31260186038E+02 -0.10614327178E+03 -0.17377540644E+03  0.24096988455E+03  0.12500000000E+03 0.  0.
         25    1    1    2    0    0 -0.33707532637E+02  0.10715350354E+02 -0.25662131096E+03  0.28762912531E+03  0.12500000000E+03 0.  0.
</event>
<event>
 5    0  0.5619558E-005  0.4121614E+03  0.7546771E-02  0.1039648E+00
         21   -1    0    0  502  501  0.00000000000E+00  0.00000000000E+00  0.61979189925E+03  0.61979189925E+03  0.00000000000E+00 0. -1.
         21   -1    0    0  501  502 -0.00000000000E+00 -0.00000000000E+00 -0.27408723411E+03  0.27408723411E+03  0.00000000000E+00 0. -1.
         25    1    1    2    0    0  0.18110910780E+03 -0.14233296489E+03  0.33235291005E+03  0.42325245261E+03  0.12500000000E+03 0.  0.
         25    1    1    2    0    0  0.20731284884E+02  0.84839163443E+02 -0.11842696338E+03  0.19307360120E+03  0.12500000000E+03 0.  0.
         25    1    1    2    0    0 -0.20184039269E+03  0.57493801449E+02  0.13177871847E+03  0.27755307955E+03  0.12500000000E+03 0.  0.
</event>
<event>
 5    0  0.5619558E-005  0.3105519E+03  0.7546771E-02  0.1080082E+00
         21   -1    0    0  502  501  0.00000000000E+00  0.00000000000E+00  0.18878537786E+03  0.18878537786E+03  0.00000000000E+00 0.  1.
         21   -1    0    0  501  502 -0.00000000000E+00 -0.00000000000E+00 -0.51085768961E+03  0.51085768961E+03  0.00000000000E+00 0.  1.
         25    1    1    2    0    0  0.10222755348E+02 -0.46142237086E+02 -0.92828676588E+01  0.13395813675E+03  0.12500000000E+03 0.  0.
         25    1    1    2    0    0  0.59534437118E+01 -0.16487691569E+03 -0.65713826525E+02  0.21717078030E+03  0.12500000000E+03 0.  0.
         25    1    1    2    0    0 -0.16176199060E+02  0.21101915277E+03 -0.24707561756E+03  0.34851415043E+03  0.12500000000E+03 0.  0.
</event>
<event>
 5    0  0.5619558E-005  0.3825127E+03  0.7546771E-02  0.1050009E+00
         21   -1    0    0  502  501  0.00000000000E+00  0.00000000000E+00  0.24347923818E+03  0.24347923818E+03  0.00000000000E+00 0. -1.
         21   -1    0    0  501  502 -0.00000000000E+00 -0.00000000000E+00 -0.60093824190E+03  0.60093824190E+03  0.00000000000E+00 0. -1.
         25    1    1    2    0    0  0.26154470222E+02  0.13102649117E+03  0.11986778718E+01  0.18297113032E+03  0.12500000000E+03 0.  0.
         25    1    1    2    0    0  0.84550858552E+02 -0.13676253011E+03  0.58648709840E+02  0.21193751081E+03  0.12500000000E+03 0.  0.
         25    1    1    2    0    0 -0.11070532877E+03  0.57360389412E+01 -0.41730639144E+03  0.44950883895E+03  0.12500000000E+03 0.  0.
</event>
<event>
 5    0  0.5619558E-005  0.3322692E+03  0.7546771E-02  0.1070137E+00
         21   -1    0    0  502  501  0.00000000000E+00  0.00000000000E+00  0.34525189004E+03  0.34525189004E+03  0.00000000000E+00 0.  1.
         21   -1    0    0  501  502 -0.00000000000E+00 -0.00000000000E+00 -0.31977461677E+03  0.31977461677E+03  0.00000000000E+00 0.  1.
         25    1    1    2    0    0  0.17954729442E+03  0.70087698097E+02  0.12876056768E+03  0.26335109673E+03  0.12500000000E+03 0.  0.
         25    1    1    2    0    0 -0.81299939782E+01  0.33448950278E+01 -0.12391074062E+03  0.17622757096E+03  0.12500000000E+03 0.  0.
         25    1    1    2    0    0 -0.17141730044E+03 -0.73432593125E+02  0.20627446204E+02  0.22544783912E+03  0.12500000000E+03 0.  0.
</event>
<event>
 5    0  0.5619558E-005  0.4410474E+03  0.7546771E-02  0.1030426E+00
         21   -1    0    0  502  501  0.00000000000E+00  0.00000000000E+00  0.42842358388E+03  0.42842358388E+03  0.00000000000E+00 0. -1.
         21   -1    0    0  501  502 -0.00000000000E+00 -0.00000000000E+00 -0.45404311942E+03  0.45404311942E+03  0.00000000000E+00 0. -1.
         25    1    1    2    0    0 -0.19537190230E+03 -0.14568272718E+03 -0.23107584467E+03  0.35834994516E+03  0.12500000000E+03 0.  0.
         25    1    1    2    0    0  0.18515556287E+03  0.22675813132E+03  0.19740257406E+03  0.37455921939E+03  0.12500000000E+03 0.  0.
         25    1    1    2    0    0  0.10216339428E+02 -0.81075404145E+02  0.80537350746E+01  0.14955753875E+03  0.12500000000E+03 0.  0.
</event>
<event>
 5    0  0.5619558E-005  0.2593320E+03  0.7546771E-02  0.1107545E+00
         21   -1    0    0  502  501  0.00000000000E+00  0.00000000000E+00  0.20760668976E+03  0.20760668976E+03  0.00000000000E+00 0.  1.
         21   -1    0    0  501  502 -0.00000000000E+00 -0.00000000000E+00 -0.32394464795E+03  0.32394464795E+03  0.00000000000E+00 0.  1.
         25    1    1    2    0    0  0.60203755186E+02 -0.75373802891E+02 -0.46514812418E+02  0.16460355426E+03  0.12500000000E+03 0.  0.
         25    1    1    2    0    0  0.11350612555E+02  0.11291883298E+03 -0.12300337817E+03  0.20888832013E+03  0.12500000000E+03 0.  0.
         25    1    1    2    0    0 -0.71554367741E+02 -0.37545030086E+02  0.53180232399E+02  0.15805946332E+03  0.12500000000E+03 0.  0.
</event>
<event>
 5    0  0.5619558E-005  0.3089270E+03  0.7546771E-02  0.1080861E+00
         21   -1    0    0  502  501  0.00000000000E+00  0.00000000000E+00  0.18289281808E+03  0.18289281808E+03  0.00000000000E+00 0.  1.
         21   -1    0    0  501  502 -0.00000000000E+00 -0.00000000000E+00 -0.52181314913E+03  0.52181314913E+03  0.00000000000E+00 0.  1.
         25    1    1    2    0    0 -0.18321355834E+03 -0.23464446383E+02 -0.10987906382E+03  0.24862863244E+03  0.12500000000E+03 0.  0.
         25    1    1    2    0    0  0.14858172367E+03  0.98411187815E+02 -0.51338087811E+02  0.22365573938E+03  0.12500000000E+03 0.  0.
         25    1    1    2    0    0  0.34631834670E+02 -0.74946741432E+02 -0.17770317942E+03  0.23242159538E+03  0.12500000000E+03 0.  0.
</event>
<event>
 5    0  0.5619558E-005  0.2723067E+03  0.7546771E-02  0.1099967E+00
         21   -1    0    0  502  501  0.00000000000E+00  0.00000000000E+00  0.51671668118E+02  0.51671668118E+02  0.00000000000E+00 0. -1.
         21   -1    0    0  501  502 -0.00000000000E+00 -0.00000000000E+00 -0.14350408520E+04  0.14350408520E+04  0.00000000000E+00 0. -1.
         25    1    1    2    0    0 -0.17810448001E+01  0.76921603706E+02 -0.35920600448E+03  0.38803873375E+03  0.12500000000E+03 0.  0.
         25    1    1    2    0    0 -0.13362695505E+03 -0.83468910284E+02 -0.39808156042E+03  0.44600129019E+03  0.12500000000E+03 0.  0.
         25    1    1    2    0    0  0.13540799985E+03  0.65473065774E+01 -0.62608161895E+03  0.65267249615E+03  0.12500000000E+03 0.  0.
</event>
<event>
 5    0  0.5619558E-005  0.2493122E+03  0.7546771E-02  0.1113740E+00
         21   -1    0    0  502  501  0.00000000000E+00  0.00000000000E+00  0.14246605836E+04  0.14246605836E+04  0.00000000000E+00 0. -1.
         21   -1    0    0  501  502 -0.00000000000E+00 -0.00000000000E+00 -0.43629044992E+02  0.43629044992E+02  0.00000000000E+00 0. -1.
         25    1    1    2    0    0  0.42958127709E+02 -0.18208431349E+02  0.69812370899E+03  0.71075921434E+03  0.12500000000E+03 0.  0.
         25    1    1    2    0    0  0.48619494891E+02 -0.16444077602E+02  0.48676673646E+03  0.50517434485E+03  0.12500000000E+03 0.  0.
         25    1    1    2    0    0 -0.91577622600E+02  0.34652508951E+02  0.19614109313E+03  0.25235606938E+03  0.12500000000E+03 0.  0.
</event>
<event>
 5    0  0.5619558E-005  0.5315481E+03  0.7546771E-02  0.1005857E+00
         21   -1    0    0  502  501  0.00000000000E+00  0.00000000000E+00  0.11382609389E+03  0.11382609389E+03  0.00000000000E+00 0.  1.
         21   -1    0    0  501  502 -0.00000000000E+00 -0.00000000000E+00 -0.24822375117E+04  0.24822375117E+04  0.00000000000E+00 0.  1.
         25    1    1    2    0    0  0.22385163393E+03 -0.11366288926E+03 -0.13966289882E+03  0.31330421592E+03  0.12500000000E+03 0.  0.
         25    1    1    2    0    0 -0.54397334444E+02 -0.11734933508E+03 -0.73969961988E+03  0.76125584666E+03  0.12500000000E+03 0.  0.
         25    1    1    2    0    0 -0.16945429949E+03  0.23101222434E+03 -0.14890488991E+04  0.15215035430E+04  0.12500000000E+03 0.  0.
</event>
<event>
 5    0  0.5962969E-005  0.3350665E+03  0.7546771E-02  0.1068917E+00
         21   -1    0    0  502  501  0.00000000000E+00  0.00000000000E+00  0.51053819421E+03  0.51053819421E+03  0.00000000000E+00 0. -1.
         21   -1    0    0  501  502 -0.00000000000E+00 -0.00000000000E+00 -0.21990433815E+03  0.21990433815E+03  0.00000000000E+00 0. -1.
         25    1    1    2    0    0 -0.15988863687E+03  0.11767991887E+03  0.11018860656E+03  0.25919002396E+03  0.12500000000E+03 0.  0.
         25    1    1    2    0    0  0.15125799608E+03 -0.19082673981E+03  0.17732420868E+03  0.32613294987E+03  0.12500000000E+03 0.  0.
         25    1    1    2    0    0  0.86306407876E+01  0.73146820934E+02  0.31210408192E+01  0.14511955853E+03  0.12500000000E+03 0.  0.
</event>
<event>
 5    0  0.5619558E-005  0.2607269E+03  0.7546771E-02  0.1106707E+00
         21   -1    0    0  502  501  0.00000000000E+00  0.00000000000E+00  0.14910658779E+02  0.14910658779E+02  0.00000000000E+00 0. -1.
         21   -1    0    0  501  502 -0.00000000000E+00 -0.00000000000E+00 -0.45590550799E+04  0.45590550799E+04  0.00000000000E+00 0. -1.
         25    1    1    2    0    0  0.91232108793E+02 -0.16823095475E+02 -0.65653040819E+03  0.67473216249E+03  0.12500000000E+03 0.  0.
         25    1    1    2    0    0  0.23620469730E+01 -0.41670598924E+02 -0.19565693226E+04  0.19610024304E+04  0.12500000000E+03 0.  0.
         25    1    1    2    0    0 -0.93594155766E+02  0.58493694399E+02 -0.19310446903E+04  0.19382311458E+04  0.12500000000E+03 0.  0.
</event>
<event>
 5    0  0.5619558E-005  0.3026342E+03  0.7546771E-02  0.1083931E+00
         21   -1    0    0  502  501  0.00000000000E+00  0.00000000000E+00  0.26671236216E+03  0.26671236216E+03  0.00000000000E+00 0. -1.
         21   -1    0    0  501  502 -0.00000000000E+00 -0.00000000000E+00 -0.34339419807E+03  0.34339419807E+03  0.00000000000E+00 0. -1.
         25    1    1    2    0    0 -0.17503425343E+03  0.13841870435E+03 -0.54449179880E+02  0.26150801284E+03  0.12500000000E+03 0.  0.
         25    1    1    2    0    0  0.67833177504E+02 -0.10545239719E+03 -0.33853088719E+02  0.18025698228E+03  0.12500000000E+03 0.  0.
         25    1    1    2    0    0  0.10720107593E+03 -0.32966307158E+02  0.11620432684E+02  0.16834156511E+03  0.12500000000E+03 0.  0.
</event>
<event>
 5    0  0.5619558E-005  0.3098554E+03  0.7546771E-02  0.1080415E+00
         21   -1    0    0  502  501  0.00000000000E+00  0.00000000000E+00  0.11152316849E+04  0.11152316849E+04  0.00000000000E+00 0. -1.
         21   -1    0    0  501  502 -0.00000000000E+00 -0.00000000000E+00 -0.86090059329E+02  0.86090059329E+02  0.00000000000E+00 0. -1.
         25    1    1    2    0    0 -0.42960011134E+02 -0.12458992783E+03  0.52027970514E+03  0.55107547964E+03  0.12500000000E+03 0.  0.
         25    1    1    2    0    0 -0.90374979422E+02  0.95920565705E+02  0.39034804945E+03  0.43054034833E+03  0.12500000000E+03 0.  0.
         25    1    1    2    0    0  0.13333499056E+03  0.28669362125E+02  0.11851387100E+03  0.21970591628E+03  0.12500000000E+03 0.  0.
</event>
<event>
 5    0  0.5619558E-005  0.3679535E+03  0.7546771E-02  0.1055478E+00
         21   -1    0    0  502  501  0.00000000000E+00  0.00000000000E+00  0.10319066291E+03  0.10319066291E+03  0.00000000000E+00 0.  1.
         21   -1    0    0  501  502 -0.00000000000E+00 -0.00000000000E+00 -0.13120351978E+04  0.13120351978E+04  0.00000000000E+00 0.  1.
         25    1    1    2    0    0  0.90937472195E+02  0.76725202077E+02 -0.38995355410E+02  0.17692376388E+03  0.12500000000E+03 0.  0.
         25    1    1    2    0    0 -0.13033613108E+03  0.82595878230E+02 -0.61994028026E+03  0.65096892188E+03  0.12500000000E+03 0.  0.
         25    1    1    2    0    0  0.39398658888E+02 -0.15932108031E+03 -0.54990889926E+03  0.58733317499E+03  0.12500000000E+03 0.  0.
</event>
<event>
 5    0  0.5619558E-005  0.2140619E+03  0.7546771E-02  0.1138389E+00
         21   -1    0    0  502  501  0.00000000000E+00  0.00000000000E+00  0.50054857877E+02  0.50054857877E+02  0.00000000000E+00 0. -1.
         21   -1    0    0  501  502 -0.00000000000E+00 -0.00000000000E+00 -0.91544525461E+03  0.91544525461E+03  0.00000000000E+00 0. -1.
         25    1    1    2    0    0 -0.17148202748E+02 -0.34999458065E+02 -0.28205773262E+03  0.31096718067E+03  0.12500000000E+03 0.  0.
         25    1    1    2    0    0 -0.28938809831E+02  0.61323050931E+02 -0.41234626016E+03  0.43617933188E+03  0.12500000000E+03 0.  0.
         25    1    1    2    0    0  0.46087012579E+02 -0.26323592867E+02 -0.17098640396E+03  0.21835359994E+03  0.12500000000E+03 0.  0.
</event>
<event>
 5    0  0.5619558E-005  0.2942830E+03  0.7546771E-02  0.1088134E+00
         21   -1    0    0  502  501  0.00000000000E+00  0.00000000000E+00  0.10177118777E+04  0.10177118777E+04  0.00000000000E+00 0.  1.
         21   -1    0    0  501  502 -0.00000000000E+00 -0.00000000000E+00 -0.85095284705E+02  0.85095284705E+02  0.00000000000E+00 0.  1.
         25    1    1    2    0    0  0.62936474499E+02  0.47768528341E+02  0.39885739160E+03  0.42538811802E+03  0.12500000000E+03 0.  0.
         25    1    1    2    0    0 -0.13079684634E+03  0.10090543099E+03  0.31582411844E+03  0.37770305109E+03  0.12500000000E+03 0.  0.
         25    1    1    2    0    0  0.67860371837E+02 -0.14867395933E+03  0.21793508294E+03  0.29971599327E+03  0.12500000000E+03 0.  0.
</event>
<event>
 5    0  0.5941963E-005  0.2776694E+03  0.7546771E-02  0.1096969E+00
         21   -1    0    0  502  501  0.00000000000E+00  0.00000000000E+00  0.59596966415E+03  0.59596966415E+03  0.00000000000E+00 0.  1.
         21   -1    0    0  501  502 -0.00000000000E+00 -0.00000000000E+00 -0.12936953303E+03  0.12936953303E+03  0.00000000000E+00 0.  1.
         25    1    1    2    0    0  0.11985551659E+02  0.35117113466E+02 -0.48458658092E+01  0.13048121521E+03  0.12500000000E+03 0.  0.
         25    1    1    2    0    0 -0.59075782473E+02 -0.16609703742E+02  0.43269314337E+03  0.45454833258E+03  0.12500000000E+03 0.  0.
         25    1    1    2    0    0  0.47090230814E+02 -0.18507409724E+02  0.38752853557E+02  0.14030964939E+03  0.12500000000E+03 0.  0.
</event>
<event>
 5    0  0.5619558E-005  0.2341846E+03  0.7546771E-02  0.1123729E+00
         21   -1    0    0  502  501  0.00000000000E+00  0.00000000000E+00  0.39529018977E+03  0.39529018977E+03  0.00000000000E+00 0.  1.
         21   -1    0    0  501  502 -0.00000000000E+00 -0.00000000000E+00 -0.13873968062E+03  0.13873968062E+03  0.00000000000E+00 0.  1.
         25    1    1    2    0    0 -0.94502334749E+02  0.30787225538E+02  0.14889205366E+02  0.16039087557E+03  0.12500000000E+03 0.  0.
         25    1    1    2    0    0 -0.20902232395E+01 -0.15560061263E+02  0.98739734904E+02  0.16006567336E+03  0.12500000000E+03 0.  0.
         25    1    1    2    0    0  0.96592557988E+02 -0.15227164275E+02  0.14292156888E+03  0.21357332146E+03  0.12500000000E+03 0.  0.
</event>
<event>
 5    0  0.5619558E-005  0.3010444E+03  0.7546771E-02  0.1084720E+00
         21   -1    0    0  502  501  0.00000000000E+00  0.00000000000E+00  0.46068775846E+03  0.46068775846E+03  0.00000000000E+00 0. -1.
         21   -1    0    0  501  502 -0.00000000000E+00 -0.00000000000E+00 -0.19672264795E+03  0.19672264795E+03  0.00000000000E+00 0. -1.
         25    1    1    2    0    0  0.19498550256E+03  0.11539312125E+03  0.80749013586E+02  0.27107253980E+03  0.12500000000E+03 0.  0.
         25    1    1    2    0    0 -0.10490325713E+03 -0.81253415281E+02  0.10031178918E+03  0.20807274185E+03  0.12500000000E+03 0.  0.
         25    1    1    2    0    0 -0.90082245427E+02 -0.34139705969E+02  0.82904307746E+02  0.17826512477E+03  0.12500000000E+03 0.  0.
</event>
<event>
 5    0  0.5619558E-005  0.3869176E+03  0.7546771E-02  0.1048406E+00
         21   -1    0    0  502  501  0.00000000000E+00  0.00000000000E+00  0.29502700709E+03  0.29502700709E+03  0.00000000000E+00 0. -1.
         21   -1    0    0  501  502 -0.00000000000E+00 -0.00000000000E+00 -0.50742888914E+03  0.50742888914E+03  0.00000000000E+00 0. -1.
         25    1    1    2    0    0  0.26860279566E+03 -0.13776351543E+03 -0.99368543801E+02  0.34150454685E+03  0.12500000000E+03 0.  0.
         25    1    1    2    0    0 -0.10353244492E+03  0.11022359045E+03 -0.15234884289E+03  0.24840164447E+03  0.12500000000E+03 0.  0.
         25    1    1    2    0    0 -0.16507035073E+03  0.27539924988E+02  0.39315504643E+02  0.21254970493E+03  0.12500000000E+03 0.  0.
</event>
<event>
 5    0  0.5619558E-005  0.2884825E+03  0.7546771E-02  0.1091144E+00
         21   -1    0    0  502  501  0.00000000000E+00  0.00000000000E+00  0.28969546058E+03  0.28969546058E+03  0.00000000000E+00 0.  1.
         21   -1    0    0  501  502 -0.00000000000E+00 -0.00000000000E+00 -0.28727461522E+03  0.28727461522E+03  0.00000000000E+00 0.  1.
         25    1    1    2    0    0 -0.24203024659E+02  0.61243628219E+02  0.18232686306E+03  0.23066133918E+03  0.12500000000E+03 0.  0.
         25    1    1    2    0    0  0.51380945814E+01 -0.98095812715E+02 -0.13035926063E+03  0.20559116061E+03  0.12500000000E+03 0.  0.
         25    1    1    2    0    0  0.19064930077E+02  0.36852184496E+02 -0.49546757061E+02  0.14071757600E+03  0.12500000000E+03 0.  0.
</event>
<event>
 5    0  0.5619558E-005  0.2402828E+03  0.7546771E-02  0.1119605E+00
         21   -1    0    0  502  501  0.00000000000E+00  0.00000000000E+00  0.41176594383E+02  0.41176594383E+02  0.00000000000E+00 0. -1.
         21   -1    0    0  501  502 -0.00000000000E+00 -0.00000000000E+00 -0.14021520721E+04  0.14021520721E+04  0.00000000000E+00 0. -1.
         25    1    1    2    0    0  0.25506326869E+02  0.21884490361E+01 -0.20331521375E+03  0.24003632676E+03  0.12500000000E+03 0.  0.
         25    1    1    2    0    0 -0.43795516892E+01  0.14727251938E+02 -0.19473899477E+03  0.23191452845E+03  0.12500000000E+03 0.  0.
         25    1    1    2    0    0 -0.21126775180E+02 -0.16915700974E+02 -0.96292126918E+03  0.97137781126E+03  0.12500000000E+03 0.  0.
</event>
<event>
 5    0  0.5619558E-005  0.2337170E+03  0.7546771E-02  0.1124051E+00
         21   -1    0    0  502  501  0.00000000000E+00  0.00000000000E+00  0.54670859696E+02  0.54670859696E+02  0.00000000000E+00 0.  1.
         21   -1    0    0  501  502 -0.00000000000E+00 -0.00000000000E+00 -0.99913619355E+03  0.99913619355E+03  0.00000000000E+00 0.  1.
         25    1    1    2    0    0 -0.47311701036E+02  0.22852545402E+02 -0.50115160981E+03  0.51917104301E+03  0.12500000000E+03 0.  0.
         25    1    1    2    0    0  0.34591884349E+02  0.64178708569E+02 -0.19081538498E+03  0.23948072207E+03  0.12500000000E+03 0.  0.
         25    1    1    2    0    0  0.12719816686E+02 -0.87031253971E+02 -0.25249833906E+03  0.29515528817E+03  0.12500000000E+03 0.  0.
</event>
<event>
 5    0  0.5619558E-005  0.3613932E+03  0.7546771E-02  0.1058034E+00
         21   -1    0    0  502  501  0.00000000000E+00  0.00000000000E+00  0.12074218481E+04  0.12074218481E+04  0.00000000000E+00 0.  1.
         21   -1    0    0  501  502 -0.00000000000E+00 -0.00000000000E+00 -0.10816851262E+03  0.10816851262E+03  0.00000000000E+00 0.  1.
         25    1    1    2    0    0 -0.86646183289E+02 -0.18540669472E+03  0.34346400550E+03  0.41889822941E+03  0.12500000000E+03 0.  0.
         25    1    1    2    0    0  0.61466638232E+02 -0.98959863689E+02  0.26383843173E+03  0.31433568091E+03  0.12500000000E+03 0.  0.
         25    1    1    2    0    0  0.25179545057E+02  0.28436655841E+03  0.49195089824E+03  0.58235645039E+03  0.12500000000E+03 0.  0.
</event>
<event>
 5    0  0.5619558E-005  0.2709218E+03  0.7546771E-02  0.1100753E+00
         21   -1    0    0  502  501  0.00000000000E+00  0.00000000000E+00  0.43733499675E+03  0.43733499675E+03  0.00000000000E+00 0. -1.
         21   -1    0    0  501  502 -0.00000000000E+00 -0.00000000000E+00 -0.16783153972E+03  0.16783153972E+03  0.00000000000E+00 0. -1.
         25    1    1    2    0    0 -0.29088682226E+02  0.43348068216E+02 -0.31109000471E+02  0.13898912318E+03  0.12500000000E+03 0.  0.
         25    1    1    2    0    0 -0.79461328300E+02 -0.72408984891E+02  0.66050586736E+02  0.17760868165E+03  0.12500000000E+03 0.  0.
         25    1    1    2    0    0  0.10855001053E+03  0.29060916675E+02  0.23456187077E+03  0.28856873164E+03  0.12500000000E+03 0.  0.
</event>
<event>
 5    0  0.5619558E-005  0.3830775E+03  0.7546771E-02  0.1049802E+00
         21   -1    0    0  502  501  0.00000000000E+00  0.00000000000E+00  0.75144185582E+03  0.75144185582E+03  0.00000000000E+00 0.  1.
         21   -1    0    0  501  502 -0.00000000000E+00 -0.00000000000E+00 -0.19528906857E+03  0.19528906857E+03  0.00000000000E+00 0.  1.
         25    1    1    2    0    0 -0.38140140402E+02 -0.91244970873E+02  0.37064558019E+03  0.40346432449E+03  0.12500000000E+03 0.  0.
         25    1    1    2    0    0  0.72603780463E+02 -0.15829772514E+03  0.14581150683E+03  0.25925947282E+03  0.12500000000E+03 0.  0.
         25    1    1    2    0    0 -0.34463640062E+02  0.24954269601E+03  0.39695700228E+02  0.28400712709E+03  0.12500000000E+03 0.  0.
</event>
<event>
 5    0  0.5619558E-005  0.7659233E+03  0.7546771E-02  0.9610695E-01
         21   -1    0    0  502  501  0.00000000000E+00  0.00000000000E+00  0.46311227341E+03  0.46311227341E+03  0.00000000000E+00 0. -1.
         21   -1    0    0  501  502 -0.00000000000E+00 -0.00000000000E+00 -0.12667307028E+04  0.12667307028E+04  0.00000000000E+00 0. -1.
         25    1    1    2    0    0 -0.46910938984E+03 -0.32172687752E+02 -0.35270962534E+03  0.60093908284E+03  0.12500000000E+03 0.  0.
         25    1    1    2    0    0  0.71951191241E+03  0.10453403902E+03 -0.25876344213E+03  0.78179810463E+03  0.12500000000E+03 0.  0.
         25    1    1    2    0    0 -0.25040252257E+03 -0.72361351265E+02 -0.19214536191E+03  0.34710578873E+03  0.12500000000E+03 0.  0.
</event>
<event>
 5    0  0.5619558E-005  0.3274473E+03  0.7546771E-02  0.1072272E+00
         21   -1    0    0  502  501  0.00000000000E+00  0.00000000000E+00  0.65148384462E+02  0.65148384462E+02  0.00000000000E+00 0.  1.
         21   -1    0    0  501  502 -0.00000000000E+00 -0.00000000000E+00 -0.16458076266E+04  0.16458076266E+04  0.00000000000E+00 0.  1.
         25    1    1    2    0    0 -0.78855708904E+02 -0.91448808981E+02 -0.47935962541E+03  0.50989386932E+03  0.12500000000E+03 0.  0.
         25    1    1    2    0    0  0.92662680667E+02  0.38790194151E+02 -0.10387557349E+04  0.10510611440E+04  0.12500000000E+03 0.  0.
         25    1    1    2    0    0 -0.13806971764E+02  0.52658614830E+02 -0.62543881833E+02  0.15000099780E+03  0.12500000000E+03 0.  0.
</event>
<event>
 5    0  0.5619558E-005  0.6298614E+03  0.7546771E-02  0.9845319E-01
         21   -1    0    0  502  501  0.00000000000E+00  0.00000000000E+00  0.15678523983E+03  0.15678523983E+03  0.00000000000E+00 0.  1.
         21   -1    0    0  501  502 -0.00000000000E+00 -0.00000000000E+00 -0.25303743378E+04  0.25303743378E+04  0.00000000000E+00 0.  1.
         25    1    1    2    0    0  0.33201106841E+02 -0.27163612823E+03 -0.25908563679E+03  0.39703761389E+03  0.12500000000E+03 0.  0.
         25    1    1    2    0    0  0.19725948598E+03  0.45113680918E+03 -0.88707048572E+03  0.10222302931E+04  0.12500000000E+03 0.  0.
         25    1    1    2    0    0 -0.23046059282E+03 -0.17950068096E+03 -0.12274329754E+04  0.12678916707E+04  0.12500000000E+03 0.  0.
</event>
<event>
 5    0  0.5619558E-005  0.3392674E+03  0.7546771E-02  0.1067108E+00
         21   -1    0    0  502  501  0.00000000000E+00  0.00000000000E+00  0.11989763401E+03  0.11989763401E+03  0.00000000000E+00 0.  1.
         21   -1    0    0  501  502 -0.00000000000E+00 -0.00000000000E+00 -0.96000544508E+03  0.96000544508E+03  0.00000000000E+00 0.  1.
         25    1    1    2    0    0  0.11802975590E+03  0.13140786606E+02 -0.60655168762E+03  0.63058199570E+03  0.12500000000E+03 0.  0.
         25    1    1    2    0    0  0.56846334370E+02  0.58333537376E+02 -0.13878849248E+03  0.20376838067E+03  0.12500000000E+03 0.  0.
         25    1    1    2    0    0 -0.17487609027E+03 -0.71474323983E+02 -0.94767630969E+02  0.24555270273E+03  0.12500000000E+03 0.  0.
</event>
<event>
 5    0  0.5619558E-005  0.5381953E+03  0.7546771E-02  0.1004264E+00
         21   -1    0    0  502  501  0.00000000000E+00  0.00000000000E+00  0.81716346546E+03  0.81716346546E+03  0.00000000000E+00 0. -1.
         21   -1    0    0  501  502 -0.00000000000E+00 -0.00000000000E+00 -0.35446293989E+03  0.35446293989E+03  0.00000000000E+00 0. -1.
         25    1    1    2    0    0  0.13726162156E+03 -0.27685133109E+03 -0.96529809467E+02  0.34703085799E+03  0.12500000000E+03 0.  0.
         25    1    1    2    0    0 -0.75412147519E+01  0.11612069015E+03  0.55759652332E+03  0.58316358547E+03  0.12500000000E+03 0.  0.
         25    1    1    2    0    0 -0.12972040681E+03  0.16073064094E+03  0.16338117161E+01  0.24143196189E+03  0.12500000000E+03 0.  0.
</event>
<event>
 5    0  0.5619558E-005  0.3393329E+03  0.7546771E-02  0.1067080E+00
         21   -1    0    0  502  501  0.00000000000E+00  0.00000000000E+00  0.92253890121E+02  0.92253890121E+02  0.00000000000E+00 0.  1.
         21   -1    0    0  501  502 -0.00000000000E+00 -0.00000000000E+00 -0.12481515267E+04  0.12481515267E+04  0.00000000000E+00 0.  1.
         25    1    1    2    0    0  0.10931808503E+03 -0.52163622453E+02 -0.77325912353E+03  0.79260719107E+03  0.12500000000E+03 0.  0.
         25    1    1    2    0    0  0.59452086008E+02  0.10101141115E+03 -0.12654752586E+03  0.21301908838E+03  0.12500000000E+03 0.  0.
         25    1    1    2    0    0 -0.16877017103E+03 -0.48847788694E+02 -0.25609098716E+03  0.33477913734E+03  0.12500000000E+03 0.  0.
</event>
<event>
 5    0  0.5619558E-005  0.3907283E+03  0.7546771E-02  0.1047038E+00
         21   -1    0    0  502  501  0.00000000000E+00  0.00000000000E+00  0.60401045527E+02  0.60401045527E+02  0.00000000000E+00 0. -1.
         21   -1    0    0  501  502 -0.00000000000E+00 -0.00000000000E+00 -0.25275826331E+04  0.25275826331E+04  0.00000000000E+00 0. -1.
         25    1    1    2    0    0  0.22768228872E+03 -0.14824030211E+03 -0.79458106885E+03  0.84899851987E+03  0.12500000000E+03 0.  0.
         25    1    1    2    0    0 -0.14625979465E+03  0.15396269029E+03 -0.50536450940E+03  0.56224080686E+03  0.12500000000E+03 0.  0.
         25    1    1    2    0    0 -0.81422494069E+02 -0.57223881840E+01 -0.11672360093E+04  0.11767443519E+04  0.12500000000E+03 0.  0.
</event>
<event>
 5    0  0.5619558E-005  0.2817059E+03  0.7546771E-02  0.1094761E+00
         21   -1    0    0  502  501  0.00000000000E+00  0.00000000000E+00  0.52605826760E+02  0.52605826760E+02  0.00000000000E+00 0.  1.
         21   -1    0    0  501  502 -0.00000000000E+00 -0.00000000000E+00 -0.15085438550E+04  0.15085438550E+04  0.00000000000E+00 0.  1.
         25    1    1    2    0    0  0.16081376233E+03 -0.24414494664E+02 -0.34677759537E+03  0.40291045451E+03  0.12500000000E+03 0.  0.
         25    1    1    2    0    0 -0.20469858337E+02  0.23159575577E+02 -0.28217628349E+03  0.31016743221E+03  0.12500000000E+03 0.  0.
         25    1    1    2    0    0 -0.14034390399E+03  0.12549190876E+01 -0.82698414943E+03  0.84807179508E+03  0.12500000000E+03 0.  0.
</event>
<event>
 5    0  0.6062874E-005  0.4271521E+03  0.7546771E-02  0.1034763E+00
         21   -1    0    0  502  501  0.00000000000E+00  0.00000000000E+00  0.15401244626E+03  0.15401244626E+03  0.00000000000E+00 0.  1.
         21   -1    0    0  501  502 -0.00000000000E+00 -0.00000000000E+00 -0.11847024996E+04  0.11847024996E+04  0.00000000000E+00 0.  1.
         25    1    1    2    0    0 -0.23719460362E+03  0.57471484404E+02 -0.41412166479E+03  0.49667494879E+03  0.12500000000E+03 0.  0.
         25    1    1    2    0    0  0.71770751836E+02 -0.82357194138E+02  0.24508703976E+02  0.16780770190E+03  0.12500000000E+03 0.  0.
         25    1    1    2    0    0  0.16542385179E+03  0.24885709734E+02 -0.64107709248E+03  0.67423229512E+03  0.12500000000E+03 0.  0.
</event>
<event>
 5    0  0.5619558E-005  0.2680942E+03  0.7546771E-02  0.1102375E+00
         21   -1    0    0  502  501  0.00000000000E+00  0.00000000000E+00  0.14842946678E+03  0.14842946678E+03  0.00000000000E+00 0. -1.
         21   -1    0    0  501  502 -0.00000000000E+00 -0.00000000000E+00 -0.48423340530E+03  0.48423340530E+03  0.00000000000E+00 0. -1.
         25    1    1    2    0    0  0.13398347793E+03  0.88925677778E+02 -0.12777305680E+03  0.24043773117E+03  0.12500000000E+03 0.  0.
         25    1    1    2    0    0 -0.12884720740E+03 -0.25545136165E+02 -0.16595439705E+03  0.24580483872E+03  0.12500000000E+03 0.  0.
         25    1    1    2    0    0 -0.51362705227E+01 -0.63380541612E+02 -0.42076484661E+02  0.14642030218E+03  0.12500000000E+03 0.  0.
</event>
<event>
 5    0  0.5687296E-005  0.2857300E+03  0.7546771E-02  0.1092600E+00
         21   -1    0    0  502  501  0.00000000000E+00  0.00000000000E+00  0.27320625199E+03  0.27320625199E+03  0.00000000000E+00 0.  1.
         21   -1    0    0  501  502 -0.00000000000E+00 -0.00000000000E+00 -0.29882783606E+03  0.29882783606E+03  0.00000000000E+00 0.  1.
         25    1    1    2    0    0  0.47204502248E+02  0.77880822585E+02 -0.35813684550E+01  0.15469813754E+03  0.12500000000E+03 0.  0.
         25    1    1    2    0    0 -0.93454458063E+02 -0.18186491458E+03  0.27383781842E+02  0.24121246733E+03  0.12500000000E+03 0.  0.
         25    1    1    2    0    0  0.46249955815E+02  0.10398409200E+03 -0.49423997460E+02  0.17612348318E+03  0.12500000000E+03 0.  0.
</event>
<event>
 5    0  0.5619558E-005  0.5188382E+03  0.7546771E-02  0.1008976E+00
         21   -1    0    0  502  501  0.00000000000E+00  0.00000000000E+00  0.39757429981E+03  0.39757429981E+03  0.00000000000E+00 0. -1.
         21   -1    0    0  501  502 -0.00000000000E+00 -0.00000000000E+00 -0.67708876572E+03  0.67708876572E+03  0.00000000000E+00 0. -1.
         25    1    1    2    0    0 -0.22403052346E+03 -0.24691451702E+03 -0.23108424069E+03  0.42447777380E+03  0.12500000000E+03 0.  0.
         25    1    1    2    0    0 -0.66683789414E+02  0.26625076362E+03  0.73639816437E+02  0.31045775794E+03  0.12500000000E+03 0.  0.
         25    1    1    2    0    0  0.29071431288E+03 -0.19336246604E+02 -0.12207004165E+03  0.33972753379E+03  0.12500000000E+03 0.  0.
</event>
<event>
 5    0  0.5619558E-005  0.2798300E+03  0.7546771E-02  0.1095782E+00
         21   -1    0    0  502  501  0.00000000000E+00  0.00000000000E+00  0.58811085982E+02  0.58811085982E+02  0.00000000000E+00 0. -1.
         21   -1    0    0  501  502 -0.00000000000E+00 -0.00000000000E+00 -0.13314632991E+04  0.13314632991E+04  0.00000000000E+00 0. -1.
         25    1    1    2    0    0 -0.32439288853E+02 -0.82919708469E+02 -0.20576232088E+03  0.25669265320E+03  0.12500000000E+03 0.  0.
         25    1    1    2    0    0 -0.53660146892E+02 -0.44930361383E+02 -0.21135470915E+03  0.25533108275E+03  0.12500000000E+03 0.  0.
         25    1    1    2    0    0  0.86099435746E+02  0.12785006985E+03 -0.85553518307E+03  0.87825064911E+03  0.12500000000E+03 0.  0.
</event>
<event>
 5    0  0.5619558E-005  0.3428914E+03  0.7546771E-02  0.1065571E+00
         21   -1    0    0  502  501  0.00000000000E+00  0.00000000000E+00  0.88859021827E+02  0.88859021827E+02  0.00000000000E+00 0. -1.
         21   -1    0    0  501  502 -0.00000000000E+00 -0.00000000000E+00 -0.13231579849E+04  0.13231579849E+04  0.00000000000E+00 0. -1.
         25    1    1    2    0    0  0.20710238865E+03  0.48434365138E+02 -0.67355021258E+03  0.71730898222E+03  0.12500000000E+03 0.  0.
         25    1    1    2    0    0 -0.19355639079E+03 -0.76421083858E+02 -0.20974191299E+03  0.32081291829E+03  0.12500000000E+03 0.  0.
         25    1    1    2    0    0 -0.13545997860E+02  0.27986718720E+02 -0.35100683754E+03  0.37389510626E+03  0.12500000000E+03 0.  0.
</event>
<event>
 5    0  0.5619558E-005  0.3675691E+03  0.7546771E-02  0.1055626E+00
         21   -1    0    0  502  501  0.00000000000E+00  0.00000000000E+00  0.17931470032E+03  0.17931470032E+03  0.00000000000E+00 0. -1.
         21   -1    0    0  501  502 -0.00000000000E+00 -0.00000000000E+00 -0.75346345765E+03  0.75346345765E+03  0.00000000000E+00 0. -1.
         25    1    1    2    0    0  0.85160067569E+02  0.51053304155E+02 -0.19795921482E+03  0.25430597261E+03  0.12500000000E+03 0.  0.
         25    1    1    2    0    0  0.18408946257E+03 -0.12711094176E+03 -0.14355246659E+03  0.29373190567E+03  0.12500000000E+03 0.  0.
         25    1    1    2    0    0 -0.26924953014E+03  0.76057637607E+02 -0.23263707592E+03  0.38474027968E+03  0.12500000000E+03 0.  0.
</event>
<event>
 5    0  0.5619558E-005  0.4062628E+03  0.7546771E-02  0.1041632E+00
         21   -1    0    0  502  501  0.00000000000E+00  0.00000000000E+00  0.17272210086E+03  0.17272210086E+03  0.00000000000E+00 0.  1.
         21   -1    0    0  501  502 -0.00000000000E+00 -0.00000000000E+00 -0.95557815995E+03  0.95557815995E+03  0.00000000000E+00 0.  1.
         25    1    1    2    0    0  0.78989322226E+02  0.24347365640E+03 -0.19404817552E+03  0.34467147955E+03  0.12500000000E+03 0.  0.
         25    1    1    2    0    0  0.12211413948E+03  0.13771118052E+01 -0.17006068297E+03  0.24384297281E+03  0.12500000000E+03 0.  0.
         25    1    1    2    0    0 -0.20110346171E+03 -0.24485076821E+03 -0.41874720060E+03  0.53978580846E+03  0.12500000000E+03 0.  0.
</event>
<event>
 5    0  0.5619558E-005  0.2805590E+03  0.7546771E-02  0.1095384E+00
         21   -1    0    0  502  501  0.00000000000E+00  0.00000000000E+00  0.40257642588E+02  0.40257642588E+02  0.00000000000E+00 0.  1.
         21   -1    0    0  501  502 -0.00000000000E+00 -0.00000000000E+00 -0.19552402957E+04  0.19552402957E+04  0.00000000000E+00 0.  1.
         25    1    1    2    0    0  0.27079257596E+02  0.59705546003E+02 -0.94168127755E+03  0.95220095930E+03  0.12500000000E+03 0.  0.
         25    1    1    2    0    0 -0.12332995836E+03 -0.77568641349E+02 -0.71303812859E+03  0.73842775244E+03  0.12500000000E+03 0.  0.
         25    1    1    2    0    0  0.96250700763E+02  0.17863095346E+02 -0.26026324702E+03  0.30486922659E+03  0.12500000000E+03 0.  0.
</event>
<event>
 5    0  0.5798260E-005  0.4547666E+03  0.7546771E-02  0.1026310E+00
         21   -1    0    0  502  501  0.00000000000E+00  0.00000000000E+00  0.22173949941E+03  0.22173949941E+03  0.00000000000E+00 0. -1.
         21   -1    0    0  501  502 -0.00000000000E+00 -0.00000000000E+00 -0.93268308754E+03  0.93268308754E+03  0.00000000000E+00 0. -1.
         25    1    1    2    0    0 -0.97477783158E+02 -0.13838136768E+03 -0.51786520741E+02  0.21669832685E+03  0.12500000000E+03 0.  0.
         25    1    1    2    0    0  0.29036840375E+03 -0.94788932589E+02 -0.40975735444E+03  0.52614146496E+03  0.12500000000E+03 0.  0.
         25    1    1    2    0    0 -0.19289062059E+03  0.23317030027E+03 -0.24939971294E+03  0.41158279513E+03  0.12500000000E+03 0.  0.
</event>
<event>
 5    0  0.5619558E-005  0.3625796E+03  0.7546771E-02  0.1057567E+00
         21   -1    0    0  502  501  0.00000000000E+00  0.00000000000E+00  0.20344457841E+03  0.20344457841E+03  0.00000000000E+00 0. -1.
         21   -1    0    0  501  502 -0.00000000000E+00 -0.00000000000E+00 -0.64619043959E+03  0.64619043959E+03  0.00000000000E+00 0. -1.
         25    1    1    2    0    0 -0.67896163972E+02 -0.46568485594E+02 -0.69825568588E+02  0.16516392754E+03  0.12500000000E+03 0.  0.
         25    1    1    2    0    0 -0.10788299005E+03 -0.65862092519E+02 -0.40195260546E+03  0.43950819311E+03  0.12500000000E+03 0.  0.
         25    1    1    2    0    0  0.17577915403E+03  0.11243057811E+03  0.29032312871E+02  0.24496289734E+03  0.12500000000E+03 0.  0.
</event>
<event>
 5    0  0.5619558E-005  0.3173323E+03  0.7546771E-02  0.1076884E+00
         21   -1    0    0  502  501  0.00000000000E+00  0.00000000000E+00  0.15944960504E+03  0.15944960504E+03  0.00000000000E+00 0. -1.
         21   -1    0    0  501  502 -0.00000000000E+00 -0.00000000000E+00 -0.63154622148E+03  0.63154622148E+03  0.00000000000E+00 0. -1.
         25    1    1    2    0    0 -0.57502674496E+02 -0.10172930659E+03 -0.64957633444E+02  0.18302978866E+03  0.12500000000E+03 0.  0.
         25    1    1    2    0    0 -0.13717689386E+03  0.90715542026E+02 -0.11942973887E+03  0.23861113197E+03  0.12500000000E+03 0.  0.
         25    1    1    2    0    0  0.19467956835E+03  0.11013764569E+02 -0.28770924412E+03  0.36935490588E+03  0.12500000000E+03 0.  0.
</event>
<event>
 5    0  0.5619558E-005  0.3296756E+03  0.7546771E-02  0.1071280E+00
         21   -1    0    0  502  501  0.00000000000E+00  0.00000000000E+00  0.10404272928E+03  0.10404272928E+03  0.00000000000E+00 0. -1.
         21   -1    0    0  501  502 -0.00000000000E+00 -0.00000000000E+00 -0.10446287140E+04  0.10446287140E+04  0.00000000000E+00 0. -1.
         25    1    1    2    0    0  0.11801023861E+03  0.13519025771E+03 -0.72676409797E+03  0.75895578020E+03  0.12500000000E+03 0.  0.
         25    1    1    2    0    0 -0.22432141318E+02 -0.17676019107E+02 -0.10100960644E+03  0.16322862252E+03  0.12500000000E+03 0.  0.
         25    1    1    2    0    0 -0.95578097290E+02 -0.11751423860E+03 -0.11281228031E+03  0.22648704057E+03  0.12500000000E+03 0.  0.
</event>
<event>
 5    0  0.5619558E-005  0.2454004E+03  0.7546771E-02  0.1116247E+00
         21   -1    0    0  502  501  0.00000000000E+00  0.00000000000E+00  0.84804160111E+03  0.84804160111E+03  0.00000000000E+00 0.  1.
         21   -1    0    0  501  502 -0.00000000000E+00 -0.00000000000E+00 -0.71012265678E+02  0.71012265678E+02  0.00000000000E+00 0.  1.
         25    1    1    2    0    0  0.30874274626E+02  0.29747184755E+01  0.76160815368E+02  0.14962466234E+03  0.12500000000E+03 0.  0.
         25    1    1    2    0    0 -0.55915544373E+02  0.45095342638E+02  0.53852866728E+03  0.55749283718E+03  0.12500000000E+03 0.  0.
         25    1    1    2    0    0  0.25041269747E+02 -0.48070061114E+02  0.16233985279E+03  0.21193636727E+03  0.12500000000E+03 0.  0.
</event>
<event>
 5    0  0.5619558E-005  0.3529007E+03  0.7546771E-02  0.1061431E+00
         21   -1    0    0  502  501  0.00000000000E+00  0.00000000000E+00  0.61508489418E+02  0.61508489418E+02  0.00000000000E+00 0.  1.
         21   -1    0    0  501  502 -0.00000000000E+00 -0.00000000000E+00 -0.20247437364E+04  0.20247437364E+04  0.00000000000E+00 0.  1.
         25    1    1    2    0    0 -0.14976791665E+03 -0.35216459875E+02 -0.11064230240E+04  0.11240407181E+04  0.12500000000E+03 0.  0.
         25    1    1    2    0    0  0.21141309738E+03 -0.35181524275E+02 -0.69220474502E+03  0.73532689767E+03  0.12500000000E+03 0.  0.
         25    1    1    2    0    0 -0.61645180734E+02  0.70397984150E+02 -0.16460747796E+03  0.22688461005E+03  0.12500000000E+03 0.  0.
</event>
<event>
 5    0  0.5619558E-005  0.2574743E+03  0.7546771E-02  0.1108670E+00
         21   -1    0    0  502  501  0.00000000000E+00  0.00000000000E+00  0.35222834784E+02  0.35222834784E+02  0.00000000000E+00 0.  1.
         21   -1    0    0  501  502 -0.00000000000E+00 -0.00000000000E+00 -0.18821029363E+04  0.18821029363E+04  0.00000000000E+00 0.  1.
         25    1    1    2    0    0  0.11398346934E+03  0.66701792666E+02 -0.64171259874E+03  0.66697932488E+03  0.12500000000E+03 0.  0.
         25    1    1    2    0    0 -0.14651058420E+03 -0.13914787967E+02 -0.73138251241E+03  0.75644190264E+03  0.12500000000E+03 0.  0.
         25    1    1    2    0    0  0.32527114861E+02 -0.52787004699E+02 -0.47378499041E+03  0.49390454362E+03  0.12500000000E+03 0.  0.
</event>
<event>
 5    0  0.5619558E-005  0.4269207E+03  0.7546771E-02  0.1034837E+00
         21   -1    0    0  502  501  0.00000000000E+00  0.00000000000E+00  0.49944910023E+03  0.49944910023E+03  0.00000000000E+00 0. -1.
         21   -1    0    0  501  502 -0.00000000000E+00 -0.00000000000E+00 -0.36492461298E+03  0.36492461298E+03  0.00000000000E+00 0. -1.
         25    1    1    2    0    0 -0.18085177489E+03 -0.19757789753E+03 -0.27848351814E+02  0.29689210291E+03  0.12500000000E+03 0.  0.
         25    1    1    2    0    0  0.50988556771E+02 -0.72640997636E+02 -0.69571645084E+02  0.16835011511E+03  0.12500000000E+03 0.  0.
         25    1    1    2    0    0  0.12986321812E+03  0.27021889516E+03  0.23194448414E+03  0.39913149519E+03  0.12500000000E+03 0.  0.
</event>
<event>
 5    0  0.5619558E-005  0.2418727E+03  0.7546771E-02  0.1118552E+00
         21   -1    0    0  502  501  0.00000000000E+00  0.00000000000E+00  0.71408487688E+02  0.71408487688E+02  0.00000000000E+00 0. -1.
         21   -1    0    0  501  502 -0.00000000000E+00 -0.00000000000E+00 -0.81926385436E+03  0.81926385436E+03  0.00000000000E+00 0. -1.
         25    1    1    2    0    0 -0.18973718750E+02  0.76850690982E+02 -0.72254170017E+02  0.16465629594E+03  0.12500000000E+03 0.  0.
         25    1    1    2    0    0  0.29567858530E+02 -0.47027574368E+02 -0.33822582318E+03  0.36483908573E+03  0.12500000000E+03 0.  0.
         25    1    1    2    0    0 -0.10594139780E+02 -0.29823116615E+02 -0.33737537348E+03  0.36117696039E+03  0.12500000000E+03 0.  0.
</event>
<event>
 5    0  0.5619558E-005  0.2664662E+03  0.7546771E-02  0.1103319E+00
         21   -1    0    0  502  501  0.00000000000E+00  0.00000000000E+00  0.31655935407E+03  0.31655935407E+03  0.00000000000E+00 0.  1.
         21   -1    0    0  501  502 -0.00000000000E+00 -0.00000000000E+00 -0.22429991733E+03  0.22429991733E+03  0.00000000000E+00 0.  1.
         25    1    1    2    0    0  0.10924516180E+03  0.22709699273E+02  0.15063954807E+03  0.22531646469E+03  0.12500000000E+03 0.  0.
         25    1    1    2    0    0  0.13382243151E+02  0.22593760800E+02 -0.39451964790E+02  0.13368253433E+03  0.12500000000E+03 0.  0.
         25    1    1    2    0    0 -0.12262740495E+03 -0.45303460074E+02 -0.18928146545E+02  0.18186027238E+03  0.12500000000E+03 0.  0.
</event>
<event>
 5    0  0.5619558E-005  0.3276881E+03  0.7546771E-02  0.1072164E+00
         21   -1    0    0  502  501  0.00000000000E+00  0.00000000000E+00  0.14420924778E+03  0.14420924778E+03  0.00000000000E+00 0. -1.
         21   -1    0    0  501  502 -0.00000000000E+00 -0.00000000000E+00 -0.74460890384E+03  0.74460890384E+03  0.00000000000E+00 0. -1.
         25    1    1    2    0    0  0.14934544349E+03  0.16657445532E+03 -0.17542603908E+03  0.31056465646E+03  0.12500000000E+03 0.  0.
         25    1    1    2    0    0  0.20919926294E+02 -0.27795065302E+02 -0.20803381089E+03  0.24518008778E+03  0.12500000000E+03 0.  0.
         25    1    1    2    0    0 -0.17026536978E+03 -0.13877939002E+03 -0.21693980609E+03  0.33307340738E+03  0.12500000000E+03 0.  0.
</event>
<event>
 5    0  0.5619558E-005  0.3027158E+03  0.7546771E-02  0.1083891E+00
         21   -1    0    0  502  501  0.00000000000E+00  0.00000000000E+00  0.81948086652E+02  0.81948086652E+02  0.00000000000E+00 0. -1.
         21   -1    0    0  501  502 -0.00000000000E+00 -0.00000000000E+00 -0.11182308958E+04  0.11182308958E+04  0.00000000000E+00 0. -1.
         25    1    1    2    0    0  0.60398886586E+02 -0.41514583262E+01 -0.53455999263E+02  0.14882138275E+03  0.12500000000E+03 0.  0.
         25    1    1    2    0    0  0.78988061497E+02  0.69422564314E+01 -0.67510630359E+03  0.69114457961E+03  0.12500000000E+03 0.  0.
         25    1    1    2    0    0 -0.13938694808E+03 -0.27907981052E+01 -0.30772050634E+03  0.36021302013E+03  0.12500000000E+03 0.  0.
</event>
<event>
 5    0  0.5904346E-005  0.2702636E+03  0.7546771E-02  0.1101129E+00
         21   -1    0    0  502  501  0.00000000000E+00  0.00000000000E+00  0.58192617184E+03  0.58192617184E+03  0.00000000000E+00 0.  1.
         21   -1    0    0  501  502 -0.00000000000E+00 -0.00000000000E+00 -0.12551833025E+03  0.12551833025E+03  0.00000000000E+00 0.  1.
         25    1    1    2    0    0  0.28003949176E+02 -0.11979526822E+03  0.17603067299E+02  0.17626683022E+03  0.12500000000E+03 0.  0.
         25    1    1    2    0    0 -0.49009758012E+02  0.81424901147E+02  0.16940873645E+03  0.23098980691E+03  0.12500000000E+03 0.  0.
         25    1    1    2    0    0  0.21005808836E+02  0.38370367068E+02  0.26939603784E+03  0.30018786497E+03  0.12500000000E+03 0.  0.
</event>
<event>
 5    0  0.5619558E-005  0.2542301E+03  0.7546771E-02  0.1110660E+00
         21   -1    0    0  502  501  0.00000000000E+00  0.00000000000E+00  0.33201677022E+03  0.33201677022E+03  0.00000000000E+00 0. -1.
         21   -1    0    0  501  502 -0.00000000000E+00 -0.00000000000E+00 -0.19466769405E+03  0.19466769405E+03  0.00000000000E+00 0. -1.
         25    1    1    2    0    0  0.12124545911E+03  0.53992779647E+02 -0.76035914022E+01  0.18247875551E+03  0.12500000000E+03 0.  0.
         25    1    1    2    0    0 -0.13063504044E+03 -0.17642489091E+02  0.86053051851E+02  0.20101467346E+03  0.12500000000E+03 0.  0.
         25    1    1    2    0    0  0.93895813332E+01 -0.36350290556E+02  0.58899615721E+02  0.14319103531E+03  0.12500000000E+03 0.  0.
</event>
<event>
 5    0  0.5619558E-005  0.2807900E+03  0.7546771E-02  0.1095258E+00
         21   -1    0    0  502  501  0.00000000000E+00  0.00000000000E+00  0.31262239038E+03  0.31262239038E+03  0.00000000000E+00 0. -1.
         21   -1    0    0  501  502 -0.00000000000E+00 -0.00000000000E+00 -0.25219895558E+03  0.25219895558E+03  0.00000000000E+00 0. -1.
         25    1    1    2    0    0 -0.71928243184E+02 -0.45573684154E+02 -0.11762029017E+03  0.19159897055E+03  0.12500000000E+03 0.  0.
         25    1    1    2    0    0  0.58012259562E+02 -0.22966769133E+02 -0.62084366868E+01  0.13984434000E+03  0.12500000000E+03 0.  0.
         25    1    1    2    0    0  0.13915983621E+02  0.68540453287E+02  0.18425216166E+03  0.23337803541E+03  0.12500000000E+03 0.  0.
</event>
<event>
 5    0  0.5619558E-005  0.3766081E+03  0.7546771E-02  0.1052195E+00
         21   -1    0    0  502  501  0.00000000000E+00  0.00000000000E+00  0.53307544070E+03  0.53307544070E+03  0.00000000000E+00 0. -1.
         21   -1    0    0  501  502 -0.00000000000E+00 -0.00000000000E+00 -0.26606676834E+03  0.26606676834E+03  0.00000000000E+00 0. -1.
         25    1    1    2    0    0  0.21466350524E+02  0.91713028090E+02  0.20269457794E+03  0.25609017094E+03  0.12500000000E+03 0.  0.
         25    1    1    2    0    0  0.13898019846E+03 -0.17543398608E+03 -0.92927697166E+02  0.27267771441E+03  0.12500000000E+03 0.  0.
         25    1    1    2    0    0 -0.16044654898E+03  0.83720957989E+02  0.15724179160E+03  0.27037432369E+03  0.12500000000E+03 0.  0.
</event>
<event>
 5    0  0.5619558E-005  0.2485215E+03  0.7546771E-02  0.1114243E+00
         21   -1    0    0  502  501  0.00000000000E+00  0.00000000000E+00  0.12574743617E+03  0.12574743617E+03  0.00000000000E+00 0. -1.
         21   -1    0    0  501  502 -0.00000000000E+00 -0.00000000000E+00 -0.49116646062E+03  0.49116646062E+03  0.00000000000E+00 0. -1.
         25    1    1    2    0    0 -0.21039009069E+02 -0.11031632700E+03 -0.40080411253E+02  0.17275349858E+03  0.12500000000E+03 0.  0.
         25    1    1    2    0    0 -0.19852362462E+02  0.11110586095E+03 -0.21032158077E+03  0.26944163741E+03  0.12500000000E+03 0.  0.
         25    1    1    2    0    0  0.40891371530E+02 -0.78953395425E+00 -0.11501703243E+03  0.17471876081E+03  0.12500000000E+03 0.  0.
</event>
<event>
 5    0  0.5619558E-005  0.3089020E+03  0.7546771E-02  0.1080873E+00
         21   -1    0    0  502  501  0.00000000000E+00  0.00000000000E+00  0.18058230232E+04  0.18058230232E+04  0.00000000000E+00 0.  1.
         21   -1    0    0  501  502 -0.00000000000E+00 -0.00000000000E+00 -0.52840407202E+02  0.52840407202E+02  0.00000000000E+00 0.  1.
         25    1    1    2    0    0  0.66523392257E+02  0.17620545667E+02  0.45059368517E+03  0.47264734683E+03  0.12500000000E+03 0.  0.
         25    1    1    2    0    0 -0.97590603842E+02  0.13874466880E+03  0.32130139839E+03  0.38423117740E+03  0.12500000000E+03 0.  0.
         25    1    1    2    0    0  0.31067211586E+02 -0.15636521447E+03  0.98108753239E+03  0.10017849061E+04  0.12500000000E+03 0.  0.
</event>
<event>
 5    0  0.5619558E-005  0.2705074E+03  0.7546771E-02  0.1100990E+00
         21   -1    0    0  502  501  0.00000000000E+00  0.00000000000E+00  0.44545366002E+03  0.44545366002E+03  0.00000000000E+00 0. -1.
         21   -1    0    0  501  502 -0.00000000000E+00 -0.00000000000E+00 -0.16426909198E+03  0.16426909198E+03  0.00000000000E+00 0. -1.
         25    1    1    2    0    0  0.27910718405E+02 -0.14155127867E+03  0.67173353437E+02  0.20236855513E+03  0.12500000000E+03 0.  0.
         25    1    1    2    0    0 -0.85834628667E+02  0.13653867071E+03  0.94349119384E+02  0.22480468947E+03  0.12500000000E+03 0.  0.
         25    1    1    2    0    0  0.57923910262E+02  0.50126079553E+01  0.11966209522E+03  0.18254950740E+03  0.12500000000E+03 0.  0.
</event>
<event>
 5    0  0.5619558E-005  0.3874165E+03  0.7546771E-02  0.1048226E+00
         21   -1    0    0  502  501  0.00000000000E+00  0.00000000000E+00  0.23519925194E+03  0.23519925194E+03  0.00000000000E+00 0.  1.
         21   -1    0    0  501  502 -0.00000000000E+00 -0.00000000000E+00 -0.63814626532E+03  0.63814626532E+03  0.00000000000E+00 0.  1.
         25    1    1    2    0    0  0.47403552710E+02  0.31701279047E+02 -0.25722878707E+02  0.13978102300E+03  0.12500000000E+03 0.  0.
         25    1    1    2    0    0 -0.18845324963E+03  0.12659943088E+03 -0.41022514646E+03  0.48523366946E+03  0.12500000000E+03 0.  0.
         25    1    1    2    0    0  0.14104969692E+03 -0.15830070993E+03  0.33001011790E+02  0.24833082479E+03  0.12500000000E+03 0.  0.
</event>
<event>
 5    0  0.5619558E-005  0.2798069E+03  0.7546771E-02  0.1095794E+00
         21   -1    0    0  502  501  0.00000000000E+00  0.00000000000E+00  0.54023050896E+02  0.54023050896E+02  0.00000000000E+00 0.  1.
         21   -1    0    0  501  502 -0.00000000000E+00 -0.00000000000E+00 -0.14492318122E+04  0.14492318122E+04  0.00000000000E+00 0.  1.
         25    1    1    2    0    0  0.16625672757E+03  0.87429914229E+02 -0.51967389707E+03  0.56654324518E+03  0.12500000000E+03 0.  0.
         25    1    1    2    0    0 -0.64843792747E+02 -0.97512941399E+02 -0.47392073539E+03  0.50392395719E+03  0.12500000000E+03 0.  0.
         25    1    1    2    0    0 -0.10141293483E+03  0.10083027171E+02 -0.40161412885E+03  0.43278766073E+03  0.12500000000E+03 0.  0.
</event>
<event>
 5    0  0.5619558E-005  0.4200896E+03  0.7546771E-02  0.1037037E+00
         21   -1    0    0  502  501  0.00000000000E+00  0.00000000000E+00  0.16400758316E+03  0.16400758316E+03  0.00000000000E+00 0.  1.
         21   -1    0    0  501  502 -0.00000000000E+00 -0.00000000000E+00 -0.10760187256E+04  0.10760187256E+04  0.00000000000E+00 0.  1.
         25    1    1    2    0    0  0.50466834301E+02  0.24370592969E+02 -0.91109698260E+01  0.13729106649E+03  0.12500000000E+03 0.  0.
         25    1    1    2    0    0  0.58662694384E+02 -0.16717550596E+03 -0.85039680312E+03  0.87760394499E+03  0.12500000000E+03 0.  0.
         25    1    1    2    0    0 -0.10912952868E+03  0.14280491299E+03 -0.52503369480E+02  0.22513129727E+03  0.12500000000E+03 0.  0.
</event>
<event>
 5    0  0.5619558E-005  0.2809858E+03  0.7546771E-02  0.1095152E+00
         21   -1    0    0  502  501  0.00000000000E+00  0.00000000000E+00  0.10289534729E+03  0.10289534729E+03  0.00000000000E+00 0.  1.
         21   -1    0    0  501  502 -0.00000000000E+00 -0.00000000000E+00 -0.76731398549E+03  0.76731398549E+03  0.00000000000E+00 0.  1.
         25    1    1    2    0    0 -0.83109135017E+02  0.32684682086E+02 -0.16830747183E+03  0.22787676898E+03  0.12500000000E+03 0.  0.
         25    1    1    2    0    0 -0.37002061118E+02  0.31594719757E+02 -0.42258232516E+03  0.44336012494E+03  0.12500000000E+03 0.  0.
         25    1    1    2    0    0  0.12011119614E+03 -0.64279401844E+02 -0.73528841216E+02  0.19897243887E+03  0.12500000000E+03 0.  0.
</event>
<event>
 5    0  0.5619558E-005  0.2434813E+03  0.7546771E-02  0.1117495E+00
         21   -1    0    0  502  501  0.00000000000E+00  0.00000000000E+00  0.12702028809E+03  0.12702028809E+03  0.00000000000E+00 0. -1.
         21   -1    0    0  501  502 -0.00000000000E+00 -0.00000000000E+00 -0.46672193959E+03  0.46672193959E+03  0.00000000000E+00 0. -1.
         25    1    1    2    0    0 -0.81482745339E+01 -0.10897587577E+03 -0.24401808964E+03  0.29514735972E+03  0.12500000000E+03 0.  0.
         25    1    1    2    0    0  0.39359962203E+02  0.42897793406E+02 -0.51718910922E+02  0.14727278449E+03  0.12500000000E+03 0.  0.
         25    1    1    2    0    0 -0.31211687669E+02  0.66078082367E+02 -0.43964650935E+02  0.15132208348E+03  0.12500000000E+03 0.  0.
</event>
<event>
 5    0  0.5619558E-005  0.3676978E+03  0.7546771E-02  0.1055577E+00
         21   -1    0    0  502  501  0.00000000000E+00  0.00000000000E+00  0.21238462705E+03  0.21238462705E+03  0.00000000000E+00 0.  1.
         21   -1    0    0  501  502 -0.00000000000E+00 -0.00000000000E+00 -0.63658884589E+03  0.63658884589E+03  0.00000000000E+00 0.  1.
         25    1    1    2    0    0 -0.15232170450E+03 -0.26116154034E+03 -0.16926292956E+03  0.36835063613E+03  0.12500000000E+03 0.  0.
         25    1    1    2    0    0  0.42841468423E+02  0.17765763765E+03 -0.14256782373E+03  0.26334048681E+03  0.12500000000E+03 0.  0.
         25    1    1    2    0    0  0.10948023608E+03  0.83503902692E+02 -0.11237346556E+03  0.21728234999E+03  0.12500000000E+03 0.  0.
</event>
<event>
 5    0  0.5619558E-005  0.3655081E+03  0.7546771E-02  0.1056424E+00
         21   -1    0    0  502  501  0.00000000000E+00  0.00000000000E+00  0.59754036057E+02  0.59754036057E+02  0.00000000000E+00 0.  1.
         21   -1    0    0  501  502 -0.00000000000E+00 -0.00000000000E+00 -0.22357675752E+04  0.22357675752E+04  0.00000000000E+00 0.  1.
         25    1    1    2    0    0  0.10426456164E+03 -0.36790158683E+02 -0.19829456188E+03  0.25917242882E+03  0.12500000000E+03 0.  0.
         25    1    1    2    0    0 -0.10800906438E+03 -0.10627890847E+03 -0.38384447097E+03  0.43118759522E+03  0.12500000000E+03 0.  0.
         25    1    1    2    0    0  0.37445027373E+01  0.14306906716E+03 -0.15938745063E+04  0.16051615872E+04  0.12500000000E+03 0.  0.
</event>
<event>
 5    0  0.5619558E-005  0.3499407E+03  0.7546771E-02  0.1062639E+00
         21   -1    0    0  502  501  0.00000000000E+00  0.00000000000E+00  0.79277177832E+02  0.79277177832E+02  0.00000000000E+00 0.  1.
         21   -1    0    0  501  502 -0.00000000000E+00 -0.00000000000E+00 -0.15446877713E+04  0.15446877713E+04  0.00000000000E+00 0.  1.
         25    1    1    2    0    0 -0.76530785272E+02 -0.16897510407E+03 -0.74073454064E+03  0.77377141753E+03  0.12500000000E+03 0.  0.
         25    1    1    2    0    0  0.13016556740E+03  0.23247198335E+03 -0.46787519576E+03  0.55273727646E+03  0.12500000000E+03 0.  0.
         25    1    1    2    0    0 -0.53634782132E+02 -0.63496879273E+02 -0.25680085705E+03  0.29745625512E+03  0.12500000000E+03 0.  0.
</event>
<event>
 5    0  0.5619558E-005  0.3654923E+03  0.7546771E-02  0.1056430E+00
         21   -1    0    0  502  501  0.00000000000E+00  0.00000000000E+00  0.25694545759E+03  0.25694545759E+03  0.00000000000E+00 0. -1.
         21   -1    0    0  501  502 -0.00000000000E+00 -0.00000000000E+00 -0.51989493418E+03  0.51989493418E+03  0.00000000000E+00 0. -1.
         25    1    1    2    0    0 -0.28176434101E+02  0.26025599815E+03 -0.16030302070E+03  0.33143499281E+03  0.12500000000E+03 0.  0.
         25    1    1    2    0    0  0.24572596725E+02 -0.25361485143E+03 -0.13757341531E+03  0.31539776470E+03  0.12500000000E+03 0.  0.
         25    1    1    2    0    0  0.36038373755E+01 -0.66411467181E+01  0.34926959423E+02  0.13000763427E+03  0.12500000000E+03 0.  0.
</event>
<event>
 5    0  0.5619558E-005  0.3247309E+03  0.7546771E-02  0.1073492E+00
         21   -1    0    0  502  501  0.00000000000E+00  0.00000000000E+00  0.20848444017E+04  0.20848444017E+04  0.00000000000E+00 0. -1.
         21   -1    0    0  501  502 -0.00000000000E+00 -0.00000000000E+00 -0.50579391729E+02  0.50579391729E+02  0.00000000000E+00 0. -1.
         25    1    1    2    0    0  0.33410772538E+02 -0.16812199759E+03  0.60873874765E+03  0.64464653003E+03  0.12500000000E+03 0.  0.
         25    1    1    2    0    0 -0.13443835785E+03  0.14478940965E+03  0.11263769274E+04  0.11503858604E+04  0.12500000000E+03 0.  0.
         25    1    1    2    0    0  0.10102758531E+03  0.23332587932E+02  0.29914933489E+03  0.34039140298E+03  0.12500000000E+03 0.  0.
</event>
<event>
 5    0  0.5619558E-005  0.3079366E+03  0.7546771E-02  0.1081339E+00
         21   -1    0    0  502  501  0.00000000000E+00  0.00000000000E+00  0.11602635082E+04  0.11602635082E+04  0.00000000000E+00 0.  1.
         21   -1    0    0  501  502 -0.00000000000E+00 -0.00000000000E+00 -0.81727087069E+02  0.81727087069E+02  0.00000000000E+00 0.  1.
         25    1    1    2    0    0 -0.84667791300E+02 -0.14932266334E+03  0.25060166169E+03  0.32846930680E+03  0.12500000000E+03 0.  0.
         25    1    1    2    0    0  0.14070239774E+03  0.16205018715E+02  0.49293760873E+03  0.52789416881E+03  0.12500000000E+03 0.  0.
         25    1    1    2    0    0 -0.56034606436E+02  0.13311764462E+03  0.33499715069E+03  0.38562711963E+03  0.12500000000E+03 0.  0.
</event>
<event>
 5    0  0.5619558E-005  0.2554310E+03  0.7546771E-02  0.1109920E+00
         21   -1    0    0  502  501  0.00000000000E+00  0.00000000000E+00  0.22156454158E+03  0.22156454158E+03  0.00000000000E+00 0. -1.
         21   -1    0    0  501  502 -0.00000000000E+00 -0.00000000000E+00 -0.29447396488E+03  0.29447396488E+03  0.00000000000E+00 0. -1.
         25    1    1    2    0    0  0.83248844267E+01 -0.10668055855E+03  0.27322999757E+02  0.16679805631E+03  0.12500000000E+03 0.  0.
         25    1    1    2    0    0 -0.59544794501E+02  0.12427049212E+03 -0.10964636722E+02  0.18637049397E+03  0.12500000000E+03 0.  0.
         25    1    1    2    0    0  0.51219910074E+02 -0.17589933564E+02 -0.89267786336E+02  0.16286995619E+03  0.12500000000E+03 0.  0.
</event>
<event>
 5    0  0.5821632E-005  0.3645541E+03  0.7546771E-02  0.1056795E+00
         21   -1    0    0  502  501  0.00000000000E+00  0.00000000000E+00  0.12341897965E+04  0.12341897965E+04  0.00000000000E+00 0. -1.
         21   -1    0    0  501  502 -0.00000000000E+00 -0.00000000000E+00 -0.10768172682E+03  0.10768172682E+03  0.00000000000E+00 0. -1.
         25    1    1    2    0    0 -0.14976063310E+03 -0.24264510363E+02  0.23271153362E+03  0.30462546113E+03  0.12500000000E+03 0.  0.
         25    1    1    2    0    0  0.40083477672E+02  0.96016656599E+02  0.82913439555E+03  0.84493474862E+03  0.12500000000E+03 0.  0.
         25    1    1    2    0    0  0.10967715543E+03 -0.71752146236E+02  0.64662140512E+02  0.19231131357E+03  0.12500000000E+03 0.  0.
</event>
<event>
 5    0  0.5619558E-005  0.3274686E+03  0.7546771E-02  0.1072262E+00
         21   -1    0    0  502  501  0.00000000000E+00  0.00000000000E+00  0.43427146556E+03  0.43427146556E+03  0.00000000000E+00 0. -1.
         21   -1    0    0  501  502 -0.00000000000E+00 -0.00000000000E+00 -0.24693236682E+03  0.24693236682E+03  0.00000000000E+00 0. -1.
         25    1    1    2    0    0 -0.11710550720E+03 -0.15480797588E+03  0.16854731977E+03  0.28585382316E+03  0.12500000000E+03 0.  0.
         25    1    1    2    0    0  0.12268593441E+03  0.15359890943E+03  0.91897856315E+02  0.25042899089E+03  0.12500000000E+03 0.  0.
         25    1    1    2    0    0 -0.55804272032E+01  0.12090664467E+01 -0.73106077350E+02  0.14492101833E+03  0.12500000000E+03 0.  0.
</event>
<event>
 5    0  0.5619558E-005  0.3229842E+03  0.7546771E-02  0.1074284E+00
         21   -1    0    0  502  501  0.00000000000E+00  0.00000000000E+00  0.33868593972E+03  0.33868593972E+03  0.00000000000E+00 0. -1.
         21   -1    0    0  501  502 -0.00000000000E+00 -0.00000000000E+00 -0.30801043911E+03  0.30801043911E+03  0.00000000000E+00 0. -1.
         25    1    1    2    0    0 -0.58240671952E+01  0.14834916134E+03 -0.36732480934E+02  0.19752384308E+03  0.12500000000E+03 0.  0.
         25    1    1    2    0    0  0.16681287548E+03 -0.10288410270E+03  0.10345907949E+02  0.23268801393E+03  0.12500000000E+03 0.  0.
         25    1    1    2    0    0 -0.16098880828E+03 -0.45465058635E+02  0.57062073590E+02  0.21648452183E+03  0.12500000000E+03 0.  0.
</event>
<event>
 5    0  0.6033276E-005  0.2801940E+03  0.7546771E-02  0.1095583E+00
         21   -1    0    0  502  501  0.00000000000E+00  0.00000000000E+00  0.70610276545E+03  0.70610276545E+03  0.00000000000E+00 0.  1.
         21   -1    0    0  501  502 -0.00000000000E+00 -0.00000000000E+00 -0.11118590846E+03  0.11118590846E+03  0.00000000000E+00 0.  1.
         25    1    1    2    0    0  0.86276557924E+02 -0.30315825744E+02 -0.19245447139E+01  0.15489156727E+03  0.12500000000E+03 0.  0.
         25    1    1    2    0    0 -0.45359635284E+02 -0.36489007697E+02  0.32653869346E+03  0.35445939475E+03  0.12500000000E+03 0.  0.
         25    1    1    2    0    0 -0.40916922640E+02  0.66804833441E+02  0.27030270824E+03  0.30793771190E+03  0.12500000000E+03 0.  0.
</event>
<event>
 5    0  0.5619558E-005  0.2388552E+03  0.7546771E-02  0.1120558E+00
         21   -1    0    0  502  501  0.00000000000E+00  0.00000000000E+00  0.49966654996E+03  0.49966654996E+03  0.00000000000E+00 0.  1.
         21   -1    0    0  501  502 -0.00000000000E+00 -0.00000000000E+00 -0.11417976920E+03  0.11417976920E+03  0.00000000000E+00 0.  1.
         25    1    1    2    0    0 -0.72639438674E+02 -0.84412092890E+02  0.77788843836E+02  0.18460225812E+03  0.12500000000E+03 0.  0.
         25    1    1    2    0    0  0.56377699969E+02  0.34030076628E+02  0.23767901718E+03  0.27650100610E+03  0.12500000000E+03 0.  0.
         25    1    1    2    0    0  0.16261738706E+02  0.50382016263E+02  0.70018919743E+02  0.15274305493E+03  0.12500000000E+03 0.  0.
</event>
<event>
 5    0  0.5619558E-005  0.6112965E+03  0.7546771E-02  0.9882243E-01
         21   -1    0    0  502  501  0.00000000000E+00  0.00000000000E+00  0.46963923633E+03  0.46963923633E+03  0.00000000000E+00 0. -1.
         21   -1    0    0  501  502 -0.00000000000E+00 -0.00000000000E+00 -0.79568190093E+03  0.79568190093E+03  0.00000000000E+00 0. -1.
         25    1    1    2    0    0 -0.10597387212E+03 -0.62057376167E+02 -0.36931827445E+03  0.40878180898E+03  0.12500000000E+03 0.  0.
         25    1    1    2    0    0  0.16183649006E+03 -0.62522259282E+02  0.40060855438E+03  0.45410604077E+03  0.12500000000E+03 0.  0.
         25    1    1    2    0    0 -0.55862617946E+02  0.12457963545E+03 -0.35733294453E+03  0.40243328751E+03  0.12500000000E+03 0.  0.
</event>
<event>
 5    0  0.5619558E-005  0.2804604E+03  0.7546771E-02  0.1095438E+00
         21   -1    0    0  502  501  0.00000000000E+00  0.00000000000E+00  0.26941428290E+03  0.26941428290E+03  0.00000000000E+00 0. -1.
         21   -1    0    0  501  502 -0.00000000000E+00 -0.00000000000E+00 -0.29195946985E+03  0.29195946985E+03  0.00000000000E+00 0. -1.
         25    1    1    2    0    0 -0.97373555313E+02 -0.16677803276E+01 -0.40391621671E+02  0.16352637055E+03  0.12500000000E+03 0.  0.
         25    1    1    2    0    0 -0.84731025417E+00  0.13847928300E+03 -0.67313273617E+01  0.18667495955E+03  0.12500000000E+03 0.  0.
         25    1    1    2    0    0  0.98220865567E+02 -0.13681150267E+03  0.24577762088E+02  0.21117242264E+03  0.12500000000E+03 0.  0.
</event>
<event>
 5    0  0.5619558E-005  0.4416457E+03  0.7546771E-02  0.1030243E+00
         21   -1    0    0  502  501  0.00000000000E+00  0.00000000000E+00  0.14685021681E+04  0.14685021681E+04  0.00000000000E+00 0. -1.
         21   -1    0    0  501  502 -0.00000000000E+00 -0.00000000000E+00 -0.13282304012E+03  0.13282304012E+03  0.00000000000E+00 0. -1.
         25    1    1    2    0    0 -0.17174943463E+03  0.49326715306E+02  0.77701041680E+03  0.80703232956E+03  0.12500000000E+03 0.  0.
         25    1    1    2    0    0  0.10479181646E+03 -0.25789189888E+03  0.24197401416E+03  0.38944316637E+03  0.12500000000E+03 0.  0.
         25    1    1    2    0    0  0.66957618169E+02  0.20856518357E+03  0.31669469702E+03  0.40484971230E+03  0.12500000000E+03 0.  0.
</event>
<event>
 5    0  0.5619558E-005  0.3302086E+03  0.7546771E-02  0.1071045E+00
         21   -1    0    0  502  501  0.00000000000E+00  0.00000000000E+00  0.18911033739E+04  0.18911033739E+04  0.00000000000E+00 0. -1.
         21   -1    0    0  501  502 -0.00000000000E+00 -0.00000000000E+00 -0.57658238732E+02  0.57658238732E+02  0.00000000000E+00 0. -1.
         25    1    1    2    0    0 -0.30944679528E+02 -0.74239446440E+02  0.23145195105E+03  0.27507103490E+03  0.12500000000E+03 0.  0.
         25    1    1    2    0    0  0.87276267068E+02  0.21021901781E+02  0.14638381108E+04  0.14719055954E+04  0.12500000000E+03 0.  0.
         25    1    1    2    0    0 -0.56331587540E+02  0.53217544659E+02  0.13815507337E+03  0.20178498237E+03  0.12500000000E+03 0.  0.
</event>
<event>
 5    0  0.5980716E-005  0.5301960E+03  0.7546771E-02  0.1006185E+00
         21   -1    0    0  502  501  0.00000000000E+00  0.00000000000E+00  0.51823024513E+03  0.51823024513E+03  0.00000000000E+00 0.  1.
         21   -1    0    0  501  502 -0.00000000000E+00 -0.00000000000E+00 -0.54243809029E+03  0.54243809029E+03  0.00000000000E+00 0.  1.
         25    1    1    2    0    0 -0.28517452406E+03  0.63379095026E+01 -0.84745957203E+02  0.32275618589E+03  0.12500000000E+03 0.  0.
         25    1    1    2    0    0  0.19335016699E+03  0.26043017500E+03 -0.13465349060E+03  0.37277972807E+03  0.12500000000E+03 0.  0.
         25    1    1    2    0    0  0.91824357072E+02 -0.26676808451E+03  0.19519160264E+03  0.36513242147E+03  0.12500000000E+03 0.  0.
</event>
<event>
 5    0  0.5619558E-005  0.3361456E+03  0.7546771E-02  0.1068450E+00
         21   -1    0    0  502  501  0.00000000000E+00  0.00000000000E+00  0.16062497831E+04  0.16062497831E+04  0.00000000000E+00 0. -1.
         21   -1    0    0  501  502 -0.00000000000E+00 -0.00000000000E+00 -0.70346393455E+02  0.70346393455E+02  0.00000000000E+00 0. -1.
         25    1    1    2    0    0  0.39365403532E+02  0.17706525035E+03  0.73347422965E+03  0.76584018139E+03  0.12500000000E+03 0.  0.
         25    1    1    2    0    0  0.49819078509E+02  0.56822715951E+02  0.34344874124E+03  0.37321950577E+03  0.12500000000E+03 0.  0.
         25    1    1    2    0    0 -0.89184482041E+02 -0.23388796630E+03  0.45898041873E+03  0.53753648936E+03  0.12500000000E+03 0.  0.
</event>
<event>
 5    0  0.5619558E-005  0.4260254E+03  0.7546771E-02  0.1035123E+00
         21   -1    0    0  502  501  0.00000000000E+00  0.00000000000E+00  0.65943360933E+03  0.65943360933E+03  0.00000000000E+00 0. -1.
         21   -1    0    0  501  502 -0.00000000000E+00 -0.00000000000E+00 -0.27523256240E+03  0.27523256240E+03  0.00000000000E+00 0. -1.
         25    1    1    2    0    0  0.15140274025E+03 -0.55681332919E+02 -0.67944018745E+02  0.21509205070E+03  0.12500000000E+03 0.  0.
         25    1    1    2    0    0 -0.76121719955E+02 -0.83599671443E+02  0.48657081799E+03  0.51493648369E+03  0.12500000000E+03 0.  0.
         25    1    1    2    0    0 -0.75281020294E+02  0.13928100436E+03 -0.34425752325E+02  0.20463763734E+03  0.12500000000E+03 0.  0.
</event>
<event>
 5    0  0.5619558E-005  0.3758297E+03  0.7546771E-02  0.1052486E+00
         21   -1    0    0  502  501  0.00000000000E+00  0.00000000000E+00  0.51884117947E+03  0.51884117947E+03  0.00000000000E+00 0.  1.
         21   -1    0    0  501  502 -0.00000000000E+00 -0.00000000000E+00 -0.27223738319E+03  0.27223738319E+03  0.00000000000E+00 0.  1.
         25    1    1    2    0    0  0.44872644659E+02  0.92939083496E+02 -0.13954568700E+03  0.21389068760E+03  0.12500000000E+03 0.  0.
         25    1    1    2    0    0 -0.13819494488E+03 -0.84262034012E+02  0.56153223637E+02  0.21207573574E+03  0.12500000000E+03 0.  0.
         25    1    1    2    0    0  0.93322300217E+02 -0.86770494842E+01  0.32999625964E+03  0.36511213933E+03  0.12500000000E+03 0.  0.
</event>
<event>
 5    0  0.5619558E-005  0.3429735E+03  0.7546771E-02  0.1065537E+00
         21   -1    0    0  502  501  0.00000000000E+00  0.00000000000E+00  0.42956352788E+03  0.42956352788E+03  0.00000000000E+00 0.  1.
         21   -1    0    0  501  502 -0.00000000000E+00 -0.00000000000E+00 -0.27383796987E+03  0.27383796987E+03  0.00000000000E+00 0.  1.
         25    1    1    2    0    0 -0.90481254279E+02  0.23544368834E+02 -0.10625082711E+02  0.15645794023E+03  0.12500000000E+03 0.  0.
         25    1    1    2    0    0 -0.39029934815E+02  0.18597548418E+03  0.59535182074E+01  0.22753167012E+03  0.12500000000E+03 0.  0.
         25    1    1    2    0    0  0.12951118909E+03 -0.20951985301E+03  0.16039712251E+03  0.31941188741E+03  0.12500000000E+03 0.  0.
</event>
<event>
 5    0  0.5619558E-005  0.2726822E+03  0.7546771E-02  0.1099754E+00
         21   -1    0    0  502  501  0.00000000000E+00  0.00000000000E+00  0.87493294537E+03  0.87493294537E+03  0.00000000000E+00 0.  1.
         21   -1    0    0  501  502 -0.00000000000E+00 -0.00000000000E+00 -0.84984350864E+02  0.84984350864E+02  0.00000000000E+00 0.  1.
         25    1    1    2    0    0  0.96466899341E+02  0.93898607413E+01  0.49314461918E+02  0.16568327709E+03  0.12500000000E+03 0.  0.
         25    1    1    2    0    0 -0.43869111687E+02  0.32409362621E+02  0.45951672645E+03  0.47932816278E+03  0.12500000000E+03 0.  0.
         25    1    1    2    0    0 -0.52597787654E+02 -0.41799223362E+02  0.28111740614E+03  0.31490585637E+03  0.12500000000E+03 0.  0.
</event>
<event>
 5    0  0.5619558E-005  0.3847103E+03  0.7546771E-02  0.1049206E+00
         21   -1    0    0  502  501  0.00000000000E+00  0.00000000000E+00  0.93278206270E+03  0.93278206270E+03  0.00000000000E+00 0. -1.
         21   -1    0    0  501  502 -0.00000000000E+00 -0.00000000000E+00 -0.15866731344E+03  0.15866731344E+03  0.00000000000E+00 0. -1.
         25    1    1    2    0    0  0.81067833717E+02 -0.18704413754E+03  0.22225006878E+03  0.32646224302E+03  0.12500000000E+03 0.  0.
         25    1    1    2    0    0 -0.80718839328E+01  0.24210720271E+03  0.10511769046E+03  0.29215711828E+03  0.12500000000E+03 0.  0.
         25    1    1    2    0    0 -0.72995949785E+02 -0.55063065176E+02  0.44674699003E+03  0.47283001483E+03  0.12500000000E+03 0.  0.
</event>
<event>
 5    0  0.5619558E-005  0.4659569E+03  0.7546771E-02  0.1023068E+00
         21   -1    0    0  502  501  0.00000000000E+00  0.00000000000E+00  0.65447372339E+03  0.65447372339E+03  0.00000000000E+00 0. -1.
         21   -1    0    0  501  502 -0.00000000000E+00 -0.00000000000E+00 -0.33174112939E+03  0.33174112939E+03  0.00000000000E+00 0. -1.
         25    1    1    2    0    0 -0.35350751212E+02  0.10721967616E+02 -0.13902972751E+03  0.19057518551E+03  0.12500000000E+03 0.  0.
         25    1    1    2    0    0  0.24062814874E+03 -0.36753750956E+02 -0.88527942062E+00  0.27363941217E+03  0.12500000000E+03 0.  0.
         25    1    1    2    0    0 -0.20527739753E+03  0.26031783340E+02  0.46264760093E+03  0.52200025510E+03  0.12500000000E+03 0.  0.
</event>
<event>
 5    0  0.5619558E-005  0.1029247E+04  0.7546771E-02  0.9277037E-01
         21   -1    0    0  502  501  0.00000000000E+00  0.00000000000E+00  0.70159113248E+03  0.70159113248E+03  0.00000000000E+00 0. -1.
         21   -1    0    0  501  502 -0.00000000000E+00 -0.00000000000E+00 -0.15099236547E+04  0.15099236547E+04  0.00000000000E+00 0. -1.
         25    1    1    2    0    0 -0.22832088804E+03 -0.40334252703E+03 -0.10237806910E+04  0.11307376023E+04  0.12500000000E+03 0.  0.
         25    1    1    2    0    0  0.28106362525E+03  0.60259845340E+03  0.39204725588E+03  0.78195121864E+03  0.12500000000E+03 0.  0.
         25    1    1    2    0    0 -0.52742737210E+02 -0.19925592638E+03 -0.17659908711E+03  0.29882596623E+03  0.12500000000E+03 0.  0.
</event>
<event>
 5    0  0.5619558E-005  0.2245218E+03  0.7546771E-02  0.1130556E+00
         21   -1    0    0  502  501  0.00000000000E+00  0.00000000000E+00  0.18054110634E+03  0.18054110634E+03  0.00000000000E+00 0. -1.
         21   -1    0    0  501  502 -0.00000000000E+00 -0.00000000000E+00 -0.27921648616E+03  0.27921648616E+03  0.00000000000E+00 0. -1.
         25    1    1    2    0    0 -0.75232995616E+02 -0.30254014790E+02 -0.11055756697E+03  0.18553513051E+03  0.12500000000E+03 0.  0.
         25    1    1    2    0    0  0.32645522619E+02  0.53574165743E+02  0.51880347739E+01  0.13995655428E+03  0.12500000000E+03 0.  0.
         25    1    1    2    0    0  0.42587472997E+02 -0.23320150953E+02  0.66941523745E+01  0.13426590771E+03  0.12500000000E+03 0.  0.
</event>
<event>
 5    0  0.5619558E-005  0.4481345E+03  0.7546771E-02  0.1028280E+00
         21   -1    0    0  502  501  0.00000000000E+00  0.00000000000E+00  0.81257491155E+02  0.81257491155E+02  0.00000000000E+00 0. -1.
         21   -1    0    0  501  502 -0.00000000000E+00 -0.00000000000E+00 -0.24714581440E+04  0.24714581440E+04  0.00000000000E+00 0. -1.
         25    1    1    2    0    0 -0.33211561880E+03 -0.17084263697E+03 -0.10163004092E+04  0.10899447291E+04  0.12500000000E+03 0.  0.
         25    1    1    2    0    0  0.23817470257E+03  0.20591973012E+02 -0.57797601081E+03  0.63783421621E+03  0.12500000000E+03 0.  0.
         25    1    1    2    0    0  0.93940916232E+02  0.15025066396E+03 -0.79592423291E+03  0.82493668987E+03  0.12500000000E+03 0.  0.
</event>
<event>
 5    0  0.5619558E-005  0.3931244E+03  0.7546771E-02  0.1046187E+00
         21   -1    0    0  502  501  0.00000000000E+00  0.00000000000E+00  0.76641005292E+03  0.76641005292E+03  0.00000000000E+00 0. -1.
         21   -1    0    0  501  502 -0.00000000000E+00 -0.00000000000E+00 -0.20165025800E+03  0.20165025800E+03  0.00000000000E+00 0. -1.
         25    1    1    2    0    0  0.83016072146E+02 -0.25948503257E+03  0.24126453531E+03  0.38478270019E+03  0.12500000000E+03 0.  0.
         25    1    1    2    0    0  0.80784261674E+02  0.50646937085E+01  0.15547384243E+03  0.21528786249E+03  0.12500000000E+03 0.  0.
         25    1    1    2    0    0 -0.16380033382E+03  0.25442033886E+03  0.16802141718E+03  0.36798974825E+03  0.12500000000E+03 0.  0.
</event>
<event>
 5    0  0.5619558E-005  0.2807802E+03  0.7546771E-02  0.1095264E+00
         21   -1    0    0  502  501  0.00000000000E+00  0.00000000000E+00  0.31643593014E+03  0.31643593014E+03  0.00000000000E+00 0. -1.
         21   -1    0    0  501  502 -0.00000000000E+00 -0.00000000000E+00 -0.24914211483E+03  0.24914211483E+03  0.00000000000E+00 0. -1.
         25    1    1    2    0    0  0.76004946734E+02 -0.11452032945E+03  0.12261742158E+03  0.22260208863E+03  0.12500000000E+03 0.  0.
         25    1    1    2    0    0  0.11237864315E+01  0.52992769503E+02  0.57876768679E+02  0.14759477250E+03  0.12500000000E+03 0.  0.
         25    1    1    2    0    0 -0.77128733166E+02  0.61527559946E+02 -0.11320037495E+03  0.19538118385E+03  0.12500000000E+03 0.  0.
</event>
<event>
 5    0  0.5619558E-005  0.2646125E+03  0.7546771E-02  0.1104403E+00
         21   -1    0    0  502  501  0.00000000000E+00  0.00000000000E+00  0.74963758695E+03  0.74963758695E+03  0.00000000000E+00 0.  1.
         21   -1    0    0  501  502 -0.00000000000E+00 -0.00000000000E+00 -0.93404807377E+02  0.93404807377E+02  0.00000000000E+00 0.  1.
         25    1    1    2    0    0 -0.39847227499E+02 -0.53187369870E+02  0.21587307280E+03  0.25815282569E+03  0.12500000000E+03 0.  0.
         25    1    1    2    0    0  0.34753893812E+02 -0.96332267239E+02  0.31232166021E+03  0.35164976651E+03  0.12500000000E+03 0.  0.
         25    1    1    2    0    0  0.50933336866E+01  0.14951963711E+03  0.12803804656E+03  0.23323980213E+03  0.12500000000E+03 0.  0.
</event>
<event>
 5    0  0.5619558E-005  0.3489210E+03  0.7546771E-02  0.1063059E+00
         21   -1    0    0  502  501  0.00000000000E+00  0.00000000000E+00  0.26375341539E+03  0.26375341539E+03  0.00000000000E+00 0.  1.
         21   -1    0    0  501  502 -0.00000000000E+00 -0.00000000000E+00 -0.46158968493E+03  0.46158968493E+03  0.00000000000E+00 0.  1.
         25    1    1    2    0    0 -0.11172375397E+03 -0.10114067885E+03 -0.12536774391E+03  0.23249452753E+03  0.12500000000E+03 0.  0.
         25    1    1    2    0    0 -0.10103056572E+03 -0.21179500219E+02 -0.13437559570E+03  0.21056482887E+03  0.12500000000E+03 0.  0.
         25    1    1    2    0    0  0.21275431969E+03  0.12232017907E+03  0.61907070065E+02  0.28228374391E+03  0.12500000000E+03 0.  0.
</event>
<event>
 5    0  0.5619558E-005  0.2627832E+03  0.7546771E-02  0.1105482E+00
         21   -1    0    0  502  501  0.00000000000E+00  0.00000000000E+00  0.16408007027E+03  0.16408007027E+03  0.00000000000E+00 0. -1.
         21   -1    0    0  501  502 -0.00000000000E+00 -0.00000000000E+00 -0.42086171097E+03  0.42086171097E+03  0.00000000000E+00 0. -1.
         25    1    1    2    0    0 -0.49659860959E+02 -0.12148837246E+03 -0.22997881675E+03  0.29281527042E+03  0.12500000000E+03 0.  0.
         25    1    1    2    0    0 -0.64547591322E+01  0.40580632814E+02 -0.68593347946E+01  0.13175925830E+03  0.12500000000E+03 0.  0.
         25    1    1    2    0    0  0.56114620091E+02  0.80907739644E+02 -0.19943489158E+02  0.16036725252E+03  0.12500000000E+03 0.  0.
</event>
<event>
 5    0  0.5619558E-005  0.3084306E+03  0.7546771E-02  0.1081101E+00
         21   -1    0    0  502  501  0.00000000000E+00  0.00000000000E+00  0.34378986370E+03  0.34378986370E+03  0.00000000000E+00 0. -1.
         21   -1    0    0  501  502 -0.00000000000E+00 -0.00000000000E+00 -0.27670800272E+03  0.27670800272E+03  0.00000000000E+00 0. -1.
         25    1    1    2    0    0  0.34652013090E+02 -0.87163431810E+02 -0.88528973362E+02  0.17961237424E+03  0.12500000000E+03 0.  0.
         25    1    1    2    0    0  0.75313497174E+02  0.59670886892E+02 -0.58595311810E+02  0.16819972701E+03  0.12500000000E+03 0.  0.
         25    1    1    2    0    0 -0.10996551026E+03  0.27492544918E+02  0.21420614615E+03  0.27268576517E+03  0.12500000000E+03 0.  0.
</event>
<event>
 5    0  0.5619558E-005  0.3290747E+03  0.7546771E-02  0.1071547E+00
         21   -1    0    0  502  501  0.00000000000E+00  0.00000000000E+00  0.10829067784E+04  0.10829067784E+04  0.00000000000E+00 0.  1.
         21   -1    0    0  501  502 -0.00000000000E+00 -0.00000000000E+00 -0.99999509677E+02  0.99999509677E+02  0.00000000000E+00 0.  1.
         25    1    1    2    0    0 -0.61682762563E+02  0.82538805466E+02  0.57897064568E+03  0.60120664182E+03  0.12500000000E+03 0.  0.
         25    1    1    2    0    0 -0.57196177784E+02  0.27990859307E+02  0.13700722586E+02  0.14095247695E+03  0.12500000000E+03 0.  0.
         25    1    1    2    0    0  0.11887894035E+03 -0.11052966477E+03  0.39023590046E+03  0.44074716932E+03  0.12500000000E+03 0.  0.
</event>
<event>
 5    0  0.6259907E-005  0.2976462E+03  0.7546771E-02  0.1086423E+00
         21   -1    0    0  502  501  0.00000000000E+00  0.00000000000E+00  0.52397795786E+03  0.52397795786E+03  0.00000000000E+00 0. -1.
         21   -1    0    0  501  502 -0.00000000000E+00 -0.00000000000E+00 -0.16907817052E+03  0.16907817052E+03  0.00000000000E+00 0. -1.
         25    1    1    2    0    0  0.66047756801E+02  0.10783101684E+03  0.89429041159E+02  0.19902861044E+03  0.12500000000E+03 0.  0.
         25    1    1    2    0    0 -0.82748016280E+02 -0.20734342780E+03  0.16921873951E+03  0.30675480933E+03  0.12500000000E+03 0.  0.
         25    1    1    2    0    0  0.16700259479E+02  0.99512410957E+02  0.96252006669E+02  0.18727270861E+03  0.12500000000E+03 0.  0.
</event>
<event>
 5    0  0.5619558E-005  0.3497467E+03  0.7546771E-02  0.1062719E+00
         21   -1    0    0  502  501  0.00000000000E+00  0.00000000000E+00  0.15530228145E+03  0.15530228145E+03  0.00000000000E+00 0.  1.
         21   -1    0    0  501  502 -0.00000000000E+00 -0.00000000000E+00 -0.78764286701E+03  0.78764286701E+03  0.00000000000E+00 0.  1.
         25    1    1    2    0    0  0.64090621922E+02  0.13036496786E+03 -0.31639527348E+02  0.19423875090E+03  0.12500000000E+03 0.  0.
         25    1    1    2    0    0  0.24486799594E+01  0.10626934130E+03 -0.29058466764E+03  0.33371187872E+03  0.12500000000E+03 0.  0.
         25    1    1    2    0    0 -0.66539301882E+02 -0.23663430916E+03 -0.31011639057E+03  0.41499451884E+03  0.12500000000E+03 0.  0.
</event>
<event>
 5    0  0.5661233E-005  0.4122209E+03  0.7546771E-02  0.1039628E+00
         21   -1    0    0  502  501  0.00000000000E+00  0.00000000000E+00  0.86105771250E+03  0.86105771250E+03  0.00000000000E+00 0.  1.
         21   -1    0    0  501  502 -0.00000000000E+00 -0.00000000000E+00 -0.19734574176E+03  0.19734574176E+03  0.00000000000E+00 0.  1.
         25    1    1    2    0    0 -0.41671318386E+02  0.84980614676E+02 -0.37897833761E+02  0.16130545388E+03  0.12500000000E+03 0.  0.
         25    1    1    2    0    0 -0.29069562660E+02 -0.27885940798E+03  0.30415764660E+03  0.43213942528E+03  0.12500000000E+03 0.  0.
         25    1    1    2    0    0  0.70740881045E+02  0.19387879331E+03  0.39745215790E+03  0.46495857510E+03  0.12500000000E+03 0.  0.
</event>
<event>
 5    0  0.6349348E-005  0.2773283E+03  0.7546771E-02  0.1097157E+00
         21   -1    0    0  502  501  0.00000000000E+00  0.00000000000E+00  0.23830257087E+03  0.23830257087E+03  0.00000000000E+00 0. -1.
         21   -1    0    0  501  502 -0.00000000000E+00 -0.00000000000E+00 -0.32274502464E+03  0.32274502464E+03  0.00000000000E+00 0. -1.
         25    1    1    2    0    0  0.65720289070E+02 -0.71424207016E+02  0.42271448662E+02  0.16380613272E+03  0.12500000000E+03 0.  0.
         25    1    1    2    0    0 -0.26122914536E+02  0.13114720056E+03 -0.16684153113E+03  0.24767537502E+03  0.12500000000E+03 0.  0.
         25    1    1    2    0    0 -0.39597374534E+02 -0.59722993543E+02  0.40127628701E+02  0.14956608778E+03  0.12500000000E+03 0.  0.
</event>
<event>
 5    0  0.5619558E-005  0.2793298E+03  0.7546771E-02  0.1096056E+00
         21   -1    0    0  502  501  0.00000000000E+00  0.00000000000E+00  0.14195331681E+04  0.14195331681E+04  0.00000000000E+00 0. -1.
         21   -1    0    0  501  502 -0.00000000000E+00 -0.00000000000E+00 -0.54965338125E+02  0.54965338125E+02  0.00000000000E+00 0. -1.
         25    1    1    2    0    0 -0.95715347396E+02 -0.65031156297E+02  0.18835441122E+03  0.25395445112E+03  0.12500000000E+03 0.  0.
         25    1    1    2    0    0 -0.25736940756E+02  0.38910009754E+02  0.70367743820E+03  0.71621457400E+03  0.12500000000E+03 0.  0.
         25    1    1    2    0    0  0.12145228815E+03  0.26121146544E+02  0.47253598053E+03  0.50432948108E+03  0.12500000000E+03 0.  0.
</event>
<event>
 5    0  0.5619558E-005  0.2627638E+03  0.7546771E-02  0.1105494E+00
         21   -1    0    0  502  501  0.00000000000E+00  0.00000000000E+00  0.26754674556E+03  0.26754674556E+03  0.00000000000E+00 0.  1.
         21   -1    0    0  501  502 -0.00000000000E+00 -0.00000000000E+00 -0.25806632856E+03  0.25806632856E+03  0.00000000000E+00 0.  1.
         25    1    1    2    0    0 -0.49934183155E+02  0.75284777142E+02  0.63370002796E+01  0.15435795376E+03  0.12500000000E+03 0.  0.
         25    1    1    2    0    0 -0.81753057117E+02  0.28377917525E+00 -0.65312473888E+02  0.16301644740E+03  0.12500000000E+03 0.  0.
         25    1    1    2    0    0  0.13168724027E+03 -0.75568556318E+02  0.68455890615E+02  0.20823867296E+03  0.12500000000E+03 0.  0.
</event>
<event>
 5    0  0.5619558E-005  0.3306045E+03  0.7546771E-02  0.1070870E+00
         21   -1    0    0  502  501  0.00000000000E+00  0.00000000000E+00  0.34348496113E+03  0.34348496113E+03  0.00000000000E+00 0. -1.
         21   -1    0    0  501  502 -0.00000000000E+00 -0.00000000000E+00 -0.31820700446E+03  0.31820700446E+03  0.00000000000E+00 0. -1.
         25    1    1    2    0    0  0.36164259958E+02 -0.10852278667E+03 -0.80395357225E+02  0.18754589409E+03  0.12500000000E+03 0.  0.
         25    1    1    2    0    0 -0.29007779935E+02 -0.76919649305E+02 -0.91957593597E+02  0.17561116925E+03  0.12500000000E+03 0.  0.
         25    1    1    2    0    0 -0.71564800233E+01  0.18544243598E+03  0.19763090749E+03  0.29853490225E+03  0.12500000000E+03 0.  0.
</event>
<event>
 5    0  0.5619558E-005  0.2121843E+03  0.7546771E-02  0.1139848E+00
         21   -1    0    0  502  501  0.00000000000E+00  0.00000000000E+00  0.12859640387E+03  0.12859640387E+03  0.00000000000E+00 0.  1.
         21   -1    0    0  501  502 -0.00000000000E+00 -0.00000000000E+00 -0.35010445279E+03  0.35010445279E+03  0.00000000000E+00 0.  1.
         25    1    1    2    0    0  0.67309067852E+02 -0.30075620207E+02 -0.97718949489E+02  0.17495441302E+03  0.12500000000E+03 0.  0.
         25    1    1    2    0    0 -0.65450750023E+01 -0.19627743756E+02 -0.79750392895E+02  0.14971042548E+03  0.12500000000E+03 0.  0.
         25    1    1    2    0    0 -0.60763992850E+02  0.49703363963E+02 -0.44038706541E+02  0.15403601816E+03  0.12500000000E+03 0.  0.
</event>
<event>
 5    0  0.5619558E-005  0.2853520E+03  0.7546771E-02  0.1092801E+00
         21   -1    0    0  502  501  0.00000000000E+00  0.00000000000E+00  0.14262968421E+03  0.14262968421E+03  0.00000000000E+00 0.  1.
         21   -1    0    0  501  502 -0.00000000000E+00 -0.00000000000E+00 -0.57088922597E+03  0.57088922597E+03  0.00000000000E+00 0.  1.
         25    1    1    2    0    0 -0.92437824298E+02 -0.47502878377E+02  0.24662653987E+02  0.16442177872E+03  0.12500000000E+03 0.  0.
         25    1    1    2    0    0  0.21993467483E+02  0.77392999649E+01 -0.33764873831E+03  0.36079811510E+03  0.12500000000E+03 0.  0.
         25    1    1    2    0    0  0.70444356815E+02  0.39763578412E+02 -0.11527345744E+03  0.18829901637E+03  0.12500000000E+03 0.  0.
</event>
<event>
 5    0  0.5619558E-005  0.3376772E+03  0.7546771E-02  0.1067790E+00
         21   -1    0    0  502  501  0.00000000000E+00  0.00000000000E+00  0.10939292912E+03  0.10939292912E+03  0.00000000000E+00 0. -1.
         21   -1    0    0  501  502 -0.00000000000E+00 -0.00000000000E+00 -0.10423514262E+04  0.10423514262E+04  0.00000000000E+00 0. -1.
         25    1    1    2    0    0  0.55697572617E+02  0.15909202475E+02 -0.19060614046E+03  0.23518295665E+03  0.12500000000E+03 0.  0.
         25    1    1    2    0    0 -0.58416715003E+02 -0.19286869261E+03 -0.13761192550E+03  0.27417674449E+03  0.12500000000E+03 0.  0.
         25    1    1    2    0    0  0.27191423861E+01  0.17695949014E+03 -0.60474043108E+03  0.64238465413E+03  0.12500000000E+03 0.  0.
</event>
<event>
 5    0  0.5619558E-005  0.2955956E+03  0.7546771E-02  0.1087463E+00
         21   -1    0    0  502  501  0.00000000000E+00  0.00000000000E+00  0.12386383433E+04  0.12386383433E+04  0.00000000000E+00 0.  1.
         21   -1    0    0  501  502 -0.00000000000E+00 -0.00000000000E+00 -0.70542588079E+02  0.70542588079E+02  0.00000000000E+00 0.  1.
         25    1    1    2    0    0 -0.38636369327E+01 -0.12759531982E+02  0.11288364232E+03  0.16895398797E+03  0.12500000000E+03 0.  0.
         25    1    1    2    0    0 -0.37903812203E+01  0.15683851513E+03  0.77936929623E+03  0.80476964823E+03  0.12500000000E+03 0.  0.
         25    1    1    2    0    0  0.76540181529E+01 -0.14407898315E+03  0.27584281669E+03  0.33545729519E+03  0.12500000000E+03 0.  0.
</event>
<event>
 5    0  0.5619558E-005  0.2916492E+03  0.7546771E-02  0.1089491E+00
         21   -1    0    0  502  501  0.00000000000E+00  0.00000000000E+00  0.32906672693E+02  0.32906672693E+02  0.00000000000E+00 0. -1.
         21   -1    0    0  501  502 -0.00000000000E+00 -0.00000000000E+00 -0.25848634011E+04  0.25848634011E+04  0.00000000000E+00 0. -1.
         25    1    1    2    0    0 -0.90257080594E+02 -0.44301124595E+02 -0.29562378163E+03  0.33634409539E+03  0.12500000000E+03 0.  0.
         25    1    1    2    0    0  0.14409959288E+03 -0.41150833908E+01 -0.11539720688E+04  0.11696401850E+04  0.12500000000E+03 0.  0.
         25    1    1    2    0    0 -0.53842512290E+02  0.48416207986E+02 -0.11023608779E+04  0.11117857934E+04  0.12500000000E+03 0.  0.
</event>
<event>
 5    0  0.5619558E-005  0.3840064E+03  0.7546771E-02  0.1049463E+00
         21   -1    0    0  502  501  0.00000000000E+00  0.00000000000E+00  0.11010464767E+04  0.11010464767E+04  0.00000000000E+00 0.  1.
         21   -1    0    0  501  502 -0.00000000000E+00 -0.00000000000E+00 -0.13392797738E+03  0.13392797738E+03  0.00000000000E+00 0.  1.
         25    1    1    2    0    0  0.20302319754E+03 -0.14553259808E+03  0.16572967327E+03  0.32479144146E+03  0.12500000000E+03 0.  0.
         25    1    1    2    0    0 -0.17458490292E+03  0.46638509977E+02  0.65867094093E+03  0.69435397843E+03  0.12500000000E+03 0.  0.
         25    1    1    2    0    0 -0.28438294615E+02  0.98894088102E+02  0.14271788509E+03  0.21582903416E+03  0.12500000000E+03 0.  0.
</event>
<event>
 5    0  0.5619558E-005  0.3019887E+03  0.7546771E-02  0.1084251E+00
         21   -1    0    0  502  501  0.00000000000E+00  0.00000000000E+00  0.17288380606E+04  0.17288380606E+04  0.00000000000E+00 0.  1.
         21   -1    0    0  501  502 -0.00000000000E+00 -0.00000000000E+00 -0.52750551197E+02  0.52750551197E+02  0.00000000000E+00 0.  1.
         25    1    1    2    0    0 -0.71608332606E+02 -0.74003817920E+02  0.15775076258E+03  0.22608542956E+03  0.12500000000E+03 0.  0.
         25    1    1    2    0    0 -0.59094148159E+02 -0.61553886307E+00  0.75073794979E+03  0.76336424235E+03  0.12500000000E+03 0.  0.
         25    1    1    2    0    0  0.13070248077E+03  0.74619356783E+02  0.76759879706E+03  0.79213893991E+03  0.12500000000E+03 0.  0.
</event>
<event>
 5    0  0.5619558E-005  0.2946664E+03  0.7546771E-02  0.1087938E+00
         21   -1    0    0  502  501  0.00000000000E+00  0.00000000000E+00  0.10128688217E+04  0.10128688217E+04  0.00000000000E+00 0. -1.
         21   -1    0    0  501  502 -0.00000000000E+00 -0.00000000000E+00 -0.85725101456E+02  0.85725101456E+02  0.00000000000E+00 0. -1.
         25    1    1    2    0    0 -0.16369584501E+03  0.46523805631E+02  0.58194521173E+03  0.61906867439E+03  0.12500000000E+03 0.  0.
         25    1    1    2    0    0  0.13678763469E+03  0.18044147142E+02  0.16062456689E+03  0.24588960884E+03  0.12500000000E+03 0.  0.
         25    1    1    2    0    0  0.26908210318E+02 -0.64567952774E+02  0.18457394160E+03  0.23363563989E+03  0.12500000000E+03 0.  0.
</event>
<event>
 5    0  0.5619558E-005  0.2430564E+03  0.7546771E-02  0.1117773E+00
         21   -1    0    0  502  501  0.00000000000E+00  0.00000000000E+00  0.13145544747E+04  0.13145544747E+04  0.00000000000E+00 0.  1.
         21   -1    0    0  501  502 -0.00000000000E+00 -0.00000000000E+00 -0.44940241546E+02  0.44940241546E+02  0.00000000000E+00 0.  1.
         25    1    1    2    0    0  0.87668498632E+02 -0.34328326681E+02  0.61463358239E+03  0.63424257210E+03  0.12500000000E+03 0.  0.
         25    1    1    2    0    0 -0.30765396950E+02  0.83514245305E+02  0.43521087238E+03  0.46147008815E+03  0.12500000000E+03 0.  0.
         25    1    1    2    0    0 -0.56903101681E+02 -0.49185918624E+02  0.21976977835E+03  0.26378205597E+03  0.12500000000E+03 0.  0.
</event>
<event>
 5    0  0.5619558E-005  0.3562712E+03  0.7546771E-02  0.1060070E+00
         21   -1    0    0  502  501  0.00000000000E+00  0.00000000000E+00  0.97005947152E+02  0.97005947152E+02  0.00000000000E+00 0. -1.
         21   -1    0    0  501  502 -0.00000000000E+00 -0.00000000000E+00 -0.13084681135E+04  0.13084681135E+04  0.00000000000E+00 0. -1.
         25    1    1    2    0    0  0.91672562233E+02 -0.19011052574E+03 -0.88930431184E+03  0.92251451464E+03  0.12500000000E+03 0.  0.
         25    1    1    2    0    0 -0.10180291548E+03  0.15066973816E+03 -0.15205590824E+03  0.26797612362E+03  0.12500000000E+03 0.  0.
         25    1    1    2    0    0  0.10130353252E+02  0.39440787576E+02 -0.17010194629E+03  0.21498342241E+03  0.12500000000E+03 0.  0.
</event>
<event>
 5    0  0.5619558E-005  0.2811524E+03  0.7546771E-02  0.1095061E+00
         21   -1    0    0  502  501  0.00000000000E+00  0.00000000000E+00  0.11157649197E+03  0.11157649197E+03  0.00000000000E+00 0. -1.
         21   -1    0    0  501  502 -0.00000000000E+00 -0.00000000000E+00 -0.70845251870E+03  0.70845251870E+03  0.00000000000E+00 0. -1.
         25    1    1    2    0    0 -0.10266284780E+03  0.90125478070E+02 -0.46096251530E+03  0.49676322592E+03  0.12500000000E+03 0.  0.
         25    1    1    2    0    0  0.18575315098E+02 -0.25541013436E+02 -0.50813899091E+02  0.13858007807E+03  0.12500000000E+03 0.  0.
         25    1    1    2    0    0  0.84087532703E+02 -0.64584464634E+02 -0.85099612347E+02  0.18468570667E+03  0.12500000000E+03 0.  0.
</event>
<event>
 5    0  0.5619558E-005  0.3457752E+03  0.7546771E-02  0.1064363E+00
         21   -1    0    0  502  501  0.00000000000E+00  0.00000000000E+00  0.63697650733E+02  0.63697650733E+02  0.00000000000E+00 0. -1.
         21   -1    0    0  501  502 -0.00000000000E+00 -0.00000000000E+00 -0.18769998616E+04  0.18769998616E+04  0.00000000000E+00 0. -1.
         25    1    1    2    0    0  0.25254520423E+02 -0.32481733344E+01 -0.99149204335E+03  0.99966485057E+03  0.12500000000E+03 0.  0.
         25    1    1    2    0    0  0.16838442749E+03 -0.26008040321E+02 -0.27422484985E+03  0.34619936721E+03  0.12500000000E+03 0.  0.
         25    1    1    2    0    0 -0.19363894791E+03  0.29256213655E+02 -0.54758531766E+03  0.59483329455E+03  0.12500000000E+03 0.  0.
</event>
<event>
 5    0  0.5619558E-005  0.2360470E+03  0.7546771E-02  0.1122455E+00
         21   -1    0    0  502  501  0.00000000000E+00  0.00000000000E+00  0.14445059908E+03  0.14445059908E+03  0.00000000000E+00 0. -1.
         21   -1    0    0  501  502 -0.00000000000E+00 -0.00000000000E+00 -0.38572500247E+03  0.38572500247E+03  0.00000000000E+00 0. -1.
         25    1    1    2    0    0 -0.53752134246E+02  0.49839553873E+01 -0.17000053936E+03  0.21780568204E+03  0.12500000000E+03 0.  0.
         25    1    1    2    0    0 -0.32865284975E+02  0.31473359764E+02 -0.80889460125E+02  0.15568816298E+03  0.12500000000E+03 0.  0.
         25    1    1    2    0    0  0.86617419221E+02 -0.36457315151E+02  0.96155960973E+01  0.15668175653E+03  0.12500000000E+03 0.  0.
</event>
<event>
 5    0  0.5619558E-005  0.2966422E+03  0.7546771E-02  0.1086931E+00
         21   -1    0    0  502  501  0.00000000000E+00  0.00000000000E+00  0.51379092433E+02  0.51379092433E+02  0.00000000000E+00 0.  1.
         21   -1    0    0  501  502 -0.00000000000E+00 -0.00000000000E+00 -0.17126928504E+04  0.17126928504E+04  0.00000000000E+00 0.  1.
         25    1    1    2    0    0  0.21992241636E+02  0.98443735103E+01 -0.62030437922E+03  0.63323225855E+03  0.12500000000E+03 0.  0.
         25    1    1    2    0    0  0.16993802780E+03  0.64657102020E+01 -0.53692942867E+03  0.57692196186E+03  0.12500000000E+03 0.  0.
         25    1    1    2    0    0 -0.19193026944E+03 -0.16310083712E+02 -0.50407995011E+03  0.55391772246E+03  0.12500000000E+03 0.  0.
</event>
<event>
 5    0  0.5619558E-005  0.2072774E+03  0.7546771E-02  0.1143740E+00
         21   -1    0    0  502  501  0.00000000000E+00  0.00000000000E+00  0.11066574537E+03  0.11066574537E+03  0.00000000000E+00 0.  1.
         21   -1    0    0  501  502 -0.00000000000E+00 -0.00000000000E+00 -0.38823144536E+03  0.38823144536E+03  0.00000000000E+00 0.  1.
         25    1    1    2    0    0  0.30906879117E+02 -0.21756315016E+02 -0.38702356482E+02  0.13620368871E+03  0.12500000000E+03 0.  0.
         25    1    1    2    0    0 -0.16229153853E+01  0.31630863281E+02 -0.59803017049E+02  0.14214269666E+03  0.12500000000E+03 0.  0.
         25    1    1    2    0    0 -0.29283963732E+02 -0.98745482650E+01 -0.17906032645E+03  0.22055080536E+03  0.12500000000E+03 0.  0.
</event>
<event>
 5    0  0.5619558E-005  0.3773573E+03  0.7546771E-02  0.1051915E+00
         21   -1    0    0  502  501  0.00000000000E+00  0.00000000000E+00  0.69861687386E+02  0.69861687386E+02  0.00000000000E+00 0.  1.
         21   -1    0    0  501  502 -0.00000000000E+00 -0.00000000000E+00 -0.20382927176E+04  0.20382927176E+04  0.00000000000E+00 0.  1.
         25    1    1    2    0    0  0.89027306030E+02 -0.23271199490E+03 -0.95337760533E+03  0.99329481632E+03  0.12500000000E+03 0.  0.
         25    1    1    2    0    0 -0.14693720608E+03  0.10199128835E+03 -0.27625895986E+03  0.35204655705E+03  0.12500000000E+03 0.  0.
         25    1    1    2    0    0  0.57909900050E+02  0.13072070655E+03 -0.73879446505E+03  0.76281303164E+03  0.12500000000E+03 0.  0.
</event>
<event>
 5    0  0.5619558E-005  0.2588546E+03  0.7546771E-02  0.1107833E+00
         21   -1    0    0  502  501  0.00000000000E+00  0.00000000000E+00  0.89767956602E+03  0.89767956602E+03  0.00000000000E+00 0. -1.
         21   -1    0    0  501  502 -0.00000000000E+00 -0.00000000000E+00 -0.74643256095E+02  0.74643256095E+02  0.00000000000E+00 0. -1.
         25    1    1    2    0    0 -0.30465485223E+02 -0.72093107408E+02  0.10966491041E+03  0.18378507693E+03  0.12500000000E+03 0.  0.
         25    1    1    2    0    0  0.99732809029E+02  0.39849793119E+02  0.22655337662E+03  0.28015365724E+03  0.12500000000E+03 0.  0.
         25    1    1    2    0    0 -0.69267323806E+02  0.32243314289E+02  0.48681802290E+03  0.50838408795E+03  0.12500000000E+03 0.  0.
</event>
<event>
 5    0  0.5619558E-005  0.2859084E+03  0.7546771E-02  0.1092505E+00
         21   -1    0    0  502  501  0.00000000000E+00  0.00000000000E+00  0.18940995599E+03  0.18940995599E+03  0.00000000000E+00 0. -1.
         21   -1    0    0  501  502 -0.00000000000E+00 -0.00000000000E+00 -0.43156989549E+03  0.43156989549E+03  0.00000000000E+00 0. -1.
         25    1    1    2    0    0  0.35938751180E+02  0.49366248669E+02  0.84503710783E+02  0.16277130423E+03  0.12500000000E+03 0.  0.
         25    1    1    2    0    0 -0.29915519376E+02 -0.11304683992E+03 -0.23419520639E+03  0.29008088701E+03  0.12500000000E+03 0.  0.
         25    1    1    2    0    0 -0.60232318035E+01  0.63680591248E+02 -0.92468443889E+02  0.16812766024E+03  0.12500000000E+03 0.  0.
</event>
<event>
 5    0  0.5619558E-005  0.2720912E+03  0.7546771E-02  0.1100089E+00
         21   -1    0    0  502  501  0.00000000000E+00  0.00000000000E+00  0.16068088605E+03  0.16068088605E+03  0.00000000000E+00 0.  1.
         21   -1    0    0  501  502 -0.00000000000E+00 -0.00000000000E+00 -0.46074940725E+03  0.46074940725E+03  0.00000000000E+00 0.  1.
         25    1    1    2    0    0  0.12788481622E+03  0.10165925102E+03 -0.16699700166E+03  0.26495684196E+03  0.12500000000E+03 0.  0.
         25    1    1    2    0    0 -0.12336270595E+03 -0.10671807655E+03 -0.81010587984E+02  0.22089549666E+03  0.12500000000E+03 0.  0.
         25    1    1    2    0    0 -0.45221102732E+01  0.50588255225E+01 -0.52060931556E+02  0.13557795467E+03  0.12500000000E+03 0.  0.
</event>
<event>
 5    0  0.5619558E-005  0.3200512E+03  0.7546771E-02  0.1075626E+00
         21   -1    0    0  502  501  0.00000000000E+00  0.00000000000E+00  0.14335227773E+03  0.14335227773E+03  0.00000000000E+00 0. -1.
         21   -1    0    0  501  502 -0.00000000000E+00 -0.00000000000E+00 -0.71455287695E+03  0.71455287695E+03  0.00000000000E+00 0. -1.
         25    1    1    2    0    0  0.24120157185E+02  0.76173107037E+02 -0.13980217610E+03  0.20384742495E+03  0.12500000000E+03 0.  0.
         25    1    1    2    0    0 -0.10512307441E+03  0.12365854028E+03 -0.32250871316E+03  0.38207219923E+03  0.12500000000E+03 0.  0.
         25    1    1    2    0    0  0.81002917225E+02 -0.19983164732E+03 -0.10888970995E+03  0.27198553050E+03  0.12500000000E+03 0.  0.
</event>
<event>
 5    0  0.6044262E-005  0.2988874E+03  0.7546771E-02  0.1085798E+00
         21   -1    0    0  502  501  0.00000000000E+00  0.00000000000E+00  0.36373937395E+03  0.36373937395E+03  0.00000000000E+00 0.  1.
         21   -1    0    0  501  502 -0.00000000000E+00 -0.00000000000E+00 -0.24559803632E+03  0.24559803632E+03  0.00000000000E+00 0.  1.
         25    1    1    2    0    0 -0.14541240948E+03 -0.41685192604E+02 -0.74039755565E+02  0.20973628565E+03  0.12500000000E+03 0.  0.
         25    1    1    2    0    0  0.14146481608E+03 -0.22593337540E+02  0.43657910392E+02  0.19507374562E+03  0.12500000000E+03 0.  0.
         25    1    1    2    0    0  0.39475934013E+01  0.64278530144E+02  0.14852318280E+03  0.20452737900E+03  0.12500000000E+03 0.  0.
</event>
<event>
 5    0  0.5619558E-005  0.3220109E+03  0.7546771E-02  0.1074728E+00
         21   -1    0    0  502  501  0.00000000000E+00  0.00000000000E+00  0.23660052488E+03  0.23660052488E+03  0.00000000000E+00 0. -1.
         21   -1    0    0  501  502 -0.00000000000E+00 -0.00000000000E+00 -0.43825342075E+03  0.43825342075E+03  0.00000000000E+00 0. -1.
         25    1    1    2    0    0 -0.18587510537E+03  0.12777626784E+03 -0.14240460987E+01  0.25788244866E+03  0.12500000000E+03 0.  0.
         25    1    1    2    0    0  0.11829209063E+03 -0.85669850291E+02 -0.18697380479E+03  0.26817260418E+03  0.12500000000E+03 0.  0.
         25    1    1    2    0    0  0.67583014731E+02 -0.42106417552E+02 -0.13255044978E+02  0.14879889279E+03  0.12500000000E+03 0.  0.
</event>
<event>
 5    0  0.5619558E-005  0.4244518E+03  0.7546771E-02  0.1035627E+00
         21   -1    0    0  502  501  0.00000000000E+00  0.00000000000E+00  0.16656289778E+03  0.16656289778E+03  0.00000000000E+00 0. -1.
         21   -1    0    0  501  502 -0.00000000000E+00 -0.00000000000E+00 -0.10816294963E+04  0.10816294963E+04  0.00000000000E+00 0. -1.
         25    1    1    2    0    0  0.33970558441E+02 -0.29149614173E+03 -0.69729724722E+03  0.76679361660E+03  0.12500000000E+03 0.  0.
         25    1    1    2    0    0  0.16567834350E+01  0.98935130481E+02  0.50370663267E+01  0.15950321944E+03  0.12500000000E+03 0.  0.
         25    1    1    2    0    0 -0.35627341876E+02  0.19256101125E+03 -0.22280641761E+03  0.32189555802E+03  0.12500000000E+03 0.  0.
</event>
<event>
 5    0  0.5619558E-005  0.3665192E+03  0.7546771E-02  0.1056032E+00
         21   -1    0    0  502  501  0.00000000000E+00  0.00000000000E+00  0.15614464173E+03  0.15614464173E+03  0.00000000000E+00 0.  1.
         21   -1    0    0  501  502 -0.00000000000E+00 -0.00000000000E+00 -0.86033258306E+03  0.86033258306E+03  0.00000000000E+00 0.  1.
         25    1    1    2    0    0  0.31037094681E+02 -0.42568024989E+02 -0.14403223220E+00  0.13564792200E+03  0.12500000000E+03 0.  0.
         25    1    1    2    0    0 -0.15150164067E+03  0.20061772807E+03 -0.48132533356E+03  0.55722463753E+03  0.12500000000E+03 0.  0.
         25    1    1    2    0    0  0.12046454599E+03 -0.15804970308E+03 -0.22271857554E+03  0.32360466526E+03  0.12500000000E+03 0.  0.
</event>
<event>
 5    0  0.5619558E-005  0.2920739E+03  0.7546771E-02  0.1089271E+00
         21   -1    0    0  502  501  0.00000000000E+00  0.00000000000E+00  0.11926772208E+04  0.11926772208E+04  0.00000000000E+00 0. -1.
         21   -1    0    0  501  502 -0.00000000000E+00 -0.00000000000E+00 -0.71525795681E+02  0.71525795681E+02  0.00000000000E+00 0. -1.
         25    1    1    2    0    0  0.36388858344E+02 -0.49201201038E+02  0.15013778729E+03  0.20472240319E+03  0.12500000000E+03 0.  0.
         25    1    1    2    0    0 -0.96690488114E+02 -0.26895118670E+02  0.83662915173E+03  0.85184842280E+03  0.12500000000E+03 0.  0.
         25    1    1    2    0    0  0.60301629770E+02  0.76096319708E+02  0.13438448610E+03  0.20763219050E+03  0.12500000000E+03 0.  0.
</event>
<event>
 5    0  0.5619558E-005  0.2977947E+03  0.7546771E-02  0.1086348E+00
         21   -1    0    0  502  501  0.00000000000E+00  0.00000000000E+00  0.14242357788E+03  0.14242357788E+03  0.00000000000E+00 0. -1.
         21   -1    0    0  501  502 -0.00000000000E+00 -0.00000000000E+00 -0.62266143596E+03  0.62266143596E+03  0.00000000000E+00 0. -1.
         25    1    1    2    0    0  0.19358128464E+02  0.16332093508E+03 -0.94012085900E+02  0.22696197318E+03  0.12500000000E+03 0.  0.
         25    1    1    2    0    0 -0.11920000605E+03 -0.60309121064E+02 -0.16545126240E+03  0.24666769500E+03  0.12500000000E+03 0.  0.
         25    1    1    2    0    0  0.99841877582E+02 -0.10301181401E+03 -0.22077450978E+03  0.29145534566E+03  0.12500000000E+03 0.  0.
</event>
<event>
 5    0  0.5619558E-005  0.3618953E+03  0.7546771E-02  0.1057836E+00
         21   -1    0    0  502  501  0.00000000000E+00  0.00000000000E+00  0.33609468652E+04  0.33609468652E+04  0.00000000000E+00 0.  1.
         21   -1    0    0  501  502 -0.00000000000E+00 -0.00000000000E+00 -0.38967659214E+02  0.38967659214E+02  0.00000000000E+00 0.  1.
         25    1    1    2    0    0 -0.56567098989E+02  0.25075288991E+01  0.47545151587E+03  0.49485883678E+03  0.12500000000E+03 0.  0.
         25    1    1    2    0    0  0.20337074295E+03  0.17065738480E+03  0.19452426531E+04  0.19672512756E+04  0.12500000000E+03 0.  0.
         25    1    1    2    0    0 -0.14680364396E+03 -0.17316491370E+03  0.90128503709E+03  0.93780441207E+03  0.12500000000E+03 0.  0.
</event>
<event>
 5    0  0.5619558E-005  0.3918559E+03  0.7546771E-02  0.1046637E+00
         21   -1    0    0  502  501  0.00000000000E+00  0.00000000000E+00  0.14926697241E+03  0.14926697241E+03  0.00000000000E+00 0.  1.
         21   -1    0    0  501  502 -0.00000000000E+00 -0.00000000000E+00 -0.10287008210E+04  0.10287008210E+04  0.00000000000E+00 0.  1.
         25    1    1    2    0    0 -0.12408549946E+03  0.59764428509E+02 -0.68645921314E+02  0.19825806568E+03  0.12500000000E+03 0.  0.
         25    1    1    2    0    0  0.17896566602E+03 -0.78310005638E+02 -0.80935941138E+03  0.84193160256E+03  0.12500000000E+03 0.  0.
         25    1    1    2    0    0 -0.54880166560E+02  0.18545577129E+02 -0.14285158751E+01  0.13777812515E+03  0.12500000000E+03 0.  0.
</event>
<event>
 5    0  0.6216496E-005  0.2879449E+03  0.7546771E-02  0.1091427E+00
         21   -1    0    0  502  501  0.00000000000E+00  0.00000000000E+00  0.11238110089E+03  0.11238110089E+03  0.00000000000E+00 0.  1.
         21   -1    0    0  501  502 -0.00000000000E+00 -0.00000000000E+00 -0.73777741006E+03  0.73777741006E+03  0.00000000000E+00 0.  1.
         25    1    1    2    0    0  0.12857848605E+03 -0.12458645646E+03 -0.21352586448E+03  0.30540547966E+03  0.12500000000E+03 0.  0.
         25    1    1    2    0    0 -0.10840667390E+03  0.44475058230E+02 -0.33518667653E+03  0.37643743952E+03  0.12500000000E+03 0.  0.
         25    1    1    2    0    0 -0.20171812148E+02  0.80111398226E+02 -0.76683768170E+02  0.16831559177E+03  0.12500000000E+03 0.  0.
</event>
<event>
 5    0  0.5619558E-005  0.3443683E+03  0.7546771E-02  0.1064951E+00
         21   -1    0    0  502  501  0.00000000000E+00  0.00000000000E+00  0.60306446660E+03  0.60306446660E+03  0.00000000000E+00 0. -1.
         21   -1    0    0  501  502 -0.00000000000E+00 -0.00000000000E+00 -0.19664486223E+03  0.19664486223E+03  0.00000000000E+00 0. -1.
         25    1    1    2    0    0 -0.30001422208E+02 -0.16248550319E+03 -0.65467063387E+02  0.21728451503E+03  0.12500000000E+03 0.  0.
         25    1    1    2    0    0  0.36619770950E+02  0.88797617561E+02  0.10930348740E+03  0.19182876966E+03  0.12500000000E+03 0.  0.
         25    1    1    2    0    0 -0.66183487423E+01  0.73687885632E+02  0.36258318035E+03  0.39059604414E+03  0.12500000000E+03 0.  0.
</event>
<event>
 5    0  0.5619558E-005  0.3018003E+03  0.7546771E-02  0.1084344E+00
         21   -1    0    0  502  501  0.00000000000E+00  0.00000000000E+00  0.10953801587E+04  0.10953801587E+04  0.00000000000E+00 0.  1.
         21   -1    0    0  501  502 -0.00000000000E+00 -0.00000000000E+00 -0.83152340902E+02  0.83152340902E+02  0.00000000000E+00 0.  1.
         25    1    1    2    0    0 -0.67377871429E+02 -0.53325466569E+02  0.31694440946E+03  0.35137179971E+03  0.12500000000E+03 0.  0.
         25    1    1    2    0    0  0.17539320897E+03  0.14328267274E+03  0.43318089228E+03  0.50454275091E+03  0.12500000000E+03 0.  0.
         25    1    1    2    0    0 -0.10801533754E+03 -0.89957206175E+02  0.26210251610E+03  0.32261794902E+03  0.12500000000E+03 0.  0.
</event>
<event>
 5    0  0.5619558E-005  0.3433509E+03  0.7546771E-02  0.1065378E+00
         21   -1    0    0  502  501  0.00000000000E+00  0.00000000000E+00  0.67997212908E+02  0.67997212908E+02  0.00000000000E+00 0.  1.
         21   -1    0    0  501  502 -0.00000000000E+00 -0.00000000000E+00 -0.17337453135E+04  0.17337453135E+04  0.00000000000E+00 0.  1.
         25    1    1    2    0    0 -0.17881063792E+02 -0.93387809612E+02 -0.81811322243E+03  0.83305177519E+03  0.12500000000E+03 0.  0.
         25    1    1    2    0    0  0.85578384577E+02 -0.12937275925E+03 -0.29284227092E+03  0.35417872096E+03  0.12500000000E+03 0.  0.
         25    1    1    2    0    0 -0.67697320785E+02  0.22276056887E+03 -0.55479260721E+03  0.61451203023E+03  0.12500000000E+03 0.  0.
</event>
<event>
 5    0  0.5619558E-005  0.2222824E+03  0.7546771E-02  0.1132193E+00
         21   -1    0    0  502  501  0.00000000000E+00  0.00000000000E+00  0.28533986229E+02  0.28533986229E+02  0.00000000000E+00 0.  1.
         21   -1    0    0  501  502 -0.00000000000E+00 -0.00000000000E+00 -0.17315999388E+04  0.17315999388E+04  0.00000000000E+00 0.  1.
         25    1    1    2    0    0  0.70391629146E+02  0.35274935209E+02 -0.42250930343E+03  0.44759179393E+03  0.12500000000E+03 0.  0.
         25    1    1    2    0    0 -0.63079445683E+02  0.32417640164E+02 -0.71931140683E+03  0.73352833609E+03  0.12500000000E+03 0.  0.
         25    1    1    2    0    0 -0.73121834628E+01 -0.67692575373E+02 -0.56124524232E+03  0.57901379501E+03  0.12500000000E+03 0.  0.
</event>
<event>
 5    0  0.5619558E-005  0.3412262E+03  0.7546771E-02  0.1066275E+00
         21   -1    0    0  502  501  0.00000000000E+00  0.00000000000E+00  0.34589766489E+03  0.34589766489E+03  0.00000000000E+00 0.  1.
         21   -1    0    0  501  502 -0.00000000000E+00 -0.00000000000E+00 -0.33661783214E+03  0.33661783214E+03  0.00000000000E+00 0.  1.
         25    1    1    2    0    0  0.23173436001E+03  0.51693224040E+02 -0.13389448527E+03  0.29987620147E+03  0.12500000000E+03 0.  0.
         25    1    1    2    0    0 -0.15152478384E+03 -0.25953473558E+01  0.59612285303E+02  0.20529276778E+03  0.12500000000E+03 0.  0.
         25    1    1    2    0    0 -0.80209576171E+02 -0.49097876684E+02  0.83562032720E+02  0.17734652778E+03  0.12500000000E+03 0.  0.
</event>
<event>
 5    0  0.5619558E-005  0.4200300E+03  0.7546771E-02  0.1037057E+00
         21   -1    0    0  502  501  0.00000000000E+00  0.00000000000E+00  0.10440074124E+04  0.10440074124E+04  0.00000000000E+00 0. -1.
         21   -1    0    0  501  502 -0.00000000000E+00 -0.00000000000E+00 -0.16898848744E+03  0.16898848744E+03  0.00000000000E+00 0. -1.
         25    1    1    2    0    0  0.68064998132E+02  0.12927311625E+03  0.19032702528E+03  0.27054345142E+03  0.12500000000E+03 0.  0.
         25    1    1    2    0    0  0.19067768151E+03  0.12722311972E+03  0.24703091925E+03  0.35943424362E+03  0.12500000000E+03 0.  0.
         25    1    1    2    0    0 -0.25874267965E+03 -0.25649623597E+03  0.43766098040E+03  0.58301820478E+03  0.12500000000E+03 0.  0.
</event>
<event>
 5    0  0.5619558E-005  0.2110663E+03  0.7546771E-02  0.1140724E+00
         21   -1    0    0  502  501  0.00000000000E+00  0.00000000000E+00  0.55927703795E+03  0.55927703795E+03  0.00000000000E+00 0.  1.
         21   -1    0    0  501  502 -0.00000000000E+00 -0.00000000000E+00 -0.79654585796E+02  0.79654585796E+02  0.00000000000E+00 0.  1.
         25    1    1    2    0    0  0.61132930468E+02  0.26251123271E+02  0.18678237465E+03  0.23439072537E+03  0.12500000000E+03 0.  0.
         25    1    1    2    0    0 -0.76277953361E+02  0.12669710973E+02  0.16416002977E+03  0.22034600772E+03  0.12500000000E+03 0.  0.
         25    1    1    2    0    0  0.15145022894E+02 -0.38920834245E+02  0.12868004773E+03  0.18419489065E+03  0.12500000000E+03 0.  0.
</event>
<event>
 5    0  0.5619558E-005  0.3262098E+03  0.7546771E-02  0.1072826E+00
         21   -1    0    0  502  501  0.00000000000E+00  0.00000000000E+00  0.15126016831E+03  0.15126016831E+03  0.00000000000E+00 0. -1.
         21   -1    0    0  501  502 -0.00000000000E+00 -0.00000000000E+00 -0.70350854552E+03  0.70350854552E+03  0.00000000000E+00 0. -1.
         25    1    1    2    0    0  0.25531340555E+03 -0.16857573178E+02 -0.21374178245E+03  0.35606131830E+03  0.12500000000E+03 0.  0.
         25    1    1    2    0    0 -0.12160649792E+03 -0.17686956526E+02 -0.20392264204E+03  0.26890595513E+03  0.12500000000E+03 0.  0.
         25    1    1    2    0    0 -0.13370690763E+03  0.34544529704E+02 -0.13458395272E+03  0.22980144040E+03  0.12500000000E+03 0.  0.
</event>
<event>
 5    0  0.5619558E-005  0.3239031E+03  0.7546771E-02  0.1073867E+00
         21   -1    0    0  502  501  0.00000000000E+00  0.00000000000E+00  0.55031938106E+03  0.55031938106E+03  0.00000000000E+00 0. -1.
         21   -1    0    0  501  502 -0.00000000000E+00 -0.00000000000E+00 -0.19064060187E+03  0.19064060187E+03  0.00000000000E+00 0. -1.
         25    1    1    2    0    0  0.15950357854E+02  0.20922964745E+03  0.11045530191E+03  0.26806124861E+03  0.12500000000E+03 0.  0.
         25    1    1    2    0    0 -0.11000545200E+03 -0.55077028548E+02  0.67803481326E+02  0.18803454636E+03  0.12500000000E+03 0.  0.
         25    1    1    2    0    0  0.94055094147E+02 -0.15415261890E+03  0.18141999595E+03  0.28486418796E+03  0.12500000000E+03 0.  0.
</event>
<event>
 5    0  0.5619558E-005  0.2640866E+03  0.7546771E-02  0.1104713E+00
         21   -1    0    0  502  501  0.00000000000E+00  0.00000000000E+00  0.41747858957E+03  0.41747858957E+03  0.00000000000E+00 0. -1.
         21   -1    0    0  501  502 -0.00000000000E+00 -0.00000000000E+00 -0.16705459642E+03  0.16705459642E+03  0.00000000000E+00 0. -1.
         25    1    1    2    0    0 -0.45710800416E+02 -0.11294958002E+03  0.20073645746E+03  0.26602107108E+03  0.12500000000E+03 0.  0.
         25    1    1    2    0    0 -0.15921434472E+02  0.10296269876E+03  0.70322082709E+02  0.17727099235E+03  0.12500000000E+03 0.  0.
         25    1    1    2    0    0  0.61632234888E+02  0.99868812627E+01 -0.20634547022E+02  0.14124112257E+03  0.12500000000E+03 0.  0.
</event>
<event>
 5    0  0.5857524E-005  0.2910852E+03  0.7546771E-02  0.1089784E+00
         21   -1    0    0  502  501  0.00000000000E+00  0.00000000000E+00  0.37477444719E+03  0.37477444719E+03  0.00000000000E+00 0. -1.
         21   -1    0    0  501  502 -0.00000000000E+00 -0.00000000000E+00 -0.22608416260E+03  0.22608416260E+03  0.00000000000E+00 0. -1.
         25    1    1    2    0    0 -0.41410077720E+02  0.10423998035E+03 -0.66115669238E+02  0.18049113485E+03  0.12500000000E+03 0.  0.
         25    1    1    2    0    0 -0.16509783812E+02 -0.16757254447E+03  0.12365480853E+03  0.24345151939E+03  0.12500000000E+03 0.  0.
         25    1    1    2    0    0  0.57919861531E+02  0.63332564118E+02  0.91151145308E+02  0.17691595555E+03  0.12500000000E+03 0.  0.
</event>
<event>
 5    0  0.5619558E-005  0.3142506E+03  0.7546771E-02  0.1078326E+00
         21   -1    0    0  502  501  0.00000000000E+00  0.00000000000E+00  0.13391031301E+04  0.13391031301E+04  0.00000000000E+00 0. -1.
         21   -1    0    0  501  502 -0.00000000000E+00 -0.00000000000E+00 -0.73745968128E+02  0.73745968128E+02  0.00000000000E+00 0. -1.
         25    1    1    2    0    0 -0.35978181933E+02 -0.18057203985E+03  0.21773935510E+03  0.31134565664E+03  0.12500000000E+03 0.  0.
         25    1    1    2    0    0  0.77581143936E+02  0.11999308575E+03  0.49437868629E+03  0.52957762413E+03  0.12500000000E+03 0.  0.
         25    1    1    2    0    0 -0.41602962003E+02  0.60578954099E+02  0.55323912055E+03  0.57192581743E+03  0.12500000000E+03 0.  0.
</event>
<event>
 5    0  0.5619558E-005  0.3665215E+03  0.7546771E-02  0.1056031E+00
         21   -1    0    0  502  501  0.00000000000E+00  0.00000000000E+00  0.11529096050E+03  0.11529096050E+03  0.00000000000E+00 0. -1.
         21   -1    0    0  501  502 -0.00000000000E+00 -0.00000000000E+00 -0.11652087440E+04  0.11652087440E+04  0.00000000000E+00 0. -1.
         25    1    1    2    0    0  0.18870314962E+03  0.10440155404E+03 -0.73186341770E+03  0.77314786770E+03  0.12500000000E+03 0.  0.
         25    1    1    2    0    0  0.14920851714E+02 -0.79412888932E+02 -0.79276674753E+02  0.16863816266E+03  0.12500000000E+03 0.  0.
         25    1    1    2    0    0 -0.20362400133E+03 -0.24988665106E+02 -0.23877769100E+03  0.33871367410E+03  0.12500000000E+03 0.  0.
</event>
<event>
 5    0  0.5619558E-005  0.3381550E+03  0.7546771E-02  0.1067584E+00
         21   -1    0    0  502  501  0.00000000000E+00  0.00000000000E+00  0.14709555907E+03  0.14709555907E+03  0.00000000000E+00 0.  1.
         21   -1    0    0  501  502 -0.00000000000E+00 -0.00000000000E+00 -0.77737754038E+03  0.77737754038E+03  0.00000000000E+00 0.  1.
         25    1    1    2    0    0 -0.36407875990E+02 -0.22769896210E+03 -0.20413455397E+03  0.33236766825E+03  0.12500000000E+03 0.  0.
         25    1    1    2    0    0  0.13000783844E+03  0.13521781531E+03 -0.19375013658E+03  0.29723729755E+03  0.12500000000E+03 0.  0.
         25    1    1    2    0    0 -0.93599962446E+02  0.92481146791E+02 -0.23239729077E+03  0.29486813364E+03  0.12500000000E+03 0.  0.
</event>
<event>
 5    0  0.5619558E-005  0.3330614E+03  0.7546771E-02  0.1069790E+00
         21   -1    0    0  502  501  0.00000000000E+00  0.00000000000E+00  0.66687329057E+03  0.66687329057E+03  0.00000000000E+00 0.  1.
         21   -1    0    0  501  502 -0.00000000000E+00 -0.00000000000E+00 -0.16634332391E+03  0.16634332391E+03  0.00000000000E+00 0.  1.
         25    1    1    2    0    0 -0.36213912862E+02 -0.18431933702E+02  0.98392506817E+02  0.16418668966E+03  0.12500000000E+03 0.  0.
         25    1    1    2    0    0  0.18452138446E+02  0.21762698460E+03  0.69132570012E+02  0.26097183388E+03  0.12500000000E+03 0.  0.
         25    1    1    2    0    0  0.17761774416E+02 -0.19919505090E+03  0.33300488982E+03  0.40805809094E+03  0.12500000000E+03 0.  0.
</event>
<event>
 5    0  0.5619558E-005  0.3623277E+03  0.7546771E-02  0.1057666E+00
         21   -1    0    0  502  501  0.00000000000E+00  0.00000000000E+00  0.56734964966E+02  0.56734964966E+02  0.00000000000E+00 0.  1.
         21   -1    0    0  501  502 -0.00000000000E+00 -0.00000000000E+00 -0.23139413529E+04  0.23139413529E+04  0.00000000000E+00 0.  1.
         25    1    1    2    0    0 -0.93060759083E+02  0.16941749504E+03 -0.90397789095E+03  0.93282561063E+03  0.12500000000E+03 0.  0.
         25    1    1    2    0    0  0.29728826613E+02  0.49984648155E+02 -0.93576118585E+03  0.94586270945E+03  0.12500000000E+03 0.  0.
         25    1    1    2    0    0  0.63331932470E+02 -0.21940214320E+03 -0.41746731116E+03  0.49198799782E+03  0.12500000000E+03 0.  0.
</event>
<event>
 5    0  0.5619558E-005  0.2985796E+03  0.7546771E-02  0.1085953E+00
         21   -1    0    0  502  501  0.00000000000E+00  0.00000000000E+00  0.21634114425E+03  0.21634114425E+03  0.00000000000E+00 0. -1.
         21   -1    0    0  501  502 -0.00000000000E+00 -0.00000000000E+00 -0.41207950946E+03  0.41207950946E+03  0.00000000000E+00 0. -1.
         25    1    1    2    0    0 -0.90016188464E+02  0.98943045370E+02 -0.58537738656E+02  0.19220901971E+03  0.12500000000E+03 0.  0.
         25    1    1    2    0    0  0.16350697743E+03  0.40637832145E+02 -0.96278883884E+02  0.23082588363E+03  0.12500000000E+03 0.  0.
         25    1    1    2    0    0 -0.73490788966E+02 -0.13958087751E+03 -0.40921742671E+02  0.20538575037E+03  0.12500000000E+03 0.  0.
</event>
<event>
 5    0  0.5619558E-005  0.5075087E+03  0.7546771E-02  0.1011837E+00
         21   -1    0    0  502  501  0.00000000000E+00  0.00000000000E+00  0.23049898532E+03  0.23049898532E+03  0.00000000000E+00 0.  1.
         21   -1    0    0  501  502 -0.00000000000E+00 -0.00000000000E+00 -0.11174237442E+04  0.11174237442E+04  0.00000000000E+00 0.  1.
         25    1    1    2    0    0 -0.11444024605E+03 -0.81882417575E+02  0.52507359064E+02  0.19540553467E+03  0.12500000000E+03 0.  0.
         25    1    1    2    0    0 -0.16093208249E+03 -0.13573685824E+03 -0.17136828280E+03  0.29885735428E+03  0.12500000000E+03 0.  0.
         25    1    1    2    0    0  0.27537232854E+03  0.21761927582E+03 -0.76806383517E+03  0.85365984058E+03  0.12500000000E+03 0.  0.
</event>
<event>
 5    0  0.5619558E-005  0.2310309E+03  0.7546771E-02  0.1125916E+00
         21   -1    0    0  502  501  0.00000000000E+00  0.00000000000E+00  0.60962242661E+03  0.60962242661E+03  0.00000000000E+00 0.  1.
         21   -1    0    0  501  502 -0.00000000000E+00 -0.00000000000E+00 -0.87554671011E+02  0.87554671011E+02  0.00000000000E+00 0.  1.
         25    1    1    2    0    0 -0.69285148708E+02  0.10044284981E+03  0.19020824104E+03  0.25825060091E+03  0.12500000000E+03 0.  0.
         25    1    1    2    0    0  0.45970421456E+02 -0.84771827204E+02  0.20362476662E+03  0.25765788930E+03  0.12500000000E+03 0.  0.
         25    1    1    2    0    0  0.23314727252E+02 -0.15671022603E+02  0.12823474794E+03  0.18126860742E+03  0.12500000000E+03 0.  0.
</event>
<event>
 5    0  0.5619558E-005  0.2079606E+03  0.7546771E-02  0.1143191E+00
         21   -1    0    0  502  501  0.00000000000E+00  0.00000000000E+00  0.77410391745E+02  0.77410391745E+02  0.00000000000E+00 0.  1.
         21   -1    0    0  501  502 -0.00000000000E+00 -0.00000000000E+00 -0.55867975458E+03  0.55867975458E+03  0.00000000000E+00 0.  1.
         25    1    1    2    0    0  0.57287532896E+02  0.25996027147E+02 -0.11647646198E+03  0.18206982465E+03  0.12500000000E+03 0.  0.
         25    1    1    2    0    0 -0.27051444018E+02 -0.23337849053E+02 -0.11732983350E+03  0.17512203074E+03  0.12500000000E+03 0.  0.
         25    1    1    2    0    0 -0.30236088878E+02 -0.26581780946E+01 -0.24746306735E+03  0.27889829093E+03  0.12500000000E+03 0.  0.
</event>
<event>
 5    0  0.5619558E-005  0.3669736E+03  0.7546771E-02  0.1055856E+00
         21   -1    0    0  502  501  0.00000000000E+00  0.00000000000E+00  0.30940796526E+03  0.30940796526E+03  0.00000000000E+00 0. -1.
         21   -1    0    0  501  502 -0.00000000000E+00 -0.00000000000E+00 -0.43524929216E+03  0.43524929216E+03  0.00000000000E+00 0. -1.
         25    1    1    2    0    0 -0.10800804917E+03  0.33102261983E+02 -0.71258191623E+02  0.18293230526E+03  0.12500000000E+03 0.  0.
         25    1    1    2    0    0 -0.18764557758E+03  0.16173799636E+01 -0.76549377177E+02  0.23811401859E+03  0.12500000000E+03 0.  0.
         25    1    1    2    0    0  0.29565362675E+03 -0.34719641947E+02  0.21966241899E+02  0.32361093358E+03  0.12500000000E+03 0.  0.
</event>
<event>
 5    0  0.5619558E-005  0.3254504E+03  0.7546771E-02  0.1073168E+00
         21   -1    0    0  502  501  0.00000000000E+00  0.00000000000E+00  0.83723017210E+02  0.83723017210E+02  0.00000000000E+00 0. -1.
         21   -1    0    0  501  502 -0.00000000000E+00 -0.00000000000E+00 -0.12650996051E+04  0.12650996051E+04  0.00000000000E+00 0. -1.
         25    1    1    2    0    0  0.13161983439E+03 -0.10247407462E+02 -0.30524574307E+03  0.35528686132E+03  0.12500000000E+03 0.  0.
         25    1    1    2    0    0 -0.15353377748E+03 -0.14306007689E+03 -0.63817690757E+03  0.68332537769E+03  0.12500000000E+03 0.  0.
         25    1    1    2    0    0  0.21913943098E+02  0.15330748435E+03 -0.23795393725E+03  0.31021038331E+03  0.12500000000E+03 0.  0.
</event>
<event>
 5    0  0.5619558E-005  0.4897807E+03  0.7546771E-02  0.1016481E+00
         21   -1    0    0  502  501  0.00000000000E+00  0.00000000000E+00  0.13486309591E+03  0.13486309591E+03  0.00000000000E+00 0.  1.
         21   -1    0    0  501  502 -0.00000000000E+00 -0.00000000000E+00 -0.17787305050E+04  0.17787305050E+04  0.00000000000E+00 0.  1.
         25    1    1    2    0    0  0.11846620638E+03  0.99873425129E+02 -0.68876147311E+03  0.71695628175E+03  0.12500000000E+03 0.  0.
         25    1    1    2    0    0  0.64821019652E+01  0.92557812806E+02 -0.91992078805E+03  0.93299958341E+03  0.12500000000E+03 0.  0.
         25    1    1    2    0    0 -0.12494830835E+03 -0.19243123793E+03 -0.35185147967E+02  0.26363773578E+03  0.12500000000E+03 0.  0.
</event>
<event>
 5    0  0.5619558E-005  0.3598536E+03  0.7546771E-02  0.1058642E+00
         21   -1    0    0  502  501  0.00000000000E+00  0.00000000000E+00  0.16713003414E+03  0.16713003414E+03  0.00000000000E+00 0.  1.
         21   -1    0    0  501  502 -0.00000000000E+00 -0.00000000000E+00 -0.77481362257E+03  0.77481362257E+03  0.00000000000E+00 0.  1.
         25    1    1    2    0    0 -0.51380284317E+02  0.13362447200E+03 -0.10263805691E+03  0.21599769411E+03  0.12500000000E+03 0.  0.
         25    1    1    2    0    0 -0.37988497898E+02  0.21413511519E+02 -0.48952340196E+03  0.50710928361E+03  0.12500000000E+03 0.  0.
         25    1    1    2    0    0  0.89368782215E+02 -0.15503798352E+03 -0.15522129558E+02  0.21883667899E+03  0.12500000000E+03 0.  0.
</event>
<event>
 5    0  0.5619558E-005  0.3431016E+03  0.7546771E-02  0.1065483E+00
         21   -1    0    0  502  501  0.00000000000E+00  0.00000000000E+00  0.10358481284E+04  0.10358481284E+04  0.00000000000E+00 0.  1.
         21   -1    0    0  501  502 -0.00000000000E+00 -0.00000000000E+00 -0.11364473886E+03  0.11364473886E+03  0.00000000000E+00 0.  1.
         25    1    1    2    0    0 -0.12619016661E+02 -0.12557681956E+03  0.20575342042E+03  0.27182392685E+03  0.12500000000E+03 0.  0.
         25    1    1    2    0    0  0.47420087156E+02 -0.96900523759E+02  0.54201341833E+03  0.56660561400E+03  0.12500000000E+03 0.  0.
         25    1    1    2    0    0 -0.34801070495E+02  0.22247734332E+03  0.17443655083E+03  0.31106332645E+03  0.12500000000E+03 0.  0.
</event>
<event>
 5    0  0.5619558E-005  0.3102671E+03  0.7546771E-02  0.1080218E+00
         21   -1    0    0  502  501  0.00000000000E+00  0.00000000000E+00  0.61430310184E+03  0.61430310184E+03  0.00000000000E+00 0. -1.
         21   -1    0    0  501  502 -0.00000000000E+00 -0.00000000000E+00 -0.15670711085E+03  0.15670711085E+03  0.00000000000E+00 0. -1.
         25    1    1    2    0    0  0.90208914488E+02  0.42289328101E+02  0.36145025219E+03  0.39521806681E+03  0.12500000000E+03 0.  0.
         25    1    1    2    0    0 -0.13798397527E+03  0.58440600681E+02  0.62933833899E+02  0.20503792013E+03  0.12500000000E+03 0.  0.
         25    1    1    2    0    0  0.47775060787E+02 -0.10072992878E+03  0.33211904899E+02  0.17075422575E+03  0.12500000000E+03 0.  0.
</event>
<event>
 5    0  0.5619558E-005  0.2177169E+03  0.7546771E-02  0.1135597E+00
         21   -1    0    0  502  501  0.00000000000E+00  0.00000000000E+00  0.24556415615E+03  0.24556415615E+03  0.00000000000E+00 0. -1.
         21   -1    0    0  501  502 -0.00000000000E+00 -0.00000000000E+00 -0.19302753486E+03  0.19302753486E+03  0.00000000000E+00 0. -1.
         25    1    1    2    0    0  0.28064553076E+02  0.35912677959E+02  0.81861507454E+02  0.15621666358E+03  0.12500000000E+03 0.  0.
         25    1    1    2    0    0  0.19977642780E+01 -0.10291442965E+02  0.43062777211E+02  0.13262468715E+03  0.12500000000E+03 0.  0.
         25    1    1    2    0    0 -0.30062317354E+02 -0.25621234993E+02 -0.72387663374E+02  0.14975034029E+03  0.12500000000E+03 0.  0.
</event>
<event>
 5    0  0.5619558E-005  0.2897305E+03  0.7546771E-02  0.1090490E+00
         21   -1    0    0  502  501  0.00000000000E+00  0.00000000000E+00  0.49256111236E+03  0.49256111236E+03  0.00000000000E+00 0. -1.
         21   -1    0    0  501  502 -0.00000000000E+00 -0.00000000000E+00 -0.17042307615E+03  0.17042307615E+03  0.00000000000E+00 0. -1.
         25    1    1    2    0    0  0.11176863461E+03  0.18298199280E+02  0.50863043820E+02  0.17617917302E+03  0.12500000000E+03 0.  0.
         25    1    1    2    0    0  0.76853121238E+02 -0.52584831497E+02  0.38908254281E+02  0.16065621369E+03  0.12500000000E+03 0.  0.
         25    1    1    2    0    0 -0.18862175585E+03  0.34286632217E+02  0.23236673811E+03  0.32614880179E+03  0.12500000000E+03 0.  0.
</event>
<event>
 5    0  0.5619558E-005  0.4619816E+03  0.7546771E-02  0.1024208E+00
         21   -1    0    0  502  501  0.00000000000E+00  0.00000000000E+00  0.24204655453E+04  0.24204655453E+04  0.00000000000E+00 0.  1.
         21   -1    0    0  501  502 -0.00000000000E+00 -0.00000000000E+00 -0.88176005640E+02  0.88176005640E+02  0.00000000000E+00 0.  1.
         25    1    1    2    0    0 -0.56633031536E+02 -0.98833556587E+02  0.13483466442E+03  0.21628860094E+03  0.12500000000E+03 0.  0.
         25    1    1    2    0    0  0.20030743720E+03  0.94527828677E+02  0.33714284582E+03  0.42231372021E+03  0.12500000000E+03 0.  0.
         25    1    1    2    0    0 -0.14367440566E+03  0.43057279096E+01  0.18603120294E+04  0.18700392298E+04  0.12500000000E+03 0.  0.
</event>
<event>
 5    0  0.5619558E-005  0.2739658E+03  0.7546771E-02  0.1099031E+00
         21   -1    0    0  502  501  0.00000000000E+00  0.00000000000E+00  0.31545548526E+03  0.31545548526E+03  0.00000000000E+00 0. -1.
         21   -1    0    0  501  502 -0.00000000000E+00 -0.00000000000E+00 -0.23793299493E+03  0.23793299493E+03  0.00000000000E+00 0. -1.
         25    1    1    2    0    0 -0.10697539734E+03  0.29737061177E+01  0.19470747508E+02  0.16570059919E+03  0.12500000000E+03 0.  0.
         25    1    1    2    0    0  0.11026989165E+03  0.69174199788E+02  0.13379777598E+03  0.22465832675E+03  0.12500000000E+03 0.  0.
         25    1    1    2    0    0 -0.32944943133E+01 -0.72147905906E+02 -0.75746033151E+02  0.16302955425E+03  0.12500000000E+03 0.  0.
</event>
<event>
 5    0  0.5619558E-005  0.2762701E+03  0.7546771E-02  0.1097744E+00
         21   -1    0    0  502  501  0.00000000000E+00  0.00000000000E+00  0.77288828090E+03  0.77288828090E+03  0.00000000000E+00 0. -1.
         21   -1    0    0  501  502 -0.00000000000E+00 -0.00000000000E+00 -0.98753161577E+02  0.98753161577E+02  0.00000000000E+00 0. -1.
         25    1    1    2    0    0  0.11522417151E+02  0.79458713891E+02  0.15027649347E+03  0.21131606139E+03  0.12500000000E+03 0.  0.
         25    1    1    2    0    0 -0.26129329516E+02 -0.19356646611E+03  0.31315695600E+03  0.38967037063E+03  0.12500000000E+03 0.  0.
         25    1    1    2    0    0  0.14606912365E+02  0.11410775222E+03  0.21070166986E+03  0.27065501046E+03  0.12500000000E+03 0.  0.
</event>
<event>
 5    0  0.5619558E-005  0.3159761E+03  0.7546771E-02  0.1077516E+00
         21   -1    0    0  502  501  0.00000000000E+00  0.00000000000E+00  0.15421226078E+03  0.15421226078E+03  0.00000000000E+00 0.  1.
         21   -1    0    0  501  502 -0.00000000000E+00 -0.00000000000E+00 -0.64742522382E+03  0.64742522382E+03  0.00000000000E+00 0.  1.
         25    1    1    2    0    0 -0.87282927526E+02  0.47498544352E+02 -0.13372452073E+03  0.20828266514E+03  0.12500000000E+03 0.  0.
         25    1    1    2    0    0 -0.11397129755E+03  0.15379882035E+02 -0.14938681013E+02  0.17051147066E+03  0.12500000000E+03 0.  0.
         25    1    1    2    0    0  0.20125422508E+03 -0.62878426387E+02 -0.34454976129E+03  0.42284334880E+03  0.12500000000E+03 0.  0.
</event>
<event>
 5    0  0.5619558E-005  0.2533470E+03  0.7546771E-02  0.1111208E+00
         21   -1    0    0  502  501  0.00000000000E+00  0.00000000000E+00  0.21193170808E+03  0.21193170808E+03  0.00000000000E+00 0. -1.
         21   -1    0    0  501  502 -0.00000000000E+00 -0.00000000000E+00 -0.30285559887E+03  0.30285559887E+03  0.00000000000E+00 0. -1.
         25    1    1    2    0    0 -0.71389807972E+02 -0.70258846436E+02  0.40811416227E+02  0.16529785806E+03  0.12500000000E+03 0.  0.
         25    1    1    2    0    0  0.72804436038E+02  0.63515134057E+02  0.12526076891E+02  0.15848205187E+03  0.12500000000E+03 0.  0.
         25    1    1    2    0    0 -0.14146280668E+01  0.67437123790E+01 -0.14426138391E+03  0.19100739702E+03  0.12500000000E+03 0.  0.
</event>
<event>
 5    0  0.5619558E-005  0.2898045E+03  0.7546771E-02  0.1090451E+00
         21   -1    0    0  502  501  0.00000000000E+00  0.00000000000E+00  0.45947621038E+03  0.45947621038E+03  0.00000000000E+00 0.  1.
         21   -1    0    0  501  502 -0.00000000000E+00 -0.00000000000E+00 -0.18278777463E+03  0.18278777463E+03  0.00000000000E+00 0.  1.
         25    1    1    2    0    0  0.87410288511E+02  0.61967349133E+01  0.12801027432E+03  0.19922496930E+03  0.12500000000E+03 0.  0.
         25    1    1    2    0    0  0.66466673394E+02 -0.66555430581E+02 -0.41413230566E+02  0.16182552233E+03  0.12500000000E+03 0.  0.
         25    1    1    2    0    0 -0.15387696191E+03  0.60358695668E+02  0.19009139199E+03  0.28121349338E+03  0.12500000000E+03 0.  0.
</event>
<event>
 5    0  0.5619558E-005  0.4204900E+03  0.7546771E-02  0.1036907E+00
         21   -1    0    0  502  501  0.00000000000E+00  0.00000000000E+00  0.40088480282E+03  0.40088480282E+03  0.00000000000E+00 0. -1.
         21   -1    0    0  501  502 -0.00000000000E+00 -0.00000000000E+00 -0.44105404031E+03  0.44105404031E+03  0.00000000000E+00 0. -1.
         25    1    1    2    0    0 -0.44474893101E+02 -0.20967301685E+02 -0.15115200808E+03  0.20221170442E+03  0.12500000000E+03 0.  0.
         25    1    1    2    0    0  0.57596216567E+02 -0.77503065863E+02 -0.22082547175E+03  0.27150126768E+03  0.12500000000E+03 0.  0.
         25    1    1    2    0    0 -0.13121323466E+02  0.98470367548E+02  0.33180824234E+03  0.36822587104E+03  0.12500000000E+03 0.  0.
</event>
<event>
 5    0  0.5619558E-005  0.4039839E+03  0.7546771E-02  0.1042409E+00
         21   -1    0    0  502  501  0.00000000000E+00  0.00000000000E+00  0.62228050854E+03  0.62228050854E+03  0.00000000000E+00 0.  1.
         21   -1    0    0  501  502 -0.00000000000E+00 -0.00000000000E+00 -0.26226597364E+03  0.26226597364E+03  0.00000000000E+00 0.  1.
         25    1    1    2    0    0  0.35983421214E+02  0.32328625657E+02 -0.11665921940E+03  0.17769164333E+03  0.12500000000E+03 0.  0.
         25    1    1    2    0    0  0.13647465781E+03 -0.16423486849E+03  0.13109458957E+03  0.28001645607E+03  0.12500000000E+03 0.  0.
         25    1    1    2    0    0 -0.17245807902E+03  0.13190624283E+03  0.34557916473E+03  0.42683838278E+03  0.12500000000E+03 0.  0.
</event>
<event>
 5    0  0.5619558E-005  0.3485870E+03  0.7546771E-02  0.1063196E+00
         21   -1    0    0  502  501  0.00000000000E+00  0.00000000000E+00  0.96063747713E+03  0.96063747713E+03  0.00000000000E+00 0.  1.
         21   -1    0    0  501  502 -0.00000000000E+00 -0.00000000000E+00 -0.12649195855E+03  0.12649195855E+03  0.00000000000E+00 0.  1.
         25    1    1    2    0    0  0.10584999881E+03 -0.70511128009E+02  0.60445743309E+02  0.18829426254E+03  0.12500000000E+03 0.  0.
         25    1    1    2    0    0  0.29001582229E+02 -0.35309275244E+02  0.62683892580E+03  0.64081188783E+03  0.12500000000E+03 0.  0.
         25    1    1    2    0    0 -0.13485158104E+03  0.10582040325E+03  0.14686084948E+03  0.25802328531E+03  0.12500000000E+03 0.  0.
</event>
<event>
 5    0  0.5619558E-005  0.2585938E+03  0.7546771E-02  0.1107991E+00
         21   -1    0    0  502  501  0.00000000000E+00  0.00000000000E+00  0.35972526861E+02  0.35972526861E+02  0.00000000000E+00 0. -1.
         21   -1    0    0  501  502 -0.00000000000E+00 -0.00000000000E+00 -0.18589400188E+04  0.18589400188E+04  0.00000000000E+00 0. -1.
         25    1    1    2    0    0 -0.84291958004E+02  0.53445855540E+02 -0.25098964528E+03  0.29762794845E+03  0.12500000000E+03 0.  0.
         25    1    1    2    0    0  0.87877480357E+02 -0.30443422118E+02 -0.83197658208E+03  0.84643918071E+03  0.12500000000E+03 0.  0.
         25    1    1    2    0    0 -0.35855223523E+01 -0.23002433422E+02 -0.74000126455E+03  0.75084541648E+03  0.12500000000E+03 0.  0.
</event>
<event>
 5    0  0.5619558E-005  0.4077059E+03  0.7546771E-02  0.1041144E+00
         21   -1    0    0  502  501  0.00000000000E+00  0.00000000000E+00  0.77541183020E+03  0.77541183020E+03  0.00000000000E+00 0.  1.
         21   -1    0    0  501  502 -0.00000000000E+00 -0.00000000000E+00 -0.21436881999E+03  0.21436881999E+03  0.00000000000E+00 0.  1.
         25    1    1    2    0    0 -0.26657194223E+02 -0.17454915794E+02  0.41521755277E+02  0.13551507758E+03  0.12500000000E+03 0.  0.
         25    1    1    2    0    0  0.24113406172E+03 -0.13626432456E+03  0.59867522925E+02  0.30971393603E+03  0.12500000000E+03 0.  0.
         25    1    1    2    0    0 -0.21447686750E+03  0.15371924035E+03  0.45965373201E+03  0.54455163658E+03  0.12500000000E+03 0.  0.
</event>
<event>
 5    0  0.5619558E-005  0.2381772E+03  0.7546771E-02  0.1121013E+00
         21   -1    0    0  502  501  0.00000000000E+00  0.00000000000E+00  0.11521678115E+04  0.11521678115E+04  0.00000000000E+00 0.  1.
         21   -1    0    0  501  502 -0.00000000000E+00 -0.00000000000E+00 -0.49236223909E+02  0.49236223909E+02  0.00000000000E+00 0.  1.
         25    1    1    2    0    0  0.33531568590E+02 -0.22111184430E+02  0.50121632257E+03  0.51812746750E+03  0.12500000000E+03 0.  0.
         25    1    1    2    0    0 -0.57435849733E+02  0.36063605051E+02  0.49979556089E+03  0.51963454767E+03  0.12500000000E+03 0.  0.
         25    1    1    2    0    0  0.23904281143E+02 -0.13952420621E+02  0.10191970413E+03  0.16364202024E+03  0.12500000000E+03 0.  0.
</event>
<event>
 5    0  0.5619558E-005  0.3528140E+03  0.7546771E-02  0.1061466E+00
         21   -1    0    0  502  501  0.00000000000E+00  0.00000000000E+00  0.22837806981E+03  0.22837806981E+03  0.00000000000E+00 0.  1.
         21   -1    0    0  501  502 -0.00000000000E+00 -0.00000000000E+00 -0.54505124010E+03  0.54505124010E+03  0.00000000000E+00 0.  1.
         25    1    1    2    0    0  0.14233053415E+03  0.17835085616E+03 -0.43874161514E+02  0.26385024331E+03  0.12500000000E+03 0.  0.
         25    1    1    2    0    0 -0.14630636484E+03 -0.49394551771E+02 -0.20311161556E+02  0.19970707904E+03  0.12500000000E+03 0.  0.
         25    1    1    2    0    0  0.39758306832E+01 -0.12895630439E+03 -0.25248784722E+03  0.30987198755E+03  0.12500000000E+03 0.  0.
</event>
<event>
 5    0  0.5619558E-005  0.2927136E+03  0.7546771E-02  0.1088941E+00
         21   -1    0    0  502  501  0.00000000000E+00  0.00000000000E+00  0.79517854336E+03  0.79517854336E+03  0.00000000000E+00 0.  1.
         21   -1    0    0  501  502 -0.00000000000E+00 -0.00000000000E+00 -0.10775093278E+03  0.10775093278E+03  0.00000000000E+00 0.  1.
         25    1    1    2    0    0 -0.95805913248E+02  0.82903454630E+01  0.44609447633E+03  0.47315196782E+03  0.12500000000E+03 0.  0.
         25    1    1    2    0    0  0.15796990255E+03  0.26027700263E+02  0.18700538076E+03  0.27609408492E+03  0.12500000000E+03 0.  0.
         25    1    1    2    0    0 -0.62163989303E+02 -0.34318045726E+02  0.54327753494E+02  0.15368342340E+03  0.12500000000E+03 0.  0.
</event>
<event>
 5    0  0.5619558E-005  0.2700838E+03  0.7546771E-02  0.1101232E+00
         21   -1    0    0  502  501  0.00000000000E+00  0.00000000000E+00  0.13010641275E+03  0.13010641275E+03  0.00000000000E+00 0.  1.
         21   -1    0    0  501  502 -0.00000000000E+00 -0.00000000000E+00 -0.56065829617E+03  0.56065829617E+03  0.00000000000E+00 0.  1.
         25    1    1    2    0    0 -0.10115402774E+03 -0.80804616006E+02 -0.12843518143E+03  0.22109301012E+03  0.12500000000E+03 0.  0.
         25    1    1    2    0    0 -0.24221140471E+02 -0.36352268573E+02 -0.18411390690E+03  0.22678421857E+03  0.12500000000E+03 0.  0.
         25    1    1    2    0    0  0.12537516821E+03  0.11715688458E+03 -0.11800279509E+03  0.24288748024E+03  0.12500000000E+03 0.  0.
</event>
<event>
 5    0  0.5619558E-005  0.2428680E+03  0.7546771E-02  0.1117897E+00
         21   -1    0    0  502  501  0.00000000000E+00  0.00000000000E+00  0.52975490511E+02  0.52975490511E+02  0.00000000000E+00 0. -1.
         21   -1    0    0  501  502 -0.00000000000E+00 -0.00000000000E+00 -0.11134372378E+04  0.11134372378E+04  0.00000000000E+00 0. -1.
         25    1    1    2    0    0 -0.69745395865E+02 -0.73566496389E+02 -0.25306038103E+03  0.29990166068E+03  0.12500000000E+03 0.  0.
         25    1    1    2    0    0 -0.40113458495E+02  0.55777297694E+02 -0.29919160627E+03  0.33145258145E+03  0.12500000000E+03 0.  0.
         25    1    1    2    0    0  0.10985885436E+03  0.17789198694E+02 -0.50820975996E+03  0.53505848614E+03  0.12500000000E+03 0.  0.
</event>
<event>
 5    0  0.5619558E-005  0.3122413E+03  0.7546771E-02  0.1079277E+00
         21   -1    0    0  502  501  0.00000000000E+00  0.00000000000E+00  0.24315221949E+03  0.24315221949E+03  0.00000000000E+00 0.  1.
         21   -1    0    0  501  502 -0.00000000000E+00 -0.00000000000E+00 -0.40096117151E+03  0.40096117151E+03  0.00000000000E+00 0.  1.
         25    1    1    2    0    0 -0.14277379453E+03 -0.17183576998E+02 -0.23513717893E+03  0.30264521248E+03  0.12500000000E+03 0.  0.
         25    1    1    2    0    0  0.15506582924E+03  0.61669798482E+01  0.12419751342E+02  0.19965643807E+03  0.12500000000E+03 0.  0.
         25    1    1    2    0    0 -0.12292034719E+02  0.11016597150E+02  0.64908475570E+02  0.14181174046E+03  0.12500000000E+03 0.  0.
</event>
<event>
 5    0  0.5619558E-005  0.2872883E+03  0.7546771E-02  0.1091774E+00
         21   -1    0    0  502  501  0.00000000000E+00  0.00000000000E+00  0.35198988084E+03  0.35198988084E+03  0.00000000000E+00 0. -1.
         21   -1    0    0  501  502 -0.00000000000E+00 -0.00000000000E+00 -0.23447986586E+03  0.23447986586E+03  0.00000000000E+00 0. -1.
         25    1    1    2    0    0  0.52074272192E+02  0.47675014844E+02  0.16251813751E+03  0.21684506424E+03  0.12500000000E+03 0.  0.
         25    1    1    2    0    0 -0.13830501337E+02  0.60294631619E+02  0.78334000598E+02  0.15996231125E+03  0.12500000000E+03 0.  0.
         25    1    1    2    0    0 -0.38243770855E+02 -0.10796964646E+03 -0.12334212313E+03  0.20966237122E+03  0.12500000000E+03 0.  0.
</event>
<event>
 5    0  0.5619558E-005  0.3396143E+03  0.7546771E-02  0.1066960E+00
         21   -1    0    0  502  501  0.00000000000E+00  0.00000000000E+00  0.16491675037E+03  0.16491675037E+03  0.00000000000E+00 0.  1.
         21   -1    0    0  501  502 -0.00000000000E+00 -0.00000000000E+00 -0.69937045956E+03  0.69937045956E+03  0.00000000000E+00 0.  1.
         25    1    1    2    0    0  0.52496790744E+02 -0.37091698860E+02  0.32773921594E+01  0.14059675836E+03  0.12500000000E+03 0.  0.
         25    1    1    2    0    0  0.38596621616E+02  0.11636113142E+03 -0.52035794916E+03  0.54902368561E+03  0.12500000000E+03 0.  0.
         25    1    1    2    0    0 -0.91093412360E+02 -0.79269432560E+02 -0.17373152186E+02  0.17466676596E+03  0.12500000000E+03 0.  0.
</event>
<event>
 5    0  0.5619558E-005  0.4112962E+03  0.7546771E-02  0.1039937E+00
         21   -1    0    0  502  501  0.00000000000E+00  0.00000000000E+00  0.23456066494E+03  0.23456066494E+03  0.00000000000E+00 0.  1.
         21   -1    0    0  501  502 -0.00000000000E+00 -0.00000000000E+00 -0.72119750758E+03  0.72119750758E+03  0.00000000000E+00 0.  1.
         25    1    1    2    0    0 -0.12345404123E+03 -0.31210642659E+03 -0.15185406649E+03  0.38901925315E+03  0.12500000000E+03 0.  0.
         25    1    1    2    0    0 -0.76139879889E+01  0.20149622746E+03 -0.12427446420E+03  0.26782054616E+03  0.12500000000E+03 0.  0.
         25    1    1    2    0    0  0.13106802922E+03  0.11061019913E+03 -0.21050831196E+03  0.29891837320E+03  0.12500000000E+03 0.  0.
</event>
<event>
 5    0  0.5619558E-005  0.2872367E+03  0.7546771E-02  0.1091801E+00
         21   -1    0    0  502  501  0.00000000000E+00  0.00000000000E+00  0.27729516177E+03  0.27729516177E+03  0.00000000000E+00 0.  1.
         21   -1    0    0  501  502 -0.00000000000E+00 -0.00000000000E+00 -0.29753473257E+03  0.29753473257E+03  0.00000000000E+00 0.  1.
         25    1    1    2    0    0 -0.62298291736E+02  0.34905387179E+02 -0.27623089451E+02  0.14658614627E+03  0.12500000000E+03 0.  0.
         25    1    1    2    0    0 -0.13263034595E+03  0.25234734624E+00 -0.46109163983E+02  0.18799448755E+03  0.12500000000E+03 0.  0.
         25    1    1    2    0    0  0.19492863768E+03 -0.35157734526E+02  0.53492682629E+02  0.24024926052E+03  0.12500000000E+03 0.  0.
</event>
<event>
 5    0  0.5619558E-005  0.4694290E+03  0.7546771E-02  0.1022082E+00
         21   -1    0    0  502  501  0.00000000000E+00  0.00000000000E+00  0.20279854897E+04  0.20279854897E+04  0.00000000000E+00 0. -1.
         21   -1    0    0  501  502 -0.00000000000E+00 -0.00000000000E+00 -0.10866130273E+03  0.10866130273E+03  0.00000000000E+00 0. -1.
         25    1    1    2    0    0 -0.21536189749E+02  0.11864933625E+03  0.64460750832E+03  0.66759666884E+03  0.12500000000E+03 0.  0.
         25    1    1    2    0    0  0.19125838699E+03 -0.34409408192E+03  0.61663578890E+03  0.74218946635E+03  0.12500000000E+03 0.  0.
         25    1    1    2    0    0 -0.16972219725E+03  0.22544474567E+03  0.65808088978E+03  0.72686065727E+03  0.12500000000E+03 0.  0.
</event>
<event>
 5    0  0.5619558E-005  0.3900225E+03  0.7546771E-02  0.1047290E+00
         21   -1    0    0  502  501  0.00000000000E+00  0.00000000000E+00  0.36470885765E+03  0.36470885765E+03  0.00000000000E+00 0.  1.
         21   -1    0    0  501  502 -0.00000000000E+00 -0.00000000000E+00 -0.41709309971E+03  0.41709309971E+03  0.00000000000E+00 0.  1.
         25    1    1    2    0    0  0.17328030649E+02 -0.14165543109E+03 -0.19583304787E+03  0.27265748558E+03  0.12500000000E+03 0.  0.
         25    1    1    2    0    0  0.50972356297E+02 -0.18341549881E+02 -0.11157230388E+03  0.17609080769E+03  0.12500000000E+03 0.  0.
         25    1    1    2    0    0 -0.68300386947E+02  0.15999698097E+03  0.25502110969E+03  0.33305366409E+03  0.12500000000E+03 0.  0.
</event>
<event>
 5    0  0.5619558E-005  0.4004608E+03  0.7546771E-02  0.1043620E+00
         21   -1    0    0  502  501  0.00000000000E+00  0.00000000000E+00  0.15513165778E+03  0.15513165778E+03  0.00000000000E+00 0. -1.
         21   -1    0    0  501  502 -0.00000000000E+00 -0.00000000000E+00 -0.10337594913E+04  0.10337594913E+04  0.00000000000E+00 0. -1.
         25    1    1    2    0    0 -0.72523884025E+02  0.13870222244E+03 -0.33673213756E+03  0.39180550370E+03  0.12500000000E+03 0.  0.
         25    1    1    2    0    0  0.26792851569E+03  0.87912352769E+01 -0.19413524392E+03  0.35380286640E+03  0.12500000000E+03 0.  0.
         25    1    1    2    0    0 -0.19540463167E+03 -0.14749345772E+03 -0.34776045204E+03  0.44328277899E+03  0.12500000000E+03 0.  0.
</event>
<event>
 5    0  0.5619558E-005  0.3064149E+03  0.7546771E-02  0.1082077E+00
         21   -1    0    0  502  501  0.00000000000E+00  0.00000000000E+00  0.77842915418E+03  0.77842915418E+03  0.00000000000E+00 0.  1.
         21   -1    0    0  501  502 -0.00000000000E+00 -0.00000000000E+00 -0.12061479316E+03  0.12061479316E+03  0.00000000000E+00 0.  1.
         25    1    1    2    0    0 -0.99504659239E+02 -0.48222177473E+02  0.34140686941E+03  0.38001342883E+03  0.12500000000E+03 0.  0.
         25    1    1    2    0    0  0.15792547312E+03  0.13852053135E+03  0.16299800227E+03  0.29380561841E+03  0.12500000000E+03 0.  0.
         25    1    1    2    0    0 -0.58420813879E+02 -0.90298353874E+02  0.15340948935E+03  0.22522490011E+03  0.12500000000E+03 0.  0.
</event>
<event>
 5    0  0.5619558E-005  0.3245488E+03  0.7546771E-02  0.1073575E+00
         21   -1    0    0  502  501  0.00000000000E+00  0.00000000000E+00  0.54139730183E+03  0.54139730183E+03  0.00000000000E+00 0.  1.
         21   -1    0    0  501  502 -0.00000000000E+00 -0.00000000000E+00 -0.19455562773E+03  0.19455562773E+03  0.00000000000E+00 0.  1.
         25    1    1    2    0    0 -0.18100580405E+03  0.48772280989E+02  0.14188342562E+03  0.26626630083E+03  0.12500000000E+03 0.  0.
         25    1    1    2    0    0  0.52181111015E+02  0.24971482049E+02 -0.52396448298E+02  0.14736631588E+03  0.12500000000E+03 0.  0.
         25    1    1    2    0    0  0.12882469304E+03 -0.73743763038E+02  0.25735469678E+03  0.32232031286E+03  0.12500000000E+03 0.  0.
</event>
<event>
 5    0  0.5619558E-005  0.2810520E+03  0.7546771E-02  0.1095116E+00
         21   -1    0    0  502  501  0.00000000000E+00  0.00000000000E+00  0.23101796589E+03  0.23101796589E+03  0.00000000000E+00 0.  1.
         21   -1    0    0  501  502 -0.00000000000E+00 -0.00000000000E+00 -0.34192233728E+03  0.34192233728E+03  0.00000000000E+00 0.  1.
         25    1    1    2    0    0 -0.31753674947E+01  0.23431810120E+02  0.10202708090E+03  0.16307562025E+03  0.12500000000E+03 0.  0.
         25    1    1    2    0    0 -0.45420960134E+02 -0.12279911845E+03 -0.87397331131E+02  0.20101238917E+03  0.12500000000E+03 0.  0.
         25    1    1    2    0    0  0.48596327628E+02  0.99367308333E+02 -0.12553412116E+03  0.20885229374E+03  0.12500000000E+03 0.  0.
</event>
<event>
 5    0  0.5619558E-005  0.2508842E+03  0.7546771E-02  0.1112747E+00
         21   -1    0    0  502  501  0.00000000000E+00  0.00000000000E+00  0.36408819722E+03  0.36408819722E+03  0.00000000000E+00 0. -1.
         21   -1    0    0  501  502 -0.00000000000E+00 -0.00000000000E+00 -0.17287812873E+03  0.17287812873E+03  0.00000000000E+00 0. -1.
         25    1    1    2    0    0 -0.51744997283E+02 -0.50813916489E+01 -0.41177169392E+01  0.13544489978E+03  0.12500000000E+03 0.  0.
         25    1    1    2    0    0 -0.27944398357E+02  0.56618944306E+02 -0.13054418870E+02  0.14064854107E+03  0.12500000000E+03 0.  0.
         25    1    1    2    0    0  0.79689395640E+02 -0.51537552657E+02  0.20838220430E+03  0.26087288510E+03  0.12500000000E+03 0.  0.
</event>
<event>
 5    0  0.5619558E-005  0.2601236E+03  0.7546771E-02  0.1107069E+00
         21   -1    0    0  502  501  0.00000000000E+00  0.00000000000E+00  0.93076833879E+02  0.93076833879E+02  0.00000000000E+00 0.  1.
         21   -1    0    0  501  502 -0.00000000000E+00 -0.00000000000E+00 -0.72697220194E+03  0.72697220194E+03  0.00000000000E+00 0.  1.
         25    1    1    2    0    0  0.55638166801E+02  0.11271685921E+03 -0.20367715389E+03  0.27001866412E+03  0.12500000000E+03 0.  0.
         25    1    1    2    0    0 -0.10564444519E+03 -0.35849237236E+02 -0.31530724681E+03  0.35705682531E+03  0.12500000000E+03 0.  0.
         25    1    1    2    0    0  0.50006278388E+02 -0.76867621973E+02 -0.11491096736E+03  0.19297354639E+03  0.12500000000E+03 0.  0.
</event>
<event>
 5    0  0.5619558E-005  0.4653294E+03  0.7546771E-02  0.1023247E+00
         21   -1    0    0  502  501  0.00000000000E+00  0.00000000000E+00  0.67526675675E+03  0.67526675675E+03  0.00000000000E+00 0. -1.
         21   -1    0    0  501  502 -0.00000000000E+00 -0.00000000000E+00 -0.32066054517E+03  0.32066054517E+03  0.00000000000E+00 0. -1.
         25    1    1    2    0    0 -0.38744199980E+02  0.40319029496E+03  0.10244281446E+03  0.43609982483E+03  0.12500000000E+03 0.  0.
         25    1    1    2    0    0 -0.38363572788E+02 -0.26250580453E+03  0.17959535882E+03  0.34389032269E+03  0.12500000000E+03 0.  0.
         25    1    1    2    0    0  0.77107772768E+02 -0.14068449043E+03  0.72568038288E+02  0.21593715440E+03  0.12500000000E+03 0.  0.
</event>
<event>
 5    0  0.5619558E-005  0.4347194E+03  0.7546771E-02  0.1032379E+00
         21   -1    0    0  502  501  0.00000000000E+00  0.00000000000E+00  0.27698320427E+03  0.27698320427E+03  0.00000000000E+00 0. -1.
         21   -1    0    0  501  502 -0.00000000000E+00 -0.00000000000E+00 -0.68228304248E+03  0.68228304248E+03  0.00000000000E+00 0. -1.
         25    1    1    2    0    0  0.71599478604E+02  0.20303216435E+03 -0.13644602864E+03  0.28388565274E+03  0.12500000000E+03 0.  0.
         25    1    1    2    0    0  0.19790430951E+03 -0.17721496199E+03 -0.23343371908E+03  0.37508340363E+03  0.12500000000E+03 0.  0.
         25    1    1    2    0    0 -0.26950378811E+03 -0.25817202357E+02 -0.35420090493E+02  0.30029719039E+03  0.12500000000E+03 0.  0.
</event>
<event>
 5    0  0.5619558E-005  0.4542731E+03  0.7546771E-02  0.1026455E+00
         21   -1    0    0  502  501  0.00000000000E+00  0.00000000000E+00  0.45593940126E+03  0.45593940126E+03  0.00000000000E+00 0.  1.
         21   -1    0    0  501  502 -0.00000000000E+00 -0.00000000000E+00 -0.45261290516E+03  0.45261290516E+03  0.00000000000E+00 0.  1.
         25    1    1    2    0    0 -0.36121130415E+02  0.14402278781E+03  0.13719407338E+03  0.23768574472E+03  0.12500000000E+03 0.  0.
         25    1    1    2    0    0  0.26457718399E+03  0.48152953940E+02 -0.17543218931E+03  0.34455949603E+03  0.12500000000E+03 0.  0.
         25    1    1    2    0    0 -0.22845605357E+03 -0.19217574175E+03  0.41564612034E+02  0.32630706567E+03  0.12500000000E+03 0.  0.
</event>
<event>
 5    0  0.5619558E-005  0.3847070E+03  0.7546771E-02  0.1049208E+00
         21   -1    0    0  502  501  0.00000000000E+00  0.00000000000E+00  0.64964185369E+03  0.64964185369E+03  0.00000000000E+00 0. -1.
         21   -1    0    0  501  502 -0.00000000000E+00 -0.00000000000E+00 -0.22781701863E+03  0.22781701863E+03  0.00000000000E+00 0. -1.
         25    1    1    2    0    0  0.43094996340E+02  0.38568776226E+02  0.22657994158E+03  0.26515693303E+03  0.12500000000E+03 0.  0.
         25    1    1    2    0    0 -0.99283288486E+02 -0.26478728385E+03  0.15116992656E+03  0.34416104334E+03  0.12500000000E+03 0.  0.
         25    1    1    2    0    0  0.56188292146E+02  0.22621850762E+03  0.44074966927E+02  0.26814089594E+03  0.12500000000E+03 0.  0.
</event>
<event>
 5    0  0.5619558E-005  0.3358803E+03  0.7546771E-02  0.1068564E+00
         21   -1    0    0  502  501  0.00000000000E+00  0.00000000000E+00  0.45807888209E+03  0.45807888209E+03  0.00000000000E+00 0. -1.
         21   -1    0    0  501  502 -0.00000000000E+00 -0.00000000000E+00 -0.24627974486E+03  0.24627974486E+03  0.00000000000E+00 0. -1.
         25    1    1    2    0    0  0.39523279173E+02 -0.19781055421E+01  0.33068234290E+02  0.13522023006E+03  0.12500000000E+03 0.  0.
         25    1    1    2    0    0 -0.91185774389E+02  0.17064474870E+03  0.25147672644E+03  0.34102788691E+03  0.12500000000E+03 0.  0.
         25    1    1    2    0    0  0.51662495216E+02 -0.16866664315E+03 -0.72745823499E+02  0.22811050998E+03  0.12500000000E+03 0.  0.
</event>
<event>
 5    0  0.5619558E-005  0.5958048E+03  0.7546771E-02  0.9914148E-01
         21   -1    0    0  502  501  0.00000000000E+00  0.00000000000E+00  0.13967555275E+04  0.13967555275E+04  0.00000000000E+00 0.  1.
         21   -1    0    0  501  502 -0.00000000000E+00 -0.00000000000E+00 -0.25414855906E+03  0.25414855906E+03  0.00000000000E+00 0.  1.
         25    1    1    2    0    0 -0.29865922090E+03 -0.11265778411E+03  0.40383155424E+02  0.34517373276E+03  0.12500000000E+03 0.  0.
         25    1    1    2    0    0 -0.13619441058E+02  0.13211332491E+03  0.33866201537E+02  0.18550293637E+03  0.12500000000E+03 0.  0.
         25    1    1    2    0    0  0.31227866195E+03 -0.19455540799E+02  0.10683576115E+04  0.11202274175E+04  0.12500000000E+03 0.  0.
</event>
<event>
 5    0  0.5619558E-005  0.2914478E+03  0.7546771E-02  0.1089596E+00
         21   -1    0    0  502  501  0.00000000000E+00  0.00000000000E+00  0.12705218922E+03  0.12705218922E+03  0.00000000000E+00 0.  1.
         21   -1    0    0  501  502 -0.00000000000E+00 -0.00000000000E+00 -0.66855833425E+03  0.66855833425E+03  0.00000000000E+00 0.  1.
         25    1    1    2    0    0 -0.76275519479E+01  0.15456942439E+03 -0.13172787368E+03  0.23859404688E+03  0.12500000000E+03 0.  0.
         25    1    1    2    0    0  0.90221882978E+02 -0.65428020736E+02 -0.31941167129E+03  0.36065167381E+03  0.12500000000E+03 0.  0.
         25    1    1    2    0    0 -0.82594331030E+02 -0.89141403652E+02 -0.90366600057E+02  0.19636480278E+03  0.12500000000E+03 0.  0.
</event>
<event>
 5    0  0.5619558E-005  0.4333788E+03  0.7546771E-02  0.1032798E+00
         21   -1    0    0  502  501  0.00000000000E+00  0.00000000000E+00  0.42758083192E+03  0.42758083192E+03  0.00000000000E+00 0.  1.
         21   -1    0    0  501  502 -0.00000000000E+00 -0.00000000000E+00 -0.43925529784E+03  0.43925529784E+03  0.00000000000E+00 0.  1.
         25    1    1    2    0    0 -0.23066521956E+03  0.28817906840E+03  0.64332472488E+02  0.39499023532E+03  0.12500000000E+03 0.  0.
         25    1    1    2    0    0  0.17464119704E+03 -0.18534082776E+03 -0.95792733144E+02  0.29941946808E+03  0.12500000000E+03 0.  0.
         25    1    1    2    0    0  0.56024022512E+02 -0.10283824064E+03  0.19785794735E+02  0.17242642637E+03  0.12500000000E+03 0.  0.
</event>
<event>
 5    0  0.5619558E-005  0.2930344E+03  0.7546771E-02  0.1088775E+00
         21   -1    0    0  502  501  0.00000000000E+00  0.00000000000E+00  0.32237005202E+03  0.32237005202E+03  0.00000000000E+00 0. -1.
         21   -1    0    0  501  502 -0.00000000000E+00 -0.00000000000E+00 -0.26636827566E+03  0.26636827566E+03  0.00000000000E+00 0. -1.
         25    1    1    2    0    0  0.14252505541E+03 -0.12939538627E+03  0.13932243368E+02  0.22994709133E+03  0.12500000000E+03 0.  0.
         25    1    1    2    0    0 -0.15463655413E+03  0.78597161189E+02 -0.90373490544E+01  0.21400152172E+03  0.12500000000E+03 0.  0.
         25    1    1    2    0    0  0.12111498717E+02  0.50798225080E+02  0.51106882045E+02  0.14478971464E+03  0.12500000000E+03 0.  0.
</event>
<event>
 5    0  0.5619558E-005  0.2591811E+03  0.7546771E-02  0.1107636E+00
         21   -1    0    0  502  501  0.00000000000E+00  0.00000000000E+00  0.10659232950E+04  0.10659232950E+04  0.00000000000E+00 0.  1.
         21   -1    0    0  501  502 -0.00000000000E+00 -0.00000000000E+00 -0.63020336211E+02  0.63020336211E+02  0.00000000000E+00 0. -1.
         25    1    1    2    0    0 -0.42710134952E+02  0.17400531338E+02  0.14893889747E+03  0.19983675663E+03  0.12500000000E+03 0.  0.
         25    1    1    2    0    0 -0.85763401607E+02  0.56383098616E+02  0.28076976016E+03  0.32402326010E+03  0.12500000000E+03 0.  0.
         25    1    1    2    0    0  0.12847353656E+03 -0.73783629954E+02  0.57319430119E+03  0.60508361453E+03  0.12500000000E+03 0.  0.
</event>
<event>
 5    0  0.5619558E-005  0.4029774E+03  0.7546771E-02  0.1042754E+00
         21   -1    0    0  502  501  0.00000000000E+00  0.00000000000E+00  0.32616145023E+03  0.32616145023E+03  0.00000000000E+00 0. -1.
         21   -1    0    0  501  502 -0.00000000000E+00 -0.00000000000E+00 -0.49788478524E+03  0.49788478524E+03  0.00000000000E+00 0. -1.
         25    1    1    2    0    0  0.28821612450E+01 -0.51146216730E+02 -0.67851041564E+02  0.15117210781E+03  0.12500000000E+03 0.  0.
         25    1    1    2    0    0 -0.22394977488E+03  0.10211804486E+03  0.14658904286E+03  0.31256190466E+03  0.12500000000E+03 0.  0.
         25    1    1    2    0    0  0.22106761363E+03 -0.50971828132E+02 -0.25046133631E+03  0.36031222301E+03  0.12500000000E+03 0.  0.
</event>
<event>
 5    0  0.5619558E-005  0.2641600E+03  0.7546771E-02  0.1104669E+00
         21   -1    0    0  502  501  0.00000000000E+00  0.00000000000E+00  0.59330108431E+02  0.59330108431E+02  0.00000000000E+00 0. -1.
         21   -1    0    0  501  502 -0.00000000000E+00 -0.00000000000E+00 -0.11761399877E+04  0.11761399877E+04  0.00000000000E+00 0. -1.
         25    1    1    2    0    0 -0.11668578913E+02  0.12377210965E+03 -0.23400402005E+03  0.29298220469E+03  0.12500000000E+03 0.  0.
         25    1    1    2    0    0  0.87807197031E+02 -0.55150598024E+02 -0.35297858842E+03  0.38854932273E+03  0.12500000000E+03 0.  0.
         25    1    1    2    0    0 -0.76138618118E+02 -0.68621511630E+02 -0.52982727077E+03  0.55393856869E+03  0.12500000000E+03 0.  0.
</event>
<event>
 5    0  0.5619558E-005  0.4826272E+03  0.7546771E-02  0.1018416E+00
         21   -1    0    0  502  501  0.00000000000E+00  0.00000000000E+00  0.24779247714E+03  0.24779247714E+03  0.00000000000E+00 0. -1.
         21   -1    0    0  501  502 -0.00000000000E+00 -0.00000000000E+00 -0.94001651021E+03  0.94001651021E+03  0.00000000000E+00 0. -1.
         25    1    1    2    0    0  0.10792480613E+03  0.84200297066E+02 -0.41606516633E+03  0.45549168647E+03  0.12500000000E+03 0.  0.
         25    1    1    2    0    0  0.98867482091E+02 -0.17408034252E+03  0.11601685242E+03  0.26298983766E+03  0.12500000000E+03 0.  0.
         25    1    1    2    0    0 -0.20679228822E+03  0.89880045453E+02 -0.39217571916E+03  0.46932746322E+03  0.12500000000E+03 0.  0.
</event>
<event>
 5    0  0.5619558E-005  0.2411853E+03  0.7546771E-02  0.1119006E+00
         21   -1    0    0  502  501  0.00000000000E+00  0.00000000000E+00  0.84648190370E+03  0.84648190370E+03  0.00000000000E+00 0.  1.
         21   -1    0    0  501  502 -0.00000000000E+00 -0.00000000000E+00 -0.68720156764E+02  0.68720156764E+02  0.00000000000E+00 0.  1.
         25    1    1    2    0    0 -0.83145981919E+01 -0.47655694380E+02  0.86259814670E+02  0.15939245082E+03  0.12500000000E+03 0.  0.
         25    1    1    2    0    0  0.65206194620E+02  0.10936669192E+02  0.48433869448E+03  0.50455963922E+03  0.12500000000E+03 0.  0.
         25    1    1    2    0    0 -0.56891596428E+02  0.36719025188E+02  0.20716323778E+03  0.25124997043E+03  0.12500000000E+03 0.  0.
</event>
<event>
 5    0  0.5619558E-005  0.4820008E+03  0.7546771E-02  0.1018587E+00
         21   -1    0    0  502  501  0.00000000000E+00  0.00000000000E+00  0.31761084900E+03  0.31761084900E+03  0.00000000000E+00 0. -1.
         21   -1    0    0  501  502 -0.00000000000E+00 -0.00000000000E+00 -0.73147632284E+03  0.73147632284E+03  0.00000000000E+00 0. -1.
         25    1    1    2    0    0  0.68569239768E+02  0.30422019721E+03 -0.30848007170E+03  0.45611031963E+03  0.12500000000E+03 0.  0.
         25    1    1    2    0    0 -0.22650690950E+03 -0.92369812158E+02 -0.12115193285E+03  0.30023383068E+03  0.12500000000E+03 0.  0.
         25    1    1    2    0    0  0.15793766974E+03 -0.21185038505E+03  0.15766530713E+02  0.29274302154E+03  0.12500000000E+03 0.  0.
</event>
<event>
 5    0  0.5619558E-005  0.6872169E+03  0.7546771E-02  0.9739346E-01
         21   -1    0    0  502  501  0.00000000000E+00  0.00000000000E+00  0.32672240152E+03  0.32672240152E+03  0.00000000000E+00 0. -1.
         21   -1    0    0  501  502 -0.00000000000E+00 -0.00000000000E+00 -0.14454689177E+04  0.14454689177E+04  0.00000000000E+00 0. -1.
         25    1    1    2    0    0  0.61448963803E+02  0.34160070438E+03 -0.15850731740E+03  0.40151785272E+03  0.12500000000E+03 0.  0.
         25    1    1    2    0    0 -0.14953555833E+02 -0.45639499919E+03 -0.10652742881E+04  0.11657419582E+04  0.12500000000E+03 0.  0.
         25    1    1    2    0    0 -0.46495407970E+02  0.11479429481E+03  0.10503508939E+03  0.20493150828E+03  0.12500000000E+03 0.  0.
</event>
<event>
 5    0  0.5619558E-005  0.2276790E+03  0.7546771E-02  0.1128284E+00
         21   -1    0    0  502  501  0.00000000000E+00  0.00000000000E+00  0.13505838469E+03  0.13505838469E+03  0.00000000000E+00 0.  1.
         21   -1    0    0  501  502 -0.00000000000E+00 -0.00000000000E+00 -0.38381716778E+03  0.38381716778E+03  0.00000000000E+00 0.  1.
         25    1    1    2    0    0 -0.78359919516E+02 -0.61877804511E+02 -0.13712421237E+03  0.21070640545E+03  0.12500000000E+03 0.  0.
         25    1    1    2    0    0  0.62487779901E+02  0.18483901294E+02 -0.11421180862E+02  0.14142779294E+03  0.12500000000E+03 0.  0.
         25    1    1    2    0    0  0.15872139615E+02  0.43393903217E+02 -0.10021338986E+03  0.16674135408E+03  0.12500000000E+03 0.  0.
</event>
<event>
 5    0  0.5619558E-005  0.5723129E+03  0.7546771E-02  0.9964573E-01
         21   -1    0    0  502  501  0.00000000000E+00  0.00000000000E+00  0.10548368243E+04  0.10548368243E+04  0.00000000000E+00 0.  1.
         21   -1    0    0  501  502 -0.00000000000E+00 -0.00000000000E+00 -0.31051445094E+03  0.31051445094E+03  0.00000000000E+00 0.  1.
         25    1    1    2    0    0 -0.47844607305E+02 -0.11886820242E+02  0.21010892766E+03  0.24940161271E+03  0.12500000000E+03 0.  0.
         25    1    1    2    0    0 -0.33963592370E+03  0.25825651683E+03  0.45014922372E+03  0.63269922773E+03  0.12500000000E+03 0.  0.
         25    1    1    2    0    0  0.38748053101E+03 -0.24636969659E+03  0.84064221991E+02  0.48325043479E+03  0.12500000000E+03 0.  0.
</event>
<event>
 5    0  0.5619558E-005  0.3878288E+03  0.7546771E-02  0.1048078E+00
         21   -1    0    0  502  501  0.00000000000E+00  0.00000000000E+00  0.11996823902E+03  0.11996823902E+03  0.00000000000E+00 0.  1.
         21   -1    0    0  501  502 -0.00000000000E+00 -0.00000000000E+00 -0.12537583163E+04  0.12537583163E+04  0.00000000000E+00 0.  1.
         25    1    1    2    0    0  0.24409076533E+02 -0.20665107619E+03 -0.64075363118E+03  0.68519390407E+03  0.12500000000E+03 0.  0.
         25    1    1    2    0    0  0.15207026899E+03  0.91811093465E+02 -0.13833025609E+03  0.25751680207E+03  0.12500000000E+03 0.  0.
         25    1    1    2    0    0 -0.17647934553E+03  0.11483998272E+03 -0.35470619004E+03  0.43101584922E+03  0.12500000000E+03 0.  0.
</event>
<event>
 5    0  0.7455406E-005  0.2874601E+03  0.7546771E-02  0.1091683E+00
         21   -1    0    0  502  501  0.00000000000E+00  0.00000000000E+00  0.61043158454E+03  0.61043158454E+03  0.00000000000E+00 0. -1.
         21   -1    0    0  501  502 -0.00000000000E+00 -0.00000000000E+00 -0.13536861969E+03  0.13536861969E+03  0.00000000000E+00 0. -1.
         25    1    1    2    0    0  0.11158364518E+03 -0.12397532993E+03  0.18027673253E+03  0.27558209774E+03  0.12500000000E+03 0.  0.
         25    1    1    2    0    0 -0.37508288462E+01  0.17750657900E+02  0.23192836648E+03  0.26409263857E+03  0.12500000000E+03 0.  0.
         25    1    1    2    0    0 -0.10783281633E+03  0.10622467203E+03  0.62857865837E+02  0.20612546791E+03  0.12500000000E+03 0.  0.
</event>
<event>
 5    0  0.5619558E-005  0.2840585E+03  0.7546771E-02  0.1093493E+00
         21   -1    0    0  502  501  0.00000000000E+00  0.00000000000E+00  0.24216510061E+03  0.24216510061E+03  0.00000000000E+00 0.  1.
         21   -1    0    0  501  502 -0.00000000000E+00 -0.00000000000E+00 -0.33319934520E+03  0.33319934520E+03  0.00000000000E+00 0.  1.
         25    1    1    2    0    0  0.13428206635E+03 -0.52892153612E+02 -0.79581778052E+02  0.20685142652E+03  0.12500000000E+03 0.  0.
         25    1    1    2    0    0 -0.11243509299E+03 -0.73766121847E+02 -0.37364185315E+02  0.18736107710E+03  0.12500000000E+03 0.  0.
         25    1    1    2    0    0 -0.21846973358E+02  0.12665827546E+03  0.25911718771E+02  0.18115194218E+03  0.12500000000E+03 0.  0.
</event>
<event>
 5    0  0.5619558E-005  0.2949999E+03  0.7546771E-02  0.1087767E+00
         21   -1    0    0  502  501  0.00000000000E+00  0.00000000000E+00  0.83778147338E+03  0.83778147338E+03  0.00000000000E+00 0.  1.
         21   -1    0    0  501  502 -0.00000000000E+00 -0.00000000000E+00 -0.10387549448E+03  0.10387549448E+03  0.00000000000E+00 0.  1.
         25    1    1    2    0    0 -0.31389483739E+02 -0.10371189774E+03  0.22352599261E+03  0.27808330909E+03  0.12500000000E+03 0.  0.
         25    1    1    2    0    0  0.18393283263E+02 -0.11517642760E+03  0.22514158853E+03  0.28269711217E+03  0.12500000000E+03 0.  0.
         25    1    1    2    0    0  0.12996200476E+02  0.21888832534E+03  0.28523839775E+03  0.38087654660E+03  0.12500000000E+03 0.  0.
</event>
<event>
 5    0  0.6095299E-005  0.4294245E+03  0.7546771E-02  0.1034042E+00
         21   -1    0    0  502  501  0.00000000000E+00  0.00000000000E+00  0.34928738488E+03  0.34928738488E+03  0.00000000000E+00 0. -1.
         21   -1    0    0  501  502 -0.00000000000E+00 -0.00000000000E+00 -0.52794746469E+03  0.52794746469E+03  0.00000000000E+00 0. -1.
         25    1    1    2    0    0 -0.23607343539E+03 -0.39384117052E+02  0.10426843794E+03  0.28944547452E+03  0.12500000000E+03 0.  0.
         25    1    1    2    0    0  0.12308307193E+01  0.40214280380E+01 -0.29367304949E+03  0.31919672120E+03  0.12500000000E+03 0.  0.
         25    1    1    2    0    0  0.23484260467E+03  0.35362689014E+02  0.10744531737E+02  0.26859265385E+03  0.12500000000E+03 0.  0.
</event>
<event>
 5    0  0.5619558E-005  0.2272570E+03  0.7546771E-02  0.1128585E+00
         21   -1    0    0  502  501  0.00000000000E+00  0.00000000000E+00  0.17745883365E+04  0.17745883365E+04  0.00000000000E+00 0.  1.
         21   -1    0    0  501  502 -0.00000000000E+00 -0.00000000000E+00 -0.29102936212E+02  0.29102936212E+02  0.00000000000E+00 0. -1.
         25    1    1    2    0    0 -0.61184251342E+02  0.19396099305E+02  0.59085995155E+03  0.60733862353E+03  0.12500000000E+03 0.  0.
         25    1    1    2    0    0  0.12039541813E+03 -0.10566108240E+02  0.60135263215E+03  0.62598457453E+03  0.12500000000E+03 0.  0.
         25    1    1    2    0    0 -0.59211166787E+02 -0.88299910645E+01  0.55327281654E+03  0.57036807461E+03  0.12500000000E+03 0.  0.
</event>
<event>
 5    0  0.5619558E-005  0.2654420E+03  0.7546771E-02  0.1103917E+00
         21   -1    0    0  502  501  0.00000000000E+00  0.00000000000E+00  0.33718908354E+03  0.33718908354E+03  0.00000000000E+00 0. -1.
         21   -1    0    0  501  502 -0.00000000000E+00 -0.00000000000E+00 -0.20896121269E+03  0.20896121269E+03  0.00000000000E+00 0. -1.
         25    1    1    2    0    0  0.21710707806E+02  0.11258242619E+03 -0.42024200515E+02  0.17474893690E+03  0.12500000000E+03 0.  0.
         25    1    1    2    0    0  0.18071689793E+02 -0.11489695944E+03  0.19967357363E+02  0.17190576669E+03  0.12500000000E+03 0.  0.
         25    1    1    2    0    0 -0.39782397599E+02  0.23145332502E+01  0.15028471400E+03  0.19949559264E+03  0.12500000000E+03 0.  0.
</event>
<event>
 5    0  0.5619558E-005  0.2568562E+03  0.7546771E-02  0.1109047E+00
         21   -1    0    0  502  501  0.00000000000E+00  0.00000000000E+00  0.10146665858E+04  0.10146665858E+04  0.00000000000E+00 0. -1.
         21   -1    0    0  501  502 -0.00000000000E+00 -0.00000000000E+00 -0.65021486424E+02  0.65021486424E+02  0.00000000000E+00 0. -1.
         25    1    1    2    0    0  0.69534930448E+02  0.35756657933E+00  0.10164596169E+03  0.17547688148E+03  0.12500000000E+03 0.  0.
         25    1    1    2    0    0  0.34899006985E+02 -0.53381933770E+02  0.32914261843E+03  0.35780921565E+03  0.12500000000E+03 0.  0.
         25    1    1    2    0    0 -0.10443393743E+03  0.53024367191E+02  0.51885651929E+03  0.54640197512E+03  0.12500000000E+03 0.  0.
</event>
<event>
 5    0  0.5619558E-005  0.2910569E+03  0.7546771E-02  0.1089799E+00
         21   -1    0    0  502  501  0.00000000000E+00  0.00000000000E+00  0.48380577596E+03  0.48380577596E+03  0.00000000000E+00 0. -1.
         21   -1    0    0  501  502 -0.00000000000E+00 -0.00000000000E+00 -0.17509948388E+03  0.17509948388E+03  0.00000000000E+00 0. -1.
         25    1    1    2    0    0  0.10241296939E+03 -0.18460222009E+03  0.96747680410E+02  0.26372620201E+03  0.12500000000E+03 0.  0.
         25    1    1    2    0    0 -0.18214121617E+02  0.74534237430E+02  0.10057916074E+03  0.17784339839E+03  0.12500000000E+03 0.  0.
         25    1    1    2    0    0 -0.84198847777E+02  0.11006798266E+03  0.11137945093E+03  0.21733565944E+03  0.12500000000E+03 0.  0.
</event>
<event>
 5    0  0.5619558E-005  0.3737937E+03  0.7546771E-02  0.1053252E+00
         21   -1    0    0  502  501  0.00000000000E+00  0.00000000000E+00  0.46980712578E+03  0.46980712578E+03  0.00000000000E+00 0. -1.
         21   -1    0    0  501  502 -0.00000000000E+00 -0.00000000000E+00 -0.29740233691E+03  0.29740233691E+03  0.00000000000E+00 0. -1.
         25    1    1    2    0    0  0.38032964789E+02  0.10928161646E+02  0.29587925878E+02  0.13441122158E+03  0.12500000000E+03 0.  0.
         25    1    1    2    0    0  0.20973375894E+03  0.88989932128E+02  0.20544450986E+03  0.33127013794E+03  0.12500000000E+03 0.  0.
         25    1    1    2    0    0 -0.24776672373E+03 -0.99918093773E+02 -0.62627646877E+02  0.30152810317E+03  0.12500000000E+03 0.  0.
</event>
<event>
 5    0  0.5619558E-005  0.3659691E+03  0.7546771E-02  0.1056245E+00
         21   -1    0    0  502  501  0.00000000000E+00  0.00000000000E+00  0.10952688724E+04  0.10952688724E+04  0.00000000000E+00 0.  1.
         21   -1    0    0  501  502 -0.00000000000E+00 -0.00000000000E+00 -0.12228353515E+03  0.12228353515E+03  0.00000000000E+00 0.  1.
         25    1    1    2    0    0 -0.62484021651E+02 -0.99361945421E+02  0.39746868091E+02  0.17601665456E+03  0.12500000000E+03 0.  0.
         25    1    1    2    0    0 -0.59200642863E+02  0.18873906572E+03  0.69324108611E+03  0.73166614963E+03  0.12500000000E+03 0.  0.
         25    1    1    2    0    0  0.12168466451E+03 -0.89377120297E+02  0.23999738303E+03  0.30986960334E+03  0.12500000000E+03 0.  0.
</event>
<event>
 5    0  0.5619558E-005  0.2290721E+03  0.7546771E-02  0.1127295E+00
         21   -1    0    0  502  501  0.00000000000E+00  0.00000000000E+00  0.44593444986E+03  0.44593444986E+03  0.00000000000E+00 0.  1.
         21   -1    0    0  501  502 -0.00000000000E+00 -0.00000000000E+00 -0.11767203050E+03  0.11767203050E+03  0.00000000000E+00 0.  1.
         25    1    1    2    0    0  0.42636580128E+02 -0.22463377424E+02  0.14043358936E+03  0.19408522435E+03  0.12500000000E+03 0.  0.
         25    1    1    2    0    0 -0.84900074458E+01  0.57591432878E+02 -0.92049756757E+00  0.13789380219E+03  0.12500000000E+03 0.  0.
         25    1    1    2    0    0 -0.34146572682E+02 -0.35128055455E+02  0.18874932756E+03  0.23162745382E+03  0.12500000000E+03 0.  0.
</event>
<event>
 5    0  0.5619558E-005  0.2611053E+03  0.7546771E-02  0.1106481E+00
         21   -1    0    0  502  501  0.00000000000E+00  0.00000000000E+00  0.29273862859E+02  0.29273862859E+02  0.00000000000E+00 0. -1.
         21   -1    0    0  501  502 -0.00000000000E+00 -0.00000000000E+00 -0.23289034603E+04  0.23289034603E+04  0.00000000000E+00 0. -1.
         25    1    1    2    0    0  0.38225712181E+02 -0.84805748610E+02 -0.12915641230E+04  0.13009289388E+04  0.12500000000E+03 0.  0.
         25    1    1    2    0    0  0.40647182513E+02 -0.17358912259E+02 -0.32639188450E+03  0.35229275830E+03  0.12500000000E+03 0.  0.
         25    1    1    2    0    0 -0.78872894694E+02  0.10216466087E+03 -0.68167358995E+03  0.70495562604E+03  0.12500000000E+03 0.  0.
</event>
<event>
 5    0  0.5619558E-005  0.3189684E+03  0.7546771E-02  0.1076125E+00
         21   -1    0    0  502  501  0.00000000000E+00  0.00000000000E+00  0.10738486545E+04  0.10738486545E+04  0.00000000000E+00 0. -1.
         21   -1    0    0  501  502 -0.00000000000E+00 -0.00000000000E+00 -0.94744117331E+02  0.94744117331E+02  0.00000000000E+00 0. -1.
         25    1    1    2    0    0  0.23537602598E+02 -0.95267129551E+02  0.57097903374E+03  0.59268195660E+03  0.12500000000E+03 0.  0.
         25    1    1    2    0    0 -0.66474252577E+02  0.93874441743E+02  0.40991895529E+03  0.44372264645E+03  0.12500000000E+03 0.  0.
         25    1    1    2    0    0  0.42936649979E+02  0.13926878079E+01 -0.17934518778E+01  0.13218816876E+03  0.12500000000E+03 0.  0.
</event>
<event>
 5    0  0.5619558E-005  0.2479070E+03  0.7546771E-02  0.1114635E+00
         21   -1    0    0  502  501  0.00000000000E+00  0.00000000000E+00  0.46932319069E+02  0.46932319069E+02  0.00000000000E+00 0. -1.
         21   -1    0    0  501  502 -0.00000000000E+00 -0.00000000000E+00 -0.13095007029E+04  0.13095007029E+04  0.00000000000E+00 0. -1.
         25    1    1    2    0    0  0.11264123849E+03  0.67340842636E+02 -0.51958460865E+03  0.55028720069E+03  0.12500000000E+03 0.  0.
         25    1    1    2    0    0 -0.64196445755E+02  0.19451916638E+02 -0.45797134318E+03  0.47943958106E+03  0.12500000000E+03 0.  0.
         25    1    1    2    0    0 -0.48444792732E+02 -0.86792759274E+02 -0.28501243197E+03  0.32670624020E+03  0.12500000000E+03 0.  0.
</event>
<event>
 5    0  0.5619558E-005  0.4486846E+03  0.7546771E-02  0.1028115E+00
         21   -1    0    0  502  501  0.00000000000E+00  0.00000000000E+00  0.30308678560E+03  0.30308678560E+03  0.00000000000E+00 0. -1.
         21   -1    0    0  501  502 -0.00000000000E+00 -0.00000000000E+00 -0.66422521596E+03  0.66422521596E+03  0.00000000000E+00 0. -1.
         25    1    1    2    0    0  0.25095426629E+03 -0.27775223142E+03 -0.28516556919E+03  0.48689706066E+03  0.12500000000E+03 0.  0.
         25    1    1    2    0    0 -0.14219828488E+03  0.17390136499E+03  0.28607371844E+02  0.25866081785E+03  0.12500000000E+03 0.  0.
         25    1    1    2    0    0 -0.10875598142E+03  0.10385086643E+03 -0.10458023301E+03  0.22175412305E+03  0.12500000000E+03 0.  0.
</event>
<event>
 5    0  0.5619558E-005  0.4944807E+03  0.7546771E-02  0.1015230E+00
         21   -1    0    0  502  501  0.00000000000E+00  0.00000000000E+00  0.11144778111E+04  0.11144778111E+04  0.00000000000E+00 0. -1.
         21   -1    0    0  501  502 -0.00000000000E+00 -0.00000000000E+00 -0.21939531059E+03  0.21939531059E+03  0.00000000000E+00 0. -1.
         25    1    1    2    0    0  0.97453170389E+02  0.33105956613E+03  0.28482166053E+03  0.46459222449E+03  0.12500000000E+03 0.  0.
         25    1    1    2    0    0  0.11353352086E+03 -0.32279323671E+03  0.43685790901E+03  0.56881909839E+03  0.12500000000E+03 0.  0.
         25    1    1    2    0    0 -0.21098669125E+03 -0.82663294231E+01  0.17340293100E+03  0.30046179884E+03  0.12500000000E+03 0.  0.
</event>
<event>
 5    0  0.5619558E-005  0.4495869E+03  0.7546771E-02  0.1027845E+00
         21   -1    0    0  502  501  0.00000000000E+00  0.00000000000E+00  0.11037271131E+03  0.11037271131E+03  0.00000000000E+00 0. -1.
         21   -1    0    0  501  502 -0.00000000000E+00 -0.00000000000E+00 -0.18313258402E+04  0.18313258402E+04  0.00000000000E+00 0. -1.
         25    1    1    2    0    0 -0.99998391819E+02  0.27385626339E+03 -0.24866822953E+03  0.40306056585E+03  0.12500000000E+03 0.  0.
         25    1    1    2    0    0 -0.29032341194E+02 -0.63584377133E+02 -0.27768384549E+03  0.31244066300E+03  0.12500000000E+03 0.  0.
         25    1    1    2    0    0  0.12903073301E+03 -0.21027188626E+03 -0.11946010539E+04  0.12261973227E+04  0.12500000000E+03 0.  0.
</event>
<event>
 5    0  0.5619558E-005  0.3028426E+03  0.7546771E-02  0.1083828E+00
         21   -1    0    0  502  501  0.00000000000E+00  0.00000000000E+00  0.18168916337E+04  0.18168916337E+04  0.00000000000E+00 0.  1.
         21   -1    0    0  501  502 -0.00000000000E+00 -0.00000000000E+00 -0.50478310189E+02  0.50478310189E+02  0.00000000000E+00 0.  1.
         25    1    1    2    0    0 -0.42581632166E+02 -0.18379083956E+03  0.79968519241E+03  0.83109185717E+03  0.12500000000E+03 0.  0.
         25    1    1    2    0    0 -0.46668194067E+02  0.15910461561E+03  0.66715146380E+03  0.69871902414E+03  0.12500000000E+03 0.  0.
         25    1    1    2    0    0  0.89249826233E+02  0.24686223950E+02  0.29957666732E+03  0.33755906259E+03  0.12500000000E+03 0.  0.
</event>
<event>
 5    0  0.5619558E-005  0.3412379E+03  0.7546771E-02  0.1066270E+00
         21   -1    0    0  502  501  0.00000000000E+00  0.00000000000E+00  0.41256738964E+03  0.41256738964E+03  0.00000000000E+00 0. -1.
         21   -1    0    0  501  502 -0.00000000000E+00 -0.00000000000E+00 -0.28224062417E+03  0.28224062417E+03  0.00000000000E+00 0. -1.
         25    1    1    2    0    0  0.15650794839E+02 -0.10787064532E+03  0.60448409065E+02  0.17652204865E+03  0.12500000000E+03 0.  0.
         25    1    1    2    0    0  0.33825501834E+02  0.26749319453E+03 -0.30884772092E+01  0.29720584178E+03  0.12500000000E+03 0.  0.
         25    1    1    2    0    0 -0.49476296673E+02 -0.15962254921E+03  0.72966833613E+02  0.22108012339E+03  0.12500000000E+03 0.  0.
</event>
<event>
 5    0  0.5619558E-005  0.4814862E+03  0.7546771E-02  0.1018728E+00
         21   -1    0    0  502  501  0.00000000000E+00  0.00000000000E+00  0.17258881138E+03  0.17258881138E+03  0.00000000000E+00 0.  1.
         21   -1    0    0  501  502 -0.00000000000E+00 -0.00000000000E+00 -0.13432441730E+04  0.13432441730E+04  0.00000000000E+00 0.  1.
         25    1    1    2    0    0  0.21649117478E+03  0.25249841881E+03 -0.66605398133E+03  0.75490183886E+03  0.12500000000E+03 0.  0.
         25    1    1    2    0    0 -0.27814242020E+03 -0.32586550971E+02 -0.23709336983E+03  0.38763817566E+03  0.12500000000E+03 0.  0.
         25    1    1    2    0    0  0.61651245413E+02 -0.21991186783E+03 -0.26750801042E+03  0.37329296982E+03  0.12500000000E+03 0.  0.
</event>
<event>
 5    0  0.5619558E-005  0.2666204E+03  0.7546771E-02  0.1103230E+00
         21   -1    0    0  502  501  0.00000000000E+00  0.00000000000E+00  0.22549249873E+03  0.22549249873E+03  0.00000000000E+00 0.  1.
         21   -1    0    0  501  502 -0.00000000000E+00 -0.00000000000E+00 -0.31524976234E+03  0.31524976234E+03  0.00000000000E+00 0.  1.
         25    1    1    2    0    0  0.12131320501E+03 -0.82978500042E+01 -0.64830914888E+02  0.18604783135E+03  0.12500000000E+03 0.  0.
         25    1    1    2    0    0 -0.52151538174E+02  0.11323805001E+03 -0.10814837852E+02  0.17687453073E+03  0.12500000000E+03 0.  0.
         25    1    1    2    0    0 -0.69161666837E+02 -0.10494020000E+03 -0.14111510869E+02  0.17781989899E+03  0.12500000000E+03 0.  0.
</event>
<event>
 5    0  0.5619558E-005  0.2249038E+03  0.7546771E-02  0.1130279E+00
         21   -1    0    0  502  501  0.00000000000E+00  0.00000000000E+00  0.69929582651E+03  0.69929582651E+03  0.00000000000E+00 0.  1.
         21   -1    0    0  501  502 -0.00000000000E+00 -0.00000000000E+00 -0.72332355052E+02  0.72332355052E+02  0.00000000000E+00 0.  1.
         25    1    1    2    0    0 -0.20677556413E+02 -0.14062805330E+02  0.27933147183E+03  0.30704461400E+03  0.12500000000E+03 0.  0.
         25    1    1    2    0    0  0.13059825590E+02 -0.41209448611E+02  0.58378269304E+02  0.14457454833E+03  0.12500000000E+03 0.  0.
         25    1    1    2    0    0  0.76177308236E+01  0.55272253941E+02  0.28925373032E+03  0.32000901922E+03  0.12500000000E+03 0.  0.
</event>
<event>
 5    0  0.5619558E-005  0.2966450E+03  0.7546771E-02  0.1086930E+00
         21   -1    0    0  502  501  0.00000000000E+00  0.00000000000E+00  0.24548614414E+03  0.24548614414E+03  0.00000000000E+00 0.  1.
         21   -1    0    0  501  502 -0.00000000000E+00 -0.00000000000E+00 -0.35846521116E+03  0.35846521116E+03  0.00000000000E+00 0.  1.
         25    1    1    2    0    0  0.74234567329E+02  0.16479760647E+03 -0.77161323187E+02  0.23291176845E+03  0.12500000000E+03 0.  0.
         25    1    1    2    0    0  0.54816482795E+02 -0.39261294970E+02  0.23549148697E+02  0.14396478206E+03  0.12500000000E+03 0.  0.
         25    1    1    2    0    0 -0.12905105012E+03 -0.12553631150E+03 -0.59366892537E+02  0.22707480479E+03  0.12500000000E+03 0.  0.
</event>
<event>
 5    0  0.5619558E-005  0.2561199E+03  0.7546771E-02  0.1109497E+00
         21   -1    0    0  502  501  0.00000000000E+00  0.00000000000E+00  0.79105628259E+03  0.79105628259E+03  0.00000000000E+00 0.  1.
         21   -1    0    0  501  502 -0.00000000000E+00 -0.00000000000E+00 -0.82923841233E+02  0.82923841233E+02  0.00000000000E+00 0.  1.
         25    1    1    2    0    0  0.98917589752E+01 -0.11150614699E+03  0.34362562955E+03  0.38240690501E+03  0.12500000000E+03 0.  0.
         25    1    1    2    0    0 -0.41372752977E+02  0.13591135421E+03  0.15608359565E+03  0.24529714577E+03  0.12500000000E+03 0.  0.
         25    1    1    2    0    0  0.31480994002E+02 -0.24405207216E+02  0.20842321616E+03  0.24627607305E+03  0.12500000000E+03 0.  0.
</event>
<event>
 5    0  0.5619558E-005  0.2624557E+03  0.7546771E-02  0.1105677E+00
         21   -1    0    0  502  501  0.00000000000E+00  0.00000000000E+00  0.14373965671E+03  0.14373965671E+03  0.00000000000E+00 0.  1.
         21   -1    0    0  501  502 -0.00000000000E+00 -0.00000000000E+00 -0.47922037013E+03  0.47922037013E+03  0.00000000000E+00 0.  1.
         25    1    1    2    0    0  0.54345234378E+02  0.71937491462E+02 -0.11887201599E+03  0.19463803164E+03  0.12500000000E+03 0.  0.
         25    1    1    2    0    0  0.14500473033E+02 -0.14182313430E+03 -0.45848092044E+02  0.19506694411E+03  0.12500000000E+03 0.  0.
         25    1    1    2    0    0 -0.68845707411E+02  0.69885642835E+02 -0.17076060539E+03  0.23325505109E+03  0.12500000000E+03 0.  0.
</event>
<event>
 5    0  0.5619558E-005  0.6143532E+03  0.7546771E-02  0.9876067E-01
         21   -1    0    0  502  501  0.00000000000E+00  0.00000000000E+00  0.26236704024E+03  0.26236704024E+03  0.00000000000E+00 0.  1.
         21   -1    0    0  501  502 -0.00000000000E+00 -0.00000000000E+00 -0.14385566245E+04  0.14385566245E+04  0.00000000000E+00 0.  1.
         25    1    1    2    0    0 -0.19130524562E+03  0.16720526686E+03 -0.32752028658E+03  0.43295477407E+03  0.12500000000E+03 0.  0.
         25    1    1    2    0    0 -0.17567063662E+03 -0.34500934526E+03 -0.12088582910E+03  0.42441725290E+03  0.12500000000E+03 0.  0.
         25    1    1    2    0    0  0.36697588224E+03  0.17780407840E+03 -0.72778346857E+03  0.84355163776E+03  0.12500000000E+03 0.  0.
</event>
<event>
 5    0  0.5619558E-005  0.3301069E+03  0.7546771E-02  0.1071090E+00
         21   -1    0    0  502  501  0.00000000000E+00  0.00000000000E+00  0.14866996072E+03  0.14866996072E+03  0.00000000000E+00 0.  1.
         21   -1    0    0  501  502 -0.00000000000E+00 -0.00000000000E+00 -0.73296949511E+03  0.73296949511E+03  0.00000000000E+00 0.  1.
         25    1    1    2    0    0  0.13707697769E+03  0.53786182489E+02 -0.45326061730E+03  0.49269994767E+03  0.12500000000E+03 0.  0.
         25    1    1    2    0    0 -0.12773604618E+03 -0.12755605429E+03 -0.63443724971E+02  0.22855448085E+03  0.12500000000E+03 0.  0.
         25    1    1    2    0    0 -0.93409315128E+01  0.73769871800E+02 -0.67595192117E+02  0.16038502731E+03  0.12500000000E+03 0.  0.
</event>
<event>
 5    0  0.5619558E-005  0.3299082E+03  0.7546771E-02  0.1071177E+00
         21   -1    0    0  502  501  0.00000000000E+00  0.00000000000E+00  0.19067900594E+03  0.19067900594E+03  0.00000000000E+00 0. -1.
         21   -1    0    0  501  502 -0.00000000000E+00 -0.00000000000E+00 -0.57079922501E+03  0.57079922501E+03  0.00000000000E+00 0. -1.
         25    1    1    2    0    0 -0.12648716196E+03 -0.23215255681E+03 -0.19772053816E+03  0.35300456511E+03  0.12500000000E+03 0.  0.
         25    1    1    2    0    0  0.54610155256E+02  0.10693336739E+03 -0.10323780681E+03  0.20174255593E+03  0.12500000000E+03 0.  0.
         25    1    1    2    0    0  0.71877006707E+02  0.12521918943E+03 -0.79161874100E+02  0.20673110991E+03  0.12500000000E+03 0.  0.
</event>
<event>
 5    0  0.5619558E-005  0.5018456E+03  0.7546771E-02  0.1013298E+00
         21   -1    0    0  502  501  0.00000000000E+00  0.00000000000E+00  0.21013398214E+04  0.21013398214E+04  0.00000000000E+00 0. -1.
         21   -1    0    0  501  502 -0.00000000000E+00 -0.00000000000E+00 -0.11985160830E+03  0.11985160830E+03  0.00000000000E+00 0. -1.
         25    1    1    2    0    0  0.11619624990E+03 -0.13817822862E+03  0.46181088579E+03  0.51136003519E+03  0.12500000000E+03 0.  0.
         25    1    1    2    0    0 -0.68349985303E+02  0.23134656277E+03  0.15226756853E+04  0.15467253134E+04  0.12500000000E+03 0.  0.
         25    1    1    2    0    0 -0.47846264596E+02 -0.93168334152E+02 -0.29983580197E+01  0.16310608105E+03  0.12500000000E+03 0.  0.
</event>
<event>
 5    0  0.5619558E-005  0.2811462E+03  0.7546771E-02  0.1095065E+00
         21   -1    0    0  502  501  0.00000000000E+00  0.00000000000E+00  0.10924389860E+03  0.10924389860E+03  0.00000000000E+00 0. -1.
         21   -1    0    0  501  502 -0.00000000000E+00 -0.00000000000E+00 -0.72354773919E+03  0.72354773919E+03  0.00000000000E+00 0. -1.
         25    1    1    2    0    0 -0.10427908779E+03  0.16968949362E+02 -0.28773740877E+03  0.33102853321E+03  0.12500000000E+03 0.  0.
         25    1    1    2    0    0  0.72776106165E+02  0.12121919328E+03 -0.19585667064E+03  0.27198398828E+03  0.12500000000E+03 0.  0.
         25    1    1    2    0    0  0.31502981624E+02 -0.13818814264E+03 -0.13070976118E+03  0.22977911629E+03  0.12500000000E+03 0.  0.
</event>
<event>
 5    0  0.5619558E-005  0.2778958E+03  0.7546771E-02  0.1096844E+00
         21   -1    0    0  502  501  0.00000000000E+00  0.00000000000E+00  0.52243233174E+02  0.52243233174E+02  0.00000000000E+00 0. -1.
         21   -1    0    0  501  502 -0.00000000000E+00 -0.00000000000E+00 -0.14782028343E+04  0.14782028343E+04  0.00000000000E+00 0. -1.
         25    1    1    2    0    0 -0.14881254450E+03 -0.50589848959E+02 -0.87453626063E+03  0.89729770833E+03  0.12500000000E+03 0.  0.
         25    1    1    2    0    0  0.10824803781E+03  0.14305477532E+02 -0.22667182610E+03  0.28094020916E+03  0.12500000000E+03 0.  0.
         25    1    1    2    0    0  0.40564506695E+02  0.36284371426E+02 -0.32475151444E+03  0.35220815003E+03  0.12500000000E+03 0.  0.
</event>
<event>
 5    0  0.5619558E-005  0.5032448E+03  0.7546771E-02  0.1012935E+00
         21   -1    0    0  502  501  0.00000000000E+00  0.00000000000E+00  0.14146761430E+03  0.14146761430E+03  0.00000000000E+00 0. -1.
         21   -1    0    0  501  502 -0.00000000000E+00 -0.00000000000E+00 -0.17901997816E+04  0.17901997816E+04  0.00000000000E+00 0. -1.
         25    1    1    2    0    0  0.23789702643E+03 -0.26415541025E+03 -0.93177518846E+03  0.10050885920E+04  0.12500000000E+03 0.  0.
         25    1    1    2    0    0 -0.14215250209E+03  0.17529721572E+03 -0.88688190490E+02  0.27281320133E+03  0.12500000000E+03 0.  0.
         25    1    1    2    0    0 -0.95744524347E+02  0.88858194530E+02 -0.62826878837E+03  0.65376560258E+03  0.12500000000E+03 0.  0.
</event>
<event>
 5    0  0.5619558E-005  0.2229200E+03  0.7546771E-02  0.1131725E+00
         21   -1    0    0  502  501  0.00000000000E+00  0.00000000000E+00  0.16979206133E+04  0.16979206133E+04  0.00000000000E+00 0. -1.
         21   -1    0    0  501  502 -0.00000000000E+00 -0.00000000000E+00 -0.29267172436E+02  0.29267172436E+02  0.00000000000E+00 0. -1.
         25    1    1    2    0    0 -0.44590887429E+02  0.64179631566E+02  0.54524593956E+03  0.56482342989E+03  0.12500000000E+03 0.  0.
         25    1    1    2    0    0  0.20864223165E+02 -0.27518369280E+02  0.27934184471E+03  0.30797636705E+03  0.12500000000E+03 0.  0.
         25    1    1    2    0    0  0.23726664264E+02 -0.36661262286E+02  0.84406565656E+03  0.85438798876E+03  0.12500000000E+03 0.  0.
</event>
<event>
 5    0  0.5970061E-005  0.2984265E+03  0.7546771E-02  0.1086030E+00
         21   -1    0    0  502  501  0.00000000000E+00  0.00000000000E+00  0.17596016319E+03  0.17596016319E+03  0.00000000000E+00 0.  1.
         21   -1    0    0  501  502 -0.00000000000E+00 -0.00000000000E+00 -0.50612805150E+03  0.50612805150E+03  0.00000000000E+00 0.  1.
         25    1    1    2    0    0 -0.14466882007E+03  0.22051588920E+02 -0.22087189850E+03  0.29295859028E+03  0.12500000000E+03 0.  0.
         25    1    1    2    0    0  0.75803415324E+02  0.95703097742E+02 -0.97783275866E+00  0.17473178546E+03  0.12500000000E+03 0.  0.
         25    1    1    2    0    0  0.68865404745E+02 -0.11775468666E+03 -0.10831815704E+03  0.21439783895E+03  0.12500000000E+03 0.  0.
</event>
<event>
 5    0  0.5619558E-005  0.3392913E+03  0.7546771E-02  0.1067098E+00
         21   -1    0    0  502  501  0.00000000000E+00  0.00000000000E+00  0.11356884091E+04  0.11356884091E+04  0.00000000000E+00 0. -1.
         21   -1    0    0  501  502 -0.00000000000E+00 -0.00000000000E+00 -0.10136457848E+03  0.10136457848E+03  0.00000000000E+00 0. -1.
         25    1    1    2    0    0  0.13315555203E+03  0.58402849871E+02  0.80905528806E+03  0.83146662774E+03  0.12500000000E+03 0.  0.
         25    1    1    2    0    0 -0.80162523513E+02 -0.10552422776E+03  0.17695858096E+03  0.25396994349E+03  0.12500000000E+03 0.  0.
         25    1    1    2    0    0 -0.52993028512E+02  0.47121377888E+02  0.48309961642E+02  0.15161641639E+03  0.12500000000E+03 0.  0.
</event>
<event>
 5    0  0.5619558E-005  0.2729328E+03  0.7546771E-02  0.1099613E+00
         21   -1    0    0  502  501  0.00000000000E+00  0.00000000000E+00  0.77834641626E+03  0.77834641626E+03  0.00000000000E+00 0. -1.
         21   -1    0    0  501  502 -0.00000000000E+00 -0.00000000000E+00 -0.95705885332E+02  0.95705885332E+02  0.00000000000E+00 0. -1.
         25    1    1    2    0    0  0.11101996457E+03  0.40330436881E+02  0.26950312421E+03  0.31970128343E+03  0.12500000000E+03 0.  0.
         25    1    1    2    0    0 -0.78866631474E+02  0.98989228540E+02  0.17242172376E+03  0.24773587498E+03  0.12500000000E+03 0.  0.
         25    1    1    2    0    0 -0.32153333098E+02 -0.13931966542E+03  0.24071568296E+03  0.30661514318E+03  0.12500000000E+03 0.  0.
</event>
<event>
 5    0  0.5619558E-005  0.4146312E+03  0.7546771E-02  0.1038828E+00
         21   -1    0    0  502  501  0.00000000000E+00  0.00000000000E+00  0.29795816821E+03  0.29795816821E+03  0.00000000000E+00 0. -1.
         21   -1    0    0  501  502 -0.00000000000E+00 -0.00000000000E+00 -0.57699048911E+03  0.57699048911E+03  0.00000000000E+00 0. -1.
         25    1    1    2    0    0  0.11357130683E+03  0.76045010027E+02 -0.88340849456E+02  0.20520816496E+03  0.12500000000E+03 0.  0.
         25    1    1    2    0    0  0.22665747128E+03 -0.10290712575E+03 -0.84911077324E+02  0.29120160863E+03  0.12500000000E+03 0.  0.
         25    1    1    2    0    0 -0.34022877811E+03  0.26862115722E+02 -0.10578039412E+03  0.37853888373E+03  0.12500000000E+03 0.  0.
</event>
<event>
 5    0  0.5619558E-005  0.4180907E+03  0.7546771E-02  0.1037690E+00
         21   -1    0    0  502  501  0.00000000000E+00  0.00000000000E+00  0.43017265136E+03  0.43017265136E+03  0.00000000000E+00 0.  1.
         21   -1    0    0  501  502 -0.00000000000E+00 -0.00000000000E+00 -0.40634800463E+03  0.40634800463E+03  0.00000000000E+00 0.  1.
         25    1    1    2    0    0 -0.17675668068E+02 -0.80039308161E+00 -0.11642421103E+03  0.17173429123E+03  0.12500000000E+03 0.  0.
         25    1    1    2    0    0 -0.15577239211E+03 -0.19105704546E+03  0.23449065508E+03  0.36246199812E+03  0.12500000000E+03 0.  0.
         25    1    1    2    0    0  0.17344806017E+03  0.19185743854E+03 -0.94241797322E+02  0.30232436664E+03  0.12500000000E+03 0.  0.
</event>
<event>
 5    0  0.5619558E-005  0.3849363E+03  0.7546771E-02  0.1049124E+00
         21   -1    0    0  502  501  0.00000000000E+00  0.00000000000E+00  0.36833948043E+03  0.36833948043E+03  0.00000000000E+00 0.  1.
         21   -1    0    0  501  502 -0.00000000000E+00 -0.00000000000E+00 -0.40228095821E+03  0.40228095821E+03  0.00000000000E+00 0.  1.
         25    1    1    2    0    0 -0.22473897987E+03 -0.25798232022E+02  0.18031372633E+03  0.31513679213E+03  0.12500000000E+03 0.  0.
         25    1    1    2    0    0  0.49708883279E+02  0.92266667219E+02 -0.32913656683E+02  0.16641039557E+03  0.12500000000E+03 0.  0.
         25    1    1    2    0    0  0.17503009659E+03 -0.66468435197E+02 -0.18134154742E+03  0.28907325095E+03  0.12500000000E+03 0.  0.
</event>
<event>
 5    0  0.5619558E-005  0.3319041E+03  0.7546771E-02  0.1070297E+00
         21   -1    0    0  502  501  0.00000000000E+00  0.00000000000E+00  0.29437329734E+03  0.29437329734E+03  0.00000000000E+00 0.  1.
         21   -1    0    0  501  502 -0.00000000000E+00 -0.00000000000E+00 -0.37421993425E+03  0.37421993425E+03  0.00000000000E+00 0.  1.
         25    1    1    2    0    0  0.12733440725E+01 -0.91437555639E+02  0.57793125733E+01  0.15498660729E+03  0.12500000000E+03 0.  0.
         25    1    1    2    0    0 -0.84361154058E+02  0.23924265071E+03  0.83795494164E+01  0.28292943834E+03  0.12500000000E+03 0.  0.
         25    1    1    2    0    0  0.83087809985E+02 -0.14780509507E+03 -0.94005498908E+02  0.23067718596E+03  0.12500000000E+03 0.  0.
</event>
<event>
 5    0  0.5619558E-005  0.4474378E+03  0.7546771E-02  0.1028489E+00
         21   -1    0    0  502  501  0.00000000000E+00  0.00000000000E+00  0.65475627707E+03  0.65475627707E+03  0.00000000000E+00 0. -1.
         21   -1    0    0  501  502 -0.00000000000E+00 -0.00000000000E+00 -0.30576348493E+03  0.30576348493E+03  0.00000000000E+00 0.  1.
         25    1    1    2    0    0  0.11151674482E+03  0.82002747552E+02  0.22260597886E+03  0.29041153008E+03  0.12500000000E+03 0.  0.
         25    1    1    2    0    0  0.10657779957E+03  0.17327659257E+03  0.19137012045E+03  0.30599203894E+03  0.12500000000E+03 0.  0.
         25    1    1    2    0    0 -0.21809454439E+03 -0.25527934012E+03 -0.64983307168E+02  0.36411619298E+03  0.12500000000E+03 0.  0.
</event>
<event>
 5    0  0.5619558E-005  0.2146042E+03  0.7546771E-02  0.1137971E+00
         21   -1    0    0  502  501  0.00000000000E+00  0.00000000000E+00  0.85784060249E+02  0.85784060249E+02  0.00000000000E+00 0.  1.
         21   -1    0    0  501  502 -0.00000000000E+00 -0.00000000000E+00 -0.53687081579E+03  0.53687081579E+03  0.00000000000E+00 0.  1.
         25    1    1    2    0    0  0.61888867293E+02 -0.17558074354E+01 -0.25041757286E+03  0.28664834824E+03  0.12500000000E+03 0.  0.
         25    1    1    2    0    0 -0.21285250315E+02 -0.33797433713E+02 -0.11956371168E+03  0.17752692629E+03  0.12500000000E+03 0.  0.
         25    1    1    2    0    0 -0.40603616979E+02  0.35553241148E+02 -0.81105471004E+02  0.15847960151E+03  0.12500000000E+03 0.  0.
</event>
<event>
 5    0  0.5619558E-005  0.2220830E+03  0.7546771E-02  0.1132340E+00
         21   -1    0    0  502  501  0.00000000000E+00  0.00000000000E+00  0.26872438755E+03  0.26872438755E+03  0.00000000000E+00 0.  1.
         21   -1    0    0  501  502 -0.00000000000E+00 -0.00000000000E+00 -0.18353703454E+03  0.18353703454E+03  0.00000000000E+00 0.  1.
         25    1    1    2    0    0 -0.57381095821E+02 -0.15621376402E+02 -0.93667292247E+01  0.13874203824E+03  0.12500000000E+03 0.  0.
         25    1    1    2    0    0  0.11711128251E+02  0.46687555238E+01  0.12428046218E+03  0.17671893244E+03  0.12500000000E+03 0.  0.
         25    1    1    2    0    0  0.45669967571E+02  0.10952620878E+02 -0.29726379950E+02  0.13680045141E+03  0.12500000000E+03 0.  0.
</event>
<event>
 5    0  0.5619558E-005  0.2040551E+03  0.7546771E-02  0.1146362E+00
         21   -1    0    0  502  501  0.00000000000E+00  0.00000000000E+00  0.42515493220E+02  0.42515493220E+02  0.00000000000E+00 0. -1.
         21   -1    0    0  501  502 -0.00000000000E+00 -0.00000000000E+00 -0.97937184145E+03  0.97937184145E+03  0.00000000000E+00 0. -1.
         25    1    1    2    0    0  0.17413026130E+02 -0.37158337281E+02 -0.41040327577E+03  0.43097541029E+03  0.12500000000E+03 0.  0.
         25    1    1    2    0    0 -0.42973408309E+02  0.46393647068E+02 -0.25972006426E+03  0.29509082685E+03  0.12500000000E+03 0.  0.
         25    1    1    2    0    0  0.25560382179E+02 -0.92353097874E+01 -0.26673300819E+03  0.29582109753E+03  0.12500000000E+03 0.  0.
</event>
<event>
 5    0  0.5619558E-005  0.2655849E+03  0.7546771E-02  0.1103833E+00
         21   -1    0    0  502  501  0.00000000000E+00  0.00000000000E+00  0.85596771918E+02  0.85596771918E+02  0.00000000000E+00 0. -1.
         21   -1    0    0  501  502 -0.00000000000E+00 -0.00000000000E+00 -0.82404186590E+03  0.82404186590E+03  0.00000000000E+00 0. -1.
         25    1    1    2    0    0  0.47049815852E+02 -0.18625481648E+02 -0.17416653403E+03  0.22027159443E+03  0.12500000000E+03 0.  0.
         25    1    1    2    0    0 -0.13884353909E+03  0.10795913263E+03 -0.28097578133E+03  0.35426697893E+03  0.12500000000E+03 0.  0.
         25    1    1    2    0    0  0.91793723240E+02 -0.89333650979E+02 -0.28330277862E+03  0.33510006445E+03  0.12500000000E+03 0.  0.
</event>
<event>
 5    0  0.5619558E-005  0.2890895E+03  0.7546771E-02  0.1090826E+00
         21   -1    0    0  502  501  0.00000000000E+00  0.00000000000E+00  0.79846826146E+03  0.79846826146E+03  0.00000000000E+00 0.  1.
         21   -1    0    0  501  502 -0.00000000000E+00 -0.00000000000E+00 -0.10466629211E+03  0.10466629211E+03  0.00000000000E+00 0.  1.
         25    1    1    2    0    0 -0.29050385301E+02  0.17984810704E+03  0.16447333597E+03  0.27543736990E+03  0.12500000000E+03 0.  0.
         25    1    1    2    0    0  0.15289414446E+02 -0.15069701679E+02  0.24437189511E+03  0.27532432733E+03  0.12500000000E+03 0.  0.
         25    1    1    2    0    0  0.13760970854E+02 -0.16477840537E+03  0.28495673828E+03  0.35237285634E+03  0.12500000000E+03 0.  0.
</event>
<event>
 5    0  0.5619558E-005  0.3189283E+03  0.7546771E-02  0.1076144E+00
         21   -1    0    0  502  501  0.00000000000E+00  0.00000000000E+00  0.51657917691E+03  0.51657917691E+03  0.00000000000E+00 0.  1.
         21   -1    0    0  501  502 -0.00000000000E+00 -0.00000000000E+00 -0.19690161631E+03  0.19690161631E+03  0.00000000000E+00 0.  1.
         25    1    1    2    0    0 -0.47877694134E+02  0.71098460043E+02  0.11985698162E+03  0.19323033059E+03  0.12500000000E+03 0.  0.
         25    1    1    2    0    0 -0.28905018602E+02 -0.38972559070E+02  0.30749781212E+03  0.33546127186E+03  0.12500000000E+03 0.  0.
         25    1    1    2    0    0  0.76782712736E+02 -0.32125900973E+02 -0.10767723314E+03  0.18478919077E+03  0.12500000000E+03 0.  0.
</event>
<event>
 5    0  0.5619558E-005  0.2472636E+03  0.7546771E-02  0.1115046E+00
         21   -1    0    0  502  501  0.00000000000E+00  0.00000000000E+00  0.23044970963E+02  0.23044970963E+02  0.00000000000E+00 0.  1.
         21   -1    0    0  501  502 -0.00000000000E+00 -0.00000000000E+00 -0.26530427069E+04  0.26530427069E+04  0.00000000000E+00 0.  1.
         25    1    1    2    0    0  0.59110192740E+02 -0.68142365442E+02 -0.12504364080E+04  0.12599022213E+04  0.12500000000E+03 0.  0.
         25    1    1    2    0    0  0.38370287852E+02 -0.24296968622E+02 -0.68510921672E+03  0.69789846002E+03  0.12500000000E+03 0.  0.
         25    1    1    2    0    0 -0.97480480592E+02  0.92439334064E+02 -0.69445211124E+03  0.71828699653E+03  0.12500000000E+03 0.  0.
</event>
<event>
 5    0  0.5619558E-005  0.2971428E+03  0.7546771E-02  0.1086678E+00
         21   -1    0    0  502  501  0.00000000000E+00  0.00000000000E+00  0.74676977127E+02  0.74676977127E+02  0.00000000000E+00 0. -1.
         21   -1    0    0  501  502 -0.00000000000E+00 -0.00000000000E+00 -0.11823433831E+04  0.11823433831E+04  0.00000000000E+00 0. -1.
         25    1    1    2    0    0 -0.44875785780E+02  0.94079296756E+02 -0.66878136467E+03  0.68830099808E+03  0.12500000000E+03 0.  0.
         25    1    1    2    0    0  0.13305335035E+03 -0.89427552586E+00 -0.21930251107E+03  0.28534643003E+03  0.12500000000E+03 0.  0.
         25    1    1    2    0    0 -0.88177564568E+02 -0.93185021230E+02 -0.21958253023E+03  0.28337293212E+03  0.12500000000E+03 0.  0.
</event>
<event>
 5    0  0.5619558E-005  0.3337140E+03  0.7546771E-02  0.1069505E+00
         21   -1    0    0  502  501  0.00000000000E+00  0.00000000000E+00  0.61037759497E+03  0.61037759497E+03  0.00000000000E+00 0. -1.
         21   -1    0    0  501  502 -0.00000000000E+00 -0.00000000000E+00 -0.18245268476E+03  0.18245268476E+03  0.00000000000E+00 0. -1.
         25    1    1    2    0    0  0.14399984297E+02  0.25720164531E+03  0.20613511023E+03  0.35281259836E+03  0.12500000000E+03 0.  0.
         25    1    1    2    0    0 -0.33956228035E+02 -0.19627172905E+03  0.17070452987E+03  0.29058674017E+03  0.12500000000E+03 0.  0.
         25    1    1    2    0    0  0.19556243738E+02 -0.60929916259E+02  0.51085270114E+02  0.14943094120E+03  0.12500000000E+03 0.  0.
</event>
<event>
 5    0  0.5619558E-005  0.3520574E+03  0.7546771E-02  0.1061774E+00
         21   -1    0    0  502  501  0.00000000000E+00  0.00000000000E+00  0.19242224852E+03  0.19242224852E+03  0.00000000000E+00 0.  1.
         21   -1    0    0  501  502 -0.00000000000E+00 -0.00000000000E+00 -0.64412714912E+03  0.64412714912E+03  0.00000000000E+00 0.  1.
         25    1    1    2    0    0  0.75293113950E+02  0.16838433782E+03 -0.12457499283E+03  0.25527684398E+03  0.12500000000E+03 0.  0.
         25    1    1    2    0    0  0.12352450053E+03 -0.14545330757E+03 -0.85721184837E+02  0.24369671406E+03  0.12500000000E+03 0.  0.
         25    1    1    2    0    0 -0.19881761448E+03 -0.22931030251E+02 -0.24140872293E+03  0.33757583960E+03  0.12500000000E+03 0.  0.
</event>
<event>
 5    0  0.5619558E-005  0.3395679E+03  0.7546771E-02  0.1066980E+00
         21   -1    0    0  502  501  0.00000000000E+00  0.00000000000E+00  0.23231439598E+04  0.23231439598E+04  0.00000000000E+00 0. -1.
         21   -1    0    0  501  502 -0.00000000000E+00 -0.00000000000E+00 -0.49633756721E+02  0.49633756721E+02  0.00000000000E+00 0. -1.
         25    1    1    2    0    0  0.82533167536E+02 -0.19775614167E+03  0.47207234874E+03  0.53328840017E+03  0.12500000000E+03 0.  0.
         25    1    1    2    0    0 -0.61683880409E+02  0.20116498432E+03  0.11321251855E+04  0.11582766024E+04  0.12500000000E+03 0.  0.
         25    1    1    2    0    0 -0.20849287127E+02 -0.34088426499E+01  0.66931266876E+03  0.68121271388E+03  0.12500000000E+03 0.  0.
</event>
<event>
 5    0  0.5619558E-005  0.4574685E+03  0.7546771E-02  0.1025518E+00
         21   -1    0    0  502  501  0.00000000000E+00  0.00000000000E+00  0.12377146696E+03  0.12377146696E+03  0.00000000000E+00 0. -1.
         21   -1    0    0  501  502 -0.00000000000E+00 -0.00000000000E+00 -0.16908375100E+04  0.16908375100E+04  0.00000000000E+00 0. -1.
         25    1    1    2    0    0  0.16073774832E+03  0.10540356313E+03 -0.10412277060E+03  0.25181955089E+03  0.12500000000E+03 0.  0.
         25    1    1    2    0    0  0.11534890091E+03  0.54690228960E+02 -0.28840543945E+03  0.33926256438E+03  0.12500000000E+03 0.  0.
         25    1    1    2    0    0 -0.27608664923E+03 -0.16009379209E+03 -0.11745378330E+04  0.12235268617E+04  0.12500000000E+03 0.  0.
</event>
<event>
 5    0  0.5619558E-005  0.3266998E+03  0.7546771E-02  0.1072606E+00
         21   -1    0    0  502  501  0.00000000000E+00  0.00000000000E+00  0.38894331550E+03  0.38894331550E+03  0.00000000000E+00 0. -1.
         21   -1    0    0  501  502 -0.00000000000E+00 -0.00000000000E+00 -0.27441731583E+03  0.27441731583E+03  0.00000000000E+00 0. -1.
         25    1    1    2    0    0  0.36430132792E+02 -0.60425547434E+02  0.19723480517E+03  0.24393640509E+03  0.12500000000E+03 0.  0.
         25    1    1    2    0    0 -0.53731346953E+02 -0.30674634176E+02  0.10573135976E+03  0.17502031672E+03  0.12500000000E+03 0.  0.
         25    1    1    2    0    0  0.17301214161E+02  0.91100181609E+02 -0.18844016527E+03  0.24440390952E+03  0.12500000000E+03 0.  0.
</event>
<event>
 5    0  0.5619558E-005  0.3867824E+03  0.7546771E-02  0.1048455E+00
         21   -1    0    0  502  501  0.00000000000E+00  0.00000000000E+00  0.14529795725E+03  0.14529795725E+03  0.00000000000E+00 0. -1.
         21   -1    0    0  501  502 -0.00000000000E+00 -0.00000000000E+00 -0.10296125580E+04  0.10296125580E+04  0.00000000000E+00 0. -1.
         25    1    1    2    0    0 -0.16254516914E+03  0.48067044310E+02 -0.44362853933E+03  0.49108314333E+03  0.12500000000E+03 0.  0.
         25    1    1    2    0    0  0.58800339505E+02  0.64472535192E+02 -0.46063447541E+03  0.48520439781E+03  0.12500000000E+03 0.  0.
         25    1    1    2    0    0  0.10374482963E+03 -0.11253957950E+03  0.19948413963E+02  0.19862297412E+03  0.12500000000E+03 0.  0.
</event>
<event>
 5    0  0.5619558E-005  0.3897250E+03  0.7546771E-02  0.1047397E+00
         21   -1    0    0  502  501  0.00000000000E+00  0.00000000000E+00  0.45435125410E+03  0.45435125410E+03  0.00000000000E+00 0. -1.
         21   -1    0    0  501  502 -0.00000000000E+00 -0.00000000000E+00 -0.33429115280E+03  0.33429115280E+03  0.00000000000E+00 0. -1.
         25    1    1    2    0    0 -0.24346851074E+03  0.17946196440E+03  0.21218498278E+02  0.32796148715E+03  0.12500000000E+03 0.  0.
         25    1    1    2    0    0  0.21023310649E+03 -0.52000866066E+02 -0.76411683082E+01  0.25017081483E+03  0.12500000000E+03 0.  0.
         25    1    1    2    0    0  0.33235404242E+02 -0.12746109833E+03  0.10648277133E+03  0.21051010492E+03  0.12500000000E+03 0.  0.
</event>
<event>
 5    0  0.5619558E-005  0.2641436E+03  0.7546771E-02  0.1104679E+00
         21   -1    0    0  502  501  0.00000000000E+00  0.00000000000E+00  0.14576855908E+03  0.14576855908E+03  0.00000000000E+00 0. -1.
         21   -1    0    0  501  502 -0.00000000000E+00 -0.00000000000E+00 -0.47864814237E+03  0.47864814237E+03  0.00000000000E+00 0. -1.
         25    1    1    2    0    0  0.61944148226E+02  0.14217763508E+03 -0.73826751344E+02  0.21243103970E+03  0.12500000000E+03 0.  0.
         25    1    1    2    0    0 -0.10086961256E+02 -0.46312385280E+02 -0.19005079886E+03  0.23235939827E+03  0.12500000000E+03 0.  0.
         25    1    1    2    0    0 -0.51857186970E+02 -0.95865249799E+02 -0.69002033088E+02  0.17962626347E+03  0.12500000000E+03 0.  0.
</event>
<event>
 5    0  0.5619558E-005  0.3916785E+03  0.7546771E-02  0.1046700E+00
         21   -1    0    0  502  501  0.00000000000E+00  0.00000000000E+00  0.84106136228E+03  0.84106136228E+03  0.00000000000E+00 0. -1.
         21   -1    0    0  501  502 -0.00000000000E+00 -0.00000000000E+00 -0.18240288435E+03  0.18240288435E+03  0.00000000000E+00 0. -1.
         25    1    1    2    0    0 -0.14428591134E+03  0.11801940336E+03  0.27684415172E+03  0.35639120096E+03  0.12500000000E+03 0.  0.
         25    1    1    2    0    0  0.24044504641E+03 -0.12611589493E+03  0.40925912376E+03  0.50679095264E+03  0.12500000000E+03 0.  0.
         25    1    1    2    0    0 -0.96159135068E+02  0.80964915706E+01 -0.27444797555E+02  0.16028209303E+03  0.12500000000E+03 0.  0.
</event>
<event>
 5    0  0.5619558E-005  0.2152143E+03  0.7546771E-02  0.1137502E+00
         21   -1    0    0  502  501  0.00000000000E+00  0.00000000000E+00  0.12967013384E+03  0.12967013384E+03  0.00000000000E+00 0. -1.
         21   -1    0    0  501  502 -0.00000000000E+00 -0.00000000000E+00 -0.35719235097E+03  0.35719235097E+03  0.00000000000E+00 0. -1.
         25    1    1    2    0    0 -0.47843672223E+02  0.11434779677E+02 -0.23041900210E+02  0.13629270092E+03  0.12500000000E+03 0.  0.
         25    1    1    2    0    0  0.10310108484E+01  0.14867033626E+02 -0.30163359372E+02  0.12944852228E+03  0.12500000000E+03 0.  0.
         25    1    1    2    0    0  0.46812661374E+02 -0.26301813302E+02 -0.17431695755E+03  0.22112126161E+03  0.12500000000E+03 0.  0.
</event>
<event>
 5    0  0.5619558E-005  0.3788696E+03  0.7546771E-02  0.1051352E+00
         21   -1    0    0  502  501  0.00000000000E+00  0.00000000000E+00  0.51707088166E+03  0.51707088166E+03  0.00000000000E+00 0.  1.
         21   -1    0    0  501  502 -0.00000000000E+00 -0.00000000000E+00 -0.27760642792E+03  0.27760642792E+03  0.00000000000E+00 0.  1.
         25    1    1    2    0    0  0.22067464343E+02  0.97120876581E+02  0.98256614666E+02  0.18761343229E+03  0.12500000000E+03 0.  0.
         25    1    1    2    0    0  0.11338378713E+03 -0.35358788264E+02 -0.16870585219E+03  0.24123182140E+03  0.12500000000E+03 0.  0.
         25    1    1    2    0    0 -0.13545125148E+03 -0.61762088317E+02  0.30991369127E+03  0.36583205589E+03  0.12500000000E+03 0.  0.
</event>
<event>
 5    0  0.5619558E-005  0.3015483E+03  0.7546771E-02  0.1084469E+00
         21   -1    0    0  502  501  0.00000000000E+00  0.00000000000E+00  0.29818211213E+03  0.29818211213E+03  0.00000000000E+00 0. -1.
         21   -1    0    0  501  502 -0.00000000000E+00 -0.00000000000E+00 -0.30495256332E+03  0.30495256332E+03  0.00000000000E+00 0. -1.
         25    1    1    2    0    0 -0.15488185762E+02  0.61990337536E+02  0.78343522046E+02  0.16076502509E+03  0.12500000000E+03 0.  0.
         25    1    1    2    0    0 -0.97387832594E+02 -0.23853461769E+02 -0.18350253762E+03  0.24362175372E+03  0.12500000000E+03 0.  0.
         25    1    1    2    0    0  0.11287601836E+03 -0.38136875767E+02  0.98388564381E+02  0.19874789663E+03  0.12500000000E+03 0.  0.
</event>
<event>
 5    0  0.5619558E-005  0.6054143E+03  0.7546771E-02  0.9894236E-01
         21   -1    0    0  502  501  0.00000000000E+00  0.00000000000E+00  0.14555557477E+03  0.14555557477E+03  0.00000000000E+00 0. -1.
         21   -1    0    0  501  502 -0.00000000000E+00 -0.00000000000E+00 -0.25181206922E+04  0.25181206922E+04  0.00000000000E+00 0. -1.
         25    1    1    2    0    0  0.25594431403E+03  0.31464745891E+03 -0.12425455816E+04  0.13130327633E+04  0.12500000000E+03 0.  0.
         25    1    1    2    0    0 -0.27296259788E+03 -0.31695172171E+03 -0.34741454987E+03  0.55793265113E+03  0.12500000000E+03 0.  0.
         25    1    1    2    0    0  0.17018283858E+02  0.23042627917E+01 -0.78260498594E+03  0.79271085247E+03  0.12500000000E+03 0.  0.
</event>
<event>
 5    0  0.5619558E-005  0.2912680E+03  0.7546771E-02  0.1089689E+00
         21   -1    0    0  502  501  0.00000000000E+00  0.00000000000E+00  0.91074871890E+03  0.91074871890E+03  0.00000000000E+00 0. -1.
         21   -1    0    0  501  502 -0.00000000000E+00 -0.00000000000E+00 -0.93150879782E+02  0.93150879782E+02  0.00000000000E+00 0. -1.
         25    1    1    2    0    0 -0.58570426347E+02  0.14512760204E+03  0.17413603434E+03  0.26540699722E+03  0.12500000000E+03 0.  0.
         25    1    1    2    0    0 -0.14764298199E+02  0.17459708892E+02  0.13527782481E+03  0.18560149736E+03  0.12500000000E+03 0.  0.
         25    1    1    2    0    0  0.73334724546E+02 -0.16258731094E+03  0.50818397997E+03  0.55289110411E+03  0.12500000000E+03 0.  0.
</event>
<event>
 5    0  0.5619558E-005  0.2919096E+03  0.7546771E-02  0.1089356E+00
         21   -1    0    0  502  501  0.00000000000E+00  0.00000000000E+00  0.17610214613E+03  0.17610214613E+03  0.00000000000E+00 0.  1.
         21   -1    0    0  501  502 -0.00000000000E+00 -0.00000000000E+00 -0.48387368672E+03  0.48387368672E+03  0.00000000000E+00 0.  1.
         25    1    1    2    0    0  0.27022581734E+02 -0.64675425860E+02 -0.11034432400E+03  0.18087012045E+03  0.12500000000E+03 0.  0.
         25    1    1    2    0    0  0.11454804940E+03  0.19819321397E+02 -0.22566029552E+03  0.28295163914E+03  0.12500000000E+03 0.  0.
         25    1    1    2    0    0 -0.14157063113E+03  0.44856104463E+02  0.28233078930E+02  0.19615407325E+03  0.12500000000E+03 0.  0.
</event>
<event>
 5    0  0.5619558E-005  0.3569375E+03  0.7546771E-02  0.1059803E+00
         21   -1    0    0  502  501  0.00000000000E+00  0.00000000000E+00  0.12439915099E+03  0.12439915099E+03  0.00000000000E+00 0.  1.
         21   -1    0    0  501  502 -0.00000000000E+00 -0.00000000000E+00 -0.10241577364E+04  0.10241577364E+04  0.00000000000E+00 0.  1.
         25    1    1    2    0    0 -0.16552812676E+03 -0.10814020175E+03 -0.40240527453E+03  0.46545554992E+03  0.12500000000E+03 0.  0.
         25    1    1    2    0    0 -0.31133923890E+02  0.11561695848E+03 -0.38947548876E+03  0.42620741272E+03  0.12500000000E+03 0.  0.
         25    1    1    2    0    0  0.19666205065E+03 -0.74767567335E+01 -0.10787782207E+03  0.25689392471E+03  0.12500000000E+03 0.  0.
</event>
<event>
 5    0  0.5619558E-005  0.2531453E+03  0.7546771E-02  0.1111333E+00
         21   -1    0    0  502  501  0.00000000000E+00  0.00000000000E+00  0.58918383525E+03  0.58918383525E+03  0.00000000000E+00 0.  1.
         21   -1    0    0  501  502 -0.00000000000E+00 -0.00000000000E+00 -0.10876490255E+03  0.10876490255E+03  0.00000000000E+00 0.  1.
         25    1    1    2    0    0  0.32371495982E+02 -0.41167413601E+02  0.12129686145E+03  0.18188072546E+03  0.12500000000E+03 0.  0.
         25    1    1    2    0    0  0.94284581287E+02  0.33555690724E+02  0.27695768280E+03  0.31991580878E+03  0.12500000000E+03 0.  0.
         25    1    1    2    0    0 -0.12665607727E+03  0.76117228767E+01  0.82164388448E+02  0.19615220356E+03  0.12500000000E+03 0.  0.
</event>
<event>
 5    0  0.5619558E-005  0.3674258E+03  0.7546771E-02  0.1055682E+00
         21   -1    0    0  502  501  0.00000000000E+00  0.00000000000E+00  0.89428147870E+03  0.89428147870E+03  0.00000000000E+00 0. -1.
         21   -1    0    0  501  502 -0.00000000000E+00 -0.00000000000E+00 -0.15096106799E+03  0.15096106799E+03  0.00000000000E+00 0. -1.
         25    1    1    2    0    0 -0.78666193730E+02 -0.14545261928E+03  0.24040489894E+03  0.31743400877E+03  0.12500000000E+03 0.  0.
         25    1    1    2    0    0  0.12789338464E+03 -0.12890285439E+03  0.21993729428E+03  0.31140018805E+03  0.12500000000E+03 0.  0.
         25    1    1    2    0    0 -0.49227190914E+02  0.27435547367E+03  0.28297821749E+03  0.41640834986E+03  0.12500000000E+03 0.  0.
</event>
<event>
 5    0  0.5619558E-005  0.2337359E+03  0.7546771E-02  0.1124038E+00
         21   -1    0    0  502  501  0.00000000000E+00  0.00000000000E+00  0.39798317774E+02  0.39798317774E+02  0.00000000000E+00 0. -1.
         21   -1    0    0  501  502 -0.00000000000E+00 -0.00000000000E+00 -0.13727329324E+04  0.13727329324E+04  0.00000000000E+00 0. -1.
         25    1    1    2    0    0  0.94344852911E+02 -0.12249278752E+02 -0.35016395976E+03  0.38378482880E+03  0.12500000000E+03 0.  0.
         25    1    1    2    0    0  0.21412906840E+02 -0.37298013834E+01 -0.31978533908E+03  0.34403500853E+03  0.12500000000E+03 0.  0.
         25    1    1    2    0    0 -0.11575775975E+03  0.15979080136E+02 -0.66298531577E+03  0.68471141284E+03  0.12500000000E+03 0.  0.
</event>
<event>
 5    0  0.5619558E-005  0.4684624E+03  0.7546771E-02  0.1022355E+00
         21   -1    0    0  502  501  0.00000000000E+00  0.00000000000E+00  0.52584722658E+03  0.52584722658E+03  0.00000000000E+00 0. -1.
         21   -1    0    0  501  502 -0.00000000000E+00 -0.00000000000E+00 -0.41733990556E+03  0.41733990556E+03  0.00000000000E+00 0. -1.
         25    1    1    2    0    0 -0.33799167220E+03 -0.58889239349E+02 -0.15594558874E+03  0.39705206162E+03  0.12500000000E+03 0.  0.
         25    1    1    2    0    0  0.27094197881E+03 -0.19211194081E+02  0.23778261628E+03  0.38202643687E+03  0.12500000000E+03 0.  0.
         25    1    1    2    0    0  0.67049693387E+02  0.78100433430E+02  0.26670293488E+02  0.16410863365E+03  0.12500000000E+03 0.  0.
</event>
<event>
 5    0  0.5619558E-005  0.3199143E+03  0.7546771E-02  0.1075689E+00
         21   -1    0    0  502  501  0.00000000000E+00  0.00000000000E+00  0.86403339752E+03  0.86403339752E+03  0.00000000000E+00 0.  1.
         21   -1    0    0  501  502 -0.00000000000E+00 -0.00000000000E+00 -0.11845049651E+03  0.11845049651E+03  0.00000000000E+00 0.  1.
         25    1    1    2    0    0 -0.67899127407E+02 -0.27224998044E+02  0.15138717047E+03  0.20951030382E+03  0.12500000000E+03 0.  0.
         25    1    1    2    0    0  0.17098697669E+03 -0.88266261623E-01  0.56848861789E+03  0.60666371464E+03  0.12500000000E+03 0.  0.
         25    1    1    2    0    0 -0.10308784928E+03  0.27313264306E+02  0.25707112646E+02  0.16630987558E+03  0.12500000000E+03 0.  0.
</event>
<event>
 5    0  0.5619558E-005  0.2707217E+03  0.7546771E-02  0.1100867E+00
         21   -1    0    0  502  501  0.00000000000E+00  0.00000000000E+00  0.10194738299E+04  0.10194738299E+04  0.00000000000E+00 0. -1.
         21   -1    0    0  501  502 -0.00000000000E+00 -0.00000000000E+00 -0.71890241145E+02  0.71890241145E+02  0.00000000000E+00 0. -1.
         25    1    1    2    0    0 -0.12251180371E+03  0.11935382730E+03  0.44898901568E+03  0.49645806907E+03  0.12500000000E+03 0.  0.
         25    1    1    2    0    0  0.96311457017E+02 -0.39008283419E+02  0.18091073396E+03  0.24321027238E+03  0.12500000000E+03 0.  0.
         25    1    1    2    0    0  0.26200346690E+02 -0.80345543879E+02  0.31768383915E+03  0.35169572964E+03  0.12500000000E+03 0.  0.
</event>
<event>
 5    0  0.5619558E-005  0.2379301E+03  0.7546771E-02  0.1121179E+00
         21   -1    0    0  502  501  0.00000000000E+00  0.00000000000E+00  0.79985869698E+02  0.79985869698E+02  0.00000000000E+00 0.  1.
         21   -1    0    0  501  502 -0.00000000000E+00 -0.00000000000E+00 -0.70775905665E+03  0.70775905665E+03  0.00000000000E+00 0.  1.
         25    1    1    2    0    0 -0.38778111783E+02 -0.11600748410E+02 -0.14511406258E+03  0.19575855147E+03  0.12500000000E+03 0.  0.
         25    1    1    2    0    0  0.27659522733E+02 -0.26300835649E+02 -0.43218178340E+03  0.45151176846E+03  0.12500000000E+03 0.  0.
         25    1    1    2    0    0  0.11118589050E+02  0.37901584059E+02 -0.50477340977E+02  0.14047460642E+03  0.12500000000E+03 0.  0.
</event>
<event>
 5    0  0.5619558E-005  0.3633794E+03  0.7546771E-02  0.1057254E+00
         21   -1    0    0  502  501  0.00000000000E+00  0.00000000000E+00  0.20307924862E+03  0.20307924862E+03  0.00000000000E+00 0.  1.
         21   -1    0    0  501  502 -0.00000000000E+00 -0.00000000000E+00 -0.65021196212E+03  0.65021196212E+03  0.00000000000E+00 0.  1.
         25    1    1    2    0    0 -0.10674827777E+03 -0.14629500422E+03 -0.34026659858E+03  0.40522065740E+03  0.12500000000E+03 0.  0.
         25    1    1    2    0    0  0.16601596476E+03  0.13886085856E+03 -0.16321666559E+03  0.29851016485E+03  0.12500000000E+03 0.  0.
         25    1    1    2    0    0 -0.59267686984E+02  0.74341456615E+01  0.56350550678E+02  0.14956038849E+03  0.12500000000E+03 0.  0.
</event>
<event>
 5    0  0.5619558E-005  0.4237493E+03  0.7546771E-02  0.1035853E+00
         21   -1    0    0  502  501  0.00000000000E+00  0.00000000000E+00  0.42878828762E+03  0.42878828762E+03  0.00000000000E+00 0.  1.
         21   -1    0    0  501  502 -0.00000000000E+00 -0.00000000000E+00 -0.41876950981E+03  0.41876950981E+03  0.00000000000E+00 0.  1.
         25    1    1    2    0    0 -0.11853722525E+03  0.12162068953E+03  0.10504381527E+03  0.23558834652E+03  0.12500000000E+03 0.  0.
         25    1    1    2    0    0  0.19860032507E+03 -0.13654275623E+02  0.16964137763E+03  0.28988226121E+03  0.12500000000E+03 0.  0.
         25    1    1    2    0    0 -0.80063099821E+02 -0.10796641390E+03 -0.26466641509E+03  0.32208718969E+03  0.12500000000E+03 0.  0.
</event>
<event>
 5    0  0.5619558E-005  0.3086447E+03  0.7546771E-02  0.1080997E+00
         21   -1    0    0  502  501  0.00000000000E+00  0.00000000000E+00  0.54875446799E+02  0.54875446799E+02  0.00000000000E+00 0. -1.
         21   -1    0    0  501  502 -0.00000000000E+00 -0.00000000000E+00 -0.17359599507E+04  0.17359599507E+04  0.00000000000E+00 0. -1.
         25    1    1    2    0    0  0.69632180855E+02 -0.85548539357E+02 -0.56418942946E+03  0.58830426270E+03  0.12500000000E+03 0.  0.
         25    1    1    2    0    0  0.17692652006E+02 -0.24112538071E+02 -0.85953129733E+02  0.15462013109E+03  0.12500000000E+03 0.  0.
         25    1    1    2    0    0 -0.87324832861E+02  0.10966107743E+03 -0.10309419447E+04  0.10479110037E+04  0.12500000000E+03 0.  0.
</event>
<event>
 5    0  0.5619558E-005  0.2650759E+03  0.7546771E-02  0.1104131E+00
         21   -1    0    0  502  501  0.00000000000E+00  0.00000000000E+00  0.13980022122E+03  0.13980022122E+03  0.00000000000E+00 0.  1.
         21   -1    0    0  501  502 -0.00000000000E+00 -0.00000000000E+00 -0.50261169555E+03  0.50261169555E+03  0.00000000000E+00 0.  1.
         25    1    1    2    0    0  0.29315549959E+02 -0.67089262026E+02 -0.28049667512E+03  0.31569566880E+03  0.12500000000E+03 0.  0.
         25    1    1    2    0    0  0.46704032935E+02  0.45753536049E+02  0.25993308926E+02  0.14344094556E+03  0.12500000000E+03 0.  0.
         25    1    1    2    0    0 -0.76019582894E+02  0.21335725977E+02 -0.10830810814E+03  0.18327530241E+03  0.12500000000E+03 0.  0.
</event>
<event>
 5    0  0.5619558E-005  0.3626382E+03  0.7546771E-02  0.1057544E+00
         21   -1    0    0  502  501  0.00000000000E+00  0.00000000000E+00  0.11793269849E+03  0.11793269849E+03  0.00000000000E+00 0.  1.
         21   -1    0    0  501  502 -0.00000000000E+00 -0.00000000000E+00 -0.11150978565E+04  0.11150978565E+04  0.00000000000E+00 0.  1.
         25    1    1    2    0    0 -0.13182520112E+03  0.35053984102E+02 -0.34476414018E+03  0.39127225535E+03  0.12500000000E+03 0.  0.
         25    1    1    2    0    0  0.10488719952E+03  0.16588632426E+03 -0.12746164362E+03  0.26531315043E+03  0.12500000000E+03 0.  0.
         25    1    1    2    0    0  0.26938001606E+02 -0.20094030836E+03 -0.52493937426E+03  0.57644514925E+03  0.12500000000E+03 0.  0.
</event>
<event>
 5    0  0.5619558E-005  0.2761465E+03  0.7546771E-02  0.1097812E+00
         21   -1    0    0  502  501  0.00000000000E+00  0.00000000000E+00  0.56409624939E+03  0.56409624939E+03  0.00000000000E+00 0. -1.
         21   -1    0    0  501  502 -0.00000000000E+00 -0.00000000000E+00 -0.13518413718E+03  0.13518413718E+03  0.00000000000E+00 0. -1.
         25    1    1    2    0    0  0.10335726564E+03 -0.90024424890E+02  0.53540068727E+02  0.19307682512E+03  0.12500000000E+03 0.  0.
         25    1    1    2    0    0 -0.67956467119E+02 -0.25471615032E+02  0.84730767188E+02  0.16754458363E+03  0.12500000000E+03 0.  0.
         25    1    1    2    0    0 -0.35400798521E+02  0.11549603992E+03  0.29064127629E+03  0.33865897782E+03  0.12500000000E+03 0.  0.
</event>
<event>
 5    0  0.5619558E-005  0.3284225E+03  0.7546771E-02  0.1071837E+00
         21   -1    0    0  502  501  0.00000000000E+00  0.00000000000E+00  0.14341330953E+03  0.14341330953E+03  0.00000000000E+00 0. -1.
         21   -1    0    0  501  502 -0.00000000000E+00 -0.00000000000E+00 -0.75210134860E+03  0.75210134860E+03  0.00000000000E+00 0. -1.
         25    1    1    2    0    0 -0.99797603640E+02  0.48361452242E+02 -0.47732409768E+03  0.50572886608E+03  0.12500000000E+03 0.  0.
         25    1    1    2    0    0 -0.12698478141E+02  0.36379544446E+02  0.38320323064E+02  0.13630175993E+03  0.12500000000E+03 0.  0.
         25    1    1    2    0    0  0.11249608178E+03 -0.84740996688E+02 -0.16968426445E+03  0.25348403212E+03  0.12500000000E+03 0.  0.
</event>
<event>
 5    0  0.5619558E-005  0.3552821E+03  0.7546771E-02  0.1060468E+00
         21   -1    0    0  502  501  0.00000000000E+00  0.00000000000E+00  0.51764383036E+03  0.51764383036E+03  0.00000000000E+00 0.  1.
         21   -1    0    0  501  502 -0.00000000000E+00 -0.00000000000E+00 -0.24384596578E+03  0.24384596578E+03  0.00000000000E+00 0.  1.
         25    1    1    2    0    0  0.79652587126E+02  0.24281468931E+03  0.84365592498E+02  0.29672556543E+03  0.12500000000E+03 0.  0.
         25    1    1    2    0    0 -0.13659264835E+03 -0.14395242407E+03  0.17931362603E+03  0.29522572458E+03  0.12500000000E+03 0.  0.
         25    1    1    2    0    0  0.56940061225E+02 -0.98862265246E+02  0.10118646051E+02  0.16953850613E+03  0.12500000000E+03 0.  0.
</event>
<event>
 5    0  0.5619558E-005  0.2435579E+03  0.7546771E-02  0.1117445E+00
         21   -1    0    0  502  501  0.00000000000E+00  0.00000000000E+00  0.70670828325E+02  0.70670828325E+02  0.00000000000E+00 0.  1.
         21   -1    0    0  501  502 -0.00000000000E+00 -0.00000000000E+00 -0.83939067197E+03  0.83939067197E+03  0.00000000000E+00 0.  1.
         25    1    1    2    0    0 -0.12997133273E+03 -0.44406448963E+02 -0.20532609682E+03  0.27685426866E+03  0.12500000000E+03 0.  0.
         25    1    1    2    0    0  0.40790340480E+02  0.19605848717E+02 -0.24028045703E+03  0.27460506043E+03  0.12500000000E+03 0.  0.
         25    1    1    2    0    0  0.89180992252E+02  0.24800600246E+02 -0.32311328979E+03  0.35860217121E+03  0.12500000000E+03 0.  0.
</event>
<event>
 5    0  0.5619558E-005  0.3730603E+03  0.7546771E-02  0.1053529E+00
         21   -1    0    0  502  501  0.00000000000E+00  0.00000000000E+00  0.33857824844E+03  0.33857824844E+03  0.00000000000E+00 0. -1.
         21   -1    0    0  501  502 -0.00000000000E+00 -0.00000000000E+00 -0.41105403880E+03  0.41105403880E+03  0.00000000000E+00 0. -1.
         25    1    1    2    0    0  0.16082894802E+03 -0.15876136344E+03  0.52213771750E+02  0.26348130674E+03  0.12500000000E+03 0.  0.
         25    1    1    2    0    0 -0.23153168205E+03  0.78124014002E+02  0.80920138355E+01  0.27459199196E+03  0.12500000000E+03 0.  0.
         25    1    1    2    0    0  0.70702734030E+02  0.80637349433E+02 -0.13278157595E+03  0.21155898854E+03  0.12500000000E+03 0.  0.
</event>
<event>
 5    0  0.5619558E-005  0.3277872E+03  0.7546771E-02  0.1072120E+00
         21   -1    0    0  502  501  0.00000000000E+00  0.00000000000E+00  0.10715993717E+04  0.10715993717E+04  0.00000000000E+00 0.  1.
         21   -1    0    0  501  502 -0.00000000000E+00 -0.00000000000E+00 -0.10026550594E+03  0.10026550594E+03  0.00000000000E+00 0.  1.
         25    1    1    2    0    0  0.41205023777E+02  0.60838283686E+02  0.68464643822E+03  0.69983204850E+03  0.12500000000E+03 0.  0.
         25    1    1    2    0    0 -0.11097136719E+03 -0.11617076042E+03  0.23311049624E+03  0.30947664430E+03  0.12500000000E+03 0.  0.
         25    1    1    2    0    0  0.69766343409E+02  0.55332476737E+02  0.53576931273E+02  0.16255618481E+03  0.12500000000E+03 0.  0.
</event>
<event>
 5    0  0.5619558E-005  0.2694332E+03  0.7546771E-02  0.1101604E+00
         21   -1    0    0  502  501  0.00000000000E+00  0.00000000000E+00  0.29891112612E+03  0.29891112612E+03  0.00000000000E+00 0.  1.
         21   -1    0    0  501  502 -0.00000000000E+00 -0.00000000000E+00 -0.24286237853E+03  0.24286237853E+03  0.00000000000E+00 0.  1.
         25    1    1    2    0    0 -0.25586133653E+02 -0.33534309531E+02 -0.55877740394E+02  0.14327079962E+03  0.12500000000E+03 0.  0.
         25    1    1    2    0    0 -0.85200641296E+02  0.12779501567E+02  0.16286612539E+03  0.22264958957E+03  0.12500000000E+03 0.  0.
         25    1    1    2    0    0  0.11078677495E+03  0.20754807963E+02 -0.50939637409E+02  0.17585311546E+03  0.12500000000E+03 0.  0.
</event>
<event>
 5    0  0.5619558E-005  0.3795791E+03  0.7546771E-02  0.1051089E+00
         21   -1    0    0  502  501  0.00000000000E+00  0.00000000000E+00  0.18247100745E+03  0.18247100745E+03  0.00000000000E+00 0.  1.
         21   -1    0    0  501  502 -0.00000000000E+00 -0.00000000000E+00 -0.78960642758E+03  0.78960642758E+03  0.00000000000E+00 0.  1.
         25    1    1    2    0    0  0.47950867832E+02  0.20897455015E+03 -0.50055333521E+03  0.55870232658E+03  0.12500000000E+03 0.  0.
         25    1    1    2    0    0  0.90458961390E+01 -0.22835829827E+03 -0.63821807053E+02  0.26819314623E+03  0.12500000000E+03 0.  0.
         25    1    1    2    0    0 -0.56996763971E+02  0.19383748126E+02 -0.42760277870E+02  0.14518196223E+03  0.12500000000E+03 0.  0.
</event>
<event>
 5    0  0.5619558E-005  0.3841141E+03  0.7546771E-02  0.1049424E+00
         21   -1    0    0  502  501  0.00000000000E+00  0.00000000000E+00  0.41579499575E+03  0.41579499575E+03  0.00000000000E+00 0.  1.
         21   -1    0    0  501  502 -0.00000000000E+00 -0.00000000000E+00 -0.35484699340E+03  0.35484699340E+03  0.00000000000E+00 0.  1.
         25    1    1    2    0    0  0.52667541175E+02 -0.14966387712E+03  0.36264033543E+02  0.20521507288E+03  0.12500000000E+03 0.  0.
         25    1    1    2    0    0 -0.27621763793E+02  0.17055616166E+03  0.23579536220E+03  0.31792580730E+03  0.12500000000E+03 0.  0.
         25    1    1    2    0    0 -0.25045777382E+02 -0.20892284536E+02 -0.21111139340E+03  0.24750110897E+03  0.12500000000E+03 0.  0.
</event>
<event>
 5    0  0.5619558E-005  0.2029730E+03  0.7546771E-02  0.1147255E+00
         21   -1    0    0  502  501  0.00000000000E+00  0.00000000000E+00  0.32347822834E+02  0.32347822834E+02  0.00000000000E+00 0. -1.
         21   -1    0    0  501  502 -0.00000000000E+00 -0.00000000000E+00 -0.12735950712E+04  0.12735950712E+04  0.00000000000E+00 0. -1.
         25    1    1    2    0    0  0.57543552897E+01 -0.12703001736E+02 -0.24269927117E+03  0.27335401056E+03  0.12500000000E+03 0.  0.
         25    1    1    2    0    0  0.19476188876E+02  0.25575934106E+02 -0.60796702469E+03  0.62151617312E+03  0.12500000000E+03 0.  0.
         25    1    1    2    0    0 -0.25230544166E+02 -0.12872932370E+02 -0.39058095252E+03  0.41107271038E+03  0.12500000000E+03 0.  0.
</event>
<event>
 5    0  0.5808459E-005  0.2679046E+03  0.7546771E-02  0.1102485E+00
         21   -1    0    0  502  501  0.00000000000E+00  0.00000000000E+00  0.49008295963E+03  0.49008295963E+03  0.00000000000E+00 0. -1.
         21   -1    0    0  501  502 -0.00000000000E+00 -0.00000000000E+00 -0.14645047019E+03  0.14645047019E+03  0.00000000000E+00 0. -1.
         25    1    1    2    0    0 -0.88895119753E+02  0.66342431067E+02  0.15899272851E+03  0.23066718058E+03  0.12500000000E+03 0.  0.
         25    1    1    2    0    0  0.11369441951E+02  0.27077978552E+01  0.20674578584E+03  0.24187892910E+03  0.12500000000E+03 0.  0.
         25    1    1    2    0    0  0.77525677802E+02 -0.69050228922E+02 -0.22106024909E+02  0.16398732015E+03  0.12500000000E+03 0.  0.
</event>
<event>
 5    0  0.5619558E-005  0.2542743E+03  0.7546771E-02  0.1110633E+00
         21   -1    0    0  502  501  0.00000000000E+00  0.00000000000E+00  0.23541269659E+04  0.23541269659E+04  0.00000000000E+00 0.  1.
         21   -1    0    0  501  502 -0.00000000000E+00 -0.00000000000E+00 -0.27464711280E+02  0.27464711280E+02  0.00000000000E+00 0.  1.
         25    1    1    2    0    0  0.13804471856E+03 -0.72024238389E+02  0.97584325102E+03  0.99606168775E+03  0.12500000000E+03 0.  0.
         25    1    1    2    0    0 -0.77079874095E+02  0.75080075843E+02  0.61836587091E+03  0.63998412097E+03  0.12500000000E+03 0.  0.
         25    1    1    2    0    0 -0.60964844464E+02 -0.30558374537E+01  0.73245313264E+03  0.74554586842E+03  0.12500000000E+03 0.  0.
</event>
<event>
 5    0  0.5619558E-005  0.2544481E+03  0.7546771E-02  0.1110526E+00
         21   -1    0    0  502  501  0.00000000000E+00  0.00000000000E+00  0.17104313605E+03  0.17104313605E+03  0.00000000000E+00 0. -1.
         21   -1    0    0  501  502 -0.00000000000E+00 -0.00000000000E+00 -0.37852340998E+03  0.37852340998E+03  0.00000000000E+00 0. -1.
         25    1    1    2    0    0  0.41013038226E+02 -0.47874872515E+02 -0.21291788400E+03  0.25481973638E+03  0.12500000000E+03 0.  0.
         25    1    1    2    0    0  0.46418339148E+02  0.10617680901E+02  0.26352179695E+02  0.13633354221E+03  0.12500000000E+03 0.  0.
         25    1    1    2    0    0 -0.87431377374E+02  0.37257191614E+02 -0.20914569630E+02  0.15841326743E+03  0.12500000000E+03 0.  0.
</event>
<event>
 5    0  0.5688533E-005  0.3020398E+03  0.7546771E-02  0.1084225E+00
         21   -1    0    0  502  501  0.00000000000E+00  0.00000000000E+00  0.13779560034E+03  0.13779560034E+03  0.00000000000E+00 0.  1.
         21   -1    0    0  501  502 -0.00000000000E+00 -0.00000000000E+00 -0.66205358070E+03  0.66205358070E+03  0.00000000000E+00 0.  1.
         25    1    1    2    0    0  0.12025181560E+03  0.28566866064E+01 -0.33972987299E+03  0.38145779113E+03  0.12500000000E+03 0.  0.
         25    1    1    2    0    0 -0.83224764983E+02 -0.10306773751E+02  0.42569383984E+02  0.15642807786E+03  0.12500000000E+03 0.  0.
         25    1    1    2    0    0 -0.37027050619E+02  0.74500871447E+01 -0.22709749135E+03  0.26196331204E+03  0.12500000000E+03 0.  0.
</event>
<event>
 5    0  0.5619558E-005  0.2343431E+03  0.7546771E-02  0.1123620E+00
         21   -1    0    0  502  501  0.00000000000E+00  0.00000000000E+00  0.15133004606E+03  0.15133004606E+03  0.00000000000E+00 0.  1.
         21   -1    0    0  501  502 -0.00000000000E+00 -0.00000000000E+00 -0.36289346995E+03  0.36289346995E+03  0.00000000000E+00 0.  1.
         25    1    1    2    0    0  0.38584432194E+02  0.32445666609E+02 -0.10708285861E+03  0.17214301699E+03  0.12500000000E+03 0.  0.
         25    1    1    2    0    0 -0.91689411147E+02 -0.75863229092E+02 -0.13880704330E+02  0.17314690756E+03  0.12500000000E+03 0.  0.
         25    1    1    2    0    0  0.53104978952E+02  0.43417562483E+02 -0.90599860940E+02  0.16893359146E+03  0.12500000000E+03 0.  0.
</event>
<event>
 5    0  0.5653939E-005  0.2835242E+03  0.7546771E-02  0.1093780E+00
         21   -1    0    0  502  501  0.00000000000E+00  0.00000000000E+00  0.14821697384E+04  0.14821697384E+04  0.00000000000E+00 0. -1.
         21   -1    0    0  501  502 -0.00000000000E+00 -0.00000000000E+00 -0.54235345147E+02  0.54235345147E+02  0.00000000000E+00 0. -1.
         25    1    1    2    0    0 -0.30071215751E+02  0.83503731258E+02  0.53294905564E+03  0.55456004820E+03  0.12500000000E+03 0.  0.
         25    1    1    2    0    0 -0.56787348383E+02 -0.17603207935E+03  0.44425220450E+03  0.49718921660E+03  0.12500000000E+03 0.  0.
         25    1    1    2    0    0  0.86858564134E+02  0.92528348094E+02  0.45073313312E+03  0.48465581876E+03  0.12500000000E+03 0.  0.
</event>
<event>
 5    0  0.6148920E-005  0.2843773E+03  0.7546771E-02  0.1093322E+00
         21   -1    0    0  502  501  0.00000000000E+00  0.00000000000E+00  0.22491823313E+03  0.22491823313E+03  0.00000000000E+00 0.  1.
         21   -1    0    0  501  502 -0.00000000000E+00 -0.00000000000E+00 -0.35955483493E+03  0.35955483493E+03  0.00000000000E+00 0.  1.
         25    1    1    2    0    0  0.89531627239E+02 -0.30141304058E+02 -0.59417258853E+02  0.16757034683E+03  0.12500000000E+03 0.  0.
         25    1    1    2    0    0 -0.14961770239E+03 -0.85623812683E+02 -0.98749851673E+02  0.23471989130E+03  0.12500000000E+03 0.  0.
         25    1    1    2    0    0  0.60086075149E+02  0.11576511674E+03  0.23530508726E+02  0.18218282993E+03  0.12500000000E+03 0.  0.
</event>
<event>
 5    0  0.5619558E-005  0.4036718E+03  0.7546771E-02  0.1042516E+00
         21   -1    0    0  502  501  0.00000000000E+00  0.00000000000E+00  0.99719182588E+02  0.99719182588E+02  0.00000000000E+00 0.  1.
         21   -1    0    0  501  502 -0.00000000000E+00 -0.00000000000E+00 -0.16340977709E+04  0.16340977709E+04  0.00000000000E+00 0.  1.
         25    1    1    2    0    0  0.37867766333E+02 -0.12739746810E+02 -0.10200978273E+04  0.10285041789E+04  0.12500000000E+03 0.  0.
         25    1    1    2    0    0 -0.74646858506E+02  0.18097919758E+03 -0.13033751166E+03  0.26634280615E+03  0.12500000000E+03 0.  0.
         25    1    1    2    0    0  0.36779092174E+02 -0.16823945077E+03 -0.38394324941E+03  0.43896996843E+03  0.12500000000E+03 0.  0.
</event>
<event>
 5    0  0.5619558E-005  0.3016588E+03  0.7546771E-02  0.1084414E+00
         21   -1    0    0  502  501  0.00000000000E+00  0.00000000000E+00  0.14500147673E+04  0.14500147673E+04  0.00000000000E+00 0.  1.
         21   -1    0    0  501  502 -0.00000000000E+00 -0.00000000000E+00 -0.62756635206E+02  0.62756635206E+02  0.00000000000E+00 0.  1.
         25    1    1    2    0    0  0.11992861231E+03  0.10962273638E+03  0.47210846229E+03  0.51469546000E+03  0.12500000000E+03 0.  0.
         25    1    1    2    0    0 -0.17545588106E+03 -0.14018096097E+03  0.62759177463E+03  0.67818279512E+03  0.12500000000E+03 0.  0.
         25    1    1    2    0    0  0.55527268748E+02  0.30558224584E+02  0.28755789520E+03  0.31989314741E+03  0.12500000000E+03 0.  0.
</event>
<event>
 5    0  0.5619558E-005  0.5402412E+03  0.7546771E-02  0.1003778E+00
         21   -1    0    0  502  501  0.00000000000E+00  0.00000000000E+00  0.10467566139E+04  0.10467566139E+04  0.00000000000E+00 0. -1.
         21   -1    0    0  501  502 -0.00000000000E+00 -0.00000000000E+00 -0.27882370031E+03  0.27882370031E+03  0.00000000000E+00 0. -1.
         25    1    1    2    0    0  0.18452363895E+03  0.10628849030E+03  0.81230062042E+03  0.84900148082E+03  0.12500000000E+03 0.  0.
         25    1    1    2    0    0 -0.12513254963E+03 -0.16303235160E+03 -0.15881376515E+03  0.28824384581E+03  0.12500000000E+03 0.  0.
         25    1    1    2    0    0 -0.59391089321E+02  0.56743861303E+02  0.11444605838E+03  0.18833498763E+03  0.12500000000E+03 0.  0.
</event>
<event>
 5    0  0.5619558E-005  0.2657963E+03  0.7546771E-02  0.1103710E+00
         21   -1    0    0  502  501  0.00000000000E+00  0.00000000000E+00  0.98741315362E+03  0.98741315362E+03  0.00000000000E+00 0.  1.
         21   -1    0    0  501  502 -0.00000000000E+00 -0.00000000000E+00 -0.71548224496E+02  0.71548224496E+02  0.00000000000E+00 0.  1.
         25    1    1    2    0    0  0.48086152487E+02  0.11081318633E+03  0.29496732477E+03  0.34237780741E+03  0.12500000000E+03 0.  0.
         25    1    1    2    0    0 -0.60433136990E+02 -0.13401099723E+03  0.20509004367E+03  0.28159907215E+03  0.12500000000E+03 0.  0.
         25    1    1    2    0    0  0.12346984503E+02  0.23197810899E+02  0.41580756069E+03  0.43498449855E+03  0.12500000000E+03 0.  0.
</event>
<event>
 5    0  0.5619558E-005  0.4546858E+03  0.7546771E-02  0.1026334E+00
         21   -1    0    0  502  501  0.00000000000E+00  0.00000000000E+00  0.14886247183E+03  0.14886247183E+03  0.00000000000E+00 0.  1.
         21   -1    0    0  501  502 -0.00000000000E+00 -0.00000000000E+00 -0.13887929666E+04  0.13887929666E+04  0.00000000000E+00 0. -1.
         25    1    1    2    0    0 -0.12197162598E+02  0.23659592744E+03 -0.36988074362E+03  0.45668716662E+03  0.12500000000E+03 0.  0.
         25    1    1    2    0    0 -0.73566751625E+02  0.54123274051E+02 -0.39218810543E+01  0.15486050784E+03  0.12500000000E+03 0.  0.
         25    1    1    2    0    0  0.85763914223E+02 -0.29071920149E+03 -0.86612787011E+03  0.92610776397E+03  0.12500000000E+03 0.  0.
</event>
<event>
 5    0  0.5619558E-005  0.3988001E+03  0.7546771E-02  0.1044196E+00
         21   -1    0    0  502  501  0.00000000000E+00  0.00000000000E+00  0.41806102365E+03  0.41806102365E+03  0.00000000000E+00 0. -1.
         21   -1    0    0  501  502 -0.00000000000E+00 -0.00000000000E+00 -0.38042663264E+03  0.38042663264E+03  0.00000000000E+00 0. -1.
         25    1    1    2    0    0 -0.63586257177E+02 -0.11161264470E+02  0.14875983599E+03  0.20474929727E+03  0.12500000000E+03 0.  0.
         25    1    1    2    0    0 -0.90617878953E+02  0.21217048421E+03 -0.15957329801E+03  0.30710999950E+03  0.12500000000E+03 0.  0.
         25    1    1    2    0    0  0.15420413613E+03 -0.20100921974E+03  0.48447853023E+02  0.28662835952E+03  0.12500000000E+03 0.  0.
</event>
<event>
 5    0  0.5619558E-005  0.2469338E+03  0.7546771E-02  0.1115258E+00
         21   -1    0    0  502  501  0.00000000000E+00  0.00000000000E+00  0.13289157037E+04  0.13289157037E+04  0.00000000000E+00 0.  1.
         21   -1    0    0  501  502 -0.00000000000E+00 -0.00000000000E+00 -0.45884240508E+02  0.45884240508E+02  0.00000000000E+00 0.  1.
         25    1    1    2    0    0 -0.33274130968E+02 -0.86590368225E+02  0.24928999628E+03  0.29389719616E+03  0.12500000000E+03 0.  0.
         25    1    1    2    0    0  0.20065243429E+02  0.12076243122E+03  0.72491244602E+03  0.74572731825E+03  0.12500000000E+03 0.  0.
         25    1    1    2    0    0  0.13208887540E+02 -0.34172062997E+02  0.30882902088E+03  0.33517542979E+03  0.12500000000E+03 0.  0.
</event>
<event>
 5    0  0.5619558E-005  0.2384063E+03  0.7546771E-02  0.1120859E+00
         21   -1    0    0  502  501  0.00000000000E+00  0.00000000000E+00  0.30442981689E+03  0.30442981689E+03  0.00000000000E+00 0.  1.
         21   -1    0    0  501  502 -0.00000000000E+00 -0.00000000000E+00 -0.18670162918E+03  0.18670162918E+03  0.00000000000E+00 0.  1.
         25    1    1    2    0    0 -0.92940620464E+02  0.30809699596E+02  0.77146660866E+02  0.17653272729E+03  0.12500000000E+03 0.  0.
         25    1    1    2    0    0  0.15708074664E+02 -0.62702757850E+02 -0.36858743594E+02  0.14547146260E+03  0.12500000000E+03 0.  0.
         25    1    1    2    0    0  0.77232545800E+02  0.31893058254E+02  0.77440270441E+02  0.16912725618E+03  0.12500000000E+03 0.  0.
</event>
<event>
 5    0  0.5619558E-005  0.3042252E+03  0.7546771E-02  0.1083147E+00
         21   -1    0    0  502  501  0.00000000000E+00  0.00000000000E+00  0.95383719350E+02  0.95383719350E+02  0.00000000000E+00 0.  1.
         21   -1    0    0  501  502 -0.00000000000E+00 -0.00000000000E+00 -0.97032227613E+03  0.97032227613E+03  0.00000000000E+00 0.  1.
         25    1    1    2    0    0 -0.13435050775E+03 -0.16522593954E+02 -0.14304564282E+03  0.23325975001E+03  0.12500000000E+03 0.  0.
         25    1    1    2    0    0 -0.73777818950E+02 -0.13643500425E+02 -0.34699671351E+03  0.37637883955E+03  0.12500000000E+03 0.  0.
         25    1    1    2    0    0  0.20812832670E+03  0.30166094379E+02 -0.38489620045E+03  0.45606740593E+03  0.12500000000E+03 0.  0.
</event>
<event>
 5    0  0.5619558E-005  0.3211430E+03  0.7546771E-02  0.1075124E+00
         21   -1    0    0  502  501  0.00000000000E+00  0.00000000000E+00  0.92007148325E+03  0.92007148325E+03  0.00000000000E+00 0. -1.
         21   -1    0    0  501  502 -0.00000000000E+00 -0.00000000000E+00 -0.11209217688E+03  0.11209217688E+03  0.00000000000E+00 0. -1.
         25    1    1    2    0    0  0.21414756004E+03 -0.10452218128E+03  0.28728178329E+03  0.39362404253E+03  0.12500000000E+03 0.  0.
         25    1    1    2    0    0 -0.10591135605E+03  0.34190671540E+02  0.36196010695E+03  0.39878106323E+03  0.12500000000E+03 0.  0.
         25    1    1    2    0    0 -0.10823620399E+03  0.70331509744E+02  0.15873741612E+03  0.23975855437E+03  0.12500000000E+03 0.  0.
</event>
<event>
 5    0  0.6104172E-005  0.2891198E+03  0.7546771E-02  0.1090810E+00
         21   -1    0    0  502  501  0.00000000000E+00  0.00000000000E+00  0.14908929766E+03  0.14908929766E+03  0.00000000000E+00 0.  1.
         21   -1    0    0  501  502 -0.00000000000E+00 -0.00000000000E+00 -0.56067226769E+03  0.56067226769E+03  0.00000000000E+00 0.  1.
         25    1    1    2    0    0 -0.11588645932E+03  0.32910640939E+02 -0.97319029171E+02  0.19901953467E+03  0.12500000000E+03 0.  0.
         25    1    1    2    0    0  0.13904780318E+03 -0.13818236174E+03 -0.22291174808E+03  0.32209207394E+03  0.12500000000E+03 0.  0.
         25    1    1    2    0    0 -0.23161343856E+02  0.10527172080E+03 -0.91352192788E+02  0.18864995674E+03  0.12500000000E+03 0.  0.
</event>
<event>
 5    0  0.5619558E-005  0.2348062E+03  0.7546771E-02  0.1123302E+00
         21   -1    0    0  502  501  0.00000000000E+00  0.00000000000E+00  0.97410666909E+03  0.97410666909E+03  0.00000000000E+00 0. -1.
         21   -1    0    0  501  502 -0.00000000000E+00 -0.00000000000E+00 -0.56599508398E+02  0.56599508398E+02  0.00000000000E+00 0. -1.
         25    1    1    2    0    0 -0.62670558680E+02  0.28242362133E+02  0.50813227648E+03  0.52777707448E+03  0.12500000000E+03 0.  0.
         25    1    1    2    0    0  0.24337223542E+01 -0.18575704454E+02  0.91757260712E+02  0.15619018757E+03  0.12500000000E+03 0.  0.
         25    1    1    2    0    0  0.60236836326E+02 -0.96666576788E+01  0.31761762350E+03  0.34673891543E+03  0.12500000000E+03 0.  0.
</event>
<event>
 5    0  0.5619558E-005  0.2515689E+03  0.7546771E-02  0.1112317E+00
         21   -1    0    0  502  501  0.00000000000E+00  0.00000000000E+00  0.62148937190E+03  0.62148937190E+03  0.00000000000E+00 0.  1.
         21   -1    0    0  501  502 -0.00000000000E+00 -0.00000000000E+00 -0.10183107342E+03  0.10183107342E+03  0.00000000000E+00 0.  1.
         25    1    1    2    0    0 -0.12660684646E+03  0.15768366857E+02  0.74733223432E+02  0.19361815423E+03  0.12500000000E+03 0.  0.
         25    1    1    2    0    0  0.51011715328E+02 -0.36039054986E+02  0.22709995786E+03  0.26664658154E+03  0.12500000000E+03 0.  0.
         25    1    1    2    0    0  0.75595131134E+02  0.20270688130E+02  0.21782511719E+03  0.26305570955E+03  0.12500000000E+03 0.  0.
</event>
<event>
 5    0  0.5619558E-005  0.2935277E+03  0.7546771E-02  0.1088522E+00
         21   -1    0    0  502  501  0.00000000000E+00  0.00000000000E+00  0.11924845301E+03  0.11924845301E+03  0.00000000000E+00 0.  1.
         21   -1    0    0  501  502 -0.00000000000E+00 -0.00000000000E+00 -0.72251272019E+03  0.72251272019E+03  0.00000000000E+00 0.  1.
         25    1    1    2    0    0  0.67444959073E+02 -0.21705834269E+02 -0.94249703406E+02  0.17183705170E+03  0.12500000000E+03 0.  0.
         25    1    1    2    0    0 -0.19361925993E+03  0.29295131306E+01 -0.16881372530E+03  0.28569227101E+03  0.12500000000E+03 0.  0.
         25    1    1    2    0    0  0.12617430086E+03  0.18776321138E+02 -0.34020083847E+03  0.38423185049E+03  0.12500000000E+03 0.  0.
</event>
<event>
 5    0  0.5619558E-005  0.2572941E+03  0.7546771E-02  0.1108780E+00
         21   -1    0    0  502  501  0.00000000000E+00  0.00000000000E+00  0.11558004568E+03  0.11558004568E+03  0.00000000000E+00 0. -1.
         21   -1    0    0  501  502 -0.00000000000E+00 -0.00000000000E+00 -0.57276521783E+03  0.57276521783E+03  0.00000000000E+00 0. -1.
         25    1    1    2    0    0 -0.42156619489E+02  0.30866682218E+02 -0.17377437665E+03  0.22034624258E+03  0.12500000000E+03 0.  0.
         25    1    1    2    0    0  0.62339045166E+02  0.60614933509E+02 -0.27156647671E+03  0.31134173827E+03  0.12500000000E+03 0.  0.
         25    1    1    2    0    0 -0.20182425677E+02 -0.91481615727E+02 -0.11844318782E+02  0.15665728266E+03  0.12500000000E+03 0.  0.
</event>
<event>
 5    0  0.5619558E-005  0.2873892E+03  0.7546771E-02  0.1091720E+00
         21   -1    0    0  502  501  0.00000000000E+00  0.00000000000E+00  0.73041795754E+03  0.73041795754E+03  0.00000000000E+00 0. -1.
         21   -1    0    0  501  502 -0.00000000000E+00 -0.00000000000E+00 -0.11307576552E+03  0.11307576552E+03  0.00000000000E+00 0. -1.
         25    1    1    2    0    0 -0.78233624189E+02 -0.81983912918E+01  0.20300718398E+02  0.14907995419E+03  0.12500000000E+03 0.  0.
         25    1    1    2    0    0  0.58104032615E+02 -0.11107468494E+03  0.25144047752E+03  0.30750768767E+03  0.12500000000E+03 0.  0.
         25    1    1    2    0    0  0.20129591574E+02  0.11927307623E+03  0.34560099610E+03  0.38690608120E+03  0.12500000000E+03 0.  0.
</event>
<event>
 5    0  0.5619558E-005  0.3903619E+03  0.7546771E-02  0.1047169E+00
         21   -1    0    0  502  501  0.00000000000E+00  0.00000000000E+00  0.55746029642E+03  0.55746029642E+03  0.00000000000E+00 0.  1.
         21   -1    0    0  501  502 -0.00000000000E+00 -0.00000000000E+00 -0.27335117692E+03  0.27335117692E+03  0.00000000000E+00 0.  1.
         25    1    1    2    0    0  0.25310664043E+03  0.51676208398E+01  0.24568960207E+03  0.37427003127E+03  0.12500000000E+03 0.  0.
         25    1    1    2    0    0  0.29323365812E+02 -0.52667533650E+02  0.38639510514E+02  0.14405464469E+03  0.12500000000E+03 0.  0.
         25    1    1    2    0    0 -0.28243000625E+03  0.47499912810E+02 -0.21999308840E+00  0.31248679739E+03  0.12500000000E+03 0.  0.
</event>
<event>
 5    0  0.5619558E-005  0.3726112E+03  0.7546771E-02  0.1053699E+00
         21   -1    0    0  502  501  0.00000000000E+00  0.00000000000E+00  0.83778642852E+02  0.83778642852E+02  0.00000000000E+00 0.  1.
         21   -1    0    0  501  502 -0.00000000000E+00 -0.00000000000E+00 -0.16572136314E+04  0.16572136314E+04  0.00000000000E+00 0.  1.
         25    1    1    2    0    0 -0.15338935712E+03  0.60694194599E+02 -0.25716781904E+03  0.33010962919E+03  0.12500000000E+03 0.  0.
         25    1    1    2    0    0  0.15648516615E+03 -0.10410082094E+03 -0.12352357502E+04  0.12556898290E+04  0.12500000000E+03 0.  0.
         25    1    1    2    0    0 -0.30958090284E+01  0.43406626345E+02 -0.81031419380E+02  0.15519281611E+03  0.12500000000E+03 0.  0.
</event>
<event>
 5    0  0.5619558E-005  0.2402688E+03  0.7546771E-02  0.1119614E+00
         21   -1    0    0  502  501  0.00000000000E+00  0.00000000000E+00  0.95290884453E+03  0.95290884453E+03  0.00000000000E+00 0. -1.
         21   -1    0    0  501  502 -0.00000000000E+00 -0.00000000000E+00 -0.60581975944E+02  0.60581975944E+02  0.00000000000E+00 0. -1.
         25    1    1    2    0    0 -0.19151381079E+02 -0.33052188494E+02  0.14565859071E+03  0.19570551246E+03  0.12500000000E+03 0.  0.
         25    1    1    2    0    0 -0.96722635308E+00 -0.86089469694E+02  0.26081998660E+03  0.30176878190E+03  0.12500000000E+03 0.  0.
         25    1    1    2    0    0  0.20118607433E+02  0.11914165819E+03  0.48584829128E+03  0.51601652612E+03  0.12500000000E+03 0.  0.
</event>
<event>
 5    0  0.5619558E-005  0.2335520E+03  0.7546771E-02  0.1124164E+00
         21   -1    0    0  502  501  0.00000000000E+00  0.00000000000E+00  0.23616424366E+03  0.23616424366E+03  0.00000000000E+00 0. -1.
         21   -1    0    0  501  502 -0.00000000000E+00 -0.00000000000E+00 -0.23096861246E+03  0.23096861246E+03  0.00000000000E+00 0. -1.
         25    1    1    2    0    0 -0.24035593760E+02 -0.70570593600E+02  0.41543502005E+02  0.15135646999E+03  0.12500000000E+03 0.  0.
         25    1    1    2    0    0  0.20685079707E+01  0.12234020524E+03 -0.36608503514E+02  0.17870810579E+03  0.12500000000E+03 0.  0.
         25    1    1    2    0    0  0.21967085789E+02 -0.51769611645E+02  0.26063271181E+00  0.13706828035E+03  0.12500000000E+03 0.  0.
</event>
<event>
 5    0  0.5619558E-005  0.3601668E+03  0.7546771E-02  0.1058518E+00
         21   -1    0    0  502  501  0.00000000000E+00  0.00000000000E+00  0.87007743909E+03  0.87007743909E+03  0.00000000000E+00 0. -1.
         21   -1    0    0  501  502 -0.00000000000E+00 -0.00000000000E+00 -0.14909031598E+03  0.14909031598E+03  0.00000000000E+00 0. -1.
         25    1    1    2    0    0 -0.11926203266E+02 -0.20505203772E+03  0.37528948174E+03  0.44570816416E+03  0.12500000000E+03 0.  0.
         25    1    1    2    0    0  0.87352792341E+02 -0.28123349545E+02  0.22447150023E+03  0.27282574573E+03  0.12500000000E+03 0.  0.
         25    1    1    2    0    0 -0.75426589074E+02  0.23317538727E+03  0.12122614114E+03  0.30063384517E+03  0.12500000000E+03 0.  0.
</event>
<event>
 5    0  0.5619558E-005  0.3224643E+03  0.7546771E-02  0.1074521E+00
         21   -1    0    0  502  501  0.00000000000E+00  0.00000000000E+00  0.29180285735E+03  0.29180285735E+03  0.00000000000E+00 0. -1.
         21   -1    0    0  501  502 -0.00000000000E+00 -0.00000000000E+00 -0.35634759432E+03  0.35634759432E+03  0.00000000000E+00 0. -1.
         25    1    1    2    0    0  0.14189603565E+03  0.72232632763E+02 -0.10785659647E+03  0.22936888100E+03  0.12500000000E+03 0.  0.
         25    1    1    2    0    0 -0.80107238372E+02  0.96351712911E+01  0.16067893701E+03  0.21898111097E+03  0.12500000000E+03 0.  0.
         25    1    1    2    0    0 -0.61788797282E+02 -0.81867804054E+02 -0.11736707752E+03  0.19980045970E+03  0.12500000000E+03 0.  0.
</event>
<event>
 5    0  0.5619558E-005  0.2494962E+03  0.7546771E-02  0.1113624E+00
         21   -1    0    0  502  501  0.00000000000E+00  0.00000000000E+00  0.59961959364E+03  0.59961959364E+03  0.00000000000E+00 0.  1.
         21   -1    0    0  501  502 -0.00000000000E+00 -0.00000000000E+00 -0.10381305114E+03  0.10381305114E+03  0.00000000000E+00 0.  1.
         25    1    1    2    0    0  0.10417332029E+03 -0.31563997007E+02  0.27108284380E+03  0.31774089251E+03  0.12500000000E+03 0.  0.
         25    1    1    2    0    0 -0.11573432018E+02  0.51754505539E+02  0.17424089449E+03  0.22090125053E+03  0.12500000000E+03 0.  0.
         25    1    1    2    0    0 -0.92599888276E+02 -0.20190508532E+02  0.50482804214E+02  0.16479050174E+03  0.12500000000E+03 0.  0.
</event>
<event>
 5    0  0.5619558E-005  0.3085931E+03  0.7546771E-02  0.1081022E+00
         21   -1    0    0  502  501  0.00000000000E+00  0.00000000000E+00  0.41375680720E+02  0.41375680720E+02  0.00000000000E+00 0.  1.
         21   -1    0    0  501  502 -0.00000000000E+00 -0.00000000000E+00 -0.23015857588E+04  0.23015857588E+04  0.00000000000E+00 0.  1.
         25    1    1    2    0    0 -0.12531773325E+02  0.63206519532E+02 -0.94652199044E+03  0.95691221532E+03  0.12500000000E+03 0.  0.
         25    1    1    2    0    0 -0.66826278143E+02  0.13410990513E+03 -0.59926462421E+03  0.63023353445E+03  0.12500000000E+03 0.  0.
         25    1    1    2    0    0  0.79358051468E+02 -0.19731642466E+03 -0.71442346341E+03  0.75581568974E+03  0.12500000000E+03 0.  0.
</event>
<event>
 5    0  0.5619558E-005  0.2951715E+03  0.7546771E-02  0.1087680E+00
         21   -1    0    0  502  501  0.00000000000E+00  0.00000000000E+00  0.88823449377E+02  0.88823449377E+02  0.00000000000E+00 0.  1.
         21   -1    0    0  501  502 -0.00000000000E+00 -0.00000000000E+00 -0.98089224696E+03  0.98089224696E+03  0.00000000000E+00 0.  1.
         25    1    1    2    0    0 -0.13524064862E+02  0.10573366821E+03 -0.27880569039E+03  0.32360488549E+03  0.12500000000E+03 0.  0.
         25    1    1    2    0    0 -0.12427607051E+02  0.31367850668E+02 -0.29181461961E+02  0.13272130648E+03  0.12500000000E+03 0.  0.
         25    1    1    2    0    0  0.25951671913E+02 -0.13710151888E+03 -0.58408164524E+03  0.61338950436E+03  0.12500000000E+03 0.  0.
</event>
<event>
 5    0  0.5619558E-005  0.2773882E+03  0.7546771E-02  0.1097124E+00
         21   -1    0    0  502  501  0.00000000000E+00  0.00000000000E+00  0.36288558887E+03  0.36288558887E+03  0.00000000000E+00 0.  1.
         21   -1    0    0  501  502 -0.00000000000E+00 -0.00000000000E+00 -0.21203442971E+03  0.21203442971E+03  0.00000000000E+00 0.  1.
         25    1    1    2    0    0  0.50781954789E+02  0.85980346841E+01  0.12941159076E+01  0.13520136045E+03  0.12500000000E+03 0.  0.
         25    1    1    2    0    0 -0.79315411255E+02  0.14782373242E+03  0.54213053573E+02  0.21611766589E+03  0.12500000000E+03 0.  0.
         25    1    1    2    0    0  0.28533456466E+02 -0.15642176711E+03  0.95343989679E+02  0.22360099224E+03  0.12500000000E+03 0.  0.
</event>
<event>
 5    0  0.5619558E-005  0.3710861E+03  0.7546771E-02  0.1054278E+00
         21   -1    0    0  502  501  0.00000000000E+00  0.00000000000E+00  0.32323082847E+03  0.32323082847E+03  0.00000000000E+00 0. -1.
         21   -1    0    0  501  502 -0.00000000000E+00 -0.00000000000E+00 -0.42602657405E+03  0.42602657405E+03  0.00000000000E+00 0. -1.
         25    1    1    2    0    0  0.64464873598E+02 -0.19760903078E+03 -0.26872657195E+03  0.36200002686E+03  0.12500000000E+03 0.  0.
         25    1    1    2    0    0 -0.84911645078E+02  0.97520798568E+02  0.12989385229E+03  0.22185064004E+03  0.12500000000E+03 0.  0.
         25    1    1    2    0    0  0.20446771480E+02  0.10008823221E+03  0.36036974078E+02  0.16540673563E+03  0.12500000000E+03 0.  0.
</event>
<event>
 5    0  0.5619558E-005  0.2307081E+03  0.7546771E-02  0.1126142E+00
         21   -1    0    0  502  501  0.00000000000E+00  0.00000000000E+00  0.13940406190E+03  0.13940406190E+03  0.00000000000E+00 0.  1.
         21   -1    0    0  501  502 -0.00000000000E+00 -0.00000000000E+00 -0.38181252093E+03  0.38181252093E+03  0.00000000000E+00 0.  1.
         25    1    1    2    0    0 -0.66026985994E+02 -0.12435370503E+02 -0.44339051879E+02  0.14867801734E+03  0.12500000000E+03 0.  0.
         25    1    1    2    0    0 -0.38797910546E+02  0.19365883451E+02 -0.15476436768E+03  0.20361071879E+03  0.12500000000E+03 0.  0.
         25    1    1    2    0    0  0.10482489654E+03 -0.69305129477E+01 -0.43305039474E+02  0.16892784669E+03  0.12500000000E+03 0.  0.
</event>
<event>
 5    0  0.5619558E-005  0.3030836E+03  0.7546771E-02  0.1083709E+00
         21   -1    0    0  502  501  0.00000000000E+00  0.00000000000E+00  0.20147953989E+03  0.20147953989E+03  0.00000000000E+00 0. -1.
         21   -1    0    0  501  502 -0.00000000000E+00 -0.00000000000E+00 -0.45592552248E+03  0.45592552248E+03  0.00000000000E+00 0. -1.
         25    1    1    2    0    0  0.74977130119E+02 -0.42113426013E+02 -0.43497395314E+02  0.15783578203E+03  0.12500000000E+03 0.  0.
         25    1    1    2    0    0 -0.18157921666E+03  0.46407603958E+02  0.84635996838E+01  0.22543582268E+03  0.12500000000E+03 0.  0.
         25    1    1    2    0    0  0.10660208654E+03 -0.42941779453E+01 -0.21941218696E+03  0.27413345765E+03  0.12500000000E+03 0.  0.
</event>
<event>
 5    0  0.5619558E-005  0.5207818E+03  0.7546771E-02  0.1008493E+00
         21   -1    0    0  502  501  0.00000000000E+00  0.00000000000E+00  0.34644057984E+03  0.34644057984E+03  0.00000000000E+00 0. -1.
         21   -1    0    0  501  502 -0.00000000000E+00 -0.00000000000E+00 -0.78285785886E+03  0.78285785886E+03  0.00000000000E+00 0. -1.
         25    1    1    2    0    0  0.28442533466E+03  0.17664861044E+03  0.16177142872E+03  0.39229771567E+03  0.12500000000E+03 0.  0.
         25    1    1    2    0    0 -0.19118450506E+03 -0.61523300452E+02 -0.33716471473E+03  0.41187580207E+03  0.12500000000E+03 0.  0.
         25    1    1    2    0    0 -0.93240829601E+02 -0.11512530999E+03 -0.26102399301E+03  0.32512492096E+03  0.12500000000E+03 0.  0.
</event>
<event>
 5    0  0.5619558E-005  0.3527504E+03  0.7546771E-02  0.1061492E+00
         21   -1    0    0  502  501  0.00000000000E+00  0.00000000000E+00  0.87857294602E+03  0.87857294602E+03  0.00000000000E+00 0.  1.
         21   -1    0    0  501  502 -0.00000000000E+00 -0.00000000000E+00 -0.14163060421E+03  0.14163060421E+03  0.00000000000E+00 0.  1.
         25    1    1    2    0    0 -0.41395140293E+02  0.86870931120E+01  0.32602529153E+03  0.35171936817E+03  0.12500000000E+03 0.  0.
         25    1    1    2    0    0 -0.61354423875E+02 -0.16925387627E+03  0.37967868105E+03  0.43839724087E+03  0.12500000000E+03 0.  0.
         25    1    1    2    0    0  0.10274956417E+03  0.16056678316E+03  0.31238369233E+02  0.23008694119E+03  0.12500000000E+03 0.  0.
</event>
<event>
 5    0  0.5619558E-005  0.5884051E+03  0.7546771E-02  0.9929758E-01
         21   -1    0    0  502  501  0.00000000000E+00  0.00000000000E+00  0.12589859829E+04  0.12589859829E+04  0.00000000000E+00 0. -1.
         21   -1    0    0  501  502 -0.00000000000E+00 -0.00000000000E+00 -0.27499951129E+03  0.27499951129E+03  0.00000000000E+00 0. -1.
         25    1    1    2    0    0 -0.26645633219E+03  0.14079287516E+03  0.85226063788E+03  0.91257591769E+03  0.12500000000E+03 0.  0.
         25    1    1    2    0    0  0.38950829545E+02 -0.17235573169E+02  0.27137245435E+03  0.30179834507E+03  0.12500000000E+03 0.  0.
         25    1    1    2    0    0  0.22750550265E+03 -0.12355730199E+03 -0.13964662062E+03  0.31961123143E+03  0.12500000000E+03 0.  0.
</event>
<event>
 5    0  0.5619558E-005  0.4068693E+03  0.7546771E-02  0.1041427E+00
         21   -1    0    0  502  501  0.00000000000E+00  0.00000000000E+00  0.11898079120E+03  0.11898079120E+03  0.00000000000E+00 0. -1.
         21   -1    0    0  501  502 -0.00000000000E+00 -0.00000000000E+00 -0.13913388543E+04  0.13913388543E+04  0.00000000000E+00 0.  1.
         25    1    1    2    0    0  0.35335342142E+02  0.18030090920E+02 -0.15629135547E+03  0.20402367112E+03  0.12500000000E+03 0.  0.
         25    1    1    2    0    0 -0.60808991505E+02 -0.19025749792E+03 -0.10584487887E+04  0.10843590214E+04  0.12500000000E+03 0.  0.
         25    1    1    2    0    0  0.25473649363E+02  0.17222740700E+03 -0.57617918973E+02  0.22193695303E+03  0.12500000000E+03 0.  0.
</event>
<event>
 5    0  0.6043436E-005  0.3004633E+03  0.7546771E-02  0.1085009E+00
         21   -1    0    0  502  501  0.00000000000E+00  0.00000000000E+00  0.53445105703E+03  0.53445105703E+03  0.00000000000E+00 0. -1.
         21   -1    0    0  501  502 -0.00000000000E+00 -0.00000000000E+00 -0.16891758745E+03  0.16891758745E+03  0.00000000000E+00 0. -1.
         25    1    1    2    0    0  0.10029067944E+03  0.99629608007E+02  0.16187988202E+03  0.24862496934E+03  0.12500000000E+03 0.  0.
         25    1    1    2    0    0 -0.12248521859E+03 -0.75184962036E+02  0.25271793646E+03  0.31645973314E+03  0.12500000000E+03 0.  0.
         25    1    1    2    0    0  0.22194539145E+02 -0.24444645971E+02 -0.49064348892E+02  0.13828394201E+03  0.12500000000E+03 0.  0.
</event>
<event>
 5    0  0.5619558E-005  0.2342911E+03  0.7546771E-02  0.1123655E+00
         21   -1    0    0  502  501  0.00000000000E+00  0.00000000000E+00  0.14881327195E+03  0.14881327195E+03  0.00000000000E+00 0. -1.
         21   -1    0    0  501  502 -0.00000000000E+00 -0.00000000000E+00 -0.36886723557E+03  0.36886723557E+03  0.00000000000E+00 0. -1.
         25    1    1    2    0    0  0.57346021267E+02 -0.67265238256E+01 -0.81701204960E+02  0.16010589986E+03  0.12500000000E+03 0.  0.
         25    1    1    2    0    0 -0.12612523120E+03  0.27866585822E+02 -0.43458387587E+02  0.18492634210E+03  0.12500000000E+03 0.  0.
         25    1    1    2    0    0  0.68779209930E+02 -0.21140061996E+02 -0.94894371077E+02  0.17264826556E+03  0.12500000000E+03 0.  0.
</event>
<event>
 5    0  0.5619558E-005  0.3899770E+03  0.7546771E-02  0.1047307E+00
         21   -1    0    0  502  501  0.00000000000E+00  0.00000000000E+00  0.77671642589E+03  0.77671642589E+03  0.00000000000E+00 0. -1.
         21   -1    0    0  501  502 -0.00000000000E+00 -0.00000000000E+00 -0.19580127781E+03  0.19580127781E+03  0.00000000000E+00 0. -1.
         25    1    1    2    0    0 -0.18676742800E+03  0.15137601331E+03  0.32874523523E+03  0.42602253374E+03  0.12500000000E+03 0.  0.
         25    1    1    2    0    0  0.27415155992E+02  0.51245842911E+02  0.21807105279E+03  0.25798781223E+03  0.12500000000E+03 0.  0.
         25    1    1    2    0    0  0.15935227200E+03 -0.20262185622E+03  0.34098860060E+02  0.28850735774E+03  0.12500000000E+03 0.  0.
</event>
<event>
 5    0  0.5619558E-005  0.3535118E+03  0.7546771E-02  0.1061183E+00
         21   -1    0    0  502  501  0.00000000000E+00  0.00000000000E+00  0.13783740198E+03  0.13783740198E+03  0.00000000000E+00 0.  1.
         21   -1    0    0  501  502 -0.00000000000E+00 -0.00000000000E+00 -0.90665204061E+03  0.90665204061E+03  0.00000000000E+00 0.  1.
         25    1    1    2    0    0  0.16670244167E+03 -0.27900512645E+02 -0.18231143468E+02  0.21101070413E+03  0.12500000000E+03 0.  0.
         25    1    1    2    0    0 -0.15806051349E+03 -0.33741983102E+02 -0.30984369985E+03  0.37114655553E+03  0.12500000000E+03 0.  0.
         25    1    1    2    0    0 -0.86419281796E+01  0.61642495747E+02 -0.44073979531E+03  0.46233218293E+03  0.12500000000E+03 0.  0.
</event>
<event>
 5    0  0.5619558E-005  0.2500564E+03  0.7546771E-02  0.1113269E+00
         21   -1    0    0  502  501  0.00000000000E+00  0.00000000000E+00  0.16670456813E+03  0.16670456813E+03  0.00000000000E+00 0.  1.
         21   -1    0    0  501  502 -0.00000000000E+00 -0.00000000000E+00 -0.37508392098E+03  0.37508392098E+03  0.00000000000E+00 0.  1.
         25    1    1    2    0    0 -0.50990926208E+02 -0.11603397424E+03 -0.64619036149E+02  0.18937945392E+03  0.12500000000E+03 0.  0.
         25    1    1    2    0    0  0.86426275344E+02  0.71008297207E+01 -0.71632222987E+02  0.16815498275E+03  0.12500000000E+03 0.  0.
         25    1    1    2    0    0 -0.35435349136E+02  0.10893314452E+03 -0.72128093715E+02  0.18425405245E+03  0.12500000000E+03 0.  0.
</event>
<event>
 5    0  0.5619558E-005  0.2678727E+03  0.7546771E-02  0.1102503E+00
         21   -1    0    0  502  501  0.00000000000E+00  0.00000000000E+00  0.14448985175E+03  0.14448985175E+03  0.00000000000E+00 0. -1.
         21   -1    0    0  501  502 -0.00000000000E+00 -0.00000000000E+00 -0.49661480332E+03  0.49661480332E+03  0.00000000000E+00 0. -1.
         25    1    1    2    0    0  0.60402681751E+02 -0.71098868267E+02 -0.25330729615E+02  0.15801955225E+03  0.12500000000E+03 0.  0.
         25    1    1    2    0    0  0.58334161028E+02  0.27954302162E+02 -0.25529260101E+03  0.29151951819E+03  0.12500000000E+03 0.  0.
         25    1    1    2    0    0 -0.11873684278E+03  0.43144566105E+02 -0.71501620940E+02  0.19156558463E+03  0.12500000000E+03 0.  0.
</event>
<event>
 5    0  0.5619558E-005  0.2131654E+03  0.7546771E-02  0.1139084E+00
         21   -1    0    0  502  501  0.00000000000E+00  0.00000000000E+00  0.38494080143E+03  0.38494080143E+03  0.00000000000E+00 0.  1.
         21   -1    0    0  501  502 -0.00000000000E+00 -0.00000000000E+00 -0.11804284835E+03  0.11804284835E+03  0.00000000000E+00 0.  1.
         25    1    1    2    0    0 -0.62157732172E+02 -0.34781025007E+02  0.93458263614E+02  0.17155975754E+03  0.12500000000E+03 0.  0.
         25    1    1    2    0    0 -0.12962302861E+02  0.18131102004E+02  0.40191364519E+02  0.13318071909E+03  0.12500000000E+03 0.  0.
         25    1    1    2    0    0  0.75120035033E+02  0.16649923003E+02  0.13324832495E+03  0.19824317315E+03  0.12500000000E+03 0.  0.
</event>
<event>
 5    0  0.5619558E-005  0.2547367E+03  0.7546771E-02  0.1110347E+00
         21   -1    0    0  502  501  0.00000000000E+00  0.00000000000E+00  0.25898019281E+02  0.25898019281E+02  0.00000000000E+00 0. -1.
         21   -1    0    0  501  502 -0.00000000000E+00 -0.00000000000E+00 -0.25056267560E+04  0.25056267560E+04  0.00000000000E+00 0. -1.
         25    1    1    2    0    0 -0.81498549610E+02 -0.11873774942E+03 -0.71352137209E+03  0.73856510556E+03  0.12500000000E+03 0.  0.
         25    1    1    2    0    0 -0.81627350161E+01  0.30901726067E+02 -0.85685358231E+03  0.86651290148E+03  0.12500000000E+03 0.  0.
         25    1    1    2    0    0  0.89661284626E+02  0.87836023350E+02 -0.90935378233E+03  0.92644676825E+03  0.12500000000E+03 0.  0.
</event>
<event>
 5    0  0.5619558E-005  0.2511234E+03  0.7546771E-02  0.1112597E+00
         21   -1    0    0  502  501  0.00000000000E+00  0.00000000000E+00  0.70125460647E+02  0.70125460647E+02  0.00000000000E+00 0.  1.
         21   -1    0    0  501  502 -0.00000000000E+00 -0.00000000000E+00 -0.89928758392E+03  0.89928758392E+03  0.00000000000E+00 0.  1.
         25    1    1    2    0    0 -0.97893667793E+02  0.94147387189E+02 -0.21504651551E+03  0.28340237215E+03  0.12500000000E+03 0.  0.
         25    1    1    2    0    0  0.49903111684E+02 -0.47898922445E+01 -0.36854472739E+03  0.39238180349E+03  0.12500000000E+03 0.  0.
         25    1    1    2    0    0  0.47990556109E+02 -0.89357494944E+02 -0.24557088038E+03  0.29362886893E+03  0.12500000000E+03 0.  0.
</event>
<event>
 5    0  0.5619558E-005  0.3226741E+03  0.7546771E-02  0.1074425E+00
         21   -1    0    0  502  501  0.00000000000E+00  0.00000000000E+00  0.35923256751E+03  0.35923256751E+03  0.00000000000E+00 0.  1.
         21   -1    0    0  501  502 -0.00000000000E+00 -0.00000000000E+00 -0.28983620567E+03  0.28983620567E+03  0.00000000000E+00 0.  1.
         25    1    1    2    0    0 -0.11683813421E+03  0.18942648640E+03  0.55208771411E+02  0.26116384090E+03  0.12500000000E+03 0.  0.
         25    1    1    2    0    0  0.78796486940E+02  0.89548190318E+01 -0.13997514225E+02  0.14869433595E+03  0.12500000000E+03 0.  0.
         25    1    1    2    0    0  0.38041647266E+02 -0.19838130543E+03  0.28185104656E+02  0.23921059633E+03  0.12500000000E+03 0.  0.
</event>
<event>
 5    0  0.5619558E-005  0.3482523E+03  0.7546771E-02  0.1063335E+00
         21   -1    0    0  502  501  0.00000000000E+00  0.00000000000E+00  0.19159561216E+04  0.19159561216E+04  0.00000000000E+00 0.  1.
         21   -1    0    0  501  502 -0.00000000000E+00 -0.00000000000E+00 -0.63299816773E+02  0.63299816773E+02  0.00000000000E+00 0.  1.
         25    1    1    2    0    0  0.56267021619E+01 -0.11123482997E+03  0.13346375325E+03  0.21410843189E+03  0.12500000000E+03 0.  0.
         25    1    1    2    0    0  0.64690666631E+02  0.12274774056E+03  0.44142538517E+03  0.47930497685E+03  0.12500000000E+03 0.  0.
         25    1    1    2    0    0 -0.70317368793E+02 -0.11512910591E+02  0.12777671664E+04  0.12858425297E+04  0.12500000000E+03 0.  0.
</event>
<event>
 5    0  0.5619558E-005  0.2552528E+03  0.7546771E-02  0.1110029E+00
         21   -1    0    0  502  501  0.00000000000E+00  0.00000000000E+00  0.59311394721E+02  0.59311394721E+02  0.00000000000E+00 0.  1.
         21   -1    0    0  501  502 -0.00000000000E+00 -0.00000000000E+00 -0.10985068584E+04  0.10985068584E+04  0.00000000000E+00 0.  1.
         25    1    1    2    0    0 -0.72357169781E+02 -0.12619129926E+03 -0.60026429523E+03  0.63016031941E+03  0.12500000000E+03 0.  0.
         25    1    1    2    0    0  0.24334321985E+02  0.82811814464E+02 -0.23728462425E+03  0.28174269955E+03  0.12500000000E+03 0.  0.
         25    1    1    2    0    0  0.48022847796E+02  0.43379484798E+02 -0.20164654423E+03  0.24591523420E+03  0.12500000000E+03 0.  0.
</event>
<event>
 5    0  0.5619558E-005  0.3212522E+03  0.7546771E-02  0.1075074E+00
         21   -1    0    0  502  501  0.00000000000E+00  0.00000000000E+00  0.10877527521E+03  0.10877527521E+03  0.00000000000E+00 0. -1.
         21   -1    0    0  501  502 -0.00000000000E+00 -0.00000000000E+00 -0.94877235676E+03  0.94877235676E+03  0.00000000000E+00 0. -1.
         25    1    1    2    0    0  0.19438920626E+03  0.48865087765E+02 -0.20722465553E+03  0.31423242699E+03  0.12500000000E+03 0.  0.
         25    1    1    2    0    0 -0.15332326570E+03  0.19291828412E+01 -0.53845620467E+03  0.57364782742E+03  0.12500000000E+03 0.  0.
         25    1    1    2    0    0 -0.41065940559E+02 -0.50794270606E+02 -0.94316221351E+02  0.16966737757E+03  0.12500000000E+03 0.  0.
</event>
<event>
 5    0  0.5619558E-005  0.5030686E+03  0.7546771E-02  0.1012981E+00
         21   -1    0    0  502  501  0.00000000000E+00  0.00000000000E+00  0.29529153712E+04  0.29529153712E+04  0.00000000000E+00 0.  1.
         21   -1    0    0  501  502 -0.00000000000E+00 -0.00000000000E+00 -0.85704453626E+02  0.85704453626E+02  0.00000000000E+00 0.  1.
         25    1    1    2    0    0 -0.13019827487E+03  0.23564893952E+03  0.29530110073E+03  0.41870007591E+03  0.12500000000E+03 0.  0.
         25    1    1    2    0    0  0.16316456359E+03 -0.19015995075E+03  0.22835180110E+04  0.23006223045E+04  0.12500000000E+03 0.  0.
         25    1    1    2    0    0 -0.32966288720E+02 -0.45488988775E+02  0.28839180586E+03  0.31929744437E+03  0.12500000000E+03 0.  0.
</event>
<event>
 5    0  0.5619558E-005  0.2752627E+03  0.7546771E-02  0.1098305E+00
         21   -1    0    0  502  501  0.00000000000E+00  0.00000000000E+00  0.59495253091E+03  0.59495253091E+03  0.00000000000E+00 0.  1.
         21   -1    0    0  501  502 -0.00000000000E+00 -0.00000000000E+00 -0.12735398462E+03  0.12735398462E+03  0.00000000000E+00 0.  1.
         25    1    1    2    0    0  0.13724644611E+03 -0.31340047305E+02  0.12118667861E+03  0.22389729031E+03  0.12500000000E+03 0.  0.
         25    1    1    2    0    0 -0.12198637103E+03  0.10430420081E+03  0.25633434962E+03  0.32724965977E+03  0.12500000000E+03 0.  0.
         25    1    1    2    0    0 -0.15260075080E+02 -0.72964153507E+02  0.90077518057E+02  0.17115956546E+03  0.12500000000E+03 0.  0.
</event>
<event>
 5    0  0.5619558E-005  0.5299995E+03  0.7546771E-02  0.1006232E+00
         21   -1    0    0  502  501  0.00000000000E+00  0.00000000000E+00  0.66135814909E+03  0.66135814909E+03  0.00000000000E+00 0. -1.
         21   -1    0    0  501  502 -0.00000000000E+00 -0.00000000000E+00 -0.42473120419E+03  0.42473120419E+03  0.00000000000E+00 0. -1.
         25    1    1    2    0    0 -0.22236659768E+03 -0.12569299469E+03 -0.24166648775E+03  0.37319341364E+03  0.12500000000E+03 0.  0.
         25    1    1    2    0    0  0.24618254564E+02  0.20692720666E+03  0.36987383616E+03  0.44255686865E+03  0.12500000000E+03 0.  0.
         25    1    1    2    0    0  0.19774834312E+03 -0.81234211970E+02  0.10841959648E+03  0.27033907099E+03  0.12500000000E+03 0.  0.
</event>
<event>
 5    0  0.5619558E-005  0.4429788E+03  0.7546771E-02  0.1029837E+00
         21   -1    0    0  502  501  0.00000000000E+00  0.00000000000E+00  0.75306916166E+03  0.75306916166E+03  0.00000000000E+00 0.  1.
         21   -1    0    0  501  502 -0.00000000000E+00 -0.00000000000E+00 -0.26057395160E+03  0.26057395160E+03  0.00000000000E+00 0.  1.
         25    1    1    2    0    0 -0.86257035451E+02  0.89435436758E+02 -0.21928233396E+02  0.17760861728E+03  0.12500000000E+03 0.  0.
         25    1    1    2    0    0 -0.15170652336E+03 -0.24531408061E+03  0.12611675693E+03  0.33870976330E+03  0.12500000000E+03 0.  0.
         25    1    1    2    0    0  0.23796355881E+03  0.15587864385E+03  0.38830668653E+03  0.49732473268E+03  0.12500000000E+03 0.  0.
</event>
<event>
 5    0  0.5619558E-005  0.3283466E+03  0.7546771E-02  0.1071871E+00
         21   -1    0    0  502  501  0.00000000000E+00  0.00000000000E+00  0.35874985577E+03  0.35874985577E+03  0.00000000000E+00 0. -1.
         21   -1    0    0  501  502 -0.00000000000E+00 -0.00000000000E+00 -0.30052000852E+03  0.30052000852E+03  0.00000000000E+00 0. -1.
         25    1    1    2    0    0 -0.52532041488E+02  0.14409512793E+03 -0.90785491818E+02  0.21769250515E+03  0.12500000000E+03 0.  0.
         25    1    1    2    0    0  0.36856830823E+02 -0.43678377358E+02  0.22483960523E+03  0.26352243682E+03  0.12500000000E+03 0.  0.
         25    1    1    2    0    0  0.15675210665E+02 -0.10041675057E+03 -0.75824266158E+02  0.17805492232E+03  0.12500000000E+03 0.  0.
</event>
<event>
 5    0  0.5619558E-005  0.2002046E+03  0.7546771E-02  0.1149567E+00
         21   -1    0    0  502  501  0.00000000000E+00  0.00000000000E+00  0.10162610266E+03  0.10162610266E+03  0.00000000000E+00 0.  1.
         21   -1    0    0  501  502 -0.00000000000E+00 -0.00000000000E+00 -0.39440532010E+03  0.39440532010E+03  0.00000000000E+00 0.  1.
         25    1    1    2    0    0 -0.16444904595E+02  0.16382029337E+02 -0.67734379816E+02  0.14405468400E+03  0.12500000000E+03 0.  0.
         25    1    1    2    0    0 -0.17779401993E+02  0.35263613902E+02 -0.11169810771E+03  0.17222397297E+03  0.12500000000E+03 0.  0.
         25    1    1    2    0    0  0.34224306588E+02 -0.51645643239E+02 -0.11334672991E+03  0.17975276579E+03  0.12500000000E+03 0.  0.
</event>
<event>
 5    0  0.5619558E-005  0.2470304E+03  0.7546771E-02  0.1115196E+00
         21   -1    0    0  502  501  0.00000000000E+00  0.00000000000E+00  0.67829701383E+02  0.67829701383E+02  0.00000000000E+00 0. -1.
         21   -1    0    0  501  502 -0.00000000000E+00 -0.00000000000E+00 -0.89966501864E+03  0.89966501864E+03  0.00000000000E+00 0. -1.
         25    1    1    2    0    0 -0.10920891620E+03 -0.14558908873E+02 -0.27891685680E+03  0.32489715636E+03  0.12500000000E+03 0.  0.
         25    1    1    2    0    0  0.12947118516E+03 -0.43507312207E+02 -0.27203590468E+03  0.32906565825E+03  0.12500000000E+03 0.  0.
         25    1    1    2    0    0 -0.20262268964E+02  0.58066221080E+02 -0.28088255577E+03  0.31353190541E+03  0.12500000000E+03 0.  0.
</event>
<event>
 5    0  0.5619558E-005  0.3991915E+03  0.7546771E-02  0.1044060E+00
         21   -1    0    0  502  501  0.00000000000E+00  0.00000000000E+00  0.23701435165E+03  0.23701435165E+03  0.00000000000E+00 0. -1.
         21   -1    0    0  501  502 -0.00000000000E+00 -0.00000000000E+00 -0.67233845561E+03  0.67233845561E+03  0.00000000000E+00 0. -1.
         25    1    1    2    0    0 -0.24008612347E+03 -0.10336652512E+00 -0.35421693472E+01  0.27070076529E+03  0.12500000000E+03 0.  0.
         25    1    1    2    0    0  0.16745891771E+03  0.13703059486E+03 -0.33311845179E+03  0.41642859648E+03  0.12500000000E+03 0.  0.
         25    1    1    2    0    0  0.72627205759E+02 -0.13692722833E+03 -0.98663482823E+02  0.22222344547E+03  0.12500000000E+03 0.  0.
</event>
<event>
 5    0  0.5698766E-005  0.3761023E+03  0.7546771E-02  0.1052384E+00
         21   -1    0    0  502  501  0.00000000000E+00  0.00000000000E+00  0.14068028560E+03  0.14068028560E+03  0.00000000000E+00 0.  1.
         21   -1    0    0  501  502 -0.00000000000E+00 -0.00000000000E+00 -0.10054922958E+04  0.10054922958E+04  0.00000000000E+00 0.  1.
         25    1    1    2    0    0  0.89746680527E+02  0.11129904292E+03 -0.96909969794E+01  0.19016008793E+03  0.12500000000E+03 0.  0.
         25    1    1    2    0    0  0.98908331462E+02 -0.80629136060E+02 -0.52529969601E+03  0.55484113604E+03  0.12500000000E+03 0.  0.
         25    1    1    2    0    0 -0.18865501199E+03 -0.30669906858E+02 -0.32982131725E+03  0.40117135746E+03  0.12500000000E+03 0.  0.
</event>
<event>
 5    0  0.5619558E-005  0.2907469E+03  0.7546771E-02  0.1089960E+00
         21   -1    0    0  502  501  0.00000000000E+00  0.00000000000E+00  0.79466039020E+03  0.79466039020E+03  0.00000000000E+00 0.  1.
         21   -1    0    0  501  502 -0.00000000000E+00 -0.00000000000E+00 -0.10637718225E+03  0.10637718225E+03  0.00000000000E+00 0.  1.
         25    1    1    2    0    0 -0.15411799180E+03  0.65773075356E+02  0.41070716850E+03  0.46085120277E+03  0.12500000000E+03 0.  0.
         25    1    1    2    0    0  0.49004474960E+01 -0.29509673662E+02  0.48448646998E+02  0.13735758669E+03  0.12500000000E+03 0.  0.
         25    1    1    2    0    0  0.14921754430E+03 -0.36263401694E+02  0.22912739246E+03  0.30282878299E+03  0.12500000000E+03 0.  0.
</event>
<event>
 5    0  0.5632483E-005  0.3511446E+03  0.7546771E-02  0.1062146E+00
         21   -1    0    0  502  501  0.00000000000E+00  0.00000000000E+00  0.16617296353E+03  0.16617296353E+03  0.00000000000E+00 0.  1.
         21   -1    0    0  501  502 -0.00000000000E+00 -0.00000000000E+00 -0.74201299925E+03  0.74201299925E+03  0.00000000000E+00 0.  1.
         25    1    1    2    0    0 -0.20277218499E+03  0.10229134393E+03 -0.31210471029E+03  0.40572703661E+03  0.12500000000E+03 0.  0.
         25    1    1    2    0    0  0.13072503171E+03 -0.25225129749E+02 -0.28399027013E+03  0.33764006667E+03  0.12500000000E+03 0.  0.
         25    1    1    2    0    0  0.72047153275E+02 -0.77066214178E+02  0.20254944703E+02  0.16481885950E+03  0.12500000000E+03 0.  0.
</event>
<event>
 5    0  0.5619558E-005  0.2704286E+03  0.7546771E-02  0.1101035E+00
         21   -1    0    0  502  501  0.00000000000E+00  0.00000000000E+00  0.37067365820E+03  0.37067365820E+03  0.00000000000E+00 0.  1.
         21   -1    0    0  501  502 -0.00000000000E+00 -0.00000000000E+00 -0.19729389880E+03  0.19729389880E+03  0.00000000000E+00 0.  1.
         25    1    1    2    0    0 -0.40707601072E+02  0.10528183527E+03  0.47483049447E+02  0.17498860993E+03  0.12500000000E+03 0.  0.
         25    1    1    2    0    0  0.10102474763E+03 -0.56668093521E+02 -0.36088031782E+02  0.17419706799E+03  0.12500000000E+03 0.  0.
         25    1    1    2    0    0 -0.60317146556E+02 -0.48613741744E+02  0.16198474174E+03  0.21878187907E+03  0.12500000000E+03 0.  0.
</event>
<event>
 5    0  0.5619558E-005  0.2533125E+03  0.7546771E-02  0.1111229E+00
         21   -1    0    0  502  501  0.00000000000E+00  0.00000000000E+00  0.43706364994E+02  0.43706364994E+02  0.00000000000E+00 0. -1.
         21   -1    0    0  501  502 -0.00000000000E+00 -0.00000000000E+00 -0.14681437016E+04  0.14681437016E+04  0.00000000000E+00 0. -1.
         25    1    1    2    0    0  0.69909745039E+02 -0.13638610180E+02 -0.58993798112E+03  0.60722747443E+03  0.12500000000E+03 0.  0.
         25    1    1    2    0    0 -0.13666417811E+03 -0.11273988464E+02 -0.31520470786E+03  0.36576386953E+03  0.12500000000E+03 0.  0.
         25    1    1    2    0    0  0.66754433073E+02  0.24912598644E+02 -0.51929464766E+03  0.53885872267E+03  0.12500000000E+03 0.  0.
</event>
<event>
 5    0  0.5619558E-005  0.2467215E+03  0.7546771E-02  0.1115394E+00
         21   -1    0    0  502  501  0.00000000000E+00  0.00000000000E+00  0.23288623637E+02  0.23288623637E+02  0.00000000000E+00 0. -1.
         21   -1    0    0  501  502 -0.00000000000E+00 -0.00000000000E+00 -0.26137877653E+04  0.26137877653E+04  0.00000000000E+00 0. -1.
         25    1    1    2    0    0 -0.99590198672E+02 -0.88950250298E+02 -0.87569742635E+03  0.89459562777E+03  0.12500000000E+03 0.  0.
         25    1    1    2    0    0 -0.12817316254E+02  0.58058501144E+02 -0.77025055309E+03  0.78258928417E+03  0.12500000000E+03 0.  0.
         25    1    1    2    0    0  0.11240751493E+03  0.30891749155E+02 -0.94455116221E+03  0.95989147699E+03  0.12500000000E+03 0.  0.
</event>
<event>
 5    0  0.5619558E-005  0.4268543E+03  0.7546771E-02  0.1034858E+00
         21   -1    0    0  502  501  0.00000000000E+00  0.00000000000E+00  0.12630516128E+04  0.12630516128E+04  0.00000000000E+00 0. -1.
         21   -1    0    0  501  502 -0.00000000000E+00 -0.00000000000E+00 -0.14425743403E+03  0.14425743403E+03  0.00000000000E+00 0. -1.
         25    1    1    2    0    0  0.76541614775E+02  0.15193927155E+02 -0.34290903830E+02  0.15129553959E+03  0.12500000000E+03 0.  0.
         25    1    1    2    0    0 -0.41287567305E+02  0.17888969810E+03  0.81773825682E+03  0.84736476441E+03  0.12500000000E+03 0.  0.
         25    1    1    2    0    0 -0.35254047470E+02 -0.19408362525E+03  0.33534682577E+03  0.40864874282E+03  0.12500000000E+03 0.  0.
</event>
<event>
 5    0  0.5619558E-005  0.2963076E+03  0.7546771E-02  0.1087101E+00
         21   -1    0    0  502  501  0.00000000000E+00  0.00000000000E+00  0.18014663071E+03  0.18014663071E+03  0.00000000000E+00 0. -1.
         21   -1    0    0  501  502 -0.00000000000E+00 -0.00000000000E+00 -0.48737061813E+03  0.48737061813E+03  0.00000000000E+00 0. -1.
         25    1    1    2    0    0 -0.18743182878E+01 -0.86120193152E+02 -0.86820186572E+02  0.17487980310E+03  0.12500000000E+03 0.  0.
         25    1    1    2    0    0  0.15366310674E+03 -0.40724504710E+02 -0.67858088859E+02  0.21330859308E+03  0.12500000000E+03 0.  0.
         25    1    1    2    0    0 -0.15178878846E+03  0.12684469786E+03 -0.15254571199E+03  0.27932885265E+03  0.12500000000E+03 0.  0.
</event>
<event>
 5    0  0.5619558E-005  0.4256315E+03  0.7546771E-02  0.1035249E+00
         21   -1    0    0  502  501  0.00000000000E+00  0.00000000000E+00  0.56575862278E+03  0.56575862278E+03  0.00000000000E+00 0.  1.
         21   -1    0    0  501  502 -0.00000000000E+00 -0.00000000000E+00 -0.32021106055E+03  0.32021106055E+03  0.00000000000E+00 0.  1.
         25    1    1    2    0    0 -0.74531719604E+02 -0.23162334097E+02 -0.12283897116E+03  0.19184859599E+03  0.12500000000E+03 0.  0.
         25    1    1    2    0    0 -0.13525166759E+03  0.17804144174E+03  0.30460579161E+03  0.39799680507E+03  0.12500000000E+03 0.  0.
         25    1    1    2    0    0  0.20978338720E+03 -0.15487910764E+03  0.63780741773E+02  0.29612428227E+03  0.12500000000E+03 0.  0.
</event>
<event>
 5    0  0.5619558E-005  0.2593596E+03  0.7546771E-02  0.1107529E+00
         21   -1    0    0  502  501  0.00000000000E+00  0.00000000000E+00  0.23672116927E+03  0.23672116927E+03  0.00000000000E+00 0. -1.
         21   -1    0    0  501  502 -0.00000000000E+00 -0.00000000000E+00 -0.28416293003E+03  0.28416293003E+03  0.00000000000E+00 0. -1.
         25    1    1    2    0    0 -0.10939025102E+03  0.41550199137E+02 -0.91603478991E+02  0.19418765004E+03  0.12500000000E+03 0.  0.
         25    1    1    2    0    0  0.13326881628E+03  0.90529894672E+00  0.58307973346E+02  0.19179733239E+03  0.12500000000E+03 0.  0.
         25    1    1    2    0    0 -0.23878565261E+02 -0.42455498084E+02 -0.14146255114E+02  0.13489911686E+03  0.12500000000E+03 0.  0.
</event>
<event>
 5    0  0.5619558E-005  0.4918724E+03  0.7546771E-02  0.1015922E+00
         21   -1    0    0  502  501  0.00000000000E+00  0.00000000000E+00  0.49781650754E+03  0.49781650754E+03  0.00000000000E+00 0. -1.
         21   -1    0    0  501  502 -0.00000000000E+00 -0.00000000000E+00 -0.48599931495E+03  0.48599931495E+03  0.00000000000E+00 0. -1.
         25    1    1    2    0    0 -0.95511525565E+02 -0.33968170492E+03  0.16562434284E+03  0.40934403027E+03  0.12500000000E+03 0.  0.
         25    1    1    2    0    0  0.12098469971E+03  0.27880051939E+03 -0.24177762020E+03  0.40798093681E+03  0.12500000000E+03 0.  0.
         25    1    1    2    0    0 -0.25473174147E+02  0.60881185535E+02  0.87970469936E+02  0.16649085541E+03  0.12500000000E+03 0.  0.
</event>
<event>
 5    0  0.5619558E-005  0.4077946E+03  0.7546771E-02  0.1041114E+00
         21   -1    0    0  502  501  0.00000000000E+00  0.00000000000E+00  0.76610200228E+02  0.76610200228E+02  0.00000000000E+00 0. -1.
         21   -1    0    0  501  502 -0.00000000000E+00 -0.00000000000E+00 -0.21706829049E+04  0.21706829049E+04  0.00000000000E+00 0. -1.
         25    1    1    2    0    0  0.21227211553E+03 -0.11016096622E+03 -0.46817610616E+03  0.54037834514E+03  0.12500000000E+03 0.  0.
         25    1    1    2    0    0 -0.27526289935E+03  0.18702035893E+03 -0.12199693658E+04  0.12707070992E+04  0.12500000000E+03 0.  0.
         25    1    1    2    0    0  0.62990783820E+02 -0.76859392715E+02 -0.40592723272E+03  0.43620766082E+03  0.12500000000E+03 0.  0.
</event>
<event>
 5    0  0.5619558E-005  0.4496564E+03  0.7546771E-02  0.1027825E+00
         21   -1    0    0  502  501  0.00000000000E+00  0.00000000000E+00  0.70681519861E+03  0.70681519861E+03  0.00000000000E+00 0. -1.
         21   -1    0    0  501  502 -0.00000000000E+00 -0.00000000000E+00 -0.28605904123E+03  0.28605904123E+03  0.00000000000E+00 0. -1.
         25    1    1    2    0    0  0.10439649685E+03  0.11393011431E+03 -0.16825884414E+03  0.26041263052E+03  0.12500000000E+03 0.  0.
         25    1    1    2    0    0  0.10731601103E+02  0.63191582394E+02  0.39607325430E+03  0.42024679192E+03  0.12500000000E+03 0.  0.
         25    1    1    2    0    0 -0.11512809796E+03 -0.17712169671E+03  0.19294174723E+03  0.31221481740E+03  0.12500000000E+03 0.  0.
</event>
<event>
 5    0  0.5619558E-005  0.5839941E+03  0.7546771E-02  0.9939181E-01
         21   -1    0    0  502  501  0.00000000000E+00  0.00000000000E+00  0.36454808568E+03  0.36454808568E+03  0.00000000000E+00 0.  1.
         21   -1    0    0  501  502 -0.00000000000E+00 -0.00000000000E+00 -0.93553955254E+03  0.93553955254E+03  0.00000000000E+00 0.  1.
         25    1    1    2    0    0 -0.10585472567E+03  0.10843363406E+03 -0.69986498492E+02  0.20853341678E+03  0.12500000000E+03 0.  0.
         25    1    1    2    0    0  0.18112333464E+03 -0.42041882957E+03  0.10793054289E+02  0.47465687041E+03  0.12500000000E+03 0.  0.
         25    1    1    2    0    0 -0.75268608974E+02  0.31198519551E+03 -0.51179802265E+03  0.61689735103E+03  0.12500000000E+03 0.  0.
</event>
<event>
 5    0  0.5619558E-005  0.4171506E+03  0.7546771E-02  0.1037998E+00
         21   -1    0    0  502  501  0.00000000000E+00  0.00000000000E+00  0.10911696958E+03  0.10911696958E+03  0.00000000000E+00 0. -1.
         21   -1    0    0  501  502 -0.00000000000E+00 -0.00000000000E+00 -0.15947530799E+04  0.15947530799E+04  0.00000000000E+00 0. -1.
         25    1    1    2    0    0  0.16629035508E+03  0.24073735223E+03 -0.31077552876E+03  0.44476216591E+03  0.12500000000E+03 0.  0.
         25    1    1    2    0    0 -0.18812909158E+03 -0.21271261536E+03 -0.95018104366E+03  0.99955401433E+03  0.12500000000E+03 0.  0.
         25    1    1    2    0    0  0.21838736505E+02 -0.28024736861E+02 -0.22467953790E+03  0.25955386925E+03  0.12500000000E+03 0.  0.
</event>
<event>
 5    0  0.5619558E-005  0.3268483E+03  0.7546771E-02  0.1072540E+00
         21   -1    0    0  502  501  0.00000000000E+00  0.00000000000E+00  0.22684322735E+04  0.22684322735E+04  0.00000000000E+00 0. -1.
         21   -1    0    0  501  502 -0.00000000000E+00 -0.00000000000E+00 -0.47094126315E+02  0.47094126315E+02  0.00000000000E+00 0. -1.
         25    1    1    2    0    0 -0.26487096969E+01  0.19070007626E+03  0.13755024411E+04  0.13942759771E+04  0.12500000000E+03 0.  0.
         25    1    1    2    0    0 -0.76554186952E+01 -0.17160632207E+03  0.68023610942E+03  0.71263840745E+03  0.12500000000E+03 0.  0.
         25    1    1    2    0    0  0.10304128392E+02 -0.19093754186E+02  0.16559959664E+03  0.20861201528E+03  0.12500000000E+03 0.  0.
</event>
<event>
 5    0  0.5619558E-005  0.2773307E+03  0.7546771E-02  0.1097156E+00
         21   -1    0    0  502  501  0.00000000000E+00  0.00000000000E+00  0.51114291674E+02  0.51114291674E+02  0.00000000000E+00 0.  1.
         21   -1    0    0  501  502 -0.00000000000E+00 -0.00000000000E+00 -0.15047130534E+04  0.15047130534E+04  0.00000000000E+00 0.  1.
         25    1    1    2    0    0 -0.64423570657E+02  0.28374957461E+02 -0.25024070443E+03  0.28844573982E+03  0.12500000000E+03 0.  0.
         25    1    1    2    0    0  0.97395446170E+02 -0.12756053071E+03 -0.41275463475E+03  0.46016187417E+03  0.12500000000E+03 0.  0.
         25    1    1    2    0    0 -0.32971875513E+02  0.99185573245E+02 -0.79060342254E+03  0.80721973108E+03  0.12500000000E+03 0.  0.
</event>
<event>
 5    0  0.5619558E-005  0.3675107E+03  0.7546771E-02  0.1055649E+00
         21   -1    0    0  502  501  0.00000000000E+00  0.00000000000E+00  0.45688504566E+03  0.45688504566E+03  0.00000000000E+00 0.  1.
         21   -1    0    0  501  502 -0.00000000000E+00 -0.00000000000E+00 -0.29561948228E+03  0.29561948228E+03  0.00000000000E+00 0.  1.
         25    1    1    2    0    0 -0.11153990722E+02  0.21985161110E+02  0.44003754319E+02  0.13479276395E+03  0.12500000000E+03 0.  0.
         25    1    1    2    0    0 -0.25700558188E+03  0.14082138657E+02  0.14046681527E+03  0.31875712061E+03  0.12500000000E+03 0.  0.
         25    1    1    2    0    0  0.26815957260E+03 -0.36067299767E+02 -0.23205006205E+02  0.29895464339E+03  0.12500000000E+03 0.  0.
</event>
<event>
 5    0  0.5619558E-005  0.3359420E+03  0.7546771E-02  0.1068538E+00
         21   -1    0    0  502  501  0.00000000000E+00  0.00000000000E+00  0.52938760367E+03  0.52938760367E+03  0.00000000000E+00 0. -1.
         21   -1    0    0  501  502 -0.00000000000E+00 -0.00000000000E+00 -0.21318416971E+03  0.21318416971E+03  0.00000000000E+00 0. -1.
         25    1    1    2    0    0  0.65108148547E+02 -0.23927238502E+03  0.80519861446E+02  0.28913455920E+03  0.12500000000E+03 0.  0.
         25    1    1    2    0    0 -0.10184889285E+03  0.15551818450E+03  0.18480635911E+03  0.29040918211E+03  0.12500000000E+03 0.  0.
         25    1    1    2    0    0  0.36740744302E+02  0.83754200512E+02  0.50877213410E+02  0.16302803207E+03  0.12500000000E+03 0.  0.
</event>
<event>
 5    0  0.5619558E-005  0.6984318E+03  0.7546771E-02  0.9719918E-01
         21   -1    0    0  502  501  0.00000000000E+00  0.00000000000E+00  0.50029999970E+03  0.50029999970E+03  0.00000000000E+00 0. -1.
         21   -1    0    0  501  502 -0.00000000000E+00 -0.00000000000E+00 -0.97502885767E+03  0.97502885767E+03  0.00000000000E+00 0. -1.
         25    1    1    2    0    0 -0.31044681638E+03  0.12648732034E+03 -0.76873223112E+03  0.84790949468E+03  0.12500000000E+03 0.  0.
         25    1    1    2    0    0  0.11453259727E+03  0.83734400086E+02  0.24618693801E+03  0.31042257334E+03  0.12500000000E+03 0.  0.
         25    1    1    2    0    0  0.19591421911E+03 -0.21022172043E+03  0.47816435134E+02  0.31699678935E+03  0.12500000000E+03 0.  0.
</event>
<event>
 5    0  0.5619558E-005  0.2559414E+03  0.7546771E-02  0.1109607E+00
         21   -1    0    0  502  501  0.00000000000E+00  0.00000000000E+00  0.29518520025E+02  0.29518520025E+02  0.00000000000E+00 0. -1.
         21   -1    0    0  501  502 -0.00000000000E+00 -0.00000000000E+00 -0.22191487456E+04  0.22191487456E+04  0.00000000000E+00 0. -1.
         25    1    1    2    0    0 -0.42925886066E+02 -0.78071501247E+02 -0.94831650065E+03  0.96065965691E+03  0.12500000000E+03 0.  0.
         25    1    1    2    0    0  0.28338944087E+02  0.10089384467E+03 -0.33378600414E+03  0.37151145367E+03  0.12500000000E+03 0.  0.
         25    1    1    2    0    0  0.14586941978E+02 -0.22822343423E+02 -0.90752772075E+03  0.91649615502E+03  0.12500000000E+03 0.  0.
</event>
<event>
 5    0  0.5619558E-005  0.2545027E+03  0.7546771E-02  0.1110492E+00
         21   -1    0    0  502  501  0.00000000000E+00  0.00000000000E+00  0.20346731638E+04  0.20346731638E+04  0.00000000000E+00 0. -1.
         21   -1    0    0  501  502 -0.00000000000E+00 -0.00000000000E+00 -0.31833911996E+02  0.31833911996E+02  0.00000000000E+00 0. -1.
         25    1    1    2    0    0  0.23111702139E+01 -0.12234785844E+03  0.49013425729E+03  0.52041419095E+03  0.12500000000E+03 0.  0.
         25    1    1    2    0    0 -0.70190751967E+00  0.19516662137E+01  0.37662684965E+03  0.39683382612E+03  0.12500000000E+03 0.  0.
         25    1    1    2    0    0 -0.16092626942E+01  0.12039619223E+03  0.11360781448E+04  0.11492590587E+04  0.12500000000E+03 0.  0.
</event>
<event>
 5    0  0.5619558E-005  0.2061423E+03  0.7546771E-02  0.1144658E+00
         21   -1    0    0  502  501  0.00000000000E+00  0.00000000000E+00  0.13746380091E+04  0.13746380091E+04  0.00000000000E+00 0.  1.
         21   -1    0    0  501  502 -0.00000000000E+00 -0.00000000000E+00 -0.30913340897E+02  0.30913340897E+02  0.00000000000E+00 0.  1.
         25    1    1    2    0    0  0.71651801392E+01  0.11011079340E+02  0.45622611278E+03  0.47322283298E+03  0.12500000000E+03 0.  0.
         25    1    1    2    0    0  0.80164835417E+01 -0.34384763233E+01  0.22148021976E+03  0.25446920221E+03  0.12500000000E+03 0.  0.
         25    1    1    2    0    0 -0.15181663681E+02 -0.75726030166E+01  0.66601833567E+03  0.67785931481E+03  0.12500000000E+03 0.  0.
</event>
<event>
 5    0  0.5619558E-005  0.3397612E+03  0.7546771E-02  0.1066898E+00
         21   -1    0    0  502  501  0.00000000000E+00  0.00000000000E+00  0.91716183692E+02  0.91716183692E+02  0.00000000000E+00 0.  1.
         21   -1    0    0  501  502 -0.00000000000E+00 -0.00000000000E+00 -0.12586404117E+04  0.12586404117E+04  0.00000000000E+00 0.  1.
         25    1    1    2    0    0  0.16090073223E+03  0.12636853376E+03 -0.28923786936E+03  0.37568816461E+03  0.12500000000E+03 0.  0.
         25    1    1    2    0    0 -0.61950374529E+02 -0.19344084644E+03 -0.38917163478E+03  0.45643923066E+03  0.12500000000E+03 0.  0.
         25    1    1    2    0    0 -0.98950357705E+02  0.67072312680E+02 -0.48851472391E+03  0.51822920015E+03  0.12500000000E+03 0.  0.
</event>
<event>
 5    0  0.5619558E-005  0.3864283E+03  0.7546771E-02  0.1048583E+00
         21   -1    0    0  502  501  0.00000000000E+00  0.00000000000E+00  0.79751172776E+02  0.79751172776E+02  0.00000000000E+00 0. -1.
         21   -1    0    0  501  502 -0.00000000000E+00 -0.00000000000E+00 -0.18724095031E+04  0.18724095031E+04  0.00000000000E+00 0. -1.
         25    1    1    2    0    0  0.21058245767E+03 -0.22963198029E+03 -0.63148351063E+03  0.71517287563E+03  0.12500000000E+03 0.  0.
         25    1    1    2    0    0 -0.90819842459E+02  0.22520974319E+02 -0.44885721638E+03  0.47524019060E+03  0.12500000000E+03 0.  0.
         25    1    1    2    0    0 -0.11976261521E+03  0.20711100597E+03 -0.71231760330E+03  0.76174760962E+03  0.12500000000E+03 0.  0.
</event>
<event>
 5    0  0.5619558E-005  0.6716624E+03  0.7546771E-02  0.9766959E-01
         21   -1    0    0  502  501  0.00000000000E+00  0.00000000000E+00  0.24194675527E+03  0.24194675527E+03  0.00000000000E+00 0.  1.
         21   -1    0    0  501  502 -0.00000000000E+00 -0.00000000000E+00 -0.18645854200E+04  0.18645854200E+04  0.00000000000E+00 0.  1.
         25    1    1    2    0    0 -0.64187220108E+02 -0.32379068382E+03 -0.10719842844E+04  0.11285990042E+04  0.12500000000E+03 0.  0.
         25    1    1    2    0    0  0.82240959282E+00 -0.13785501495E+03 -0.44740107318E+03  0.48455897658E+03  0.12500000000E+03 0.  0.
         25    1    1    2    0    0  0.63364810516E+02  0.46164569877E+03 -0.10325330716E+03  0.49337419455E+03  0.12500000000E+03 0.  0.
</event>
<event>
 5    0  0.5619558E-005  0.3167627E+03  0.7546771E-02  0.1077149E+00
         21   -1    0    0  502  501  0.00000000000E+00  0.00000000000E+00  0.78929146058E+03  0.78929146058E+03  0.00000000000E+00 0. -1.
         21   -1    0    0  501  502 -0.00000000000E+00 -0.00000000000E+00 -0.12712492250E+03  0.12712492250E+03  0.00000000000E+00 0. -1.
         25    1    1    2    0    0  0.63375661705E+02 -0.12389031800E+03  0.46678409534E+03  0.50286944335E+03  0.12500000000E+03 0.  0.
         25    1    1    2    0    0  0.68165114591E+02  0.50866043218E+01  0.11183373611E+03  0.18111913462E+03  0.12500000000E+03 0.  0.
         25    1    1    2    0    0 -0.13154077630E+03  0.11880371368E+03  0.83548706618E+02  0.23242780511E+03  0.12500000000E+03 0.  0.
</event>
<event>
 5    0  0.5619558E-005  0.2862798E+03  0.7546771E-02  0.1092308E+00
         21   -1    0    0  502  501  0.00000000000E+00  0.00000000000E+00  0.13215861861E+03  0.13215861861E+03  0.00000000000E+00 0. -1.
         21   -1    0    0  501  502 -0.00000000000E+00 -0.00000000000E+00 -0.62013435237E+03  0.62013435237E+03  0.00000000000E+00 0. -1.
         25    1    1    2    0    0  0.33727146993E+02 -0.51305624292E+02 -0.54734245267E+02  0.14963497296E+03  0.12500000000E+03 0.  0.
         25    1    1    2    0    0 -0.50495212356E+02  0.18901545752E+03 -0.24322498635E+03  0.33624396446E+03  0.12500000000E+03 0.  0.
         25    1    1    2    0    0  0.16768065363E+02 -0.13770983323E+03 -0.19001650215E+03  0.26641403355E+03  0.12500000000E+03 0.  0.
</event>
<event>
 5    0  0.5619558E-005  0.4263972E+03  0.7546771E-02  0.1035004E+00
         21   -1    0    0  502  501  0.00000000000E+00  0.00000000000E+00  0.34542099002E+03  0.34542099002E+03  0.00000000000E+00 0. -1.
         21   -1    0    0  501  502 -0.00000000000E+00 -0.00000000000E+00 -0.52635648363E+03  0.52635648363E+03  0.00000000000E+00 0. -1.
         25    1    1    2    0    0  0.95102085879E+00  0.84530563240E+02  0.39503951836E+02  0.15598680320E+03  0.12500000000E+03 0.  0.
         25    1    1    2    0    0  0.34466055599E+02  0.14657807701E+03 -0.36475230194E+03  0.41393511982E+03  0.12500000000E+03 0.  0.
         25    1    1    2    0    0 -0.35417076458E+02 -0.23110864025E+03  0.14431285649E+03  0.30185555064E+03  0.12500000000E+03 0.  0.
</event>
<event>
 5    0  0.5619558E-005  0.3635853E+03  0.7546771E-02  0.1057173E+00
         21   -1    0    0  502  501  0.00000000000E+00  0.00000000000E+00  0.56573464555E+03  0.56573464555E+03  0.00000000000E+00 0.  1.
         21   -1    0    0  501  502 -0.00000000000E+00 -0.00000000000E+00 -0.23366838426E+03  0.23366838426E+03  0.00000000000E+00 0.  1.
         25    1    1    2    0    0 -0.69189175529E+02 -0.25354703902E+03 -0.11489222315E+02  0.29125632222E+03  0.12500000000E+03 0.  0.
         25    1    1    2    0    0  0.14887958112E+02  0.75199090519E+02  0.10337942577E+03  0.17941254188E+03  0.12500000000E+03 0.  0.
         25    1    1    2    0    0  0.54301217417E+02  0.17834794850E+03  0.24017605784E+03  0.32873416571E+03  0.12500000000E+03 0.  0.
</event>
<event>
 5    0  0.5619558E-005  0.4648578E+03  0.7546771E-02  0.1023382E+00
         21   -1    0    0  502  501  0.00000000000E+00  0.00000000000E+00  0.19309191103E+03  0.19309191103E+03  0.00000000000E+00 0.  1.
         21   -1    0    0  501  502 -0.00000000000E+00 -0.00000000000E+00 -0.11191188721E+04  0.11191188721E+04  0.00000000000E+00 0.  1.
         25    1    1    2    0    0 -0.17107976043E+03 -0.19484763066E+03 -0.10767000794E+03  0.30732997610E+03  0.12500000000E+03 0.  0.
         25    1    1    2    0    0 -0.15248058077E+03  0.11114009531E+03 -0.31608857390E+03  0.38876655573E+03  0.12500000000E+03 0.  0.
         25    1    1    2    0    0  0.32356034120E+03  0.83707535344E+02 -0.50226837922E+03  0.61611425128E+03  0.12500000000E+03 0.  0.
</event>
<event>
 5    0  0.5619558E-005  0.2813298E+03  0.7546771E-02  0.1094965E+00
         21   -1    0    0  502  501  0.00000000000E+00  0.00000000000E+00  0.23537574518E+04  0.23537574518E+04  0.00000000000E+00 0.  1.
         21   -1    0    0  501  502 -0.00000000000E+00 -0.00000000000E+00 -0.33625580787E+02  0.33625580787E+02  0.00000000000E+00 0.  1.
         25    1    1    2    0    0  0.11506027468E+03 -0.10074314048E+02  0.59779826180E+03  0.62155299084E+03  0.12500000000E+03 0.  0.
         25    1    1    2    0    0  0.49709407681E+02 -0.14509134939E+02  0.31025192155E+03  0.33847126176E+03  0.12500000000E+03 0.  0.
         25    1    1    2    0    0 -0.16476968236E+03  0.24583448986E+02  0.14120816877E+04  0.14273587800E+04  0.12500000000E+03 0.  0.
</event>
<event>
 5    0  0.5619558E-005  0.3131421E+03  0.7546771E-02  0.1078850E+00
         21   -1    0    0  502  501  0.00000000000E+00  0.00000000000E+00  0.15432485093E+03  0.15432485093E+03  0.00000000000E+00 0.  1.
         21   -1    0    0  501  502 -0.00000000000E+00 -0.00000000000E+00 -0.63539975859E+03  0.63539975859E+03  0.00000000000E+00 0.  1.
         25    1    1    2    0    0  0.73499219249E+02 -0.55027013959E+02 -0.21315698815E+03  0.26361147375E+03  0.12500000000E+03 0.  0.
         25    1    1    2    0    0  0.11522344365E+03 -0.80638840390E+02 -0.12620455297E+03  0.22656489961E+03  0.12500000000E+03 0.  0.
         25    1    1    2    0    0 -0.18872266290E+03  0.13566585435E+03 -0.14171336654E+03  0.29954823616E+03  0.12500000000E+03 0.  0.
</event>
<event>
 5    0  0.5619558E-005  0.2899107E+03  0.7546771E-02  0.1090396E+00
         21   -1    0    0  502  501  0.00000000000E+00  0.00000000000E+00  0.80521499209E+02  0.80521499209E+02  0.00000000000E+00 0.  1.
         21   -1    0    0  501  502 -0.00000000000E+00 -0.00000000000E+00 -0.10437981376E+04  0.10437981376E+04  0.00000000000E+00 0.  1.
         25    1    1    2    0    0  0.12385713417E+03  0.59860994880E+01 -0.58588187190E+03  0.61176710510E+03  0.12500000000E+03 0.  0.
         25    1    1    2    0    0  0.11454337161E+02 -0.34895615388E+02 -0.26377661690E+03  0.29419722881E+03  0.12500000000E+03 0.  0.
         25    1    1    2    0    0 -0.13531147134E+03  0.28909515900E+02 -0.11361814958E+03  0.21835530289E+03  0.12500000000E+03 0.  0.
</event>
<event>
 5    0  0.5619558E-005  0.2824751E+03  0.7546771E-02  0.1094345E+00
         21   -1    0    0  502  501  0.00000000000E+00  0.00000000000E+00  0.14803494098E+04  0.14803494098E+04  0.00000000000E+00 0.  1.
         21   -1    0    0  501  502 -0.00000000000E+00 -0.00000000000E+00 -0.53900928836E+02  0.53900928836E+02  0.00000000000E+00 0.  1.
         25    1    1    2    0    0  0.28700790312E+02  0.13313787303E+03  0.39050991862E+03  0.43205604398E+03  0.12500000000E+03 0.  0.
         25    1    1    2    0    0 -0.21130538742E+02 -0.12466206825E+03  0.25281112404E+03  0.30907215236E+03  0.12500000000E+03 0.  0.
         25    1    1    2    0    0 -0.75702515707E+01 -0.84758047809E+01  0.78312743830E+03  0.79312214230E+03  0.12500000000E+03 0.  0.
</event>
<event>
 5    0  0.5619558E-005  0.3154399E+03  0.7546771E-02  0.1077767E+00
         21   -1    0    0  502  501  0.00000000000E+00  0.00000000000E+00  0.17535569301E+04  0.17535569301E+04  0.00000000000E+00 0.  1.
         21   -1    0    0  501  502 -0.00000000000E+00 -0.00000000000E+00 -0.56743138996E+02  0.56743138996E+02  0.00000000000E+00 0.  1.
         25    1    1    2    0    0 -0.16131856365E+03 -0.65982001525E+02  0.11100641632E+04  0.11305948655E+04  0.12500000000E+03 0.  0.
         25    1    1    2    0    0  0.13307853576E+03  0.71875019491E+02  0.24009659273E+03  0.31007626312E+03  0.12500000000E+03 0.  0.
         25    1    1    2    0    0  0.28240027889E+02 -0.58930179660E+01  0.34665303517E+03  0.36962894046E+03  0.12500000000E+03 0.  0.
</event>
<event>
 5    0  0.5619558E-005  0.4203151E+03  0.7546771E-02  0.1036964E+00
         21   -1    0    0  502  501  0.00000000000E+00  0.00000000000E+00  0.48767858095E+03  0.48767858095E+03  0.00000000000E+00 0. -1.
         21   -1    0    0  501  502 -0.00000000000E+00 -0.00000000000E+00 -0.36225663399E+03  0.36225663399E+03  0.00000000000E+00 0. -1.
         25    1    1    2    0    0  0.14237339998E+03 -0.79243877670E+02  0.22147191123E+02  0.20655574367E+03  0.12500000000E+03 0.  0.
         25    1    1    2    0    0  0.59378964815E+02  0.97013990377E+02 -0.19742868090E+03  0.25988585924E+03  0.12500000000E+03 0.  0.
         25    1    1    2    0    0 -0.20175236479E+03 -0.17770112707E+02  0.30070343673E+03  0.38349361203E+03  0.12500000000E+03 0.  0.
</event>
<event>
 5    0  0.5619558E-005  0.2239221E+03  0.7546771E-02  0.1130992E+00
         21   -1    0    0  502  501  0.00000000000E+00  0.00000000000E+00  0.28399158981E+03  0.28399158981E+03  0.00000000000E+00 0.  1.
         21   -1    0    0  501  502 -0.00000000000E+00 -0.00000000000E+00 -0.17655847529E+03  0.17655847529E+03  0.00000000000E+00 0.  1.
         25    1    1    2    0    0  0.64494459395E+02  0.15887619325E+02  0.10495233194E+03  0.17621561713E+03  0.12500000000E+03 0.  0.
         25    1    1    2    0    0 -0.96474660506E+00  0.34878721677E+00  0.51094023335E+02  0.13504314721E+03  0.12500000000E+03 0.  0.
         25    1    1    2    0    0 -0.63529712790E+02 -0.16236406542E+02 -0.48613240761E+02  0.14929130076E+03  0.12500000000E+03 0.  0.
</event>
<event>
 5    0  0.5619558E-005  0.2526913E+03  0.7546771E-02  0.1111616E+00
         21   -1    0    0  502  501  0.00000000000E+00  0.00000000000E+00  0.28126700969E+03  0.28126700969E+03  0.00000000000E+00 0. -1.
         21   -1    0    0  501  502 -0.00000000000E+00 -0.00000000000E+00 -0.22701885048E+03  0.22701885048E+03  0.00000000000E+00 0. -1.
         25    1    1    2    0    0  0.99107865621E+02  0.17263591267E+02  0.66864320768E+02  0.17382818530E+03  0.12500000000E+03 0.  0.
         25    1    1    2    0    0  0.22117318556E+02 -0.46430422258E+02 -0.65435171401E+02  0.15017230619E+03  0.12500000000E+03 0.  0.
         25    1    1    2    0    0 -0.12122518418E+03  0.29166830991E+02  0.52819009848E+02  0.18428536868E+03  0.12500000000E+03 0.  0.
</event>
<event>
 5    0  0.5619558E-005  0.3899739E+03  0.7546771E-02  0.1047308E+00
         21   -1    0    0  502  501  0.00000000000E+00  0.00000000000E+00  0.21458247453E+03  0.21458247453E+03  0.00000000000E+00 0. -1.
         21   -1    0    0  501  502 -0.00000000000E+00 -0.00000000000E+00 -0.70872345217E+03  0.70872345217E+03  0.00000000000E+00 0. -1.
         25    1    1    2    0    0 -0.46891611581E+02 -0.12785925042E+03 -0.30810351052E+03  0.35930430605E+03  0.12500000000E+03 0.  0.
         25    1    1    2    0    0 -0.10572668370E+03  0.19063394897E+03 -0.24271276709E+03  0.34936216374E+03  0.12500000000E+03 0.  0.
         25    1    1    2    0    0  0.15261829528E+03 -0.62774698559E+02  0.56675299965E+02  0.21463945690E+03  0.12500000000E+03 0.  0.
</event>
<event>
 5    0  0.5619558E-005  0.3418903E+03  0.7546771E-02  0.1065994E+00
         21   -1    0    0  502  501  0.00000000000E+00  0.00000000000E+00  0.72751549622E+02  0.72751549622E+02  0.00000000000E+00 0. -1.
         21   -1    0    0  501  502 -0.00000000000E+00 -0.00000000000E+00 -0.16066871209E+04  0.16066871209E+04  0.00000000000E+00 0. -1.
         25    1    1    2    0    0  0.12318040966E+02 -0.14127049706E+03 -0.15014434999E+03  0.24140715256E+03  0.12500000000E+03 0.  0.
         25    1    1    2    0    0 -0.31264234753E+01  0.98872167160E+02 -0.24967526916E+03  0.29622326039E+03  0.12500000000E+03 0.  0.
         25    1    1    2    0    0 -0.91916174909E+01  0.42398329897E+02 -0.11341159522E+04  0.11418082576E+04  0.12500000000E+03 0.  0.
</event>
<event>
 5    0  0.5619558E-005  0.3451590E+03  0.7546771E-02  0.1064620E+00
         21   -1    0    0  502  501  0.00000000000E+00  0.00000000000E+00  0.64326904482E+02  0.64326904482E+02  0.00000000000E+00 0. -1.
         21   -1    0    0  501  502 -0.00000000000E+00 -0.00000000000E+00 -0.18520202424E+04  0.18520202424E+04  0.00000000000E+00 0. -1.
         25    1    1    2    0    0  0.86304994014E+02 -0.95065398059E+02 -0.34106362224E+03  0.38527311912E+03  0.12500000000E+03 0.  0.
         25    1    1    2    0    0  0.46772468452E+02 -0.95336813573E+02 -0.99189028747E+03  0.10053596939E+04  0.12500000000E+03 0.  0.
         25    1    1    2    0    0 -0.13307746247E+03  0.19040221163E+03 -0.45473942816E+03  0.52571433378E+03  0.12500000000E+03 0.  0.
</event>
<event>
 5    0  0.5619558E-005  0.2841135E+03  0.7546771E-02  0.1093463E+00
         21   -1    0    0  502  501  0.00000000000E+00  0.00000000000E+00  0.82393475410E+02  0.82393475410E+02  0.00000000000E+00 0.  1.
         21   -1    0    0  501  502 -0.00000000000E+00 -0.00000000000E+00 -0.97969527417E+03  0.97969527417E+03  0.00000000000E+00 0.  1.
         25    1    1    2    0    0  0.74049572644E+02 -0.74671893584E+02 -0.50412499241E+03  0.52993040946E+03  0.12500000000E+03 0.  0.
         25    1    1    2    0    0 -0.14428347664E+03  0.49299093633E+02 -0.30100569741E+03  0.35982989334E+03  0.12500000000E+03 0.  0.
         25    1    1    2    0    0  0.70233903993E+02  0.25372799951E+02 -0.92171108939E+02  0.17232844678E+03  0.12500000000E+03 0.  0.
</event>
<event>
 5    0  0.5619558E-005  0.2836301E+03  0.7546771E-02  0.1093723E+00
         21   -1    0    0  502  501  0.00000000000E+00  0.00000000000E+00  0.10732534169E+03  0.10732534169E+03  0.00000000000E+00 0. -1.
         21   -1    0    0  501  502 -0.00000000000E+00 -0.00000000000E+00 -0.74955296702E+03  0.74955296702E+03  0.00000000000E+00 0. -1.
         25    1    1    2    0    0  0.33056148246E+02  0.23336689399E+02 -0.44640439260E+03  0.46533771795E+03  0.12500000000E+03 0.  0.
         25    1    1    2    0    0 -0.83346976431E+02 -0.11646642595E+02 -0.20677096873E+03  0.25585463895E+03  0.12500000000E+03 0.  0.
         25    1    1    2    0    0  0.50290828184E+02 -0.11690046804E+02  0.10947735999E+02  0.13568595181E+03  0.12500000000E+03 0.  0.
</event>
<event>
 5    0  0.5619558E-005  0.3992848E+03  0.7546771E-02  0.1044028E+00
         21   -1    0    0  502  501  0.00000000000E+00  0.00000000000E+00  0.90295749431E+03  0.90295749431E+03  0.00000000000E+00 0.  1.
         21   -1    0    0  501  502 -0.00000000000E+00 -0.00000000000E+00 -0.17656245163E+03  0.17656245163E+03  0.00000000000E+00 0. -1.
         25    1    1    2    0    0 -0.14718219919E+03  0.41413621986E+02 -0.54173587456E+02  0.20478638974E+03  0.12500000000E+03 0.  0.
         25    1    1    2    0    0  0.16951729189E+03 -0.11369760416E+03  0.57218565367E+03  0.62022953791E+03  0.12500000000E+03 0.  0.
         25    1    1    2    0    0 -0.22335092704E+02  0.72283982170E+02  0.20838297647E+03  0.25450401829E+03  0.12500000000E+03 0.  0.
</event>
<event>
 5    0  0.5619558E-005  0.3178204E+03  0.7546771E-02  0.1076657E+00
         21   -1    0    0  502  501  0.00000000000E+00  0.00000000000E+00  0.58873103131E+03  0.58873103131E+03  0.00000000000E+00 0. -1.
         21   -1    0    0  501  502 -0.00000000000E+00 -0.00000000000E+00 -0.17157212768E+03  0.17157212768E+03  0.00000000000E+00 0. -1.
         25    1    1    2    0    0 -0.10016200531E+03 -0.10611064856E+03  0.17542872787E+02  0.19293690531E+03  0.12500000000E+03 0.  0.
         25    1    1    2    0    0  0.11331508182E+03 -0.66720757556E+02  0.12934817875E+03  0.22281812898E+03  0.12500000000E+03 0.  0.
         25    1    1    2    0    0 -0.13153076508E+02  0.17283140611E+03  0.27026785208E+03  0.34454812469E+03  0.12500000000E+03 0.  0.
</event>
<event>
 5    0  0.5619558E-005  0.3541953E+03  0.7546771E-02  0.1060906E+00
         21   -1    0    0  502  501  0.00000000000E+00  0.00000000000E+00  0.22646228449E+04  0.22646228449E+04  0.00000000000E+00 0.  1.
         21   -1    0    0  501  502 -0.00000000000E+00 -0.00000000000E+00 -0.55397454243E+02  0.55397454243E+02  0.00000000000E+00 0.  1.
         25    1    1    2    0    0  0.13209812441E+03  0.11543464828E+03  0.96022441517E+03  0.98408891874E+03  0.12500000000E+03 0.  0.
         25    1    1    2    0    0 -0.18361611923E+03  0.79952523575E+02  0.59664384027E+03  0.64165111813E+03  0.12500000000E+03 0.  0.
         25    1    1    2    0    0  0.51517994821E+02 -0.19538717185E+03  0.65235713522E+03  0.69428026228E+03  0.12500000000E+03 0.  0.
</event>
<event>
 5    0  0.5619558E-005  0.3441484E+03  0.7546771E-02  0.1065043E+00
         21   -1    0    0  502  501  0.00000000000E+00  0.00000000000E+00  0.18409151585E+03  0.18409151585E+03  0.00000000000E+00 0. -1.
         21   -1    0    0  501  502 -0.00000000000E+00 -0.00000000000E+00 -0.64336558380E+03  0.64336558380E+03  0.00000000000E+00 0. -1.
         25    1    1    2    0    0  0.12335827563E+03  0.18327385010E+03 -0.17171480190E+03  0.30645968982E+03  0.12500000000E+03 0.  0.
         25    1    1    2    0    0 -0.74261931859E+02 -0.12531679014E+03 -0.31814549488E+03  0.37156518719E+03  0.12500000000E+03 0.  0.
         25    1    1    2    0    0 -0.49096343774E+02 -0.57957059952E+02  0.30586228829E+02  0.14943222264E+03  0.12500000000E+03 0.  0.
</event>
<event>
 5    0  0.5619558E-005  0.2306642E+03  0.7546771E-02  0.1126173E+00
         21   -1    0    0  502  501  0.00000000000E+00  0.00000000000E+00  0.12268770607E+04  0.12268770607E+04  0.00000000000E+00 0. -1.
         21   -1    0    0  501  502 -0.00000000000E+00 -0.00000000000E+00 -0.43366990153E+02  0.43366990153E+02  0.00000000000E+00 0. -1.
         25    1    1    2    0    0  0.53002964664E+02  0.25662046843E+02  0.17105232480E+03  0.21989031978E+03  0.12500000000E+03 0.  0.
         25    1    1    2    0    0  0.16029484762E+02 -0.39643959461E+02  0.39746817435E+03  0.41884906294E+03  0.12500000000E+03 0.  0.
         25    1    1    2    0    0 -0.69032449426E+02  0.13981912618E+02  0.61498957140E+03  0.63150466815E+03  0.12500000000E+03 0.  0.
</event>
<event>
 5    0  0.5719007E-005  0.7624540E+03  0.7546771E-02  0.9616012E-01
         21   -1    0    0  502  501  0.00000000000E+00  0.00000000000E+00  0.82585025365E+03  0.82585025365E+03  0.00000000000E+00 0.  1.
         21   -1    0    0  501  502 -0.00000000000E+00 -0.00000000000E+00 -0.70392432440E+03  0.70392432440E+03  0.00000000000E+00 0.  1.
         25    1    1    2    0    0  0.14629967906E+03  0.38528573787E+03  0.33558805672E+03  0.54597897369E+03  0.12500000000E+03 0.  0.
         25    1    1    2    0    0  0.19940232483E+03 -0.45755397215E+03 -0.30505726726E+03  0.59816541265E+03  0.12500000000E+03 0.  0.
         25    1    1    2    0    0 -0.34570200389E+03  0.72268234279E+02  0.91395139780E+02  0.38563019171E+03  0.12500000000E+03 0.  0.
</event>
<event>
 5    0  0.5619558E-005  0.3213102E+03  0.7546771E-02  0.1075048E+00
         21   -1    0    0  502  501  0.00000000000E+00  0.00000000000E+00  0.41116486430E+03  0.41116486430E+03  0.00000000000E+00 0.  1.
         21   -1    0    0  501  502 -0.00000000000E+00 -0.00000000000E+00 -0.25109201484E+03  0.25109201484E+03  0.00000000000E+00 0.  1.
         25    1    1    2    0    0 -0.90589567396E+02  0.20912569379E+01  0.26867701532E+02  0.15670901845E+03  0.12500000000E+03 0.  0.
         25    1    1    2    0    0  0.38934497954E+01  0.48016001461E+01 -0.14307023719E+03  0.19008499963E+03  0.12500000000E+03 0.  0.
         25    1    1    2    0    0  0.86696117600E+02 -0.68928570839E+01  0.27627538512E+03  0.31546286106E+03  0.12500000000E+03 0.  0.
</event>
<event>
 5    0  0.5619558E-005  0.2431345E+03  0.7546771E-02  0.1117722E+00
         21   -1    0    0  502  501  0.00000000000E+00  0.00000000000E+00  0.47744410215E+02  0.47744410215E+02  0.00000000000E+00 0. -1.
         21   -1    0    0  501  502 -0.00000000000E+00 -0.00000000000E+00 -0.12381422206E+04  0.12381422206E+04  0.00000000000E+00 0. -1.
         25    1    1    2    0    0  0.54032893609E+02 -0.44862669237E+02 -0.32782053115E+03  0.35780373577E+03  0.12500000000E+03 0.  0.
         25    1    1    2    0    0 -0.77768105319E+02  0.11659384946E+03 -0.58527758219E+03  0.61466808291E+03  0.12500000000E+03 0.  0.
         25    1    1    2    0    0  0.23735211709E+02 -0.71731180219E+02 -0.27729969709E+03  0.31341481219E+03  0.12500000000E+03 0.  0.
</event>
<event>
 5    0  0.5619558E-005  0.2515594E+03  0.7546771E-02  0.1112323E+00
         21   -1    0    0  502  501  0.00000000000E+00  0.00000000000E+00  0.61772480748E+03  0.61772480748E+03  0.00000000000E+00 0. -1.
         21   -1    0    0  501  502 -0.00000000000E+00 -0.00000000000E+00 -0.10244390593E+03  0.10244390593E+03  0.00000000000E+00 0. -1.
         25    1    1    2    0    0  0.10460360975E+03 -0.40411446988E+02  0.33720020281E+03  0.37670144279E+03  0.12500000000E+03 0.  0.
         25    1    1    2    0    0 -0.42683266043E+02 -0.31780566917E+02  0.95020592352E+02  0.16578835485E+03  0.12500000000E+03 0.  0.
         25    1    1    2    0    0 -0.61920343702E+02  0.72192013905E+02  0.83060106389E+02  0.17767891577E+03  0.12500000000E+03 0.  0.
</event>
<event>
 5    0  0.5619558E-005  0.5097439E+03  0.7546771E-02  0.1011266E+00
         21   -1    0    0  502  501  0.00000000000E+00  0.00000000000E+00  0.44740446448E+03  0.44740446448E+03  0.00000000000E+00 0. -1.
         21   -1    0    0  501  502 -0.00000000000E+00 -0.00000000000E+00 -0.58076949022E+03  0.58076949022E+03  0.00000000000E+00 0. -1.
         25    1    1    2    0    0  0.73666168134E+02  0.84018344584E+02 -0.42289683508E+03  0.45492034432E+03  0.12500000000E+03 0.  0.
         25    1    1    2    0    0 -0.93691105523E+02 -0.24312206796E+03  0.19780932755E+03  0.35019979047E+03  0.12500000000E+03 0.  0.
         25    1    1    2    0    0  0.20024937390E+02  0.15910372337E+03  0.91722481794E+02  0.22305381991E+03  0.12500000000E+03 0.  0.
</event>
<event>
 5    0  0.5619558E-005  0.2212098E+03  0.7546771E-02  0.1132984E+00
         21   -1    0    0  502  501  0.00000000000E+00  0.00000000000E+00  0.11843067431E+04  0.11843067431E+04  0.00000000000E+00 0.  1.
         21   -1    0    0  501  502 -0.00000000000E+00 -0.00000000000E+00 -0.41318513667E+02  0.41318513667E+02  0.00000000000E+00 0.  1.
         25    1    1    2    0    0 -0.11666077422E+02  0.58706819462E+02  0.48899755839E+03  0.50825800547E+03  0.12500000000E+03 0.  0.
         25    1    1    2    0    0  0.16174919745E+02  0.43337107947E+02  0.28657924179E+03  0.31605758143E+03  0.12500000000E+03 0.  0.
         25    1    1    2    0    0 -0.45088423232E+01 -0.10204392741E+03  0.36741142921E+03  0.40130966982E+03  0.12500000000E+03 0.  0.
</event>
<event>
 5    0  0.5619558E-005  0.2747768E+03  0.7546771E-02  0.1098576E+00
         21   -1    0    0  502  501  0.00000000000E+00  0.00000000000E+00  0.68039660291E+03  0.68039660291E+03  0.00000000000E+00 0.  1.
         21   -1    0    0  501  502 -0.00000000000E+00 -0.00000000000E+00 -0.11096804349E+03  0.11096804349E+03  0.00000000000E+00 0.  1.
         25    1    1    2    0    0 -0.11811961173E+03  0.89867018176E+02  0.26619758415E+03  0.32941535702E+03  0.12500000000E+03 0.  0.
         25    1    1    2    0    0  0.91481530338E+02 -0.80649444930E+02  0.55848901413E+02  0.18335021993E+03  0.12500000000E+03 0.  0.
         25    1    1    2    0    0  0.26638081389E+02 -0.92175732459E+01  0.24738207386E+03  0.27859906946E+03  0.12500000000E+03 0.  0.
</event>
<event>
 5    0  0.6079614E-005  0.3137290E+03  0.7546771E-02  0.1078572E+00
         21   -1    0    0  502  501  0.00000000000E+00  0.00000000000E+00  0.42336948855E+03  0.42336948855E+03  0.00000000000E+00 0. -1.
         21   -1    0    0  501  502 -0.00000000000E+00 -0.00000000000E+00 -0.23248223139E+03  0.23248223139E+03  0.00000000000E+00 0. -1.
         25    1    1    2    0    0 -0.85956062779E+02 -0.59643501018E+02 -0.19001307838E+02  0.16410923692E+03  0.12500000000E+03 0.  0.
         25    1    1    2    0    0 -0.12869356412E+03 -0.14989438850E+02  0.12369655290E+03  0.21843203502E+03  0.12500000000E+03 0.  0.
         25    1    1    2    0    0  0.21464962690E+03  0.74632939868E+02  0.86192012089E+02  0.27331044800E+03  0.12500000000E+03 0.  0.
</event>
<event>
 5    0  0.5619558E-005  0.2698236E+03  0.7546771E-02  0.1101381E+00
         21   -1    0    0  502  501  0.00000000000E+00  0.00000000000E+00  0.35393570102E+03  0.35393570102E+03  0.00000000000E+00 0. -1.
         21   -1    0    0  501  502 -0.00000000000E+00 -0.00000000000E+00 -0.20570060239E+03  0.20570060239E+03  0.00000000000E+00 0. -1.
         25    1    1    2    0    0  0.99664577547E+01  0.10056718638E+03  0.30474917070E+02  0.16360565341E+03  0.12500000000E+03 0.  0.
         25    1    1    2    0    0 -0.11967059966E+03 -0.80544548828E+02 -0.67637241790E+00  0.19087675146E+03  0.12500000000E+03 0.  0.
         25    1    1    2    0    0  0.10970414190E+03 -0.20022637557E+02  0.11843655398E+03  0.20515389853E+03  0.12500000000E+03 0.  0.
</event>
<event>
 5    0  0.5619558E-005  0.2838530E+03  0.7546771E-02  0.1093603E+00
         21   -1    0    0  502  501  0.00000000000E+00  0.00000000000E+00  0.12271385742E+04  0.12271385742E+04  0.00000000000E+00 0.  1.
         21   -1    0    0  501  502 -0.00000000000E+00 -0.00000000000E+00 -0.65658868933E+02  0.65658868933E+02  0.00000000000E+00 0.  1.
         25    1    1    2    0    0  0.54267517892E+02  0.25619036685E+02  0.33802142483E+03  0.36535569270E+03  0.12500000000E+03 0.  0.
         25    1    1    2    0    0 -0.15756494495E+03  0.91881274790E+00  0.20366689252E+03  0.28623898966E+03  0.12500000000E+03 0.  0.
         25    1    1    2    0    0  0.10329742706E+03 -0.26537849432E+02  0.61979138788E+03  0.64120276074E+03  0.12500000000E+03 0.  0.
</event>
<event>
 5    0  0.5815956E-005  0.3122187E+03  0.7546771E-02  0.1079287E+00
         21   -1    0    0  502  501  0.00000000000E+00  0.00000000000E+00  0.61541985716E+03  0.61541985716E+03  0.00000000000E+00 0.  1.
         21   -1    0    0  501  502 -0.00000000000E+00 -0.00000000000E+00 -0.15839674764E+03  0.15839674764E+03  0.00000000000E+00 0.  1.
         25    1    1    2    0    0  0.13273181720E+03  0.95435533872E+02  0.95853696518E+02  0.22702116104E+03  0.12500000000E+03 0.  0.
         25    1    1    2    0    0 -0.30197951246E+02  0.93563489566E+02  0.17246987622E+03  0.23459944809E+03  0.12500000000E+03 0.  0.
         25    1    1    2    0    0 -0.10253386596E+03 -0.18899902344E+03  0.18869953679E+03  0.31219599567E+03  0.12500000000E+03 0.  0.
</event>
<event>
 5    0  0.5619558E-005  0.2625262E+03  0.7546771E-02  0.1105635E+00
         21   -1    0    0  502  501  0.00000000000E+00  0.00000000000E+00  0.13343275780E+04  0.13343275780E+04  0.00000000000E+00 0.  1.
         21   -1    0    0  501  502 -0.00000000000E+00 -0.00000000000E+00 -0.51651476958E+02  0.51651476958E+02  0.00000000000E+00 0.  1.
         25    1    1    2    0    0  0.57157748689E+02  0.61365626076E+02  0.19217087925E+03  0.24410529517E+03  0.12500000000E+03 0.  0.
         25    1    1    2    0    0  0.72781006788E+02 -0.63469640501E+02  0.53567593154E+03  0.55847934057E+03  0.12500000000E+03 0.  0.
         25    1    1    2    0    0 -0.12993875548E+03  0.21040144252E+01  0.55482929029E+03  0.58339441926E+03  0.12500000000E+03 0.  0.
</event>
<event>
 5    0  0.5619558E-005  0.3278821E+03  0.7546771E-02  0.1072078E+00
         21   -1    0    0  502  501  0.00000000000E+00  0.00000000000E+00  0.20991243248E+04  0.20991243248E+04  0.00000000000E+00 0.  1.
         21   -1    0    0  501  502 -0.00000000000E+00 -0.00000000000E+00 -0.51215009247E+02  0.51215009247E+02  0.00000000000E+00 0.  1.
         25    1    1    2    0    0 -0.10318405883E+03  0.10607282251E+03  0.23756389153E+03  0.30652894844E+03  0.12500000000E+03 0.  0.
         25    1    1    2    0    0  0.35415006510E+02  0.38762644989E+02  0.50969666103E+03  0.52742056426E+03  0.12500000000E+03 0.  0.
         25    1    1    2    0    0  0.67769052315E+02 -0.14483546750E+03  0.13006487630E+04  0.13163898213E+04  0.12500000000E+03 0.  0.
</event>
<event>
 5    0  0.5619558E-005  0.2563131E+03  0.7546771E-02  0.1109379E+00
         21   -1    0    0  502  501  0.00000000000E+00  0.00000000000E+00  0.10585076614E+04  0.10585076614E+04  0.00000000000E+00 0.  1.
         21   -1    0    0  501  502 -0.00000000000E+00 -0.00000000000E+00 -0.62065109169E+02  0.62065109169E+02  0.00000000000E+00 0.  1.
         25    1    1    2    0    0 -0.11404711552E+03 -0.94774040832E+00  0.37765913661E+03  0.41383458802E+03  0.12500000000E+03 0.  0.
         25    1    1    2    0    0  0.13655002108E+03 -0.64674316553E+02  0.39843465982E+03  0.44407640516E+03  0.12500000000E+03 0.  0.
         25    1    1    2    0    0 -0.22502905557E+02  0.65622056962E+02  0.22034875579E+03  0.26266177738E+03  0.12500000000E+03 0.  0.
</event>
<event>
 5    0  0.5619558E-005  0.3737091E+03  0.7546771E-02  0.1053284E+00
         21   -1    0    0  502  501  0.00000000000E+00  0.00000000000E+00  0.35114965598E+03  0.35114965598E+03  0.00000000000E+00 0.  1.
         21   -1    0    0  501  502 -0.00000000000E+00 -0.00000000000E+00 -0.39771789865E+03  0.39771789865E+03  0.00000000000E+00 0.  1.
         25    1    1    2    0    0  0.98853568351E+02 -0.78918844818E+02  0.13658661769E+03  0.22423451156E+03  0.12500000000E+03 0.  0.
         25    1    1    2    0    0 -0.17175548211E+03 -0.99927711578E+02 -0.17784553306E+03  0.29451574967E+03  0.12500000000E+03 0.  0.
         25    1    1    2    0    0  0.72901913756E+02  0.17884655640E+03 -0.53093272928E+01  0.23011729340E+03  0.12500000000E+03 0.  0.
</event>
<event>
 5    0  0.5619558E-005  0.3551796E+03  0.7546771E-02  0.1060509E+00
         21   -1    0    0  502  501  0.00000000000E+00  0.00000000000E+00  0.77870262972E+03  0.77870262972E+03  0.00000000000E+00 0.  1.
         21   -1    0    0  501  502 -0.00000000000E+00 -0.00000000000E+00 -0.16200347767E+03  0.16200347767E+03  0.00000000000E+00 0.  1.
         25    1    1    2    0    0  0.57604238760E+02 -0.10753236153E+03 -0.60962740338E+02  0.18499435886E+03  0.12500000000E+03 0.  0.
         25    1    1    2    0    0 -0.12241257525E+03  0.70361874788E+02  0.36708635381E+03  0.41268998432E+03  0.12500000000E+03 0.  0.
         25    1    1    2    0    0  0.64808336491E+02  0.37170486743E+02  0.31057553858E+03  0.34302176421E+03  0.12500000000E+03 0.  0.
</event>
<event>
 5    0  0.5619558E-005  0.3632177E+03  0.7546771E-02  0.1057317E+00
         21   -1    0    0  502  501  0.00000000000E+00  0.00000000000E+00  0.76887872214E+02  0.76887872214E+02  0.00000000000E+00 0. -1.
         21   -1    0    0  501  502 -0.00000000000E+00 -0.00000000000E+00 -0.17158371251E+04  0.17158371251E+04  0.00000000000E+00 0. -1.
         25    1    1    2    0    0  0.32012429831E+02  0.20772048090E+03 -0.81246737106E+03  0.84846969474E+03  0.12500000000E+03 0.  0.
         25    1    1    2    0    0  0.83564936329E+02 -0.17617456020E+03 -0.24331512396E+03  0.33592830156E+03  0.12500000000E+03 0.  0.
         25    1    1    2    0    0 -0.11557736616E+03 -0.31545920703E+02 -0.58316675790E+03  0.60832700105E+03  0.12500000000E+03 0.  0.
</event>
<event>
 5    0  0.5619558E-005  0.3378886E+03  0.7546771E-02  0.1067699E+00
         21   -1    0    0  502  501  0.00000000000E+00  0.00000000000E+00  0.74201952834E+02  0.74201952834E+02  0.00000000000E+00 0. -1.
         21   -1    0    0  501  502 -0.00000000000E+00 -0.00000000000E+00 -0.15386215929E+04  0.15386215929E+04  0.00000000000E+00 0. -1.
         25    1    1    2    0    0  0.57341890433E+02 -0.16140626882E+03 -0.47659230047E+03  0.52163713142E+03  0.12500000000E+03 0.  0.
         25    1    1    2    0    0 -0.44545841571E+02 -0.80567849072E+02 -0.17543319852E+03  0.23425908189E+03  0.12500000000E+03 0.  0.
         25    1    1    2    0    0 -0.12796048862E+02  0.24197411789E+03 -0.81239414109E+03  0.85692733244E+03  0.12500000000E+03 0.  0.
</event>
<event>
 5    0  0.5619558E-005  0.3887241E+03  0.7546771E-02  0.1047756E+00
         21   -1    0    0  502  501  0.00000000000E+00  0.00000000000E+00  0.11891806629E+04  0.11891806629E+04  0.00000000000E+00 0.  1.
         21   -1    0    0  501  502 -0.00000000000E+00 -0.00000000000E+00 -0.12706770532E+03  0.12706770532E+03  0.00000000000E+00 0.  1.
         25    1    1    2    0    0 -0.19682923616E+03  0.93472903304E+02  0.58883350888E+03  0.64017875085E+03  0.12500000000E+03 0.  0.
         25    1    1    2    0    0  0.19281889758E+03  0.40019035904E+02  0.87506186762E+02  0.24912443321E+03  0.12500000000E+03 0.  0.
         25    1    1    2    0    0  0.40103385774E+01 -0.13349193921E+03  0.38577326190E+03  0.42694518413E+03  0.12500000000E+03 0.  0.
</event>
<event>
 5    0  0.5619558E-005  0.2692814E+03  0.7546771E-02  0.1101692E+00
         21   -1    0    0  502  501  0.00000000000E+00  0.00000000000E+00  0.11815701640E+04  0.11815701640E+04  0.00000000000E+00 0.  1.
         21   -1    0    0  501  502 -0.00000000000E+00 -0.00000000000E+00 -0.61369597863E+02  0.61369597863E+02  0.00000000000E+00 0.  1.
         25    1    1    2    0    0 -0.47917470736E+02 -0.18908263121E+02  0.62385451253E+03  0.63833616475E+03  0.12500000000E+03 0.  0.
         25    1    1    2    0    0  0.49657196070E+02  0.47826702469E+02  0.69275581726E+02  0.15867368028E+03  0.12500000000E+03 0.  0.
         25    1    1    2    0    0 -0.17397253333E+01 -0.28918439348E+02  0.42707047191E+03  0.44592991686E+03  0.12500000000E+03 0.  0.
</event>
<event>
 5    0  0.5619558E-005  0.5114184E+03  0.7546771E-02  0.1010841E+00
         21   -1    0    0  502  501  0.00000000000E+00  0.00000000000E+00  0.14448958818E+03  0.14448958818E+03  0.00000000000E+00 0.  1.
         21   -1    0    0  501  502 -0.00000000000E+00 -0.00000000000E+00 -0.18101564621E+04  0.18101564621E+04  0.00000000000E+00 0.  1.
         25    1    1    2    0    0  0.26361592015E+03 -0.25870022771E+03 -0.88742369473E+03  0.96931159858E+03  0.12500000000E+03 0.  0.
         25    1    1    2    0    0 -0.44233108808E+02  0.13407684530E+03 -0.64839990733E+03  0.67526336210E+03  0.12500000000E+03 0.  0.
         25    1    1    2    0    0 -0.21938281135E+03  0.12462338241E+03 -0.12984327184E+03  0.31007108959E+03  0.12500000000E+03 0.  0.
</event>
<event>
 5    0  0.6018288E-005  0.3236630E+03  0.7546771E-02  0.1073976E+00
         21   -1    0    0  502  501  0.00000000000E+00  0.00000000000E+00  0.34541206389E+03  0.34541206389E+03  0.00000000000E+00 0. -1.
         21   -1    0    0  501  502 -0.00000000000E+00 -0.00000000000E+00 -0.30328332084E+03  0.30328332084E+03  0.00000000000E+00 0. -1.
         25    1    1    2    0    0 -0.15499266186E+03  0.15559373660E+03 -0.80271929605E+02  0.26514282713E+03  0.12500000000E+03 0.  0.
         25    1    1    2    0    0  0.28851030265E+02 -0.10527567613E+03  0.10887767627E+03  0.19848097723E+03  0.12500000000E+03 0.  0.
         25    1    1    2    0    0  0.12614163159E+03 -0.50318060468E+02  0.13522996396E+02  0.18507158037E+03  0.12500000000E+03 0.  0.
</event>
<event>
 5    0  0.5619558E-005  0.2579739E+03  0.7546771E-02  0.1108367E+00
         21   -1    0    0  502  501  0.00000000000E+00  0.00000000000E+00  0.15636046713E+03  0.15636046713E+03  0.00000000000E+00 0. -1.
         21   -1    0    0  501  502 -0.00000000000E+00 -0.00000000000E+00 -0.42562261704E+03  0.42562261704E+03  0.00000000000E+00 0. -1.
         25    1    1    2    0    0  0.43811326429E+02 -0.86389523757E+02 -0.13322079225E+03  0.20677369665E+03  0.12500000000E+03 0.  0.
         25    1    1    2    0    0  0.68667150108E+02  0.58175915495E+02 -0.13482185852E+03  0.20469867655E+03  0.12500000000E+03 0.  0.
         25    1    1    2    0    0 -0.11247847654E+03  0.28213608263E+02 -0.12194991384E+01  0.17051071096E+03  0.12500000000E+03 0.  0.
</event>
<event>
 5    0  0.5619558E-005  0.3585455E+03  0.7546771E-02  0.1059161E+00
         21   -1    0    0  502  501  0.00000000000E+00  0.00000000000E+00  0.91585904690E+03  0.91585904690E+03  0.00000000000E+00 0. -1.
         21   -1    0    0  501  502 -0.00000000000E+00 -0.00000000000E+00 -0.14036538423E+03  0.14036538423E+03  0.00000000000E+00 0. -1.
         25    1    1    2    0    0  0.19104414707E+03 -0.27285063197E+02  0.55171229710E+03  0.59770711856E+03  0.12500000000E+03 0.  0.
         25    1    1    2    0    0 -0.13416803402E+03  0.13067492508E+03  0.98307436810E+02  0.24569564410E+03  0.12500000000E+03 0.  0.
         25    1    1    2    0    0 -0.56876113054E+02 -0.10338986188E+03  0.12547392876E+03  0.21282166848E+03  0.12500000000E+03 0.  0.
</event>
<event>
 5    0  0.6096569E-005  0.3365606E+03  0.7546771E-02  0.1068270E+00
         21   -1    0    0  502  501  0.00000000000E+00  0.00000000000E+00  0.22145352009E+03  0.22145352009E+03  0.00000000000E+00 0. -1.
         21   -1    0    0  501  502 -0.00000000000E+00 -0.00000000000E+00 -0.51149814665E+03  0.51149814665E+03  0.00000000000E+00 0. -1.
         25    1    1    2    0    0 -0.12621607182E+03 -0.37566556848E+02  0.37280141761E+02  0.18535520481E+03  0.12500000000E+03 0.  0.
         25    1    1    2    0    0 -0.66114561539E+02  0.12943600455E+03 -0.15125190588E+03  0.24418630911E+03  0.12500000000E+03 0.  0.
         25    1    1    2    0    0  0.19233063336E+03 -0.91869447701E+02 -0.17607286245E+03  0.30341015283E+03  0.12500000000E+03 0.  0.
</event>
<event>
 5    0  0.5619558E-005  0.4688033E+03  0.7546771E-02  0.1022259E+00
         21   -1    0    0  502  501  0.00000000000E+00  0.00000000000E+00  0.19586689305E+03  0.19586689305E+03  0.00000000000E+00 0.  1.
         21   -1    0    0  501  502 -0.00000000000E+00 -0.00000000000E+00 -0.11220710465E+04  0.11220710465E+04  0.00000000000E+00 0.  1.
         25    1    1    2    0    0 -0.37396396792E+03  0.49193898595E+02 -0.59755153077E+03  0.71760847325E+03  0.12500000000E+03 0.  0.
         25    1    1    2    0    0  0.18398639565E+03 -0.71766230409E+02 -0.48347824050E+02  0.23867110781E+03  0.12500000000E+03 0.  0.
         25    1    1    2    0    0  0.18997757226E+03  0.22572331814E+02 -0.28030479861E+03  0.36165835847E+03  0.12500000000E+03 0.  0.
</event>
<event>
 5    0  0.5619558E-005  0.2067815E+03  0.7546771E-02  0.1144140E+00
         21   -1    0    0  502  501  0.00000000000E+00  0.00000000000E+00  0.13908994508E+03  0.13908994508E+03  0.00000000000E+00 0.  1.
         21   -1    0    0  501  502 -0.00000000000E+00 -0.00000000000E+00 -0.30741680868E+03  0.30741680868E+03  0.00000000000E+00 0.  1.
         25    1    1    2    0    0  0.50848828566E+02 -0.34787791530E+01 -0.63722408392E+01  0.13514181708E+03  0.12500000000E+03 0.  0.
         25    1    1    2    0    0 -0.11684037618E+01 -0.17370738330E+02 -0.52465631230E+02  0.13667754087E+03  0.12500000000E+03 0.  0.
         25    1    1    2    0    0 -0.49680424804E+02  0.20849517483E+02 -0.10948899153E+03  0.17468739581E+03  0.12500000000E+03 0.  0.
</event>
<event>
 5    0  0.6750775E-005  0.3381772E+03  0.7546771E-02  0.1067575E+00
         21   -1    0    0  502  501  0.00000000000E+00  0.00000000000E+00  0.57177704279E+03  0.57177704279E+03  0.00000000000E+00 0. -1.
         21   -1    0    0  501  502 -0.00000000000E+00 -0.00000000000E+00 -0.20001474558E+03  0.20001474558E+03  0.00000000000E+00 0. -1.
         25    1    1    2    0    0 -0.10214493541E+03 -0.62883531504E+02  0.34779238119E+02  0.17669895803E+03  0.12500000000E+03 0.  0.
         25    1    1    2    0    0 -0.13818274119E+03  0.10830258987E+03  0.15841322997E+03  0.26747648937E+03  0.12500000000E+03 0.  0.
         25    1    1    2    0    0  0.24032767660E+03 -0.45419058371E+02  0.17856982912E+03  0.32761634097E+03  0.12500000000E+03 0.  0.
</event>
<event>
 5    0  0.5619558E-005  0.2987735E+03  0.7546771E-02  0.1085855E+00
         21   -1    0    0  502  501  0.00000000000E+00  0.00000000000E+00  0.29378764753E+04  0.29378764753E+04  0.00000000000E+00 0. -1.
         21   -1    0    0  501  502 -0.00000000000E+00 -0.00000000000E+00 -0.30384389873E+02  0.30384389873E+02  0.00000000000E+00 0. -1.
         25    1    1    2    0    0 -0.11252890433E+03 -0.37315515987E+02  0.13625579724E+04  0.13734061418E+04  0.12500000000E+03 0.  0.
         25    1    1    2    0    0 -0.62539573376E+02  0.14267745075E+02  0.97806233215E+03  0.98810206576E+03  0.12500000000E+03 0.  0.
         25    1    1    2    0    0  0.17506847770E+03  0.23047770913E+02  0.56687178088E+03  0.60675265767E+03  0.12500000000E+03 0.  0.
</event>
<event>
 5    0  0.5619558E-005  0.2846841E+03  0.7546771E-02  0.1093158E+00
         21   -1    0    0  502  501  0.00000000000E+00  0.00000000000E+00  0.39111261664E+03  0.39111261664E+03  0.00000000000E+00 0.  1.
         21   -1    0    0  501  502 -0.00000000000E+00 -0.00000000000E+00 -0.20721656215E+03  0.20721656215E+03  0.00000000000E+00 0.  1.
         25    1    1    2    0    0 -0.57931082730E+02 -0.13906382128E+03 -0.72004994920E+02  0.20857726633E+03  0.12500000000E+03 0.  0.
         25    1    1    2    0    0  0.38331310552E+02  0.86557133466E+02  0.12967441095E+03  0.20347451825E+03  0.12500000000E+03 0.  0.
         25    1    1    2    0    0  0.19599772178E+02  0.52506687816E+02  0.12622663846E+03  0.18627739421E+03  0.12500000000E+03 0.  0.
</event>
<event>
 5    0  0.5619558E-005  0.2097327E+03  0.7546771E-02  0.1141778E+00
         21   -1    0    0  502  501  0.00000000000E+00  0.00000000000E+00  0.20312650969E+03  0.20312650969E+03  0.00000000000E+00 0. -1.
         21   -1    0    0  501  502 -0.00000000000E+00 -0.00000000000E+00 -0.21655370950E+03  0.21655370950E+03  0.00000000000E+00 0. -1.
         25    1    1    2    0    0 -0.37997071729E+01  0.17812542487E+02 -0.30176338693E+02  0.12987430793E+03  0.12500000000E+03 0.  0.
         25    1    1    2    0    0  0.50976003717E+02 -0.10278445134E+02  0.61505340479E+02  0.14870139978E+03  0.12500000000E+03 0.  0.
         25    1    1    2    0    0 -0.47176296544E+02 -0.75340973530E+01 -0.44756201596E+02  0.14110451148E+03  0.12500000000E+03 0.  0.
</event>
<event>
 5    0  0.5619558E-005  0.2700918E+03  0.7546771E-02  0.1101227E+00
         21   -1    0    0  502  501  0.00000000000E+00  0.00000000000E+00  0.19833294985E+03  0.19833294985E+03  0.00000000000E+00 0. -1.
         21   -1    0    0  501  502 -0.00000000000E+00 -0.00000000000E+00 -0.36781381302E+03  0.36781381302E+03  0.00000000000E+00 0. -1.
         25    1    1    2    0    0 -0.49698758116E+02 -0.21824590831E+02 -0.41737020777E+02  0.14252458815E+03  0.12500000000E+03 0.  0.
         25    1    1    2    0    0  0.69005868838E+02 -0.60525018981E+02 -0.20260789214E+03  0.25514710622E+03  0.12500000000E+03 0.  0.
         25    1    1    2    0    0 -0.19307110723E+02  0.82349609812E+02  0.74864049752E+02  0.16847506850E+03  0.12500000000E+03 0.  0.
</event>
<event>
 5    0  0.6314377E-005  0.2839443E+03  0.7546771E-02  0.1093554E+00
         21   -1    0    0  502  501  0.00000000000E+00  0.00000000000E+00  0.20689102745E+03  0.20689102745E+03  0.00000000000E+00 0.  1.
         21   -1    0    0  501  502 -0.00000000000E+00 -0.00000000000E+00 -0.38969476157E+03  0.38969476157E+03  0.00000000000E+00 0.  1.
         25    1    1    2    0    0  0.11302590946E+03  0.46859268207E+02 -0.91391703296E+02  0.19735270623E+03  0.12500000000E+03 0.  0.
         25    1    1    2    0    0  0.12857888004E+02 -0.10845486284E+02 -0.16167561624E+03  0.20505354116E+03  0.12500000000E+03 0.  0.
         25    1    1    2    0    0 -0.12588379746E+03 -0.36013781922E+02  0.70263585412E+02  0.19417954163E+03  0.12500000000E+03 0.  0.
</event>
<event>
 5    0  0.5619558E-005  0.5229714E+03  0.7546771E-02  0.1007951E+00
         21   -1    0    0  502  501  0.00000000000E+00  0.00000000000E+00  0.42958708349E+03  0.42958708349E+03  0.00000000000E+00 0.  1.
         21   -1    0    0  501  502 -0.00000000000E+00 -0.00000000000E+00 -0.63665580190E+03  0.63665580190E+03  0.00000000000E+00 0.  1.
         25    1    1    2    0    0 -0.10057626964E+03  0.13476829611E+03 -0.13963480167E+03  0.25179546757E+03  0.12500000000E+03 0.  0.
         25    1    1    2    0    0  0.21923813059E+03  0.26834984674E+03 -0.75137444875E+02  0.37596227706E+03  0.12500000000E+03 0.  0.
         25    1    1    2    0    0 -0.11866186094E+03 -0.40311814284E+03  0.77035281353E+01  0.43848514077E+03  0.12500000000E+03 0.  0.
</event>
