<event>
 5    0  0.5653588E-005  0.2184332E+03  0.7546771E-02  0.1135057E+00
         21   -1    0    0  502  501  0.00000000000E+00  0.00000000000E+00  0.15219249103E+03  0.15219249103E+03  0.00000000000E+00 0. -1.
         21   -1    0    0  501  502 -0.00000000000E+00 -0.00000000000E+00 -0.31350472905E+03  0.31350472905E+03  0.00000000000E+00 0. -1.
         25    1    1    2    0    0 -0.45748953713E+02 -0.38715381862E+02 -0.62728692706E+02  0.15215694676E+03  0.12500000000E+03 0.  0.
         25    1    1    2    0    0 -0.20650346128E+01  0.13838762369E+02  0.26648330117E+02  0.12857258343E+03  0.12500000000E+03 0.  0.
         25    1    1    2    0    0  0.47813988326E+02  0.24876619494E+02 -0.12523187543E+03  0.18496768989E+03  0.12500000000E+03 0.  0.
</event>
<event>
 5    0  0.5653588E-005  0.2458620E+03  0.7546771E-02  0.1115948E+00
         21   -1    0    0  502  501  0.00000000000E+00  0.00000000000E+00  0.27895704136E+03  0.27895704136E+03  0.00000000000E+00 0. -1.
         21   -1    0    0  501  502 -0.00000000000E+00 -0.00000000000E+00 -0.21669321962E+03  0.21669321962E+03  0.00000000000E+00 0. -1.
         25    1    1    2    0    0  0.60233838754E+02 -0.11414634515E+03 -0.24360877112E+01  0.17968983823E+03  0.12500000000E+03 0.  0.
         25    1    1    2    0    0 -0.80573749781E+02  0.85172166512E+02  0.71883445789E+02  0.18584578790E+03  0.12500000000E+03 0.  0.
         25    1    1    2    0    0  0.20339911027E+02  0.28974178635E+02 -0.71835363397E+01  0.13011463485E+03  0.12500000000E+03 0.  0.
</event>
<event>
 5    0  0.5653588E-005  0.4059654E+03  0.7546771E-02  0.1041733E+00
         21   -1    0    0  502  501  0.00000000000E+00  0.00000000000E+00  0.39877943098E+03  0.39877943098E+03  0.00000000000E+00 0. -1.
         21   -1    0    0  501  502 -0.00000000000E+00 -0.00000000000E+00 -0.41328078722E+03  0.41328078722E+03  0.00000000000E+00 0. -1.
         25    1    1    2    0    0 -0.20326745415E+02 -0.18916912039E+03 -0.97220058190E+02  0.24753761816E+03  0.12500000000E+03 0.  0.
         25    1    1    2    0    0  0.71343447166E+02  0.32197731907E+03  0.11796712218E+03  0.37188778329E+03  0.12500000000E+03 0.  0.
         25    1    1    2    0    0 -0.51016701751E+02 -0.13280819867E+03 -0.35248420228E+02  0.19263481674E+03  0.12500000000E+03 0.  0.
</event>
<event>
 5    0  0.5653588E-005  0.2239764E+03  0.7546771E-02  0.1130953E+00
         21   -1    0    0  502  501  0.00000000000E+00  0.00000000000E+00  0.26007086143E+03  0.26007086143E+03  0.00000000000E+00 0.  1.
         21   -1    0    0  501  502 -0.00000000000E+00 -0.00000000000E+00 -0.19289134376E+03  0.19289134376E+03  0.00000000000E+00 0.  1.
         25    1    1    2    0    0  0.21234399777E+02 -0.55143104604E+02 -0.56202071114E+00  0.13826415872E+03  0.12500000000E+03 0.  0.
         25    1    1    2    0    0 -0.56215352154E+02  0.59638264518E+02  0.10128499515E+03  0.18055619252E+03  0.12500000000E+03 0.  0.
         25    1    1    2    0    0  0.34980952377E+02 -0.44951599148E+01 -0.33543456774E+02  0.13414185396E+03  0.12500000000E+03 0.  0.
</event>
<event>
 5    0  0.5653588E-005  0.3604989E+03  0.7546771E-02  0.1058387E+00
         21   -1    0    0  502  501  0.00000000000E+00  0.00000000000E+00  0.45774382865E+03  0.45774382865E+03  0.00000000000E+00 0.  1.
         21   -1    0    0  501  502 -0.00000000000E+00 -0.00000000000E+00 -0.28391303292E+03  0.28391303292E+03  0.00000000000E+00 0.  1.
         25    1    1    2    0    0 -0.24461435486E+03 -0.15058532229E+03  0.13320339907E+02  0.31355151626E+03  0.12500000000E+03 0.  0.
         25    1    1    2    0    0  0.52726412084E+02  0.64564391687E+02  0.40432400190E+02  0.15559053374E+03  0.12500000000E+03 0.  0.
         25    1    1    2    0    0  0.19188794277E+03  0.86020930603E+02  0.12007805563E+03  0.27251481158E+03  0.12500000000E+03 0.  0.
</event>
<event>
 5    0  0.5653588E-005  0.3513913E+03  0.7546771E-02  0.1062045E+00
         21   -1    0    0  502  501  0.00000000000E+00  0.00000000000E+00  0.84320256975E+02  0.84320256975E+02  0.00000000000E+00 0. -1.
         21   -1    0    0  501  502 -0.00000000000E+00 -0.00000000000E+00 -0.14643671467E+04  0.14643671467E+04  0.00000000000E+00 0. -1.
         25    1    1    2    0    0  0.17571550964E+03  0.12566629704E+03 -0.90828541979E+03  0.94195295124E+03  0.12500000000E+03 0.  0.
         25    1    1    2    0    0 -0.13281923187E+03 -0.21582628675E+02 -0.12752828114E+03  0.22359611066E+03  0.12500000000E+03 0.  0.
         25    1    1    2    0    0 -0.42896277772E+02 -0.10408366837E+03 -0.34423318877E+03  0.38313834175E+03  0.12500000000E+03 0.  0.
</event>
<event>
 5    0  0.5653588E-005  0.4363788E+03  0.7546771E-02  0.1031864E+00
         21   -1    0    0  502  501  0.00000000000E+00  0.00000000000E+00  0.54533863650E+03  0.54533863650E+03  0.00000000000E+00 0. -1.
         21   -1    0    0  501  502 -0.00000000000E+00 -0.00000000000E+00 -0.34918945156E+03  0.34918945156E+03  0.00000000000E+00 0. -1.
         25    1    1    2    0    0 -0.15649727703E+03  0.17383966559E+03 -0.18311503920E+03  0.32228519146E+03  0.12500000000E+03 0.  0.
         25    1    1    2    0    0  0.17420409054E+03 -0.10067997979E+03  0.99917964699E+02  0.25708388351E+03  0.12500000000E+03 0.  0.
         25    1    1    2    0    0 -0.17706813505E+02 -0.73159685801E+02  0.27934625944E+03  0.31515901309E+03  0.12500000000E+03 0.  0.
</event>
<event>
 5    0  0.6017481E-005  0.3599449E+03  0.7546771E-02  0.1058606E+00
         21   -1    0    0  502  501  0.00000000000E+00  0.00000000000E+00  0.14486964812E+03  0.14486964812E+03  0.00000000000E+00 0. -1.
         21   -1    0    0  501  502 -0.00000000000E+00 -0.00000000000E+00 -0.89432326284E+03  0.89432326284E+03  0.00000000000E+00 0. -1.
         25    1    1    2    0    0 -0.19780557564E+03  0.62713587836E+01 -0.34851043259E+03  0.41982245929E+03  0.12500000000E+03 0.  0.
         25    1    1    2    0    0 -0.19542845864E+02  0.70449420434E+02 -0.55245650177E+01  0.14491571510E+03  0.12500000000E+03 0.  0.
         25    1    1    2    0    0  0.21734842151E+03 -0.76720779218E+02 -0.39541861711E+03  0.47445473657E+03  0.12500000000E+03 0.  0.
</event>
<event>
 5    0  0.8390405E-005  0.3766241E+03  0.7546771E-02  0.1052189E+00
         21   -1    0    0  502  501  0.00000000000E+00  0.00000000000E+00  0.26188395145E+03  0.26188395145E+03  0.00000000000E+00 0. -1.
         21   -1    0    0  501  502 -0.00000000000E+00 -0.00000000000E+00 -0.54163581513E+03  0.54163581513E+03  0.00000000000E+00 0. -1.
         25    1    1    2    0    0  0.10287145618E+03  0.16146586244E+03 -0.15588444359E+03  0.27672860529E+03  0.12500000000E+03 0.  0.
         25    1    1    2    0    0  0.11881151638E+03 -0.81900753927E+02  0.63162720225E+02  0.20109311063E+03  0.12500000000E+03 0.  0.
         25    1    1    2    0    0 -0.22168297256E+03 -0.79565108515E+02 -0.18703014031E+03  0.32569805066E+03  0.12500000000E+03 0.  0.
</event>
<event>
 5    0  0.5653588E-005  0.2829090E+03  0.7546771E-02  0.1094111E+00
         21   -1    0    0  502  501  0.00000000000E+00  0.00000000000E+00  0.58882121644E+02  0.58882121644E+02  0.00000000000E+00 0.  1.
         21   -1    0    0  501  502 -0.00000000000E+00 -0.00000000000E+00 -0.13592832997E+04  0.13592832997E+04  0.00000000000E+00 0.  1.
         25    1    1    2    0    0  0.10181303022E+03 -0.88614091083E+02 -0.65884780076E+03  0.68404954121E+03  0.12500000000E+03 0.  0.
         25    1    1    2    0    0 -0.14419970586E+02  0.71460563565E+01 -0.86778524632E+02  0.15301801858E+03  0.12500000000E+03 0.  0.
         25    1    1    2    0    0 -0.87393059636E+02  0.81468034726E+02 -0.55477485265E+03  0.58109786154E+03  0.12500000000E+03 0.  0.
</event>
<event>
 5    0  0.5653588E-005  0.3027449E+03  0.7546771E-02  0.1083876E+00
         21   -1    0    0  502  501  0.00000000000E+00  0.00000000000E+00  0.20340989521E+03  0.20340989521E+03  0.00000000000E+00 0. -1.
         21   -1    0    0  501  502 -0.00000000000E+00 -0.00000000000E+00 -0.45059015150E+03  0.45059015150E+03  0.00000000000E+00 0. -1.
         25    1    1    2    0    0  0.47204826718E+02 -0.73126149455E+02 -0.30730400839E+03  0.34298175312E+03  0.12500000000E+03 0.  0.
         25    1    1    2    0    0  0.36937198796E+02 -0.78430667091E+01  0.27943234539E+01  0.13060887640E+03  0.12500000000E+03 0.  0.
         25    1    1    2    0    0 -0.84142025514E+02  0.80969216164E+02  0.57329428651E+02  0.18040941720E+03  0.12500000000E+03 0.  0.
</event>
<event>
 5    0  0.5653588E-005  0.3166907E+03  0.7546771E-02  0.1077183E+00
         21   -1    0    0  502  501  0.00000000000E+00  0.00000000000E+00  0.19269911898E+03  0.19269911898E+03  0.00000000000E+00 0. -1.
         21   -1    0    0  501  502 -0.00000000000E+00 -0.00000000000E+00 -0.52046420113E+03  0.52046420113E+03  0.00000000000E+00 0. -1.
         25    1    1    2    0    0  0.38473329586E+02 -0.14746654119E+03 -0.58059583175E+02  0.20548112580E+03  0.12500000000E+03 0.  0.
         25    1    1    2    0    0  0.54544319142E+02  0.95736791499E+02 -0.29767786469E+03  0.34114179914E+03  0.12500000000E+03 0.  0.
         25    1    1    2    0    0 -0.93017648729E+02  0.51729749693E+02  0.27972365716E+02  0.16654039517E+03  0.12500000000E+03 0.  0.
</event>
<event>
 5    0  0.5991910E-005  0.2985827E+03  0.7546771E-02  0.1085951E+00
         21   -1    0    0  502  501  0.00000000000E+00  0.00000000000E+00  0.89855323289E+02  0.89855323289E+02  0.00000000000E+00 0. -1.
         21   -1    0    0  501  502 -0.00000000000E+00 -0.00000000000E+00 -0.99216867952E+03  0.99216867952E+03  0.00000000000E+00 0. -1.
         25    1    1    2    0    0 -0.79850576444E+02 -0.83266591918E+02 -0.29738477521E+03  0.34259618272E+03  0.12500000000E+03 0.  0.
         25    1    1    2    0    0  0.10432565222E+03 -0.96747603343E+02 -0.18306206400E+03  0.26340208757E+03  0.12500000000E+03 0.  0.
         25    1    1    2    0    0 -0.24475075776E+02  0.18001419526E+03 -0.42186651703E+03  0.47602573252E+03  0.12500000000E+03 0.  0.
</event>
<event>
 5    0  0.5653588E-005  0.2788979E+03  0.7546771E-02  0.1096292E+00
         21   -1    0    0  502  501  0.00000000000E+00  0.00000000000E+00  0.59765086244E+02  0.59765086244E+02  0.00000000000E+00 0. -1.
         21   -1    0    0  501  502 -0.00000000000E+00 -0.00000000000E+00 -0.13014960947E+04  0.13014960947E+04  0.00000000000E+00 0. -1.
         25    1    1    2    0    0  0.12263317040E+03 -0.78276373948E+02 -0.23265085258E+03  0.30152529646E+03  0.12500000000E+03 0.  0.
         25    1    1    2    0    0 -0.12532601778E+03  0.17404484743E+02 -0.67102364444E+03  0.69419540349E+03  0.12500000000E+03 0.  0.
         25    1    1    2    0    0  0.26928473737E+01  0.60871889204E+02 -0.33805651143E+03  0.36554048099E+03  0.12500000000E+03 0.  0.
</event>
<event>
 5    0  0.5792700E-005  0.3415259E+03  0.7546771E-02  0.1066148E+00
         21   -1    0    0  502  501  0.00000000000E+00  0.00000000000E+00  0.38645904402E+03  0.38645904402E+03  0.00000000000E+00 0. -1.
         21   -1    0    0  501  502 -0.00000000000E+00 -0.00000000000E+00 -0.30181712667E+03  0.30181712667E+03  0.00000000000E+00 0. -1.
         25    1    1    2    0    0  0.57517006880E+02 -0.94984610636E+01 -0.10856097530E+03  0.17552467690E+03  0.12500000000E+03 0.  0.
         25    1    1    2    0    0 -0.22756979019E+03  0.22642919260E+01  0.72799830273E+02  0.26966266281E+03  0.12500000000E+03 0.  0.
         25    1    1    2    0    0  0.17005278331E+03  0.72341691376E+01  0.12040306239E+03  0.24308883098E+03  0.12500000000E+03 0.  0.
</event>
<event>
 5    0  0.5653588E-005  0.4299769E+03  0.7546771E-02  0.1033867E+00
         21   -1    0    0  502  501  0.00000000000E+00  0.00000000000E+00  0.33426462107E+03  0.33426462107E+03  0.00000000000E+00 0. -1.
         21   -1    0    0  501  502 -0.00000000000E+00 -0.00000000000E+00 -0.55309511151E+03  0.55309511151E+03  0.00000000000E+00 0. -1.
         25    1    1    2    0    0  0.18796260418E+03  0.10903291744E+03 -0.19657466464E+03  0.31856665933E+03  0.12500000000E+03 0.  0.
         25    1    1    2    0    0  0.72782892955E+02 -0.43343872386E+02  0.16058393001E+03  0.22042740156E+03  0.12500000000E+03 0.  0.
         25    1    1    2    0    0 -0.26074549714E+03 -0.65689045049E+02 -0.18283975580E+03  0.34836567170E+03  0.12500000000E+03 0.  0.
</event>
<event>
 5    0  0.5653588E-005  0.2846279E+03  0.7546771E-02  0.1093188E+00
         21   -1    0    0  502  501  0.00000000000E+00  0.00000000000E+00  0.13130984970E+03  0.13130984970E+03  0.00000000000E+00 0.  1.
         21   -1    0    0  501  502 -0.00000000000E+00 -0.00000000000E+00 -0.61696071202E+03  0.61696071202E+03  0.00000000000E+00 0.  1.
         25    1    1    2    0    0  0.10755753742E+03 -0.98147026711E+02 -0.30696413249E+03  0.36201304029E+03  0.12500000000E+03 0.  0.
         25    1    1    2    0    0 -0.32833012907E+02 -0.44383723375E+02 -0.51401918867E+02  0.14599684552E+03  0.12500000000E+03 0.  0.
         25    1    1    2    0    0 -0.74724524514E+02  0.14253075009E+03 -0.12728481097E+03  0.24026067591E+03  0.12500000000E+03 0.  0.
</event>
<event>
 5    0  0.6935748E-005  0.3832870E+03  0.7546771E-02  0.1049726E+00
         21   -1    0    0  502  501  0.00000000000E+00  0.00000000000E+00  0.43408026804E+03  0.43408026804E+03  0.00000000000E+00 0. -1.
         21   -1    0    0  501  502 -0.00000000000E+00 -0.00000000000E+00 -0.33843726040E+03  0.33843726040E+03  0.00000000000E+00 0. -1.
         25    1    1    2    0    0 -0.13196521277E+02 -0.14011283461E+03  0.13881965503E+03  0.23388384129E+03  0.12500000000E+03 0.  0.
         25    1    1    2    0    0  0.33141393178E+02  0.29370430930E+03  0.39061572325E+02  0.32328219820E+03  0.12500000000E+03 0.  0.
         25    1    1    2    0    0 -0.19944871902E+02 -0.15359147469E+03 -0.82238219712E+02  0.21535148895E+03  0.12500000000E+03 0.  0.
</event>
<event>
 5    0  0.5653588E-005  0.3500250E+03  0.7546771E-02  0.1062605E+00
         21   -1    0    0  502  501  0.00000000000E+00  0.00000000000E+00  0.12182766987E+04  0.12182766987E+04  0.00000000000E+00 0.  1.
         21   -1    0    0  501  502 -0.00000000000E+00 -0.00000000000E+00 -0.10056622164E+03  0.10056622164E+03  0.00000000000E+00 0.  1.
         25    1    1    2    0    0 -0.65075288853E+02  0.18327207285E+03  0.24559481868E+03  0.33729106254E+03  0.12500000000E+03 0.  0.
         25    1    1    2    0    0 -0.99417350989E+02 -0.58233515992E+02  0.17581173526E+03  0.24456025498E+03  0.12500000000E+03 0.  0.
         25    1    1    2    0    0  0.16449263984E+03 -0.12503855686E+03  0.69630392309E+03  0.73699160279E+03  0.12500000000E+03 0.  0.
</event>
<event>
 5    0  0.5653588E-005  0.3342863E+03  0.7546771E-02  0.1069256E+00
         21   -1    0    0  502  501  0.00000000000E+00  0.00000000000E+00  0.28627832293E+04  0.28627832293E+04  0.00000000000E+00 0.  1.
         21   -1    0    0  501  502 -0.00000000000E+00 -0.00000000000E+00 -0.39034502044E+02  0.39034502044E+02  0.00000000000E+00 0.  1.
         25    1    1    2    0    0 -0.29996281991E+02 -0.17460709113E+03  0.14132648662E+04  0.14298006837E+04  0.12500000000E+03 0.  0.
         25    1    1    2    0    0 -0.41400874265E+02  0.22957252404E+03  0.96515038976E+03  0.10007786224E+04  0.12500000000E+03 0.  0.
         25    1    1    2    0    0  0.71397156256E+02 -0.54965432903E+02  0.44533347135E+03  0.47123842526E+03  0.12500000000E+03 0.  0.
</event>
<event>
 5    0  0.5653588E-005  0.2268258E+03  0.7546771E-02  0.1128894E+00
         21   -1    0    0  502  501  0.00000000000E+00  0.00000000000E+00  0.20908768359E+03  0.20908768359E+03  0.00000000000E+00 0. -1.
         21   -1    0    0  501  502 -0.00000000000E+00 -0.00000000000E+00 -0.24606865272E+03  0.24606865272E+03  0.00000000000E+00 0. -1.
         25    1    1    2    0    0  0.37509999527E+02 -0.28026359554E+01  0.52959871267E+02  0.14087087278E+03  0.12500000000E+03 0.  0.
         25    1    1    2    0    0 -0.46309553671E+01  0.80779795291E+02 -0.30151931285E+02  0.15192419174E+03  0.12500000000E+03 0.  0.
         25    1    1    2    0    0 -0.32879044160E+02 -0.77977159336E+02 -0.59788909111E+02  0.16236127179E+03  0.12500000000E+03 0.  0.
</event>
<event>
 5    0  0.5653588E-005  0.2033531E+03  0.7546771E-02  0.1146940E+00
         21   -1    0    0  502  501  0.00000000000E+00  0.00000000000E+00  0.82863664442E+03  0.82863664442E+03  0.00000000000E+00 0. -1.
         21   -1    0    0  501  502 -0.00000000000E+00 -0.00000000000E+00 -0.49904235492E+02  0.49904235492E+02  0.00000000000E+00 0. -1.
         25    1    1    2    0    0 -0.12843011153E+02 -0.36289391977E+02  0.16189535763E+03  0.20812729213E+03  0.12500000000E+03 0.  0.
         25    1    1    2    0    0  0.19337271277E+02  0.17153928524E+01  0.37731837385E+03  0.39795857558E+03  0.12500000000E+03 0.  0.
         25    1    1    2    0    0 -0.64942601243E+01  0.34573999124E+02  0.23951867744E+03  0.27245501220E+03  0.12500000000E+03 0.  0.
</event>
<event>
 5    0  0.5653588E-005  0.4480706E+03  0.7546771E-02  0.1028299E+00
         21   -1    0    0  502  501  0.00000000000E+00  0.00000000000E+00  0.18923727440E+03  0.18923727440E+03  0.00000000000E+00 0. -1.
         21   -1    0    0  501  502 -0.00000000000E+00 -0.00000000000E+00 -0.10609288261E+04  0.10609288261E+04  0.00000000000E+00 0. -1.
         25    1    1    2    0    0  0.27314073947E+03  0.22792352910E+02 -0.17545972287E+03  0.34862081014E+03  0.12500000000E+03 0.  0.
         25    1    1    2    0    0 -0.18229836103E+03  0.19745633075E+03 -0.29279097066E+03  0.41662122784E+03  0.12500000000E+03 0.  0.
         25    1    1    2    0    0 -0.90842378438E+02 -0.22024868366E+03 -0.40344085818E+03  0.48492406253E+03  0.12500000000E+03 0.  0.
</event>
<event>
 5    0  0.5666359E-005  0.4113085E+03  0.7546771E-02  0.1039933E+00
         21   -1    0    0  502  501  0.00000000000E+00  0.00000000000E+00  0.64070530160E+03  0.64070530160E+03  0.00000000000E+00 0. -1.
         21   -1    0    0  501  502 -0.00000000000E+00 -0.00000000000E+00 -0.26404446690E+03  0.26404446690E+03  0.00000000000E+00 0. -1.
         25    1    1    2    0    0 -0.16010733446E+03  0.14670557910E+03  0.46504366406E+02  0.25484218956E+03  0.12500000000E+03 0.  0.
         25    1    1    2    0    0  0.20025562952E+02 -0.15191784419E+03 -0.68456087431E+02  0.20926368643E+03  0.12500000000E+03 0.  0.
         25    1    1    2    0    0  0.14008177151E+03  0.52122650864E+01  0.39861255573E+03  0.44064389250E+03  0.12500000000E+03 0.  0.
</event>
<event>
 5    0  0.5653588E-005  0.2788600E+03  0.7546771E-02  0.1096313E+00
         21   -1    0    0  502  501  0.00000000000E+00  0.00000000000E+00  0.12010276279E+03  0.12010276279E+03  0.00000000000E+00 0.  1.
         21   -1    0    0  501  502 -0.00000000000E+00 -0.00000000000E+00 -0.64746978114E+03  0.64746978114E+03  0.00000000000E+00 0.  1.
         25    1    1    2    0    0 -0.70604886025E+02 -0.15612652862E+03 -0.20747017718E+03  0.29669751817E+03  0.12500000000E+03 0.  0.
         25    1    1    2    0    0  0.21063809919E+02 -0.12341859084E+02 -0.14740433328E+03  0.19480514121E+03  0.12500000000E+03 0.  0.
         25    1    1    2    0    0  0.49541076105E+02  0.16846838770E+03 -0.17249250789E+03  0.27606988455E+03  0.12500000000E+03 0.  0.
</event>
<event>
 5    0  0.5653588E-005  0.6876227E+03  0.7546771E-02  0.9738636E-01
         21   -1    0    0  502  501  0.00000000000E+00  0.00000000000E+00  0.15335116821E+04  0.15335116821E+04  0.00000000000E+00 0. -1.
         21   -1    0    0  501  502 -0.00000000000E+00 -0.00000000000E+00 -0.30832821686E+03  0.30832821686E+03  0.00000000000E+00 0. -1.
         25    1    1    2    0    0 -0.75124168305E+02 -0.17645398515E+02  0.35009257723E+03  0.37966407966E+03  0.12500000000E+03 0.  0.
         25    1    1    2    0    0 -0.17325572405E+03 -0.22767112887E+03  0.10179867474E+04  0.10647881041E+04  0.12500000000E+03 0.  0.
         25    1    1    2    0    0  0.24837989235E+03  0.24531652739E+03 -0.14289585938E+03  0.39738771516E+03  0.12500000000E+03 0.  0.
</event>
<event>
 5    0  0.5653588E-005  0.3107424E+03  0.7546771E-02  0.1079991E+00
         21   -1    0    0  502  501  0.00000000000E+00  0.00000000000E+00  0.60278450870E+03  0.60278450870E+03  0.00000000000E+00 0.  1.
         21   -1    0    0  501  502 -0.00000000000E+00 -0.00000000000E+00 -0.16019129717E+03  0.16019129717E+03  0.00000000000E+00 0.  1.
         25    1    1    2    0    0 -0.23139132932E+02  0.60915233849E+02  0.31778274942E+03  0.34764487774E+03  0.12500000000E+03 0.  0.
         25    1    1    2    0    0  0.45937628504E+02 -0.17790214738E+03  0.86154349849E+02  0.23834221563E+03  0.12500000000E+03 0.  0.
         25    1    1    2    0    0 -0.22798495572E+02  0.11698691353E+03  0.38656112260E+02  0.17698871250E+03  0.12500000000E+03 0.  0.
</event>
<event>
 5    0  0.5653588E-005  0.3592478E+03  0.7546771E-02  0.1058882E+00
         21   -1    0    0  502  501  0.00000000000E+00  0.00000000000E+00  0.20198118388E+03  0.20198118388E+03  0.00000000000E+00 0. -1.
         21   -1    0    0  501  502 -0.00000000000E+00 -0.00000000000E+00 -0.63896538538E+03  0.63896538538E+03  0.00000000000E+00 0. -1.
         25    1    1    2    0    0  0.19283211469E+03  0.45570888682E+02 -0.70078066476E+02  0.24453397668E+03  0.12500000000E+03 0.  0.
         25    1    1    2    0    0 -0.25006116959E+03 -0.12970729960E+03 -0.25755028318E+03  0.40163630373E+03  0.12500000000E+03 0.  0.
         25    1    1    2    0    0  0.57229054908E+02  0.84136410917E+02 -0.10935585184E+03  0.19477628885E+03  0.12500000000E+03 0.  0.
</event>
<event>
 5    0  0.5653588E-005  0.2508199E+03  0.7546771E-02  0.1112788E+00
         21   -1    0    0  502  501  0.00000000000E+00  0.00000000000E+00  0.41320044115E+03  0.41320044115E+03  0.00000000000E+00 0. -1.
         21   -1    0    0  501  502 -0.00000000000E+00 -0.00000000000E+00 -0.15225207437E+03  0.15225207437E+03  0.00000000000E+00 0. -1.
         25    1    1    2    0    0 -0.34829013340E+02 -0.11349670823E+02  0.16239698147E+03  0.20818178304E+03  0.12500000000E+03 0.  0.
         25    1    1    2    0    0 -0.31725640006E+02 -0.92771934764E+01 -0.60981921664E+02  0.14295585795E+03  0.12500000000E+03 0.  0.
         25    1    1    2    0    0  0.66554653346E+02  0.20626864300E+02  0.15953330697E+03  0.21431487453E+03  0.12500000000E+03 0.  0.
</event>
<event>
 5    0  0.5653588E-005  0.2986302E+03  0.7546771E-02  0.1085927E+00
         21   -1    0    0  502  501  0.00000000000E+00  0.00000000000E+00  0.10578785364E+04  0.10578785364E+04  0.00000000000E+00 0. -1.
         21   -1    0    0  501  502 -0.00000000000E+00 -0.00000000000E+00 -0.84300767708E+02  0.84300767708E+02  0.00000000000E+00 0. -1.
         25    1    1    2    0    0  0.12513790656E+03  0.50981746116E+02  0.31063926735E+03  0.36108224619E+03  0.12500000000E+03 0.  0.
         25    1    1    2    0    0 -0.68577184023E+02  0.46474224802E+01  0.50984281769E+02  0.15148869823E+03  0.12500000000E+03 0.  0.
         25    1    1    2    0    0 -0.56560722533E+02 -0.55629168596E+02  0.61195421954E+03  0.62960835965E+03  0.12500000000E+03 0.  0.
</event>
<event>
 5    0  0.5653588E-005  0.3408360E+03  0.7546771E-02  0.1066440E+00
         21   -1    0    0  502  501  0.00000000000E+00  0.00000000000E+00  0.11301027045E+03  0.11301027045E+03  0.00000000000E+00 0.  1.
         21   -1    0    0  501  502 -0.00000000000E+00 -0.00000000000E+00 -0.10279526701E+04  0.10279526701E+04  0.00000000000E+00 0.  1.
         25    1    1    2    0    0  0.13105606167E+03  0.39042090373E+02 -0.23751595972E+03  0.30122882871E+03  0.12500000000E+03 0.  0.
         25    1    1    2    0    0 -0.26351511340E+03  0.14188817973E+02 -0.30794308356E+03  0.42437657836E+03  0.12500000000E+03 0.  0.
         25    1    1    2    0    0  0.13245905173E+03 -0.53230908346E+02 -0.36948335636E+03  0.41535753348E+03  0.12500000000E+03 0.  0.
</event>
<event>
 5    0  0.5653588E-005  0.2498302E+03  0.7546771E-02  0.1113412E+00
         21   -1    0    0  502  501  0.00000000000E+00  0.00000000000E+00  0.88805213993E+02  0.88805213993E+02  0.00000000000E+00 0.  1.
         21   -1    0    0  501  502 -0.00000000000E+00 -0.00000000000E+00 -0.70283177796E+03  0.70283177796E+03  0.00000000000E+00 0.  1.
         25    1    1    2    0    0 -0.46526939158E+02  0.17115135031E+02 -0.38786971459E+03  0.41051869557E+03  0.12500000000E+03 0.  0.
         25    1    1    2    0    0  0.78727837905E+02  0.50419865630E+02 -0.15106473788E+03  0.21722290473E+03  0.12500000000E+03 0.  0.
         25    1    1    2    0    0 -0.32200898747E+02 -0.67535000661E+02 -0.75092111496E+02  0.16389539165E+03  0.12500000000E+03 0.  0.
</event>
<event>
 5    0  0.5653588E-005  0.3498255E+03  0.7546771E-02  0.1062687E+00
         21   -1    0    0  502  501  0.00000000000E+00  0.00000000000E+00  0.54713813486E+03  0.54713813486E+03  0.00000000000E+00 0.  1.
         21   -1    0    0  501  502 -0.00000000000E+00 -0.00000000000E+00 -0.22366912704E+03  0.22366912704E+03  0.00000000000E+00 0.  1.
         25    1    1    2    0    0 -0.32185884749E+02 -0.16954842967E+03  0.12894827988E+03  0.24906878581E+03  0.12500000000E+03 0.  0.
         25    1    1    2    0    0 -0.16736556218E+03  0.11633018631E+03  0.12860683169E+03  0.27149338999E+03  0.12500000000E+03 0.  0.
         25    1    1    2    0    0  0.19955144692E+03  0.53218243355E+02  0.65913896245E+02  0.25024508609E+03  0.12500000000E+03 0.  0.
</event>
<event>
 5    0  0.5653588E-005  0.2587991E+03  0.7546771E-02  0.1107867E+00
         21   -1    0    0  502  501  0.00000000000E+00  0.00000000000E+00  0.15263700553E+03  0.15263700553E+03  0.00000000000E+00 0.  1.
         21   -1    0    0  501  502 -0.00000000000E+00 -0.00000000000E+00 -0.43879909542E+03  0.43879909542E+03  0.00000000000E+00 0.  1.
         25    1    1    2    0    0 -0.10084372757E+03  0.33326417642E+02 -0.13944594816E+03  0.21529115161E+03  0.12500000000E+03 0.  0.
         25    1    1    2    0    0  0.83906517918E+02  0.30120046532E+02  0.23136149874E+02  0.15526687471E+03  0.12500000000E+03 0.  0.
         25    1    1    2    0    0  0.16937209649E+02 -0.63446464173E+02 -0.16985229161E+03  0.22087807463E+03  0.12500000000E+03 0.  0.
</event>
<event>
 5    0  0.5653588E-005  0.3431027E+03  0.7546771E-02  0.1065482E+00
         21   -1    0    0  502  501  0.00000000000E+00  0.00000000000E+00  0.82518669348E+02  0.82518669348E+02  0.00000000000E+00 0. -1.
         21   -1    0    0  501  502 -0.00000000000E+00 -0.00000000000E+00 -0.14265793943E+04  0.14265793943E+04  0.00000000000E+00 0. -1.
         25    1    1    2    0    0  0.69783055006E+02 -0.69371089985E+02 -0.79144202609E+03  0.80727164174E+03  0.12500000000E+03 0.  0.
         25    1    1    2    0    0  0.53769956038E+02 -0.11180783895E+03 -0.27546331986E+03  0.32695143617E+03  0.12500000000E+03 0.  0.
         25    1    1    2    0    0 -0.12355301104E+03  0.18117892894E+03 -0.27715537902E+03  0.37487498576E+03  0.12500000000E+03 0.  0.
</event>
<event>
 5    0  0.5653588E-005  0.2329754E+03  0.7546771E-02  0.1124563E+00
         21   -1    0    0  502  501  0.00000000000E+00  0.00000000000E+00  0.43937319371E+03  0.43937319371E+03  0.00000000000E+00 0. -1.
         21   -1    0    0  501  502 -0.00000000000E+00 -0.00000000000E+00 -0.12353406543E+03  0.12353406543E+03  0.00000000000E+00 0. -1.
         25    1    1    2    0    0  0.90957009452E+01 -0.10057910515E+03  0.19391515896E+03  0.25184713031E+03  0.12500000000E+03 0.  0.
         25    1    1    2    0    0 -0.15068454114E+02  0.12546607345E+02  0.88610207649E+02  0.15447085345E+03  0.12500000000E+03 0.  0.
         25    1    1    2    0    0  0.59727531693E+01  0.88032497808E+02  0.33313761674E+02  0.15658927539E+03  0.12500000000E+03 0.  0.
</event>
<event>
 5    0  0.5653588E-005  0.3478108E+03  0.7546771E-02  0.1063517E+00
         21   -1    0    0  502  501  0.00000000000E+00  0.00000000000E+00  0.27264333275E+03  0.27264333275E+03  0.00000000000E+00 0. -1.
         21   -1    0    0  501  502 -0.00000000000E+00 -0.00000000000E+00 -0.44370191639E+03  0.44370191639E+03  0.00000000000E+00 0. -1.
         25    1    1    2    0    0 -0.29967832033E+02 -0.20127542714E+03 -0.72979212434E+02  0.24972151284E+03  0.12500000000E+03 0.  0.
         25    1    1    2    0    0  0.88513010280E+02  0.25712384679E+03 -0.23820245591E+02  0.30023262594E+03  0.12500000000E+03 0.  0.
         25    1    1    2    0    0 -0.58545178247E+02 -0.55848419655E+02 -0.74259125611E+02  0.16639111037E+03  0.12500000000E+03 0.  0.
</event>
<event>
 5    0  0.5653588E-005  0.3467295E+03  0.7546771E-02  0.1063965E+00
         21   -1    0    0  502  501  0.00000000000E+00  0.00000000000E+00  0.93518310586E+02  0.93518310586E+02  0.00000000000E+00 0. -1.
         21   -1    0    0  501  502 -0.00000000000E+00 -0.00000000000E+00 -0.12855377768E+04  0.12855377768E+04  0.00000000000E+00 0. -1.
         25    1    1    2    0    0 -0.63038544144E+02  0.10472389076E+03 -0.66729463091E+03  0.68981742206E+03  0.12500000000E+03 0.  0.
         25    1    1    2    0    0 -0.63806186433E+02 -0.25322742630E+02 -0.46338475462E+03  0.48483285938E+03  0.12500000000E+03 0.  0.
         25    1    1    2    0    0  0.12684473058E+03 -0.79401148131E+02 -0.61340080671E+02  0.20440580593E+03  0.12500000000E+03 0.  0.
</event>
<event>
 5    0  0.5653588E-005  0.3265429E+03  0.7546771E-02  0.1072677E+00
         21   -1    0    0  502  501  0.00000000000E+00  0.00000000000E+00  0.11153083696E+03  0.11153083696E+03  0.00000000000E+00 0.  1.
         21   -1    0    0  501  502 -0.00000000000E+00 -0.00000000000E+00 -0.95606054689E+03  0.95606054689E+03  0.00000000000E+00 0.  1.
         25    1    1    2    0    0  0.21948069962E+02  0.16578980637E+03 -0.16909720866E+03  0.26867609430E+03  0.12500000000E+03 0.  0.
         25    1    1    2    0    0 -0.16183719655E+03 -0.73420764846E+02 -0.32915496929E+03  0.39439812462E+03  0.12500000000E+03 0.  0.
         25    1    1    2    0    0  0.13988912659E+03 -0.92369041526E+02 -0.34627753198E+03  0.40451716493E+03  0.12500000000E+03 0.  0.
</event>
<event>
 5    0  0.5653588E-005  0.3484744E+03  0.7546771E-02  0.1063243E+00
         21   -1    0    0  502  501  0.00000000000E+00  0.00000000000E+00  0.57553056358E+02  0.57553056358E+02  0.00000000000E+00 0. -1.
         21   -1    0    0  501  502 -0.00000000000E+00 -0.00000000000E+00 -0.21099564155E+04  0.21099564155E+04  0.00000000000E+00 0. -1.
         25    1    1    2    0    0  0.23324185466E+01  0.16941784495E+03 -0.74863471038E+03  0.77768038161E+03  0.12500000000E+03 0.  0.
         25    1    1    2    0    0 -0.11500375283E+03 -0.21666927209E+03 -0.10203913415E+04  0.10568798070E+04  0.12500000000E+03 0.  0.
         25    1    1    2    0    0  0.11267133428E+03  0.47251427144E+02 -0.28337730722E+03  0.33294928320E+03  0.12500000000E+03 0.  0.
</event>
<event>
 5    0  0.5653588E-005  0.4419534E+03  0.7546771E-02  0.1030149E+00
         21   -1    0    0  502  501  0.00000000000E+00  0.00000000000E+00  0.45497736517E+03  0.45497736517E+03  0.00000000000E+00 0. -1.
         21   -1    0    0  501  502 -0.00000000000E+00 -0.00000000000E+00 -0.42930230207E+03  0.42930230207E+03  0.00000000000E+00 0. -1.
         25    1    1    2    0    0  0.84681119050E+02  0.37687890873E+02 -0.25124411570E+03  0.29553320408E+03  0.12500000000E+03 0.  0.
         25    1    1    2    0    0 -0.13843261803E+03 -0.25231601577E+02  0.37565550200E+03  0.42016934638E+03  0.12500000000E+03 0.  0.
         25    1    1    2    0    0  0.53751498983E+02 -0.12456289295E+02 -0.98736323201E+02  0.16857711679E+03  0.12500000000E+03 0.  0.
</event>
<event>
 5    0  0.5653588E-005  0.2982444E+03  0.7546771E-02  0.1086122E+00
         21   -1    0    0  502  501  0.00000000000E+00  0.00000000000E+00  0.17713002817E+03  0.17713002817E+03  0.00000000000E+00 0. -1.
         21   -1    0    0  501  502 -0.00000000000E+00 -0.00000000000E+00 -0.50217186524E+03  0.50217186524E+03  0.00000000000E+00 0. -1.
         25    1    1    2    0    0 -0.43128144801E+02  0.19798692948E+03 -0.13807560886E+03  0.27522488056E+03  0.12500000000E+03 0.  0.
         25    1    1    2    0    0  0.57940536490E+02 -0.13661487439E+03 -0.34518706722E+02  0.19707174021E+03  0.12500000000E+03 0.  0.
         25    1    1    2    0    0 -0.14812391689E+02 -0.61372055084E+02 -0.15244752149E+03  0.20700527264E+03  0.12500000000E+03 0.  0.
</event>
<event>
 5    0  0.5653588E-005  0.2429703E+03  0.7546771E-02  0.1117830E+00
         21   -1    0    0  502  501  0.00000000000E+00  0.00000000000E+00  0.77239410440E+02  0.77239410440E+02  0.00000000000E+00 0.  1.
         21   -1    0    0  501  502 -0.00000000000E+00 -0.00000000000E+00 -0.76430599930E+03  0.76430599930E+03  0.00000000000E+00 0.  1.
         25    1    1    2    0    0 -0.59935582982E+02 -0.10570660764E+03 -0.35208061899E+03  0.39287647330E+03  0.12500000000E+03 0.  0.
         25    1    1    2    0    0  0.50194251196E+02  0.40188830242E+02 -0.24044676910E+03  0.27852154980E+03  0.12500000000E+03 0.  0.
         25    1    1    2    0    0  0.97413317863E+01  0.65517777396E+02 -0.94539200771E+02  0.17014738665E+03  0.12500000000E+03 0.  0.
</event>
<event>
 5    0  0.5653588E-005  0.3453375E+03  0.7546771E-02  0.1064545E+00
         21   -1    0    0  502  501  0.00000000000E+00  0.00000000000E+00  0.17997076481E+04  0.17997076481E+04  0.00000000000E+00 0.  1.
         21   -1    0    0  501  502 -0.00000000000E+00 -0.00000000000E+00 -0.66265207399E+02  0.66265207399E+02  0.00000000000E+00 0.  1.
         25    1    1    2    0    0 -0.40355876147E+02  0.69583698638E+02  0.64743265897E+02  0.16213321170E+03  0.12500000000E+03 0.  0.
         25    1    1    2    0    0  0.29930322374E+01 -0.12829564991E+03  0.61790499003E+03  0.64335084420E+03  0.12500000000E+03 0.  0.
         25    1    1    2    0    0  0.37362843909E+02  0.58711951277E+02  0.10507941847E+04  0.10604887996E+04  0.12500000000E+03 0.  0.
</event>
<event>
 5    0  0.5653588E-005  0.3387887E+03  0.7546771E-02  0.1067313E+00
         21   -1    0    0  502  501  0.00000000000E+00  0.00000000000E+00  0.75671629666E+03  0.75671629666E+03  0.00000000000E+00 0. -1.
         21   -1    0    0  501  502 -0.00000000000E+00 -0.00000000000E+00 -0.15167876816E+03  0.15167876816E+03  0.00000000000E+00 0. -1.
         25    1    1    2    0    0  0.92826316590E+02  0.22870577102E+03  0.17665753494E+03  0.32826199810E+03  0.12500000000E+03 0.  0.
         25    1    1    2    0    0 -0.11471672242E+03 -0.17572634045E+03  0.21032788764E+03  0.32233909699E+03  0.12500000000E+03 0.  0.
         25    1    1    2    0    0  0.21890405825E+02 -0.52979430566E+02  0.21805210592E+03  0.25779396973E+03  0.12500000000E+03 0.  0.
</event>
<event>
 5    0  0.5653588E-005  0.2863913E+03  0.7546771E-02  0.1092248E+00
         21   -1    0    0  502  501  0.00000000000E+00  0.00000000000E+00  0.29288678361E+03  0.29288678361E+03  0.00000000000E+00 0.  1.
         21   -1    0    0  501  502 -0.00000000000E+00 -0.00000000000E+00 -0.28003990243E+03  0.28003990243E+03  0.00000000000E+00 0.  1.
         25    1    1    2    0    0  0.46886675920E+02 -0.14286950361E+03 -0.66502896246E+02  0.20653738317E+03  0.12500000000E+03 0.  0.
         25    1    1    2    0    0 -0.86844710365E+02 -0.71291488046E+01  0.13842149779E+01  0.15238026294E+03  0.12500000000E+03 0.  0.
         25    1    1    2    0    0  0.39958034445E+02  0.14999865241E+03  0.77965562456E+02  0.21400903993E+03  0.12500000000E+03 0.  0.
</event>
<event>
 5    0  0.5653588E-005  0.5344038E+03  0.7546771E-02  0.1005170E+00
         21   -1    0    0  502  501  0.00000000000E+00  0.00000000000E+00  0.50955076030E+03  0.50955076030E+03  0.00000000000E+00 0.  1.
         21   -1    0    0  501  502 -0.00000000000E+00 -0.00000000000E+00 -0.56046898580E+03  0.56046898580E+03  0.00000000000E+00 0.  1.
         25    1    1    2    0    0  0.80030559079E+02  0.22074247111E+03  0.28002040538E+03  0.38622345393E+03  0.12500000000E+03 0.  0.
         25    1    1    2    0    0  0.25949966064E+02  0.11756527472E+03  0.13328502968E+02  0.17406218300E+03  0.12500000000E+03 0.  0.
         25    1    1    2    0    0 -0.10598052514E+03 -0.33830774584E+03 -0.34426713385E+03  0.50973410917E+03  0.12500000000E+03 0.  0.
</event>
<event>
 5    0  0.5653588E-005  0.5542101E+03  0.7546771E-02  0.1000524E+00
         21   -1    0    0  502  501  0.00000000000E+00  0.00000000000E+00  0.42189641080E+03  0.42189641080E+03  0.00000000000E+00 0.  1.
         21   -1    0    0  501  502 -0.00000000000E+00 -0.00000000000E+00 -0.72801943580E+03  0.72801943580E+03  0.00000000000E+00 0.  1.
         25    1    1    2    0    0  0.17306033193E+03 -0.13926779092E+01 -0.17229682643E+02  0.21418141844E+03  0.12500000000E+03 0.  0.
         25    1    1    2    0    0 -0.11639414296E+03 -0.40709473664E+03 -0.23875898233E+03  0.50190095911E+03  0.12500000000E+03 0.  0.
         25    1    1    2    0    0 -0.56666188978E+02  0.40848741455E+03 -0.50134360021E+02  0.43383346905E+03  0.12500000000E+03 0.  0.
</event>
<event>
 5    0  0.5653588E-005  0.2965907E+03  0.7546771E-02  0.1086957E+00
         21   -1    0    0  502  501  0.00000000000E+00  0.00000000000E+00  0.27136276007E+03  0.27136276007E+03  0.00000000000E+00 0. -1.
         21   -1    0    0  501  502 -0.00000000000E+00 -0.00000000000E+00 -0.32416392929E+03  0.32416392929E+03  0.00000000000E+00 0. -1.
         25    1    1    2    0    0  0.12681453854E+02 -0.58594445904E+02  0.30910896229E+02  0.14203736082E+03  0.12500000000E+03 0.  0.
         25    1    1    2    0    0 -0.88434184920E+02  0.33566799026E+02 -0.20768609728E+03  0.26020347819E+03  0.12500000000E+03 0.  0.
         25    1    1    2    0    0  0.75752731065E+02  0.25027646877E+02  0.12397403184E+03  0.19328585034E+03  0.12500000000E+03 0.  0.
</event>
<event>
 5    0  0.5653588E-005  0.4157160E+03  0.7546771E-02  0.1038470E+00
         21   -1    0    0  502  501  0.00000000000E+00  0.00000000000E+00  0.14840387013E+03  0.14840387013E+03  0.00000000000E+00 0.  1.
         21   -1    0    0  501  502 -0.00000000000E+00 -0.00000000000E+00 -0.11645234409E+04  0.11645234409E+04  0.00000000000E+00 0.  1.
         25    1    1    2    0    0  0.20045437819E+03 -0.41512871561E+01 -0.93362811514E+02  0.25404882502E+03  0.12500000000E+03 0.  0.
         25    1    1    2    0    0  0.73290857108E+02  0.93005762615E+01 -0.60100819266E+03  0.61829919788E+03  0.12500000000E+03 0.  0.
         25    1    1    2    0    0 -0.27374523530E+03 -0.51492891054E+01 -0.32174856665E+03  0.44057928818E+03  0.12500000000E+03 0.  0.
</event>
<event>
 5    0  0.5653588E-005  0.2139242E+03  0.7546771E-02  0.1138496E+00
         21   -1    0    0  502  501  0.00000000000E+00  0.00000000000E+00  0.42143562497E+03  0.42143562497E+03  0.00000000000E+00 0.  1.
         21   -1    0    0  501  502 -0.00000000000E+00 -0.00000000000E+00 -0.10858971500E+03  0.10858971500E+03  0.00000000000E+00 0.  1.
         25    1    1    2    0    0  0.52007820990E+02 -0.69114136745E+02  0.10516917040E+03  0.18484353314E+03  0.12500000000E+03 0.  0.
         25    1    1    2    0    0 -0.60145738969E+02  0.56222423581E+02  0.10782166451E+03  0.18446946134E+03  0.12500000000E+03 0.  0.
         25    1    1    2    0    0  0.81379179794E+01  0.12891713164E+02  0.99855075063E+02  0.16071234549E+03  0.12500000000E+03 0.  0.
</event>
<event>
 5    0  0.5653588E-005  0.2321139E+03  0.7546771E-02  0.1125161E+00
         21   -1    0    0  502  501  0.00000000000E+00  0.00000000000E+00  0.63868321857E+02  0.63868321857E+02  0.00000000000E+00 0.  1.
         21   -1    0    0  501  502 -0.00000000000E+00 -0.00000000000E+00 -0.84356141436E+03  0.84356141436E+03  0.00000000000E+00 0.  1.
         25    1    1    2    0    0 -0.19192407929E+02  0.35301328427E+02 -0.17641702749E+03  0.21991475599E+03  0.12500000000E+03 0.  0.
         25    1    1    2    0    0  0.11447324002E+03 -0.11247726337E+02 -0.28651043373E+03  0.33308236618E+03  0.12500000000E+03 0.  0.
         25    1    1    2    0    0 -0.95280832093E+02 -0.24053602090E+02 -0.31676563128E+03  0.35443261405E+03  0.12500000000E+03 0.  0.
</event>
<event>
 5    0  0.5653588E-005  0.4050659E+03  0.7546771E-02  0.1042040E+00
         21   -1    0    0  502  501  0.00000000000E+00  0.00000000000E+00  0.44538399468E+03  0.44538399468E+03  0.00000000000E+00 0. -1.
         21   -1    0    0  501  502 -0.00000000000E+00 -0.00000000000E+00 -0.36839749819E+03  0.36839749819E+03  0.00000000000E+00 0. -1.
         25    1    1    2    0    0 -0.18053365212E+03  0.13221775499E+03 -0.95978043013E+02  0.27369822619E+03  0.12500000000E+03 0.  0.
         25    1    1    2    0    0  0.23103227551E+02  0.12948988054E+03  0.54507369527E+02  0.18946620178E+03  0.12500000000E+03 0.  0.
         25    1    1    2    0    0  0.15743042457E+03 -0.26170763553E+03  0.11845716998E+03  0.35061706489E+03  0.12500000000E+03 0.  0.
</event>
<event>
 5    0  0.5653588E-005  0.4428199E+03  0.7546771E-02  0.1029885E+00
         21   -1    0    0  502  501  0.00000000000E+00  0.00000000000E+00  0.67937186114E+03  0.67937186114E+03  0.00000000000E+00 0. -1.
         21   -1    0    0  501  502 -0.00000000000E+00 -0.00000000000E+00 -0.28863353268E+03  0.28863353268E+03  0.00000000000E+00 0. -1.
         25    1    1    2    0    0  0.92035896760E+02  0.14354016474E+02  0.15518950433E+03  0.21996687554E+03  0.12500000000E+03 0.  0.
         25    1    1    2    0    0  0.47003464294E+02  0.23951674442E+03 -0.95963666419E+02  0.29053678216E+03  0.12500000000E+03 0.  0.
         25    1    1    2    0    0 -0.13903936105E+03 -0.25387076089E+03  0.33151249055E+03  0.45750173612E+03  0.12500000000E+03 0.  0.
</event>
<event>
 5    0  0.5653588E-005  0.4953200E+03  0.7546771E-02  0.1015008E+00
         21   -1    0    0  502  501  0.00000000000E+00  0.00000000000E+00  0.30812976283E+03  0.30812976283E+03  0.00000000000E+00 0.  1.
         21   -1    0    0  501  502 -0.00000000000E+00 -0.00000000000E+00 -0.79622902129E+03  0.79622902129E+03  0.00000000000E+00 0.  1.
         25    1    1    2    0    0  0.34572988853E+03  0.71334355254E+02  0.19143629508E+01  0.37449487427E+03  0.12500000000E+03 0.  0.
         25    1    1    2    0    0 -0.33226010102E+03  0.56555614463E+02 -0.35659669470E+03  0.50634130281E+03  0.12500000000E+03 0.  0.
         25    1    1    2    0    0 -0.13469787518E+02 -0.12788996972E+03 -0.13341692670E+03  0.22352260705E+03  0.12500000000E+03 0.  0.
</event>
<event>
 5    0  0.5653588E-005  0.3802564E+03  0.7546771E-02  0.1050839E+00
         21   -1    0    0  502  501  0.00000000000E+00  0.00000000000E+00  0.99210277061E+03  0.99210277061E+03  0.00000000000E+00 0.  1.
         21   -1    0    0  501  502 -0.00000000000E+00 -0.00000000000E+00 -0.14574593100E+03  0.14574593100E+03  0.00000000000E+00 0.  1.
         25    1    1    2    0    0 -0.36786459512E+02 -0.23396683649E+02 -0.24876655386E+02  0.13470150850E+03  0.12500000000E+03 0.  0.
         25    1    1    2    0    0  0.74501658160E+02  0.18406068313E+03  0.68718266536E+03  0.72613624598E+03  0.12500000000E+03 0.  0.
         25    1    1    2    0    0 -0.37715198648E+02 -0.16066399948E+03  0.18405082963E+03  0.27701094713E+03  0.12500000000E+03 0.  0.
</event>
<event>
 5    0  0.5653588E-005  0.2027507E+03  0.7546771E-02  0.1147439E+00
         21   -1    0    0  502  501  0.00000000000E+00  0.00000000000E+00  0.24295518649E+02  0.24295518649E+02  0.00000000000E+00 0.  1.
         21   -1    0    0  501  502 -0.00000000000E+00 -0.00000000000E+00 -0.16919926324E+04  0.16919926324E+04  0.00000000000E+00 0.  1.
         25    1    1    2    0    0 -0.14688498835E+02 -0.38560518901E+02 -0.56203660882E+03  0.57724588805E+03  0.12500000000E+03 0.  0.
         25    1    1    2    0    0  0.33365733839E+02  0.32152270181E+02 -0.74476187720E+03  0.75659916363E+03  0.12500000000E+03 0.  0.
         25    1    1    2    0    0 -0.18677235004E+02  0.64082487201E+01 -0.36089862774E+03  0.38244309938E+03  0.12500000000E+03 0.  0.
</event>
<event>
 5    0  0.5653588E-005  0.2535964E+03  0.7546771E-02  0.1111053E+00
         21   -1    0    0  502  501  0.00000000000E+00  0.00000000000E+00  0.63143314849E+02  0.63143314849E+02  0.00000000000E+00 0.  1.
         21   -1    0    0  501  502 -0.00000000000E+00 -0.00000000000E+00 -0.10184949732E+04  0.10184949732E+04  0.00000000000E+00 0.  1.
         25    1    1    2    0    0 -0.13384413498E+03 -0.64913729356E+02 -0.48521475156E+03  0.52267236378E+03  0.12500000000E+03 0.  0.
         25    1    1    2    0    0  0.58719738000E+02 -0.93118975122E+01 -0.22765137645E+03  0.26642985619E+03  0.12500000000E+03 0.  0.
         25    1    1    2    0    0  0.75124396984E+02  0.74225626868E+02 -0.24248553035E+03  0.29253606809E+03  0.12500000000E+03 0.  0.
</event>
<event>
 5    0  0.5653588E-005  0.2574271E+03  0.7546771E-02  0.1108699E+00
         21   -1    0    0  502  501  0.00000000000E+00  0.00000000000E+00  0.24432267982E+03  0.24432267982E+03  0.00000000000E+00 0. -1.
         21   -1    0    0  501  502 -0.00000000000E+00 -0.00000000000E+00 -0.27123436068E+03  0.27123436068E+03  0.00000000000E+00 0. -1.
         25    1    1    2    0    0  0.87628069964E+02 -0.11802403866E+02 -0.12454055610E+03  0.19736596844E+03  0.12500000000E+03 0.  0.
         25    1    1    2    0    0 -0.41241159912E+02 -0.62732539604E+02  0.21058712203E+02  0.14732506289E+03  0.12500000000E+03 0.  0.
         25    1    1    2    0    0 -0.46386910052E+02  0.74534943471E+02  0.76570163041E+02  0.17086600917E+03  0.12500000000E+03 0.  0.
</event>
<event>
 5    0  0.5653588E-005  0.2725340E+03  0.7546771E-02  0.1099838E+00
         21   -1    0    0  502  501  0.00000000000E+00  0.00000000000E+00  0.53330021033E+02  0.53330021033E+02  0.00000000000E+00 0. -1.
         21   -1    0    0  501  502 -0.00000000000E+00 -0.00000000000E+00 -0.13927383162E+04  0.13927383162E+04  0.00000000000E+00 0. -1.
         25    1    1    2    0    0  0.29909288424E+02 -0.49960713634E+02 -0.85273278694E+03  0.86381065307E+03  0.12500000000E+03 0.  0.
         25    1    1    2    0    0 -0.71676671841E+02 -0.50246472669E+02 -0.20557842938E+03  0.25602684220E+03  0.12500000000E+03 0.  0.
         25    1    1    2    0    0  0.41767383417E+02  0.10020718630E+03 -0.28109707882E+03  0.32623084193E+03  0.12500000000E+03 0.  0.
</event>
<event>
 5    0  0.5653588E-005  0.3256094E+03  0.7546771E-02  0.1073096E+00
         21   -1    0    0  502  501  0.00000000000E+00  0.00000000000E+00  0.79675425966E+02  0.79675425966E+02  0.00000000000E+00 0. -1.
         21   -1    0    0  501  502 -0.00000000000E+00 -0.00000000000E+00 -0.13306676680E+04  0.13306676680E+04  0.00000000000E+00 0. -1.
         25    1    1    2    0    0  0.10841921831E+03  0.21613439882E+02 -0.83345369784E+02  0.18652967149E+03  0.12500000000E+03 0.  0.
         25    1    1    2    0    0 -0.10828053336E+03 -0.12139436237E+03 -0.70870625475E+03  0.73780134226E+03  0.12500000000E+03 0.  0.
         25    1    1    2    0    0 -0.13868494711E+00  0.99780922492E+02 -0.45894061755E+03  0.48601208027E+03  0.12500000000E+03 0.  0.
</event>
<event>
 5    0  0.5701061E-005  0.2954896E+03  0.7546771E-02  0.1087517E+00
         21   -1    0    0  502  501  0.00000000000E+00  0.00000000000E+00  0.10790488741E+04  0.10790488741E+04  0.00000000000E+00 0.  1.
         21   -1    0    0  501  502 -0.00000000000E+00 -0.00000000000E+00 -0.80917660360E+02  0.80917660360E+02  0.00000000000E+00 0.  1.
         25    1    1    2    0    0  0.10266636067E+03  0.42804695348E+02  0.51607828015E+03  0.54252595772E+03  0.12500000000E+03 0.  0.
         25    1    1    2    0    0  0.85402278194E+02 -0.47672114927E+02  0.17494276483E+03  0.23621208823E+03  0.12500000000E+03 0.  0.
         25    1    1    2    0    0 -0.18806863886E+03  0.48674195786E+01  0.30711016879E+03  0.38122848853E+03  0.12500000000E+03 0.  0.
</event>
<event>
 5    0  0.5653588E-005  0.2622578E+03  0.7546771E-02  0.1105794E+00
         21   -1    0    0  502  501  0.00000000000E+00  0.00000000000E+00  0.12487324379E+03  0.12487324379E+03  0.00000000000E+00 0. -1.
         21   -1    0    0  501  502 -0.00000000000E+00 -0.00000000000E+00 -0.55079172302E+03  0.55079172302E+03  0.00000000000E+00 0. -1.
         25    1    1    2    0    0  0.76430802680E+02 -0.46493084856E+01 -0.93093777153E+02  0.17365118777E+03  0.12500000000E+03 0.  0.
         25    1    1    2    0    0 -0.13232526236E+03  0.86223873222E+02 -0.11446328716E+03  0.23167083433E+03  0.12500000000E+03 0.  0.
         25    1    1    2    0    0  0.55894459685E+02 -0.81574564736E+02 -0.21836141491E+03  0.27034294471E+03  0.12500000000E+03 0.  0.
</event>
<event>
 5    0  0.5653588E-005  0.2399711E+03  0.7546771E-02  0.1119812E+00
         21   -1    0    0  502  501  0.00000000000E+00  0.00000000000E+00  0.56794945997E+03  0.56794945997E+03  0.00000000000E+00 0. -1.
         21   -1    0    0  501  502 -0.00000000000E+00 -0.00000000000E+00 -0.10139308212E+03  0.10139308212E+03  0.00000000000E+00 0. -1.
         25    1    1    2    0    0 -0.32323902643E+02  0.43489928136E+02  0.15836996499E+03  0.20890728648E+03  0.12500000000E+03 0.  0.
         25    1    1    2    0    0  0.36562926078E+02 -0.43105771980E+02  0.10553806881E+02  0.13759119878E+03  0.12500000000E+03 0.  0.
         25    1    1    2    0    0 -0.42390234352E+01 -0.38415615582E+00  0.29763260598E+03  0.32284405684E+03  0.12500000000E+03 0.  0.
</event>
<event>
 5    0  0.5653588E-005  0.3103483E+03  0.7546771E-02  0.1080179E+00
         21   -1    0    0  502  501  0.00000000000E+00  0.00000000000E+00  0.84354237903E+03  0.84354237903E+03  0.00000000000E+00 0.  1.
         21   -1    0    0  501  502 -0.00000000000E+00 -0.00000000000E+00 -0.11418048414E+03  0.11418048414E+03  0.00000000000E+00 0.  1.
         25    1    1    2    0    0  0.19664148758E+03 -0.45246431722E+02  0.31173787146E+03  0.39181706793E+03  0.12500000000E+03 0.  0.
         25    1    1    2    0    0 -0.17987379505E+03 -0.26789045094E+02  0.32771398958E+03  0.39508694493E+03  0.12500000000E+03 0.  0.
         25    1    1    2    0    0 -0.16767692529E+02  0.72035476816E+02  0.89910033855E+02  0.17081885031E+03  0.12500000000E+03 0.  0.
</event>
<event>
 5    0  0.5653588E-005  0.2379681E+03  0.7546771E-02  0.1121154E+00
         21   -1    0    0  502  501  0.00000000000E+00  0.00000000000E+00  0.90846399330E+02  0.90846399330E+02  0.00000000000E+00 0.  1.
         21   -1    0    0  501  502 -0.00000000000E+00 -0.00000000000E+00 -0.62334710563E+03  0.62334710563E+03  0.00000000000E+00 0.  1.
         25    1    1    2    0    0 -0.32233985999E+02  0.27815296712E+02 -0.70335123720E+02  0.14961534084E+03  0.12500000000E+03 0.  0.
         25    1    1    2    0    0 -0.32927614239E+02  0.42793730985E+02 -0.33636227022E+03  0.36287753860E+03  0.12500000000E+03 0.  0.
         25    1    1    2    0    0  0.65161600238E+02 -0.70609027696E+02 -0.12580331236E+03  0.20170062553E+03  0.12500000000E+03 0.  0.
</event>
<event>
 5    0  0.6331628E-005  0.2841587E+03  0.7546771E-02  0.1093439E+00
         21   -1    0    0  502  501  0.00000000000E+00  0.00000000000E+00  0.28438401520E+03  0.28438401520E+03  0.00000000000E+00 0.  1.
         21   -1    0    0  501  502 -0.00000000000E+00 -0.00000000000E+00 -0.28393355557E+03  0.28393355557E+03  0.00000000000E+00 0.  1.
         25    1    1    2    0    0 -0.10302789352E+02  0.17957924343E+03  0.30444709701E+02  0.22114866603E+03  0.12500000000E+03 0.  0.
         25    1    1    2    0    0  0.73518164811E+02 -0.10681362715E+03 -0.52784709290E+02  0.18768403511E+03  0.12500000000E+03 0.  0.
         25    1    1    2    0    0 -0.63215375458E+02 -0.72765616279E+02  0.22790459218E+02  0.15948486962E+03  0.12500000000E+03 0.  0.
</event>
<event>
 5    0  0.5653588E-005  0.5197392E+03  0.7546771E-02  0.1008751E+00
         21   -1    0    0  502  501  0.00000000000E+00  0.00000000000E+00  0.25966185648E+04  0.25966185648E+04  0.00000000000E+00 0. -1.
         21   -1    0    0  501  502 -0.00000000000E+00 -0.00000000000E+00 -0.10403099006E+03  0.10403099006E+03  0.00000000000E+00 0. -1.
         25    1    1    2    0    0  0.13628193684E+03 -0.17653012425E+02  0.55822344397E+03  0.58832202794E+03  0.12500000000E+03 0.  0.
         25    1    1    2    0    0 -0.25938290917E+03  0.19186145822E+03  0.17959586381E+04  0.18289840739E+04  0.12500000000E+03 0.  0.
         25    1    1    2    0    0  0.12310097232E+03 -0.17420844579E+03  0.13840549263E+03  0.28334345301E+03  0.12500000000E+03 0.  0.
</event>
<event>
 5    0  0.5653588E-005  0.2597012E+03  0.7546771E-02  0.1107323E+00
         21   -1    0    0  502  501  0.00000000000E+00  0.00000000000E+00  0.18666481597E+03  0.18666481597E+03  0.00000000000E+00 0.  1.
         21   -1    0    0  501  502 -0.00000000000E+00 -0.00000000000E+00 -0.36131449635E+03  0.36131449635E+03  0.00000000000E+00 0.  1.
         25    1    1    2    0    0  0.55816847672E+02  0.95075559939E+02 -0.36123114396E+02  0.17054255180E+03  0.12500000000E+03 0.  0.
         25    1    1    2    0    0  0.74818942828E+02 -0.14512094227E+02 -0.95726311970E+02  0.17491998710E+03  0.12500000000E+03 0.  0.
         25    1    1    2    0    0 -0.13063579050E+03 -0.80563465712E+02 -0.42800254015E+02  0.20251677341E+03  0.12500000000E+03 0.  0.
</event>
<event>
 5    0  0.5653588E-005  0.2859640E+03  0.7546771E-02  0.1092475E+00
         21   -1    0    0  502  501  0.00000000000E+00  0.00000000000E+00  0.19747849176E+03  0.19747849176E+03  0.00000000000E+00 0.  1.
         21   -1    0    0  501  502 -0.00000000000E+00 -0.00000000000E+00 -0.41409794236E+03  0.41409794236E+03  0.00000000000E+00 0.  1.
         25    1    1    2    0    0 -0.10920638750E+03 -0.93085740517E+01 -0.27984484297E+03  0.32550087674E+03  0.12500000000E+03 0.  0.
         25    1    1    2    0    0  0.58537425489E+02 -0.99961177890E+01  0.66666856157E+01  0.13854962018E+03  0.12500000000E+03 0.  0.
         25    1    1    2    0    0  0.50668962011E+02  0.19304691841E+02  0.56558706751E+02  0.14752593720E+03  0.12500000000E+03 0.  0.
</event>
<event>
 5    0  0.6324748E-005  0.4012201E+03  0.7546771E-02  0.1043358E+00
         21   -1    0    0  502  501  0.00000000000E+00  0.00000000000E+00  0.30588637998E+03  0.30588637998E+03  0.00000000000E+00 0. -1.
         21   -1    0    0  501  502 -0.00000000000E+00 -0.00000000000E+00 -0.52626583051E+03  0.52626583051E+03  0.00000000000E+00 0. -1.
         25    1    1    2    0    0 -0.12213887836E+03 -0.51217200058E+02  0.11075495624E+03  0.21314963646E+03  0.12500000000E+03 0.  0.
         25    1    1    2    0    0  0.56347266586E+02 -0.19140087916E+03 -0.20096297027E+03  0.30954874643E+03  0.12500000000E+03 0.  0.
         25    1    1    2    0    0  0.65791611779E+02  0.24261807922E+03 -0.13017143650E+03  0.30945382761E+03  0.12500000000E+03 0.  0.
</event>
<event>
 5    0  0.5653588E-005  0.2957522E+03  0.7546771E-02  0.1087384E+00
         21   -1    0    0  502  501  0.00000000000E+00  0.00000000000E+00  0.12747465172E+03  0.12747465172E+03  0.00000000000E+00 0.  1.
         21   -1    0    0  501  502 -0.00000000000E+00 -0.00000000000E+00 -0.68617069138E+03  0.68617069138E+03  0.00000000000E+00 0.  1.
         25    1    1    2    0    0 -0.13934294779E+02 -0.95094959777E+02 -0.44018375671E+03  0.46757240681E+03  0.12500000000E+03 0.  0.
         25    1    1    2    0    0 -0.81183643673E+02  0.60639387562E+02 -0.84328273905E+02  0.18167051798E+03  0.12500000000E+03 0.  0.
         25    1    1    2    0    0  0.95117938453E+02  0.34455572215E+02 -0.34184009046E+02  0.16440241831E+03  0.12500000000E+03 0.  0.
</event>
<event>
 5    0  0.6028794E-005  0.3074284E+03  0.7546771E-02  0.1081585E+00
         21   -1    0    0  502  501  0.00000000000E+00  0.00000000000E+00  0.15705834696E+03  0.15705834696E+03  0.00000000000E+00 0.  1.
         21   -1    0    0  501  502 -0.00000000000E+00 -0.00000000000E+00 -0.60176495570E+03  0.60176495570E+03  0.00000000000E+00 0.  1.
         25    1    1    2    0    0  0.11550040422E+03 -0.10733296489E+03 -0.11043231962E+03  0.22952343223E+03  0.12500000000E+03 0.  0.
         25    1    1    2    0    0 -0.37901559151E+01 -0.84379534906E+02 -0.86090905652E+02  0.17369776979E+03  0.12500000000E+03 0.  0.
         25    1    1    2    0    0 -0.11171024831E+03  0.19171249979E+03 -0.24818338347E+03  0.35560210064E+03  0.12500000000E+03 0.  0.
</event>
<event>
 5    0  0.5653588E-005  0.2535550E+03  0.7546771E-02  0.1111079E+00
         21   -1    0    0  502  501  0.00000000000E+00  0.00000000000E+00  0.12459070815E+03  0.12459070815E+03  0.00000000000E+00 0. -1.
         21   -1    0    0  501  502 -0.00000000000E+00 -0.00000000000E+00 -0.51601081159E+03  0.51601081159E+03  0.00000000000E+00 0. -1.
         25    1    1    2    0    0 -0.33070889981E+02 -0.50799984407E+02 -0.24657859796E+03  0.28302001193E+03  0.12500000000E+03 0.  0.
         25    1    1    2    0    0  0.59303212413E+02 -0.20992582146E+02  0.15010698928E+02  0.14074047247E+03  0.12500000000E+03 0.  0.
         25    1    1    2    0    0 -0.26232322432E+02  0.71792566554E+02 -0.15985220441E+03  0.21684103534E+03  0.12500000000E+03 0.  0.
</event>
<event>
 5    0  0.5653588E-005  0.3212713E+03  0.7546771E-02  0.1075066E+00
         21   -1    0    0  502  501  0.00000000000E+00  0.00000000000E+00  0.56364191294E+03  0.56364191294E+03  0.00000000000E+00 0. -1.
         21   -1    0    0  501  502 -0.00000000000E+00 -0.00000000000E+00 -0.18312207950E+03  0.18312207950E+03  0.00000000000E+00 0. -1.
         25    1    1    2    0    0 -0.22926389773E+03  0.40385457213E+02  0.22756064771E+03  0.34871445101E+03  0.12500000000E+03 0.  0.
         25    1    1    2    0    0  0.99707562031E+02 -0.78523145658E+02  0.41507056697E+02  0.18290794976E+03  0.12500000000E+03 0.  0.
         25    1    1    2    0    0  0.12955633570E+03  0.38137688446E+02  0.11145212903E+03  0.21514159167E+03  0.12500000000E+03 0.  0.
</event>
<event>
 5    0  0.7160541E-005  0.2693709E+03  0.7546771E-02  0.1101640E+00
         21   -1    0    0  502  501  0.00000000000E+00  0.00000000000E+00  0.79705156227E+03  0.79705156227E+03  0.00000000000E+00 0.  1.
         21   -1    0    0  501  502 -0.00000000000E+00 -0.00000000000E+00 -0.91036364398E+02  0.91036364398E+02  0.00000000000E+00 0.  1.
         25    1    1    2    0    0 -0.37141796159E+02  0.51344511102E+02  0.90848942343E+02  0.16701587400E+03  0.12500000000E+03 0.  0.
         25    1    1    2    0    0  0.12030584270E+02 -0.14633274155E+03  0.46058288960E+03  0.49931914083E+03  0.12500000000E+03 0.  0.
         25    1    1    2    0    0  0.25111211890E+02  0.94988230450E+02  0.15458336593E+03  0.22175291184E+03  0.12500000000E+03 0.  0.
</event>
<event>
 5    0  0.5653588E-005  0.5128183E+03  0.7546771E-02  0.1010486E+00
         21   -1    0    0  502  501  0.00000000000E+00  0.00000000000E+00  0.11598910874E+04  0.11598910874E+04  0.00000000000E+00 0. -1.
         21   -1    0    0  501  502 -0.00000000000E+00 -0.00000000000E+00 -0.22673043379E+03  0.22673043379E+03  0.00000000000E+00 0. -1.
         25    1    1    2    0    0 -0.73367993869E+02 -0.20870503662E+03 -0.86701790410E+02  0.26848250463E+03  0.12500000000E+03 0.  0.
         25    1    1    2    0    0  0.68723863616E+02  0.27245237880E+03  0.58108255064E+03  0.65744596645E+03  0.12500000000E+03 0.  0.
         25    1    1    2    0    0  0.46441302527E+01 -0.63747342185E+02  0.43877989334E+03  0.46069305007E+03  0.12500000000E+03 0.  0.
</event>
<event>
 5    0  0.5653588E-005  0.2479281E+03  0.7546771E-02  0.1114621E+00
         21   -1    0    0  502  501  0.00000000000E+00  0.00000000000E+00  0.51092761554E+03  0.51092761554E+03  0.00000000000E+00 0. -1.
         21   -1    0    0  501  502 -0.00000000000E+00 -0.00000000000E+00 -0.12030738739E+03  0.12030738739E+03  0.00000000000E+00 0. -1.
         25    1    1    2    0    0  0.60921443488E+02  0.25132712259E+02  0.22398858586E+02  0.14307265416E+03  0.12500000000E+03 0.  0.
         25    1    1    2    0    0 -0.12217398496E+03  0.12346742036E+02  0.18170333722E+03  0.25242826188E+03  0.12500000000E+03 0.  0.
         25    1    1    2    0    0  0.61252541475E+02 -0.37479454294E+02  0.18651803234E+03  0.23573408689E+03  0.12500000000E+03 0.  0.
</event>
<event>
 5    0  0.5653588E-005  0.2809774E+03  0.7546771E-02  0.1095156E+00
         21   -1    0    0  502  501  0.00000000000E+00  0.00000000000E+00  0.55880234888E+03  0.55880234888E+03  0.00000000000E+00 0. -1.
         21   -1    0    0  501  502 -0.00000000000E+00 -0.00000000000E+00 -0.14128127200E+03  0.14128127200E+03  0.00000000000E+00 0. -1.
         25    1    1    2    0    0 -0.83116295112E+02 -0.13139985305E+03  0.84273790315E+02  0.21656710653E+03  0.12500000000E+03 0.  0.
         25    1    1    2    0    0  0.57480269631E+02  0.93113146190E+02  0.54960010034E+02  0.17498469103E+03  0.12500000000E+03 0.  0.
         25    1    1    2    0    0  0.25636025481E+02  0.38286706861E+02  0.27828727653E+03  0.30853182333E+03  0.12500000000E+03 0.  0.
</event>
<event>
 5    0  0.5653588E-005  0.4097117E+03  0.7546771E-02  0.1040468E+00
         21   -1    0    0  502  501  0.00000000000E+00  0.00000000000E+00  0.59903833302E+03  0.59903833302E+03  0.00000000000E+00 0.  1.
         21   -1    0    0  501  502 -0.00000000000E+00 -0.00000000000E+00 -0.28022195341E+03  0.28022195341E+03  0.00000000000E+00 0.  1.
         25    1    1    2    0    0 -0.28164560701E+03 -0.60094846765E+02  0.11474126803E+03  0.33425468904E+03  0.12500000000E+03 0.  0.
         25    1    1    2    0    0  0.68457851776E+02 -0.30712968522E+02 -0.72780018933E+02  0.16294690872E+03  0.12500000000E+03 0.  0.
         25    1    1    2    0    0  0.21318775524E+03  0.90807815287E+02  0.27685513051E+03  0.38205868867E+03  0.12500000000E+03 0.  0.
</event>
<event>
 5    0  0.5653588E-005  0.4368139E+03  0.7546771E-02  0.1031729E+00
         21   -1    0    0  502  501  0.00000000000E+00  0.00000000000E+00  0.45574902794E+03  0.45574902794E+03  0.00000000000E+00 0. -1.
         21   -1    0    0  501  502 -0.00000000000E+00 -0.00000000000E+00 -0.41866540012E+03  0.41866540012E+03  0.00000000000E+00 0. -1.
         25    1    1    2    0    0 -0.20250736619E+03 -0.17910485399E+03 -0.72161679482E+02  0.30646384790E+03  0.12500000000E+03 0.  0.
         25    1    1    2    0    0  0.28127599031E+03  0.15289253375E+03  0.19497111853E+03  0.39513421348E+03  0.12500000000E+03 0.  0.
         25    1    1    2    0    0 -0.78768624120E+02  0.26212320240E+02 -0.85725811227E+02  0.17281636667E+03  0.12500000000E+03 0.  0.
</event>
<event>
 5    0  0.5671414E-005  0.3077854E+03  0.7546771E-02  0.1081412E+00
         21   -1    0    0  502  501  0.00000000000E+00  0.00000000000E+00  0.11256121487E+03  0.11256121487E+03  0.00000000000E+00 0.  1.
         21   -1    0    0  501  502 -0.00000000000E+00 -0.00000000000E+00 -0.84160296143E+03  0.84160296143E+03  0.00000000000E+00 0.  1.
         25    1    1    2    0    0 -0.97452714718E+01  0.22324008362E+03 -0.29935838681E+03  0.39391820091E+03  0.12500000000E+03 0.  0.
         25    1    1    2    0    0  0.37870257112E+02 -0.10205450938E+03 -0.29486451552E+03  0.33825931144E+03  0.12500000000E+03 0.  0.
         25    1    1    2    0    0 -0.28124985640E+02 -0.12118557423E+03 -0.13481884422E+03  0.22198666396E+03  0.12500000000E+03 0.  0.
</event>
<event>
 5    0  0.5653588E-005  0.5442440E+03  0.7546771E-02  0.1002835E+00
         21   -1    0    0  502  501  0.00000000000E+00  0.00000000000E+00  0.86704364636E+03  0.86704364636E+03  0.00000000000E+00 0. -1.
         21   -1    0    0  501  502 -0.00000000000E+00 -0.00000000000E+00 -0.34162235255E+03  0.34162235255E+03  0.00000000000E+00 0. -1.
         25    1    1    2    0    0 -0.34588163282E+03  0.67243928985E+01  0.33188450197E+03  0.49543076613E+03  0.12500000000E+03 0.  0.
         25    1    1    2    0    0  0.34825821167E+03 -0.21004803635E+03  0.35460877805E+02  0.42695015333E+03  0.12500000000E+03 0.  0.
         25    1    1    2    0    0 -0.23765788454E+01  0.20332364345E+03  0.15807591404E+03  0.28628507945E+03  0.12500000000E+03 0.  0.
</event>
<event>
 5    0  0.5653588E-005  0.2704626E+03  0.7546771E-02  0.1101015E+00
         21   -1    0    0  502  501  0.00000000000E+00  0.00000000000E+00  0.12845184656E+04  0.12845184656E+04  0.00000000000E+00 0. -1.
         21   -1    0    0  501  502 -0.00000000000E+00 -0.00000000000E+00 -0.56947435361E+02  0.56947435361E+02  0.00000000000E+00 0. -1.
         25    1    1    2    0    0 -0.51783320215E+01 -0.16328165147E+02  0.58698563778E+03  0.60039200783E+03  0.12500000000E+03 0.  0.
         25    1    1    2    0    0  0.45874777574E+02  0.13892358493E+03  0.31336013245E+03  0.36772792969E+03  0.12500000000E+03 0.  0.
         25    1    1    2    0    0 -0.40696445552E+02 -0.12259541978E+03  0.32722526002E+03  0.37334596345E+03  0.12500000000E+03 0.  0.
</event>
<event>
 5    0  0.5653588E-005  0.4095707E+03  0.7546771E-02  0.1040515E+00
         21   -1    0    0  502  501  0.00000000000E+00  0.00000000000E+00  0.19709705835E+03  0.19709705835E+03  0.00000000000E+00 0.  1.
         21   -1    0    0  501  502 -0.00000000000E+00 -0.00000000000E+00 -0.85109435005E+03  0.85109435005E+03  0.00000000000E+00 0.  1.
         25    1    1    2    0    0 -0.85844176336E+02 -0.31876907743E+03 -0.44024867696E+03  0.56429322600E+03  0.12500000000E+03 0.  0.
         25    1    1    2    0    0 -0.59241211767E+00  0.16424446212E+03 -0.50306225024E+02  0.21244366445E+03  0.12500000000E+03 0.  0.
         25    1    1    2    0    0  0.86436588453E+02  0.15452461531E+03 -0.16344238971E+03  0.27145451795E+03  0.12500000000E+03 0.  0.
</event>
<event>
 5    0  0.5653588E-005  0.3019880E+03  0.7546771E-02  0.1084251E+00
         21   -1    0    0  502  501  0.00000000000E+00  0.00000000000E+00  0.30597143353E+02  0.30597143353E+02  0.00000000000E+00 0. -1.
         21   -1    0    0  501  502 -0.00000000000E+00 -0.00000000000E+00 -0.29805640988E+04  0.29805640988E+04  0.00000000000E+00 0. -1.
         25    1    1    2    0    0 -0.12878175504E+03  0.16943005085E+03 -0.11668089444E+04  0.11926270982E+04  0.12500000000E+03 0.  0.
         25    1    1    2    0    0  0.10715505128E+03 -0.15792309435E+03 -0.10641016538E+04  0.10882827015E+04  0.12500000000E+03 0.  0.
         25    1    1    2    0    0  0.21626703756E+02 -0.11506956498E+02 -0.71905635718E+03  0.73025144242E+03  0.12500000000E+03 0.  0.
</event>
<event>
 5    0  0.5653588E-005  0.2645588E+03  0.7546771E-02  0.1104435E+00
         21   -1    0    0  502  501  0.00000000000E+00  0.00000000000E+00  0.21713180015E+03  0.21713180015E+03  0.00000000000E+00 0. -1.
         21   -1    0    0  501  502 -0.00000000000E+00 -0.00000000000E+00 -0.32234508960E+03  0.32234508960E+03  0.00000000000E+00 0. -1.
         25    1    1    2    0    0 -0.27710873385E+02  0.52826865456E+02 -0.14719933632E+03  0.20211683460E+03  0.12500000000E+03 0.  0.
         25    1    1    2    0    0  0.31768132439E+02  0.58281560012E+02  0.84386368177E+02  0.16477868069E+03  0.12500000000E+03 0.  0.
         25    1    1    2    0    0 -0.40572590532E+01 -0.11110842547E+03 -0.42400321316E+02  0.17258137445E+03  0.12500000000E+03 0.  0.
</event>
<event>
 5    0  0.5653588E-005  0.5676778E+03  0.7546771E-02  0.9974830E-01
         21   -1    0    0  502  501  0.00000000000E+00  0.00000000000E+00  0.58817919263E+03  0.58817919263E+03  0.00000000000E+00 0.  1.
         21   -1    0    0  501  502 -0.00000000000E+00 -0.00000000000E+00 -0.54789104161E+03  0.54789104161E+03  0.00000000000E+00 0.  1.
         25    1    1    2    0    0  0.19198071336E+02 -0.47336855864E+03  0.18620666089E+03  0.52416054679E+03  0.12500000000E+03 0.  0.
         25    1    1    2    0    0 -0.27157343742E+01  0.34701840470E+02  0.85911676589E+01  0.13003999810E+03  0.12500000000E+03 0.  0.
         25    1    1    2    0    0 -0.16482336962E+02  0.43866671817E+03 -0.15450967754E+03  0.48186968935E+03  0.12500000000E+03 0.  0.
</event>
<event>
 5    0  0.5653588E-005  0.2734396E+03  0.7546771E-02  0.1099327E+00
         21   -1    0    0  502  501  0.00000000000E+00  0.00000000000E+00  0.67486475784E+03  0.67486475784E+03  0.00000000000E+00 0.  1.
         21   -1    0    0  501  502 -0.00000000000E+00 -0.00000000000E+00 -0.11079139512E+03  0.11079139512E+03  0.00000000000E+00 0.  1.
         25    1    1    2    0    0 -0.53305312124E+02 -0.14706629654E+03  0.32823000013E+03  0.38448652104E+03  0.12500000000E+03 0.  0.
         25    1    1    2    0    0  0.48455398851E+02  0.14556340074E+03  0.12530866726E+03  0.23423042373E+03  0.12500000000E+03 0.  0.
         25    1    1    2    0    0  0.48499132729E+01  0.15028958010E+01  0.11053469534E+03  0.16693920818E+03  0.12500000000E+03 0.  0.
</event>
<event>
 5    0  0.5653588E-005  0.2576216E+03  0.7546771E-02  0.1108581E+00
         21   -1    0    0  502  501  0.00000000000E+00  0.00000000000E+00  0.15941382423E+03  0.15941382423E+03  0.00000000000E+00 0. -1.
         21   -1    0    0  501  502 -0.00000000000E+00 -0.00000000000E+00 -0.41633097422E+03  0.41633097422E+03  0.00000000000E+00 0. -1.
         25    1    1    2    0    0  0.56268864749E+02 -0.11591267570E+03  0.11090666994E+02  0.17986088074E+03  0.12500000000E+03 0.  0.
         25    1    1    2    0    0  0.72417012235E+00  0.27590658049E+02 -0.12087383175E+03  0.17606036475E+03  0.12500000000E+03 0.  0.
         25    1    1    2    0    0 -0.56993034872E+02  0.88322017650E+02 -0.14713398523E+03  0.21982355296E+03  0.12500000000E+03 0.  0.
</event>
<event>
 5    0  0.5653588E-005  0.3465786E+03  0.7546771E-02  0.1064028E+00
         21   -1    0    0  502  501  0.00000000000E+00  0.00000000000E+00  0.13921774365E+04  0.13921774365E+04  0.00000000000E+00 0.  1.
         21   -1    0    0  501  502 -0.00000000000E+00 -0.00000000000E+00 -0.86279759616E+02  0.86279759616E+02  0.00000000000E+00 0.  1.
         25    1    1    2    0    0 -0.29282217302E+02 -0.17004287644E+03  0.15033703957E+03  0.26076474751E+03  0.12500000000E+03 0.  0.
         25    1    1    2    0    0 -0.14555585437E+02  0.16111077767E+03  0.38630678522E+03  0.43706576171E+03  0.12500000000E+03 0.  0.
         25    1    1    2    0    0  0.43837802739E+02  0.89320987735E+01  0.76925385209E+03  0.78062668689E+03  0.12500000000E+03 0.  0.
</event>
<event>
 5    0  0.6595572E-005  0.3371289E+03  0.7546771E-02  0.1068025E+00
         21   -1    0    0  502  501  0.00000000000E+00  0.00000000000E+00  0.26833123011E+03  0.26833123011E+03  0.00000000000E+00 0.  1.
         21   -1    0    0  501  502 -0.00000000000E+00 -0.00000000000E+00 -0.42356568083E+03  0.42356568083E+03  0.00000000000E+00 0.  1.
         25    1    1    2    0    0  0.14363290957E+03 -0.96055855749E+02 -0.18790150876E+03  0.28423426452E+03  0.12500000000E+03 0.  0.
         25    1    1    2    0    0 -0.14497359498E+03 -0.54508537666E+02 -0.31941944027E+02  0.20157830168E+03  0.12500000000E+03 0.  0.
         25    1    1    2    0    0  0.13406854098E+01  0.15056439342E+03  0.64609002066E+02  0.20608434475E+03  0.12500000000E+03 0.  0.
</event>
<event>
 5    0  0.5653588E-005  0.4196609E+03  0.7546771E-02  0.1037177E+00
         21   -1    0    0  502  501  0.00000000000E+00  0.00000000000E+00  0.73241384631E+02  0.73241384631E+02  0.00000000000E+00 0.  1.
         21   -1    0    0  501  502 -0.00000000000E+00 -0.00000000000E+00 -0.24045867575E+04  0.24045867575E+04  0.00000000000E+00 0.  1.
         25    1    1    2    0    0 -0.13763913544E+03 -0.90661252015E+02 -0.75413018215E+03  0.78198550233E+03  0.12500000000E+03 0.  0.
         25    1    1    2    0    0  0.15044856950E+03 -0.17689830593E+02 -0.12201677556E+03  0.23121590709E+03  0.12500000000E+03 0.  0.
         25    1    1    2    0    0 -0.12809434059E+02  0.10835108261E+03 -0.14551984152E+04  0.14646267327E+04  0.12500000000E+03 0.  0.
</event>
<event>
 5    0  0.5680488E-005  0.2960522E+03  0.7546771E-02  0.1087231E+00
         21   -1    0    0  502  501  0.00000000000E+00  0.00000000000E+00  0.21853277243E+03  0.21853277243E+03  0.00000000000E+00 0.  1.
         21   -1    0    0  501  502 -0.00000000000E+00 -0.00000000000E+00 -0.40106979756E+03  0.40106979756E+03  0.00000000000E+00 0.  1.
         25    1    1    2    0    0 -0.94752329347E+02  0.98191685366E+02 -0.92544176598E+02  0.20690344515E+03  0.12500000000E+03 0.  0.
         25    1    1    2    0    0 -0.45528397168E+02 -0.52659236366E+02  0.72275130301E+02  0.16029511715E+03  0.12500000000E+03 0.  0.
         25    1    1    2    0    0  0.14028072652E+03 -0.45532449000E+02 -0.16226797884E+03  0.25240400769E+03  0.12500000000E+03 0.  0.
</event>
<event>
 5    0  0.5653588E-005  0.2756601E+03  0.7546771E-02  0.1098083E+00
         21   -1    0    0  502  501  0.00000000000E+00  0.00000000000E+00  0.91270331921E+03  0.91270331921E+03  0.00000000000E+00 0.  1.
         21   -1    0    0  501  502 -0.00000000000E+00 -0.00000000000E+00 -0.83256481043E+02  0.83256481043E+02  0.00000000000E+00 0.  1.
         25    1    1    2    0    0 -0.16144221813E+03 -0.29440029204E+02  0.49604632984E+03  0.53723111085E+03  0.12500000000E+03 0.  0.
         25    1    1    2    0    0  0.30757055753E+02  0.36245643222E+02  0.13063662520E+03  0.18695098548E+03  0.12500000000E+03 0.  0.
         25    1    1    2    0    0  0.13068516237E+03 -0.68056140178E+01  0.20276388313E+03  0.27177770392E+03  0.12500000000E+03 0.  0.
</event>
<event>
 5    0  0.5653588E-005  0.3742308E+03  0.7546771E-02  0.1053087E+00
         21   -1    0    0  502  501  0.00000000000E+00  0.00000000000E+00  0.13372356282E+04  0.13372356282E+04  0.00000000000E+00 0.  1.
         21   -1    0    0  501  502 -0.00000000000E+00 -0.00000000000E+00 -0.10472998009E+03  0.10472998009E+03  0.00000000000E+00 0.  1.
         25    1    1    2    0    0  0.23434580651E+03  0.11903812318E+03  0.31297701781E+03  0.42739635641E+03  0.12500000000E+03 0.  0.
         25    1    1    2    0    0 -0.18873163473E+03  0.92086047996E+01  0.64499719910E+03  0.68363061312E+03  0.12500000000E+03 0.  0.
         25    1    1    2    0    0 -0.45614171771E+02 -0.12824672798E+03  0.27453143117E+03  0.33093863873E+03  0.12500000000E+03 0.  0.
</event>
<event>
 5    0  0.5653588E-005  0.3216095E+03  0.7546771E-02  0.1074911E+00
         21   -1    0    0  502  501  0.00000000000E+00  0.00000000000E+00  0.66743279262E+02  0.66743279262E+02  0.00000000000E+00 0.  1.
         21   -1    0    0  501  502 -0.00000000000E+00 -0.00000000000E+00 -0.15497087484E+04  0.15497087484E+04  0.00000000000E+00 0.  1.
         25    1    1    2    0    0 -0.16328818143E+03  0.13628766222E+02 -0.34410988612E+03  0.40110520713E+03  0.12500000000E+03 0.  0.
         25    1    1    2    0    0  0.18114329097E+03  0.51382266022E+02 -0.37061744921E+03  0.43409137607E+03  0.12500000000E+03 0.  0.
         25    1    1    2    0    0 -0.17855109535E+02 -0.65011032244E+02 -0.76823813385E+03  0.78125544449E+03  0.12500000000E+03 0.  0.
</event>
<event>
 5    0  0.5653588E-005  0.2240446E+03  0.7546771E-02  0.1130903E+00
         21   -1    0    0  502  501  0.00000000000E+00  0.00000000000E+00  0.31043364959E+03  0.31043364959E+03  0.00000000000E+00 0. -1.
         21   -1    0    0  501  502 -0.00000000000E+00 -0.00000000000E+00 -0.16169636423E+03  0.16169636423E+03  0.00000000000E+00 0. -1.
         25    1    1    2    0    0 -0.76715568370E+02  0.21281235805E+02  0.12827588861E+03  0.19600477807E+03  0.12500000000E+03 0.  0.
         25    1    1    2    0    0  0.18173233042E+02 -0.14951377077E+01  0.45860851637E+02  0.13439017653E+03  0.12500000000E+03 0.  0.
         25    1    1    2    0    0  0.58542335329E+02 -0.19786098098E+02 -0.25399454877E+02  0.14173505922E+03  0.12500000000E+03 0.  0.
</event>
<event>
 5    0  0.5653588E-005  0.3044190E+03  0.7546771E-02  0.1083052E+00
         21   -1    0    0  502  501  0.00000000000E+00  0.00000000000E+00  0.27635538517E+04  0.27635538517E+04  0.00000000000E+00 0.  1.
         21   -1    0    0  501  502 -0.00000000000E+00 -0.00000000000E+00 -0.33533239739E+02  0.33533239739E+02  0.00000000000E+00 0.  1.
         25    1    1    2    0    0 -0.88581384541E+02 -0.10448203466E+03  0.53212900491E+03  0.56351524834E+03  0.12500000000E+03 0.  0.
         25    1    1    2    0    0  0.17223089187E+03  0.11265199337E+03  0.15358653063E+04  0.15546257398E+04  0.12500000000E+03 0.  0.
         25    1    1    2    0    0 -0.83649507328E+02 -0.81699587128E+01  0.66202630080E+03  0.67894610335E+03  0.12500000000E+03 0.  0.
</event>
<event>
 5    0  0.5653588E-005  0.2067429E+03  0.7546771E-02  0.1144172E+00
         21   -1    0    0  502  501  0.00000000000E+00  0.00000000000E+00  0.17297551553E+04  0.17297551553E+04  0.00000000000E+00 0. -1.
         21   -1    0    0  501  502 -0.00000000000E+00 -0.00000000000E+00 -0.24710218569E+02  0.24710218569E+02  0.00000000000E+00 0. -1.
         25    1    1    2    0    0  0.58966495720E+01 -0.17678948074E+01  0.61817493216E+03  0.63071637261E+03  0.12500000000E+03 0.  0.
         25    1    1    2    0    0 -0.20713519026E+02  0.27957755827E+01  0.28298892341E+03  0.31007192231E+03  0.12500000000E+03 0.  0.
         25    1    1    2    0    0  0.14816869454E+02 -0.10278807754E+01  0.80388108114E+03  0.81367707893E+03  0.12500000000E+03 0.  0.
</event>
<event>
 5    0  0.5653588E-005  0.5296600E+03  0.7546771E-02  0.1006315E+00
         21   -1    0    0  502  501  0.00000000000E+00  0.00000000000E+00  0.40276354832E+03  0.40276354832E+03  0.00000000000E+00 0.  1.
         21   -1    0    0  501  502 -0.00000000000E+00 -0.00000000000E+00 -0.69653698311E+03  0.69653698311E+03  0.00000000000E+00 0.  1.
         25    1    1    2    0    0  0.18271594529E+03  0.11605948281E+03 -0.42041756971E+03  0.48911231137E+03  0.12500000000E+03 0.  0.
         25    1    1    2    0    0  0.10382893613E+03  0.11042123567E+03 -0.19459528093E+02  0.19742586076E+03  0.12500000000E+03 0.  0.
         25    1    1    2    0    0 -0.28654488142E+03 -0.22648071848E+03  0.14610366301E+03  0.41276235930E+03  0.12500000000E+03 0.  0.
</event>
<event>
 5    0  0.5653588E-005  0.2280513E+03  0.7546771E-02  0.1128019E+00
         21   -1    0    0  502  501  0.00000000000E+00  0.00000000000E+00  0.18293515618E+03  0.18293515618E+03  0.00000000000E+00 0. -1.
         21   -1    0    0  501  502 -0.00000000000E+00 -0.00000000000E+00 -0.28429406988E+03  0.28429406988E+03  0.00000000000E+00 0. -1.
         25    1    1    2    0    0 -0.55121080159E+02 -0.78640781888E+02 -0.86701834104E+01  0.15786981388E+03  0.12500000000E+03 0.  0.
         25    1    1    2    0    0  0.65894336327E+02 -0.41260493090E+01 -0.68622544051E+02  0.15714051481E+03  0.12500000000E+03 0.  0.
         25    1    1    2    0    0 -0.10773256168E+02  0.82766831197E+02 -0.24066186241E+02  0.15221889737E+03  0.12500000000E+03 0.  0.
</event>
<event>
 5    0  0.5653588E-005  0.2507135E+03  0.7546771E-02  0.1112855E+00
         21   -1    0    0  502  501  0.00000000000E+00  0.00000000000E+00  0.16286128995E+04  0.16286128995E+04  0.00000000000E+00 0.  1.
         21   -1    0    0  501  502 -0.00000000000E+00 -0.00000000000E+00 -0.38595579824E+02  0.38595579824E+02  0.00000000000E+00 0.  1.
         25    1    1    2    0    0  0.69261304344E+02  0.89394236859E+02  0.87224445279E+03  0.88838271217E+03  0.12500000000E+03 0.  0.
         25    1    1    2    0    0 -0.93279621205E+02 -0.65217748692E+02  0.34530420773E+03  0.38446643332E+03  0.12500000000E+03 0.  0.
         25    1    1    2    0    0  0.24018316861E+02 -0.24176488167E+02  0.37246865917E+03  0.39435933384E+03  0.12500000000E+03 0.  0.
</event>
<event>
 5    0  0.5653588E-005  0.2733415E+03  0.7546771E-02  0.1099382E+00
         21   -1    0    0  502  501  0.00000000000E+00  0.00000000000E+00  0.73082054136E+02  0.73082054136E+02  0.00000000000E+00 0. -1.
         21   -1    0    0  501  502 -0.00000000000E+00 -0.00000000000E+00 -0.10223520744E+04  0.10223520744E+04  0.00000000000E+00 0. -1.
         25    1    1    2    0    0  0.58792584497E+02 -0.65374394487E+02 -0.52556831097E+03  0.54733666873E+03  0.12500000000E+03 0.  0.
         25    1    1    2    0    0 -0.30903829554E+02 -0.75037554895E+02 -0.12729703741E+03  0.19599800269E+03  0.12500000000E+03 0.  0.
         25    1    1    2    0    0 -0.27888754944E+02  0.14041194938E+03 -0.29640467187E+03  0.35209945710E+03  0.12500000000E+03 0.  0.
</event>
<event>
 5    0  0.5653588E-005  0.2205456E+03  0.7546771E-02  0.1133477E+00
         21   -1    0    0  502  501  0.00000000000E+00  0.00000000000E+00  0.12044137909E+04  0.12044137909E+04  0.00000000000E+00 0. -1.
         21   -1    0    0  501  502 -0.00000000000E+00 -0.00000000000E+00 -0.40385110014E+02  0.40385110014E+02  0.00000000000E+00 0. -1.
         25    1    1    2    0    0  0.26427405906E+02 -0.13591304686E+01  0.71401718434E+03  0.72535907973E+03  0.12500000000E+03 0.  0.
         25    1    1    2    0    0 -0.37077386360E+02  0.10702760464E+02  0.26746051821E+03  0.29774050860E+03  0.12500000000E+03 0.  0.
         25    1    1    2    0    0  0.10649980454E+02 -0.93436299957E+01  0.18255097832E+03  0.22169931256E+03  0.12500000000E+03 0.  0.
</event>
<event>
 5    0  0.5653588E-005  0.3230639E+03  0.7546771E-02  0.1074248E+00
         21   -1    0    0  502  501  0.00000000000E+00  0.00000000000E+00  0.87902975341E+02  0.87902975341E+02  0.00000000000E+00 0.  1.
         21   -1    0    0  501  502 -0.00000000000E+00 -0.00000000000E+00 -0.11873350000E+04  0.11873350000E+04  0.00000000000E+00 0.  1.
         25    1    1    2    0    0 -0.13510184879E+03  0.84533005646E+02 -0.47220730813E+03  0.51381230079E+03  0.12500000000E+03 0.  0.
         25    1    1    2    0    0  0.17249802607E+03 -0.61222476713E+02 -0.57968891323E+03  0.62061904319E+03  0.12500000000E+03 0.  0.
         25    1    1    2    0    0 -0.37396177281E+02 -0.23310528933E+02 -0.47535803271E+02  0.14080663133E+03  0.12500000000E+03 0.  0.
</event>
<event>
 5    0  0.5653588E-005  0.2947955E+03  0.7546771E-02  0.1087872E+00
         21   -1    0    0  502  501  0.00000000000E+00  0.00000000000E+00  0.83957637440E+03  0.83957637440E+03  0.00000000000E+00 0.  1.
         21   -1    0    0  501  502 -0.00000000000E+00 -0.00000000000E+00 -0.10350978853E+03  0.10350978853E+03  0.00000000000E+00 0.  1.
         25    1    1    2    0    0 -0.11350613869E+03  0.37648509317E+02  0.58530441858E+02  0.18262493367E+03  0.12500000000E+03 0.  0.
         25    1    1    2    0    0  0.43347116724E+02 -0.15283092489E+02  0.10433183719E+03  0.16918237998E+03  0.12500000000E+03 0.  0.
         25    1    1    2    0    0  0.70159021966E+02 -0.22365416828E+02  0.57320430684E+03  0.59127884928E+03  0.12500000000E+03 0.  0.
</event>
<event>
 5    0  0.5653588E-005  0.2688828E+03  0.7546771E-02  0.1101921E+00
         21   -1    0    0  502  501  0.00000000000E+00  0.00000000000E+00  0.13890075461E+04  0.13890075461E+04  0.00000000000E+00 0.  1.
         21   -1    0    0  501  502 -0.00000000000E+00 -0.00000000000E+00 -0.52050075727E+02  0.52050075727E+02  0.00000000000E+00 0.  1.
         25    1    1    2    0    0 -0.45152344757E+02 -0.14248767792E+03  0.64703547126E+03  0.67573765151E+03  0.12500000000E+03 0.  0.
         25    1    1    2    0    0  0.57365505432E+02  0.30836384939E+01  0.22188037670E+03  0.26106744647E+03  0.12500000000E+03 0.  0.
         25    1    1    2    0    0 -0.12213160675E+02  0.13940403943E+03  0.46804162242E+03  0.50425252386E+03  0.12500000000E+03 0.  0.
</event>
<event>
 5    0  0.6731495E-005  0.3069292E+03  0.7546771E-02  0.1081827E+00
         21   -1    0    0  502  501  0.00000000000E+00  0.00000000000E+00  0.49743409738E+03  0.49743409738E+03  0.00000000000E+00 0. -1.
         21   -1    0    0  501  502 -0.00000000000E+00 -0.00000000000E+00 -0.18938296314E+03  0.18938296314E+03  0.00000000000E+00 0. -1.
         25    1    1    2    0    0  0.16119691156E+01 -0.14938585823E+03  0.42988806406E+02  0.19947874714E+03  0.12500000000E+03 0.  0.
         25    1    1    2    0    0 -0.70186504120E+02  0.18124268893E+03  0.65819279835E+02  0.24027533217E+03  0.12500000000E+03 0.  0.
         25    1    1    2    0    0  0.68574535004E+02 -0.31856830695E+02  0.19924304800E+03  0.24706298122E+03  0.12500000000E+03 0.  0.
</event>
<event>
 5    0  0.5653588E-005  0.3813455E+03  0.7546771E-02  0.1050438E+00
         21   -1    0    0  502  501  0.00000000000E+00  0.00000000000E+00  0.99482259411E+03  0.99482259411E+03  0.00000000000E+00 0. -1.
         21   -1    0    0  501  502 -0.00000000000E+00 -0.00000000000E+00 -0.14618125802E+03  0.14618125802E+03  0.00000000000E+00 0. -1.
         25    1    1    2    0    0  0.25471952550E+02 -0.44535085841E+02  0.11279463576E+03  0.17601086357E+03  0.12500000000E+03 0.  0.
         25    1    1    2    0    0 -0.61803585426E+02 -0.18068497923E+03  0.53048028407E+02  0.23431994838E+03  0.12500000000E+03 0.  0.
         25    1    1    2    0    0  0.36331632877E+02  0.22522006507E+03  0.68279867193E+03  0.73067304018E+03  0.12500000000E+03 0.  0.
</event>
<event>
 5    0  0.7721608E-005  0.2664981E+03  0.7546771E-02  0.1103301E+00
         21   -1    0    0  502  501  0.00000000000E+00  0.00000000000E+00  0.12440393012E+03  0.12440393012E+03  0.00000000000E+00 0. -1.
         21   -1    0    0  501  502 -0.00000000000E+00 -0.00000000000E+00 -0.57089235928E+03  0.57089235928E+03  0.00000000000E+00 0. -1.
         25    1    1    2    0    0  0.31800590780E+02 -0.10319502325E+03 -0.12104579948E+03  0.20478665965E+03  0.12500000000E+03 0.  0.
         25    1    1    2    0    0 -0.22200509249E+02  0.14866136285E+03 -0.80104814664E+02  0.21126960204E+03  0.12500000000E+03 0.  0.
         25    1    1    2    0    0 -0.96000815314E+01 -0.45466339593E+02 -0.24533781501E+03  0.27924002771E+03  0.12500000000E+03 0.  0.
</event>
<event>
 5    0  0.5653588E-005  0.4556478E+03  0.7546771E-02  0.1026051E+00
         21   -1    0    0  502  501  0.00000000000E+00  0.00000000000E+00  0.38107084084E+03  0.38107084084E+03  0.00000000000E+00 0. -1.
         21   -1    0    0  501  502 -0.00000000000E+00 -0.00000000000E+00 -0.54481973078E+03  0.54481973078E+03  0.00000000000E+00 0. -1.
         25    1    1    2    0    0 -0.91540414783E+02  0.40963190802E+02 -0.26023578383E+03  0.30562279648E+03  0.12500000000E+03 0.  0.
         25    1    1    2    0    0  0.12635187784E+03 -0.11282266408E+03  0.30119334441E+03  0.36747269461E+03  0.12500000000E+03 0.  0.
         25    1    1    2    0    0 -0.34811463059E+02  0.71859473281E+02 -0.20470645052E+03  0.25279508054E+03  0.12500000000E+03 0.  0.
</event>
<event>
 5    0  0.5653588E-005  0.3028281E+03  0.7546771E-02  0.1083835E+00
         21   -1    0    0  502  501  0.00000000000E+00  0.00000000000E+00  0.71557955891E+03  0.71557955891E+03  0.00000000000E+00 0.  1.
         21   -1    0    0  501  502 -0.00000000000E+00 -0.00000000000E+00 -0.12815469538E+03  0.12815469538E+03  0.00000000000E+00 0.  1.
         25    1    1    2    0    0  0.19144874123E+02 -0.70927045521E+01  0.10329988910E+03  0.16344020237E+03  0.12500000000E+03 0.  0.
         25    1    1    2    0    0 -0.19182880788E+03  0.67259583872E+02  0.15852316261E+03  0.28649037721E+03  0.12500000000E+03 0.  0.
         25    1    1    2    0    0  0.17268393375E+03 -0.60166879319E+02  0.32560181183E+03  0.39380367471E+03  0.12500000000E+03 0.  0.
</event>
<event>
 5    0  0.5653588E-005  0.3055958E+03  0.7546771E-02  0.1082476E+00
         21   -1    0    0  502  501  0.00000000000E+00  0.00000000000E+00  0.17365067094E+03  0.17365067094E+03  0.00000000000E+00 0.  1.
         21   -1    0    0  501  502 -0.00000000000E+00 -0.00000000000E+00 -0.53779701043E+03  0.53779701043E+03  0.00000000000E+00 0.  1.
         25    1    1    2    0    0 -0.13591460246E+03  0.85736349696E+02 -0.25806878820E+03  0.32870655647E+03  0.12500000000E+03 0.  0.
         25    1    1    2    0    0 -0.81801384058E+01  0.36122306160E+02 -0.84492085715E+02  0.15535651971E+03  0.12500000000E+03 0.  0.
         25    1    1    2    0    0  0.14409474087E+03 -0.12185865586E+03 -0.21585465575E+02  0.22738460519E+03  0.12500000000E+03 0.  0.
</event>
<event>
 5    0  0.5653588E-005  0.3232325E+03  0.7546771E-02  0.1074171E+00
         21   -1    0    0  502  501  0.00000000000E+00  0.00000000000E+00  0.88128114301E+03  0.88128114301E+03  0.00000000000E+00 0. -1.
         21   -1    0    0  501  502 -0.00000000000E+00 -0.00000000000E+00 -0.11855379353E+03  0.11855379353E+03  0.00000000000E+00 0. -1.
         25    1    1    2    0    0  0.12141999849E+03  0.32109702446E+02  0.59018929830E+02  0.18676745729E+03  0.12500000000E+03 0.  0.
         25    1    1    2    0    0 -0.77998351522E+02  0.64646291021E+02  0.59499954478E+03  0.61637029785E+03  0.12500000000E+03 0.  0.
         25    1    1    2    0    0 -0.43421646966E+02 -0.96755993467E+02  0.10870887487E+03  0.19669718140E+03  0.12500000000E+03 0.  0.
</event>
<event>
 5    0  0.5653588E-005  0.6109396E+03  0.7546771E-02  0.9882966E-01
         21   -1    0    0  502  501  0.00000000000E+00  0.00000000000E+00  0.18166748846E+03  0.18166748846E+03  0.00000000000E+00 0. -1.
         21   -1    0    0  501  502 -0.00000000000E+00 -0.00000000000E+00 -0.20545621579E+04  0.20545621579E+04  0.00000000000E+00 0. -1.
         25    1    1    2    0    0 -0.26263649303E+03  0.11999268715E+03 -0.80023742245E+02  0.32466131855E+03  0.12500000000E+03 0.  0.
         25    1    1    2    0    0  0.26078463139E+03 -0.28388255623E+02 -0.32671557445E+03  0.43724430655E+03  0.12500000000E+03 0.  0.
         25    1    1    2    0    0  0.18518616361E+01 -0.91604431523E+02 -0.14661553527E+04  0.14743240212E+04  0.12500000000E+03 0.  0.
</event>
<event>
 5    0  0.5653588E-005  0.3351793E+03  0.7546771E-02  0.1068868E+00
         21   -1    0    0  502  501  0.00000000000E+00  0.00000000000E+00  0.41896198913E+03  0.41896198913E+03  0.00000000000E+00 0.  1.
         21   -1    0    0  501  502 -0.00000000000E+00 -0.00000000000E+00 -0.26815128245E+03  0.26815128245E+03  0.00000000000E+00 0.  1.
         25    1    1    2    0    0 -0.81936599794E+02  0.35991452849E+02 -0.11714681337E+02  0.15417919711E+03  0.12500000000E+03 0.  0.
         25    1    1    2    0    0 -0.85244923749E+02  0.44031612563E+02  0.24780467286E+03  0.29366245218E+03  0.12500000000E+03 0.  0.
         25    1    1    2    0    0  0.16718152354E+03 -0.80023065412E+02 -0.85279284841E+02  0.23927162229E+03  0.12500000000E+03 0.  0.
</event>
<event>
 5    0  0.5653588E-005  0.2639535E+03  0.7546771E-02  0.1104791E+00
         21   -1    0    0  502  501  0.00000000000E+00  0.00000000000E+00  0.10195341121E+03  0.10195341121E+03  0.00000000000E+00 0. -1.
         21   -1    0    0  501  502 -0.00000000000E+00 -0.00000000000E+00 -0.68336534332E+03  0.68336534332E+03  0.00000000000E+00 0. -1.
         25    1    1    2    0    0 -0.57355555118E+01  0.62260082629E+01 -0.83214141460E+01  0.12556235785E+03  0.12500000000E+03 0.  0.
         25    1    1    2    0    0  0.59883553566E+02  0.85277570025E+02 -0.28070094927E+03  0.32446313637E+03  0.12500000000E+03 0.  0.
         25    1    1    2    0    0 -0.54147998054E+02 -0.91503578288E+02 -0.29238956868E+03  0.33529326031E+03  0.12500000000E+03 0.  0.
</event>
<event>
 5    0  0.5653588E-005  0.2683135E+03  0.7546771E-02  0.1102249E+00
         21   -1    0    0  502  501  0.00000000000E+00  0.00000000000E+00  0.32274009479E+03  0.32274009479E+03  0.00000000000E+00 0. -1.
         21   -1    0    0  501  502 -0.00000000000E+00 -0.00000000000E+00 -0.22306536924E+03  0.22306536924E+03  0.00000000000E+00 0. -1.
         25    1    1    2    0    0  0.45668733982E+02 -0.30425603267E+02 -0.34198900160E+02  0.14073349058E+03  0.12500000000E+03 0.  0.
         25    1    1    2    0    0 -0.16076499955E+03 -0.78969978849E+01  0.41762935112E+02  0.20803098424E+03  0.12500000000E+03 0.  0.
         25    1    1    2    0    0  0.11509626557E+03  0.38322601152E+02  0.92110690599E+02  0.19704098921E+03  0.12500000000E+03 0.  0.
</event>
<event>
 5    0  0.5653588E-005  0.2297570E+03  0.7546771E-02  0.1126811E+00
         21   -1    0    0  502  501  0.00000000000E+00  0.00000000000E+00  0.36282367876E+03  0.36282367876E+03  0.00000000000E+00 0. -1.
         21   -1    0    0  501  502 -0.00000000000E+00 -0.00000000000E+00 -0.14549297471E+03  0.14549297471E+03  0.00000000000E+00 0. -1.
         25    1    1    2    0    0 -0.78389775071E+02 -0.55427797280E+02  0.13072273632E+03  0.20476970317E+03  0.12500000000E+03 0.  0.
         25    1    1    2    0    0  0.98209630787E+02  0.32896700843E+02  0.50946557635E+02  0.17014075420E+03  0.12500000000E+03 0.  0.
         25    1    1    2    0    0 -0.19819855716E+02  0.22531096437E+02  0.35661410095E+02  0.13340619610E+03  0.12500000000E+03 0.  0.
</event>
<event>
 5    0  0.5653588E-005  0.3369705E+03  0.7546771E-02  0.1068094E+00
         21   -1    0    0  502  501  0.00000000000E+00  0.00000000000E+00  0.29424547083E+03  0.29424547083E+03  0.00000000000E+00 0. -1.
         21   -1    0    0  501  502 -0.00000000000E+00 -0.00000000000E+00 -0.38589919217E+03  0.38589919217E+03  0.00000000000E+00 0. -1.
         25    1    1    2    0    0  0.55007537618E+02  0.17311333777E+03  0.14022621870E+03  0.26130910685E+03  0.12500000000E+03 0.  0.
         25    1    1    2    0    0  0.11245505599E+02 -0.14585247508E+03 -0.18603029079E+03  0.26764094413E+03  0.12500000000E+03 0.  0.
         25    1    1    2    0    0 -0.66253043217E+02 -0.27260862694E+02 -0.45849649255E+02  0.15119461203E+03  0.12500000000E+03 0.  0.
</event>
<event>
 5    0  0.5653588E-005  0.2604902E+03  0.7546771E-02  0.1106849E+00
         21   -1    0    0  502  501  0.00000000000E+00  0.00000000000E+00  0.24899312313E+03  0.24899312313E+03  0.00000000000E+00 0.  1.
         21   -1    0    0  501  502 -0.00000000000E+00 -0.00000000000E+00 -0.27251823107E+03  0.27251823107E+03  0.00000000000E+00 0.  1.
         25    1    1    2    0    0 -0.92789333001E+02  0.61760067477E+02  0.17026370392E+02  0.16834210270E+03  0.12500000000E+03 0.  0.
         25    1    1    2    0    0 -0.11945965490E+02 -0.10157083028E+03  0.40870848480E+02  0.16659761676E+03  0.12500000000E+03 0.  0.
         25    1    1    2    0    0  0.10473529849E+03  0.39810762805E+02 -0.81422326817E+02  0.18657163474E+03  0.12500000000E+03 0.  0.
</event>
<event>
 5    0  0.5653588E-005  0.2113015E+03  0.7546771E-02  0.1140539E+00
         21   -1    0    0  502  501  0.00000000000E+00  0.00000000000E+00  0.32628904190E+03  0.32628904190E+03  0.00000000000E+00 0. -1.
         21   -1    0    0  501  502 -0.00000000000E+00 -0.00000000000E+00 -0.13683674018E+03  0.13683674018E+03  0.00000000000E+00 0. -1.
         25    1    1    2    0    0 -0.56100917714E+02  0.67285542389E+01  0.90658779510E+01  0.13747645818E+03  0.12500000000E+03 0.  0.
         25    1    1    2    0    0  0.51061332456E+02  0.19015527861E+01  0.48042853565E+02  0.14333175278E+03  0.12500000000E+03 0.  0.
         25    1    1    2    0    0  0.50395852576E+01 -0.86301070250E+01  0.13234357021E+03  0.18231757113E+03  0.12500000000E+03 0.  0.
</event>
<event>
 5    0  0.5653588E-005  0.2725898E+03  0.7546771E-02  0.1099806E+00
         21   -1    0    0  502  501  0.00000000000E+00  0.00000000000E+00  0.52322351055E+02  0.52322351055E+02  0.00000000000E+00 0. -1.
         21   -1    0    0  501  502 -0.00000000000E+00 -0.00000000000E+00 -0.14201423305E+04  0.14201423305E+04  0.00000000000E+00 0. -1.
         25    1    1    2    0    0 -0.63163653577E+02 -0.85868211202E+02 -0.57485788985E+03  0.59787088100E+03  0.12500000000E+03 0.  0.
         25    1    1    2    0    0 -0.78201885998E+02 -0.23476082834E+02 -0.28349084473E+03  0.32040399574E+03  0.12500000000E+03 0.  0.
         25    1    1    2    0    0  0.14136553957E+03  0.10934429404E+03 -0.50947124486E+03  0.55418980482E+03  0.12500000000E+03 0.  0.
</event>
<event>
 5    0  0.5653588E-005  0.5428159E+03  0.7546771E-02  0.1003171E+00
         21   -1    0    0  502  501  0.00000000000E+00  0.00000000000E+00  0.16723697346E+03  0.16723697346E+03  0.00000000000E+00 0.  1.
         21   -1    0    0  501  502 -0.00000000000E+00 -0.00000000000E+00 -0.17618656493E+04  0.17618656493E+04  0.00000000000E+00 0. -1.
         25    1    1    2    0    0 -0.58878817879E+02 -0.11362309614E+03 -0.83411029679E+02  0.19738116183E+03  0.12500000000E+03 0.  0.
         25    1    1    2    0    0  0.30707424937E+03  0.23422609592E+03 -0.36417059481E+03  0.54534546918E+03  0.12500000000E+03 0.  0.
         25    1    1    2    0    0 -0.24819543149E+03 -0.12060299978E+03 -0.11470470513E+04  0.11863759917E+04  0.12500000000E+03 0.  0.
</event>
<event>
 5    0  0.5653588E-005  0.2661786E+03  0.7546771E-02  0.1103487E+00
         21   -1    0    0  502  501  0.00000000000E+00  0.00000000000E+00  0.18176580196E+03  0.18176580196E+03  0.00000000000E+00 0.  1.
         21   -1    0    0  501  502 -0.00000000000E+00 -0.00000000000E+00 -0.38979310930E+03  0.38979310930E+03  0.00000000000E+00 0.  1.
         25    1    1    2    0    0  0.14466405019E+02 -0.51259152509E+01  0.76272564674E+02  0.14723469701E+03  0.12500000000E+03 0.  0.
         25    1    1    2    0    0 -0.28490790555E+02  0.35595539548E+02 -0.26224758031E+02  0.13561528496E+03  0.12500000000E+03 0.  0.
         25    1    1    2    0    0  0.14024385536E+02 -0.30469624297E+02 -0.25807511398E+03  0.28870892929E+03  0.12500000000E+03 0.  0.
</event>
<event>
 5    0  0.5653588E-005  0.2682893E+03  0.7546771E-02  0.1102263E+00
         21   -1    0    0  502  501  0.00000000000E+00  0.00000000000E+00  0.62444067263E+03  0.62444067263E+03  0.00000000000E+00 0.  1.
         21   -1    0    0  501  502 -0.00000000000E+00 -0.00000000000E+00 -0.11526977464E+03  0.11526977464E+03  0.00000000000E+00 0.  1.
         25    1    1    2    0    0  0.76304635173E+02  0.63616180937E+01 -0.19867572636E+01  0.14660086882E+03  0.12500000000E+03 0.  0.
         25    1    1    2    0    0 -0.10682254989E+02 -0.52128702555E+02  0.34245158419E+03  0.36841498302E+03  0.12500000000E+03 0.  0.
         25    1    1    2    0    0 -0.65622380184E+02  0.45767084462E+02  0.16870607107E+03  0.22469459543E+03  0.12500000000E+03 0.  0.
</event>
<event>
 5    0  0.5653588E-005  0.3281548E+03  0.7546771E-02  0.1071956E+00
         21   -1    0    0  502  501  0.00000000000E+00  0.00000000000E+00  0.30510130614E+03  0.30510130614E+03  0.00000000000E+00 0. -1.
         21   -1    0    0  501  502 -0.00000000000E+00 -0.00000000000E+00 -0.35295032115E+03  0.35295032115E+03  0.00000000000E+00 0. -1.
         25    1    1    2    0    0  0.19872562702E+03 -0.12841293805E+02 -0.44456150375E+00  0.23512118428E+03  0.12500000000E+03 0.  0.
         25    1    1    2    0    0 -0.16232760973E+03  0.81444134920E+02 -0.12821293805E+03  0.25504305025E+03  0.12500000000E+03 0.  0.
         25    1    1    2    0    0 -0.36398017291E+02 -0.68602841115E+02  0.80808484552E+02  0.16788739276E+03  0.12500000000E+03 0.  0.
</event>
<event>
 5    0  0.5653588E-005  0.2925939E+03  0.7546771E-02  0.1089003E+00
         21   -1    0    0  502  501  0.00000000000E+00  0.00000000000E+00  0.10743240602E+03  0.10743240602E+03  0.00000000000E+00 0.  1.
         21   -1    0    0  501  502 -0.00000000000E+00 -0.00000000000E+00 -0.79688397053E+03  0.79688397053E+03  0.00000000000E+00 0.  1.
         25    1    1    2    0    0  0.93579516831E+02 -0.14448571117E+03 -0.21666142142E+03  0.30364521770E+03  0.12500000000E+03 0.  0.
         25    1    1    2    0    0 -0.45880486729E+02  0.14842581860E+03 -0.40320071718E+03  0.44981225087E+03  0.12500000000E+03 0.  0.
         25    1    1    2    0    0 -0.47699030102E+02 -0.39401074362E+01 -0.69589425900E+02  0.15085890798E+03  0.12500000000E+03 0.  0.
</event>
<event>
 5    0  0.5653588E-005  0.2961200E+03  0.7546771E-02  0.1087196E+00
         21   -1    0    0  502  501  0.00000000000E+00  0.00000000000E+00  0.78243289423E+03  0.78243289423E+03  0.00000000000E+00 0.  1.
         21   -1    0    0  501  502 -0.00000000000E+00 -0.00000000000E+00 -0.11206973026E+03  0.11206973026E+03  0.00000000000E+00 0.  1.
         25    1    1    2    0    0  0.55991921921E+02 -0.83578136995E+02  0.57511830287E+03  0.59708162139E+03  0.12500000000E+03 0.  0.
         25    1    1    2    0    0 -0.33415528302E+02 -0.30890647136E+00  0.38996705472E+02  0.13513858070E+03  0.12500000000E+03 0.  0.
         25    1    1    2    0    0 -0.22576393620E+02  0.83887043466E+02  0.56248155625E+02  0.16228242241E+03  0.12500000000E+03 0.  0.
</event>
<event>
 5    0  0.5653588E-005  0.4133323E+03  0.7546771E-02  0.1039259E+00
         21   -1    0    0  502  501  0.00000000000E+00  0.00000000000E+00  0.66527128374E+03  0.66527128374E+03  0.00000000000E+00 0. -1.
         21   -1    0    0  501  502 -0.00000000000E+00 -0.00000000000E+00 -0.25680289690E+03  0.25680289690E+03  0.00000000000E+00 0. -1.
         25    1    1    2    0    0 -0.46124669016E+02  0.43157068258E+02  0.66206048423E+02  0.15491371302E+03  0.12500000000E+03 0.  0.
         25    1    1    2    0    0 -0.13250134161E+03  0.24196609130E+03  0.25945695828E+03  0.39880710634E+03  0.12500000000E+03 0.  0.
         25    1    1    2    0    0  0.17862601062E+03 -0.28512315956E+03  0.82805380138E+02  0.36835336128E+03  0.12500000000E+03 0.  0.
</event>
<event>
 5    0  0.6441161E-005  0.2606577E+03  0.7546771E-02  0.1106749E+00
         21   -1    0    0  502  501  0.00000000000E+00  0.00000000000E+00  0.58055194449E+03  0.58055194449E+03  0.00000000000E+00 0.  1.
         21   -1    0    0  501  502 -0.00000000000E+00 -0.00000000000E+00 -0.11703079802E+03  0.11703079802E+03  0.00000000000E+00 0.  1.
         25    1    1    2    0    0  0.63090593549E+02 -0.53959613231E+02  0.20268388726E+03  0.25218608409E+03  0.12500000000E+03 0.  0.
         25    1    1    2    0    0 -0.81470252194E+02  0.53652973849E+02  0.27583997598E+03  0.31816463654E+03  0.12500000000E+03 0.  0.
         25    1    1    2    0    0  0.18379658645E+02  0.30663938188E+00 -0.15002716774E+02  0.12723202187E+03  0.12500000000E+03 0.  0.
</event>
<event>
 5    0  0.5653588E-005  0.4195528E+03  0.7546771E-02  0.1037212E+00
         21   -1    0    0  502  501  0.00000000000E+00  0.00000000000E+00  0.91987948464E+03  0.91987948464E+03  0.00000000000E+00 0.  1.
         21   -1    0    0  501  502 -0.00000000000E+00 -0.00000000000E+00 -0.19135606241E+03  0.19135606241E+03  0.00000000000E+00 0.  1.
         25    1    1    2    0    0 -0.32070231570E+02 -0.19117489900E+01  0.77097810504E+02  0.15033704441E+03  0.12500000000E+03 0.  0.
         25    1    1    2    0    0 -0.20521490903E+03 -0.24316003268E+03  0.28762948404E+03  0.44676132383E+03  0.12500000000E+03 0.  0.
         25    1    1    2    0    0  0.23728514060E+03  0.24507178167E+03  0.36379612769E+03  0.51413717882E+03  0.12500000000E+03 0.  0.
</event>
<event>
 5    0  0.5653588E-005  0.3382763E+03  0.7546771E-02  0.1067532E+00
         21   -1    0    0  502  501  0.00000000000E+00  0.00000000000E+00  0.82813327760E+03  0.82813327760E+03  0.00000000000E+00 0. -1.
         21   -1    0    0  501  502 -0.00000000000E+00 -0.00000000000E+00 -0.13817926723E+03  0.13817926723E+03  0.00000000000E+00 0. -1.
         25    1    1    2    0    0  0.89112769606E+02 -0.57523529829E+02  0.39978323593E+02  0.16874035839E+03  0.12500000000E+03 0.  0.
         25    1    1    2    0    0 -0.45021582655E+02 -0.89748604749E+02  0.53459931148E+02  0.16901100318E+03  0.12500000000E+03 0.  0.
         25    1    1    2    0    0 -0.44091186951E+02  0.14727213458E+03  0.59651575563E+03  0.62856118326E+03  0.12500000000E+03 0.  0.
</event>
<event>
 5    0  0.5653588E-005  0.2448006E+03  0.7546771E-02  0.1116636E+00
         21   -1    0    0  502  501  0.00000000000E+00  0.00000000000E+00  0.11245061686E+04  0.11245061686E+04  0.00000000000E+00 0.  1.
         21   -1    0    0  501  502 -0.00000000000E+00 -0.00000000000E+00 -0.53292121429E+02  0.53292121429E+02  0.00000000000E+00 0.  1.
         25    1    1    2    0    0 -0.99944022533E+02  0.30412527477E+02  0.17725589756E+03  0.24074547283E+03  0.12500000000E+03 0.  0.
         25    1    1    2    0    0  0.65176656763E+02  0.79148449560E+01  0.37343842266E+03  0.39923914747E+03  0.12500000000E+03 0.  0.
         25    1    1    2    0    0  0.34767365770E+02 -0.38327372433E+02  0.52051972700E+03  0.53781366978E+03  0.12500000000E+03 0.  0.
</event>
<event>
 5    0  0.5653588E-005  0.3038113E+03  0.7546771E-02  0.1083351E+00
         21   -1    0    0  502  501  0.00000000000E+00  0.00000000000E+00  0.25339402308E+03  0.25339402308E+03  0.00000000000E+00 0.  1.
         21   -1    0    0  501  502 -0.00000000000E+00 -0.00000000000E+00 -0.36425987763E+03  0.36425987763E+03  0.00000000000E+00 0.  1.
         25    1    1    2    0    0 -0.74548817904E+02  0.11285234815E+03 -0.17125507345E+03  0.25148852641E+03  0.12500000000E+03 0.  0.
         25    1    1    2    0    0  0.11760510449E+03 -0.93312057214E+01 -0.31512832580E+02  0.17474578856E+03  0.12500000000E+03 0.  0.
         25    1    1    2    0    0 -0.43056286583E+02 -0.10352114242E+03  0.91902051473E+02  0.19141958575E+03  0.12500000000E+03 0.  0.
</event>
<event>
 5    0  0.5875638E-005  0.4209852E+03  0.7546771E-02  0.1036746E+00
         21   -1    0    0  502  501  0.00000000000E+00  0.00000000000E+00  0.75318026527E+03  0.75318026527E+03  0.00000000000E+00 0.  1.
         21   -1    0    0  501  502 -0.00000000000E+00 -0.00000000000E+00 -0.23530693141E+03  0.23530693141E+03  0.00000000000E+00 0.  1.
         25    1    1    2    0    0  0.16368572101E+03  0.11658822165E+03 -0.29545455393E+02  0.23850317110E+03  0.12500000000E+03 0.  0.
         25    1    1    2    0    0  0.25621617681E+02 -0.16553802403E+03  0.72202450561E+02  0.22112778785E+03  0.12500000000E+03 0.  0.
         25    1    1    2    0    0 -0.18930733869E+03  0.48949802378E+02  0.47521633868E+03  0.52885623773E+03  0.12500000000E+03 0.  0.
</event>
<event>
 5    0  0.5653588E-005  0.3251816E+03  0.7546771E-02  0.1073289E+00
         21   -1    0    0  502  501  0.00000000000E+00  0.00000000000E+00  0.13196532322E+03  0.13196532322E+03  0.00000000000E+00 0.  1.
         21   -1    0    0  501  502 -0.00000000000E+00 -0.00000000000E+00 -0.80129429292E+03  0.80129429292E+03  0.00000000000E+00 0.  1.
         25    1    1    2    0    0  0.12420981317E+03 -0.12276745206E+03 -0.13712622407E+03  0.25481076567E+03  0.12500000000E+03 0.  0.
         25    1    1    2    0    0 -0.20734809330E+03  0.11079875886E+03 -0.29416631087E+03  0.39677249805E+03  0.12500000000E+03 0.  0.
         25    1    1    2    0    0  0.83138280124E+02  0.11968693203E+02 -0.23803643476E+03  0.28167635242E+03  0.12500000000E+03 0.  0.
</event>
<event>
 5    0  0.5697522E-005  0.2994186E+03  0.7546771E-02  0.1085532E+00
         21   -1    0    0  502  501  0.00000000000E+00  0.00000000000E+00  0.26453746765E+03  0.26453746765E+03  0.00000000000E+00 0.  1.
         21   -1    0    0  501  502 -0.00000000000E+00 -0.00000000000E+00 -0.33889909448E+03  0.33889909448E+03  0.00000000000E+00 0.  1.
         25    1    1    2    0    0  0.39316427822E+02  0.89178813209E+02  0.91070022625E+02  0.18280424296E+03  0.12500000000E+03 0.  0.
         25    1    1    2    0    0 -0.68525249917E+02 -0.14543432836E+03 -0.18979516988E+03  0.27837754983E+03  0.12500000000E+03 0.  0.
         25    1    1    2    0    0  0.29208822095E+02  0.56255515150E+02  0.24363520417E+02  0.14225476934E+03  0.12500000000E+03 0.  0.
</event>
<event>
 5    0  0.5653588E-005  0.3372214E+03  0.7546771E-02  0.1067986E+00
         21   -1    0    0  502  501  0.00000000000E+00  0.00000000000E+00  0.27919738184E+03  0.27919738184E+03  0.00000000000E+00 0.  1.
         21   -1    0    0  501  502 -0.00000000000E+00 -0.00000000000E+00 -0.40730411931E+03  0.40730411931E+03  0.00000000000E+00 0.  1.
         25    1    1    2    0    0 -0.53031960612E+01  0.70814261746E+02 -0.80233692787E+02  0.16463665756E+03  0.12500000000E+03 0.  0.
         25    1    1    2    0    0 -0.46829231411E+02  0.13388803911E+03  0.12051663002E+03  0.22420580288E+03  0.12500000000E+03 0.  0.
         25    1    1    2    0    0  0.52132427472E+02 -0.20470230086E+03 -0.16838967471E+03  0.29765904071E+03  0.12500000000E+03 0.  0.
</event>
<event>
 5    0  0.5653588E-005  0.2743977E+03  0.7546771E-02  0.1098789E+00
         21   -1    0    0  502  501  0.00000000000E+00  0.00000000000E+00  0.78612011982E+03  0.78612011982E+03  0.00000000000E+00 0. -1.
         21   -1    0    0  501  502 -0.00000000000E+00 -0.00000000000E+00 -0.95779361041E+02  0.95779361041E+02  0.00000000000E+00 0. -1.
         25    1    1    2    0    0 -0.14209773471E+03  0.10357727733E+01  0.91714836005E+02  0.21030798886E+03  0.12500000000E+03 0.  0.
         25    1    1    2    0    0  0.12678471677E+03  0.55960469270E+01  0.33851432369E+03  0.38252140789E+03  0.12500000000E+03 0.  0.
         25    1    1    2    0    0  0.15313017935E+02 -0.66318197003E+01  0.26011159908E+03  0.28907008411E+03  0.12500000000E+03 0.  0.
</event>
<event>
 5    0  0.5653588E-005  0.3302580E+03  0.7546771E-02  0.1071023E+00
         21   -1    0    0  502  501  0.00000000000E+00  0.00000000000E+00  0.30788593015E+03  0.30788593015E+03  0.00000000000E+00 0.  1.
         21   -1    0    0  501  502 -0.00000000000E+00 -0.00000000000E+00 -0.35425573574E+03  0.35425573574E+03  0.00000000000E+00 0.  1.
         25    1    1    2    0    0 -0.83628769521E+02 -0.10749477525E+03 -0.49712755296E+01  0.18492866565E+03  0.12500000000E+03 0.  0.
         25    1    1    2    0    0  0.14078209958E+03 -0.14457122081E+01  0.13250553080E+03  0.23022685625E+03  0.12500000000E+03 0.  0.
         25    1    1    2    0    0 -0.57153330059E+02  0.10894048746E+03 -0.17390406086E+03  0.24698614400E+03  0.12500000000E+03 0.  0.
</event>
<event>
 5    0  0.5653588E-005  0.2729383E+03  0.7546771E-02  0.1099610E+00
         21   -1    0    0  502  501  0.00000000000E+00  0.00000000000E+00  0.17818537311E+03  0.17818537311E+03  0.00000000000E+00 0. -1.
         21   -1    0    0  501  502 -0.00000000000E+00 -0.00000000000E+00 -0.41807769544E+03  0.41807769544E+03  0.00000000000E+00 0. -1.
         25    1    1    2    0    0  0.14414849853E+02  0.10132134781E+03 -0.35430148659E+02  0.16539074597E+03  0.12500000000E+03 0.  0.
         25    1    1    2    0    0 -0.10983534147E+03  0.46417154229E+01 -0.17039167669E+03  0.23820930134E+03  0.12500000000E+03 0.  0.
         25    1    1    2    0    0  0.95420491616E+02 -0.10596306324E+03 -0.34070496973E+02  0.19266302124E+03  0.12500000000E+03 0.  0.
</event>
<event>
 5    0  0.5653588E-005  0.3185000E+03  0.7546771E-02  0.1076342E+00
         21   -1    0    0  502  501  0.00000000000E+00  0.00000000000E+00  0.94116624008E+03  0.94116624008E+03  0.00000000000E+00 0.  1.
         21   -1    0    0  501  502 -0.00000000000E+00 -0.00000000000E+00 -0.10778352850E+03  0.10778352850E+03  0.00000000000E+00 0.  1.
         25    1    1    2    0    0  0.68454238184E+02 -0.62860117744E+02  0.38085508258E+03  0.41147657413E+03  0.12500000000E+03 0.  0.
         25    1    1    2    0    0 -0.11446039194E+03  0.17171613373E+03  0.13533425839E+03  0.27663689811E+03  0.12500000000E+03 0.  0.
         25    1    1    2    0    0  0.46006153754E+02 -0.10885601598E+03  0.31719337061E+03  0.36083629634E+03  0.12500000000E+03 0.  0.
</event>
<event>
 5    0  0.5653588E-005  0.3004616E+03  0.7546771E-02  0.1085010E+00
         21   -1    0    0  502  501  0.00000000000E+00  0.00000000000E+00  0.10587668818E+04  0.10587668818E+04  0.00000000000E+00 0.  1.
         21   -1    0    0  501  502 -0.00000000000E+00 -0.00000000000E+00 -0.85266319752E+02  0.85266319752E+02  0.00000000000E+00 0.  1.
         25    1    1    2    0    0 -0.55178212836E+02  0.70585398140E+02  0.46006857162E+02  0.16052589981E+03  0.12500000000E+03 0.  0.
         25    1    1    2    0    0 -0.34771156043E+02 -0.84888368975E+02  0.62277056592E+03  0.64178130719E+03  0.12500000000E+03 0.  0.
         25    1    1    2    0    0  0.89949368879E+02  0.14302970835E+02  0.30472313898E+03  0.34172599457E+03  0.12500000000E+03 0.  0.
</event>
<event>
 5    0  0.5653588E-005  0.5323720E+03  0.7546771E-02  0.1005658E+00
         21   -1    0    0  502  501  0.00000000000E+00  0.00000000000E+00  0.31986670585E+03  0.31986670585E+03  0.00000000000E+00 0.  1.
         21   -1    0    0  501  502 -0.00000000000E+00 -0.00000000000E+00 -0.88605644479E+03  0.88605644479E+03  0.00000000000E+00 0.  1.
         25    1    1    2    0    0 -0.71240474856E+02  0.31056044616E+03 -0.55295286899E+03  0.65031136489E+03  0.12500000000E+03 0.  0.
         25    1    1    2    0    0 -0.88279858345E+02 -0.74093431383E+02  0.12881913251E+03  0.21331324118E+03  0.12500000000E+03 0.  0.
         25    1    1    2    0    0  0.15952033320E+03 -0.23646701478E+03 -0.14205600246E+03  0.34229854457E+03  0.12500000000E+03 0.  0.
</event>
<event>
 5    0  0.5653588E-005  0.2449783E+03  0.7546771E-02  0.1116520E+00
         21   -1    0    0  502  501  0.00000000000E+00  0.00000000000E+00  0.88651725476E+02  0.88651725476E+02  0.00000000000E+00 0. -1.
         21   -1    0    0  501  502 -0.00000000000E+00 -0.00000000000E+00 -0.67696811268E+03  0.67696811268E+03  0.00000000000E+00 0. -1.
         25    1    1    2    0    0 -0.21594322537E+02 -0.40894847355E+02 -0.88359338574E+02  0.15990958701E+03  0.12500000000E+03 0.  0.
         25    1    1    2    0    0  0.26735376551E+02 -0.13057752939E+02 -0.43723121864E+03  0.45572077397E+03  0.12500000000E+03 0.  0.
         25    1    1    2    0    0 -0.51410540143E+01  0.53952600294E+02 -0.62725829987E+02  0.14998947717E+03  0.12500000000E+03 0.  0.
</event>
<event>
 5    0  0.5653588E-005  0.2851171E+03  0.7546771E-02  0.1092926E+00
         21   -1    0    0  502  501  0.00000000000E+00  0.00000000000E+00  0.13802446760E+04  0.13802446760E+04  0.00000000000E+00 0. -1.
         21   -1    0    0  501  502 -0.00000000000E+00 -0.00000000000E+00 -0.58896637697E+02  0.58896637697E+02  0.00000000000E+00 0. -1.
         25    1    1    2    0    0 -0.72186625394E+02  0.84481398846E+02  0.73113530381E+03  0.75002123177E+03  0.12500000000E+03 0.  0.
         25    1    1    2    0    0  0.60442556085E+02 -0.14154407527E+03  0.23146105953E+03  0.30477409652E+03  0.12500000000E+03 0.  0.
         25    1    1    2    0    0  0.11744069309E+02  0.57062676427E+02  0.35875167495E+03  0.38434598539E+03  0.12500000000E+03 0.  0.
</event>
<event>
 5    0  0.5653588E-005  0.2440504E+03  0.7546771E-02  0.1117124E+00
         21   -1    0    0  502  501  0.00000000000E+00  0.00000000000E+00  0.18286153680E+03  0.18286153680E+03  0.00000000000E+00 0. -1.
         21   -1    0    0  501  502 -0.00000000000E+00 -0.00000000000E+00 -0.32571422098E+03  0.32571422098E+03  0.00000000000E+00 0. -1.
         25    1    1    2    0    0  0.52918527134E+02  0.35031527649E+02  0.90897220785E+01  0.14048203263E+03  0.12500000000E+03 0.  0.
         25    1    1    2    0    0 -0.18334591972E+02  0.43887295872E+02 -0.16877672232E+03  0.21534352556E+03  0.12500000000E+03 0.  0.
         25    1    1    2    0    0 -0.34583935162E+02 -0.78918823522E+02  0.16834316070E+02  0.15275019959E+03  0.12500000000E+03 0.  0.
</event>
<event>
 5    0  0.5653588E-005  0.3565353E+03  0.7546771E-02  0.1059964E+00
         21   -1    0    0  502  501  0.00000000000E+00  0.00000000000E+00  0.12758384592E+03  0.12758384592E+03  0.00000000000E+00 0.  1.
         21   -1    0    0  501  502 -0.00000000000E+00 -0.00000000000E+00 -0.99634413891E+03  0.99634413891E+03  0.00000000000E+00 0.  1.
         25    1    1    2    0    0  0.44476650425E+02  0.12253506095E+03 -0.30427901935E+03  0.35384139839E+03  0.12500000000E+03 0.  0.
         25    1    1    2    0    0 -0.23388487010E+03 -0.87924939798E+02 -0.39902539339E+03  0.48711312041E+03  0.12500000000E+03 0.  0.
         25    1    1    2    0    0  0.18940821968E+03 -0.34610121155E+02 -0.16545588025E+03  0.28297346603E+03  0.12500000000E+03 0.  0.
</event>
<event>
 5    0  0.5653588E-005  0.2084938E+03  0.7546771E-02  0.1142764E+00
         21   -1    0    0  502  501  0.00000000000E+00  0.00000000000E+00  0.15871325288E+03  0.15871325288E+03  0.00000000000E+00 0. -1.
         21   -1    0    0  501  502 -0.00000000000E+00 -0.00000000000E+00 -0.27388812292E+03  0.27388812292E+03  0.00000000000E+00 0. -1.
         25    1    1    2    0    0  0.42291211361E+02  0.22474404037E+02 -0.53605343647E+01  0.13396783466E+03  0.12500000000E+03 0.  0.
         25    1    1    2    0    0  0.39240062811E+01  0.38111725574E+02 -0.42229891579E+02  0.13739092108E+03  0.12500000000E+03 0.  0.
         25    1    1    2    0    0 -0.46215217642E+02 -0.60586129611E+02 -0.67584444093E+02  0.16124262007E+03  0.12500000000E+03 0.  0.
</event>
<event>
 5    0  0.5653588E-005  0.2877636E+03  0.7546771E-02  0.1091523E+00
         21   -1    0    0  502  501  0.00000000000E+00  0.00000000000E+00  0.82381209251E+02  0.82381209251E+02  0.00000000000E+00 0. -1.
         21   -1    0    0  501  502 -0.00000000000E+00 -0.00000000000E+00 -0.10051794082E+04  0.10051794082E+04  0.00000000000E+00 0. -1.
         25    1    1    2    0    0  0.55557574138E+02 -0.16878111830E+02 -0.16622643276E+03  0.21593457724E+03  0.12500000000E+03 0.  0.
         25    1    1    2    0    0  0.14169655149E+03 -0.11935046695E+02 -0.25495433215E+03  0.31756427621E+03  0.12500000000E+03 0.  0.
         25    1    1    2    0    0 -0.19725412563E+03  0.28813158525E+02 -0.50161743407E+03  0.55406176402E+03  0.12500000000E+03 0.  0.
</event>
<event>
 5    0  0.7269706E-005  0.3377603E+03  0.7546771E-02  0.1067754E+00
         21   -1    0    0  502  501  0.00000000000E+00  0.00000000000E+00  0.38094370901E+03  0.38094370901E+03  0.00000000000E+00 0. -1.
         21   -1    0    0  501  502 -0.00000000000E+00 -0.00000000000E+00 -0.29947219571E+03  0.29947219571E+03  0.00000000000E+00 0. -1.
         25    1    1    2    0    0 -0.55462211436E+02  0.42045439382E+02  0.15861257606E+03  0.21360436596E+03  0.12500000000E+03 0.  0.
         25    1    1    2    0    0  0.26030888285E+02 -0.21048631778E+03 -0.17708474810E+02  0.24682116441E+03  0.12500000000E+03 0.  0.
         25    1    1    2    0    0  0.29431323150E+02  0.16844087840E+03 -0.59432587951E+02  0.21999037436E+03  0.12500000000E+03 0.  0.
</event>
<event>
 5    0  0.6438108E-005  0.5146155E+03  0.7546771E-02  0.1010033E+00
         21   -1    0    0  502  501  0.00000000000E+00  0.00000000000E+00  0.12108993972E+04  0.12108993972E+04  0.00000000000E+00 0.  1.
         21   -1    0    0  501  502 -0.00000000000E+00 -0.00000000000E+00 -0.21870447724E+03  0.21870447724E+03  0.00000000000E+00 0.  1.
         25    1    1    2    0    0 -0.24655553448E+03 -0.15781522282E+02  0.20943060433E+03  0.34716691383E+03  0.12500000000E+03 0.  0.
         25    1    1    2    0    0  0.31473511593E+03 -0.40310116353E+02  0.63284450649E+02  0.34686167325E+03  0.12500000000E+03 0.  0.
         25    1    1    2    0    0 -0.68179581450E+02  0.56091638635E+02  0.71947986496E+03  0.73557528733E+03  0.12500000000E+03 0.  0.
</event>
<event>
 5    0  0.5653588E-005  0.4186874E+03  0.7546771E-02  0.1037494E+00
         21   -1    0    0  502  501  0.00000000000E+00  0.00000000000E+00  0.77726979664E+03  0.77726979664E+03  0.00000000000E+00 0.  1.
         21   -1    0    0  501  502 -0.00000000000E+00 -0.00000000000E+00 -0.22553192515E+03  0.22553192515E+03  0.00000000000E+00 0.  1.
         25    1    1    2    0    0  0.25144166992E+03 -0.22809017814E+03  0.25059069268E+03  0.44007810443E+03  0.12500000000E+03 0.  0.
         25    1    1    2    0    0 -0.34258022346E+02  0.21674272834E+02  0.16434469990E+03  0.21042235286E+03  0.12500000000E+03 0.  0.
         25    1    1    2    0    0 -0.21718364757E+03  0.20641590531E+03  0.13680247891E+03  0.35230126451E+03  0.12500000000E+03 0.  0.
</event>
<event>
 5    0  0.5653588E-005  0.2777244E+03  0.7546771E-02  0.1096938E+00
         21   -1    0    0  502  501  0.00000000000E+00  0.00000000000E+00  0.30614507598E+02  0.30614507598E+02  0.00000000000E+00 0.  1.
         21   -1    0    0  501  502 -0.00000000000E+00 -0.00000000000E+00 -0.25194215492E+04  0.25194215492E+04  0.00000000000E+00 0.  1.
         25    1    1    2    0    0  0.33874580678E+02  0.10751101188E+03 -0.90010645048E+03  0.91570886590E+03  0.12500000000E+03 0.  0.
         25    1    1    2    0    0 -0.45227020242E+02  0.78627592963E+02 -0.52778547823E+03  0.54991844192E+03  0.12500000000E+03 0.  0.
         25    1    1    2    0    0  0.11352439564E+02 -0.18613860484E+03 -0.10609151129E+04  0.10844087490E+04  0.12500000000E+03 0.  0.
</event>
<event>
 5    0  0.5653588E-005  0.2777714E+03  0.7546771E-02  0.1096912E+00
         21   -1    0    0  502  501  0.00000000000E+00  0.00000000000E+00  0.66300647009E+03  0.66300647009E+03  0.00000000000E+00 0.  1.
         21   -1    0    0  501  502 -0.00000000000E+00 -0.00000000000E+00 -0.11637437241E+03  0.11637437241E+03  0.00000000000E+00 0.  1.
         25    1    1    2    0    0  0.96749312749E+02  0.41167420063E+02  0.72523587137E+02  0.17871725346E+03  0.12500000000E+03 0.  0.
         25    1    1    2    0    0 -0.25353070745E+02 -0.99305426211E+02  0.86971761150E+02  0.18355771057E+03  0.12500000000E+03 0.  0.
         25    1    1    2    0    0 -0.71396242003E+02  0.58138006148E+02  0.38713674939E+03  0.41710587848E+03  0.12500000000E+03 0.  0.
</event>
<event>
 5    0  0.5653588E-005  0.3597115E+03  0.7546771E-02  0.1058698E+00
         21   -1    0    0  502  501  0.00000000000E+00  0.00000000000E+00  0.84642846369E+03  0.84642846369E+03  0.00000000000E+00 0. -1.
         21   -1    0    0  501  502 -0.00000000000E+00 -0.00000000000E+00 -0.15286864584E+03  0.15286864584E+03  0.00000000000E+00 0. -1.
         25    1    1    2    0    0  0.56878589121E+02 -0.38138526458E+02 -0.38060335168E+02  0.14752393099E+03  0.12500000000E+03 0.  0.
         25    1    1    2    0    0 -0.17996533274E+02 -0.97103120603E+02  0.89689286639E+02  0.18281701064E+03  0.12500000000E+03 0.  0.
         25    1    1    2    0    0 -0.38882055847E+02  0.13524164706E+03  0.64193086638E+03  0.66895616791E+03  0.12500000000E+03 0.  0.
</event>
<event>
 5    0  0.5653588E-005  0.2831695E+03  0.7546771E-02  0.1093970E+00
         21   -1    0    0  502  501  0.00000000000E+00  0.00000000000E+00  0.13961943342E+03  0.13961943342E+03  0.00000000000E+00 0. -1.
         21   -1    0    0  501  502 -0.00000000000E+00 -0.00000000000E+00 -0.57431109272E+03  0.57431109272E+03  0.00000000000E+00 0. -1.
         25    1    1    2    0    0 -0.63210633479E+02  0.52694166062E+02 -0.28522056520E+03  0.32209941033E+03  0.12500000000E+03 0.  0.
         25    1    1    2    0    0 -0.42076215618E+02  0.35172520744E+02 -0.15455846543E+03  0.20620580344E+03  0.12500000000E+03 0.  0.
         25    1    1    2    0    0  0.10528684910E+03 -0.87866686805E+02  0.50873713286E+01  0.18562531236E+03  0.12500000000E+03 0.  0.
</event>
<event>
 5    0  0.6332850E-005  0.3331049E+03  0.7546771E-02  0.1069771E+00
         21   -1    0    0  502  501  0.00000000000E+00  0.00000000000E+00  0.41156567998E+03  0.41156567998E+03  0.00000000000E+00 0.  1.
         21   -1    0    0  501  502 -0.00000000000E+00 -0.00000000000E+00 -0.26960183015E+03  0.26960183015E+03  0.00000000000E+00 0.  1.
         25    1    1    2    0    0 -0.74695714496E+02 -0.13073995796E+03  0.17689652401E+02  0.19649506399E+03  0.12500000000E+03 0.  0.
         25    1    1    2    0    0  0.53089082714E+02 -0.22235836269E+02  0.22356073489E+03  0.26252101878E+03  0.12500000000E+03 0.  0.
         25    1    1    2    0    0  0.21606631782E+02  0.15297579423E+03 -0.99286537462E+02  0.22215142736E+03  0.12500000000E+03 0.  0.
</event>
<event>
 5    0  0.5653588E-005  0.4015779E+03  0.7546771E-02  0.1043235E+00
         21   -1    0    0  502  501  0.00000000000E+00  0.00000000000E+00  0.11891588593E+03  0.11891588593E+03  0.00000000000E+00 0.  1.
         21   -1    0    0  501  502 -0.00000000000E+00 -0.00000000000E+00 -0.13561248594E+04  0.13561248594E+04  0.00000000000E+00 0.  1.
         25    1    1    2    0    0 -0.23197986023E+03  0.79329778289E+01 -0.25726964015E+03  0.36836158246E+03  0.12500000000E+03 0.  0.
         25    1    1    2    0    0  0.29720170688E+03 -0.10319476953E+03 -0.57193895466E+03  0.66461807295E+03  0.12500000000E+03 0.  0.
         25    1    1    2    0    0 -0.65221846653E+02  0.95261791705E+02 -0.40800037862E+03  0.44206108989E+03  0.12500000000E+03 0.  0.
</event>
<event>
 5    0  0.5670210E-005  0.3629630E+03  0.7546771E-02  0.1057417E+00
         21   -1    0    0  502  501  0.00000000000E+00  0.00000000000E+00  0.76186816305E+03  0.76186816305E+03  0.00000000000E+00 0. -1.
         21   -1    0    0  501  502 -0.00000000000E+00 -0.00000000000E+00 -0.17291982209E+03  0.17291982209E+03  0.00000000000E+00 0. -1.
         25    1    1    2    0    0 -0.76718957477E+02  0.62042026607E+02 -0.57341670592E+02  0.16925743318E+03  0.12500000000E+03 0.  0.
         25    1    1    2    0    0  0.13148269117E+03 -0.16016841101E+03  0.36931937338E+03  0.44154661987E+03  0.12500000000E+03 0.  0.
         25    1    1    2    0    0 -0.54763733696E+02  0.98126384403E+02  0.27697063816E+03  0.32398393208E+03  0.12500000000E+03 0.  0.
</event>
<event>
 5    0  0.5653588E-005  0.4061479E+03  0.7546771E-02  0.1041671E+00
         21   -1    0    0  502  501  0.00000000000E+00  0.00000000000E+00  0.16204457253E+03  0.16204457253E+03  0.00000000000E+00 0.  1.
         21   -1    0    0  501  502 -0.00000000000E+00 -0.00000000000E+00 -0.10179677970E+04  0.10179677970E+04  0.00000000000E+00 0.  1.
         25    1    1    2    0    0 -0.38648343573E+02  0.44740375367E+01  0.57680232007E+02  0.14305845182E+03  0.12500000000E+03 0.  0.
         25    1    1    2    0    0  0.13446986917E+03  0.16703952936E+03 -0.57200398139E+03  0.62353661064E+03  0.12500000000E+03 0.  0.
         25    1    1    2    0    0 -0.95821525597E+02 -0.17151356689E+03 -0.34159947505E+03  0.41341730703E+03  0.12500000000E+03 0.  0.
</event>
<event>
 5    0  0.5653588E-005  0.3168765E+03  0.7546771E-02  0.1077096E+00
         21   -1    0    0  502  501  0.00000000000E+00  0.00000000000E+00  0.70016848008E+02  0.70016848008E+02  0.00000000000E+00 0. -1.
         21   -1    0    0  501  502 -0.00000000000E+00 -0.00000000000E+00 -0.14340932556E+04  0.14340932556E+04  0.00000000000E+00 0. -1.
         25    1    1    2    0    0  0.73501707445E+02 -0.36778597456E+02 -0.58198816444E+03  0.60090797114E+03  0.12500000000E+03 0.  0.
         25    1    1    2    0    0 -0.19519102148E+03 -0.62062002327E+02 -0.32420577609E+03  0.40334304537E+03  0.12500000000E+03 0.  0.
         25    1    1    2    0    0  0.12168931403E+03  0.98840599783E+02 -0.45788246704E+03  0.49985908708E+03  0.12500000000E+03 0.  0.
</event>
<event>
 5    0  0.6183646E-005  0.4029497E+03  0.7546771E-02  0.1042763E+00
         21   -1    0    0  502  501  0.00000000000E+00  0.00000000000E+00  0.11785383177E+04  0.11785383177E+04  0.00000000000E+00 0.  1.
         21   -1    0    0  501  502 -0.00000000000E+00 -0.00000000000E+00 -0.13777105832E+03  0.13777105832E+03  0.00000000000E+00 0.  1.
         25    1    1    2    0    0 -0.42671710550E+02  0.19283453805E+03  0.52547269752E+03  0.57511093693E+03  0.12500000000E+03 0.  0.
         25    1    1    2    0    0  0.78421124658E+02  0.85201660069E+02  0.39367958689E+02  0.17488290895E+03  0.12500000000E+03 0.  0.
         25    1    1    2    0    0 -0.35749414108E+02 -0.27803619812E+03  0.47592660320E+03  0.56631553016E+03  0.12500000000E+03 0.  0.
</event>
<event>
 5    0  0.5653588E-005  0.3385240E+03  0.7546771E-02  0.1067426E+00
         21   -1    0    0  502  501  0.00000000000E+00  0.00000000000E+00  0.24126453837E+04  0.24126453837E+04  0.00000000000E+00 0.  1.
         21   -1    0    0  501  502 -0.00000000000E+00 -0.00000000000E+00 -0.47499117664E+02  0.47499117664E+02  0.00000000000E+00 0.  1.
         25    1    1    2    0    0 -0.87818132555E+02 -0.16897162794E+03  0.34755345291E+03  0.41555004282E+03  0.12500000000E+03 0.  0.
         25    1    1    2    0    0  0.79188668423E+02  0.82087298821E+02  0.81557056605E+03  0.83294028480E+03  0.12500000000E+03 0.  0.
         25    1    1    2    0    0  0.86294641324E+01  0.86884329118E+02  0.12020222471E+04  0.12116541737E+04  0.12500000000E+03 0.  0.
</event>
<event>
 5    0  0.7417835E-005  0.2694433E+03  0.7546771E-02  0.1101599E+00
         21   -1    0    0  502  501  0.00000000000E+00  0.00000000000E+00  0.58189821965E+03  0.58189821965E+03  0.00000000000E+00 0. -1.
         21   -1    0    0  501  502 -0.00000000000E+00 -0.00000000000E+00 -0.12476354053E+03  0.12476354053E+03  0.00000000000E+00 0. -1.
         25    1    1    2    0    0  0.15926458808E+00  0.91785925811E+02 -0.20221590980E+02  0.15639243679E+03  0.12500000000E+03 0.  0.
         25    1    1    2    0    0  0.21474488817E+02 -0.69559298303E+02  0.26501103574E+03  0.30191968918E+03  0.12500000000E+03 0.  0.
         25    1    1    2    0    0 -0.21633753405E+02 -0.22226627508E+02  0.21234523436E+03  0.24834963421E+03  0.12500000000E+03 0.  0.
</event>
<event>
 5    0  0.5653588E-005  0.3112681E+03  0.7546771E-02  0.1079740E+00
         21   -1    0    0  502  501  0.00000000000E+00  0.00000000000E+00  0.15704331217E+03  0.15704331217E+03  0.00000000000E+00 0. -1.
         21   -1    0    0  501  502 -0.00000000000E+00 -0.00000000000E+00 -0.61694991939E+03  0.61694991939E+03  0.00000000000E+00 0. -1.
         25    1    1    2    0    0  0.43673230006E+02  0.11195967561E+03 -0.41149652788E+03  0.44653859009E+03  0.12500000000E+03 0.  0.
         25    1    1    2    0    0 -0.94815315886E+02 -0.77744400707E+02  0.12191180911E+02  0.17552139716E+03  0.12500000000E+03 0.  0.
         25    1    1    2    0    0  0.51142085880E+02 -0.34215274899E+02 -0.60601260255E+02  0.15193324432E+03  0.12500000000E+03 0.  0.
</event>
<event>
 5    0  0.5653588E-005  0.2741907E+03  0.7546771E-02  0.1098905E+00
         21   -1    0    0  502  501  0.00000000000E+00  0.00000000000E+00  0.17262242100E+04  0.17262242100E+04  0.00000000000E+00 0. -1.
         21   -1    0    0  501  502 -0.00000000000E+00 -0.00000000000E+00 -0.43552024652E+02  0.43552024652E+02  0.00000000000E+00 0. -1.
         25    1    1    2    0    0  0.75611780654E+02 -0.12024728947E+03  0.42870796426E+03  0.46860652003E+03  0.12500000000E+03 0.  0.
         25    1    1    2    0    0  0.18197797477E+02  0.39760409097E+02  0.85497329345E+03  0.86516841278E+03  0.12500000000E+03 0.  0.
         25    1    1    2    0    0 -0.93809578131E+02  0.80486880376E+02  0.39899092761E+03  0.43600130180E+03  0.12500000000E+03 0.  0.
</event>
<event>
 5    0  0.5653588E-005  0.3834862E+03  0.7546771E-02  0.1049653E+00
         21   -1    0    0  502  501  0.00000000000E+00  0.00000000000E+00  0.34598868567E+03  0.34598868567E+03  0.00000000000E+00 0.  1.
         21   -1    0    0  501  502 -0.00000000000E+00 -0.00000000000E+00 -0.42504764157E+03  0.42504764157E+03  0.00000000000E+00 0.  1.
         25    1    1    2    0    0  0.79634949860E+02  0.18752576632E+03 -0.73771827306E+01  0.23913816320E+03  0.12500000000E+03 0.  0.
         25    1    1    2    0    0 -0.17283718078E+03 -0.27512182911E+03 -0.42961838778E+02  0.35076406815E+03  0.12500000000E+03 0.  0.
         25    1    1    2    0    0  0.93202230919E+02  0.87596062790E+02 -0.28719934387E+02  0.18113409589E+03  0.12500000000E+03 0.  0.
</event>
<event>
 5    0  0.5653588E-005  0.2840283E+03  0.7546771E-02  0.1093509E+00
         21   -1    0    0  502  501  0.00000000000E+00  0.00000000000E+00  0.11516168994E+03  0.11516168994E+03  0.00000000000E+00 0. -1.
         21   -1    0    0  501  502 -0.00000000000E+00 -0.00000000000E+00 -0.70051122852E+03  0.70051122852E+03  0.00000000000E+00 0. -1.
         25    1    1    2    0    0 -0.75326222578E+02 -0.63401670040E+02 -0.26155031314E+03  0.30614927384E+03  0.12500000000E+03 0.  0.
         25    1    1    2    0    0  0.87455069938E+02 -0.95651010429E+01  0.19413683532E+01  0.15286807818E+03  0.12500000000E+03 0.  0.
         25    1    1    2    0    0 -0.12128847360E+02  0.72966771083E+02 -0.32574059380E+03  0.35665556643E+03  0.12500000000E+03 0.  0.
</event>
<event>
 5    0  0.5653588E-005  0.2461234E+03  0.7546771E-02  0.1115780E+00
         21   -1    0    0  502  501  0.00000000000E+00  0.00000000000E+00  0.80433583102E+03  0.80433583102E+03  0.00000000000E+00 0.  1.
         21   -1    0    0  501  502 -0.00000000000E+00 -0.00000000000E+00 -0.75312719624E+02  0.75312719624E+02  0.00000000000E+00 0.  1.
         25    1    1    2    0    0 -0.91557735733E+02 -0.41114319626E+02  0.19258872027E+03  0.25057657797E+03  0.12500000000E+03 0.  0.
         25    1    1    2    0    0 -0.42942771803E+02 -0.12849093487E+02  0.17049428963E+03  0.21610757426E+03  0.12500000000E+03 0.  0.
         25    1    1    2    0    0  0.13450050754E+03  0.53963413113E+02  0.36594010149E+03  0.41296439842E+03  0.12500000000E+03 0.  0.
</event>
<event>
 5    0  0.5653588E-005  0.2246707E+03  0.7546771E-02  0.1130448E+00
         21   -1    0    0  502  501  0.00000000000E+00  0.00000000000E+00  0.86234035211E+02  0.86234035211E+02  0.00000000000E+00 0.  1.
         21   -1    0    0  501  502 -0.00000000000E+00 -0.00000000000E+00 -0.58534780904E+03  0.58534780904E+03  0.00000000000E+00 0.  1.
         25    1    1    2    0    0 -0.67157120224E+02  0.79683374304E+02 -0.14891089345E+03  0.22058779006E+03  0.12500000000E+03 0.  0.
         25    1    1    2    0    0  0.74595958977E+02 -0.27104581895E+02 -0.17244272691E+03  0.22728992393E+03  0.12500000000E+03 0.  0.
         25    1    1    2    0    0 -0.74388387530E+01 -0.52578792409E+02 -0.17776015347E+03  0.22370413026E+03  0.12500000000E+03 0.  0.
</event>
<event>
 5    0  0.5653588E-005  0.4136962E+03  0.7546771E-02  0.1039138E+00
         21   -1    0    0  502  501  0.00000000000E+00  0.00000000000E+00  0.20816850465E+03  0.20816850465E+03  0.00000000000E+00 0. -1.
         21   -1    0    0  501  502 -0.00000000000E+00 -0.00000000000E+00 -0.82214411087E+03  0.82214411087E+03  0.00000000000E+00 0. -1.
         25    1    1    2    0    0  0.11583035420E+03 -0.14340127549E+03 -0.40649235970E+03  0.46351012422E+03  0.12500000000E+03 0.  0.
         25    1    1    2    0    0  0.31310594996E+02 -0.11159897603E+03 -0.17662755917E+03  0.24547297095E+03  0.12500000000E+03 0.  0.
         25    1    1    2    0    0 -0.14714094920E+03  0.25500025151E+03 -0.30855687352E+02  0.32132952034E+03  0.12500000000E+03 0.  0.
</event>
<event>
 5    0  0.5916926E-005  0.2443990E+03  0.7546771E-02  0.1116897E+00
         21   -1    0    0  502  501  0.00000000000E+00  0.00000000000E+00  0.23568610884E+03  0.23568610884E+03  0.00000000000E+00 0. -1.
         21   -1    0    0  501  502 -0.00000000000E+00 -0.00000000000E+00 -0.25343400908E+03  0.25343400908E+03  0.00000000000E+00 0. -1.
         25    1    1    2    0    0 -0.45331208512E+02  0.13277407548E+03  0.41576346844E+02  0.19245120473E+03  0.12500000000E+03 0.  0.
         25    1    1    2    0    0  0.38965604038E+02 -0.54835592879E+02 -0.15197755770E+02  0.14276285345E+03  0.12500000000E+03 0.  0.
         25    1    1    2    0    0  0.63656044741E+01 -0.77938482598E+02 -0.44126491308E+02  0.15390605974E+03  0.12500000000E+03 0.  0.
</event>
<event>
 5    0  0.5653588E-005  0.6644663E+03  0.7546771E-02  0.9780007E-01
         21   -1    0    0  502  501  0.00000000000E+00  0.00000000000E+00  0.16168970108E+04  0.16168970108E+04  0.00000000000E+00 0.  1.
         21   -1    0    0  501  502 -0.00000000000E+00 -0.00000000000E+00 -0.27306346082E+03  0.27306346082E+03  0.00000000000E+00 0.  1.
         25    1    1    2    0    0  0.50779231515E+02  0.12390698866E+03 -0.90680370738E+02  0.20440010232E+03  0.12500000000E+03 0.  0.
         25    1    1    2    0    0 -0.22456536752E+03 -0.16792218639E+03  0.14345270728E+04  0.14670106978E+04  0.12500000000E+03 0.  0.
         25    1    1    2    0    0  0.17378613600E+03  0.44015197734E+02 -0.13152135307E-01  0.21854967140E+03  0.12500000000E+03 0.  0.
</event>
<event>
 5    0  0.5653588E-005  0.2687536E+03  0.7546771E-02  0.1101995E+00
         21   -1    0    0  502  501  0.00000000000E+00  0.00000000000E+00  0.16484003344E+04  0.16484003344E+04  0.00000000000E+00 0.  1.
         21   -1    0    0  501  502 -0.00000000000E+00 -0.00000000000E+00 -0.43817324562E+02  0.43817324562E+02  0.00000000000E+00 0.  1.
         25    1    1    2    0    0  0.12780171892E+02 -0.26746374762E+02  0.31022519479E+03  0.33577279943E+03  0.12500000000E+03 0.  0.
         25    1    1    2    0    0  0.14853685797E+03 -0.23234868013E+02  0.61274312355E+03  0.64318130626E+03  0.12500000000E+03 0.  0.
         25    1    1    2    0    0 -0.16131702986E+03  0.49981242775E+02  0.68161469150E+03  0.71326355327E+03  0.12500000000E+03 0.  0.
</event>
<event>
 5    0  0.5653588E-005  0.2739189E+03  0.7546771E-02  0.1099057E+00
         21   -1    0    0  502  501  0.00000000000E+00  0.00000000000E+00  0.28276545415E+02  0.28276545415E+02  0.00000000000E+00 0.  1.
         21   -1    0    0  501  502 -0.00000000000E+00 -0.00000000000E+00 -0.26534915260E+04  0.26534915260E+04  0.00000000000E+00 0.  1.
         25    1    1    2    0    0 -0.62104209821E+02  0.79845552040E+02 -0.56389487213E+03  0.58637417394E+03  0.12500000000E+03 0.  0.
         25    1    1    2    0    0  0.16637779070E+02 -0.10718004300E+03 -0.17216538151E+04  0.17295899041E+04  0.12500000000E+03 0.  0.
         25    1    1    2    0    0  0.45466430752E+02  0.27334490959E+02 -0.33966629330E+03  0.36580399332E+03  0.12500000000E+03 0.  0.
</event>
<event>
 5    0  0.5653588E-005  0.2513226E+03  0.7546771E-02  0.1112472E+00
         21   -1    0    0  502  501  0.00000000000E+00  0.00000000000E+00  0.15527973141E+04  0.15527973141E+04  0.00000000000E+00 0. -1.
         21   -1    0    0  501  502 -0.00000000000E+00 -0.00000000000E+00 -0.40676937565E+02  0.40676937565E+02  0.00000000000E+00 0. -1.
         25    1    1    2    0    0  0.75830604159E+02 -0.47006348490E+02  0.60076846196E+03  0.62008678603E+03  0.12500000000E+03 0.  0.
         25    1    1    2    0    0  0.54353693572E+01 -0.41745903499E+02  0.62338861211E+03  0.63718963065E+03  0.12500000000E+03 0.  0.
         25    1    1    2    0    0 -0.81265973516E+02  0.88752251989E+02  0.28796330250E+03  0.33619783502E+03  0.12500000000E+03 0.  0.
</event>
<event>
 5    0  0.5653588E-005  0.2249468E+03  0.7546771E-02  0.1130248E+00
         21   -1    0    0  502  501  0.00000000000E+00  0.00000000000E+00  0.55717999914E+03  0.55717999914E+03  0.00000000000E+00 0.  1.
         21   -1    0    0  501  502 -0.00000000000E+00 -0.00000000000E+00 -0.90816386184E+02  0.90816386184E+02  0.00000000000E+00 0.  1.
         25    1    1    2    0    0 -0.40203208406E+02 -0.63432152322E+02  0.61294869508E+02  0.15818342815E+03  0.12500000000E+03 0.  0.
         25    1    1    2    0    0  0.52894880332E+02  0.56891799268E+02  0.18594823712E+03  0.23714192391E+03  0.12500000000E+03 0.  0.
         25    1    1    2    0    0 -0.12691671926E+02  0.65403530540E+01  0.21912050632E+03  0.25267103325E+03  0.12500000000E+03 0.  0.
</event>
<event>
 5    0  0.5653588E-005  0.4839110E+03  0.7546771E-02  0.1018066E+00
         21   -1    0    0  502  501  0.00000000000E+00  0.00000000000E+00  0.15446554797E+03  0.15446554797E+03  0.00000000000E+00 0.  1.
         21   -1    0    0  501  502 -0.00000000000E+00 -0.00000000000E+00 -0.15160006499E+04  0.15160006499E+04  0.00000000000E+00 0.  1.
         25    1    1    2    0    0  0.45744804005E+02  0.20137546877E+02 -0.21219069067E+03  0.25129265229E+03  0.12500000000E+03 0.  0.
         25    1    1    2    0    0  0.33830537044E+03  0.76629648259E+02 -0.78261739019E+03  0.86512288497E+03  0.12500000000E+03 0.  0.
         25    1    1    2    0    0 -0.38405017444E+03 -0.96767195136E+02 -0.36672702105E+03  0.55405066060E+03  0.12500000000E+03 0.  0.
</event>
<event>
 5    0  0.5653588E-005  0.3077561E+03  0.7546771E-02  0.1081426E+00
         21   -1    0    0  502  501  0.00000000000E+00  0.00000000000E+00  0.63414488593E+03  0.63414488593E+03  0.00000000000E+00 0. -1.
         21   -1    0    0  501  502 -0.00000000000E+00 -0.00000000000E+00 -0.14935673839E+03  0.14935673839E+03  0.00000000000E+00 0. -1.
         25    1    1    2    0    0 -0.41749367225E+02  0.11334231566E+03  0.31171825778E+03  0.35690721822E+03  0.12500000000E+03 0.  0.
         25    1    1    2    0    0 -0.23281133872E+02  0.12022552639E+02  0.19875530532E+03  0.23625245895E+03  0.12500000000E+03 0.  0.
         25    1    1    2    0    0  0.65030501097E+02 -0.12536486830E+03 -0.25685415561E+02  0.19034194716E+03  0.12500000000E+03 0.  0.
</event>
<event>
 5    0  0.5964581E-005  0.2659250E+03  0.7546771E-02  0.1103635E+00
         21   -1    0    0  502  501  0.00000000000E+00  0.00000000000E+00  0.31456832709E+03  0.31456832709E+03  0.00000000000E+00 0.  1.
         21   -1    0    0  501  502 -0.00000000000E+00 -0.00000000000E+00 -0.22480360209E+03  0.22480360209E+03  0.00000000000E+00 0.  1.
         25    1    1    2    0    0 -0.99606191869E+02  0.62633698627E+01  0.46376874961E+01  0.16002228409E+03  0.12500000000E+03 0.  0.
         25    1    1    2    0    0  0.59236784959E+02 -0.36586261720E+02 -0.81775423692E+02  0.16480221831E+03  0.12500000000E+03 0.  0.
         25    1    1    2    0    0  0.40369406910E+02  0.30322891858E+02  0.16690246120E+03  0.21454742678E+03  0.12500000000E+03 0.  0.
</event>
<event>
 5    0  0.5653588E-005  0.3029470E+03  0.7546771E-02  0.1083777E+00
         21   -1    0    0  502  501  0.00000000000E+00  0.00000000000E+00  0.14509011775E+03  0.14509011775E+03  0.00000000000E+00 0. -1.
         21   -1    0    0  501  502 -0.00000000000E+00 -0.00000000000E+00 -0.63255104356E+03  0.63255104356E+03  0.00000000000E+00 0. -1.
         25    1    1    2    0    0  0.13059589563E+02  0.69017080833E+02 -0.13245883188E+03  0.19520310568E+03  0.12500000000E+03 0.  0.
         25    1    1    2    0    0  0.55934985312E+02 -0.10155497227E+03 -0.39534907018E+03  0.43054386799E+03  0.12500000000E+03 0.  0.
         25    1    1    2    0    0 -0.68994574875E+02  0.32537891442E+02  0.40346976249E+02  0.15189418762E+03  0.12500000000E+03 0.  0.
</event>
<event>
 5    0  0.5653588E-005  0.3194452E+03  0.7546771E-02  0.1075905E+00
         21   -1    0    0  502  501  0.00000000000E+00  0.00000000000E+00  0.15753916830E+04  0.15753916830E+04  0.00000000000E+00 0. -1.
         21   -1    0    0  501  502 -0.00000000000E+00 -0.00000000000E+00 -0.64774529277E+02  0.64774529277E+02  0.00000000000E+00 0. -1.
         25    1    1    2    0    0 -0.10585076577E+03 -0.12789832684E+03  0.72597733806E+03  0.75513605530E+03  0.12500000000E+03 0.  0.
         25    1    1    2    0    0  0.80181816696E+02 -0.40452963564E+02  0.14519469137E+03  0.21159410292E+03  0.12500000000E+03 0.  0.
         25    1    1    2    0    0  0.25668949077E+02  0.16835129041E+03  0.63944512425E+03  0.67343605402E+03  0.12500000000E+03 0.  0.
</event>
<event>
 5    0  0.5653588E-005  0.2695139E+03  0.7546771E-02  0.1101558E+00
         21   -1    0    0  502  501  0.00000000000E+00  0.00000000000E+00  0.24612456411E+04  0.24612456411E+04  0.00000000000E+00 0.  1.
         21   -1    0    0  501  502 -0.00000000000E+00 -0.00000000000E+00 -0.29512592098E+02  0.29512592098E+02  0.00000000000E+00 0.  1.
         25    1    1    2    0    0  0.99005942236E+02  0.58871830349E+02  0.81164901549E+03  0.82925701284E+03  0.12500000000E+03 0.  0.
         25    1    1    2    0    0  0.59430207238E+01  0.13528901906E+02  0.11782283837E+04  0.11849326879E+04  0.12500000000E+03 0.  0.
         25    1    1    2    0    0 -0.10494896296E+03 -0.72400732255E+02  0.44185564977E+03  0.47656853241E+03  0.12500000000E+03 0.  0.
</event>
<event>
 5    0  0.5653588E-005  0.6975437E+03  0.7546771E-02  0.9721442E-01
         21   -1    0    0  502  501  0.00000000000E+00  0.00000000000E+00  0.42348484397E+03  0.42348484397E+03  0.00000000000E+00 0.  1.
         21   -1    0    0  501  502 -0.00000000000E+00 -0.00000000000E+00 -0.11489601486E+04  0.11489601486E+04  0.00000000000E+00 0. -1.
         25    1    1    2    0    0  0.60015675265E+03  0.23704392238E+02 -0.47236828550E+03  0.77427825948E+03  0.12500000000E+03 0.  0.
         25    1    1    2    0    0 -0.23340101170E+03  0.16518277415E+02  0.88902870329E+02  0.27978135410E+03  0.12500000000E+03 0.  0.
         25    1    1    2    0    0 -0.36675574095E+03 -0.40222669653E+02 -0.34200988951E+03  0.51838537903E+03  0.12500000000E+03 0.  0.
</event>
<event>
 5    0  0.5653588E-005  0.2647997E+03  0.7546771E-02  0.1104293E+00
         21   -1    0    0  502  501  0.00000000000E+00  0.00000000000E+00  0.82856266187E+03  0.82856266187E+03  0.00000000000E+00 0.  1.
         21   -1    0    0  501  502 -0.00000000000E+00 -0.00000000000E+00 -0.84627145996E+02  0.84627145996E+02  0.00000000000E+00 0.  1.
         25    1    1    2    0    0  0.10028433876E+03  0.10029991221E+03  0.33517898470E+03  0.38482070211E+03  0.12500000000E+03 0.  0.
         25    1    1    2    0    0  0.18489551621E+02  0.14538639814E+02  0.14253137869E+03  0.19103253513E+03  0.12500000000E+03 0.  0.
         25    1    1    2    0    0 -0.11877389038E+03 -0.11483855202E+03  0.26622515249E+03  0.33733657063E+03  0.12500000000E+03 0.  0.
</event>
<event>
 5    0  0.5653588E-005  0.2371175E+03  0.7546771E-02  0.1121728E+00
         21   -1    0    0  502  501  0.00000000000E+00  0.00000000000E+00  0.26805321113E+03  0.26805321113E+03  0.00000000000E+00 0. -1.
         21   -1    0    0  501  502 -0.00000000000E+00 -0.00000000000E+00 -0.20975197493E+03  0.20975197493E+03  0.00000000000E+00 0. -1.
         25    1    1    2    0    0  0.29365655717E+02 -0.19747304200E+01  0.19787863441E+02  0.12993383253E+03  0.12500000000E+03 0.  0.
         25    1    1    2    0    0 -0.29466856590E+02  0.29198401451E+02  0.13426439091E+03  0.18807649760E+03  0.12500000000E+03 0.  0.
         25    1    1    2    0    0  0.10120087355E+00 -0.27223671031E+02 -0.95751018143E+02  0.15979485593E+03  0.12500000000E+03 0.  0.
</event>
<event>
 5    0  0.5653588E-005  0.2938303E+03  0.7546771E-02  0.1088366E+00
         21   -1    0    0  502  501  0.00000000000E+00  0.00000000000E+00  0.12423622755E+04  0.12423622755E+04  0.00000000000E+00 0.  1.
         21   -1    0    0  501  502 -0.00000000000E+00 -0.00000000000E+00 -0.69493637219E+02  0.69493637219E+02  0.00000000000E+00 0.  1.
         25    1    1    2    0    0  0.80400317077E+02 -0.43725293180E+02  0.19253738046E+03  0.24712700201E+03  0.12500000000E+03 0.  0.
         25    1    1    2    0    0 -0.56606017496E+02 -0.28801106739E+02  0.99802915389E+02  0.17210278001E+03  0.12500000000E+03 0.  0.
         25    1    1    2    0    0 -0.23794299581E+02  0.72526399918E+02  0.88052834240E+03  0.89262613066E+03  0.12500000000E+03 0.  0.
</event>
<event>
 5    0  0.5653588E-005  0.3155936E+03  0.7546771E-02  0.1077695E+00
         21   -1    0    0  502  501  0.00000000000E+00  0.00000000000E+00  0.19691204809E+03  0.19691204809E+03  0.00000000000E+00 0.  1.
         21   -1    0    0  501  502 -0.00000000000E+00 -0.00000000000E+00 -0.50580605552E+03  0.50580605552E+03  0.00000000000E+00 0.  1.
         25    1    1    2    0    0  0.76964523637E+02  0.29138904151E+02 -0.13856175601E+02  0.15029839399E+03  0.12500000000E+03 0.  0.
         25    1    1    2    0    0  0.16972942989E+01 -0.15175994062E+02  0.79942261068E+02  0.14916084174E+03  0.12500000000E+03 0.  0.
         25    1    1    2    0    0 -0.78661817936E+02 -0.13962910089E+02 -0.37498009290E+03  0.40325886789E+03  0.12500000000E+03 0.  0.
</event>
<event>
 5    0  0.5653588E-005  0.4198912E+03  0.7546771E-02  0.1037102E+00
         21   -1    0    0  502  501  0.00000000000E+00  0.00000000000E+00  0.16426918545E+04  0.16426918545E+04  0.00000000000E+00 0. -1.
         21   -1    0    0  501  502 -0.00000000000E+00 -0.00000000000E+00 -0.10732911288E+03  0.10732911288E+03  0.00000000000E+00 0. -1.
         25    1    1    2    0    0 -0.24685262891E+03  0.12696828178E+02  0.36066340725E+03  0.45475325527E+03  0.12500000000E+03 0.  0.
         25    1    1    2    0    0  0.87593766156E+02  0.18512348952E+03  0.72721456674E+03  0.76577372658E+03  0.12500000000E+03 0.  0.
         25    1    1    2    0    0  0.15925886276E+03 -0.19782031770E+03  0.44748476762E+03  0.52949398553E+03  0.12500000000E+03 0.  0.
</event>
<event>
 5    0  0.5653588E-005  0.2516325E+03  0.7546771E-02  0.1112277E+00
         21   -1    0    0  502  501  0.00000000000E+00  0.00000000000E+00  0.21791221447E+03  0.21791221447E+03  0.00000000000E+00 0. -1.
         21   -1    0    0  501  502 -0.00000000000E+00 -0.00000000000E+00 -0.29057080555E+03  0.29057080555E+03  0.00000000000E+00 0. -1.
         25    1    1    2    0    0  0.43697353477E+02  0.42643466401E+02  0.10879675922E+02  0.13953956885E+03  0.12500000000E+03 0.  0.
         25    1    1    2    0    0 -0.15626062267E+02  0.63719128782E+02  0.55824075943E+02  0.15180786755E+03  0.12500000000E+03 0.  0.
         25    1    1    2    0    0 -0.28071291210E+02 -0.10636259518E+03 -0.13936234294E+03  0.21713558362E+03  0.12500000000E+03 0.  0.
</event>
<event>
 5    0  0.5653588E-005  0.3126969E+03  0.7546771E-02  0.1079060E+00
         21   -1    0    0  502  501  0.00000000000E+00  0.00000000000E+00  0.75227244989E+03  0.75227244989E+03  0.00000000000E+00 0.  1.
         21   -1    0    0  501  502 -0.00000000000E+00 -0.00000000000E+00 -0.12997865075E+03  0.12997865075E+03  0.00000000000E+00 0.  1.
         25    1    1    2    0    0  0.46499324280E+02 -0.20291495544E+03  0.25603065870E+03  0.35286451295E+03  0.12500000000E+03 0.  0.
         25    1    1    2    0    0 -0.11200246700E+03  0.71917485341E+02  0.12774451403E+03  0.22284599655E+03  0.12500000000E+03 0.  0.
         25    1    1    2    0    0  0.65503142723E+02  0.13099747010E+03  0.23851862641E+03  0.30654059115E+03  0.12500000000E+03 0.  0.
</event>
<event>
 5    0  0.7097486E-005  0.2957878E+03  0.7546771E-02  0.1087365E+00
         21   -1    0    0  502  501  0.00000000000E+00  0.00000000000E+00  0.38722087517E+03  0.38722087517E+03  0.00000000000E+00 0. -1.
         21   -1    0    0  501  502 -0.00000000000E+00 -0.00000000000E+00 -0.22594442012E+03  0.22594442012E+03  0.00000000000E+00 0. -1.
         25    1    1    2    0    0  0.28947826423E+02 -0.14806511379E+03  0.18543806999E+02  0.19679971381E+03  0.12500000000E+03 0.  0.
         25    1    1    2    0    0  0.30269170527E+02  0.47853279288E+02  0.19436657520E+03  0.23792756162E+03  0.12500000000E+03 0.  0.
         25    1    1    2    0    0 -0.59216996950E+02  0.10021183450E+03 -0.51633927144E+02  0.17843801987E+03  0.12500000000E+03 0.  0.
</event>
<event>
 5    0  0.5653588E-005  0.4019718E+03  0.7546771E-02  0.1043099E+00
         21   -1    0    0  502  501  0.00000000000E+00  0.00000000000E+00  0.68337567336E+03  0.68337567336E+03  0.00000000000E+00 0. -1.
         21   -1    0    0  501  502 -0.00000000000E+00 -0.00000000000E+00 -0.23644577231E+03  0.23644577231E+03  0.00000000000E+00 0. -1.
         25    1    1    2    0    0 -0.12066944641E+03 -0.84515469989E+02  0.42371849582E+03  0.46568910623E+03  0.12500000000E+03 0.  0.
         25    1    1    2    0    0  0.13349272940E+03  0.18557540703E+02 -0.14494761238E+03  0.23409293337E+03  0.12500000000E+03 0.  0.
         25    1    1    2    0    0 -0.12823282986E+02  0.65957929286E+02  0.16815901761E+03  0.22003940607E+03  0.12500000000E+03 0.  0.
</event>
<event>
 5    0  0.5653588E-005  0.6826798E+03  0.7546771E-02  0.9747319E-01
         21   -1    0    0  502  501  0.00000000000E+00  0.00000000000E+00  0.75350953248E+03  0.75350953248E+03  0.00000000000E+00 0. -1.
         21   -1    0    0  501  502 -0.00000000000E+00 -0.00000000000E+00 -0.61850796056E+03  0.61850796056E+03  0.00000000000E+00 0. -1.
         25    1    1    2    0    0 -0.36248711099E+02 -0.25143289798E+03  0.14110839450E+03  0.31633692519E+03  0.12500000000E+03 0.  0.
         25    1    1    2    0    0  0.18789000490E+02 -0.33983630744E+02 -0.47484608388E+03  0.49255630853E+03  0.12500000000E+03 0.  0.
         25    1    1    2    0    0  0.17459710609E+02  0.28541652872E+03  0.46873926129E+03  0.56312425932E+03  0.12500000000E+03 0.  0.
</event>
<event>
 5    0  0.5653588E-005  0.5120833E+03  0.7546771E-02  0.1010672E+00
         21   -1    0    0  502  501  0.00000000000E+00  0.00000000000E+00  0.31208225542E+03  0.31208225542E+03  0.00000000000E+00 0. -1.
         21   -1    0    0  501  502 -0.00000000000E+00 -0.00000000000E+00 -0.84025702304E+03  0.84025702304E+03  0.00000000000E+00 0. -1.
         25    1    1    2    0    0 -0.81990107586E+02 -0.14490885348E+03 -0.34507613729E+03  0.40301798233E+03  0.12500000000E+03 0.  0.
         25    1    1    2    0    0  0.54990060370E+02 -0.48016307152E+02  0.23234573667E+03  0.27374991113E+03  0.12500000000E+03 0.  0.
         25    1    1    2    0    0  0.27000047215E+02  0.19292516064E+03 -0.41544436700E+03  0.47557138500E+03  0.12500000000E+03 0.  0.
</event>
<event>
 5    0  0.5653588E-005  0.2135494E+03  0.7546771E-02  0.1138786E+00
         21   -1    0    0  502  501  0.00000000000E+00  0.00000000000E+00  0.35073345746E+02  0.35073345746E+02  0.00000000000E+00 0. -1.
         21   -1    0    0  501  502 -0.00000000000E+00 -0.00000000000E+00 -0.13002279214E+04  0.13002279214E+04  0.00000000000E+00 0. -1.
         25    1    1    2    0    0  0.42280846287E+02 -0.64383327324E+01 -0.38799922355E+03  0.40987500481E+03  0.12500000000E+03 0.  0.
         25    1    1    2    0    0  0.32116371402E+02  0.17873082550E+01 -0.58447574282E+03  0.59855789171E+03  0.12500000000E+03 0.  0.
         25    1    1    2    0    0 -0.74397217689E+02  0.46510244774E+01 -0.29267960932E+03  0.32686837066E+03  0.12500000000E+03 0.  0.
</event>
<event>
 5    0  0.5653588E-005  0.3488723E+03  0.7546771E-02  0.1063079E+00
         21   -1    0    0  502  501  0.00000000000E+00  0.00000000000E+00  0.20753305055E+04  0.20753305055E+04  0.00000000000E+00 0. -1.
         21   -1    0    0  501  502 -0.00000000000E+00 -0.00000000000E+00 -0.58646992803E+02  0.58646992803E+02  0.00000000000E+00 0. -1.
         25    1    1    2    0    0 -0.41686119019E+00 -0.11206761428E+02  0.13089744779E+04  0.13149771667E+04  0.12500000000E+03 0.  0.
         25    1    1    2    0    0  0.69986408883E+02 -0.13111898483E+03  0.46125130482E+03  0.50046783294E+03  0.12500000000E+03 0.  0.
         25    1    1    2    0    0 -0.69569547692E+02  0.14232574626E+03  0.24645773003E+03  0.31853249866E+03  0.12500000000E+03 0.  0.
</event>
<event>
 5    0  0.5653588E-005  0.5011377E+03  0.7546771E-02  0.1013482E+00
         21   -1    0    0  502  501  0.00000000000E+00  0.00000000000E+00  0.13819077666E+03  0.13819077666E+03  0.00000000000E+00 0.  1.
         21   -1    0    0  501  502 -0.00000000000E+00 -0.00000000000E+00 -0.18173351821E+04  0.18173351821E+04  0.00000000000E+00 0.  1.
         25    1    1    2    0    0  0.30631672633E+03  0.22103570883E+03 -0.32815297730E+03  0.51574809541E+03  0.12500000000E+03 0.  0.
         25    1    1    2    0    0 -0.56532464782E+02 -0.59678484734E+01 -0.27265987815E+03  0.30528665864E+03  0.12500000000E+03 0.  0.
         25    1    1    2    0    0 -0.24978426155E+03 -0.21506786036E+03 -0.10783315500E+04  0.11344912047E+04  0.12500000000E+03 0.  0.
</event>
<event>
 5    0  0.5653588E-005  0.3720136E+03  0.7546771E-02  0.1053926E+00
         21   -1    0    0  502  501  0.00000000000E+00  0.00000000000E+00  0.21070882923E+03  0.21070882923E+03  0.00000000000E+00 0. -1.
         21   -1    0    0  501  502 -0.00000000000E+00 -0.00000000000E+00 -0.65680254590E+03  0.65680254590E+03  0.00000000000E+00 0. -1.
         25    1    1    2    0    0  0.13596466698E+03 -0.11441710110E+03  0.79255223404E+02  0.23126619755E+03  0.12500000000E+03 0.  0.
         25    1    1    2    0    0 -0.66153707910E+02  0.10513977235E+03 -0.42800675244E+03  0.46286657358E+03  0.12500000000E+03 0.  0.
         25    1    1    2    0    0 -0.69810959071E+02  0.92773287509E+01 -0.97342187639E+02  0.17337860401E+03  0.12500000000E+03 0.  0.
</event>
<event>
 5    0  0.5653588E-005  0.2352267E+03  0.7546771E-02  0.1123014E+00
         21   -1    0    0  502  501  0.00000000000E+00  0.00000000000E+00  0.89648431926E+02  0.89648431926E+02  0.00000000000E+00 0. -1.
         21   -1    0    0  501  502 -0.00000000000E+00 -0.00000000000E+00 -0.61720680839E+03  0.61720680839E+03  0.00000000000E+00 0. -1.
         25    1    1    2    0    0  0.38114995271E+02 -0.86957711184E+02 -0.16965907995E+03  0.23113545770E+03  0.12500000000E+03 0.  0.
         25    1    1    2    0    0  0.55045943508E+02  0.41322372866E+02 -0.11383321563E+03  0.18253929817E+03  0.12500000000E+03 0.  0.
         25    1    1    2    0    0 -0.93160938779E+02  0.45635338318E+02 -0.24406608089E+03  0.29318048444E+03  0.12500000000E+03 0.  0.
</event>
<event>
 5    0  0.5653588E-005  0.2194048E+03  0.7546771E-02  0.1134328E+00
         21   -1    0    0  502  501  0.00000000000E+00  0.00000000000E+00  0.47802323383E+03  0.47802323383E+03  0.00000000000E+00 0.  1.
         21   -1    0    0  501  502 -0.00000000000E+00 -0.00000000000E+00 -0.10070315860E+03  0.10070315860E+03  0.00000000000E+00 0.  1.
         25    1    1    2    0    0  0.43007062501E+02  0.78844449888E+02  0.16306790477E+03  0.22423691995E+03  0.12500000000E+03 0.  0.
         25    1    1    2    0    0 -0.50134447857E+02 -0.70995123872E+01  0.13037552920E+03  0.18758103463E+03  0.12500000000E+03 0.  0.
         25    1    1    2    0    0  0.71273853563E+01 -0.71744937501E+02  0.83876641261E+02  0.16690843786E+03  0.12500000000E+03 0.  0.
</event>
<event>
 5    0  0.5653588E-005  0.5752077E+03  0.7546771E-02  0.9958221E-01
         21   -1    0    0  502  501  0.00000000000E+00  0.00000000000E+00  0.11791362904E+04  0.11791362904E+04  0.00000000000E+00 0. -1.
         21   -1    0    0  501  502 -0.00000000000E+00 -0.00000000000E+00 -0.28059849301E+03  0.28059849301E+03  0.00000000000E+00 0. -1.
         25    1    1    2    0    0  0.36289157517E+02  0.30005022308E+03  0.96215220554E+03  0.10162228623E+04  0.12500000000E+03 0.  0.
         25    1    1    2    0    0 -0.91254406439E+02 -0.82030048013E+02 -0.63333464071E+02  0.18625902164E+03  0.12500000000E+03 0.  0.
         25    1    1    2    0    0  0.54965248922E+02 -0.21802017506E+03 -0.28094410441E+00  0.25725289941E+03  0.12500000000E+03 0.  0.
</event>
<event>
 5    0  0.5858887E-005  0.4485910E+03  0.7546771E-02  0.1028143E+00
         21   -1    0    0  502  501  0.00000000000E+00  0.00000000000E+00  0.22884181879E+03  0.22884181879E+03  0.00000000000E+00 0.  1.
         21   -1    0    0  501  502 -0.00000000000E+00 -0.00000000000E+00 -0.87935816446E+03  0.87935816446E+03  0.00000000000E+00 0.  1.
         25    1    1    2    0    0 -0.16302558315E+03  0.19396278684E+03 -0.50802659731E+03  0.58130450456E+03  0.12500000000E+03 0.  0.
         25    1    1    2    0    0  0.90143204351E+02 -0.27248062442E+03 -0.17565942397E+03  0.35896061233E+03  0.12500000000E+03 0.  0.
         25    1    1    2    0    0  0.72882378803E+02  0.78517837584E+02  0.33169675620E+02  0.16793486636E+03  0.12500000000E+03 0.  0.
</event>
<event>
 5    0  0.5653588E-005  0.2893000E+03  0.7546771E-02  0.1090715E+00
         21   -1    0    0  502  501  0.00000000000E+00  0.00000000000E+00  0.74731529539E+02  0.74731529539E+02  0.00000000000E+00 0. -1.
         21   -1    0    0  501  502 -0.00000000000E+00 -0.00000000000E+00 -0.11199355356E+04  0.11199355356E+04  0.00000000000E+00 0. -1.
         25    1    1    2    0    0  0.15330243355E+03  0.19677626302E+02 -0.68319396423E+03  0.71152500860E+03  0.12500000000E+03 0.  0.
         25    1    1    2    0    0 -0.10786259485E+03 -0.45744764399E+01 -0.28309327904E+03  0.32775306229E+03  0.12500000000E+03 0.  0.
         25    1    1    2    0    0 -0.45439838702E+02 -0.15103149862E+02 -0.78916762753E+02  0.15538899421E+03  0.12500000000E+03 0.  0.
</event>
<event>
 5    0  0.5653588E-005  0.3868850E+03  0.7546771E-02  0.1048418E+00
         21   -1    0    0  502  501  0.00000000000E+00  0.00000000000E+00  0.18106080896E+04  0.18106080896E+04  0.00000000000E+00 0. -1.
         21   -1    0    0  501  502 -0.00000000000E+00 -0.00000000000E+00 -0.82668367759E+02  0.82668367759E+02  0.00000000000E+00 0.  1.
         25    1    1    2    0    0 -0.21844586812E+03  0.32429641636E+02  0.76216949954E+03  0.80330419206E+03  0.12500000000E+03 0.  0.
         25    1    1    2    0    0  0.25333835282E+03 -0.15809841852E+03  0.65086659391E+03  0.72693036394E+03  0.12500000000E+03 0.  0.
         25    1    1    2    0    0 -0.34892484697E+02  0.12566877688E+03  0.31490362841E+03  0.36304190138E+03  0.12500000000E+03 0.  0.
</event>
<event>
 5    0  0.5653588E-005  0.2264804E+03  0.7546771E-02  0.1129142E+00
         21   -1    0    0  502  501  0.00000000000E+00  0.00000000000E+00  0.15539307113E+03  0.15539307113E+03  0.00000000000E+00 0.  1.
         21   -1    0    0  501  502 -0.00000000000E+00 -0.00000000000E+00 -0.33008781220E+03  0.33008781220E+03  0.00000000000E+00 0.  1.
         25    1    1    2    0    0  0.27449548088E+02  0.26545714784E+01 -0.26796996076E+01  0.12803400029E+03  0.12500000000E+03 0.  0.
         25    1    1    2    0    0  0.61160844132E+02  0.43598615239E+02 -0.12091020198E+03  0.18943538489E+03  0.12500000000E+03 0.  0.
         25    1    1    2    0    0 -0.88610392220E+02 -0.46253186718E+02 -0.51104839484E+02  0.16801149815E+03  0.12500000000E+03 0.  0.
</event>
<event>
 5    0  0.5653588E-005  0.2743365E+03  0.7546771E-02  0.1098823E+00
         21   -1    0    0  502  501  0.00000000000E+00  0.00000000000E+00  0.57874925991E+03  0.57874925991E+03  0.00000000000E+00 0. -1.
         21   -1    0    0  501  502 -0.00000000000E+00 -0.00000000000E+00 -0.13003995012E+03  0.13003995012E+03  0.00000000000E+00 0. -1.
         25    1    1    2    0    0 -0.64567158174E+02  0.25585655735E+02  0.27845475954E+02  0.14568429643E+03  0.12500000000E+03 0.  0.
         25    1    1    2    0    0 -0.59539847502E+02  0.51954805527E+02  0.71552297188E+02  0.16428337253E+03  0.12500000000E+03 0.  0.
         25    1    1    2    0    0  0.12410700568E+03 -0.77540461263E+02  0.34931153665E+03  0.39882154108E+03  0.12500000000E+03 0.  0.
</event>
<event>
 5    0  0.5653588E-005  0.3150884E+03  0.7546771E-02  0.1077932E+00
         21   -1    0    0  502  501  0.00000000000E+00  0.00000000000E+00  0.68839093825E+03  0.68839093825E+03  0.00000000000E+00 0.  1.
         21   -1    0    0  501  502 -0.00000000000E+00 -0.00000000000E+00 -0.14422141224E+03  0.14422141224E+03  0.00000000000E+00 0.  1.
         25    1    1    2    0    0  0.77030143388E+02 -0.40196217726E+02  0.12977465134E+03  0.20003959368E+03  0.12500000000E+03 0.  0.
         25    1    1    2    0    0  0.36447047908E+02 -0.15410049607E+03  0.27125369402E+03  0.33805164799E+03  0.12500000000E+03 0.  0.
         25    1    1    2    0    0 -0.11347719130E+03  0.19429671380E+03  0.14314118065E+03  0.29452110881E+03  0.12500000000E+03 0.  0.
</event>
<event>
 5    0  0.5653588E-005  0.2466382E+03  0.7546771E-02  0.1115448E+00
         21   -1    0    0  502  501  0.00000000000E+00  0.00000000000E+00  0.33826157924E+03  0.33826157924E+03  0.00000000000E+00 0.  1.
         21   -1    0    0  501  502 -0.00000000000E+00 -0.00000000000E+00 -0.17983238997E+03  0.17983238997E+03  0.00000000000E+00 0.  1.
         25    1    1    2    0    0 -0.86644278994E+02  0.22557149503E+02 -0.22426542125E+02  0.15538341568E+03  0.12500000000E+03 0.  0.
         25    1    1    2    0    0 -0.20054376842E+02 -0.60102979893E+02  0.48211142688E+02  0.14820209345E+03  0.12500000000E+03 0.  0.
         25    1    1    2    0    0  0.10669865584E+03  0.37545830390E+02  0.13264458871E+03  0.21450846009E+03  0.12500000000E+03 0.  0.
</event>
<event>
 5    0  0.5653588E-005  0.2822245E+03  0.7546771E-02  0.1094480E+00
         21   -1    0    0  502  501  0.00000000000E+00  0.00000000000E+00  0.48962419954E+03  0.48962419954E+03  0.00000000000E+00 0.  1.
         21   -1    0    0  501  502 -0.00000000000E+00 -0.00000000000E+00 -0.16267716047E+03  0.16267716047E+03  0.00000000000E+00 0.  1.
         25    1    1    2    0    0  0.16943233790E+03 -0.20691629755E+02  0.21064055765E+03  0.29854632002E+03  0.12500000000E+03 0.  0.
         25    1    1    2    0    0 -0.16007750824E+03 -0.76725767949E+01  0.50766961923E+02  0.20948976467E+03  0.12500000000E+03 0.  0.
         25    1    1    2    0    0 -0.93548296607E+01  0.28364206550E+02  0.65539519492E+02  0.14426527533E+03  0.12500000000E+03 0.  0.
</event>
<event>
 5    0  0.5653588E-005  0.2563475E+03  0.7546771E-02  0.1109358E+00
         21   -1    0    0  502  501  0.00000000000E+00  0.00000000000E+00  0.37765026330E+03  0.37765026330E+03  0.00000000000E+00 0.  1.
         21   -1    0    0  501  502 -0.00000000000E+00 -0.00000000000E+00 -0.17400766923E+03  0.17400766923E+03  0.00000000000E+00 0.  1.
         25    1    1    2    0    0  0.97488100025E+02  0.55039814977E+02  0.12280578608E+03  0.20794127049E+03  0.12500000000E+03 0.  0.
         25    1    1    2    0    0 -0.12535509577E+03 -0.66957344540E+01 -0.13190335453E+02  0.17764492068E+03  0.12500000000E+03 0.  0.
         25    1    1    2    0    0  0.27866995743E+02 -0.48344080523E+02  0.94027143438E+02  0.16607174135E+03  0.12500000000E+03 0.  0.
</event>
<event>
 5    0  0.5972236E-005  0.2988310E+03  0.7546771E-02  0.1085826E+00
         21   -1    0    0  502  501  0.00000000000E+00  0.00000000000E+00  0.48877941023E+03  0.48877941023E+03  0.00000000000E+00 0. -1.
         21   -1    0    0  501  502 -0.00000000000E+00 -0.00000000000E+00 -0.18269988486E+03  0.18269988486E+03  0.00000000000E+00 0. -1.
         25    1    1    2    0    0 -0.70415434414E+02 -0.10629203685E+02 -0.49724274844E+02  0.15221306410E+03  0.12500000000E+03 0.  0.
         25    1    1    2    0    0  0.78435608940E+02 -0.89686977897E+02  0.30578194627E+03  0.35117445439E+03  0.12500000000E+03 0.  0.
         25    1    1    2    0    0 -0.80201745257E+01  0.10031618158E+03  0.50021853939E+02  0.16809177659E+03  0.12500000000E+03 0.  0.
</event>
<event>
 5    0  0.5653588E-005  0.3137664E+03  0.7546771E-02  0.1078554E+00
         21   -1    0    0  502  501  0.00000000000E+00  0.00000000000E+00  0.11661989985E+04  0.11661989985E+04  0.00000000000E+00 0.  1.
         21   -1    0    0  501  502 -0.00000000000E+00 -0.00000000000E+00 -0.84419013211E+02  0.84419013211E+02  0.00000000000E+00 0.  1.
         25    1    1    2    0    0 -0.61497975367E+02 -0.30020621434E+02  0.28500834593E+03  0.31865027214E+03  0.12500000000E+03 0.  0.
         25    1    1    2    0    0  0.21263284236E+03 -0.91560823241E+01  0.61110871397E+03  0.65907163479E+03  0.12500000000E+03 0.  0.
         25    1    1    2    0    0 -0.15113486699E+03  0.39176703758E+02  0.18566292537E+03  0.27289610476E+03  0.12500000000E+03 0.  0.
</event>
<event>
 5    0  0.5653588E-005  0.3202419E+03  0.7546771E-02  0.1075538E+00
         21   -1    0    0  502  501  0.00000000000E+00  0.00000000000E+00  0.80861946996E+03  0.80861946996E+03  0.00000000000E+00 0. -1.
         21   -1    0    0  501  502 -0.00000000000E+00 -0.00000000000E+00 -0.12682709336E+03  0.12682709336E+03  0.00000000000E+00 0. -1.
         25    1    1    2    0    0  0.17064724552E+03 -0.10740368734E+03  0.18017744529E+03  0.29790090005E+03  0.12500000000E+03 0.  0.
         25    1    1    2    0    0 -0.12408691383E+03  0.65872733742E+02  0.45154817152E+03  0.48913958175E+03  0.12500000000E+03 0.  0.
         25    1    1    2    0    0 -0.46560331686E+02  0.41530953601E+02  0.50066759788E+02  0.14840608151E+03  0.12500000000E+03 0.  0.
</event>
<event>
 5    0  0.5653588E-005  0.4951290E+03  0.7546771E-02  0.1015058E+00
         21   -1    0    0  502  501  0.00000000000E+00  0.00000000000E+00  0.62893895147E+03  0.62893895147E+03  0.00000000000E+00 0. -1.
         21   -1    0    0  501  502 -0.00000000000E+00 -0.00000000000E+00 -0.38978785425E+03  0.38978785425E+03  0.00000000000E+00 0. -1.
         25    1    1    2    0    0 -0.33616979281E+03 -0.25351634112E+03  0.26209449011E+02  0.43999159086E+03  0.12500000000E+03 0.  0.
         25    1    1    2    0    0  0.38789451635E+02  0.61814316887E+02 -0.49263930808E+01  0.14482714069E+03  0.12500000000E+03 0.  0.
         25    1    1    2    0    0  0.29738034117E+03  0.19170202423E+03  0.21786804129E+03  0.43390807417E+03  0.12500000000E+03 0.  0.
</event>
<event>
 5    0  0.5653588E-005  0.3615102E+03  0.7546771E-02  0.1057987E+00
         21   -1    0    0  502  501  0.00000000000E+00  0.00000000000E+00  0.21287388340E+04  0.21287388340E+04  0.00000000000E+00 0. -1.
         21   -1    0    0  501  502 -0.00000000000E+00 -0.00000000000E+00 -0.61392996292E+02  0.61392996292E+02  0.00000000000E+00 0. -1.
         25    1    1    2    0    0 -0.10027702628E+03  0.50382187478E+02  0.10135915724E+03  0.19619512117E+03  0.12500000000E+03 0.  0.
         25    1    1    2    0    0  0.61309659575E+01 -0.10828372601E+03  0.93414006470E+03  0.94868625717E+03  0.12500000000E+03 0.  0.
         25    1    1    2    0    0  0.94146060324E+02  0.57901538531E+02  0.10318466158E+04  0.10452504520E+04  0.12500000000E+03 0.  0.
</event>
<event>
 5    0  0.6533394E-005  0.3503317E+03  0.7546771E-02  0.1062479E+00
         21   -1    0    0  502  501  0.00000000000E+00  0.00000000000E+00  0.22147411273E+03  0.22147411273E+03  0.00000000000E+00 0.  1.
         21   -1    0    0  501  502 -0.00000000000E+00 -0.00000000000E+00 -0.55416089840E+03  0.55416089840E+03  0.00000000000E+00 0.  1.
         25    1    1    2    0    0 -0.15578240256E+03  0.14139977101E+03 -0.17733232865E+03  0.30221483580E+03  0.12500000000E+03 0.  0.
         25    1    1    2    0    0 -0.64195904208E+02 -0.13025232100E+03 -0.43057022969E+02  0.19638148708E+03  0.12500000000E+03 0.  0.
         25    1    1    2    0    0  0.21997830677E+03 -0.11147450010E+02 -0.11229743405E+03  0.27703868825E+03  0.12500000000E+03 0.  0.
</event>
<event>
 5    0  0.5653588E-005  0.3369190E+03  0.7546771E-02  0.1068116E+00
         21   -1    0    0  502  501  0.00000000000E+00  0.00000000000E+00  0.18137586992E+03  0.18137586992E+03  0.00000000000E+00 0.  1.
         21   -1    0    0  501  502 -0.00000000000E+00 -0.00000000000E+00 -0.62585186571E+03  0.62585186571E+03  0.00000000000E+00 0. -1.
         25    1    1    2    0    0 -0.25460980669E+03 -0.30793407000E+02 -0.10801581940E+03  0.30506852479E+03  0.12500000000E+03 0.  0.
         25    1    1    2    0    0  0.19212839989E+03  0.40123906893E+02 -0.21232018253E+03  0.31500493624E+03  0.12500000000E+03 0.  0.
         25    1    1    2    0    0  0.62481406802E+02 -0.93304998930E+01 -0.12413999387E+03  0.18715427460E+03  0.12500000000E+03 0.  0.
</event>
<event>
 5    0  0.5653588E-005  0.3157058E+03  0.7546771E-02  0.1077643E+00
         21   -1    0    0  502  501  0.00000000000E+00  0.00000000000E+00  0.81729498104E+02  0.81729498104E+02  0.00000000000E+00 0. -1.
         21   -1    0    0  501  502 -0.00000000000E+00 -0.00000000000E+00 -0.12195124498E+04  0.12195124498E+04  0.00000000000E+00 0. -1.
         25    1    1    2    0    0  0.15118182840E+03  0.72629972814E+02 -0.19585187593E+03  0.28655543180E+03  0.12500000000E+03 0.  0.
         25    1    1    2    0    0 -0.84178518263E+02 -0.40473565045E+02 -0.78650552991E+03  0.80183544508E+03  0.12500000000E+03 0.  0.
         25    1    1    2    0    0 -0.67003310133E+02 -0.32156407768E+02 -0.15542554582E+03  0.21285107099E+03  0.12500000000E+03 0.  0.
</event>
<event>
 5    0  0.5653588E-005  0.3067184E+03  0.7546771E-02  0.1081930E+00
         21   -1    0    0  502  501  0.00000000000E+00  0.00000000000E+00  0.41535667934E+02  0.41535667934E+02  0.00000000000E+00 0. -1.
         21   -1    0    0  501  502 -0.00000000000E+00 -0.00000000000E+00 -0.22649497240E+04  0.22649497240E+04  0.00000000000E+00 0. -1.
         25    1    1    2    0    0  0.62811060506E+02 -0.84827946163E+02 -0.28039486287E+03  0.32463408462E+03  0.12500000000E+03 0.  0.
         25    1    1    2    0    0 -0.14613881746E+03 -0.72746242189E+01 -0.68385990919E+03  0.71042159985E+03  0.12500000000E+03 0.  0.
         25    1    1    2    0    0  0.83327756951E+02  0.92102570382E+02 -0.12591592840E+04  0.12714297075E+04  0.12500000000E+03 0.  0.
</event>
<event>
 5    0  0.5653588E-005  0.2165698E+03  0.7546771E-02  0.1136467E+00
         21   -1    0    0  502  501  0.00000000000E+00  0.00000000000E+00  0.69880777552E+02  0.69880777552E+02  0.00000000000E+00 0.  1.
         21   -1    0    0  501  502 -0.00000000000E+00 -0.00000000000E+00 -0.67117842509E+03  0.67117842509E+03  0.00000000000E+00 0.  1.
         25    1    1    2    0    0 -0.75054500721E+00  0.52599685232E+02 -0.35260665395E+03  0.37778795986E+03  0.12500000000E+03 0.  0.
         25    1    1    2    0    0  0.33673362490E+02 -0.36554606968E+02 -0.12378301626E+03  0.18280418416E+03  0.12500000000E+03 0.  0.
         25    1    1    2    0    0 -0.32922817483E+02 -0.16045078264E+02 -0.12490797732E+03  0.18046705862E+03  0.12500000000E+03 0.  0.
</event>
<event>
 5    0  0.5653588E-005  0.3428118E+03  0.7546771E-02  0.1065605E+00
         21   -1    0    0  502  501  0.00000000000E+00  0.00000000000E+00  0.13448654246E+04  0.13448654246E+04  0.00000000000E+00 0.  1.
         21   -1    0    0  501  502 -0.00000000000E+00 -0.00000000000E+00 -0.87384133753E+02  0.87384133753E+02  0.00000000000E+00 0.  1.
         25    1    1    2    0    0  0.18604033883E+03  0.18166772946E+03  0.72352350504E+03  0.77892582057E+03  0.12500000000E+03 0.  0.
         25    1    1    2    0    0 -0.14575631480E+03 -0.12868930530E+03  0.28551850539E+03  0.36735766975E+03  0.12500000000E+03 0.  0.
         25    1    1    2    0    0 -0.40284024028E+02 -0.52978424156E+02  0.24843928046E+03  0.28596606808E+03  0.12500000000E+03 0.  0.
</event>
<event>
 5    0  0.5653588E-005  0.2750505E+03  0.7546771E-02  0.1098423E+00
         21   -1    0    0  502  501  0.00000000000E+00  0.00000000000E+00  0.29670582273E+03  0.29670582273E+03  0.00000000000E+00 0.  1.
         21   -1    0    0  501  502 -0.00000000000E+00 -0.00000000000E+00 -0.25497579937E+03  0.25497579937E+03  0.00000000000E+00 0.  1.
         25    1    1    2    0    0 -0.23140915026E+02  0.76882325725E+02 -0.15117975731E+03  0.21195922480E+03  0.12500000000E+03 0.  0.
         25    1    1    2    0    0 -0.78723641156E+01 -0.82342854853E+02  0.11679762655E+03  0.19002369702E+03  0.12500000000E+03 0.  0.
         25    1    1    2    0    0  0.31013279142E+02  0.54605291286E+01  0.76112154130E+02  0.14969870029E+03  0.12500000000E+03 0.  0.
</event>
<event>
 5    0  0.5653588E-005  0.2093071E+03  0.7546771E-02  0.1142116E+00
         21   -1    0    0  502  501  0.00000000000E+00  0.00000000000E+00  0.57300716096E+02  0.57300716096E+02  0.00000000000E+00 0.  1.
         21   -1    0    0  501  502 -0.00000000000E+00 -0.00000000000E+00 -0.76455347516E+03  0.76455347516E+03  0.00000000000E+00 0.  1.
         25    1    1    2    0    0  0.17922179340E-01  0.29342805570E+01 -0.25145604171E+03  0.28082690618E+03  0.12500000000E+03 0.  0.
         25    1    1    2    0    0 -0.41702536892E+01  0.41458800529E+02 -0.11351151325E+03  0.17391402128E+03  0.12500000000E+03 0.  0.
         25    1    1    2    0    0  0.41523315099E+01 -0.44393081086E+02 -0.34228520410E+03  0.36711326379E+03  0.12500000000E+03 0.  0.
</event>
<event>
 5    0  0.5653588E-005  0.2490431E+03  0.7546771E-02  0.1113911E+00
         21   -1    0    0  502  501  0.00000000000E+00  0.00000000000E+00  0.95718167585E+02  0.95718167585E+02  0.00000000000E+00 0.  1.
         21   -1    0    0  501  502 -0.00000000000E+00 -0.00000000000E+00 -0.64796963228E+03  0.64796963228E+03  0.00000000000E+00 0.  1.
         25    1    1    2    0    0  0.91650549958E+02  0.41832110526E+02 -0.13269642290E+03  0.20828607594E+03  0.12500000000E+03 0.  0.
         25    1    1    2    0    0 -0.43761498976E+02  0.37043196945E+02 -0.73189251029E+02  0.15578489561E+03  0.12500000000E+03 0.  0.
         25    1    1    2    0    0 -0.47889050982E+02 -0.78875307471E+02 -0.34636579076E+03  0.37961682832E+03  0.12500000000E+03 0.  0.
</event>
<event>
 5    0  0.5653588E-005  0.3836475E+03  0.7546771E-02  0.1049594E+00
         21   -1    0    0  502  501  0.00000000000E+00  0.00000000000E+00  0.18732820646E+04  0.18732820646E+04  0.00000000000E+00 0.  1.
         21   -1    0    0  501  502 -0.00000000000E+00 -0.00000000000E+00 -0.78570863021E+02  0.78570863021E+02  0.00000000000E+00 0.  1.
         25    1    1    2    0    0 -0.22186091048E+03 -0.91948944245E+02  0.66659841534E+03  0.71948267476E+03  0.12500000000E+03 0.  0.
         25    1    1    2    0    0  0.20374833385E+03 -0.10154594574E+03  0.68596618882E+03  0.73348454302E+03  0.12500000000E+03 0.  0.
         25    1    1    2    0    0  0.18112576625E+02  0.19349488998E+03  0.44214659747E+03  0.49888570989E+03  0.12500000000E+03 0.  0.
</event>
<event>
 5    0  0.5653588E-005  0.4809784E+03  0.7546771E-02  0.1018867E+00
         21   -1    0    0  502  501  0.00000000000E+00  0.00000000000E+00  0.30844781707E+03  0.30844781707E+03  0.00000000000E+00 0. -1.
         21   -1    0    0  501  502 -0.00000000000E+00 -0.00000000000E+00 -0.75001421907E+03  0.75001421907E+03  0.00000000000E+00 0. -1.
         25    1    1    2    0    0  0.18842557465E+03  0.30577411740E+03 -0.21742651254E+03  0.43806540198E+03  0.12500000000E+03 0.  0.
         25    1    1    2    0    0 -0.52412961739E+02  0.63341691989E+02  0.22441243343E+01  0.14963062720E+03  0.12500000000E+03 0.  0.
         25    1    1    2    0    0 -0.13601261291E+03 -0.36911580939E+03 -0.22638401379E+03  0.47076600696E+03  0.12500000000E+03 0.  0.
</event>
<event>
 5    0  0.5653588E-005  0.2327199E+03  0.7546771E-02  0.1124740E+00
         21   -1    0    0  502  501  0.00000000000E+00  0.00000000000E+00  0.58826474862E+03  0.58826474862E+03  0.00000000000E+00 0. -1.
         21   -1    0    0  501  502 -0.00000000000E+00 -0.00000000000E+00 -0.92064896561E+02  0.92064896561E+02  0.00000000000E+00 0. -1.
         25    1    1    2    0    0 -0.40287393265E+02 -0.46441557071E+02  0.17419597878E+03  0.22304513288E+03  0.12500000000E+03 0.  0.
         25    1    1    2    0    0 -0.27674591462E+02  0.64740512676E+02  0.53977864746E+02  0.15328348534E+03  0.12500000000E+03 0.  0.
         25    1    1    2    0    0  0.67961984727E+02 -0.18298955605E+02  0.26802600853E+03  0.30400102696E+03  0.12500000000E+03 0.  0.
</event>
<event>
 5    0  0.5653588E-005  0.3522129E+03  0.7546771E-02  0.1061710E+00
         21   -1    0    0  502  501  0.00000000000E+00  0.00000000000E+00  0.22895190056E+03  0.22895190056E+03  0.00000000000E+00 0.  1.
         21   -1    0    0  501  502 -0.00000000000E+00 -0.00000000000E+00 -0.54183400321E+03  0.54183400321E+03  0.00000000000E+00 0.  1.
         25    1    1    2    0    0 -0.16600195520E+03  0.53017510632E+02 -0.20210671179E+03  0.29468564355E+03  0.12500000000E+03 0.  0.
         25    1    1    2    0    0 -0.23188659353E+02 -0.25778993670E+02 -0.19370136744E+03  0.23312548163E+03  0.12500000000E+03 0.  0.
         25    1    1    2    0    0  0.18919061455E+03 -0.27238516962E+02  0.82925976584E+02  0.24297477859E+03  0.12500000000E+03 0.  0.
</event>
<event>
 5    0  0.5653588E-005  0.3391512E+03  0.7546771E-02  0.1067158E+00
         21   -1    0    0  502  501  0.00000000000E+00  0.00000000000E+00  0.15875914454E+03  0.15875914454E+03  0.00000000000E+00 0. -1.
         21   -1    0    0  501  502 -0.00000000000E+00 -0.00000000000E+00 -0.72451612625E+03  0.72451612625E+03  0.00000000000E+00 0. -1.
         25    1    1    2    0    0 -0.22960998836E+03  0.19533998847E+01 -0.15300609410E+03  0.30291983652E+03  0.12500000000E+03 0.  0.
         25    1    1    2    0    0  0.17989228883E+03  0.84319123727E+02 -0.31564518988E+03  0.39335459334E+03  0.12500000000E+03 0.  0.
         25    1    1    2    0    0  0.49717699529E+02 -0.86272523612E+02 -0.97105697724E+02  0.18700084093E+03  0.12500000000E+03 0.  0.
</event>
<event>
 5    0  0.5653588E-005  0.3147569E+03  0.7546771E-02  0.1078088E+00
         21   -1    0    0  502  501  0.00000000000E+00  0.00000000000E+00  0.38946257992E+03  0.38946257992E+03  0.00000000000E+00 0. -1.
         21   -1    0    0  501  502 -0.00000000000E+00 -0.00000000000E+00 -0.25438104656E+03  0.25438104656E+03  0.00000000000E+00 0. -1.
         25    1    1    2    0    0  0.82171402837E+02  0.79454450058E+02  0.12212403288E+03  0.20881673421E+03  0.12500000000E+03 0.  0.
         25    1    1    2    0    0 -0.37210872407E+02  0.12339398854E+03  0.57436562315E+02  0.18850645645E+03  0.12500000000E+03 0.  0.
         25    1    1    2    0    0 -0.44960530430E+02 -0.20284843860E+03 -0.44479061839E+02  0.24652043582E+03  0.12500000000E+03 0.  0.
</event>
<event>
 5    0  0.5653588E-005  0.2347706E+03  0.7546771E-02  0.1123326E+00
         21   -1    0    0  502  501  0.00000000000E+00  0.00000000000E+00  0.41912249468E+03  0.41912249468E+03  0.00000000000E+00 0.  1.
         21   -1    0    0  501  502 -0.00000000000E+00 -0.00000000000E+00 -0.13150626766E+03  0.13150626766E+03  0.00000000000E+00 0.  1.
         25    1    1    2    0    0  0.49721524859E+02 -0.51166591813E+02  0.20087644471E+02  0.14532296313E+03  0.12500000000E+03 0.  0.
         25    1    1    2    0    0  0.33168232217E+02 -0.22212460004E+02  0.77729468245E+02  0.15251359035E+03  0.12500000000E+03 0.  0.
         25    1    1    2    0    0 -0.82889757076E+02  0.73379051817E+02  0.18979911430E+03  0.25279220887E+03  0.12500000000E+03 0.  0.
</event>
<event>
 5    0  0.6688443E-005  0.4191080E+03  0.7546771E-02  0.1037357E+00
         21   -1    0    0  502  501  0.00000000000E+00  0.00000000000E+00  0.20283446548E+03  0.20283446548E+03  0.00000000000E+00 0.  1.
         21   -1    0    0  501  502 -0.00000000000E+00 -0.00000000000E+00 -0.86598452388E+03  0.86598452388E+03  0.00000000000E+00 0.  1.
         25    1    1    2    0    0 -0.66105280312E+01 -0.20276180922E+03  0.25824663397E+02  0.23968304821E+03  0.12500000000E+03 0.  0.
         25    1    1    2    0    0  0.15909670241E+03  0.15876655845E+03 -0.34649403631E+03  0.43151094771E+03  0.12500000000E+03 0.  0.
         25    1    1    2    0    0 -0.15248617438E+03  0.43995250774E+02 -0.34248068550E+03  0.39762499344E+03  0.12500000000E+03 0.  0.
</event>
<event>
 5    0  0.5653588E-005  0.2478625E+03  0.7546771E-02  0.1114663E+00
         21   -1    0    0  502  501  0.00000000000E+00  0.00000000000E+00  0.26674027088E+03  0.26674027088E+03  0.00000000000E+00 0.  1.
         21   -1    0    0  501  502 -0.00000000000E+00 -0.00000000000E+00 -0.23032081866E+03  0.23032081866E+03  0.00000000000E+00 0.  1.
         25    1    1    2    0    0  0.34550399171E+02 -0.15512513861E+02 -0.49955785211E+02  0.13983900974E+03  0.12500000000E+03 0.  0.
         25    1    1    2    0    0 -0.97325707039E+02  0.94749030354E+02  0.30920378093E+02  0.18716501218E+03  0.12500000000E+03 0.  0.
         25    1    1    2    0    0  0.62775307868E+02 -0.79236516493E+02  0.55454859332E+02  0.17005706762E+03  0.12500000000E+03 0.  0.
</event>
<event>
 5    0  0.5653588E-005  0.3081303E+03  0.7546771E-02  0.1081246E+00
         21   -1    0    0  502  501  0.00000000000E+00  0.00000000000E+00  0.17529757382E+03  0.17529757382E+03  0.00000000000E+00 0. -1.
         21   -1    0    0  501  502 -0.00000000000E+00 -0.00000000000E+00 -0.54161777277E+03  0.54161777277E+03  0.00000000000E+00 0. -1.
         25    1    1    2    0    0 -0.21316627295E+02 -0.72715660025E+02 -0.10339733073E+02  0.14653967344E+03  0.12500000000E+03 0.  0.
         25    1    1    2    0    0 -0.84056817051E+02 -0.82591417773E+02 -0.28713779298E+03  0.33460424824E+03  0.12500000000E+03 0.  0.
         25    1    1    2    0    0  0.10537344435E+03  0.15530707780E+03 -0.68842672896E+02  0.23577142490E+03  0.12500000000E+03 0.  0.
</event>
<event>
 5    0  0.5653588E-005  0.3466519E+03  0.7546771E-02  0.1063998E+00
         21   -1    0    0  502  501  0.00000000000E+00  0.00000000000E+00  0.66066663544E+02  0.66066663544E+02  0.00000000000E+00 0. -1.
         21   -1    0    0  501  502 -0.00000000000E+00 -0.00000000000E+00 -0.18188826888E+04  0.18188826888E+04  0.00000000000E+00 0. -1.
         25    1    1    2    0    0  0.78119320285E+02  0.13246568822E+03 -0.11008653752E+04  0.11185612907E+04  0.12500000000E+03 0.  0.
         25    1    1    2    0    0 -0.16916067074E+03 -0.66218742554E+02 -0.26703082669E+03  0.34631014538E+03  0.12500000000E+03 0.  0.
         25    1    1    2    0    0  0.91041350459E+02 -0.66246945664E+02 -0.38491982339E+03  0.42007791627E+03  0.12500000000E+03 0.  0.
</event>
<event>
 5    0  0.5653588E-005  0.3146283E+03  0.7546771E-02  0.1078148E+00
         21   -1    0    0  502  501  0.00000000000E+00  0.00000000000E+00  0.76659933946E+03  0.76659933946E+03  0.00000000000E+00 0. -1.
         21   -1    0    0  501  502 -0.00000000000E+00 -0.00000000000E+00 -0.12912997477E+03  0.12912997477E+03  0.00000000000E+00 0. -1.
         25    1    1    2    0    0  0.15137297868E+02  0.63206576744E+01  0.16467040172E+03  0.20738956025E+03  0.12500000000E+03 0.  0.
         25    1    1    2    0    0 -0.16591092834E+03 -0.14693799662E+03  0.28981445215E+03  0.38566128620E+03  0.12500000000E+03 0.  0.
         25    1    1    2    0    0  0.15077363047E+03  0.14061733895E+03  0.18298451082E+03  0.30267846778E+03  0.12500000000E+03 0.  0.
</event>
<event>
 5    0  0.5653588E-005  0.3603797E+03  0.7546771E-02  0.1058434E+00
         21   -1    0    0  502  501  0.00000000000E+00  0.00000000000E+00  0.10761495747E+04  0.10761495747E+04  0.00000000000E+00 0.  1.
         21   -1    0    0  501  502 -0.00000000000E+00 -0.00000000000E+00 -0.12068355218E+03  0.12068355218E+03  0.00000000000E+00 0.  1.
         25    1    1    2    0    0  0.11608111132E+03 -0.44322338325E+02  0.48475309862E+03  0.51580021394E+03  0.12500000000E+03 0.  0.
         25    1    1    2    0    0 -0.22763315755E+03  0.41330354663E+02  0.11338520659E+03  0.28636734749E+03  0.12500000000E+03 0.  0.
         25    1    1    2    0    0  0.11155204623E+03  0.29919836622E+01  0.35732771729E+03  0.39466556542E+03  0.12500000000E+03 0.  0.
</event>
<event>
 5    0  0.5653588E-005  0.3968683E+03  0.7546771E-02  0.1044869E+00
         21   -1    0    0  502  501  0.00000000000E+00  0.00000000000E+00  0.94550372212E+03  0.94550372212E+03  0.00000000000E+00 0.  1.
         21   -1    0    0  501  502 -0.00000000000E+00 -0.00000000000E+00 -0.16658258198E+03  0.16658258198E+03  0.00000000000E+00 0.  1.
         25    1    1    2    0    0  0.98346544758E+02 -0.53421044540E+02  0.36804197204E+03  0.40448206888E+03  0.12500000000E+03 0.  0.
         25    1    1    2    0    0 -0.25657914051E+03  0.14115598674E+03  0.11410832316E+03  0.33823597880E+03  0.12500000000E+03 0.  0.
         25    1    1    2    0    0  0.15823259575E+03 -0.87734942201E+02  0.29677084495E+03  0.36936825642E+03  0.12500000000E+03 0.  0.
</event>
<event>
 5    0  0.5653588E-005  0.3798653E+03  0.7546771E-02  0.1050984E+00
         21   -1    0    0  502  501  0.00000000000E+00  0.00000000000E+00  0.18785442804E+03  0.18785442804E+03  0.00000000000E+00 0. -1.
         21   -1    0    0  501  502 -0.00000000000E+00 -0.00000000000E+00 -0.76813539018E+03  0.76813539018E+03  0.00000000000E+00 0. -1.
         25    1    1    2    0    0  0.13488678925E+03  0.20085425167E+02 -0.64869077013E+02  0.19603792330E+03  0.12500000000E+03 0.  0.
         25    1    1    2    0    0  0.16394316032E+03 -0.82671195085E+02 -0.26494947505E+03  0.34573850038E+03  0.12500000000E+03 0.  0.
         25    1    1    2    0    0 -0.29882994957E+03  0.62585769919E+02 -0.25046241008E+03  0.41421339455E+03  0.12500000000E+03 0.  0.
</event>
<event>
 5    0  0.5653588E-005  0.3456266E+03  0.7546771E-02  0.1064425E+00
         21   -1    0    0  502  501  0.00000000000E+00  0.00000000000E+00  0.54547956589E+03  0.54547956589E+03  0.00000000000E+00 0. -1.
         21   -1    0    0  501  502 -0.00000000000E+00 -0.00000000000E+00 -0.21899581181E+03  0.21899581181E+03  0.00000000000E+00 0. -1.
         25    1    1    2    0    0 -0.35822826333E+02  0.55954759196E+02 -0.62886401181E+02  0.15489967533E+03  0.12500000000E+03 0.  0.
         25    1    1    2    0    0  0.44239590793E+02 -0.16367258111E+03  0.28349434896E+02  0.21254304425E+03  0.12500000000E+03 0.  0.
         25    1    1    2    0    0 -0.84167644608E+01  0.10771782192E+03  0.36102072036E+03  0.39703265812E+03  0.12500000000E+03 0.  0.
</event>
<event>
 5    0  0.5653588E-005  0.6441979E+03  0.7546771E-02  0.9817728E-01
         21   -1    0    0  502  501  0.00000000000E+00  0.00000000000E+00  0.11202588276E+04  0.11202588276E+04  0.00000000000E+00 0.  1.
         21   -1    0    0  501  502 -0.00000000000E+00 -0.00000000000E+00 -0.37044197777E+03  0.37044197777E+03  0.00000000000E+00 0.  1.
         25    1    1    2    0    0  0.24659012528E+03 -0.83409744039E+02 -0.25571986720E+03  0.38572208359E+03  0.12500000000E+03 0.  0.
         25    1    1    2    0    0  0.13136981074E+02  0.10654303758E+03  0.29580826713E+03  0.33860231841E+03  0.12500000000E+03 0.  0.
         25    1    1    2    0    0 -0.25972710635E+03 -0.23133293538E+02  0.70972844989E+03  0.76637640336E+03  0.12500000000E+03 0.  0.
</event>
<event>
 5    0  0.5653588E-005  0.3083660E+03  0.7546771E-02  0.1081132E+00
         21   -1    0    0  502  501  0.00000000000E+00  0.00000000000E+00  0.42803240807E+03  0.42803240807E+03  0.00000000000E+00 0.  1.
         21   -1    0    0  501  502 -0.00000000000E+00 -0.00000000000E+00 -0.22215510515E+03  0.22215510515E+03  0.00000000000E+00 0.  1.
         25    1    1    2    0    0 -0.42608918786E+01  0.12639538686E+03  0.19019692219E+03  0.26037246058E+03  0.12500000000E+03 0.  0.
         25    1    1    2    0    0  0.15470032968E+02 -0.91441315231E+02 -0.12385791062E+03  0.19891359449E+03  0.12500000000E+03 0.  0.
         25    1    1    2    0    0 -0.11209141090E+02 -0.34954071625E+02  0.13953829135E+03  0.19090145814E+03  0.12500000000E+03 0.  0.
</event>
<event>
 5    0  0.5653588E-005  0.2765220E+03  0.7546771E-02  0.1097604E+00
         21   -1    0    0  502  501  0.00000000000E+00  0.00000000000E+00  0.23808119009E+03  0.23808119009E+03  0.00000000000E+00 0.  1.
         21   -1    0    0  501  502 -0.00000000000E+00 -0.00000000000E+00 -0.32116941320E+03  0.32116941320E+03  0.00000000000E+00 0.  1.
         25    1    1    2    0    0  0.14738491508E+03  0.16672506032E+02  0.34111988141E+00  0.19397268368E+03  0.12500000000E+03 0.  0.
         25    1    1    2    0    0 -0.12816881156E+03 -0.28132222330E+02  0.42813735097E+02  0.18621676107E+03  0.12500000000E+03 0.  0.
         25    1    1    2    0    0 -0.19216103528E+02  0.11459716298E+02 -0.12624307809E+03  0.17906115854E+03  0.12500000000E+03 0.  0.
</event>
<event>
 5    0  0.5867712E-005  0.3558680E+03  0.7546771E-02  0.1060232E+00
         21   -1    0    0  502  501  0.00000000000E+00  0.00000000000E+00  0.26239938739E+03  0.26239938739E+03  0.00000000000E+00 0.  1.
         21   -1    0    0  501  502 -0.00000000000E+00 -0.00000000000E+00 -0.48263093275E+03  0.48263093275E+03  0.00000000000E+00 0.  1.
         25    1    1    2    0    0 -0.12507410047E+03 -0.21410898216E+03 -0.58154657369E+02  0.28371314919E+03  0.12500000000E+03 0.  0.
         25    1    1    2    0    0 -0.36811999968E+01  0.16559661552E+03  0.10348164190E+02  0.20776880133E+03  0.12500000000E+03 0.  0.
         25    1    1    2    0    0  0.12875530047E+03  0.48512366640E+02 -0.17242505218E+03  0.25354836962E+03  0.12500000000E+03 0.  0.
</event>
<event>
 5    0  0.5653588E-005  0.7130175E+03  0.7546771E-02  0.9695226E-01
         21   -1    0    0  502  501  0.00000000000E+00  0.00000000000E+00  0.66548904364E+03  0.66548904364E+03  0.00000000000E+00 0.  1.
         21   -1    0    0  501  502 -0.00000000000E+00 -0.00000000000E+00 -0.76394036938E+03  0.76394036938E+03  0.00000000000E+00 0.  1.
         25    1    1    2    0    0  0.36362538743E+03  0.39853070408E+03 -0.32565574103E+03  0.64243817301E+03  0.12500000000E+03 0.  0.
         25    1    1    2    0    0 -0.29430865609E+02 -0.37414783082E+03  0.12982621108E+03  0.41633234349E+03  0.12500000000E+03 0.  0.
         25    1    1    2    0    0 -0.33419452182E+03 -0.24382873260E+02  0.97378204210E+02  0.37065889653E+03  0.12500000000E+03 0.  0.
</event>
<event>
 5    0  0.5716575E-005  0.4098156E+03  0.7546771E-02  0.1040433E+00
         21   -1    0    0  502  501  0.00000000000E+00  0.00000000000E+00  0.28251355798E+03  0.28251355798E+03  0.00000000000E+00 0. -1.
         21   -1    0    0  501  502 -0.00000000000E+00 -0.00000000000E+00 -0.59448067645E+03  0.59448067645E+03  0.00000000000E+00 0. -1.
         25    1    1    2    0    0  0.22344515385E+03  0.99578581671E+02  0.71398298317E+02  0.28384211757E+03  0.12500000000E+03 0.  0.
         25    1    1    2    0    0 -0.33378756926E+02 -0.13851329449E+02 -0.31469648761E+03  0.34053616556E+03  0.12500000000E+03 0.  0.
         25    1    1    2    0    0 -0.19006639692E+03 -0.85727252222E+02 -0.68668929184E+02  0.25261595129E+03  0.12500000000E+03 0.  0.
</event>
<event>
 5    0  0.6389103E-005  0.5932200E+03  0.7546771E-02  0.9919573E-01
         21   -1    0    0  502  501  0.00000000000E+00  0.00000000000E+00  0.49163385725E+03  0.49163385725E+03  0.00000000000E+00 0.  1.
         21   -1    0    0  501  502 -0.00000000000E+00 -0.00000000000E+00 -0.71579688486E+03  0.71579688486E+03  0.00000000000E+00 0.  1.
         25    1    1    2    0    0 -0.39584411265E+03 -0.41241662620E+02  0.63077679191E+02  0.42189717926E+03  0.12500000000E+03 0.  0.
         25    1    1    2    0    0  0.85137759832E+02 -0.23552023403E+03 -0.19570067379E+03  0.34152887507E+03  0.12500000000E+03 0.  0.
         25    1    1    2    0    0  0.31070635282E+03  0.27676189665E+03 -0.91540033010E+02  0.44400468777E+03  0.12500000000E+03 0.  0.
</event>
<event>
 5    0  0.5653588E-005  0.3117615E+03  0.7546771E-02  0.1079505E+00
         21   -1    0    0  502  501  0.00000000000E+00  0.00000000000E+00  0.80457402678E+03  0.80457402678E+03  0.00000000000E+00 0. -1.
         21   -1    0    0  501  502 -0.00000000000E+00 -0.00000000000E+00 -0.12080332359E+03  0.12080332359E+03  0.00000000000E+00 0. -1.
         25    1    1    2    0    0  0.17374365923E+02 -0.51034260062E+02  0.90964801390E+02  0.16372525579E+03  0.12500000000E+03 0.  0.
         25    1    1    2    0    0  0.18288230038E+03 -0.34947184690E+02  0.23925642671E+03  0.32792663697E+03  0.12500000000E+03 0.  0.
         25    1    1    2    0    0 -0.20025666631E+03  0.85981444752E+02  0.35354947510E+03  0.43372545761E+03  0.12500000000E+03 0.  0.
</event>
<event>
 5    0  0.5653588E-005  0.3695017E+03  0.7546771E-02  0.1054884E+00
         21   -1    0    0  502  501  0.00000000000E+00  0.00000000000E+00  0.54172081306E+03  0.54172081306E+03  0.00000000000E+00 0.  1.
         21   -1    0    0  501  502 -0.00000000000E+00 -0.00000000000E+00 -0.25203301890E+03  0.25203301890E+03  0.00000000000E+00 0.  1.
         25    1    1    2    0    0  0.23694807939E+02 -0.68977953501E+01 -0.86462214982E+01  0.12770583640E+03  0.12500000000E+03 0.  0.
         25    1    1    2    0    0  0.10639406855E+03  0.41479551853E+02 -0.12109473857E+03  0.20815663995E+03  0.12500000000E+03 0.  0.
         25    1    1    2    0    0 -0.13008887649E+03 -0.34581756503E+02  0.41942875423E+03  0.45789135561E+03  0.12500000000E+03 0.  0.
</event>
<event>
 5    0  0.5653588E-005  0.5892870E+03  0.7546771E-02  0.9927885E-01
         21   -1    0    0  502  501  0.00000000000E+00  0.00000000000E+00  0.22018049275E+04  0.22018049275E+04  0.00000000000E+00 0.  1.
         21   -1    0    0  501  502 -0.00000000000E+00 -0.00000000000E+00 -0.15771567938E+03  0.15771567938E+03  0.00000000000E+00 0.  1.
         25    1    1    2    0    0  0.16475800392E+02 -0.12624050167E+03  0.14295649792E+04  0.14406558042E+04  0.12500000000E+03 0.  0.
         25    1    1    2    0    0  0.11043649326E+02 -0.96007634410E+02  0.64178736740E+03  0.66095041645E+03  0.12500000000E+03 0.  0.
         25    1    1    2    0    0 -0.27519449718E+02  0.22224813608E+03 -0.27263098498E+02  0.25791438626E+03  0.12500000000E+03 0.  0.
</event>
<event>
 5    0  0.5653588E-005  0.2539488E+03  0.7546771E-02  0.1110834E+00
         21   -1    0    0  502  501  0.00000000000E+00  0.00000000000E+00  0.98307311542E+02  0.98307311542E+02  0.00000000000E+00 0.  1.
         21   -1    0    0  501  502 -0.00000000000E+00 -0.00000000000E+00 -0.65600415522E+03  0.65600415522E+03  0.00000000000E+00 0.  1.
         25    1    1    2    0    0  0.52446992088E+02 -0.29445317777E+01 -0.12654825853E+03  0.18546918608E+03  0.12500000000E+03 0.  0.
         25    1    1    2    0    0  0.75111457371E+02 -0.20200862110E+02 -0.33219788562E+03  0.36335965801E+03  0.12500000000E+03 0.  0.
         25    1    1    2    0    0 -0.12755844946E+03  0.23145393887E+02 -0.98950699534E+02  0.20548262268E+03  0.12500000000E+03 0.  0.
</event>
<event>
 5    0  0.5653588E-005  0.2272259E+03  0.7546771E-02  0.1128608E+00
         21   -1    0    0  502  501  0.00000000000E+00  0.00000000000E+00  0.32683614891E+02  0.32683614891E+02  0.00000000000E+00 0.  1.
         21   -1    0    0  501  502 -0.00000000000E+00 -0.00000000000E+00 -0.15797401225E+04  0.15797401225E+04  0.00000000000E+00 0.  1.
         25    1    1    2    0    0  0.10894854956E+02  0.30356496649E+02 -0.66675247149E+03  0.67913479736E+03  0.12500000000E+03 0.  0.
         25    1    1    2    0    0  0.73087229522E+02 -0.51502019789E+02 -0.36555419112E+03  0.39654642579E+03  0.12500000000E+03 0.  0.
         25    1    1    2    0    0 -0.83982084479E+02  0.21145523140E+02 -0.51474984499E+03  0.53674251423E+03  0.12500000000E+03 0.  0.
</event>
<event>
 5    0  0.5653588E-005  0.2383604E+03  0.7546771E-02  0.1120890E+00
         21   -1    0    0  502  501  0.00000000000E+00  0.00000000000E+00  0.51095489267E+03  0.51095489267E+03  0.00000000000E+00 0. -1.
         21   -1    0    0  501  502 -0.00000000000E+00 -0.00000000000E+00 -0.11119511176E+03  0.11119511176E+03  0.00000000000E+00 0. -1.
         25    1    1    2    0    0  0.21286940370E+02 -0.49555444014E+01  0.21908667615E+03  0.25318306207E+03  0.12500000000E+03 0.  0.
         25    1    1    2    0    0  0.66926718645E+02 -0.28339154191E+02  0.15200221185E+03  0.20979028990E+03  0.12500000000E+03 0.  0.
         25    1    1    2    0    0 -0.88213659014E+02  0.33294698592E+02  0.28670892907E+02  0.15917665247E+03  0.12500000000E+03 0.  0.
</event>
<event>
 5    0  0.5898541E-005  0.3933265E+03  0.7546771E-02  0.1046115E+00
         21   -1    0    0  502  501  0.00000000000E+00  0.00000000000E+00  0.12518128973E+03  0.12518128973E+03  0.00000000000E+00 0. -1.
         21   -1    0    0  501  502 -0.00000000000E+00 -0.00000000000E+00 -0.12358534227E+04  0.12358534227E+04  0.00000000000E+00 0. -1.
         25    1    1    2    0    0 -0.17533644604E+03  0.16949288584E+03 -0.68087214520E+03  0.73394998860E+03  0.12500000000E+03 0.  0.
         25    1    1    2    0    0  0.91725967294E+02 -0.99246880843E+02 -0.20275453983E+02  0.18520175611E+03  0.12500000000E+03 0.  0.
         25    1    1    2    0    0  0.83610478749E+02 -0.70246004997E+02 -0.40952453378E+03  0.44188296770E+03  0.12500000000E+03 0.  0.
</event>
<event>
 5    0  0.5942707E-005  0.3648459E+03  0.7546771E-02  0.1056681E+00
         21   -1    0    0  502  501  0.00000000000E+00  0.00000000000E+00  0.26507611736E+03  0.26507611736E+03  0.00000000000E+00 0. -1.
         21   -1    0    0  501  502 -0.00000000000E+00 -0.00000000000E+00 -0.50216724227E+03  0.50216724227E+03  0.00000000000E+00 0. -1.
         25    1    1    2    0    0 -0.26191697599E+02  0.14617077449E+03 -0.90241250908E+02  0.21405696369E+03  0.12500000000E+03 0.  0.
         25    1    1    2    0    0  0.73190587459E+02 -0.10873161561E+03 -0.29757475378E+03  0.34836067576E+03  0.12500000000E+03 0.  0.
         25    1    1    2    0    0 -0.46998889860E+02 -0.37439158878E+02  0.15072487978E+03  0.20482572018E+03  0.12500000000E+03 0.  0.
</event>
<event>
 5    0  0.5653588E-005  0.3921301E+03  0.7546771E-02  0.1046539E+00
         21   -1    0    0  502  501  0.00000000000E+00  0.00000000000E+00  0.21469770073E+03  0.21469770073E+03  0.00000000000E+00 0. -1.
         21   -1    0    0  501  502 -0.00000000000E+00 -0.00000000000E+00 -0.71619787368E+03  0.71619787368E+03  0.00000000000E+00 0. -1.
         25    1    1    2    0    0  0.15414219461E+03 -0.17343587459E+03 -0.32838466450E+03  0.42107161699E+03  0.12500000000E+03 0.  0.
         25    1    1    2    0    0 -0.21933234265E+03  0.16450640712E+03 -0.20572092028E+03  0.36484946424E+03  0.12500000000E+03 0.  0.
         25    1    1    2    0    0  0.65190148045E+02  0.89294674762E+01  0.32605411837E+02  0.14497449318E+03  0.12500000000E+03 0.  0.
</event>
<event>
 5    0  0.5653588E-005  0.3046077E+03  0.7546771E-02  0.1082960E+00
         21   -1    0    0  502  501  0.00000000000E+00  0.00000000000E+00  0.22350719331E+03  0.22350719331E+03  0.00000000000E+00 0.  1.
         21   -1    0    0  501  502 -0.00000000000E+00 -0.00000000000E+00 -0.41513578751E+03  0.41513578751E+03  0.00000000000E+00 0.  1.
         25    1    1    2    0    0  0.11203785078E+03  0.11026123175E+03 -0.49079574249E+02  0.20674579523E+03  0.12500000000E+03 0.  0.
         25    1    1    2    0    0  0.92187362453E+01  0.80613742821E+02 -0.59974527982E+02  0.16064091831E+03  0.12500000000E+03 0.  0.
         25    1    1    2    0    0 -0.12125658703E+03 -0.19087497457E+03 -0.82574491967E+02  0.27125626728E+03  0.12500000000E+03 0.  0.
</event>
<event>
 5    0  0.5653588E-005  0.3593010E+03  0.7546771E-02  0.1058861E+00
         21   -1    0    0  502  501  0.00000000000E+00  0.00000000000E+00  0.10688184758E+03  0.10688184758E+03  0.00000000000E+00 0.  1.
         21   -1    0    0  501  502 -0.00000000000E+00 -0.00000000000E+00 -0.12078495735E+04  0.12078495735E+04  0.00000000000E+00 0.  1.
         25    1    1    2    0    0 -0.56141944994E+02 -0.15367099598E+02 -0.30507909871E+03  0.33479295424E+03  0.12500000000E+03 0.  0.
         25    1    1    2    0    0  0.10270505034E+03 -0.54321198149E+02 -0.81092833973E+03  0.82869107158E+03  0.12500000000E+03 0.  0.
         25    1    1    2    0    0 -0.46563105344E+02  0.69688297747E+02  0.15039712519E+02  0.15124739527E+03  0.12500000000E+03 0.  0.
</event>
<event>
 5    0  0.5653588E-005  0.3949035E+03  0.7546771E-02  0.1045559E+00
         21   -1    0    0  502  501  0.00000000000E+00  0.00000000000E+00  0.18197613206E+04  0.18197613206E+04  0.00000000000E+00 0.  1.
         21   -1    0    0  501  502 -0.00000000000E+00 -0.00000000000E+00 -0.85697364834E+02  0.85697364834E+02  0.00000000000E+00 0.  1.
         25    1    1    2    0    0  0.12559257171E+03 -0.25335520571E+03  0.77435104778E+03  0.83379068089E+03  0.12500000000E+03 0.  0.
         25    1    1    2    0    0 -0.10656155792E+03  0.12502916695E+03  0.18800300425E+03  0.27920921873E+03  0.12500000000E+03 0.  0.
         25    1    1    2    0    0 -0.19031013793E+02  0.12832603876E+03  0.77170990371E+03  0.79245878580E+03  0.12500000000E+03 0.  0.
</event>
<event>
 5    0  0.5653588E-005  0.3622736E+03  0.7546771E-02  0.1057687E+00
         21   -1    0    0  502  501  0.00000000000E+00  0.00000000000E+00  0.58065072219E+03  0.58065072219E+03  0.00000000000E+00 0.  1.
         21   -1    0    0  501  502 -0.00000000000E+00 -0.00000000000E+00 -0.22602604131E+03  0.22602604131E+03  0.00000000000E+00 0.  1.
         25    1    1    2    0    0 -0.16838927306E+03 -0.97001524466E+01  0.15097666254E+03  0.25858846237E+03  0.12500000000E+03 0.  0.
         25    1    1    2    0    0  0.28903913016E+03  0.55916219013E+02  0.79354670901E+02  0.32953361909E+03  0.12500000000E+03 0.  0.
         25    1    1    2    0    0 -0.12064985710E+03 -0.46216066566E+02  0.12429334744E+03  0.21855468205E+03  0.12500000000E+03 0.  0.
</event>
<event>
 5    0  0.5653588E-005  0.2010722E+03  0.7546771E-02  0.1148838E+00
         21   -1    0    0  502  501  0.00000000000E+00  0.00000000000E+00  0.40044069225E+02  0.40044069225E+02  0.00000000000E+00 0.  1.
         21   -1    0    0  501  502 -0.00000000000E+00 -0.00000000000E+00 -0.10096384776E+04  0.10096384776E+04  0.00000000000E+00 0.  1.
         25    1    1    2    0    0 -0.25639730606E+02 -0.16320765679E+02 -0.36964255940E+03  0.39138776795E+03  0.12500000000E+03 0.  0.
         25    1    1    2    0    0 -0.54273751818E+01 -0.18828968062E+02 -0.38495444402E+03  0.40521464733E+03  0.12500000000E+03 0.  0.
         25    1    1    2    0    0  0.31067105787E+02  0.35149733741E+02 -0.21499740490E+03  0.25308013149E+03  0.12500000000E+03 0.  0.
</event>
<event>
 5    0  0.5653588E-005  0.3350930E+03  0.7546771E-02  0.1068905E+00
         21   -1    0    0  502  501  0.00000000000E+00  0.00000000000E+00  0.53531378062E+02  0.53531378062E+02  0.00000000000E+00 0. -1.
         21   -1    0    0  501  502 -0.00000000000E+00 -0.00000000000E+00 -0.20975979249E+04  0.20975979249E+04  0.00000000000E+00 0. -1.
         25    1    1    2    0    0  0.15018754208E+00 -0.10000498750E+02 -0.12895162546E+03  0.17987093773E+03  0.12500000000E+03 0.  0.
         25    1    1    2    0    0 -0.10087331918E+03  0.13640448647E+03 -0.14213717786E+04  0.14369079105E+04  0.12500000000E+03 0.  0.
         25    1    1    2    0    0  0.10072313164E+03 -0.12640398772E+03 -0.49374314280E+03  0.53435045468E+03  0.12500000000E+03 0.  0.
</event>
<event>
 5    0  0.5653588E-005  0.6147664E+03  0.7546771E-02  0.9875235E-01
         21   -1    0    0  502  501  0.00000000000E+00  0.00000000000E+00  0.40854647547E+03  0.40854647547E+03  0.00000000000E+00 0.  1.
         21   -1    0    0  501  502 -0.00000000000E+00 -0.00000000000E+00 -0.92507883684E+03  0.92507883684E+03  0.00000000000E+00 0.  1.
         25    1    1    2    0    0 -0.15594113475E+03  0.15824218441E+03 -0.24029844542E+03  0.35032352091E+03  0.12500000000E+03 0.  0.
         25    1    1    2    0    0  0.26949122736E+03  0.17811455613E+03 -0.45073050465E+03  0.56844815467E+03  0.12500000000E+03 0.  0.
         25    1    1    2    0    0 -0.11355009261E+03 -0.33635674054E+03  0.17449658870E+03  0.41485363673E+03  0.12500000000E+03 0.  0.
</event>
<event>
 5    0  0.5653588E-005  0.3405009E+03  0.7546771E-02  0.1066583E+00
         21   -1    0    0  502  501  0.00000000000E+00  0.00000000000E+00  0.16002874582E+03  0.16002874582E+03  0.00000000000E+00 0. -1.
         21   -1    0    0  501  502 -0.00000000000E+00 -0.00000000000E+00 -0.72450014450E+03  0.72450014450E+03  0.00000000000E+00 0. -1.
         25    1    1    2    0    0  0.74932689324E+02  0.12424959250E+03 -0.43476330536E+03  0.47507578433E+03  0.12500000000E+03 0.  0.
         25    1    1    2    0    0 -0.12870146190E+03  0.19250858169E+02 -0.10852230183E+03  0.21056294030E+03  0.12500000000E+03 0.  0.
         25    1    1    2    0    0  0.53768772574E+02 -0.14350045067E+03 -0.21185791496E+02  0.19889016569E+03  0.12500000000E+03 0.  0.
</event>
<event>
 5    0  0.6137874E-005  0.2405120E+03  0.7546771E-02  0.1119452E+00
         21   -1    0    0  502  501  0.00000000000E+00  0.00000000000E+00  0.13584690061E+03  0.13584690061E+03  0.00000000000E+00 0.  1.
         21   -1    0    0  501  502 -0.00000000000E+00 -0.00000000000E+00 -0.42581761856E+03  0.42581761856E+03  0.00000000000E+00 0.  1.
         25    1    1    2    0    0  0.79225430927E+02  0.14466921568E+02 -0.42986988998E+02  0.15478643981E+03  0.12500000000E+03 0.  0.
         25    1    1    2    0    0 -0.87731696245E+02 -0.68067082704E+02 -0.20447132902E+03  0.26412781502E+03  0.12500000000E+03 0.  0.
         25    1    1    2    0    0  0.85062653177E+01  0.53600161135E+02 -0.42512399930E+02  0.14275026435E+03  0.12500000000E+03 0.  0.
</event>
<event>
 5    0  0.5653588E-005  0.3401361E+03  0.7546771E-02  0.1066738E+00
         21   -1    0    0  502  501  0.00000000000E+00  0.00000000000E+00  0.81243992351E+03  0.81243992351E+03  0.00000000000E+00 0.  1.
         21   -1    0    0  501  502 -0.00000000000E+00 -0.00000000000E+00 -0.14240134291E+03  0.14240134291E+03  0.00000000000E+00 0.  1.
         25    1    1    2    0    0 -0.15613297243E+03 -0.17980216787E+01  0.60613833650E+02  0.20899706886E+03  0.12500000000E+03 0.  0.
         25    1    1    2    0    0  0.11158413593E+03 -0.15239288436E+03  0.32710588045E+03  0.39786664552E+03  0.12500000000E+03 0.  0.
         25    1    1    2    0    0  0.44548836493E+02  0.15419090604E+03  0.28231886650E+03  0.34797755204E+03  0.12500000000E+03 0.  0.
</event>
<event>
 5    0  0.5653588E-005  0.3511061E+03  0.7546771E-02  0.1062162E+00
         21   -1    0    0  502  501  0.00000000000E+00  0.00000000000E+00  0.72906239900E+02  0.72906239900E+02  0.00000000000E+00 0. -1.
         21   -1    0    0  501  502 -0.00000000000E+00 -0.00000000000E+00 -0.16908768375E+04  0.16908768375E+04  0.00000000000E+00 0. -1.
         25    1    1    2    0    0  0.11192037952E+03  0.12324602866E+03 -0.35822113010E+03  0.41432249877E+03  0.12500000000E+03 0.  0.
         25    1    1    2    0    0 -0.11384439104E+03 -0.91765350809E+02 -0.11848489588E+04  0.12003638949E+04  0.12500000000E+03 0.  0.
         25    1    1    2    0    0  0.19240115139E+01 -0.31480677852E+02 -0.74900508683E+02  0.14909668373E+03  0.12500000000E+03 0.  0.
</event>
<event>
 5    0  0.5653588E-005  0.3092176E+03  0.7546771E-02  0.1080722E+00
         21   -1    0    0  502  501  0.00000000000E+00  0.00000000000E+00  0.15151646528E+04  0.15151646528E+04  0.00000000000E+00 0.  1.
         21   -1    0    0  501  502 -0.00000000000E+00 -0.00000000000E+00 -0.63105678803E+02  0.63105678803E+02  0.00000000000E+00 0.  1.
         25    1    1    2    0    0 -0.24684109078E+02  0.65951238428E+02  0.34150983922E+03  0.37042251737E+03  0.12500000000E+03 0.  0.
         25    1    1    2    0    0  0.27621717203E+02  0.57576403477E+02  0.97718572262E+03  0.98721575048E+03  0.12500000000E+03 0.  0.
         25    1    1    2    0    0 -0.29376081256E+01 -0.12352764190E+03  0.13336341217E+03  0.22063206376E+03  0.12500000000E+03 0.  0.
</event>
<event>
 5    0  0.5929952E-005  0.2910987E+03  0.7546771E-02  0.1089777E+00
         21   -1    0    0  502  501  0.00000000000E+00  0.00000000000E+00  0.19255938530E+03  0.19255938530E+03  0.00000000000E+00 0.  1.
         21   -1    0    0  501  502 -0.00000000000E+00 -0.00000000000E+00 -0.44006389801E+03  0.44006389801E+03  0.00000000000E+00 0.  1.
         25    1    1    2    0    0  0.90554952222E+02  0.14603285984E+02 -0.21371162673E+03  0.26402862483E+03  0.12500000000E+03 0.  0.
         25    1    1    2    0    0 -0.23700382085E+02 -0.11308750834E+03 -0.82620074435E+02  0.18921302638E+03  0.12500000000E+03 0.  0.
         25    1    1    2    0    0 -0.66854570138E+02  0.98484222351E+02  0.48827188458E+02  0.17938163210E+03  0.12500000000E+03 0.  0.
</event>
<event>
 5    0  0.5653588E-005  0.3656886E+03  0.7546771E-02  0.1056354E+00
         21   -1    0    0  502  501  0.00000000000E+00  0.00000000000E+00  0.24055108705E+03  0.24055108705E+03  0.00000000000E+00 0. -1.
         21   -1    0    0  501  502 -0.00000000000E+00 -0.00000000000E+00 -0.55592403239E+03  0.55592403239E+03  0.00000000000E+00 0. -1.
         25    1    1    2    0    0 -0.69021880577E+02  0.50800503349E+02 -0.10798881844E+03  0.18609485766E+03  0.12500000000E+03 0.  0.
         25    1    1    2    0    0  0.58832703779E+02 -0.17607448949E+03  0.10807129074E+03  0.24853152067E+03  0.12500000000E+03 0.  0.
         25    1    1    2    0    0  0.10189176798E+02  0.12527398614E+03 -0.31545541764E+03  0.36184874111E+03  0.12500000000E+03 0.  0.
</event>
<event>
 5    0  0.5765461E-005  0.4104055E+03  0.7546771E-02  0.1040235E+00
         21   -1    0    0  502  501  0.00000000000E+00  0.00000000000E+00  0.58895815984E+03  0.58895815984E+03  0.00000000000E+00 0. -1.
         21   -1    0    0  501  502 -0.00000000000E+00 -0.00000000000E+00 -0.28598414159E+03  0.28598414159E+03  0.00000000000E+00 0. -1.
         25    1    1    2    0    0 -0.12436124602E+03 -0.85546417712E+02  0.10874739495E+02  0.19628338966E+03  0.12500000000E+03 0.  0.
         25    1    1    2    0    0  0.16715605356E+03 -0.24187066443E+02  0.41655975188E+03  0.46655459200E+03  0.12500000000E+03 0.  0.
         25    1    1    2    0    0 -0.42794807538E+02  0.10973348416E+03 -0.12446047312E+03  0.21210431978E+03  0.12500000000E+03 0.  0.
</event>
<event>
 5    0  0.9191049E-005  0.2662986E+03  0.7546771E-02  0.1103417E+00
         21   -1    0    0  502  501  0.00000000000E+00  0.00000000000E+00  0.17186294177E+03  0.17186294177E+03  0.00000000000E+00 0. -1.
         21   -1    0    0  501  502 -0.00000000000E+00 -0.00000000000E+00 -0.41262503857E+03  0.41262503857E+03  0.00000000000E+00 0. -1.
         25    1    1    2    0    0  0.26624623675E+02 -0.18461801221E+01  0.20824691214E+02  0.12950269005E+03  0.12500000000E+03 0.  0.
         25    1    1    2    0    0 -0.75960439855E+02  0.47854246772E+02 -0.27204477682E+03  0.31255939908E+03  0.12500000000E+03 0.  0.
         25    1    1    2    0    0  0.49335816181E+02 -0.46008066650E+02  0.10457988809E+02  0.14242589120E+03  0.12500000000E+03 0.  0.
</event>
<event>
 5    0  0.5653588E-005  0.4345464E+03  0.7546771E-02  0.1032433E+00
         21   -1    0    0  502  501  0.00000000000E+00  0.00000000000E+00  0.53299462118E+03  0.53299462118E+03  0.00000000000E+00 0.  1.
         21   -1    0    0  501  502 -0.00000000000E+00 -0.00000000000E+00 -0.35428227298E+03  0.35428227298E+03  0.00000000000E+00 0.  1.
         25    1    1    2    0    0 -0.23797590446E+03 -0.51801695725E+02  0.26610585545E+03  0.38177647006E+03  0.12500000000E+03 0.  0.
         25    1    1    2    0    0  0.24351508124E+03  0.17157635028E+03 -0.37340374144E+02  0.32520353982E+03  0.12500000000E+03 0.  0.
         25    1    1    2    0    0 -0.55391767847E+01 -0.11977465455E+03 -0.50053133108E+02  0.18029688430E+03  0.12500000000E+03 0.  0.
</event>
<event>
 5    0  0.5653588E-005  0.3687636E+03  0.7546771E-02  0.1055167E+00
         21   -1    0    0  502  501  0.00000000000E+00  0.00000000000E+00  0.59738607369E+03  0.59738607369E+03  0.00000000000E+00 0.  1.
         21   -1    0    0  501  502 -0.00000000000E+00 -0.00000000000E+00 -0.22763597583E+03  0.22763597583E+03  0.00000000000E+00 0.  1.
         25    1    1    2    0    0 -0.39591150933E+02  0.96609921283E+02 -0.11755237371E+03  0.20085939531E+03  0.12500000000E+03 0.  0.
         25    1    1    2    0    0  0.82891560984E+02 -0.65824260411E+02  0.45635470880E+03  0.48485922120E+03  0.12500000000E+03 0.  0.
         25    1    1    2    0    0 -0.43300410051E+02 -0.30785660872E+02  0.30947762763E+02  0.13930343300E+03  0.12500000000E+03 0.  0.
</event>
<event>
 5    0  0.5653588E-005  0.2572742E+03  0.7546771E-02  0.1108792E+00
         21   -1    0    0  502  501  0.00000000000E+00  0.00000000000E+00  0.15615876435E+03  0.15615876435E+03  0.00000000000E+00 0.  1.
         21   -1    0    0  501  502 -0.00000000000E+00 -0.00000000000E+00 -0.42386361397E+03  0.42386361397E+03  0.00000000000E+00 0.  1.
         25    1    1    2    0    0  0.10670259026E+03 -0.72669250915E+02 -0.20818220372E+03  0.27501107749E+03  0.12500000000E+03 0.  0.
         25    1    1    2    0    0 -0.18222755582E+02  0.19954240814E+02 -0.63951409415E+02  0.14298609483E+03  0.12500000000E+03 0.  0.
         25    1    1    2    0    0 -0.88479834675E+02  0.52715010102E+02  0.44287635135E+01  0.16202520600E+03  0.12500000000E+03 0.  0.
</event>
<event>
 5    0  0.5653588E-005  0.2297110E+03  0.7546771E-02  0.1126843E+00
         21   -1    0    0  502  501  0.00000000000E+00  0.00000000000E+00  0.12815294840E+03  0.12815294840E+03  0.00000000000E+00 0. -1.
         21   -1    0    0  501  502 -0.00000000000E+00 -0.00000000000E+00 -0.41175130770E+03  0.41175130770E+03  0.00000000000E+00 0. -1.
         25    1    1    2    0    0  0.56355579581E+02  0.10209989149E+03 -0.14491376048E+03  0.22411010055E+03  0.12500000000E+03 0.  0.
         25    1    1    2    0    0  0.17364105893E+01 -0.32086782437E+02 -0.60249481164E+02  0.14243446461E+03  0.12500000000E+03 0.  0.
         25    1    1    2    0    0 -0.58091990170E+02 -0.70013109054E+02 -0.78435117659E+02  0.17335969094E+03  0.12500000000E+03 0.  0.
</event>
<event>
 5    0  0.5653588E-005  0.2344230E+03  0.7546771E-02  0.1123565E+00
         21   -1    0    0  502  501  0.00000000000E+00  0.00000000000E+00  0.57432635215E+03  0.57432635215E+03  0.00000000000E+00 0. -1.
         21   -1    0    0  501  502 -0.00000000000E+00 -0.00000000000E+00 -0.95684483207E+02  0.95684483207E+02  0.00000000000E+00 0. -1.
         25    1    1    2    0    0  0.83734003317E+01  0.58345930320E+02  0.97825810554E+02  0.16931996524E+03  0.12500000000E+03 0.  0.
         25    1    1    2    0    0  0.91135347090E+02 -0.58043371902E+02  0.18834044999E+03  0.25054302947E+03  0.12500000000E+03 0.  0.
         25    1    1    2    0    0 -0.99508747421E+02 -0.30255841841E+00  0.19247560840E+03  0.25014784066E+03  0.12500000000E+03 0.  0.
</event>
<event>
 5    0  0.5653588E-005  0.3042635E+03  0.7546771E-02  0.1083129E+00
         21   -1    0    0  502  501  0.00000000000E+00  0.00000000000E+00  0.52060733135E+03  0.52060733135E+03  0.00000000000E+00 0. -1.
         21   -1    0    0  501  502 -0.00000000000E+00 -0.00000000000E+00 -0.17782357916E+03  0.17782357916E+03  0.00000000000E+00 0. -1.
         25    1    1    2    0    0  0.19140460989E+03  0.11744553486E+02  0.11421605606E+03  0.25582018428E+03  0.12500000000E+03 0.  0.
         25    1    1    2    0    0 -0.16372254761E+02 -0.50416904482E+01 -0.33822907862E+01  0.12621374434E+03  0.12500000000E+03 0.  0.
         25    1    1    2    0    0 -0.17503235513E+03 -0.67028630379E+01  0.23194998691E+03  0.31639698188E+03  0.12500000000E+03 0.  0.
</event>
<event>
 5    0  0.5653588E-005  0.2912440E+03  0.7546771E-02  0.1089701E+00
         21   -1    0    0  502  501  0.00000000000E+00  0.00000000000E+00  0.15416428570E+03  0.15416428570E+03  0.00000000000E+00 0.  1.
         21   -1    0    0  501  502 -0.00000000000E+00 -0.00000000000E+00 -0.55021200330E+03  0.55021200330E+03  0.00000000000E+00 0.  1.
         25    1    1    2    0    0 -0.80273925455E+02  0.93481165002E+02 -0.23516062273E+03  0.29344190192E+03  0.12500000000E+03 0.  0.
         25    1    1    2    0    0  0.42291689529E+02  0.61446852092E+02 -0.14842640179E+03  0.20789348086E+03  0.12500000000E+03 0.  0.
         25    1    1    2    0    0  0.37982235926E+02 -0.15492801709E+03 -0.12460693081E+02  0.20304090622E+03  0.12500000000E+03 0.  0.
</event>
<event>
 5    0  0.5653588E-005  0.2949685E+03  0.7546771E-02  0.1087783E+00
         21   -1    0    0  502  501  0.00000000000E+00  0.00000000000E+00  0.10570327805E+03  0.10570327805E+03  0.00000000000E+00 0. -1.
         21   -1    0    0  501  502 -0.00000000000E+00 -0.00000000000E+00 -0.82311930467E+03  0.82311930467E+03  0.00000000000E+00 0. -1.
         25    1    1    2    0    0 -0.58371104771E+01  0.52850726446E+02 -0.11795702121E+03  0.17990589206E+03  0.12500000000E+03 0.  0.
         25    1    1    2    0    0  0.18419586007E+03 -0.48095491614E+02 -0.26082523405E+03  0.34626015350E+03  0.12500000000E+03 0.  0.
         25    1    1    2    0    0 -0.17835874960E+03 -0.47552348316E+01 -0.33863377136E+03  0.40265653716E+03  0.12500000000E+03 0.  0.
</event>
<event>
 5    0  0.5653588E-005  0.5276414E+03  0.7546771E-02  0.1006806E+00
         21   -1    0    0  502  501  0.00000000000E+00  0.00000000000E+00  0.26699005437E+03  0.26699005437E+03  0.00000000000E+00 0.  1.
         21   -1    0    0  501  502 -0.00000000000E+00 -0.00000000000E+00 -0.10427558116E+04  0.10427558116E+04  0.00000000000E+00 0.  1.
         25    1    1    2    0    0  0.27714113786E+03 -0.15859632376E+03 -0.69241985484E+03  0.77267733212E+03  0.12500000000E+03 0.  0.
         25    1    1    2    0    0 -0.82390809851E+02  0.24135737955E+03 -0.59143913902E+02  0.29011141440E+03  0.12500000000E+03 0.  0.
         25    1    1    2    0    0 -0.19475032801E+03 -0.82761055798E+02 -0.24201988534E+02  0.24695711949E+03  0.12500000000E+03 0.  0.
</event>
<event>
 5    0  0.5878985E-005  0.3263551E+03  0.7546771E-02  0.1072761E+00
         21   -1    0    0  502  501  0.00000000000E+00  0.00000000000E+00  0.15344313843E+03  0.15344313843E+03  0.00000000000E+00 0.  1.
         21   -1    0    0  501  502 -0.00000000000E+00 -0.00000000000E+00 -0.69411798997E+03  0.69411798997E+03  0.00000000000E+00 0.  1.
         25    1    1    2    0    0 -0.90738047732E+02  0.12354275129E+03 -0.11968641056E+03  0.23118399939E+03  0.12500000000E+03 0.  0.
         25    1    1    2    0    0  0.15178901011E+03  0.48023496840E+02 -0.30725805400E+03  0.36793840733E+03  0.12500000000E+03 0.  0.
         25    1    1    2    0    0 -0.61050962382E+02 -0.17156624813E+03 -0.11373038698E+03  0.24843872167E+03  0.12500000000E+03 0.  0.
</event>
<event>
 5    0  0.5653588E-005  0.2133565E+03  0.7546771E-02  0.1138935E+00
         21   -1    0    0  502  501  0.00000000000E+00  0.00000000000E+00  0.87130322035E+02  0.87130322035E+02  0.00000000000E+00 0.  1.
         21   -1    0    0  501  502 -0.00000000000E+00 -0.00000000000E+00 -0.52244746531E+03  0.52244746531E+03  0.00000000000E+00 0.  1.
         25    1    1    2    0    0  0.71940994909E+01  0.23534768222E+02 -0.17962938589E+03  0.22022115397E+03  0.12500000000E+03 0.  0.
         25    1    1    2    0    0  0.99735733408E+01  0.11096052712E+01 -0.22437490010E+03  0.25704046215E+03  0.12500000000E+03 0.  0.
         25    1    1    2    0    0 -0.17167672832E+02 -0.24644373493E+02 -0.31312857291E+02  0.13231617122E+03  0.12500000000E+03 0.  0.
</event>
<event>
 5    0  0.5653588E-005  0.4458289E+03  0.7546771E-02  0.1028973E+00
         21   -1    0    0  502  501  0.00000000000E+00  0.00000000000E+00  0.36078242096E+03  0.36078242096E+03  0.00000000000E+00 0. -1.
         21   -1    0    0  501  502 -0.00000000000E+00 -0.00000000000E+00 -0.55092322515E+03  0.55092322515E+03  0.00000000000E+00 0. -1.
         25    1    1    2    0    0 -0.82830389767E+01 -0.87657856786E+02  0.34376073748E+02  0.15671382529E+03  0.12500000000E+03 0.  0.
         25    1    1    2    0    0 -0.27688113087E+03  0.61836794271E+02 -0.30231992928E+03  0.43302342823E+03  0.12500000000E+03 0.  0.
         25    1    1    2    0    0  0.28516416984E+03  0.25821062515E+02  0.77803051342E+02  0.32196839259E+03  0.12500000000E+03 0.  0.
</event>
<event>
 5    0  0.5653588E-005  0.4707529E+03  0.7546771E-02  0.1021708E+00
         21   -1    0    0  502  501  0.00000000000E+00  0.00000000000E+00  0.18290752694E+03  0.18290752694E+03  0.00000000000E+00 0. -1.
         21   -1    0    0  501  502 -0.00000000000E+00 -0.00000000000E+00 -0.12115866967E+04  0.12115866967E+04  0.00000000000E+00 0.  1.
         25    1    1    2    0    0 -0.13580342173E+03 -0.22410567963E+03 -0.88405676267E+03  0.93050915343E+03  0.12500000000E+03 0.  0.
         25    1    1    2    0    0  0.62884973206E+02  0.25422224103E+03 -0.70504240313E+02  0.29862906020E+03  0.12500000000E+03 0.  0.
         25    1    1    2    0    0  0.72918448523E+02 -0.30116561407E+02 -0.74118166784E+02  0.16535601003E+03  0.12500000000E+03 0.  0.
</event>
<event>
 5    0  0.5653588E-005  0.2987836E+03  0.7546771E-02  0.1085850E+00
         21   -1    0    0  502  501  0.00000000000E+00  0.00000000000E+00  0.10056229685E+03  0.10056229685E+03  0.00000000000E+00 0. -1.
         21   -1    0    0  501  502 -0.00000000000E+00 -0.00000000000E+00 -0.88772491244E+03  0.88772491244E+03  0.00000000000E+00 0. -1.
         25    1    1    2    0    0  0.48699689633E+02  0.14416383980E+03 -0.48197730494E+03  0.52065535141E+03  0.12500000000E+03 0.  0.
         25    1    1    2    0    0 -0.20665316658E+02  0.34742690744E+02 -0.85803211768E+02  0.15691176190E+03  0.12500000000E+03 0.  0.
         25    1    1    2    0    0 -0.28034372975E+02 -0.17890653054E+03 -0.21938209888E+03  0.31072009598E+03  0.12500000000E+03 0.  0.
</event>
<event>
 5    0  0.5653588E-005  0.5101485E+03  0.7546771E-02  0.1011163E+00
         21   -1    0    0  502  501  0.00000000000E+00  0.00000000000E+00  0.29071534109E+03  0.29071534109E+03  0.00000000000E+00 0.  1.
         21   -1    0    0  501  502 -0.00000000000E+00 -0.00000000000E+00 -0.89521063507E+03  0.89521063507E+03  0.00000000000E+00 0.  1.
         25    1    1    2    0    0 -0.23435810596E+03 -0.10602743626E+03 -0.14318384590E+03  0.31983144436E+03  0.12500000000E+03 0.  0.
         25    1    1    2    0    0  0.26698737195E+03 -0.13393785537E+03 -0.49498961450E+03  0.59149076438E+03  0.12500000000E+03 0.  0.
         25    1    1    2    0    0 -0.32629265988E+02  0.23996529164E+03  0.33678166426E+02  0.27460376742E+03  0.12500000000E+03 0.  0.
</event>
<event>
 5    0  0.5653588E-005  0.2954553E+03  0.7546771E-02  0.1087535E+00
         21   -1    0    0  502  501  0.00000000000E+00  0.00000000000E+00  0.13548362951E+03  0.13548362951E+03  0.00000000000E+00 0. -1.
         21   -1    0    0  501  502 -0.00000000000E+00 -0.00000000000E+00 -0.64431275003E+03  0.64431275003E+03  0.00000000000E+00 0. -1.
         25    1    1    2    0    0 -0.80110711525E+02  0.23968620189E+02 -0.13529730478E+03  0.20229330571E+03  0.12500000000E+03 0.  0.
         25    1    1    2    0    0  0.15097101904E+03 -0.14982795568E+03 -0.24197030714E+03  0.34556518116E+03  0.12500000000E+03 0.  0.
         25    1    1    2    0    0 -0.70860307512E+02  0.12585933549E+03 -0.13156150860E+03  0.23193789267E+03  0.12500000000E+03 0.  0.
</event>
<event>
 5    0  0.5653588E-005  0.3603706E+03  0.7546771E-02  0.1058437E+00
         21   -1    0    0  502  501  0.00000000000E+00  0.00000000000E+00  0.86178900751E+02  0.86178900751E+02  0.00000000000E+00 0.  1.
         21   -1    0    0  501  502 -0.00000000000E+00 -0.00000000000E+00 -0.15069459931E+04  0.15069459931E+04  0.00000000000E+00 0.  1.
         25    1    1    2    0    0  0.25162775458E+03 -0.12554645362E+03 -0.46677619288E+03  0.55909163214E+03  0.12500000000E+03 0.  0.
         25    1    1    2    0    0 -0.53330752970E+02  0.43239087225E+02 -0.45138290711E+03  0.47337650629E+03  0.12500000000E+03 0.  0.
         25    1    1    2    0    0 -0.19829700161E+03  0.82307366393E+02 -0.50260799233E+03  0.56065675538E+03  0.12500000000E+03 0.  0.
</event>
<event>
 5    0  0.5653588E-005  0.2601546E+03  0.7546771E-02  0.1107050E+00
         21   -1    0    0  502  501  0.00000000000E+00  0.00000000000E+00  0.17105012446E+04  0.17105012446E+04  0.00000000000E+00 0. -1.
         21   -1    0    0  501  502 -0.00000000000E+00 -0.00000000000E+00 -0.39567586658E+02  0.39567586658E+02  0.00000000000E+00 0. -1.
         25    1    1    2    0    0 -0.53676827849E+02 -0.11183154489E+03  0.49486681210E+03  0.52526722532E+03  0.12500000000E+03 0.  0.
         25    1    1    2    0    0 -0.59867903213E+02 -0.14171890131E+01  0.46038076658E+03  0.48079270429E+03  0.12500000000E+03 0.  0.
         25    1    1    2    0    0  0.11354473106E+03  0.11324873390E+03  0.71568607931E+03  0.74400890170E+03  0.12500000000E+03 0.  0.
</event>
<event>
 5    0  0.5653588E-005  0.5673241E+03  0.7546771E-02  0.9975618E-01
         21   -1    0    0  502  501  0.00000000000E+00  0.00000000000E+00  0.38428284835E+03  0.38428284835E+03  0.00000000000E+00 0. -1.
         21   -1    0    0  501  502 -0.00000000000E+00 -0.00000000000E+00 -0.83755125205E+03  0.83755125205E+03  0.00000000000E+00 0. -1.
         25    1    1    2    0    0 -0.29774342492E+03  0.14134358519E+03 -0.13694278979E+03  0.37816330313E+03  0.12500000000E+03 0.  0.
         25    1    1    2    0    0  0.48229485787E+03 -0.73636652149E+02 -0.34277062880E+03  0.60921867210E+03  0.12500000000E+03 0.  0.
         25    1    1    2    0    0 -0.18455143295E+03 -0.67706933042E+02  0.26445014892E+02  0.23445212517E+03  0.12500000000E+03 0.  0.
</event>
<event>
 5    0  0.5653588E-005  0.3074022E+03  0.7546771E-02  0.1081598E+00
         21   -1    0    0  502  501  0.00000000000E+00  0.00000000000E+00  0.81860699438E+02  0.81860699438E+02  0.00000000000E+00 0. -1.
         21   -1    0    0  501  502 -0.00000000000E+00 -0.00000000000E+00 -0.11543525988E+04  0.11543525988E+04  0.00000000000E+00 0. -1.
         25    1    1    2    0    0 -0.10042605700E+03  0.15435067008E+03 -0.73866754834E+03  0.77146890362E+03  0.12500000000E+03 0.  0.
         25    1    1    2    0    0  0.27340377327E+02 -0.64755407638E+02 -0.20962700858E+03  0.25398669606E+03  0.12500000000E+03 0.  0.
         25    1    1    2    0    0  0.73085679677E+02 -0.89595262437E+02 -0.12419734241E+03  0.21075769852E+03  0.12500000000E+03 0.  0.
</event>
<event>
 5    0  0.5653588E-005  0.2194704E+03  0.7546771E-02  0.1134278E+00
         21   -1    0    0  502  501  0.00000000000E+00  0.00000000000E+00  0.25987449242E+03  0.25987449242E+03  0.00000000000E+00 0. -1.
         21   -1    0    0  501  502 -0.00000000000E+00 -0.00000000000E+00 -0.18534817365E+03  0.18534817365E+03  0.00000000000E+00 0. -1.
         25    1    1    2    0    0  0.63428020690E+02  0.68770669254E+02  0.24066272169E+02  0.15797691038E+03  0.12500000000E+03 0.  0.
         25    1    1    2    0    0 -0.71001003324E+02 -0.50888687574E+02  0.50827127309E+02  0.16074575536E+03  0.12500000000E+03 0.  0.
         25    1    1    2    0    0  0.75729826344E+01 -0.17881981679E+02 -0.36708071554E+00  0.12650000033E+03  0.12500000000E+03 0.  0.
</event>
<event>
 5    0  0.5653588E-005  0.3673887E+03  0.7546771E-02  0.1055696E+00
         21   -1    0    0  502  501  0.00000000000E+00  0.00000000000E+00  0.15186962758E+03  0.15186962758E+03  0.00000000000E+00 0. -1.
         21   -1    0    0  501  502 -0.00000000000E+00 -0.00000000000E+00 -0.88875210846E+03  0.88875210846E+03  0.00000000000E+00 0. -1.
         25    1    1    2    0    0 -0.46267009373E+02  0.82896658102E+02 -0.90661530595E+02  0.18126501375E+03  0.12500000000E+03 0.  0.
         25    1    1    2    0    0  0.54294962430E+02 -0.21225377651E+03 -0.79121849953E+02  0.26435747716E+03  0.12500000000E+03 0.  0.
         25    1    1    2    0    0 -0.80279530568E+01  0.12935711841E+03 -0.56709910033E+03  0.59499924513E+03  0.12500000000E+03 0.  0.
</event>
<event>
 5    0  0.6206650E-005  0.4068467E+03  0.7546771E-02  0.1041434E+00
         21   -1    0    0  502  501  0.00000000000E+00  0.00000000000E+00  0.22026645544E+03  0.22026645544E+03  0.00000000000E+00 0. -1.
         21   -1    0    0  501  502 -0.00000000000E+00 -0.00000000000E+00 -0.75147270439E+03  0.75147270439E+03  0.00000000000E+00 0. -1.
         25    1    1    2    0    0 -0.13802980606E+03 -0.18931514908E+03 -0.14957618134E+03  0.30477940721E+03  0.12500000000E+03 0.  0.
         25    1    1    2    0    0  0.11481474251E+03  0.25069263944E+03 -0.50417302426E+02  0.30691387872E+03  0.12500000000E+03 0.  0.
         25    1    1    2    0    0  0.23215063543E+02 -0.61377490352E+02 -0.33121276518E+03  0.36004587390E+03  0.12500000000E+03 0.  0.
</event>
<event>
 5    0  0.5653588E-005  0.3423398E+03  0.7546771E-02  0.1065804E+00
         21   -1    0    0  502  501  0.00000000000E+00  0.00000000000E+00  0.57174270286E+03  0.57174270286E+03  0.00000000000E+00 0. -1.
         21   -1    0    0  501  502 -0.00000000000E+00 -0.00000000000E+00 -0.20498130942E+03  0.20498130942E+03  0.00000000000E+00 0. -1.
         25    1    1    2    0    0 -0.16889921480E+02 -0.84803554048E+02  0.20115271549E+02  0.15331841499E+03  0.12500000000E+03 0.  0.
         25    1    1    2    0    0  0.11310233394E+02  0.15493680685E+03  0.41805677263E+03  0.46317361824E+03  0.12500000000E+03 0.  0.
         25    1    1    2    0    0  0.55796880858E+01 -0.70133252804E+02 -0.71410650739E+02  0.16023197904E+03  0.12500000000E+03 0.  0.
</event>
<event>
 5    0  0.5653588E-005  0.3800407E+03  0.7546771E-02  0.1050919E+00
         21   -1    0    0  502  501  0.00000000000E+00  0.00000000000E+00  0.91448902749E+03  0.91448902749E+03  0.00000000000E+00 0.  1.
         21   -1    0    0  501  502 -0.00000000000E+00 -0.00000000000E+00 -0.15793624549E+03  0.15793624549E+03  0.00000000000E+00 0.  1.
         25    1    1    2    0    0 -0.83931130137E+02  0.67272826604E+02  0.33032926755E+03  0.36920521774E+03  0.12500000000E+03 0.  0.
         25    1    1    2    0    0  0.27784645051E+03 -0.10723183185E+03  0.21610496522E+03  0.38861764218E+03  0.12500000000E+03 0.  0.
         25    1    1    2    0    0 -0.19391532037E+03  0.39959005245E+02  0.21011854923E+03  0.31460241306E+03  0.12500000000E+03 0.  0.
</event>
<event>
 5    0  0.5653588E-005  0.2284319E+03  0.7546771E-02  0.1127748E+00
         21   -1    0    0  502  501  0.00000000000E+00  0.00000000000E+00  0.23343944182E+03  0.23343944182E+03  0.00000000000E+00 0. -1.
         21   -1    0    0  501  502 -0.00000000000E+00 -0.00000000000E+00 -0.22353186486E+03  0.22353186486E+03  0.00000000000E+00 0. -1.
         25    1    1    2    0    0  0.58279627741E+02  0.18339506469E+00  0.69123366518E+02  0.15427115233E+03  0.12500000000E+03 0.  0.
         25    1    1    2    0    0 -0.88742315374E+01 -0.62639448980E+02 -0.64854953717E+02  0.15438140295E+03  0.12500000000E+03 0.  0.
         25    1    1    2    0    0 -0.49405396204E+02  0.62456053915E+02  0.56391641570E+01  0.14831875140E+03  0.12500000000E+03 0.  0.
</event>
<event>
 5    0  0.5653588E-005  0.2274265E+03  0.7546771E-02  0.1128464E+00
         21   -1    0    0  502  501  0.00000000000E+00  0.00000000000E+00  0.37110652490E+02  0.37110652490E+02  0.00000000000E+00 0.  1.
         21   -1    0    0  501  502 -0.00000000000E+00 -0.00000000000E+00 -0.13937456246E+04  0.13937456246E+04  0.00000000000E+00 0.  1.
         25    1    1    2    0    0 -0.66269887304E+02  0.11341540558E+02 -0.52253672076E+03  0.54147017743E+03  0.12500000000E+03 0.  0.
         25    1    1    2    0    0 -0.14108192840E+02  0.32564040205E+02 -0.21523931544E+03  0.25142080410E+03  0.12500000000E+03 0.  0.
         25    1    1    2    0    0  0.80378080144E+02 -0.43905580763E+02 -0.61885893588E+03  0.63796529553E+03  0.12500000000E+03 0.  0.
</event>
<event>
 5    0  0.5653588E-005  0.2735044E+03  0.7546771E-02  0.1099291E+00
         21   -1    0    0  502  501  0.00000000000E+00  0.00000000000E+00  0.14462355150E+04  0.14462355150E+04  0.00000000000E+00 0.  1.
         21   -1    0    0  501  502 -0.00000000000E+00 -0.00000000000E+00 -0.51723718040E+02  0.51723718040E+02  0.00000000000E+00 0.  1.
         25    1    1    2    0    0 -0.11878633559E+03  0.68652560043E+02  0.42775960937E+03  0.46629030757E+03  0.12500000000E+03 0.  0.
         25    1    1    2    0    0  0.81080871611E+02  0.66815995272E+02  0.56355446949E+03  0.58673428828E+03  0.12500000000E+03 0.  0.
         25    1    1    2    0    0  0.37705463975E+02 -0.13546855531E+03  0.40319771813E+03  0.44493463722E+03  0.12500000000E+03 0.  0.
</event>
<event>
 5    0  0.6263531E-005  0.3192848E+03  0.7546771E-02  0.1075979E+00
         21   -1    0    0  502  501  0.00000000000E+00  0.00000000000E+00  0.25862554509E+03  0.25862554509E+03  0.00000000000E+00 0.  1.
         21   -1    0    0  501  502 -0.00000000000E+00 -0.00000000000E+00 -0.39417131018E+03  0.39417131018E+03  0.00000000000E+00 0.  1.
         25    1    1    2    0    0 -0.42971813250E+02 -0.21092640409E+01  0.10320330529E+03  0.16771090588E+03  0.12500000000E+03 0.  0.
         25    1    1    2    0    0 -0.63764642268E+02 -0.13474353963E+03 -0.17560425440E+03  0.26207557162E+03  0.12500000000E+03 0.  0.
         25    1    1    2    0    0  0.10673645552E+03  0.13685280367E+03 -0.63144815978E+02  0.22301037777E+03  0.12500000000E+03 0.  0.
</event>
<event>
 5    0  0.5653588E-005  0.2270146E+03  0.7546771E-02  0.1128759E+00
         21   -1    0    0  502  501  0.00000000000E+00  0.00000000000E+00  0.19007135796E+03  0.19007135796E+03  0.00000000000E+00 0.  1.
         21   -1    0    0  501  502 -0.00000000000E+00 -0.00000000000E+00 -0.27113829955E+03  0.27113829955E+03  0.00000000000E+00 0.  1.
         25    1    1    2    0    0 -0.73611500005E+02 -0.85906831591E+02 -0.69834718998E+02  0.18248431337E+03  0.12500000000E+03 0.  0.
         25    1    1    2    0    0  0.60837809561E+02  0.51120061809E+02 -0.64410318689E+01  0.14825986201E+03  0.12500000000E+03 0.  0.
         25    1    1    2    0    0  0.12773690444E+02  0.34786769782E+02 -0.47911907184E+01  0.13046548213E+03  0.12500000000E+03 0.  0.
</event>
<event>
 5    0  0.5653588E-005  0.4659825E+03  0.7546771E-02  0.1023060E+00
         21   -1    0    0  502  501  0.00000000000E+00  0.00000000000E+00  0.65557059609E+03  0.65557059609E+03  0.00000000000E+00 0. -1.
         21   -1    0    0  501  502 -0.00000000000E+00 -0.00000000000E+00 -0.33122236595E+03  0.33122236595E+03  0.00000000000E+00 0. -1.
         25    1    1    2    0    0  0.35327829827E+03  0.96243705999E+02  0.26777513023E+03  0.47052834914E+03  0.12500000000E+03 0.  0.
         25    1    1    2    0    0 -0.75601845368E+02 -0.58358821317E+02 -0.84454619529E+02  0.17854683926E+03  0.12500000000E+03 0.  0.
         25    1    1    2    0    0 -0.27767645290E+03 -0.37884884682E+02  0.14102771945E+03  0.33771777365E+03  0.12500000000E+03 0.  0.
</event>
<event>
 5    0  0.5978805E-005  0.2638867E+03  0.7546771E-02  0.1104830E+00
         21   -1    0    0  502  501  0.00000000000E+00  0.00000000000E+00  0.33968324755E+03  0.33968324755E+03  0.00000000000E+00 0.  1.
         21   -1    0    0  501  502 -0.00000000000E+00 -0.00000000000E+00 -0.20500337134E+03  0.20500337134E+03  0.00000000000E+00 0.  1.
         25    1    1    2    0    0  0.10536742232E+03  0.42701697140E+02  0.12156508316E+03  0.20815570631E+03  0.12500000000E+03 0.  0.
         25    1    1    2    0    0 -0.39944231616E+02  0.16026570746E+02  0.95339465830E+02  0.16299388441E+03  0.12500000000E+03 0.  0.
         25    1    1    2    0    0 -0.65423190704E+02 -0.58728267886E+02 -0.82224672787E+02  0.17353702817E+03  0.12500000000E+03 0.  0.
</event>
<event>
 5    0  0.5653588E-005  0.3746928E+03  0.7546771E-02  0.1052913E+00
         21   -1    0    0  502  501  0.00000000000E+00  0.00000000000E+00  0.84965494537E+03  0.84965494537E+03  0.00000000000E+00 0.  1.
         21   -1    0    0  501  502 -0.00000000000E+00 -0.00000000000E+00 -0.16523732859E+03  0.16523732859E+03  0.00000000000E+00 0.  1.
         25    1    1    2    0    0 -0.25869173599E+02  0.30656075739E+03  0.34713952303E+03  0.48039521288E+03  0.12500000000E+03 0.  0.
         25    1    1    2    0    0  0.49408273608E+02 -0.18554819360E+03  0.24764149403E+03  0.33737311573E+03  0.12500000000E+03 0.  0.
         25    1    1    2    0    0 -0.23539100009E+02 -0.12101256379E+03  0.89636599721E+02  0.19712394536E+03  0.12500000000E+03 0.  0.
</event>
<event>
 5    0  0.5653588E-005  0.2688531E+03  0.7546771E-02  0.1101938E+00
         21   -1    0    0  502  501  0.00000000000E+00  0.00000000000E+00  0.54837369396E+03  0.54837369396E+03  0.00000000000E+00 0. -1.
         21   -1    0    0  501  502 -0.00000000000E+00 -0.00000000000E+00 -0.13181153596E+03  0.13181153596E+03  0.00000000000E+00 0. -1.
         25    1    1    2    0    0 -0.18181744077E+02 -0.12745164915E+02 -0.16782956425E+02  0.12806124579E+03  0.12500000000E+03 0.  0.
         25    1    1    2    0    0 -0.80095843069E+02  0.79337384720E+02  0.18906322507E+03  0.25313962109E+03  0.12500000000E+03 0.  0.
         25    1    1    2    0    0  0.98277587146E+02 -0.66592219805E+02  0.24428188936E+03  0.29898436304E+03  0.12500000000E+03 0.  0.
</event>
<event>
 5    0  0.5653588E-005  0.3337366E+03  0.7546771E-02  0.1069495E+00
         21   -1    0    0  502  501  0.00000000000E+00  0.00000000000E+00  0.38922144853E+03  0.38922144853E+03  0.00000000000E+00 0. -1.
         21   -1    0    0  501  502 -0.00000000000E+00 -0.00000000000E+00 -0.28616138149E+03  0.28616138149E+03  0.00000000000E+00 0. -1.
         25    1    1    2    0    0 -0.19094602077E+03  0.33218589826E+01 -0.11991025426E+03  0.25782724191E+03  0.12500000000E+03 0.  0.
         25    1    1    2    0    0  0.90040676663E+02  0.49180561889E+02  0.36287006573E+02  0.16573411830E+03  0.12500000000E+03 0.  0.
         25    1    1    2    0    0  0.10090534410E+03 -0.52502420872E+02  0.18668331472E+03  0.25182146982E+03  0.12500000000E+03 0.  0.
</event>
<event>
 5    0  0.5653588E-005  0.8438544E+03  0.7546771E-02  0.9498623E-01
         21   -1    0    0  502  501  0.00000000000E+00  0.00000000000E+00  0.41295133096E+03  0.41295133096E+03  0.00000000000E+00 0. -1.
         21   -1    0    0  501  502 -0.00000000000E+00 -0.00000000000E+00 -0.17243928048E+04  0.17243928048E+04  0.00000000000E+00 0. -1.
         25    1    1    2    0    0  0.19285258074E+03 -0.50564668385E+03 -0.11615147459E+04  0.12874828899E+04  0.12500000000E+03 0.  0.
         25    1    1    2    0    0 -0.68663481655E+02  0.61354857320E+03 -0.11457867531E+03  0.64024198412E+03  0.12500000000E+03 0.  0.
         25    1    1    2    0    0 -0.12418909909E+03 -0.10790188935E+03 -0.35348052574E+02  0.20961926171E+03  0.12500000000E+03 0.  0.
</event>
<event>
 5    0  0.5653588E-005  0.2906781E+03  0.7546771E-02  0.1089996E+00
         21   -1    0    0  502  501  0.00000000000E+00  0.00000000000E+00  0.78673686300E+03  0.78673686300E+03  0.00000000000E+00 0.  1.
         21   -1    0    0  501  502 -0.00000000000E+00 -0.00000000000E+00 -0.10739774858E+03  0.10739774858E+03  0.00000000000E+00 0.  1.
         25    1    1    2    0    0 -0.51106228105E+02  0.11765373584E+03  0.30273231263E+03  0.35174721210E+03  0.12500000000E+03 0.  0.
         25    1    1    2    0    0 -0.51578200934E+02 -0.17057846322E+03  0.18100149845E+03  0.28309691868E+03  0.12500000000E+03 0.  0.
         25    1    1    2    0    0  0.10268442904E+03  0.52924727376E+02  0.19560530334E+03  0.25929048079E+03  0.12500000000E+03 0.  0.
</event>
<event>
 5    0  0.5653588E-005  0.3370992E+03  0.7546771E-02  0.1068038E+00
         21   -1    0    0  502  501  0.00000000000E+00  0.00000000000E+00  0.18146368132E+03  0.18146368132E+03  0.00000000000E+00 0. -1.
         21   -1    0    0  501  502 -0.00000000000E+00 -0.00000000000E+00 -0.62621838797E+03  0.62621838797E+03  0.00000000000E+00 0. -1.
         25    1    1    2    0    0  0.97340316428E+01  0.38338872496E+02 -0.44949485224E+03  0.46822563226E+03  0.12500000000E+03 0.  0.
         25    1    1    2    0    0  0.58116505407E+02  0.61286880229E+02  0.51865829781E+02  0.15952640593E+03  0.12500000000E+03 0.  0.
         25    1    1    2    0    0 -0.67850537050E+02 -0.99625752726E+02 -0.47125684190E+02  0.17993003111E+03  0.12500000000E+03 0.  0.
</event>
<event>
 5    0  0.5653588E-005  0.3246195E+03  0.7546771E-02  0.1073543E+00
         21   -1    0    0  502  501  0.00000000000E+00  0.00000000000E+00  0.62508602000E+02  0.62508602000E+02  0.00000000000E+00 0.  1.
         21   -1    0    0  501  502 -0.00000000000E+00 -0.00000000000E+00 -0.16858134111E+04  0.16858134111E+04  0.00000000000E+00 0.  1.
         25    1    1    2    0    0  0.50840122580E+02 -0.33753486425E+02 -0.72515090562E+03  0.73837175720E+03  0.12500000000E+03 0.  0.
         25    1    1    2    0    0  0.96087924361E+02  0.15627727499E+03 -0.55410335974E+03  0.59691792498E+03  0.12500000000E+03 0.  0.
         25    1    1    2    0    0 -0.14692804694E+03 -0.12252378856E+03 -0.34405054377E+03  0.41303233095E+03  0.12500000000E+03 0.  0.
</event>
<event>
 5    0  0.5653588E-005  0.2639073E+03  0.7546771E-02  0.1104818E+00
         21   -1    0    0  502  501  0.00000000000E+00  0.00000000000E+00  0.92604963109E+03  0.92604963109E+03  0.00000000000E+00 0. -1.
         21   -1    0    0  501  502 -0.00000000000E+00 -0.00000000000E+00 -0.75208796839E+02  0.75208796839E+02  0.00000000000E+00 0. -1.
         25    1    1    2    0    0  0.15964735170E+02  0.19026523284E+01  0.17879222481E+03  0.21874677713E+03  0.12500000000E+03 0.  0.
         25    1    1    2    0    0  0.29429956299E+00 -0.10978262952E+03  0.55517567915E+03  0.57956651652E+03  0.12500000000E+03 0.  0.
         25    1    1    2    0    0 -0.16259034733E+02  0.10787997719E+03  0.11687293029E+03  0.20294513427E+03  0.12500000000E+03 0.  0.
</event>
<event>
 5    0  0.5678944E-005  0.3609068E+03  0.7546771E-02  0.1058225E+00
         21   -1    0    0  502  501  0.00000000000E+00  0.00000000000E+00  0.22912953101E+03  0.22912953101E+03  0.00000000000E+00 0.  1.
         21   -1    0    0  501  502 -0.00000000000E+00 -0.00000000000E+00 -0.56847210522E+03  0.56847210522E+03  0.00000000000E+00 0.  1.
         25    1    1    2    0    0 -0.97934385274E+02  0.25176434072E+03 -0.23945752570E+03  0.38202268740E+03  0.12500000000E+03 0.  0.
         25    1    1    2    0    0  0.12918813458E+03 -0.12481482385E+03 -0.82441246183E+02  0.23385866125E+03  0.12500000000E+03 0.  0.
         25    1    1    2    0    0 -0.31253749307E+02 -0.12694951686E+03 -0.17443802335E+02  0.18172028758E+03  0.12500000000E+03 0.  0.
</event>
<event>
 5    0  0.5653588E-005  0.3091588E+03  0.7546771E-02  0.1080750E+00
         21   -1    0    0  502  501  0.00000000000E+00  0.00000000000E+00  0.10504461391E+03  0.10504461391E+03  0.00000000000E+00 0.  1.
         21   -1    0    0  501  502 -0.00000000000E+00 -0.00000000000E+00 -0.90989132537E+03  0.90989132537E+03  0.00000000000E+00 0.  1.
         25    1    1    2    0    0  0.95773526577E+02 -0.34480434156E+02 -0.22480891317E+03  0.27663245683E+03  0.12500000000E+03 0.  0.
         25    1    1    2    0    0  0.42921506366E+02  0.17659503629E+03 -0.25063114439E+03  0.33386978463E+03  0.12500000000E+03 0.  0.
         25    1    1    2    0    0 -0.13869503294E+03 -0.14211460213E+03 -0.32940665390E+03  0.40443369783E+03  0.12500000000E+03 0.  0.
</event>
<event>
 5    0  0.5653588E-005  0.4340838E+03  0.7546771E-02  0.1032578E+00
         21   -1    0    0  502  501  0.00000000000E+00  0.00000000000E+00  0.97837602468E+03  0.97837602468E+03  0.00000000000E+00 0. -1.
         21   -1    0    0  501  502 -0.00000000000E+00 -0.00000000000E+00 -0.19259342246E+03  0.19259342246E+03  0.00000000000E+00 0. -1.
         25    1    1    2    0    0  0.20743822338E+03  0.15849829776E+03  0.27912683864E+03  0.40210585542E+03  0.12500000000E+03 0.  0.
         25    1    1    2    0    0  0.13493671168E+03 -0.75205060442E+02  0.22877885205E+03  0.30303214420E+03  0.12500000000E+03 0.  0.
         25    1    1    2    0    0 -0.34237493506E+03 -0.83293237313E+02  0.27787691152E+03  0.46583144752E+03  0.12500000000E+03 0.  0.
</event>
<event>
 5    0  0.6366556E-005  0.3239901E+03  0.7546771E-02  0.1073827E+00
         21   -1    0    0  502  501  0.00000000000E+00  0.00000000000E+00  0.24898310873E+03  0.24898310873E+03  0.00000000000E+00 0. -1.
         21   -1    0    0  501  502 -0.00000000000E+00 -0.00000000000E+00 -0.42159320384E+03  0.42159320384E+03  0.00000000000E+00 0. -1.
         25    1    1    2    0    0  0.23947042893E+03 -0.36024165156E+02 -0.12294697531E+03  0.29897288429E+03  0.12500000000E+03 0.  0.
         25    1    1    2    0    0 -0.75641934399E+02 -0.28372821026E+02  0.49095056970E+01  0.14891548764E+03  0.12500000000E+03 0.  0.
         25    1    1    2    0    0 -0.16382849453E+03  0.64396986182E+02 -0.54572625502E+02  0.22268794063E+03  0.12500000000E+03 0.  0.
</event>
<event>
 5    0  0.5653588E-005  0.3986589E+03  0.7546771E-02  0.1044245E+00
         21   -1    0    0  502  501  0.00000000000E+00  0.00000000000E+00  0.12613663154E+04  0.12613663154E+04  0.00000000000E+00 0.  1.
         21   -1    0    0  501  502 -0.00000000000E+00 -0.00000000000E+00 -0.12599741575E+03  0.12599741575E+03  0.00000000000E+00 0.  1.
         25    1    1    2    0    0 -0.94646899453E+02  0.13079596824E+03  0.19611799068E+03  0.28311285233E+03  0.12500000000E+03 0.  0.
         25    1    1    2    0    0  0.29844315086E+03 -0.10405201476E+03  0.56486098965E+03  0.65923294343E+03  0.12500000000E+03 0.  0.
         25    1    1    2    0    0 -0.20379625141E+03 -0.26743953483E+02  0.37438991928E+03  0.44501793536E+03  0.12500000000E+03 0.  0.
</event>
<event>
 5    0  0.5653588E-005  0.2809142E+03  0.7546771E-02  0.1095191E+00
         21   -1    0    0  502  501  0.00000000000E+00  0.00000000000E+00  0.19187305411E+03  0.19187305411E+03  0.00000000000E+00 0.  1.
         21   -1    0    0  501  502 -0.00000000000E+00 -0.00000000000E+00 -0.41127591275E+03  0.41127591275E+03  0.00000000000E+00 0.  1.
         25    1    1    2    0    0 -0.89799188177E+02 -0.45247044835E+02 -0.23664230084E+03  0.28589467958E+03  0.12500000000E+03 0.  0.
         25    1    1    2    0    0  0.71744835942E+01  0.65427912773E+02  0.69296756583E+02  0.15735096268E+03  0.12500000000E+03 0.  0.
         25    1    1    2    0    0  0.82624704583E+02 -0.20180867937E+02 -0.52057314378E+02  0.15990332460E+03  0.12500000000E+03 0.  0.
</event>
<event>
 5    0  0.5797653E-005  0.2886036E+03  0.7546771E-02  0.1091081E+00
         21   -1    0    0  502  501  0.00000000000E+00  0.00000000000E+00  0.58822250321E+02  0.58822250321E+02  0.00000000000E+00 0. -1.
         21   -1    0    0  501  502 -0.00000000000E+00 -0.00000000000E+00 -0.14159949737E+04  0.14159949737E+04  0.00000000000E+00 0. -1.
         25    1    1    2    0    0  0.71859612488E+02 -0.69436235390E+02 -0.30962300228E+03  0.34853493115E+03  0.12500000000E+03 0.  0.
         25    1    1    2    0    0 -0.66868953633E+02  0.10161513783E+03 -0.94607514252E+03  0.96201885038E+03  0.12500000000E+03 0.  0.
         25    1    1    2    0    0 -0.49906588546E+01 -0.32178902441E+02 -0.10147457856E+03  0.16426344247E+03  0.12500000000E+03 0.  0.
</event>
<event>
 5    0  0.5653588E-005  0.3282479E+03  0.7546771E-02  0.1071915E+00
         21   -1    0    0  502  501  0.00000000000E+00  0.00000000000E+00  0.38189127060E+03  0.38189127060E+03  0.00000000000E+00 0. -1.
         21   -1    0    0  501  502 -0.00000000000E+00 -0.00000000000E+00 -0.28213968751E+03  0.28213968751E+03  0.00000000000E+00 0. -1.
         25    1    1    2    0    0  0.17771177374E+03 -0.15607832691E+03  0.32317585927E+02  0.26946492354E+03  0.12500000000E+03 0.  0.
         25    1    1    2    0    0 -0.16084927049E+03  0.16316949094E+03  0.61201604024E+02  0.26808097084E+03  0.12500000000E+03 0.  0.
         25    1    1    2    0    0 -0.16862503249E+02 -0.70911640333E+01  0.62323931437E+01  0.12648506373E+03  0.12500000000E+03 0.  0.
</event>
<event>
 5    0  0.5653588E-005  0.5052447E+03  0.7546771E-02  0.1012419E+00
         21   -1    0    0  502  501  0.00000000000E+00  0.00000000000E+00  0.87106527210E+03  0.87106527210E+03  0.00000000000E+00 0. -1.
         21   -1    0    0  501  502 -0.00000000000E+00 -0.00000000000E+00 -0.29305745924E+03  0.29305745924E+03  0.00000000000E+00 0. -1.
         25    1    1    2    0    0 -0.19668444294E+02 -0.18598442902E+03 -0.31836999609E+01  0.22497153483E+03  0.12500000000E+03 0.  0.
         25    1    1    2    0    0  0.21326476551E+03  0.71931887210E+02  0.62716444502E+03  0.67795007021E+03  0.12500000000E+03 0.  0.
         25    1    1    2    0    0 -0.19359632121E+03  0.11405254181E+03 -0.45972932189E+02  0.26120112629E+03  0.12500000000E+03 0.  0.
</event>
<event>
 5    0  0.5653588E-005  0.5536234E+03  0.7546771E-02  0.1000659E+00
         21   -1    0    0  502  501  0.00000000000E+00  0.00000000000E+00  0.19300545453E+03  0.19300545453E+03  0.00000000000E+00 0. -1.
         21   -1    0    0  501  502 -0.00000000000E+00 -0.00000000000E+00 -0.15880321287E+04  0.15880321287E+04  0.00000000000E+00 0. -1.
         25    1    1    2    0    0  0.25978864425E+03 -0.22948600827E+03 -0.24267221560E+03  0.44121284195E+03  0.12500000000E+03 0.  0.
         25    1    1    2    0    0 -0.44301325350E+02  0.16300461309E+03 -0.10357419288E+04  0.10568441013E+04  0.12500000000E+03 0.  0.
         25    1    1    2    0    0 -0.21548731890E+03  0.66481395180E+02 -0.11661252974E+03  0.28298063999E+03  0.12500000000E+03 0.  0.
</event>
<event>
 5    0  0.5653588E-005  0.2903259E+03  0.7546771E-02  0.1090179E+00
         21   -1    0    0  502  501  0.00000000000E+00  0.00000000000E+00  0.19069428060E+04  0.19069428060E+04  0.00000000000E+00 0.  1.
         21   -1    0    0  501  502 -0.00000000000E+00 -0.00000000000E+00 -0.44201177489E+02  0.44201177489E+02  0.00000000000E+00 0.  1.
         25    1    1    2    0    0  0.78660642936E+02  0.79197527977E+02  0.20005520135E+03  0.26097285064E+03  0.12500000000E+03 0.  0.
         25    1    1    2    0    0 -0.10101793728E+02 -0.76107290479E+02  0.10980696463E+04  0.11078250376E+04  0.12500000000E+03 0.  0.
         25    1    1    2    0    0 -0.68558849207E+02 -0.30902374980E+01  0.56461678089E+03  0.58234609523E+03  0.12500000000E+03 0.  0.
</event>
<event>
 5    0  0.5653588E-005  0.8159516E+03  0.7546771E-02  0.9537211E-01
         21   -1    0    0  502  501  0.00000000000E+00  0.00000000000E+00  0.41742180833E+03  0.41742180833E+03  0.00000000000E+00 0. -1.
         21   -1    0    0  501  502 -0.00000000000E+00 -0.00000000000E+00 -0.15949743281E+04  0.15949743281E+04  0.00000000000E+00 0. -1.
         25    1    1    2    0    0 -0.65554157160E+02  0.50709764362E+02  0.14307586613E+03  0.20727887300E+03  0.12500000000E+03 0.  0.
         25    1    1    2    0    0  0.22252368139E+03  0.21011295001E+02 -0.15029866688E+04  0.15246482184E+04  0.12500000000E+03 0.  0.
         25    1    1    2    0    0 -0.15696952423E+03 -0.71721059363E+02  0.18235828289E+03  0.28046904505E+03  0.12500000000E+03 0.  0.
</event>
<event>
 5    0  0.5653588E-005  0.2275693E+03  0.7546771E-02  0.1128362E+00
         21   -1    0    0  502  501  0.00000000000E+00  0.00000000000E+00  0.79647311644E+02  0.79647311644E+02  0.00000000000E+00 0. -1.
         21   -1    0    0  501  502 -0.00000000000E+00 -0.00000000000E+00 -0.65021370525E+03  0.65021370525E+03  0.00000000000E+00 0. -1.
         25    1    1    2    0    0 -0.52165827212E+01  0.51175160890E+02 -0.19522972954E+03  0.23745685318E+03  0.12500000000E+03 0.  0.
         25    1    1    2    0    0 -0.81681271790E+02 -0.64150790380E+02 -0.15740652158E+03  0.22624978918E+03  0.12500000000E+03 0.  0.
         25    1    1    2    0    0  0.86897854512E+02  0.12975629489E+02 -0.21793014248E+03  0.26615437453E+03  0.12500000000E+03 0.  0.
</event>
<event>
 5    0  0.6706891E-005  0.3335531E+03  0.7546771E-02  0.1069575E+00
         21   -1    0    0  502  501  0.00000000000E+00  0.00000000000E+00  0.24700345291E+03  0.24700345291E+03  0.00000000000E+00 0. -1.
         21   -1    0    0  501  502 -0.00000000000E+00 -0.00000000000E+00 -0.45042960662E+03  0.45042960662E+03  0.00000000000E+00 0. -1.
         25    1    1    2    0    0 -0.12830332734E+03 -0.21318230638E+03 -0.14315779301E+03  0.31309358546E+03  0.12500000000E+03 0.  0.
         25    1    1    2    0    0  0.11196904670E+03  0.87072576674E+02  0.17372692616E+02  0.18985655500E+03  0.12500000000E+03 0.  0.
         25    1    1    2    0    0  0.16334280635E+02  0.12610972971E+03 -0.77641053316E+02  0.19448291907E+03  0.12500000000E+03 0.  0.
</event>
<event>
 5    0  0.5653588E-005  0.3315681E+03  0.7546771E-02  0.1070445E+00
         21   -1    0    0  502  501  0.00000000000E+00  0.00000000000E+00  0.56388117895E+02  0.56388117895E+02  0.00000000000E+00 0.  1.
         21   -1    0    0  501  502 -0.00000000000E+00 -0.00000000000E+00 -0.19496550715E+04  0.19496550715E+04  0.00000000000E+00 0.  1.
         25    1    1    2    0    0  0.78329819965E+02  0.12545487363E+03 -0.26529516197E+03  0.32845244553E+03  0.12500000000E+03 0.  0.
         25    1    1    2    0    0 -0.12193376110E+03  0.46752047462E+02 -0.89673370486E+03  0.91477315957E+03  0.12500000000E+03 0.  0.
         25    1    1    2    0    0  0.43603941130E+02 -0.17220692109E+03 -0.73123808677E+03  0.76281758429E+03  0.12500000000E+03 0.  0.
</event>
<event>
 5    0  0.5653588E-005  0.3478449E+03  0.7546771E-02  0.1063503E+00
         21   -1    0    0  502  501  0.00000000000E+00  0.00000000000E+00  0.10987482347E+03  0.10987482347E+03  0.00000000000E+00 0.  1.
         21   -1    0    0  501  502 -0.00000000000E+00 -0.00000000000E+00 -0.11012176990E+04  0.11012176990E+04  0.00000000000E+00 0.  1.
         25    1    1    2    0    0  0.13394809761E+03  0.33470268427E+02 -0.27460003866E+03  0.33180194839E+03  0.12500000000E+03 0.  0.
         25    1    1    2    0    0 -0.19005853114E+03  0.90465182955E+02 -0.15941288585E+03  0.29213637699E+03  0.12500000000E+03 0.  0.
         25    1    1    2    0    0  0.56110433533E+02 -0.12393545138E+03 -0.55732995099E+03  0.58715419706E+03  0.12500000000E+03 0.  0.
</event>
<event>
 5    0  0.5653588E-005  0.2954481E+03  0.7546771E-02  0.1087538E+00
         21   -1    0    0  502  501  0.00000000000E+00  0.00000000000E+00  0.21317023513E+04  0.21317023513E+04  0.00000000000E+00 0. -1.
         21   -1    0    0  501  502 -0.00000000000E+00 -0.00000000000E+00 -0.40948296891E+02  0.40948296891E+02  0.00000000000E+00 0. -1.
         25    1    1    2    0    0 -0.83456943563E+01  0.61672507076E+02  0.12011164707E+04  0.12092059067E+04  0.12500000000E+03 0.  0.
         25    1    1    2    0    0 -0.12052280692E+03 -0.73793647976E+01  0.32622784678E+03  0.36963469809E+03  0.12500000000E+03 0.  0.
         25    1    1    2    0    0  0.12886850128E+03 -0.54293142279E+02  0.56340973697E+03  0.59381004339E+03  0.12500000000E+03 0.  0.
</event>
<event>
 5    0  0.5653588E-005  0.4172122E+03  0.7546771E-02  0.1037977E+00
         21   -1    0    0  502  501  0.00000000000E+00  0.00000000000E+00  0.33420520913E+04  0.33420520913E+04  0.00000000000E+00 0. -1.
         21   -1    0    0  501  502 -0.00000000000E+00 -0.00000000000E+00 -0.52083567082E+02  0.52083567082E+02  0.00000000000E+00 0. -1.
         25    1    1    2    0    0 -0.94051135282E+02  0.20808988430E+03  0.21239744436E+04  0.21398690271E+04  0.12500000000E+03 0.  0.
         25    1    1    2    0    0  0.12666105620E+03 -0.17026950774E+03  0.10438197427E+04  0.10724828128E+04  0.12500000000E+03 0.  0.
         25    1    1    2    0    0 -0.32609920922E+02 -0.37820376560E+02  0.12217433783E+03  0.18178381845E+03  0.12500000000E+03 0.  0.
</event>
<event>
 5    0  0.5822732E-005  0.2576135E+03  0.7546771E-02  0.1108586E+00
         21   -1    0    0  502  501  0.00000000000E+00  0.00000000000E+00  0.16072145566E+03  0.16072145566E+03  0.00000000000E+00 0.  1.
         21   -1    0    0  501  502 -0.00000000000E+00 -0.00000000000E+00 -0.41291763999E+03  0.41291763999E+03  0.00000000000E+00 0.  1.
         25    1    1    2    0    0 -0.83505853799E+01  0.45923578957E+02  0.26457038947E+02  0.13602824078E+03  0.12500000000E+03 0.  0.
         25    1    1    2    0    0  0.82118684030E+02  0.79578824907E+01 -0.23157764845E+03  0.27578979934E+03  0.12500000000E+03 0.  0.
         25    1    1    2    0    0 -0.73768098650E+02 -0.53881461448E+02 -0.47075574825E+02  0.16182105553E+03  0.12500000000E+03 0.  0.
</event>
<event>
 5    0  0.5653588E-005  0.2551171E+03  0.7546771E-02  0.1110113E+00
         21   -1    0    0  502  501  0.00000000000E+00  0.00000000000E+00  0.82382601147E+02  0.82382601147E+02  0.00000000000E+00 0. -1.
         21   -1    0    0  501  502 -0.00000000000E+00 -0.00000000000E+00 -0.79003026181E+03  0.79003026181E+03  0.00000000000E+00 0. -1.
         25    1    1    2    0    0 -0.72472876001E+01  0.82185244721E+02 -0.27629793194E+03  0.31428090114E+03  0.12500000000E+03 0.  0.
         25    1    1    2    0    0  0.10860859403E+03 -0.47624122675E+02 -0.30622219753E+03  0.35137005851E+03  0.12500000000E+03 0.  0.
         25    1    1    2    0    0 -0.10136130643E+03 -0.34561122046E+02 -0.12512753120E+03  0.20676190332E+03  0.12500000000E+03 0.  0.
</event>
<event>
 5    0  0.5653588E-005  0.2973696E+03  0.7546771E-02  0.1086563E+00
         21   -1    0    0  502  501  0.00000000000E+00  0.00000000000E+00  0.63505663118E+03  0.63505663118E+03  0.00000000000E+00 0. -1.
         21   -1    0    0  501  502 -0.00000000000E+00 -0.00000000000E+00 -0.13924536675E+03  0.13924536675E+03  0.00000000000E+00 0. -1.
         25    1    1    2    0    0 -0.86594893516E+02  0.68572119360E+02  0.15630425413E+03  0.22859753060E+03  0.12500000000E+03 0.  0.
         25    1    1    2    0    0  0.13213637824E+03  0.19574605759E+02  0.34002320820E+03  0.38611393365E+03  0.12500000000E+03 0.  0.
         25    1    1    2    0    0 -0.45541484724E+02 -0.88146725119E+02 -0.51619790182E+00  0.15959053368E+03  0.12500000000E+03 0.  0.
</event>
<event>
 5    0  0.5653588E-005  0.3367009E+03  0.7546771E-02  0.1068210E+00
         21   -1    0    0  502  501  0.00000000000E+00  0.00000000000E+00  0.44985317700E+03  0.44985317700E+03  0.00000000000E+00 0. -1.
         21   -1    0    0  501  502 -0.00000000000E+00 -0.00000000000E+00 -0.25200997106E+03  0.25200997106E+03  0.00000000000E+00 0. -1.
         25    1    1    2    0    0 -0.68682219519E+02 -0.67938056169E+02 -0.75124874861E+01  0.15815898401E+03  0.12500000000E+03 0.  0.
         25    1    1    2    0    0 -0.65312086974E+02  0.18073814714E+03 -0.22435095394E+02  0.23034817135E+03  0.12500000000E+03 0.  0.
         25    1    1    2    0    0  0.13399430649E+03 -0.11280009097E+03  0.22779078882E+03  0.31335599271E+03  0.12500000000E+03 0.  0.
</event>
<event>
 5    0  0.5653588E-005  0.5115092E+03  0.7546771E-02  0.1010818E+00
         21   -1    0    0  502  501  0.00000000000E+00  0.00000000000E+00  0.26238103276E+03  0.26238103276E+03  0.00000000000E+00 0. -1.
         21   -1    0    0  501  502 -0.00000000000E+00 -0.00000000000E+00 -0.99718211077E+03  0.99718211077E+03  0.00000000000E+00 0. -1.
         25    1    1    2    0    0 -0.39199437899E+03 -0.10930698887E+03 -0.12062472844E+03  0.44247365581E+03  0.12500000000E+03 0.  0.
         25    1    1    2    0    0  0.18366033109E+03 -0.25254854655E+02 -0.12925209347E+03  0.25826348670E+03  0.12500000000E+03 0.  0.
         25    1    1    2    0    0  0.20833404791E+03  0.13456184353E+03 -0.48492425611E+03  0.55882600102E+03  0.12500000000E+03 0.  0.
</event>
<event>
 5    0  0.5653588E-005  0.4221440E+03  0.7546771E-02  0.1036371E+00
         21   -1    0    0  502  501  0.00000000000E+00  0.00000000000E+00  0.11761587372E+04  0.11761587372E+04  0.00000000000E+00 0.  1.
         21   -1    0    0  501  502 -0.00000000000E+00 -0.00000000000E+00 -0.15151486082E+03  0.15151486082E+03  0.00000000000E+00 0.  1.
         25    1    1    2    0    0  0.18486454707E+03 -0.19606160456E+02  0.69917141361E+03  0.73418319778E+03  0.12500000000E+03 0.  0.
         25    1    1    2    0    0  0.64781078763E+02  0.13218240478E+03  0.15433873746E+03  0.24721290860E+03  0.12500000000E+03 0.  0.
         25    1    1    2    0    0 -0.24964562584E+03 -0.11257624432E+03  0.17113372534E+03  0.34627749166E+03  0.12500000000E+03 0.  0.
</event>
<event>
 5    0  0.5653588E-005  0.2470052E+03  0.7546771E-02  0.1115212E+00
         21   -1    0    0  502  501  0.00000000000E+00  0.00000000000E+00  0.13809073232E+03  0.13809073232E+03  0.00000000000E+00 0. -1.
         21   -1    0    0  501  502 -0.00000000000E+00 -0.00000000000E+00 -0.44182237043E+03  0.44182237043E+03  0.00000000000E+00 0. -1.
         25    1    1    2    0    0  0.85908657899E+02  0.87507102616E+02 -0.77907899366E+02  0.19165706690E+03  0.12500000000E+03 0.  0.
         25    1    1    2    0    0  0.67310919658E+01 -0.69455497129E+01 -0.15479753723E+03  0.19920046634E+03  0.12500000000E+03 0.  0.
         25    1    1    2    0    0 -0.92639749865E+02 -0.80561552903E+02 -0.71026201513E+02  0.18905556951E+03  0.12500000000E+03 0.  0.
</event>
<event>
 5    0  0.5653588E-005  0.3675655E+03  0.7546771E-02  0.1055628E+00
         21   -1    0    0  502  501  0.00000000000E+00  0.00000000000E+00  0.28436456321E+04  0.28436456321E+04  0.00000000000E+00 0. -1.
         21   -1    0    0  501  502 -0.00000000000E+00 -0.00000000000E+00 -0.47510972029E+02  0.47510972029E+02  0.00000000000E+00 0. -1.
         25    1    1    2    0    0  0.24325591164E+03  0.10463367699E+03  0.11715800750E+04  0.12076201874E+04  0.12500000000E+03 0.  0.
         25    1    1    2    0    0 -0.21381995979E+03 -0.71650921521E+02  0.13934197680E+04  0.14170732090E+04  0.12500000000E+03 0.  0.
         25    1    1    2    0    0 -0.29435951851E+02 -0.32982755468E+02  0.23113481716E+03  0.26646320782E+03  0.12500000000E+03 0.  0.
</event>
<event>
 5    0  0.5653588E-005  0.2552051E+03  0.7546771E-02  0.1110059E+00
         21   -1    0    0  502  501  0.00000000000E+00  0.00000000000E+00  0.80994018543E+03  0.80994018543E+03  0.00000000000E+00 0. -1.
         21   -1    0    0  501  502 -0.00000000000E+00 -0.00000000000E+00 -0.80412884755E+02  0.80412884755E+02  0.00000000000E+00 0. -1.
         25    1    1    2    0    0  0.71733664787E+02  0.95086518596E+02  0.22611775485E+03  0.28450202766E+03  0.12500000000E+03 0.  0.
         25    1    1    2    0    0  0.32889447042E+02 -0.11173486378E+03  0.29287983696E+03  0.33907225544E+03  0.12500000000E+03 0.  0.
         25    1    1    2    0    0 -0.10462311183E+03  0.16648345187E+02  0.21052970887E+03  0.26677878709E+03  0.12500000000E+03 0.  0.
</event>
<event>
 5    0  0.5653588E-005  0.2299304E+03  0.7546771E-02  0.1126689E+00
         21   -1    0    0  502  501  0.00000000000E+00  0.00000000000E+00  0.65801792405E+02  0.65801792405E+02  0.00000000000E+00 0. -1.
         21   -1    0    0  501  502 -0.00000000000E+00 -0.00000000000E+00 -0.80344308188E+03  0.80344308188E+03  0.00000000000E+00 0. -1.
         25    1    1    2    0    0  0.34081595897E+02 -0.60434174010E+02 -0.24310882279E+03  0.28202968689E+03  0.12500000000E+03 0.  0.
         25    1    1    2    0    0  0.95154311921E+01  0.11551566514E+03 -0.30692753161E+03  0.35108962101E+03  0.12500000000E+03 0.  0.
         25    1    1    2    0    0 -0.43597027089E+02 -0.55081491127E+02 -0.18760493508E+03  0.23612556638E+03  0.12500000000E+03 0.  0.
</event>
<event>
 5    0  0.5653588E-005  0.2548763E+03  0.7546771E-02  0.1110261E+00
         21   -1    0    0  502  501  0.00000000000E+00  0.00000000000E+00  0.86174932312E+03  0.86174932312E+03  0.00000000000E+00 0.  1.
         21   -1    0    0  501  502 -0.00000000000E+00 -0.00000000000E+00 -0.75383808348E+02  0.75383808348E+02  0.00000000000E+00 0.  1.
         25    1    1    2    0    0 -0.22259084522E+02 -0.11574147727E+03  0.38038026849E+03  0.41737956953E+03  0.12500000000E+03 0.  0.
         25    1    1    2    0    0  0.74598294815E+02  0.35314810469E+01  0.21916596697E+03  0.26312753187E+03  0.12500000000E+03 0.  0.
         25    1    1    2    0    0 -0.52339210293E+02  0.11220999623E+03  0.18681927931E+03  0.25662603007E+03  0.12500000000E+03 0.  0.
</event>
<event>
 5    0  0.5653588E-005  0.2986073E+03  0.7546771E-02  0.1085939E+00
         21   -1    0    0  502  501  0.00000000000E+00  0.00000000000E+00  0.11500996106E+03  0.11500996106E+03  0.00000000000E+00 0. -1.
         21   -1    0    0  501  502 -0.00000000000E+00 -0.00000000000E+00 -0.77529211388E+03  0.77529211388E+03  0.00000000000E+00 0.  1.
         25    1    1    2    0    0  0.15910960819E+03  0.17170173746E+02 -0.19909341984E+03  0.28438331897E+03  0.12500000000E+03 0.  0.
         25    1    1    2    0    0 -0.22014099605E+03 -0.42023638822E+01 -0.29076137103E+03  0.38554752351E+03  0.12500000000E+03 0.  0.
         25    1    1    2    0    0  0.61031387862E+02 -0.12967809864E+02 -0.17042736194E+03  0.22037123246E+03  0.12500000000E+03 0.  0.
</event>
<event>
 5    0  0.5653588E-005  0.2628988E+03  0.7546771E-02  0.1105414E+00
         21   -1    0    0  502  501  0.00000000000E+00  0.00000000000E+00  0.68135443655E+02  0.68135443655E+02  0.00000000000E+00 0. -1.
         21   -1    0    0  501  502 -0.00000000000E+00 -0.00000000000E+00 -0.10143880449E+04  0.10143880449E+04  0.00000000000E+00 0. -1.
         25    1    1    2    0    0  0.76510770019E+02  0.10810260969E+03 -0.23685365717E+03  0.29877203194E+03  0.12500000000E+03 0.  0.
         25    1    1    2    0    0  0.31965534522E+01 -0.36149084586E+02 -0.50337236470E+03  0.51992856415E+03  0.12500000000E+03 0.  0.
         25    1    1    2    0    0 -0.79707323472E+02 -0.71953525104E+02 -0.20602657941E+03  0.26382289251E+03  0.12500000000E+03 0.  0.
</event>
<event>
 5    0  0.5653588E-005  0.3751516E+03  0.7546771E-02  0.1052740E+00
         21   -1    0    0  502  501  0.00000000000E+00  0.00000000000E+00  0.22270429402E+03  0.22270429402E+03  0.00000000000E+00 0.  1.
         21   -1    0    0  501  502 -0.00000000000E+00 -0.00000000000E+00 -0.63195338739E+03  0.63195338739E+03  0.00000000000E+00 0.  1.
         25    1    1    2    0    0  0.22944965481E+03  0.70228493641E+02 -0.87016124125E+02  0.28421117373E+03  0.12500000000E+03 0.  0.
         25    1    1    2    0    0 -0.27256792836E+03  0.29345728999E+02 -0.17214586751E+03  0.34700669602E+03  0.12500000000E+03 0.  0.
         25    1    1    2    0    0  0.43118273552E+02 -0.99574222640E+02 -0.15008710174E+03  0.22343981166E+03  0.12500000000E+03 0.  0.
</event>
<event>
 5    0  0.5653588E-005  0.3403127E+03  0.7546771E-02  0.1066663E+00
         21   -1    0    0  502  501  0.00000000000E+00  0.00000000000E+00  0.17197968605E+03  0.17197968605E+03  0.00000000000E+00 0. -1.
         21   -1    0    0  501  502 -0.00000000000E+00 -0.00000000000E+00 -0.67340935527E+03  0.67340935527E+03  0.00000000000E+00 0. -1.
         25    1    1    2    0    0  0.88597002333E+02 -0.22786779576E+03 -0.28291403265E+03  0.39425690994E+03  0.12500000000E+03 0.  0.
         25    1    1    2    0    0 -0.34516646115E+02  0.16453335644E+03 -0.21600485969E+03  0.30090816481E+03  0.12500000000E+03 0.  0.
         25    1    1    2    0    0 -0.54080356218E+02  0.63334439314E+02 -0.25107768823E+01  0.15022396657E+03  0.12500000000E+03 0.  0.
</event>
<event>
 5    0  0.5653588E-005  0.3907495E+03  0.7546771E-02  0.1047031E+00
         21   -1    0    0  502  501  0.00000000000E+00  0.00000000000E+00  0.12307507749E+04  0.12307507749E+04  0.00000000000E+00 0. -1.
         21   -1    0    0  501  502 -0.00000000000E+00 -0.00000000000E+00 -0.12405855749E+03  0.12405855749E+03  0.00000000000E+00 0. -1.
         25    1    1    2    0    0 -0.57086916785E+02  0.15042305026E+03  0.90095650809E+03  0.92370646831E+03  0.12500000000E+03 0.  0.
         25    1    1    2    0    0 -0.18534182837E+02  0.75771547637E+01  0.17156510525E+03  0.21321471466E+03  0.12500000000E+03 0.  0.
         25    1    1    2    0    0  0.75621099621E+02 -0.15800020503E+03  0.34170604111E+02  0.21788814947E+03  0.12500000000E+03 0.  0.
</event>
<event>
 5    0  0.5838234E-005  0.3082154E+03  0.7546771E-02  0.1081204E+00
         21   -1    0    0  502  501  0.00000000000E+00  0.00000000000E+00  0.65553831017E+03  0.65553831017E+03  0.00000000000E+00 0.  1.
         21   -1    0    0  501  502 -0.00000000000E+00 -0.00000000000E+00 -0.14491409688E+03  0.14491409688E+03  0.00000000000E+00 0.  1.
         25    1    1    2    0    0  0.13402466430E+03 -0.16405826825E+02  0.67522615714E+02  0.19600016691E+03  0.12500000000E+03 0.  0.
         25    1    1    2    0    0 -0.10658773966E+03  0.24746713367E+02  0.44624671515E+03  0.47616643818E+03  0.12500000000E+03 0.  0.
         25    1    1    2    0    0 -0.27436924639E+02 -0.83408865424E+01 -0.31451175744E+01  0.12828580197E+03  0.12500000000E+03 0.  0.
</event>
<event>
 5    0  0.6963502E-005  0.3930558E+03  0.7546771E-02  0.1046211E+00
         21   -1    0    0  502  501  0.00000000000E+00  0.00000000000E+00  0.48662202636E+03  0.48662202636E+03  0.00000000000E+00 0. -1.
         21   -1    0    0  501  502 -0.00000000000E+00 -0.00000000000E+00 -0.31748025726E+03  0.31748025726E+03  0.00000000000E+00 0. -1.
         25    1    1    2    0    0  0.16600589792E+03 -0.95745966520E+02  0.23942066932E+03  0.33116839394E+03  0.12500000000E+03 0.  0.
         25    1    1    2    0    0 -0.33465781091E+02 -0.10533354624E+03 -0.10833572436E+03  0.19893904504E+03  0.12500000000E+03 0.  0.
         25    1    1    2    0    0 -0.13254011683E+03  0.20107951276E+03  0.38056824137E+02  0.27399484463E+03  0.12500000000E+03 0.  0.
</event>
<event>
 5    0  0.5670091E-005  0.9149691E+03  0.7546771E-02  0.9407060E-01
         21   -1    0    0  502  501  0.00000000000E+00  0.00000000000E+00  0.58482242672E+03  0.58482242672E+03  0.00000000000E+00 0. -1.
         21   -1    0    0  501  502 -0.00000000000E+00 -0.00000000000E+00 -0.14314916530E+04  0.14314916530E+04  0.00000000000E+00 0. -1.
         25    1    1    2    0    0 -0.56327431423E+03  0.41780180820E+02 -0.66350804250E+03  0.88027919380E+03  0.12500000000E+03 0.  0.
         25    1    1    2    0    0  0.45862201215E+03 -0.20108462036E+03  0.30341868249E+03  0.59871284557E+03  0.12500000000E+03 0.  0.
         25    1    1    2    0    0  0.10465230208E+03  0.15930443954E+03 -0.48657986626E+03  0.53732204035E+03  0.12500000000E+03 0.  0.
</event>
<event>
 5    0  0.5653588E-005  0.3056028E+03  0.7546771E-02  0.1082473E+00
         21   -1    0    0  502  501  0.00000000000E+00  0.00000000000E+00  0.68512058439E+02  0.68512058439E+02  0.00000000000E+00 0.  1.
         21   -1    0    0  501  502 -0.00000000000E+00 -0.00000000000E+00 -0.13631623312E+04  0.13631623312E+04  0.00000000000E+00 0.  1.
         25    1    1    2    0    0  0.11342255788E+03 -0.28328492359E+02 -0.65048897870E+03  0.67262775108E+03  0.12500000000E+03 0.  0.
         25    1    1    2    0    0 -0.11021977400E+03  0.13723084922E+03 -0.47707651164E+03  0.52364845318E+03  0.12500000000E+03 0.  0.
         25    1    1    2    0    0 -0.32027838889E+01 -0.10890235687E+03 -0.16708478238E+03  0.23539818533E+03  0.12500000000E+03 0.  0.
</event>
<event>
 5    0  0.5653588E-005  0.3005947E+03  0.7546771E-02  0.1084944E+00
         21   -1    0    0  502  501  0.00000000000E+00  0.00000000000E+00  0.78143992668E+03  0.78143992668E+03  0.00000000000E+00 0. -1.
         21   -1    0    0  501  502 -0.00000000000E+00 -0.00000000000E+00 -0.11562906471E+03  0.11562906471E+03  0.00000000000E+00 0. -1.
         25    1    1    2    0    0  0.28072969319E+01  0.88389587926E+02  0.14472306785E+03  0.21069021462E+03  0.12500000000E+03 0.  0.
         25    1    1    2    0    0  0.73215220002E+02 -0.16962213158E+03  0.12340763510E+03  0.25492465624E+03  0.12500000000E+03 0.  0.
         25    1    1    2    0    0 -0.76022516934E+02  0.81232543653E+02  0.39768015903E+03  0.43145412052E+03  0.12500000000E+03 0.  0.
</event>
<event>
 5    0  0.5653588E-005  0.2618167E+03  0.7546771E-02  0.1106057E+00
         21   -1    0    0  502  501  0.00000000000E+00  0.00000000000E+00  0.11032723076E+04  0.11032723076E+04  0.00000000000E+00 0. -1.
         21   -1    0    0  501  502 -0.00000000000E+00 -0.00000000000E+00 -0.62131527519E+02  0.62131527519E+02  0.00000000000E+00 0. -1.
         25    1    1    2    0    0  0.23755226644E+02 -0.56819745722E+02  0.12026366239E+03  0.18406831011E+03  0.12500000000E+03 0.  0.
         25    1    1    2    0    0 -0.30659603509E+02  0.12835380987E+03  0.37491185824E+03  0.41665166896E+03  0.12500000000E+03 0.  0.
         25    1    1    2    0    0  0.69043768648E+01 -0.71534064149E+02  0.54596525948E+03  0.56468385608E+03  0.12500000000E+03 0.  0.
</event>
<event>
 5    0  0.5653588E-005  0.3025675E+03  0.7546771E-02  0.1083964E+00
         21   -1    0    0  502  501  0.00000000000E+00  0.00000000000E+00  0.12366121443E+03  0.12366121443E+03  0.00000000000E+00 0.  1.
         21   -1    0    0  501  502 -0.00000000000E+00 -0.00000000000E+00 -0.74030586207E+03  0.74030586207E+03  0.00000000000E+00 0.  1.
         25    1    1    2    0    0  0.28828377764E+02 -0.11068135290E+03 -0.24185932388E+03  0.29530047374E+03  0.12500000000E+03 0.  0.
         25    1    1    2    0    0 -0.57586905171E+02  0.18035697048E+03 -0.35508760434E+03  0.42137524275E+03  0.12500000000E+03 0.  0.
         25    1    1    2    0    0  0.28758527407E+02 -0.69675617579E+02 -0.19697719429E+02  0.14729136001E+03  0.12500000000E+03 0.  0.
</event>
<event>
 5    0  0.5653588E-005  0.2613834E+03  0.7546771E-02  0.1106315E+00
         21   -1    0    0  502  501  0.00000000000E+00  0.00000000000E+00  0.11819997414E+03  0.11819997414E+03  0.00000000000E+00 0.  1.
         21   -1    0    0  501  502 -0.00000000000E+00 -0.00000000000E+00 -0.57801418619E+03  0.57801418619E+03  0.00000000000E+00 0.  1.
         25    1    1    2    0    0 -0.32309486096E+02  0.12267801040E+03 -0.15449818444E+03  0.23577210633E+03  0.12500000000E+03 0.  0.
         25    1    1    2    0    0  0.11672140508E+03 -0.63456825554E+02 -0.16950388406E+03  0.24901249331E+03  0.12500000000E+03 0.  0.
         25    1    1    2    0    0 -0.84411918983E+02 -0.59221184845E+02 -0.13581214354E+03  0.21142956069E+03  0.12500000000E+03 0.  0.
</event>
<event>
 5    0  0.5653588E-005  0.3400368E+03  0.7546771E-02  0.1066780E+00
         21   -1    0    0  502  501  0.00000000000E+00  0.00000000000E+00  0.11626947865E+03  0.11626947865E+03  0.00000000000E+00 0.  1.
         21   -1    0    0  501  502 -0.00000000000E+00 -0.00000000000E+00 -0.99445722146E+03  0.99445722146E+03  0.00000000000E+00 0.  1.
         25    1    1    2    0    0 -0.11107800114E+03  0.24010189331E+03 -0.43436026891E+03  0.52371851668E+03  0.12500000000E+03 0.  0.
         25    1    1    2    0    0  0.93879972230E+02 -0.11896211206E+03 -0.30900859737E+03  0.36616491714E+03  0.12500000000E+03 0.  0.
         25    1    1    2    0    0  0.17198028915E+02 -0.12113978124E+03 -0.13481887653E+03  0.22084326630E+03  0.12500000000E+03 0.  0.
</event>
<event>
 5    0  0.5653588E-005  0.2468893E+03  0.7546771E-02  0.1115287E+00
         21   -1    0    0  502  501  0.00000000000E+00  0.00000000000E+00  0.24843144080E+03  0.24843144080E+03  0.00000000000E+00 0.  1.
         21   -1    0    0  501  502 -0.00000000000E+00 -0.00000000000E+00 -0.24535675888E+03  0.24535675888E+03  0.00000000000E+00 0.  1.
         25    1    1    2    0    0 -0.45627517401E+01 -0.46796308247E+02  0.12887064341E+01  0.13355663193E+03  0.12500000000E+03 0.  0.
         25    1    1    2    0    0 -0.97747152603E+02  0.15625668732E+02  0.79637256446E+02  0.17822951489E+03  0.12500000000E+03 0.  0.
         25    1    1    2    0    0  0.10230990434E+03  0.31170639515E+02 -0.77851280960E+02  0.18200205285E+03  0.12500000000E+03 0.  0.
</event>
<event>
 5    0  0.5653588E-005  0.2180997E+03  0.7546771E-02  0.1135308E+00
         21   -1    0    0  502  501  0.00000000000E+00  0.00000000000E+00  0.52291530667E+02  0.52291530667E+02  0.00000000000E+00 0.  1.
         21   -1    0    0  501  502 -0.00000000000E+00 -0.00000000000E+00 -0.90965899206E+03  0.90965899206E+03  0.00000000000E+00 0.  1.
         25    1    1    2    0    0 -0.22063436697E+02  0.22106810466E+02 -0.10739649790E+03  0.16773346139E+03  0.12500000000E+03 0.  0.
         25    1    1    2    0    0  0.15399603583E+02 -0.43409057104E+02 -0.42182933248E+03  0.44236464570E+03  0.12500000000E+03 0.  0.
         25    1    1    2    0    0  0.66638331148E+01  0.21302246638E+02 -0.32814163101E+03  0.35185241563E+03  0.12500000000E+03 0.  0.
</event>
<event>
 5    0  0.5653588E-005  0.2566126E+03  0.7546771E-02  0.1109196E+00
         21   -1    0    0  502  501  0.00000000000E+00  0.00000000000E+00  0.33394728097E+03  0.33394728097E+03  0.00000000000E+00 0.  1.
         21   -1    0    0  501  502 -0.00000000000E+00 -0.00000000000E+00 -0.19718696330E+03  0.19718696330E+03  0.00000000000E+00 0.  1.
         25    1    1    2    0    0 -0.91842918342E+02  0.41690517506E+02  0.15792564999E+03  0.22525259560E+03  0.12500000000E+03 0.  0.
         25    1    1    2    0    0  0.68376402276E+02  0.24911353733E+02  0.39632066787E+02  0.14997202623E+03  0.12500000000E+03 0.  0.
         25    1    1    2    0    0  0.23466516066E+02 -0.66601871239E+02 -0.60797399112E+02  0.15590962243E+03  0.12500000000E+03 0.  0.
</event>
<event>
 5    0  0.5653588E-005  0.2794413E+03  0.7546771E-02  0.1095994E+00
         21   -1    0    0  502  501  0.00000000000E+00  0.00000000000E+00  0.11673138784E+04  0.11673138784E+04  0.00000000000E+00 0.  1.
         21   -1    0    0  501  502 -0.00000000000E+00 -0.00000000000E+00 -0.66894984017E+02  0.66894984017E+02  0.00000000000E+00 0.  1.
         25    1    1    2    0    0 -0.17880305402E+03  0.32550215933E+02  0.30764487234E+03  0.37855041429E+03  0.12500000000E+03 0.  0.
         25    1    1    2    0    0  0.53639196141E+02 -0.24193838084E+02  0.26316199754E+03  0.29722338756E+03  0.12500000000E+03 0.  0.
         25    1    1    2    0    0  0.12516385788E+03 -0.83563778493E+01  0.52961202453E+03  0.55843506059E+03  0.12500000000E+03 0.  0.
</event>
<event>
 5    0  0.5653588E-005  0.2974703E+03  0.7546771E-02  0.1086512E+00
         21   -1    0    0  502  501  0.00000000000E+00  0.00000000000E+00  0.11979740763E+04  0.11979740763E+04  0.00000000000E+00 0. -1.
         21   -1    0    0  501  502 -0.00000000000E+00 -0.00000000000E+00 -0.73865181933E+02  0.73865181933E+02  0.00000000000E+00 0. -1.
         25    1    1    2    0    0  0.60560375863E+02  0.12113944491E+02  0.43300566244E+03  0.45489912121E+03  0.12500000000E+03 0.  0.
         25    1    1    2    0    0 -0.90262482142E+02 -0.13508105089E+02  0.49349835505E+02  0.16245057972E+03  0.12500000000E+03 0.  0.
         25    1    1    2    0    0  0.29702106279E+02  0.13941605979E+01  0.64175339646E+03  0.65448955734E+03  0.12500000000E+03 0.  0.
</event>
<event>
 5    0  0.5653588E-005  0.2621395E+03  0.7546771E-02  0.1105865E+00
         21   -1    0    0  502  501  0.00000000000E+00  0.00000000000E+00  0.94442264432E+02  0.94442264432E+02  0.00000000000E+00 0.  1.
         21   -1    0    0  501  502 -0.00000000000E+00 -0.00000000000E+00 -0.72760997183E+03  0.72760997183E+03  0.00000000000E+00 0.  1.
         25    1    1    2    0    0  0.41547866075E+02 -0.96269246465E+02 -0.32275804679E+03  0.36165142024E+03  0.12500000000E+03 0.  0.
         25    1    1    2    0    0  0.50784356305E+01 -0.23091268317E+02 -0.35031857746E+02  0.13195161325E+03  0.12500000000E+03 0.  0.
         25    1    1    2    0    0 -0.46626301705E+02  0.11936051478E+03 -0.27537780286E+03  0.32844920278E+03  0.12500000000E+03 0.  0.
</event>
<event>
 5    0  0.5653588E-005  0.3428252E+03  0.7546771E-02  0.1065599E+00
         21   -1    0    0  502  501  0.00000000000E+00  0.00000000000E+00  0.82767546639E+03  0.82767546639E+03  0.00000000000E+00 0.  1.
         21   -1    0    0  501  502 -0.00000000000E+00 -0.00000000000E+00 -0.14199903326E+03  0.14199903326E+03  0.00000000000E+00 0.  1.
         25    1    1    2    0    0  0.11779943913E+03 -0.12480364672E+03  0.41458010486E+03  0.46578355643E+03  0.12500000000E+03 0.  0.
         25    1    1    2    0    0 -0.82596693853E+02 -0.89514323466E+00  0.28566499855E+03  0.32257170755E+03  0.12500000000E+03 0.  0.
         25    1    1    2    0    0 -0.35202745281E+02  0.12569878996E+03 -0.14568670277E+02  0.18131923568E+03  0.12500000000E+03 0.  0.
</event>
<event>
 5    0  0.5653588E-005  0.4103032E+03  0.7546771E-02  0.1040269E+00
         21   -1    0    0  502  501  0.00000000000E+00  0.00000000000E+00  0.12254424219E+03  0.12254424219E+03  0.00000000000E+00 0.  1.
         21   -1    0    0  501  502 -0.00000000000E+00 -0.00000000000E+00 -0.13737788672E+04  0.13737788672E+04  0.00000000000E+00 0.  1.
         25    1    1    2    0    0  0.67794183820E+02  0.11857561238E+02 -0.73770076049E+02  0.16063523038E+03  0.12500000000E+03 0.  0.
         25    1    1    2    0    0  0.21433880556E+03 -0.55938324552E+02 -0.24760028566E+03  0.35496636627E+03  0.12500000000E+03 0.  0.
         25    1    1    2    0    0 -0.28213298938E+03  0.44080763315E+02 -0.92986426333E+03  0.98072151277E+03  0.12500000000E+03 0.  0.
</event>
<event>
 5    0  0.5653588E-005  0.2719817E+03  0.7546771E-02  0.1100151E+00
         21   -1    0    0  502  501  0.00000000000E+00  0.00000000000E+00  0.34426867381E+04  0.34426867381E+04  0.00000000000E+00 0. -1.
         21   -1    0    0  501  502 -0.00000000000E+00 -0.00000000000E+00 -0.21487297027E+02  0.21487297027E+02  0.00000000000E+00 0. -1.
         25    1    1    2    0    0  0.65325965636E+02  0.55461462153E+02  0.74696240939E+03  0.76218193144E+03  0.12500000000E+03 0.  0.
         25    1    1    2    0    0 -0.68507890572E+01  0.11153081390E+03  0.10326828971E+04  0.10462050572E+04  0.12500000000E+03 0.  0.
         25    1    1    2    0    0 -0.58475176579E+02 -0.16699227605E+03  0.16415541346E+04  0.16557870465E+04  0.12500000000E+03 0.  0.
</event>
<event>
 5    0  0.5653588E-005  0.2962228E+03  0.7546771E-02  0.1087144E+00
         21   -1    0    0  502  501  0.00000000000E+00  0.00000000000E+00  0.11587806542E+03  0.11587806542E+03  0.00000000000E+00 0.  1.
         21   -1    0    0  501  502 -0.00000000000E+00 -0.00000000000E+00 -0.75724398976E+03  0.75724398976E+03  0.00000000000E+00 0.  1.
         25    1    1    2    0    0  0.83995863093E+02  0.41459059221E+02 -0.38409008194E+03  0.41463761244E+03  0.12500000000E+03 0.  0.
         25    1    1    2    0    0 -0.46751999041E+02 -0.13660846149E+03 -0.53163636516E+02  0.19823973722E+03  0.12500000000E+03 0.  0.
         25    1    1    2    0    0 -0.37243864052E+02  0.95149402265E+02 -0.20411220588E+03  0.26024470552E+03  0.12500000000E+03 0.  0.
</event>
<event>
 5    0  0.5653588E-005  0.2974881E+03  0.7546771E-02  0.1086503E+00
         21   -1    0    0  502  501  0.00000000000E+00  0.00000000000E+00  0.32091362499E+03  0.32091362499E+03  0.00000000000E+00 0. -1.
         21   -1    0    0  501  502 -0.00000000000E+00 -0.00000000000E+00 -0.27577263102E+03  0.27577263102E+03  0.00000000000E+00 0. -1.
         25    1    1    2    0    0  0.97726438287E+02  0.13338033862E+02  0.44438081008E+02  0.16531213788E+03  0.12500000000E+03 0.  0.
         25    1    1    2    0    0  0.95005481629E+02 -0.86666251803E+02 -0.47374929872E+02  0.18548979681E+03  0.12500000000E+03 0.  0.
         25    1    1    2    0    0 -0.19273191992E+03  0.73328217941E+02  0.48077842833E+02  0.24588432132E+03  0.12500000000E+03 0.  0.
</event>
<event>
 5    0  0.6046495E-005  0.2586375E+03  0.7546771E-02  0.1107965E+00
         21   -1    0    0  502  501  0.00000000000E+00  0.00000000000E+00  0.39848185316E+03  0.39848185316E+03  0.00000000000E+00 0. -1.
         21   -1    0    0  501  502 -0.00000000000E+00 -0.00000000000E+00 -0.16787048840E+03  0.16787048840E+03  0.00000000000E+00 0. -1.
         25    1    1    2    0    0 -0.29876930182E+02  0.12796006774E+03  0.18013543154E+03  0.25561725996E+03  0.12500000000E+03 0.  0.
         25    1    1    2    0    0  0.59776206684E+02 -0.99056762865E+02  0.19195238702E+01  0.17033532143E+03  0.12500000000E+03 0.  0.
         25    1    1    2    0    0 -0.29899276503E+02 -0.28903304879E+02  0.48556409348E+02  0.14039976017E+03  0.12500000000E+03 0.  0.
</event>
<event>
 5    0  0.5653588E-005  0.3027159E+03  0.7546771E-02  0.1083891E+00
         21   -1    0    0  502  501  0.00000000000E+00  0.00000000000E+00  0.18325077588E+04  0.18325077588E+04  0.00000000000E+00 0.  1.
         21   -1    0    0  501  502 -0.00000000000E+00 -0.00000000000E+00 -0.50006276686E+02  0.50006276686E+02  0.00000000000E+00 0.  1.
         25    1    1    2    0    0 -0.31053047442E+02 -0.73025128913E+02  0.17335350553E+03  0.22797675120E+03  0.12500000000E+03 0.  0.
         25    1    1    2    0    0  0.18681526626E+02  0.11340447172E+03  0.13776792304E+04  0.13881046919E+04  0.12500000000E+03 0.  0.
         25    1    1    2    0    0  0.12371520817E+02 -0.40379342806E+02  0.23146874614E+03  0.26643259240E+03  0.12500000000E+03 0.  0.
</event>
<event>
 5    0  0.5653588E-005  0.2163358E+03  0.7546771E-02  0.1136645E+00
         21   -1    0    0  502  501  0.00000000000E+00  0.00000000000E+00  0.22725349563E+03  0.22725349563E+03  0.00000000000E+00 0.  1.
         21   -1    0    0  501  502 -0.00000000000E+00 -0.00000000000E+00 -0.20594259958E+03  0.20594259958E+03  0.00000000000E+00 0.  1.
         25    1    1    2    0    0 -0.28324348161E+02  0.51265071384E+02  0.32070625567E+02  0.14171768156E+03  0.12500000000E+03 0.  0.
         25    1    1    2    0    0 -0.13090789120E+01 -0.73500515112E+02 -0.53055228380E+02  0.15441469058E+03  0.12500000000E+03 0.  0.
         25    1    1    2    0    0  0.29633427073E+02  0.22235443728E+02  0.42295498863E+02  0.13706372307E+03  0.12500000000E+03 0.  0.
</event>
<event>
 5    0  0.5653588E-005  0.3125793E+03  0.7546771E-02  0.1079116E+00
         21   -1    0    0  502  501  0.00000000000E+00  0.00000000000E+00  0.45392521262E+03  0.45392521262E+03  0.00000000000E+00 0. -1.
         21   -1    0    0  501  502 -0.00000000000E+00 -0.00000000000E+00 -0.21524649675E+03  0.21524649675E+03  0.00000000000E+00 0. -1.
         25    1    1    2    0    0  0.25626607510E+02  0.15819067409E+03  0.24036503088E+03  0.31477191814E+03  0.12500000000E+03 0.  0.
         25    1    1    2    0    0  0.30647568950E+02 -0.16827853851E+03  0.28235522787E+02  0.21372689291E+03  0.12500000000E+03 0.  0.
         25    1    1    2    0    0 -0.56274176461E+02  0.10087864428E+02 -0.29921837786E+02  0.14067289832E+03  0.12500000000E+03 0.  0.
</event>
<event>
 5    0  0.5653588E-005  0.2913408E+03  0.7546771E-02  0.1089651E+00
         21   -1    0    0  502  501  0.00000000000E+00  0.00000000000E+00  0.49856921656E+03  0.49856921656E+03  0.00000000000E+00 0. -1.
         21   -1    0    0  501  502 -0.00000000000E+00 -0.00000000000E+00 -0.17024605257E+03  0.17024605257E+03  0.00000000000E+00 0. -1.
         25    1    1    2    0    0 -0.12899109265E+03  0.95471359941E+01  0.23192665346E+03  0.29350438221E+03  0.12500000000E+03 0.  0.
         25    1    1    2    0    0  0.15661282296E+03  0.65394683308E+02  0.82392843621E+02  0.22631310523E+03  0.12500000000E+03 0.  0.
         25    1    1    2    0    0 -0.27621730307E+02 -0.74941819302E+02  0.14003666909E+02  0.14899778170E+03  0.12500000000E+03 0.  0.
</event>
<event>
 5    0  0.5653588E-005  0.2652707E+03  0.7546771E-02  0.1104017E+00
         21   -1    0    0  502  501  0.00000000000E+00  0.00000000000E+00  0.30167676234E+03  0.30167676234E+03  0.00000000000E+00 0.  1.
         21   -1    0    0  501  502 -0.00000000000E+00 -0.00000000000E+00 -0.23325810781E+03  0.23325810781E+03  0.00000000000E+00 0.  1.
         25    1    1    2    0    0  0.25793722892E+02 -0.13062914426E+03  0.59339889993E+02  0.19202997686E+03  0.12500000000E+03 0.  0.
         25    1    1    2    0    0  0.74162872165E+02  0.80973710039E+02 -0.34138663063E+02  0.16984499298E+03  0.12500000000E+03 0.  0.
         25    1    1    2    0    0 -0.99956595056E+02  0.49655434218E+02  0.43217427601E+02  0.17305990030E+03  0.12500000000E+03 0.  0.
</event>
<event>
 5    0  0.5653588E-005  0.3053688E+03  0.7546771E-02  0.1082587E+00
         21   -1    0    0  502  501  0.00000000000E+00  0.00000000000E+00  0.38069988528E+04  0.38069988528E+04  0.00000000000E+00 0. -1.
         21   -1    0    0  501  502 -0.00000000000E+00 -0.00000000000E+00 -0.24494386829E+02  0.24494386829E+02  0.00000000000E+00 0. -1.
         25    1    1    2    0    0 -0.94789948256E+02  0.13044258802E+03  0.76477024617E+03  0.79151685546E+03  0.12500000000E+03 0.  0.
         25    1    1    2    0    0  0.15780799045E+03 -0.92126834000E+02  0.17416978564E+04  0.17557127152E+04  0.12500000000E+03 0.  0.
         25    1    1    2    0    0 -0.63018042197E+02 -0.38315754018E+02  0.12760363634E+04  0.12842636689E+04  0.12500000000E+03 0.  0.
</event>
<event>
 5    0  0.5653588E-005  0.4437286E+03  0.7546771E-02  0.1029609E+00
         21   -1    0    0  502  501  0.00000000000E+00  0.00000000000E+00  0.22451509928E+03  0.22451509928E+03  0.00000000000E+00 0.  1.
         21   -1    0    0  501  502 -0.00000000000E+00 -0.00000000000E+00 -0.87697938062E+03  0.87697938062E+03  0.00000000000E+00 0.  1.
         25    1    1    2    0    0 -0.29458787030E+03 -0.26274380156E+03 -0.35509401312E+03  0.54546592629E+03  0.12500000000E+03 0.  0.
         25    1    1    2    0    0  0.16982589692E+03  0.12978699930E+03 -0.17653861792E+03  0.30409929968E+03  0.12500000000E+03 0.  0.
         25    1    1    2    0    0  0.12476197338E+03  0.13295680227E+03 -0.12083165031E+03  0.25192925393E+03  0.12500000000E+03 0.  0.
</event>
<event>
 5    0  0.5752305E-005  0.3921214E+03  0.7546771E-02  0.1046542E+00
         21   -1    0    0  502  501  0.00000000000E+00  0.00000000000E+00  0.15423384053E+03  0.15423384053E+03  0.00000000000E+00 0.  1.
         21   -1    0    0  501  502 -0.00000000000E+00 -0.00000000000E+00 -0.99692279543E+03  0.99692279543E+03  0.00000000000E+00 0.  1.
         25    1    1    2    0    0 -0.21961020208E+02 -0.12189958205E+02  0.18670048661E+02  0.12885826402E+03  0.12500000000E+03 0.  0.
         25    1    1    2    0    0  0.14883155643E+03  0.20323503982E+03 -0.35830990675E+03  0.45548469006E+03  0.12500000000E+03 0.  0.
         25    1    1    2    0    0 -0.12687053623E+03 -0.19104508162E+03 -0.50304909681E+03  0.56681368188E+03  0.12500000000E+03 0.  0.
</event>
<event>
 5    0  0.5653588E-005  0.3548274E+03  0.7546771E-02  0.1060651E+00
         21   -1    0    0  502  501  0.00000000000E+00  0.00000000000E+00  0.14918723502E+03  0.14918723502E+03  0.00000000000E+00 0. -1.
         21   -1    0    0  501  502 -0.00000000000E+00 -0.00000000000E+00 -0.84392240796E+03  0.84392240796E+03  0.00000000000E+00 0. -1.
         25    1    1    2    0    0 -0.95096321927E+02  0.10840082025E+03  0.23561698112E+02  0.19228676994E+03  0.12500000000E+03 0.  0.
         25    1    1    2    0    0 -0.43022612501E+02 -0.65923323367E+02 -0.43257917503E+03  0.45710674073E+03  0.12500000000E+03 0.  0.
         25    1    1    2    0    0  0.13811893443E+03 -0.42477496883E+02 -0.28571769602E+03  0.34371613231E+03  0.12500000000E+03 0.  0.
</event>
<event>
 5    0  0.5653588E-005  0.4121190E+03  0.7546771E-02  0.1039662E+00
         21   -1    0    0  502  501  0.00000000000E+00  0.00000000000E+00  0.17318071730E+04  0.17318071730E+04  0.00000000000E+00 0.  1.
         21   -1    0    0  501  502 -0.00000000000E+00 -0.00000000000E+00 -0.98072170597E+02  0.98072170597E+02  0.00000000000E+00 0.  1.
         25    1    1    2    0    0 -0.27673260332E+03  0.11252383589E+03  0.45841803690E+03  0.56126165372E+03  0.12500000000E+03 0.  0.
         25    1    1    2    0    0  0.85111650509E+02  0.85375503808E+02  0.47548222281E+03  0.50620283870E+03  0.12500000000E+03 0.  0.
         25    1    1    2    0    0  0.19162095281E+03 -0.19789933970E+03  0.69983474268E+03  0.76241485116E+03  0.12500000000E+03 0.  0.
</event>
<event>
 5    0  0.5653588E-005  0.3899239E+03  0.7546771E-02  0.1047326E+00
         21   -1    0    0  502  501  0.00000000000E+00  0.00000000000E+00  0.21851256786E+03  0.21851256786E+03  0.00000000000E+00 0. -1.
         21   -1    0    0  501  502 -0.00000000000E+00 -0.00000000000E+00 -0.69579809326E+03  0.69579809326E+03  0.00000000000E+00 0. -1.
         25    1    1    2    0    0  0.10172905797E+03  0.23375591391E+03 -0.56988737700E+02  0.28959168625E+03  0.12500000000E+03 0.  0.
         25    1    1    2    0    0 -0.20211193137E+03 -0.12664667150E+03 -0.23832195599E+03  0.35959834108E+03  0.12500000000E+03 0.  0.
         25    1    1    2    0    0  0.10038287340E+03 -0.10710924240E+03 -0.18197483171E+03  0.26512063378E+03  0.12500000000E+03 0.  0.
</event>
<event>
 5    0  0.5653588E-005  0.4009793E+03  0.7546771E-02  0.1043441E+00
         21   -1    0    0  502  501  0.00000000000E+00  0.00000000000E+00  0.80116521654E+03  0.80116521654E+03  0.00000000000E+00 0.  1.
         21   -1    0    0  501  502 -0.00000000000E+00 -0.00000000000E+00 -0.20068820105E+03  0.20068820105E+03  0.00000000000E+00 0.  1.
         25    1    1    2    0    0 -0.26461557449E+02  0.83801547086E+02  0.22976036979E+03  0.27593068123E+03  0.12500000000E+03 0.  0.
         25    1    1    2    0    0 -0.23042357582E+02  0.13561489425E+01  0.50310228919E+03  0.51891203761E+03  0.12500000000E+03 0.  0.
         25    1    1    2    0    0  0.49503915031E+02 -0.85157696028E+02 -0.13238564349E+03  0.20701069875E+03  0.12500000000E+03 0.  0.
</event>
<event>
 5    0  0.5653588E-005  0.3753681E+03  0.7546771E-02  0.1052659E+00
         21   -1    0    0  502  501  0.00000000000E+00  0.00000000000E+00  0.10618570456E+04  0.10618570456E+04  0.00000000000E+00 0. -1.
         21   -1    0    0  501  502 -0.00000000000E+00 -0.00000000000E+00 -0.13269316829E+03  0.13269316829E+03  0.00000000000E+00 0. -1.
         25    1    1    2    0    0 -0.66252464184E+02 -0.19704724329E+03  0.24279413470E+03  0.34320693021E+03  0.12500000000E+03 0.  0.
         25    1    1    2    0    0 -0.14953393038E+02  0.26859323054E+03  0.58895268303E+03  0.65943626705E+03  0.12500000000E+03 0.  0.
         25    1    1    2    0    0  0.81205857223E+02 -0.71545987249E+02  0.97417059615E+02  0.19190701666E+03  0.12500000000E+03 0.  0.
</event>
<event>
 5    0  0.5653588E-005  0.2848975E+03  0.7546771E-02  0.1093044E+00
         21   -1    0    0  502  501  0.00000000000E+00  0.00000000000E+00  0.26243170980E+03  0.26243170980E+03  0.00000000000E+00 0. -1.
         21   -1    0    0  501  502 -0.00000000000E+00 -0.00000000000E+00 -0.30928659004E+03  0.30928659004E+03  0.00000000000E+00 0. -1.
         25    1    1    2    0    0 -0.10479629483E+03  0.65688608274E+02  0.84765980726E+02  0.19521149596E+03  0.12500000000E+03 0.  0.
         25    1    1    2    0    0  0.57004867270E+02 -0.52099684498E+02 -0.18107691366E+03  0.23319043865E+03  0.12500000000E+03 0.  0.
         25    1    1    2    0    0  0.47791427556E+02 -0.13588923777E+02  0.49456052694E+02  0.14331636524E+03  0.12500000000E+03 0.  0.
</event>
<event>
 5    0  0.5653588E-005  0.2943239E+03  0.7546771E-02  0.1088113E+00
         21   -1    0    0  502  501  0.00000000000E+00  0.00000000000E+00  0.33232587745E+03  0.33232587745E+03  0.00000000000E+00 0.  1.
         21   -1    0    0  501  502 -0.00000000000E+00 -0.00000000000E+00 -0.26066754468E+03  0.26066754468E+03  0.00000000000E+00 0.  1.
         25    1    1    2    0    0 -0.76883981877E+02  0.58815938542E+02 -0.53940428074E+02  0.16704799034E+03  0.12500000000E+03 0.  0.
         25    1    1    2    0    0  0.15146619045E+03 -0.11200983185E+03  0.14674977433E+03  0.26953423817E+03  0.12500000000E+03 0.  0.
         25    1    1    2    0    0 -0.74582208572E+02  0.53193893306E+02 -0.21151013481E+02  0.15641119363E+03  0.12500000000E+03 0.  0.
</event>
<event>
 5    0  0.5653588E-005  0.2884913E+03  0.7546771E-02  0.1091140E+00
         21   -1    0    0  502  501  0.00000000000E+00  0.00000000000E+00  0.72412074876E+03  0.72412074876E+03  0.00000000000E+00 0. -1.
         21   -1    0    0  501  502 -0.00000000000E+00 -0.00000000000E+00 -0.11493554424E+03  0.11493554424E+03  0.00000000000E+00 0. -1.
         25    1    1    2    0    0 -0.27785663559E+01  0.44239122567E+02  0.43289951379E+01  0.13269725165E+03  0.12500000000E+03 0.  0.
         25    1    1    2    0    0  0.10989976242E+03 -0.59368044673E+02  0.18847388639E+03  0.25836007501E+03  0.12500000000E+03 0.  0.
         25    1    1    2    0    0 -0.10712119607E+03  0.15128922107E+02  0.41638232300E+03  0.44799896634E+03  0.12500000000E+03 0.  0.
</event>
<event>
 5    0  0.5653588E-005  0.3651316E+03  0.7546771E-02  0.1056570E+00
         21   -1    0    0  502  501  0.00000000000E+00  0.00000000000E+00  0.47117905794E+03  0.47117905794E+03  0.00000000000E+00 0.  1.
         21   -1    0    0  501  502 -0.00000000000E+00 -0.00000000000E+00 -0.28295207930E+03  0.28295207930E+03  0.00000000000E+00 0.  1.
         25    1    1    2    0    0  0.20999897483E+01  0.17795940522E+03  0.33051871084E+03  0.39565335595E+03  0.12500000000E+03 0.  0.
         25    1    1    2    0    0  0.19505676478E+02 -0.49477754196E+02 -0.13119130207E+02  0.13647575298E+03  0.12500000000E+03 0.  0.
         25    1    1    2    0    0 -0.21605666227E+02 -0.12848165102E+03 -0.12917260200E+03  0.22200202830E+03  0.12500000000E+03 0.  0.
</event>
<event>
 5    0  0.5653588E-005  0.2379999E+03  0.7546771E-02  0.1121132E+00
         21   -1    0    0  502  501  0.00000000000E+00  0.00000000000E+00  0.46620288149E+03  0.46620288149E+03  0.00000000000E+00 0. -1.
         21   -1    0    0  501  502 -0.00000000000E+00 -0.00000000000E+00 -0.12150060902E+03  0.12150060902E+03  0.00000000000E+00 0. -1.
         25    1    1    2    0    0  0.24463899185E+01 -0.32183156267E+02  0.48873746486E+02  0.13804123828E+03  0.12500000000E+03 0.  0.
         25    1    1    2    0    0 -0.10060259543E+03 -0.37343199289E+02  0.15540679381E+03  0.22647663964E+03  0.12500000000E+03 0.  0.
         25    1    1    2    0    0  0.98156205516E+02  0.69526355555E+02  0.14042173218E+03  0.22318561259E+03  0.12500000000E+03 0.  0.
</event>
<event>
 5    0  0.6765547E-005  0.3732260E+03  0.7546771E-02  0.1053466E+00
         21   -1    0    0  502  501  0.00000000000E+00  0.00000000000E+00  0.54817348802E+03  0.54817348802E+03  0.00000000000E+00 0.  1.
         21   -1    0    0  501  502 -0.00000000000E+00 -0.00000000000E+00 -0.25411239889E+03  0.25411239889E+03  0.00000000000E+00 0.  1.
         25    1    1    2    0    0  0.16695040547E+03  0.24829813063E+02 -0.15497719947E+02  0.21060421845E+03  0.12500000000E+03 0.  0.
         25    1    1    2    0    0 -0.97097867980E+02 -0.16068624147E+03  0.11948842104E+01  0.22555374507E+03  0.12500000000E+03 0.  0.
         25    1    1    2    0    0 -0.69852537491E+02  0.13585642841E+03  0.30836392487E+03  0.36612792340E+03  0.12500000000E+03 0.  0.
</event>
<event>
 5    0  0.5653588E-005  0.2646116E+03  0.7546771E-02  0.1104404E+00
         21   -1    0    0  502  501  0.00000000000E+00  0.00000000000E+00  0.70731166174E+02  0.70731166174E+02  0.00000000000E+00 0. -1.
         21   -1    0    0  501  502 -0.00000000000E+00 -0.00000000000E+00 -0.98993585085E+03  0.98993585085E+03  0.00000000000E+00 0. -1.
         25    1    1    2    0    0  0.21864771782E+02 -0.31723833053E+02 -0.96022494396E+02  0.16226456563E+03  0.12500000000E+03 0.  0.
         25    1    1    2    0    0 -0.81786701635E+02  0.11910307619E+03 -0.51627827895E+03  0.55049329573E+03  0.12500000000E+03 0.  0.
         25    1    1    2    0    0  0.59921929853E+02 -0.87379243139E+02 -0.30690391133E+03  0.34790915567E+03  0.12500000000E+03 0.  0.
</event>
<event>
 5    0  0.5653588E-005  0.3415294E+03  0.7546771E-02  0.1066146E+00
         21   -1    0    0  502  501  0.00000000000E+00  0.00000000000E+00  0.21582369914E+04  0.21582369914E+04  0.00000000000E+00 0. -1.
         21   -1    0    0  501  502 -0.00000000000E+00 -0.00000000000E+00 -0.54045176275E+02  0.54045176275E+02  0.00000000000E+00 0. -1.
         25    1    1    2    0    0  0.14486074091E+03  0.88618254522E+02  0.38441392263E+03  0.43844827882E+03  0.12500000000E+03 0.  0.
         25    1    1    2    0    0 -0.10304518321E+03 -0.10092229642E+02  0.26338238331E+03  0.30937912457E+03  0.12500000000E+03 0.  0.
         25    1    1    2    0    0 -0.41815557695E+02 -0.78526024880E+02  0.14563955092E+04  0.14644547643E+04  0.12500000000E+03 0.  0.
</event>
<event>
 5    0  0.5653588E-005  0.4359067E+03  0.7546771E-02  0.1032010E+00
         21   -1    0    0  502  501  0.00000000000E+00  0.00000000000E+00  0.63356825547E+03  0.63356825547E+03  0.00000000000E+00 0. -1.
         21   -1    0    0  501  502 -0.00000000000E+00 -0.00000000000E+00 -0.29991192794E+03  0.29991192794E+03  0.00000000000E+00 0. -1.
         25    1    1    2    0    0  0.20080586320E+03 -0.25577942235E+03  0.28687937510E+03  0.45129910641E+03  0.12500000000E+03 0.  0.
         25    1    1    2    0    0 -0.15827683412E+03  0.27821088194E+03  0.12107522061E+02  0.34383781517E+03  0.12500000000E+03 0.  0.
         25    1    1    2    0    0 -0.42529029079E+02 -0.22431459593E+02  0.34669430363E+02  0.13834326184E+03  0.12500000000E+03 0.  0.
</event>
<event>
 5    0  0.5653588E-005  0.3903881E+03  0.7546771E-02  0.1047160E+00
         21   -1    0    0  502  501  0.00000000000E+00  0.00000000000E+00  0.14059638900E+03  0.14059638900E+03  0.00000000000E+00 0. -1.
         21   -1    0    0  501  502 -0.00000000000E+00 -0.00000000000E+00 -0.10839745166E+04  0.10839745166E+04  0.00000000000E+00 0. -1.
         25    1    1    2    0    0  0.25431611668E+02 -0.13519404145E+03 -0.62251132365E+03  0.64966879545E+03  0.12500000000E+03 0.  0.
         25    1    1    2    0    0 -0.54761006700E+02  0.38984279423E+02  0.65674280524E+02  0.15638623027E+03  0.12500000000E+03 0.  0.
         25    1    1    2    0    0  0.29329395032E+02  0.96209762022E+02 -0.38654108443E+03  0.41851587983E+03  0.12500000000E+03 0.  0.
</event>
<event>
 5    0  0.5653588E-005  0.4301809E+03  0.7546771E-02  0.1033803E+00
         21   -1    0    0  502  501  0.00000000000E+00  0.00000000000E+00  0.37717020352E+03  0.37717020352E+03  0.00000000000E+00 0.  1.
         21   -1    0    0  501  502 -0.00000000000E+00 -0.00000000000E+00 -0.49064224864E+03  0.49064224864E+03  0.00000000000E+00 0. -1.
         25    1    1    2    0    0  0.13963249889E+03 -0.13557730960E+03  0.13917614063E+02  0.23172643700E+03  0.12500000000E+03 0.  0.
         25    1    1    2    0    0  0.20286421579E+03  0.26977745641E+02 -0.19182106863E+02  0.24057149048E+03  0.12500000000E+03 0.  0.
         25    1    1    2    0    0 -0.34249671467E+03  0.10859956396E+03 -0.10820755232E+03  0.39551452468E+03  0.12500000000E+03 0.  0.
</event>
<event>
 5    0  0.5653588E-005  0.5633931E+03  0.7546771E-02  0.9984406E-01
         21   -1    0    0  502  501  0.00000000000E+00  0.00000000000E+00  0.50241116991E+03  0.50241116991E+03  0.00000000000E+00 0.  1.
         21   -1    0    0  501  502 -0.00000000000E+00 -0.00000000000E+00 -0.63177695308E+03  0.63177695308E+03  0.00000000000E+00 0.  1.
         25    1    1    2    0    0  0.28289521646E+03  0.12067463006E+03 -0.39112121441E+03  0.51302326867E+03  0.12500000000E+03 0.  0.
         25    1    1    2    0    0 -0.88676494777E+02 -0.20575390923E+03  0.27317176760E+03  0.37476126601E+03  0.12500000000E+03 0.  0.
         25    1    1    2    0    0 -0.19421872168E+03  0.85079279173E+02 -0.11416336357E+02  0.24640358831E+03  0.12500000000E+03 0.  0.
</event>
<event>
 5    0  0.5653588E-005  0.2311133E+03  0.7546771E-02  0.1125859E+00
         21   -1    0    0  502  501  0.00000000000E+00  0.00000000000E+00  0.13102387755E+04  0.13102387755E+04  0.00000000000E+00 0.  1.
         21   -1    0    0  501  502 -0.00000000000E+00 -0.00000000000E+00 -0.40766131308E+02  0.40766131308E+02  0.00000000000E+00 0.  1.
         25    1    1    2    0    0  0.32058357111E+02 -0.76272892539E+02  0.62998778262E+03  0.64757617208E+03  0.12500000000E+03 0.  0.
         25    1    1    2    0    0 -0.24697084247E+02  0.69626639135E+02  0.47438845991E+03  0.49611211006E+03  0.12500000000E+03 0.  0.
         25    1    1    2    0    0 -0.73612728639E+01  0.66462534042E+01  0.16509640165E+03  0.20731662466E+03  0.12500000000E+03 0.  0.
</event>
<event>
 5    0  0.5805602E-005  0.2384099E+03  0.7546771E-02  0.1120857E+00
         21   -1    0    0  502  501  0.00000000000E+00  0.00000000000E+00  0.14072608236E+03  0.14072608236E+03  0.00000000000E+00 0.  1.
         21   -1    0    0  501  502 -0.00000000000E+00 -0.00000000000E+00 -0.40390021986E+03  0.40390021986E+03  0.00000000000E+00 0.  1.
         25    1    1    2    0    0 -0.73142648858E+02  0.50145733369E+02 -0.18681291837E+02  0.15439699583E+03  0.12500000000E+03 0.  0.
         25    1    1    2    0    0  0.81000258310E+01  0.44915207082E+02 -0.91057796565E+02  0.16124363107E+03  0.12500000000E+03 0.  0.
         25    1    1    2    0    0  0.65042623027E+02 -0.95060940451E+02 -0.15343504910E+03  0.22898567532E+03  0.12500000000E+03 0.  0.
</event>
<event>
 5    0  0.5653588E-005  0.4492039E+03  0.7546771E-02  0.1027960E+00
         21   -1    0    0  502  501  0.00000000000E+00  0.00000000000E+00  0.59294650947E+03  0.59294650947E+03  0.00000000000E+00 0.  1.
         21   -1    0    0  501  502 -0.00000000000E+00 -0.00000000000E+00 -0.34030744907E+03  0.34030744907E+03  0.00000000000E+00 0.  1.
         25    1    1    2    0    0  0.22979624164E+03 -0.14922221852E+03  0.24998542697E+03  0.39139659793E+03  0.12500000000E+03 0.  0.
         25    1    1    2    0    0 -0.15410311164E+03  0.21314014018E+03  0.14747468631E+03  0.32642039072E+03  0.12500000000E+03 0.  0.
         25    1    1    2    0    0 -0.75693129999E+02 -0.63917921657E+02 -0.14482105288E+03  0.21543696989E+03  0.12500000000E+03 0.  0.
</event>
<event>
 5    0  0.7195304E-005  0.2665896E+03  0.7546771E-02  0.1103247E+00
         21   -1    0    0  502  501  0.00000000000E+00  0.00000000000E+00  0.57538596122E+03  0.57538596122E+03  0.00000000000E+00 0.  1.
         21   -1    0    0  501  502 -0.00000000000E+00 -0.00000000000E+00 -0.12351715952E+03  0.12351715952E+03  0.00000000000E+00 0.  1.
         25    1    1    2    0    0  0.11532443866E+03  0.14402025096E+02  0.11572094031E+03  0.20621222201E+03  0.12500000000E+03 0.  0.
         25    1    1    2    0    0  0.87116171740E+01  0.43739290090E+02  0.32089270137E+02  0.13654207787E+03  0.12500000000E+03 0.  0.
         25    1    1    2    0    0 -0.12403605584E+03 -0.58141315186E+02  0.30405859125E+03  0.35614882085E+03  0.12500000000E+03 0.  0.
</event>
<event>
 5    0  0.5709135E-005  0.2483798E+03  0.7546771E-02  0.1114333E+00
         21   -1    0    0  502  501  0.00000000000E+00  0.00000000000E+00  0.19445306457E+03  0.19445306457E+03  0.00000000000E+00 0.  1.
         21   -1    0    0  501  502 -0.00000000000E+00 -0.00000000000E+00 -0.31726181397E+03  0.31726181397E+03  0.00000000000E+00 0.  1.
         25    1    1    2    0    0 -0.59327466768E+02 -0.61976430304E+02  0.76200949424E+02  0.16968326647E+03  0.12500000000E+03 0.  0.
         25    1    1    2    0    0  0.38177762604E+02 -0.63867675021E+01 -0.68676855876E+02  0.14778309406E+03  0.12500000000E+03 0.  0.
         25    1    1    2    0    0  0.21149704164E+02  0.68363197807E+02 -0.13033284295E+03  0.19424851802E+03  0.12500000000E+03 0.  0.
</event>
<event>
 5    0  0.5653588E-005  0.2868604E+03  0.7546771E-02  0.1092000E+00
         21   -1    0    0  502  501  0.00000000000E+00  0.00000000000E+00  0.50125333515E+03  0.50125333515E+03  0.00000000000E+00 0.  1.
         21   -1    0    0  501  502 -0.00000000000E+00 -0.00000000000E+00 -0.16416624351E+03  0.16416624351E+03  0.00000000000E+00 0.  1.
         25    1    1    2    0    0 -0.62942766041E+02  0.10052974772E+03  0.16982296147E+03  0.24193565305E+03  0.12500000000E+03 0.  0.
         25    1    1    2    0    0 -0.46123026283E+02 -0.12086486679E+03  0.18175141450E+03  0.25572294823E+03  0.12500000000E+03 0.  0.
         25    1    1    2    0    0  0.10906579232E+03  0.20335119069E+02 -0.14487284332E+02  0.16776097738E+03  0.12500000000E+03 0.  0.
</event>
<event>
 5    0  0.5653588E-005  0.3911742E+03  0.7546771E-02  0.1046879E+00
         21   -1    0    0  502  501  0.00000000000E+00  0.00000000000E+00  0.24005870723E+03  0.24005870723E+03  0.00000000000E+00 0. -1.
         21   -1    0    0  501  502 -0.00000000000E+00 -0.00000000000E+00 -0.63741589526E+03  0.63741589526E+03  0.00000000000E+00 0. -1.
         25    1    1    2    0    0 -0.59509642029E+01  0.12311903111E+03 -0.18021898470E+03  0.25159012748E+03  0.12500000000E+03 0.  0.
         25    1    1    2    0    0 -0.17177552279E+03  0.43290057164E+02 -0.27089200192E+03  0.34697022349E+03  0.12500000000E+03 0.  0.
         25    1    1    2    0    0  0.17772648700E+03 -0.16640908828E+03  0.53753798598E+02  0.27891425153E+03  0.12500000000E+03 0.  0.
</event>
<event>
 5    0  0.5653588E-005  0.3297673E+03  0.7546771E-02  0.1071240E+00
         21   -1    0    0  502  501  0.00000000000E+00  0.00000000000E+00  0.47253366603E+03  0.47253366603E+03  0.00000000000E+00 0. -1.
         21   -1    0    0  501  502 -0.00000000000E+00 -0.00000000000E+00 -0.23013484767E+03  0.23013484767E+03  0.00000000000E+00 0. -1.
         25    1    1    2    0    0  0.27092437887E+02  0.15119847409E+03 -0.60988485726E+02  0.20721866265E+03  0.12500000000E+03 0.  0.
         25    1    1    2    0    0  0.64476644212E+02 -0.12573067071E+03  0.27861594128E+03  0.33647775847E+03  0.12500000000E+03 0.  0.
         25    1    1    2    0    0 -0.91569082098E+02 -0.25467803380E+02  0.24771362809E+02  0.15897209258E+03  0.12500000000E+03 0.  0.
</event>
<event>
 5    0  0.5653588E-005  0.4445805E+03  0.7546771E-02  0.1029351E+00
         21   -1    0    0  502  501  0.00000000000E+00  0.00000000000E+00  0.12753698329E+04  0.12753698329E+04  0.00000000000E+00 0. -1.
         21   -1    0    0  501  502 -0.00000000000E+00 -0.00000000000E+00 -0.15497609734E+03  0.15497609734E+03  0.00000000000E+00 0. -1.
         25    1    1    2    0    0 -0.29781407697E+02  0.10347569756E+03  0.21631405290E+02  0.16639432059E+03  0.12500000000E+03 0.  0.
         25    1    1    2    0    0 -0.89646543065E+02  0.97662182686E+02  0.59950666347E+02  0.19181628452E+03  0.12500000000E+03 0.  0.
         25    1    1    2    0    0  0.11942795076E+03 -0.20113788024E+03  0.10388116640E+04  0.10721353252E+04  0.12500000000E+03 0.  0.
</event>
<event>
 5    0  0.5653588E-005  0.3313345E+03  0.7546771E-02  0.1070548E+00
         21   -1    0    0  502  501  0.00000000000E+00  0.00000000000E+00  0.79374097618E+03  0.79374097618E+03  0.00000000000E+00 0.  1.
         21   -1    0    0  501  502 -0.00000000000E+00 -0.00000000000E+00 -0.13831026218E+03  0.13831026218E+03  0.00000000000E+00 0.  1.
         25    1    1    2    0    0  0.11623314774E+03  0.83232203346E+02  0.37979405570E+03  0.42462485685E+03  0.12500000000E+03 0.  0.
         25    1    1    2    0    0  0.39185236124E+02 -0.66545356008E+02 -0.22188936754E+02  0.14859716030E+03  0.12500000000E+03 0.  0.
         25    1    1    2    0    0 -0.15541838386E+03 -0.16686847338E+02  0.29782559505E+03  0.35882922120E+03  0.12500000000E+03 0.  0.
</event>
<event>
 5    0  0.5653588E-005  0.4865750E+03  0.7546771E-02  0.1017344E+00
         21   -1    0    0  502  501  0.00000000000E+00  0.00000000000E+00  0.54053436833E+03  0.54053436833E+03  0.00000000000E+00 0. -1.
         21   -1    0    0  501  502 -0.00000000000E+00 -0.00000000000E+00 -0.43800221054E+03  0.43800221054E+03  0.00000000000E+00 0. -1.
         25    1    1    2    0    0  0.36596489288E+03  0.17232675082E+03  0.28286527752E+02  0.42432527561E+03  0.12500000000E+03 0.  0.
         25    1    1    2    0    0 -0.96681611092E+02 -0.13330380936E+03 -0.74641316418E+02  0.21980347047E+03  0.12500000000E+03 0.  0.
         25    1    1    2    0    0 -0.26928328178E+03 -0.39022941460E+02  0.14888694646E+03  0.33440783279E+03  0.12500000000E+03 0.  0.
</event>
<event>
 5    0  0.5653588E-005  0.2652296E+03  0.7546771E-02  0.1104041E+00
         21   -1    0    0  502  501  0.00000000000E+00  0.00000000000E+00  0.76925072087E+03  0.76925072087E+03  0.00000000000E+00 0.  1.
         21   -1    0    0  501  502 -0.00000000000E+00 -0.00000000000E+00 -0.91448420891E+02  0.91448420891E+02  0.00000000000E+00 0.  1.
         25    1    1    2    0    0  0.46775671235E+02 -0.36665251546E+02  0.26841613187E+03  0.30200086745E+03  0.12500000000E+03 0.  0.
         25    1    1    2    0    0 -0.12434104576E+03  0.11104507152E+03  0.28063333549E+03  0.34953078914E+03  0.12500000000E+03 0.  0.
         25    1    1    2    0    0  0.77565374529E+02 -0.74379819971E+02  0.12875283261E+03  0.20916748517E+03  0.12500000000E+03 0.  0.
</event>
<event>
 5    0  0.5653588E-005  0.3069041E+03  0.7546771E-02  0.1081839E+00
         21   -1    0    0  502  501  0.00000000000E+00  0.00000000000E+00  0.11096522017E+03  0.11096522017E+03  0.00000000000E+00 0. -1.
         21   -1    0    0  501  502 -0.00000000000E+00 -0.00000000000E+00 -0.84882582116E+03  0.84882582116E+03  0.00000000000E+00 0. -1.
         25    1    1    2    0    0  0.69961935256E+02  0.63764060706E+02 -0.24403289319E+03  0.29006478722E+03  0.12500000000E+03 0.  0.
         25    1    1    2    0    0 -0.92101173072E+02 -0.19533090906E+03 -0.18418631437E+03  0.31013930502E+03  0.12500000000E+03 0.  0.
         25    1    1    2    0    0  0.22139237816E+02  0.13156684836E+03 -0.30964139342E+03  0.35958694909E+03  0.12500000000E+03 0.  0.
</event>
<event>
 5    0  0.5653588E-005  0.3163953E+03  0.7546771E-02  0.1077320E+00
         21   -1    0    0  502  501  0.00000000000E+00  0.00000000000E+00  0.42164184400E+03  0.42164184400E+03  0.00000000000E+00 0.  1.
         21   -1    0    0  501  502 -0.00000000000E+00 -0.00000000000E+00 -0.23741944519E+03  0.23741944519E+03  0.00000000000E+00 0.  1.
         25    1    1    2    0    0  0.45624357523E+01  0.37639502475E+02 -0.12219046483E+03  0.17886603272E+03  0.12500000000E+03 0.  0.
         25    1    1    2    0    0 -0.25421450874E+02 -0.14407245896E+03  0.22404347221E+03  0.29533642009E+03  0.12500000000E+03 0.  0.
         25    1    1    2    0    0  0.20859015122E+02  0.10643295649E+03  0.82369391438E+02  0.18485883637E+03  0.12500000000E+03 0.  0.
</event>
<event>
 5    0  0.5653588E-005  0.3609311E+03  0.7546771E-02  0.1058216E+00
         21   -1    0    0  502  501  0.00000000000E+00  0.00000000000E+00  0.41965788650E+03  0.41965788650E+03  0.00000000000E+00 0. -1.
         21   -1    0    0  501  502 -0.00000000000E+00 -0.00000000000E+00 -0.31042253080E+03  0.31042253080E+03  0.00000000000E+00 0. -1.
         25    1    1    2    0    0 -0.16582963959E+03  0.75178825449E+02  0.43463700608E+02  0.22508980082E+03  0.12500000000E+03 0.  0.
         25    1    1    2    0    0  0.23195431785E+03 -0.40568540582E+02 -0.99664971423E+02  0.28461679252E+03  0.12500000000E+03 0.  0.
         25    1    1    2    0    0 -0.66124678263E+02 -0.34610284867E+02  0.16543662651E+03  0.22037382396E+03  0.12500000000E+03 0.  0.
</event>
<event>
 5    0  0.5653588E-005  0.3138115E+03  0.7546771E-02  0.1078533E+00
         21   -1    0    0  502  501  0.00000000000E+00  0.00000000000E+00  0.36622170125E+03  0.36622170125E+03  0.00000000000E+00 0. -1.
         21   -1    0    0  501  502 -0.00000000000E+00 -0.00000000000E+00 -0.26890174274E+03  0.26890174274E+03  0.00000000000E+00 0. -1.
         25    1    1    2    0    0  0.59599819502E+02  0.24244702680E+02 -0.54726495415E+02  0.15086395657E+03  0.12500000000E+03 0.  0.
         25    1    1    2    0    0  0.47091962644E+02 -0.15468440796E+03  0.18031264967E+03  0.27254829048E+03  0.12500000000E+03 0.  0.
         25    1    1    2    0    0 -0.10669178215E+03  0.13043970528E+03 -0.28266195746E+02  0.21171119695E+03  0.12500000000E+03 0.  0.
</event>
<event>
 5    0  0.6712341E-005  0.3587563E+03  0.7546771E-02  0.1059077E+00
         21   -1    0    0  502  501  0.00000000000E+00  0.00000000000E+00  0.40354360638E+03  0.40354360638E+03  0.00000000000E+00 0. -1.
         21   -1    0    0  501  502 -0.00000000000E+00 -0.00000000000E+00 -0.31893974242E+03  0.31893974242E+03  0.00000000000E+00 0. -1.
         25    1    1    2    0    0  0.19636588904E+03 -0.23992725882E+02 -0.95184597191E+02  0.25262684104E+03  0.12500000000E+03 0.  0.
         25    1    1    2    0    0 -0.19520779915E+03  0.76872846439E+02 -0.46595340328E+00  0.24421452963E+03  0.12500000000E+03 0.  0.
         25    1    1    2    0    0 -0.11580898846E+01 -0.52880120557E+02  0.18025441456E+03  0.22564197812E+03  0.12500000000E+03 0.  0.
</event>
<event>
 5    0  0.5653588E-005  0.5402387E+03  0.7546771E-02  0.1003779E+00
         21   -1    0    0  502  501  0.00000000000E+00  0.00000000000E+00  0.67936461718E+03  0.67936461718E+03  0.00000000000E+00 0. -1.
         21   -1    0    0  501  502 -0.00000000000E+00 -0.00000000000E+00 -0.42960411709E+03  0.42960411709E+03  0.00000000000E+00 0. -1.
         25    1    1    2    0    0  0.55787963989E+02  0.92171932065E+02  0.35520945864E+03  0.39167170116E+03  0.12500000000E+03 0.  0.
         25    1    1    2    0    0  0.38022155615E+02  0.42637813450E+02 -0.36247689551E+03  0.38765728064E+03  0.12500000000E+03 0.  0.
         25    1    1    2    0    0 -0.93810119604E+02 -0.13480974551E+03  0.25702793697E+03  0.32963975247E+03  0.12500000000E+03 0.  0.
</event>
<event>
 5    0  0.5653588E-005  0.2285432E+03  0.7546771E-02  0.1127669E+00
         21   -1    0    0  502  501  0.00000000000E+00  0.00000000000E+00  0.47305390754E+03  0.47305390754E+03  0.00000000000E+00 0.  1.
         21   -1    0    0  501  502 -0.00000000000E+00 -0.00000000000E+00 -0.11041450579E+03  0.11041450579E+03  0.00000000000E+00 0.  1.
         25    1    1    2    0    0 -0.46970513013E+02  0.64109525673E+01  0.62982743246E+02  0.14778076787E+03  0.12500000000E+03 0.  0.
         25    1    1    2    0    0 -0.61916508702E+02  0.38113331103E+02  0.13927101652E+03  0.20076776659E+03  0.12500000000E+03 0.  0.
         25    1    1    2    0    0  0.10888702171E+03 -0.44524283670E+02  0.16038564199E+03  0.23491987887E+03  0.12500000000E+03 0.  0.
</event>
<event>
 5    0  0.5653588E-005  0.2135958E+03  0.7546771E-02  0.1138750E+00
         21   -1    0    0  502  501  0.00000000000E+00  0.00000000000E+00  0.50266279002E+03  0.50266279002E+03  0.00000000000E+00 0. -1.
         21   -1    0    0  501  502 -0.00000000000E+00 -0.00000000000E+00 -0.90762968337E+02  0.90762968337E+02  0.00000000000E+00 0. -1.
         25    1    1    2    0    0 -0.48924718395E+02 -0.17334802210E+02  0.25832689164E+03  0.29163659987E+03  0.12500000000E+03 0.  0.
         25    1    1    2    0    0  0.37092558896E+02  0.26399035801E+02  0.91253315484E+02  0.16132245536E+03  0.12500000000E+03 0.  0.
         25    1    1    2    0    0  0.11832159500E+02 -0.90642335907E+01  0.62319614558E+02  0.14046670313E+03  0.12500000000E+03 0.  0.
</event>
<event>
 5    0  0.5653588E-005  0.3015221E+03  0.7546771E-02  0.1084482E+00
         21   -1    0    0  502  501  0.00000000000E+00  0.00000000000E+00  0.49303654844E+03  0.49303654844E+03  0.00000000000E+00 0.  1.
         21   -1    0    0  501  502 -0.00000000000E+00 -0.00000000000E+00 -0.18439930561E+03  0.18439930561E+03  0.00000000000E+00 0.  1.
         25    1    1    2    0    0  0.17628035720E+02  0.13901384634E+02  0.38470932097E+02  0.13269894029E+03  0.12500000000E+03 0.  0.
         25    1    1    2    0    0 -0.15509366935E+03 -0.14373071176E+03  0.12550786976E+03  0.27584377671E+03  0.12500000000E+03 0.  0.
         25    1    1    2    0    0  0.13746563363E+03  0.12982932713E+03  0.14465844096E+03  0.26889313705E+03  0.12500000000E+03 0.  0.
</event>
<event>
 5    0  0.5653588E-005  0.3168941E+03  0.7546771E-02  0.1077088E+00
         21   -1    0    0  502  501  0.00000000000E+00  0.00000000000E+00  0.79465359624E+03  0.79465359624E+03  0.00000000000E+00 0.  1.
         21   -1    0    0  501  502 -0.00000000000E+00 -0.00000000000E+00 -0.12637188329E+03  0.12637188329E+03  0.00000000000E+00 0.  1.
         25    1    1    2    0    0  0.85005652997E+02 -0.12755966757E+03  0.33017544719E+03  0.38488732866E+03  0.12500000000E+03 0.  0.
         25    1    1    2    0    0 -0.82423452596E+02  0.60565420230E+02 -0.83907203826E+01  0.16173187643E+03  0.12500000000E+03 0.  0.
         25    1    1    2    0    0 -0.25822004005E+01  0.66994247336E+02  0.34649698615E+03  0.37440627445E+03  0.12500000000E+03 0.  0.
</event>
<event>
 5    0  0.5653588E-005  0.2480554E+03  0.7546771E-02  0.1114540E+00
         21   -1    0    0  502  501  0.00000000000E+00  0.00000000000E+00  0.11703333711E+03  0.11703333711E+03  0.00000000000E+00 0. -1.
         21   -1    0    0  501  502 -0.00000000000E+00 -0.00000000000E+00 -0.52576029526E+03  0.52576029526E+03  0.00000000000E+00 0. -1.
         25    1    1    2    0    0  0.64138722559E+02 -0.25689173865E+02 -0.95873814002E+02  0.17201888733E+03  0.12500000000E+03 0.  0.
         25    1    1    2    0    0 -0.12608272869E+03 -0.59052868396E+02 -0.14570903576E+03  0.23715020313E+03  0.12500000000E+03 0.  0.
         25    1    1    2    0    0  0.61944006132E+02  0.84742042260E+02 -0.16714410838E+03  0.23362454192E+03  0.12500000000E+03 0.  0.
</event>
<event>
 5    0  0.5653588E-005  0.2897066E+03  0.7546771E-02  0.1090502E+00
         21   -1    0    0  502  501  0.00000000000E+00  0.00000000000E+00  0.70729778877E+02  0.70729778877E+02  0.00000000000E+00 0. -1.
         21   -1    0    0  501  502 -0.00000000000E+00 -0.00000000000E+00 -0.11866276846E+04  0.11866276846E+04  0.00000000000E+00 0. -1.
         25    1    1    2    0    0 -0.93893732073E+01 -0.22059559519E+02 -0.47828900237E+03  0.49493449495E+03  0.12500000000E+03 0.  0.
         25    1    1    2    0    0  0.12903182270E+03 -0.59814680290E+02 -0.16004846042E+03  0.24792643452E+03  0.12500000000E+03 0.  0.
         25    1    1    2    0    0 -0.11964244950E+03  0.81874239808E+02 -0.47756044293E+03  0.51449653402E+03  0.12500000000E+03 0.  0.
</event>
<event>
 5    0  0.5653588E-005  0.3041470E+03  0.7546771E-02  0.1083186E+00
         21   -1    0    0  502  501  0.00000000000E+00  0.00000000000E+00  0.10925553971E+04  0.10925553971E+04  0.00000000000E+00 0. -1.
         21   -1    0    0  501  502 -0.00000000000E+00 -0.00000000000E+00 -0.84668836846E+02  0.84668836846E+02  0.00000000000E+00 0. -1.
         25    1    1    2    0    0  0.81733576075E+02 -0.27124263164E+02  0.24761695723E+03  0.29043977107E+03  0.12500000000E+03 0.  0.
         25    1    1    2    0    0 -0.37283837255E+02  0.22708087767E+02  0.19043433532E+02  0.13376619203E+03  0.12500000000E+03 0.  0.
         25    1    1    2    0    0 -0.44449738820E+02  0.44161753971E+01  0.74122616946E+03  0.75301827081E+03  0.12500000000E+03 0.  0.
</event>
<event>
 5    0  0.6228400E-005  0.6409257E+03  0.7546771E-02  0.9823957E-01
         21   -1    0    0  502  501  0.00000000000E+00  0.00000000000E+00  0.30422277875E+03  0.30422277875E+03  0.00000000000E+00 0.  1.
         21   -1    0    0  501  502 -0.00000000000E+00 -0.00000000000E+00 -0.13502792921E+04  0.13502792921E+04  0.00000000000E+00 0.  1.
         25    1    1    2    0    0  0.10008252500E+03 -0.36089990758E+03 -0.46457050962E+02  0.39755315705E+03  0.12500000000E+03 0.  0.
         25    1    1    2    0    0 -0.28007888366E+03  0.79665353742E+02 -0.18304920390E+03  0.36595458831E+03  0.12500000000E+03 0.  0.
         25    1    1    2    0    0  0.17999635866E+03  0.28123455383E+03 -0.81655025849E+03  0.89099432548E+03  0.12500000000E+03 0.  0.
</event>
<event>
 5    0  0.5653588E-005  0.2512373E+03  0.7546771E-02  0.1112525E+00
         21   -1    0    0  502  501  0.00000000000E+00  0.00000000000E+00  0.14362329493E+04  0.14362329493E+04  0.00000000000E+00 0.  1.
         21   -1    0    0  501  502 -0.00000000000E+00 -0.00000000000E+00 -0.43948429017E+02  0.43948429017E+02  0.00000000000E+00 0.  1.
         25    1    1    2    0    0  0.70796471027E+02 -0.79374395771E+01  0.69999500381E+03  0.71462797917E+03  0.12500000000E+03 0.  0.
         25    1    1    2    0    0 -0.15135679518E+02  0.49222928055E+02  0.13820830582E+03  0.19333525607E+03  0.12500000000E+03 0.  0.
         25    1    1    2    0    0 -0.55660791509E+02 -0.41285488478E+02  0.55408121070E+03  0.57221814313E+03  0.12500000000E+03 0.  0.
</event>
<event>
 5    0  0.5653588E-005  0.4592793E+03  0.7546771E-02  0.1024990E+00
         21   -1    0    0  502  501  0.00000000000E+00  0.00000000000E+00  0.41997623146E+03  0.41997623146E+03  0.00000000000E+00 0.  1.
         21   -1    0    0  501  502 -0.00000000000E+00 -0.00000000000E+00 -0.50226057948E+03  0.50226057948E+03  0.00000000000E+00 0.  1.
         25    1    1    2    0    0  0.31801641082E+02  0.17971148736E+03 -0.14294748626E+03  0.26337529666E+03  0.12500000000E+03 0.  0.
         25    1    1    2    0    0  0.39408891199E+02 -0.10775888701E+03  0.31507947519E+03  0.35786186458E+03  0.12500000000E+03 0.  0.
         25    1    1    2    0    0 -0.71210532281E+02 -0.71952600345E+02 -0.25441633695E+03  0.30099964969E+03  0.12500000000E+03 0.  0.
</event>
<event>
 5    0  0.5653588E-005  0.2604614E+03  0.7546771E-02  0.1106866E+00
         21   -1    0    0  502  501  0.00000000000E+00  0.00000000000E+00  0.46241226971E+03  0.46241226971E+03  0.00000000000E+00 0.  1.
         21   -1    0    0  501  502 -0.00000000000E+00 -0.00000000000E+00 -0.14670918836E+03  0.14670918836E+03  0.00000000000E+00 0.  1.
         25    1    1    2    0    0  0.69821265423E+01 -0.40031624002E+02  0.17491988603E+03  0.21879956019E+03  0.12500000000E+03 0.  0.
         25    1    1    2    0    0  0.12631976574E+02  0.84149627674E+02  0.19414674522E+03  0.24608674355E+03  0.12500000000E+03 0.  0.
         25    1    1    2    0    0 -0.19614103117E+02 -0.44118003672E+02 -0.53363549902E+02  0.14423515434E+03  0.12500000000E+03 0.  0.
</event>
<event>
 5    0  0.5653588E-005  0.2669466E+03  0.7546771E-02  0.1103040E+00
         21   -1    0    0  502  501  0.00000000000E+00  0.00000000000E+00  0.60226972077E+02  0.60226972077E+02  0.00000000000E+00 0. -1.
         21   -1    0    0  501  502 -0.00000000000E+00 -0.00000000000E+00 -0.11831989222E+04  0.11831989222E+04  0.00000000000E+00 0. -1.
         25    1    1    2    0    0 -0.20282363562E+02 -0.11011236084E+03 -0.30178130366E+03  0.34530140678E+03  0.12500000000E+03 0.  0.
         25    1    1    2    0    0  0.10142223789E+03  0.89250197940E+01 -0.23578747335E+03  0.28563413470E+03  0.12500000000E+03 0.  0.
         25    1    1    2    0    0 -0.81139874327E+02  0.10118734104E+03 -0.58540317315E+03  0.61249035284E+03  0.12500000000E+03 0.  0.
</event>
<event>
 5    0  0.5653588E-005  0.3198011E+03  0.7546771E-02  0.1075741E+00
         21   -1    0    0  502  501  0.00000000000E+00  0.00000000000E+00  0.14427162871E+03  0.14427162871E+03  0.00000000000E+00 0. -1.
         21   -1    0    0  501  502 -0.00000000000E+00 -0.00000000000E+00 -0.70889019000E+03  0.70889019000E+03  0.00000000000E+00 0. -1.
         25    1    1    2    0    0  0.70987029703E+02 -0.53716993194E+01  0.26558266428E+02  0.14628176597E+03  0.12500000000E+03 0.  0.
         25    1    1    2    0    0  0.73938788962E+02  0.46711649125E+02 -0.11203906262E+03  0.18927935500E+03  0.12500000000E+03 0.  0.
         25    1    1    2    0    0 -0.14492581867E+03 -0.41339949806E+02 -0.47913776510E+03  0.51760069775E+03  0.12500000000E+03 0.  0.
</event>
<event>
 5    0  0.5653588E-005  0.3566724E+03  0.7546771E-02  0.1059909E+00
         21   -1    0    0  502  501  0.00000000000E+00  0.00000000000E+00  0.40407267434E+03  0.40407267434E+03  0.00000000000E+00 0. -1.
         21   -1    0    0  501  502 -0.00000000000E+00 -0.00000000000E+00 -0.31483254719E+03  0.31483254719E+03  0.00000000000E+00 0. -1.
         25    1    1    2    0    0  0.99536084473E+02  0.31467791264E+02 -0.11139743688E+03  0.19731204460E+03  0.12500000000E+03 0.  0.
         25    1    1    2    0    0 -0.22304575908E+03  0.49335404760E+02  0.19973003260E+03  0.32817751101E+03  0.12500000000E+03 0.  0.
         25    1    1    2    0    0  0.12350967461E+03 -0.80803196023E+02  0.90753143250E+00  0.19341566592E+03  0.12500000000E+03 0.  0.
</event>
<event>
 5    0  0.5653588E-005  0.5088569E+03  0.7546771E-02  0.1011493E+00
         21   -1    0    0  502  501  0.00000000000E+00  0.00000000000E+00  0.46823968090E+03  0.46823968090E+03  0.00000000000E+00 0.  1.
         21   -1    0    0  501  502 -0.00000000000E+00 -0.00000000000E+00 -0.55299734945E+03  0.55299734945E+03  0.00000000000E+00 0.  1.
         25    1    1    2    0    0  0.29216070412E+03 -0.10539534223E+03 -0.33103579018E+03  0.47082454224E+03  0.12500000000E+03 0.  0.
         25    1    1    2    0    0 -0.18413346073E+03 -0.23423202309E+02 -0.42638233061E+01  0.22382349733E+03  0.12500000000E+03 0.  0.
         25    1    1    2    0    0 -0.10802724339E+03  0.12881854454E+03  0.25054194493E+03  0.32658899079E+03  0.12500000000E+03 0.  0.
</event>
<event>
 5    0  0.5653588E-005  0.2399715E+03  0.7546771E-02  0.1119812E+00
         21   -1    0    0  502  501  0.00000000000E+00  0.00000000000E+00  0.38370344071E+03  0.38370344071E+03  0.00000000000E+00 0.  1.
         21   -1    0    0  501  502 -0.00000000000E+00 -0.00000000000E+00 -0.15008027123E+03  0.15008027123E+03  0.00000000000E+00 0.  1.
         25    1    1    2    0    0 -0.44471963518E+02 -0.69134234611E+01  0.34278528577E+01  0.13289959044E+03  0.12500000000E+03 0.  0.
         25    1    1    2    0    0  0.45440927229E+02 -0.12013240809E+02 -0.52429841609E+01  0.13364761391E+03  0.12500000000E+03 0.  0.
         25    1    1    2    0    0 -0.96896371069E+00  0.18926664270E+02  0.23543830079E+03  0.26723650759E+03  0.12500000000E+03 0.  0.
</event>
<event>
 5    0  0.5653588E-005  0.3241219E+03  0.7546771E-02  0.1073768E+00
         21   -1    0    0  502  501  0.00000000000E+00  0.00000000000E+00  0.24356071924E+03  0.24356071924E+03  0.00000000000E+00 0.  1.
         21   -1    0    0  501  502 -0.00000000000E+00 -0.00000000000E+00 -0.43132996423E+03  0.43132996423E+03  0.00000000000E+00 0.  1.
         25    1    1    2    0    0  0.34769357629E+02  0.52527106627E+00 -0.44789091996E+02  0.13725977889E+03  0.12500000000E+03 0.  0.
         25    1    1    2    0    0 -0.57556149097E+02 -0.17042331759E+02  0.15817568874E+03  0.21035137242E+03  0.12500000000E+03 0.  0.
         25    1    1    2    0    0  0.22786791469E+02  0.16517060693E+02 -0.30115584173E+03  0.32727953215E+03  0.12500000000E+03 0.  0.
</event>
<event>
 5    0  0.5653588E-005  0.5108167E+03  0.7546771E-02  0.1010994E+00
         21   -1    0    0  502  501  0.00000000000E+00  0.00000000000E+00  0.23022266539E+03  0.23022266539E+03  0.00000000000E+00 0. -1.
         21   -1    0    0  501  502 -0.00000000000E+00 -0.00000000000E+00 -0.11333971658E+04  0.11333971658E+04  0.00000000000E+00 0. -1.
         25    1    1    2    0    0  0.26160002681E+03  0.27145649556E+03 -0.98800356037E+02  0.40927950518E+03  0.12500000000E+03 0.  0.
         25    1    1    2    0    0 -0.22507579898E+02 -0.21899724335E+01 -0.14548806572E+03  0.19314027130E+03  0.12500000000E+03 0.  0.
         25    1    1    2    0    0 -0.23909244691E+03 -0.26926652313E+03 -0.65888607866E+03  0.76120005471E+03  0.12500000000E+03 0.  0.
</event>
<event>
 5    0  0.5653588E-005  0.3244786E+03  0.7546771E-02  0.1073606E+00
         21   -1    0    0  502  501  0.00000000000E+00  0.00000000000E+00  0.18621151343E+03  0.18621151343E+03  0.00000000000E+00 0. -1.
         21   -1    0    0  501  502 -0.00000000000E+00 -0.00000000000E+00 -0.56541289379E+03  0.56541289379E+03  0.00000000000E+00 0. -1.
         25    1    1    2    0    0  0.17614584307E+03  0.81732032472E+02 -0.51116008783E+02  0.23652765064E+03  0.12500000000E+03 0.  0.
         25    1    1    2    0    0 -0.16665667365E+03  0.38287797192E+02 -0.11753545587E+03  0.24223952128E+03  0.12500000000E+03 0.  0.
         25    1    1    2    0    0 -0.94891694208E+01 -0.12001982966E+03 -0.21054991570E+03  0.27285723529E+03  0.12500000000E+03 0.  0.
</event>
<event>
 5    0  0.5653588E-005  0.4134559E+03  0.7546771E-02  0.1039217E+00
         21   -1    0    0  502  501  0.00000000000E+00  0.00000000000E+00  0.13857578767E+03  0.13857578767E+03  0.00000000000E+00 0.  1.
         21   -1    0    0  501  502 -0.00000000000E+00 -0.00000000000E+00 -0.12335908123E+04  0.12335908123E+04  0.00000000000E+00 0.  1.
         25    1    1    2    0    0 -0.51838130988E+02 -0.34158631031E+03 -0.53553982997E+03  0.64945847343E+03  0.12500000000E+03 0.  0.
         25    1    1    2    0    0  0.38883639006E+02  0.62053440913E+02 -0.12707001516E+03  0.19270276507E+03  0.12500000000E+03 0.  0.
         25    1    1    2    0    0  0.12954491982E+02  0.27953286940E+03 -0.43240517952E+03  0.53000536150E+03  0.12500000000E+03 0.  0.
</event>
<event>
 5    0  0.5653588E-005  0.3463667E+03  0.7546771E-02  0.1064116E+00
         21   -1    0    0  502  501  0.00000000000E+00  0.00000000000E+00  0.23781484799E+03  0.23781484799E+03  0.00000000000E+00 0. -1.
         21   -1    0    0  501  502 -0.00000000000E+00 -0.00000000000E+00 -0.50446768299E+03  0.50446768299E+03  0.00000000000E+00 0. -1.
         25    1    1    2    0    0  0.10179706371E+03  0.13973567569E+02 -0.16022222281E+03  0.22771487315E+03  0.12500000000E+03 0.  0.
         25    1    1    2    0    0 -0.20863813863E+03  0.81705429094E+02 -0.17694337585E+03  0.31167227707E+03  0.12500000000E+03 0.  0.
         25    1    1    2    0    0  0.10684107492E+03 -0.95678996663E+02  0.70512763663E+02  0.20289538076E+03  0.12500000000E+03 0.  0.
</event>
<event>
 5    0  0.6902268E-005  0.2603065E+03  0.7546771E-02  0.1106959E+00
         21   -1    0    0  502  501  0.00000000000E+00  0.00000000000E+00  0.16197251671E+03  0.16197251671E+03  0.00000000000E+00 0.  1.
         21   -1    0    0  501  502 -0.00000000000E+00 -0.00000000000E+00 -0.41833919711E+03  0.41833919711E+03  0.00000000000E+00 0.  1.
         25    1    1    2    0    0 -0.35706844994E+02  0.15992654518E+03 -0.11742642149E+03  0.23720337918E+03  0.12500000000E+03 0.  0.
         25    1    1    2    0    0  0.16811318211E+02 -0.76694552837E+02 -0.12065296982E+03  0.19064840409E+03  0.12500000000E+03 0.  0.
         25    1    1    2    0    0  0.18895526783E+02 -0.83231992340E+02 -0.18287289100E+02  0.15245993055E+03  0.12500000000E+03 0.  0.
</event>
<event>
 5    0  0.5653588E-005  0.3365856E+03  0.7546771E-02  0.1068260E+00
         21   -1    0    0  502  501  0.00000000000E+00  0.00000000000E+00  0.21081156396E+03  0.21081156396E+03  0.00000000000E+00 0. -1.
         21   -1    0    0  501  502 -0.00000000000E+00 -0.00000000000E+00 -0.53739880147E+03  0.53739880147E+03  0.00000000000E+00 0. -1.
         25    1    1    2    0    0  0.33025547610E+02  0.41646847338E+02  0.16710558314E+02  0.13685535959E+03  0.12500000000E+03 0.  0.
         25    1    1    2    0    0 -0.49919788859E+02  0.93030615652E+01 -0.42957511097E+03  0.45026470907E+03  0.12500000000E+03 0.  0.
         25    1    1    2    0    0  0.16894241249E+02 -0.50949908903E+02  0.86277315147E+02  0.16109029677E+03  0.12500000000E+03 0.  0.
</event>
<event>
 5    0  0.5653588E-005  0.3184718E+03  0.7546771E-02  0.1076355E+00
         21   -1    0    0  502  501  0.00000000000E+00  0.00000000000E+00  0.55507871620E+03  0.55507871620E+03  0.00000000000E+00 0.  1.
         21   -1    0    0  501  502 -0.00000000000E+00 -0.00000000000E+00 -0.18272052928E+03  0.18272052928E+03  0.00000000000E+00 0.  1.
         25    1    1    2    0    0  0.71578999247E+02 -0.11781510584E+02  0.26451784729E+02  0.14692533492E+03  0.12500000000E+03 0.  0.
         25    1    1    2    0    0 -0.74580262725E+02 -0.54581538791E+02 -0.55635524351E+02  0.16511108847E+03  0.12500000000E+03 0.  0.
         25    1    1    2    0    0  0.30012634783E+01  0.66363049375E+02  0.40154192655E+03  0.42576282210E+03  0.12500000000E+03 0.  0.
</event>
<event>
 5    0  0.5653588E-005  0.3599440E+03  0.7546771E-02  0.1058606E+00
         21   -1    0    0  502  501  0.00000000000E+00  0.00000000000E+00  0.48862340740E+03  0.48862340740E+03  0.00000000000E+00 0.  1.
         21   -1    0    0  501  502 -0.00000000000E+00 -0.00000000000E+00 -0.26515239966E+03  0.26515239966E+03  0.00000000000E+00 0.  1.
         25    1    1    2    0    0 -0.18036022814E+03  0.61845603409E+02  0.10555465854E+03  0.25123987839E+03  0.12500000000E+03 0.  0.
         25    1    1    2    0    0  0.24996173890E+03 -0.10472121011E+03 -0.20163811444E+02  0.29913037635E+03  0.12500000000E+03 0.  0.
         25    1    1    2    0    0 -0.69601510766E+02  0.42875606702E+02  0.13808016064E+03  0.20340555231E+03  0.12500000000E+03 0.  0.
</event>
<event>
 5    0  0.5653588E-005  0.3234630E+03  0.7546771E-02  0.1074066E+00
         21   -1    0    0  502  501  0.00000000000E+00  0.00000000000E+00  0.88039332079E+02  0.88039332079E+02  0.00000000000E+00 0.  1.
         21   -1    0    0  501  502 -0.00000000000E+00 -0.00000000000E+00 -0.11884269025E+04  0.11884269025E+04  0.00000000000E+00 0.  1.
         25    1    1    2    0    0  0.15919795496E+03 -0.45464243256E+02 -0.26041104779E+03  0.33294128625E+03  0.12500000000E+03 0.  0.
         25    1    1    2    0    0  0.71686032055E+02  0.62296704559E+02 -0.41504821575E+03  0.44374518362E+03  0.12500000000E+03 0.  0.
         25    1    1    2    0    0 -0.23088398702E+03 -0.16832461303E+02 -0.42492830685E+03  0.49977976467E+03  0.12500000000E+03 0.  0.
</event>
<event>
 5    0  0.5653588E-005  0.2913524E+03  0.7546771E-02  0.1089645E+00
         21   -1    0    0  502  501  0.00000000000E+00  0.00000000000E+00  0.61364562928E+03  0.61364562928E+03  0.00000000000E+00 0.  1.
         21   -1    0    0  501  502 -0.00000000000E+00 -0.00000000000E+00 -0.13833104227E+03  0.13833104227E+03  0.00000000000E+00 0.  1.
         25    1    1    2    0    0  0.11977807507E+02 -0.72628310248E+02  0.23029932725E+03  0.27217846986E+03  0.12500000000E+03 0.  0.
         25    1    1    2    0    0  0.97603510207E+02  0.48971471376E+02 -0.18842006297E+02  0.16704691381E+03  0.12500000000E+03 0.  0.
         25    1    1    2    0    0 -0.10958131771E+03  0.23656838872E+02  0.26385726606E+03  0.31275128788E+03  0.12500000000E+03 0.  0.
</event>
<event>
 5    0  0.5653588E-005  0.2238672E+03  0.7546771E-02  0.1131032E+00
         21   -1    0    0  502  501  0.00000000000E+00  0.00000000000E+00  0.78938131024E+02  0.78938131024E+02  0.00000000000E+00 0. -1.
         21   -1    0    0  501  502 -0.00000000000E+00 -0.00000000000E+00 -0.63488369727E+03  0.63488369727E+03  0.00000000000E+00 0. -1.
         25    1    1    2    0    0  0.18051892395E+02  0.65704734567E+02 -0.10720830882E+03  0.17821785669E+03  0.12500000000E+03 0.  0.
         25    1    1    2    0    0 -0.35137406107E+02 -0.77467465816E+02 -0.32523863063E+03  0.35866559972E+03  0.12500000000E+03 0.  0.
         25    1    1    2    0    0  0.17085513712E+02  0.11762731248E+02 -0.12349862680E+03  0.17693837189E+03  0.12500000000E+03 0.  0.
</event>
<event>
 5    0  0.5653588E-005  0.4357325E+03  0.7546771E-02  0.1032064E+00
         21   -1    0    0  502  501  0.00000000000E+00  0.00000000000E+00  0.10413668107E+04  0.10413668107E+04  0.00000000000E+00 0.  1.
         21   -1    0    0  501  502 -0.00000000000E+00 -0.00000000000E+00 -0.18232078614E+03  0.18232078614E+03  0.00000000000E+00 0.  1.
         25    1    1    2    0    0  0.70005587133E+02 -0.31205819972E+03  0.31945417833E+03  0.46899581479E+03  0.12500000000E+03 0.  0.
         25    1    1    2    0    0 -0.11070428808E+03  0.25424638845E+02  0.34504965630E+03  0.38416938578E+03  0.12500000000E+03 0.  0.
         25    1    1    2    0    0  0.40698700942E+02  0.28663356087E+03  0.19454218993E+03  0.37052239627E+03  0.12500000000E+03 0.  0.
</event>
<event>
 5    0  0.5653588E-005  0.3021586E+03  0.7546771E-02  0.1084166E+00
         21   -1    0    0  502  501  0.00000000000E+00  0.00000000000E+00  0.36651080520E+03  0.36651080520E+03  0.00000000000E+00 0.  1.
         21   -1    0    0  501  502 -0.00000000000E+00 -0.00000000000E+00 -0.24910545718E+03  0.24910545718E+03  0.00000000000E+00 0.  1.
         25    1    1    2    0    0  0.88867045377E+02  0.20295830278E+03  0.19364030444E+02  0.25512622385E+03  0.12500000000E+03 0.  0.
         25    1    1    2    0    0 -0.31553987943E+02 -0.14956486751E+03  0.74815510847E+02  0.21115791345E+03  0.12500000000E+03 0.  0.
         25    1    1    2    0    0 -0.57313057434E+02 -0.53393435275E+02  0.23225806723E+02  0.14933212508E+03  0.12500000000E+03 0.  0.
</event>
<event>
 5    0  0.5653588E-005  0.6068997E+03  0.7546771E-02  0.9891194E-01
         21   -1    0    0  502  501  0.00000000000E+00  0.00000000000E+00  0.52624754927E+03  0.52624754927E+03  0.00000000000E+00 0.  1.
         21   -1    0    0  501  502 -0.00000000000E+00 -0.00000000000E+00 -0.69991254421E+03  0.69991254421E+03  0.00000000000E+00 0.  1.
         25    1    1    2    0    0  0.17936740300E+03  0.45700967705E+03 -0.19097798236E+03  0.54141305851E+03  0.12500000000E+03 0.  0.
         25    1    1    2    0    0 -0.29899345665E+03 -0.25687642699E+03 -0.35220442708E+02  0.41502778876E+03  0.12500000000E+03 0.  0.
         25    1    1    2    0    0  0.11962605365E+03 -0.20013325006E+03  0.52533430130E+02  0.26971924621E+03  0.12500000000E+03 0.  0.
</event>
<event>
 5    0  0.5653588E-005  0.3300042E+03  0.7546771E-02  0.1071135E+00
         21   -1    0    0  502  501  0.00000000000E+00  0.00000000000E+00  0.36510068147E+03  0.36510068147E+03  0.00000000000E+00 0.  1.
         21   -1    0    0  501  502 -0.00000000000E+00 -0.00000000000E+00 -0.29828142477E+03  0.29828142477E+03  0.00000000000E+00 0.  1.
         25    1    1    2    0    0 -0.40532836931E+02 -0.57845643891E+01 -0.21266680956E+03  0.25005708137E+03  0.12500000000E+03 0.  0.
         25    1    1    2    0    0  0.10544964757E+02 -0.80867225366E+02  0.14516500192E+03  0.20820322332E+03  0.12500000000E+03 0.  0.
         25    1    1    2    0    0  0.29987872174E+02  0.86651789755E+02  0.13432106434E+03  0.20512180155E+03  0.12500000000E+03 0.  0.
</event>
<event>
 5    0  0.5653588E-005  0.4035160E+03  0.7546771E-02  0.1042569E+00
         21   -1    0    0  502  501  0.00000000000E+00  0.00000000000E+00  0.11680279374E+04  0.11680279374E+04  0.00000000000E+00 0. -1.
         21   -1    0    0  501  502 -0.00000000000E+00 -0.00000000000E+00 -0.13940179118E+03  0.13940179118E+03  0.00000000000E+00 0. -1.
         25    1    1    2    0    0  0.93685005281E+02 -0.10828326027E+03  0.91906733189E+02  0.21112553677E+03  0.12500000000E+03 0.  0.
         25    1    1    2    0    0  0.65950280070E+02 -0.59739967338E+02  0.76887355059E+03  0.78403433595E+03  0.12500000000E+03 0.  0.
         25    1    1    2    0    0 -0.15963528535E+03  0.16802322761E+03  0.16784586244E+03  0.31226985587E+03  0.12500000000E+03 0.  0.
</event>
<event>
 5    0  0.5733564E-005  0.4031724E+03  0.7546771E-02  0.1042687E+00
         21   -1    0    0  502  501  0.00000000000E+00  0.00000000000E+00  0.19079992181E+03  0.19079992181E+03  0.00000000000E+00 0. -1.
         21   -1    0    0  501  502 -0.00000000000E+00 -0.00000000000E+00 -0.85192902753E+03  0.85192902753E+03  0.00000000000E+00 0. -1.
         25    1    1    2    0    0 -0.80418091593E+01 -0.15297084394E+03  0.45942050826E+02  0.20297887039E+03  0.12500000000E+03 0.  0.
         25    1    1    2    0    0 -0.15237451586E+03  0.84682580556E+02 -0.21870515474E+03  0.30634307115E+03  0.12500000000E+03 0.  0.
         25    1    1    2    0    0  0.16041632502E+03  0.68288263381E+02 -0.48836600182E+03  0.53340700781E+03  0.12500000000E+03 0.  0.
</event>
<event>
 5    0  0.5653588E-005  0.3716117E+03  0.7546771E-02  0.1054078E+00
         21   -1    0    0  502  501  0.00000000000E+00  0.00000000000E+00  0.14193632864E+04  0.14193632864E+04  0.00000000000E+00 0.  1.
         21   -1    0    0  501  502 -0.00000000000E+00 -0.00000000000E+00 -0.97293790425E+02  0.97293790425E+02  0.00000000000E+00 0.  1.
         25    1    1    2    0    0 -0.94408654125E+02  0.57384607576E+02  0.26474710040E+03  0.31292493402E+03  0.12500000000E+03 0.  0.
         25    1    1    2    0    0 -0.13237946314E+03  0.14773190941E+02  0.97671541006E+02  0.20714077183E+03  0.12500000000E+03 0.  0.
         25    1    1    2    0    0  0.22678811727E+03 -0.72157798517E+02  0.95965085454E+03  0.99659137094E+03  0.12500000000E+03 0.  0.
</event>
<event>
 5    0  0.5653588E-005  0.4411062E+03  0.7546771E-02  0.1030408E+00
         21   -1    0    0  502  501  0.00000000000E+00  0.00000000000E+00  0.11191528346E+03  0.11191528346E+03  0.00000000000E+00 0.  1.
         21   -1    0    0  501  502 -0.00000000000E+00 -0.00000000000E+00 -0.17385886120E+04  0.17385886120E+04  0.00000000000E+00 0.  1.
         25    1    1    2    0    0 -0.12818204677E+03  0.24298400383E+03 -0.38499428347E+03  0.48920083967E+03  0.12500000000E+03 0.  0.
         25    1    1    2    0    0 -0.84571513842E+02 -0.59042589763E+01 -0.73191352112E+03  0.74733500093E+03  0.12500000000E+03 0.  0.
         25    1    1    2    0    0  0.21275356061E+03 -0.23707974485E+03 -0.50976552401E+03  0.61396805490E+03  0.12500000000E+03 0.  0.
</event>
<event>
 5    0  0.5653588E-005  0.4747367E+03  0.7546771E-02  0.1020592E+00
         21   -1    0    0  502  501  0.00000000000E+00  0.00000000000E+00  0.20955696438E+03  0.20955696438E+03  0.00000000000E+00 0.  1.
         21   -1    0    0  501  502 -0.00000000000E+00 -0.00000000000E+00 -0.10754829823E+04  0.10754829823E+04  0.00000000000E+00 0.  1.
         25    1    1    2    0    0  0.32574671757E+03  0.46553375004E+02 -0.22869781420E+03  0.41976878273E+03  0.12500000000E+03 0.  0.
         25    1    1    2    0    0 -0.22747815031E+03 -0.21456332672E+03 -0.27171299738E+03  0.43270854277E+03  0.12500000000E+03 0.  0.
         25    1    1    2    0    0 -0.98268567252E+02  0.16800995171E+03 -0.36551520636E+03  0.43256262121E+03  0.12500000000E+03 0.  0.
</event>
<event>
 5    0  0.5653588E-005  0.4421908E+03  0.7546771E-02  0.1030077E+00
         21   -1    0    0  502  501  0.00000000000E+00  0.00000000000E+00  0.26992858576E+03  0.26992858576E+03  0.00000000000E+00 0. -1.
         21   -1    0    0  501  502 -0.00000000000E+00 -0.00000000000E+00 -0.72438688727E+03  0.72438688727E+03  0.00000000000E+00 0. -1.
         25    1    1    2    0    0 -0.14491578249E+03 -0.16939158276E+03 -0.22732909054E+03  0.34204913058E+03  0.12500000000E+03 0.  0.
         25    1    1    2    0    0  0.31613153418E+03  0.74229575387E+02 -0.33077146130E+02  0.34952578497E+03  0.12500000000E+03 0.  0.
         25    1    1    2    0    0 -0.17121575169E+03  0.95162007369E+02 -0.19405206484E+03  0.30274055747E+03  0.12500000000E+03 0.  0.
</event>
<event>
 5    0  0.6127506E-005  0.2688375E+03  0.7546771E-02  0.1101947E+00
         21   -1    0    0  502  501  0.00000000000E+00  0.00000000000E+00  0.83973529111E+03  0.83973529111E+03  0.00000000000E+00 0. -1.
         21   -1    0    0  501  502 -0.00000000000E+00 -0.00000000000E+00 -0.86067116853E+02  0.86067116853E+02  0.00000000000E+00 0. -1.
         25    1    1    2    0    0 -0.57187691639E+02  0.53916216290E+02  0.23543070729E+03  0.27790287582E+03  0.12500000000E+03 0.  0.
         25    1    1    2    0    0  0.13848032364E+02  0.11666604348E+03  0.25726352689E+03  0.30921231536E+03  0.12500000000E+03 0.  0.
         25    1    1    2    0    0  0.43339659275E+02 -0.17058225977E+03  0.26097394007E+03  0.33868721678E+03  0.12500000000E+03 0.  0.
</event>
<event>
 5    0  0.5653588E-005  0.4555002E+03  0.7546771E-02  0.1026094E+00
         21   -1    0    0  502  501  0.00000000000E+00  0.00000000000E+00  0.14745412752E+03  0.14745412752E+03  0.00000000000E+00 0. -1.
         21   -1    0    0  501  502 -0.00000000000E+00 -0.00000000000E+00 -0.14070848665E+04  0.14070848665E+04  0.00000000000E+00 0. -1.
         25    1    1    2    0    0  0.17867338248E+03 -0.12604035884E+03 -0.38260055400E+03  0.45805953061E+03  0.12500000000E+03 0.  0.
         25    1    1    2    0    0 -0.13959086671E+03  0.17730045374E+03 -0.56625478251E+02  0.26410699679E+03  0.12500000000E+03 0.  0.
         25    1    1    2    0    0 -0.39082515770E+02 -0.51260094902E+02 -0.82040470671E+03  0.83237246661E+03  0.12500000000E+03 0.  0.
</event>
<event>
 5    0  0.6075985E-005  0.2873443E+03  0.7546771E-02  0.1091744E+00
         21   -1    0    0  502  501  0.00000000000E+00  0.00000000000E+00  0.16168557357E+03  0.16168557357E+03  0.00000000000E+00 0. -1.
         21   -1    0    0  501  502 -0.00000000000E+00 -0.00000000000E+00 -0.51066246150E+03  0.51066246150E+03  0.00000000000E+00 0. -1.
         25    1    1    2    0    0  0.91248796502E+02  0.47173937195E+02 -0.74856578193E+02  0.17827010549E+03  0.12500000000E+03 0.  0.
         25    1    1    2    0    0 -0.17586822087E+03 -0.20037038762E+02 -0.26233360296E+03  0.34025730452E+03  0.12500000000E+03 0.  0.
         25    1    1    2    0    0  0.84619424368E+02 -0.27136898433E+02 -0.11786706778E+02  0.15382062506E+03  0.12500000000E+03 0.  0.
</event>
<event>
 5    0  0.5653588E-005  0.3907713E+03  0.7546771E-02  0.1047023E+00
         21   -1    0    0  502  501  0.00000000000E+00  0.00000000000E+00  0.38912471652E+03  0.38912471652E+03  0.00000000000E+00 0. -1.
         21   -1    0    0  501  502 -0.00000000000E+00 -0.00000000000E+00 -0.39242486076E+03  0.39242486076E+03  0.00000000000E+00 0. -1.
         25    1    1    2    0    0 -0.16169211158E+03  0.70182386484E+02 -0.71725128648E+01  0.21620904528E+03  0.12500000000E+03 0.  0.
         25    1    1    2    0    0 -0.20238060524E+02  0.78420603791E+02  0.18940285003E+03  0.24095188273E+03  0.12500000000E+03 0.  0.
         25    1    1    2    0    0  0.18193017211E+03 -0.14860299027E+03 -0.18553048141E+03  0.32438864927E+03  0.12500000000E+03 0.  0.
</event>
<event>
 5    0  0.5653588E-005  0.2743725E+03  0.7546771E-02  0.1098803E+00
         21   -1    0    0  502  501  0.00000000000E+00  0.00000000000E+00  0.24467278096E+03  0.24467278096E+03  0.00000000000E+00 0.  1.
         21   -1    0    0  501  502 -0.00000000000E+00 -0.00000000000E+00 -0.30767743398E+03  0.30767743398E+03  0.00000000000E+00 0.  1.
         25    1    1    2    0    0  0.37014653490E+02  0.74760854961E+02  0.10245146633E+03  0.18188065582E+03  0.12500000000E+03 0.  0.
         25    1    1    2    0    0  0.11294767994E+02 -0.17334241776E+02 -0.18410015997E+03  0.22348583092E+03  0.12500000000E+03 0.  0.
         25    1    1    2    0    0 -0.48309421484E+02 -0.57426613185E+02  0.18644040610E+02  0.14698372820E+03  0.12500000000E+03 0.  0.
</event>
<event>
 5    0  0.5653588E-005  0.3565554E+03  0.7546771E-02  0.1059956E+00
         21   -1    0    0  502  501  0.00000000000E+00  0.00000000000E+00  0.11942788984E+03  0.11942788984E+03  0.00000000000E+00 0. -1.
         21   -1    0    0  501  502 -0.00000000000E+00 -0.00000000000E+00 -0.10645062804E+04  0.10645062804E+04  0.00000000000E+00 0. -1.
         25    1    1    2    0    0 -0.14312118987E+03 -0.31211030939E+02 -0.48846337125E+02  0.19866748121E+03  0.12500000000E+03 0.  0.
         25    1    1    2    0    0  0.13440280590E+01 -0.28047330966E+02 -0.93893137132E+02  0.15883759123E+03  0.12500000000E+03 0.  0.
         25    1    1    2    0    0  0.14177716181E+03  0.59258361905E+02 -0.80233891631E+03  0.82642909780E+03  0.12500000000E+03 0.  0.
</event>
<event>
 5    0  0.5653588E-005  0.3565422E+03  0.7546771E-02  0.1059961E+00
         21   -1    0    0  502  501  0.00000000000E+00  0.00000000000E+00  0.19175776139E+04  0.19175776139E+04  0.00000000000E+00 0. -1.
         21   -1    0    0  501  502 -0.00000000000E+00 -0.00000000000E+00 -0.66293175794E+02  0.66293175794E+02  0.00000000000E+00 0. -1.
         25    1    1    2    0    0 -0.69943220734E+02  0.56162259543E+02  0.17680038218E+03  0.23437070778E+03  0.12500000000E+03 0.  0.
         25    1    1    2    0    0  0.69043820248E+01  0.92024229960E+01  0.82894569448E+02  0.15042893579E+03  0.12500000000E+03 0.  0.
         25    1    1    2    0    0  0.63038838709E+02 -0.65364682539E+02  0.15915894865E+04  0.15990711462E+04  0.12500000000E+03 0.  0.
</event>
<event>
 5    0  0.5653588E-005  0.3471857E+03  0.7546771E-02  0.1063776E+00
         21   -1    0    0  502  501  0.00000000000E+00  0.00000000000E+00  0.17130622783E+03  0.17130622783E+03  0.00000000000E+00 0. -1.
         21   -1    0    0  501  502 -0.00000000000E+00 -0.00000000000E+00 -0.70364008118E+03  0.70364008118E+03  0.00000000000E+00 0. -1.
         25    1    1    2    0    0  0.70897379697E+02  0.18674606162E+03 -0.21062570887E+02  0.23657802491E+03  0.12500000000E+03 0.  0.
         25    1    1    2    0    0  0.39104542093E+02 -0.49738731819E+02 -0.32314175406E+03  0.35220547962E+03  0.12500000000E+03 0.  0.
         25    1    1    2    0    0 -0.11000192179E+03 -0.13700732980E+03 -0.18812952840E+03  0.28616280448E+03  0.12500000000E+03 0.  0.
</event>
<event>
 5    0  0.5653588E-005  0.2809342E+03  0.7546771E-02  0.1095180E+00
         21   -1    0    0  502  501  0.00000000000E+00  0.00000000000E+00  0.15899808439E+03  0.15899808439E+03  0.00000000000E+00 0. -1.
         21   -1    0    0  501  502 -0.00000000000E+00 -0.00000000000E+00 -0.49638341295E+03  0.49638341295E+03  0.00000000000E+00 0. -1.
         25    1    1    2    0    0  0.95435062009E+00 -0.10017805309E+03  0.52005222801E+02  0.16842237472E+03  0.12500000000E+03 0.  0.
         25    1    1    2    0    0  0.39801567436E+02  0.92713450593E+02 -0.21976150714E+03  0.27221327798E+03  0.12500000000E+03 0.  0.
         25    1    1    2    0    0 -0.40755918056E+02  0.74646024996E+01 -0.16962904423E+03  0.21474584464E+03  0.12500000000E+03 0.  0.
</event>
<event>
 5    0  0.5653588E-005  0.2653608E+03  0.7546771E-02  0.1103964E+00
         21   -1    0    0  502  501  0.00000000000E+00  0.00000000000E+00  0.20175310395E+03  0.20175310395E+03  0.00000000000E+00 0.  1.
         21   -1    0    0  501  502 -0.00000000000E+00 -0.00000000000E+00 -0.34902244204E+03  0.34902244204E+03  0.00000000000E+00 0.  1.
         25    1    1    2    0    0 -0.11350843888E+03  0.89252535246E+02 -0.68026897416E+02  0.20273835236E+03  0.12500000000E+03 0.  0.
         25    1    1    2    0    0  0.44737528372E+02 -0.11544148901E+03  0.12546536392E+02  0.17638197018E+03  0.12500000000E+03 0.  0.
         25    1    1    2    0    0  0.68770910504E+02  0.26188953760E+02 -0.91788977065E+02  0.17165522346E+03  0.12500000000E+03 0.  0.
</event>
<event>
 5    0  0.5653588E-005  0.2566733E+03  0.7546771E-02  0.1109159E+00
         21   -1    0    0  502  501  0.00000000000E+00  0.00000000000E+00  0.11122794727E+04  0.11122794727E+04  0.00000000000E+00 0. -1.
         21   -1    0    0  501  502 -0.00000000000E+00 -0.00000000000E+00 -0.59230794809E+02  0.59230794809E+02  0.00000000000E+00 0. -1.
         25    1    1    2    0    0  0.47981574874E+02 -0.36042209957E+01  0.54683950078E+03  0.56300413990E+03  0.12500000000E+03 0.  0.
         25    1    1    2    0    0 -0.45079692566E+02  0.11045983647E+03  0.24423487516E+03  0.29918092920E+03  0.12500000000E+03 0.  0.
         25    1    1    2    0    0 -0.29018823085E+01 -0.10685561547E+03  0.26197430191E+03  0.30932519836E+03  0.12500000000E+03 0.  0.
</event>
<event>
 5    0  0.5653588E-005  0.2744928E+03  0.7546771E-02  0.1098735E+00
         21   -1    0    0  502  501  0.00000000000E+00  0.00000000000E+00  0.65756751545E+02  0.65756751545E+02  0.00000000000E+00 0.  1.
         21   -1    0    0  501  502 -0.00000000000E+00 -0.00000000000E+00 -0.11458332708E+04  0.11458332708E+04  0.00000000000E+00 0.  1.
         25    1    1    2    0    0 -0.62403597925E+02  0.15662413987E+03 -0.24928581965E+03  0.32587382543E+03  0.12500000000E+03 0.  0.
         25    1    1    2    0    0  0.16841239128E+02 -0.51165820800E+02 -0.33169755026E+03  0.35853846851E+03  0.12500000000E+03 0.  0.
         25    1    1    2    0    0  0.45562358797E+02 -0.10545831907E+03 -0.49909314938E+03  0.52717772843E+03  0.12500000000E+03 0.  0.
</event>
<event>
 5    0  0.5889360E-005  0.2901948E+03  0.7546771E-02  0.1090247E+00
         21   -1    0    0  502  501  0.00000000000E+00  0.00000000000E+00  0.74468260642E+03  0.74468260642E+03  0.00000000000E+00 0. -1.
         21   -1    0    0  501  502 -0.00000000000E+00 -0.00000000000E+00 -0.11308581085E+03  0.11308581085E+03  0.00000000000E+00 0. -1.
         25    1    1    2    0    0  0.13287972876E+03  0.64553750800E+01  0.39457959642E+02  0.18676355309E+03  0.12500000000E+03 0.  0.
         25    1    1    2    0    0  0.98230742241E+01  0.52083202957E+00  0.25226905224E+03  0.28171162343E+03  0.12500000000E+03 0.  0.
         25    1    1    2    0    0 -0.14270280298E+03 -0.69762071096E+01  0.33986978368E+03  0.38929324077E+03  0.12500000000E+03 0.  0.
</event>
<event>
 5    0  0.5653588E-005  0.3952191E+03  0.7546771E-02  0.1045448E+00
         21   -1    0    0  502  501  0.00000000000E+00  0.00000000000E+00  0.25238423235E+03  0.25238423235E+03  0.00000000000E+00 0.  1.
         21   -1    0    0  501  502 -0.00000000000E+00 -0.00000000000E+00 -0.61889035030E+03  0.61889035030E+03  0.00000000000E+00 0.  1.
         25    1    1    2    0    0  0.51949927068E+02  0.39207145171E+02 -0.26840052360E+03  0.30314985770E+03  0.12500000000E+03 0.  0.
         25    1    1    2    0    0 -0.15281432605E+03 -0.11282437550E+03  0.14344193238E+03  0.26885339112E+03  0.12500000000E+03 0.  0.
         25    1    1    2    0    0  0.10086439898E+03  0.73617230325E+02 -0.24154752673E+03  0.29927133383E+03  0.12500000000E+03 0.  0.
</event>
<event>
 5    0  0.5653588E-005  0.3185009E+03  0.7546771E-02  0.1076341E+00
         21   -1    0    0  502  501  0.00000000000E+00  0.00000000000E+00  0.11029098981E+03  0.11029098981E+03  0.00000000000E+00 0.  1.
         21   -1    0    0  501  502 -0.00000000000E+00 -0.00000000000E+00 -0.91977462839E+03  0.91977462839E+03  0.00000000000E+00 0.  1.
         25    1    1    2    0    0  0.47401728131E+01 -0.96022058199E+02 -0.46954583176E+03  0.49531908202E+03  0.12500000000E+03 0.  0.
         25    1    1    2    0    0 -0.14042131940E+03  0.10426751900E+03 -0.24880940314E+03  0.32881755055E+03  0.12500000000E+03 0.  0.
         25    1    1    2    0    0  0.13568114659E+03 -0.82454608018E+01 -0.91128403685E+02  0.20592898563E+03  0.12500000000E+03 0.  0.
</event>
<event>
 5    0  0.7178604E-005  0.3505582E+03  0.7546771E-02  0.1062386E+00
         21   -1    0    0  502  501  0.00000000000E+00  0.00000000000E+00  0.70056569127E+03  0.70056569127E+03  0.00000000000E+00 0. -1.
         21   -1    0    0  501  502 -0.00000000000E+00 -0.00000000000E+00 -0.17541685130E+03  0.17541685130E+03  0.00000000000E+00 0. -1.
         25    1    1    2    0    0 -0.21899566017E+03  0.24876960078E+02  0.14544500058E+03  0.29215956344E+03  0.12500000000E+03 0.  0.
         25    1    1    2    0    0  0.11102689572E+03 -0.55321230101E+02  0.37671080231E+03  0.41584064093E+03  0.12500000000E+03 0.  0.
         25    1    1    2    0    0  0.10796876445E+03  0.30444270023E+02  0.29930370837E+01  0.16798233820E+03  0.12500000000E+03 0.  0.
</event>
<event>
 5    0  0.5653588E-005  0.2549484E+03  0.7546771E-02  0.1110217E+00
         21   -1    0    0  502  501  0.00000000000E+00  0.00000000000E+00  0.11906912755E+04  0.11906912755E+04  0.00000000000E+00 0.  1.
         21   -1    0    0  501  502 -0.00000000000E+00 -0.00000000000E+00 -0.54589028067E+02  0.54589028067E+02  0.00000000000E+00 0.  1.
         25    1    1    2    0    0  0.56170192822E+02 -0.40429045022E+02  0.13960542370E+03  0.19976053807E+03  0.12500000000E+03 0.  0.
         25    1    1    2    0    0 -0.55091947900E+01  0.10527552260E+03  0.59419375772E+03  0.61628281544E+03  0.12500000000E+03 0.  0.
         25    1    1    2    0    0 -0.50660998032E+02 -0.64846477581E+02  0.40230306600E+03  0.42923695005E+03  0.12500000000E+03 0.  0.
</event>
<event>
 5    0  0.5653588E-005  0.3111652E+03  0.7546771E-02  0.1079789E+00
         21   -1    0    0  502  501  0.00000000000E+00  0.00000000000E+00  0.14061960216E+03  0.14061960216E+03  0.00000000000E+00 0.  1.
         21   -1    0    0  501  502 -0.00000000000E+00 -0.00000000000E+00 -0.68855088866E+03  0.68855088866E+03  0.00000000000E+00 0.  1.
         25    1    1    2    0    0  0.98326486536E+02  0.22627910453E+02 -0.24321958159E+02  0.16247054482E+03  0.12500000000E+03 0.  0.
         25    1    1    2    0    0 -0.16143468214E+03  0.99160893030E+02 -0.27934744855E+03  0.35993615589E+03  0.12500000000E+03 0.  0.
         25    1    1    2    0    0  0.63108195608E+02 -0.12178880348E+03 -0.24426187979E+03  0.30676379011E+03  0.12500000000E+03 0.  0.
</event>
<event>
 5    0  0.5653588E-005  0.2623955E+03  0.7546771E-02  0.1105712E+00
         21   -1    0    0  502  501  0.00000000000E+00  0.00000000000E+00  0.15024446704E+03  0.15024446704E+03  0.00000000000E+00 0. -1.
         21   -1    0    0  501  502 -0.00000000000E+00 -0.00000000000E+00 -0.45826253044E+03  0.45826253044E+03  0.00000000000E+00 0. -1.
         25    1    1    2    0    0  0.26298744701E+02  0.47513689567E+02 -0.23680722166E+03  0.27322487972E+03  0.12500000000E+03 0.  0.
         25    1    1    2    0    0  0.81261287496E+02  0.10539266009E+02 -0.90651319676E+01  0.14973860421E+03  0.12500000000E+03 0.  0.
         25    1    1    2    0    0 -0.10756003220E+03 -0.58052955576E+02 -0.62145709772E+02  0.18554351355E+03  0.12500000000E+03 0.  0.
</event>
<event>
 5    0  0.5653588E-005  0.5331712E+03  0.7546771E-02  0.1005466E+00
         21   -1    0    0  502  501  0.00000000000E+00  0.00000000000E+00  0.13998879979E+04  0.13998879979E+04  0.00000000000E+00 0. -1.
         21   -1    0    0  501  502 -0.00000000000E+00 -0.00000000000E+00 -0.20306730261E+03  0.20306730261E+03  0.00000000000E+00 0. -1.
         25    1    1    2    0    0  0.18396452262E+03 -0.71272331648E+02 -0.98173276843E+02  0.25334893552E+03  0.12500000000E+03 0.  0.
         25    1    1    2    0    0 -0.72683948121E+02 -0.41843313372E+02  0.31640662914E+03  0.35038831909E+03  0.12500000000E+03 0.  0.
         25    1    1    2    0    0 -0.11128057450E+03  0.11311564502E+03  0.97858734303E+03  0.99921804594E+03  0.12500000000E+03 0.  0.
</event>
<event>
 5    0  0.5653588E-005  0.2801597E+03  0.7546771E-02  0.1095602E+00
         21   -1    0    0  502  501  0.00000000000E+00  0.00000000000E+00  0.43013063958E+03  0.43013063958E+03  0.00000000000E+00 0.  1.
         21   -1    0    0  501  502 -0.00000000000E+00 -0.00000000000E+00 -0.18247814413E+03  0.18247814413E+03  0.00000000000E+00 0.  1.
         25    1    1    2    0    0 -0.71710361100E+02 -0.24565116409E+02  0.54593781957E+02  0.15604903672E+03  0.12500000000E+03 0.  0.
         25    1    1    2    0    0  0.55320021691E+02  0.17008095915E+03  0.12985277200E+03  0.25391845121E+03  0.12500000000E+03 0.  0.
         25    1    1    2    0    0  0.16390339410E+02 -0.14551584274E+03  0.63205941492E+02  0.20264129578E+03  0.12500000000E+03 0.  0.
</event>
<event>
 5    0  0.5653588E-005  0.4176720E+03  0.7546771E-02  0.1037827E+00
         21   -1    0    0  502  501  0.00000000000E+00  0.00000000000E+00  0.20845845276E+03  0.20845845276E+03  0.00000000000E+00 0.  1.
         21   -1    0    0  501  502 -0.00000000000E+00 -0.00000000000E+00 -0.83685675012E+03  0.83685675012E+03  0.00000000000E+00 0.  1.
         25    1    1    2    0    0 -0.42190318711E+02  0.30840393484E+03 -0.90173376497E+02  0.34734600594E+03  0.12500000000E+03 0.  0.
         25    1    1    2    0    0  0.87331454106E+01 -0.27493922986E+03 -0.30603811951E+03  0.43006066844E+03  0.12500000000E+03 0.  0.
         25    1    1    2    0    0  0.33457173300E+02 -0.33464704978E+02 -0.23218680135E+03  0.26790852850E+03  0.12500000000E+03 0.  0.
</event>
<event>
 5    0  0.5653588E-005  0.3488222E+03  0.7546771E-02  0.1063100E+00
         21   -1    0    0  502  501  0.00000000000E+00  0.00000000000E+00  0.89269605996E+03  0.89269605996E+03  0.00000000000E+00 0.  1.
         21   -1    0    0  501  502 -0.00000000000E+00 -0.00000000000E+00 -0.13630271587E+03  0.13630271587E+03  0.00000000000E+00 0.  1.
         25    1    1    2    0    0  0.11265548968E+03 -0.21741775882E+03  0.15424754123E+03  0.31524442133E+03  0.12500000000E+03 0.  0.
         25    1    1    2    0    0 -0.63636049942E+02  0.43476354004E+02  0.14416057195E+03  0.20578389323E+03  0.12500000000E+03 0.  0.
         25    1    1    2    0    0 -0.49019439736E+02  0.17394140481E+03  0.45798523091E+03  0.50797046126E+03  0.12500000000E+03 0.  0.
</event>
<event>
 5    0  0.5653588E-005  0.2213837E+03  0.7546771E-02  0.1132856E+00
         21   -1    0    0  502  501  0.00000000000E+00  0.00000000000E+00  0.12769364305E+03  0.12769364305E+03  0.00000000000E+00 0.  1.
         21   -1    0    0  501  502 -0.00000000000E+00 -0.00000000000E+00 -0.38381521641E+03  0.38381521641E+03  0.00000000000E+00 0.  1.
         25    1    1    2    0    0 -0.24396424293E+02 -0.57315551608E+02 -0.10837284130E+03  0.17677649930E+03  0.12500000000E+03 0.  0.
         25    1    1    2    0    0 -0.49505138667E+02  0.59907680730E+02 -0.11255956681E+03  0.18529529148E+03  0.12500000000E+03 0.  0.
         25    1    1    2    0    0  0.73901562960E+02 -0.25921291226E+01 -0.35189165249E+02  0.14943706867E+03  0.12500000000E+03 0.  0.
</event>
<event>
 5    0  0.5653588E-005  0.3038149E+03  0.7546771E-02  0.1083349E+00
         21   -1    0    0  502  501  0.00000000000E+00  0.00000000000E+00  0.53887995045E+02  0.53887995045E+02  0.00000000000E+00 0.  1.
         21   -1    0    0  501  502 -0.00000000000E+00 -0.00000000000E+00 -0.17128771435E+04  0.17128771435E+04  0.00000000000E+00 0.  1.
         25    1    1    2    0    0  0.52002256557E+02 -0.39141198633E+02 -0.37709445414E+03  0.40256862205E+03  0.12500000000E+03 0.  0.
         25    1    1    2    0    0  0.75111795728E+02 -0.14271305523E+03 -0.44790985983E+03  0.49219614029E+03  0.12500000000E+03 0.  0.
         25    1    1    2    0    0 -0.12711405229E+03  0.18185425386E+03 -0.83398483454E+03  0.87200037625E+03  0.12500000000E+03 0.  0.
</event>
<event>
 5    0  0.5653588E-005  0.4175189E+03  0.7546771E-02  0.1037877E+00
         21   -1    0    0  502  501  0.00000000000E+00  0.00000000000E+00  0.49431700351E+03  0.49431700351E+03  0.00000000000E+00 0. -1.
         21   -1    0    0  501  502 -0.00000000000E+00 -0.00000000000E+00 -0.35265224441E+03  0.35265224441E+03  0.00000000000E+00 0. -1.
         25    1    1    2    0    0 -0.65388360841E+02 -0.53070415693E+02 -0.15258828368E+03  0.21447678446E+03  0.12500000000E+03 0.  0.
         25    1    1    2    0    0  0.27493725287E+02 -0.12173411295E+03  0.36300878456E+03  0.40370221309E+03  0.12500000000E+03 0.  0.
         25    1    1    2    0    0  0.37894635555E+02  0.17480452864E+03 -0.68755741784E+02  0.22879025037E+03  0.12500000000E+03 0.  0.
</event>
<event>
 5    0  0.5653588E-005  0.3719396E+03  0.7546771E-02  0.1053954E+00
         21   -1    0    0  502  501  0.00000000000E+00  0.00000000000E+00  0.93889783259E+03  0.93889783259E+03  0.00000000000E+00 0.  1.
         21   -1    0    0  501  502 -0.00000000000E+00 -0.00000000000E+00 -0.14734195418E+03  0.14734195418E+03  0.00000000000E+00 0.  1.
         25    1    1    2    0    0 -0.25486497885E+03  0.58692812272E+02  0.55308280846E+03  0.62444102738E+03  0.12500000000E+03 0.  0.
         25    1    1    2    0    0  0.62796637251E+02 -0.67527757777E+02  0.15016770411E+03  0.21605266737E+03  0.12500000000E+03 0.  0.
         25    1    1    2    0    0  0.19206834160E+03  0.88349455050E+01  0.88305365836E+02  0.24574609202E+03  0.12500000000E+03 0.  0.
</event>
<event>
 5    0  0.5653588E-005  0.3516522E+03  0.7546771E-02  0.1061939E+00
         21   -1    0    0  502  501  0.00000000000E+00  0.00000000000E+00  0.31918391821E+03  0.31918391821E+03  0.00000000000E+00 0.  1.
         21   -1    0    0  501  502 -0.00000000000E+00 -0.00000000000E+00 -0.38742317945E+03  0.38742317945E+03  0.00000000000E+00 0.  1.
         25    1    1    2    0    0  0.58722848957E+02  0.23685384134E+03 -0.32916549116E+01  0.27419691855E+03  0.12500000000E+03 0.  0.
         25    1    1    2    0    0 -0.12943428899E+03 -0.46405029216E+02 -0.54495182013E+02  0.19365274789E+03  0.12500000000E+03 0.  0.
         25    1    1    2    0    0  0.70711440036E+02 -0.19044881213E+03 -0.10452424314E+02  0.23875743123E+03  0.12500000000E+03 0.  0.
</event>
<event>
 5    0  0.5653588E-005  0.2968076E+03  0.7546771E-02  0.1086847E+00
         21   -1    0    0  502  501  0.00000000000E+00  0.00000000000E+00  0.19138078382E+03  0.19138078382E+03  0.00000000000E+00 0. -1.
         21   -1    0    0  501  502 -0.00000000000E+00 -0.00000000000E+00 -0.46031144276E+03  0.46031144276E+03  0.00000000000E+00 0. -1.
         25    1    1    2    0    0  0.44225496547E+02  0.15988921245E+02 -0.23801209713E+03  0.27292178097E+03  0.12500000000E+03 0.  0.
         25    1    1    2    0    0 -0.32248032601E+02 -0.91218753900E+02  0.96076865655E+02  0.18497718990E+03  0.12500000000E+03 0.  0.
         25    1    1    2    0    0 -0.11977463946E+02  0.75229832655E+02 -0.12699542747E+03  0.19379325572E+03  0.12500000000E+03 0.  0.
</event>
<event>
 5    0  0.5653588E-005  0.4259157E+03  0.7546771E-02  0.1035158E+00
         21   -1    0    0  502  501  0.00000000000E+00  0.00000000000E+00  0.93122807299E+03  0.93122807299E+03  0.00000000000E+00 0. -1.
         21   -1    0    0  501  502 -0.00000000000E+00 -0.00000000000E+00 -0.19480107105E+03  0.19480107105E+03  0.00000000000E+00 0. -1.
         25    1    1    2    0    0  0.23935085841E+03 -0.80036726459E+02  0.60111530751E+03  0.66382175614E+03  0.12500000000E+03 0.  0.
         25    1    1    2    0    0 -0.21288034851E+03  0.84316891521E+02  0.19043830687E+03  0.32298472054E+03  0.12500000000E+03 0.  0.
         25    1    1    2    0    0 -0.26470509895E+02 -0.42801650616E+01 -0.55126612445E+02  0.13922266736E+03  0.12500000000E+03 0.  0.
</event>
<event>
 5    0  0.5653588E-005  0.4547777E+03  0.7546771E-02  0.1026307E+00
         21   -1    0    0  502  501  0.00000000000E+00  0.00000000000E+00  0.27107631737E+04  0.27107631737E+04  0.00000000000E+00 0. -1.
         21   -1    0    0  501  502 -0.00000000000E+00 -0.00000000000E+00 -0.76296877736E+02  0.76296877736E+02  0.00000000000E+00 0. -1.
         25    1    1    2    0    0  0.16006317520E+03  0.74924962748E+02  0.41324866519E+03  0.46651198203E+03  0.12500000000E+03 0.  0.
         25    1    1    2    0    0  0.86485045221E+02  0.19260043758E+03  0.50113718535E+03  0.55797676488E+03  0.12500000000E+03 0.  0.
         25    1    1    2    0    0 -0.24654822042E+03 -0.26752540033E+03  0.17200804454E+04  0.17625713045E+04  0.12500000000E+03 0.  0.
</event>
<event>
 5    0  0.5653588E-005  0.2652861E+03  0.7546771E-02  0.1104008E+00
         21   -1    0    0  502  501  0.00000000000E+00  0.00000000000E+00  0.24593700689E+03  0.24593700689E+03  0.00000000000E+00 0. -1.
         21   -1    0    0  501  502 -0.00000000000E+00 -0.00000000000E+00 -0.28615749753E+03  0.28615749753E+03  0.00000000000E+00 0. -1.
         25    1    1    2    0    0  0.13768691292E+03 -0.83812308429E+02 -0.65957989947E+01  0.20408501562E+03  0.12500000000E+03 0.  0.
         25    1    1    2    0    0 -0.83451872050E+02  0.16541231761E+02  0.43856525282E+02  0.15743640655E+03  0.12500000000E+03 0.  0.
         25    1    1    2    0    0 -0.54235040875E+02  0.67271076668E+02 -0.77481216926E+02  0.17057308226E+03  0.12500000000E+03 0.  0.
</event>
<event>
 5    0  0.5659649E-005  0.2748070E+03  0.7546771E-02  0.1098560E+00
         21   -1    0    0  502  501  0.00000000000E+00  0.00000000000E+00  0.74815257311E+03  0.74815257311E+03  0.00000000000E+00 0. -1.
         21   -1    0    0  501  502 -0.00000000000E+00 -0.00000000000E+00 -0.10094047926E+03  0.10094047926E+03  0.00000000000E+00 0. -1.
         25    1    1    2    0    0  0.79450307775E+02 -0.68431289333E+02  0.33462397729E+02  0.16655306910E+03  0.12500000000E+03 0.  0.
         25    1    1    2    0    0  0.18169104589E+02  0.17322315939E+02  0.32569489166E+03  0.34976040577E+03  0.12500000000E+03 0.  0.
         25    1    1    2    0    0 -0.97619412365E+02  0.51108973394E+02  0.28805480446E+03  0.33277957751E+03  0.12500000000E+03 0.  0.
</event>
<event>
 5    0  0.5653588E-005  0.4570266E+03  0.7546771E-02  0.1025647E+00
         21   -1    0    0  502  501  0.00000000000E+00  0.00000000000E+00  0.19337068066E+04  0.19337068066E+04  0.00000000000E+00 0. -1.
         21   -1    0    0  501  502 -0.00000000000E+00 -0.00000000000E+00 -0.10801705211E+03  0.10801705211E+03  0.00000000000E+00 0. -1.
         25    1    1    2    0    0 -0.24198897677E+03  0.29185200303E+03  0.60371895686E+03  0.72376642325E+03  0.12500000000E+03 0.  0.
         25    1    1    2    0    0  0.14598253734E+03 -0.61353663226E+02  0.37044822112E+03  0.42181993519E+03  0.12500000000E+03 0.  0.
         25    1    1    2    0    0  0.96006439432E+02 -0.23049833980E+03  0.85152257650E+03  0.89613750025E+03  0.12500000000E+03 0.  0.
</event>
<event>
 5    0  0.5653588E-005  0.4012021E+03  0.7546771E-02  0.1043364E+00
         21   -1    0    0  502  501  0.00000000000E+00  0.00000000000E+00  0.14492670874E+03  0.14492670874E+03  0.00000000000E+00 0. -1.
         21   -1    0    0  501  502 -0.00000000000E+00 -0.00000000000E+00 -0.11106520511E+04  0.11106520511E+04  0.00000000000E+00 0. -1.
         25    1    1    2    0    0  0.46754355414E+02  0.13973658403E+03 -0.11338766812E+03  0.22404027752E+03  0.12500000000E+03 0.  0.
         25    1    1    2    0    0 -0.39691450472E+02 -0.23204576090E+03 -0.83322348862E+03  0.87481828306E+03  0.12500000000E+03 0.  0.
         25    1    1    2    0    0 -0.70629049424E+01  0.92309176862E+02 -0.19114185607E+02  0.15672019924E+03  0.12500000000E+03 0.  0.
</event>
<event>
 5    0  0.5653588E-005  0.2658880E+03  0.7546771E-02  0.1103656E+00
         21   -1    0    0  502  501  0.00000000000E+00  0.00000000000E+00  0.20900803572E+02  0.20900803572E+02  0.00000000000E+00 0.  1.
         21   -1    0    0  501  502 -0.00000000000E+00 -0.00000000000E+00 -0.33824738021E+04  0.33824738021E+04  0.00000000000E+00 0.  1.
         25    1    1    2    0    0 -0.58842075638E+02  0.16338710211E+01 -0.11077380767E+04  0.11163215066E+04  0.12500000000E+03 0.  0.
         25    1    1    2    0    0  0.98864271168E+02  0.89518032688E+02 -0.17235045789E+04  0.17331706943E+04  0.12500000000E+03 0.  0.
         25    1    1    2    0    0 -0.40022195530E+02 -0.91151903709E+02 -0.53033034294E+03  0.55388240478E+03  0.12500000000E+03 0.  0.
</event>
<event>
 5    0  0.5653588E-005  0.4669183E+03  0.7546771E-02  0.1022794E+00
         21   -1    0    0  502  501  0.00000000000E+00  0.00000000000E+00  0.32963196024E+04  0.32963196024E+04  0.00000000000E+00 0. -1.
         21   -1    0    0  501  502 -0.00000000000E+00 -0.00000000000E+00 -0.66138213716E+02  0.66138213716E+02  0.00000000000E+00 0. -1.
         25    1    1    2    0    0 -0.15374318613E+03  0.13337850482E+03  0.20378251597E+03  0.31397309860E+03  0.12500000000E+03 0.  0.
         25    1    1    2    0    0 -0.55197834729E+01 -0.73018422734E+02  0.89597868747E+03  0.90761498801E+03  0.12500000000E+03 0.  0.
         25    1    1    2    0    0  0.15926296960E+03 -0.60360082084E+02  0.21304201853E+04  0.21408697295E+04  0.12500000000E+03 0.  0.
</event>
<event>
 5    0  0.5653588E-005  0.2745577E+03  0.7546771E-02  0.1098699E+00
         21   -1    0    0  502  501  0.00000000000E+00  0.00000000000E+00  0.34479144648E+03  0.34479144648E+03  0.00000000000E+00 0.  1.
         21   -1    0    0  501  502 -0.00000000000E+00 -0.00000000000E+00 -0.21863055610E+03  0.21863055610E+03  0.00000000000E+00 0.  1.
         25    1    1    2    0    0 -0.99594942140E+02 -0.69698132254E+02  0.33100119548E+02  0.17747563228E+03  0.12500000000E+03 0.  0.
         25    1    1    2    0    0  0.18529965024E+02 -0.88729369614E+02  0.16051410300E+02  0.15523823114E+03  0.12500000000E+03 0.  0.
         25    1    1    2    0    0  0.81064977116E+02  0.15842750187E+03  0.77009360531E+02  0.23070813916E+03  0.12500000000E+03 0.  0.
</event>
<event>
 5    0  0.5653588E-005  0.2645331E+03  0.7546771E-02  0.1104450E+00
         21   -1    0    0  502  501  0.00000000000E+00  0.00000000000E+00  0.51543055570E+02  0.51543055570E+02  0.00000000000E+00 0.  1.
         21   -1    0    0  501  502 -0.00000000000E+00 -0.00000000000E+00 -0.13576562246E+04  0.13576562246E+04  0.00000000000E+00 0.  1.
         25    1    1    2    0    0 -0.80673351222E+01 -0.58356407984E+02 -0.28239860540E+03  0.31439549071E+03  0.12500000000E+03 0.  0.
         25    1    1    2    0    0 -0.98950941146E+02  0.83365772307E+02 -0.77448686022E+03  0.79510756342E+03  0.12500000000E+03 0.  0.
         25    1    1    2    0    0  0.10701827627E+03 -0.25009364323E+02 -0.24922770343E+03  0.29969622607E+03  0.12500000000E+03 0.  0.
</event>
<event>
 5    0  0.5653588E-005  0.2332360E+03  0.7546771E-02  0.1124383E+00
         21   -1    0    0  502  501  0.00000000000E+00  0.00000000000E+00  0.70955211578E+03  0.70955211578E+03  0.00000000000E+00 0.  1.
         21   -1    0    0  501  502 -0.00000000000E+00 -0.00000000000E+00 -0.76666711812E+02  0.76666711812E+02  0.00000000000E+00 0.  1.
         25    1    1    2    0    0  0.87822692215E+02  0.52865771463E+02  0.25997223935E+03  0.30613425208E+03  0.12500000000E+03 0.  0.
         25    1    1    2    0    0 -0.71900631643E+02 -0.61705433165E+02  0.28779784266E+03  0.32776494558E+03  0.12500000000E+03 0.  0.
         25    1    1    2    0    0 -0.15922060572E+02  0.88396617022E+01  0.85115321957E+02  0.15231962994E+03  0.12500000000E+03 0.  0.
</event>
<event>
 5    0  0.5653588E-005  0.2060227E+03  0.7546771E-02  0.1144755E+00
         21   -1    0    0  502  501  0.00000000000E+00  0.00000000000E+00  0.13511598684E+04  0.13511598684E+04  0.00000000000E+00 0. -1.
         21   -1    0    0  501  502 -0.00000000000E+00 -0.00000000000E+00 -0.31414011632E+02  0.31414011632E+02  0.00000000000E+00 0. -1.
         25    1    1    2    0    0 -0.24187648010E+01  0.53532477873E+02  0.60037018645E+03  0.61558178773E+03  0.12500000000E+03 0.  0.
         25    1    1    2    0    0 -0.28359367003E+02 -0.28294183619E+02  0.29700169802E+03  0.32471498757E+03  0.12500000000E+03 0.  0.
         25    1    1    2    0    0  0.30778131804E+02 -0.25238294253E+02  0.42237397225E+03  0.44227710469E+03  0.12500000000E+03 0.  0.
</event>
<event>
 5    0  0.5653588E-005  0.2969207E+03  0.7546771E-02  0.1086790E+00
         21   -1    0    0  502  501  0.00000000000E+00  0.00000000000E+00  0.15814046155E+03  0.15814046155E+03  0.00000000000E+00 0.  1.
         21   -1    0    0  501  502 -0.00000000000E+00 -0.00000000000E+00 -0.55749122760E+03  0.55749122760E+03  0.00000000000E+00 0.  1.
         25    1    1    2    0    0 -0.45336956757E+01 -0.15498251187E+03 -0.96175631353E+02  0.22116709848E+03  0.12500000000E+03 0.  0.
         25    1    1    2    0    0  0.45540868744E+02  0.18089782126E+03 -0.27913323556E+03  0.35824343072E+03  0.12500000000E+03 0.  0.
         25    1    1    2    0    0 -0.41007173068E+02 -0.25915309389E+02 -0.24041899143E+02  0.13622115995E+03  0.12500000000E+03 0.  0.
</event>
<event>
 5    0  0.5653588E-005  0.3625743E+03  0.7546771E-02  0.1057569E+00
         21   -1    0    0  502  501  0.00000000000E+00  0.00000000000E+00  0.17187180016E+03  0.17187180016E+03  0.00000000000E+00 0.  1.
         21   -1    0    0  501  502 -0.00000000000E+00 -0.00000000000E+00 -0.76487309491E+03  0.76487309491E+03  0.00000000000E+00 0.  1.
         25    1    1    2    0    0 -0.12759688488E+03 -0.67320436289E+02 -0.42215187645E+02  0.19549968860E+03  0.12500000000E+03 0.  0.
         25    1    1    2    0    0  0.20073168279E+03  0.18384937339E+02 -0.53785736391E+03  0.58783225355E+03  0.12500000000E+03 0.  0.
         25    1    1    2    0    0 -0.73134797909E+02  0.48935498950E+02 -0.12928743191E+02  0.15341295292E+03  0.12500000000E+03 0.  0.
</event>
<event>
 5    0  0.5814416E-005  0.3386068E+03  0.7546771E-02  0.1067391E+00
         21   -1    0    0  502  501  0.00000000000E+00  0.00000000000E+00  0.97699251298E+02  0.97699251298E+02  0.00000000000E+00 0.  1.
         21   -1    0    0  501  502 -0.00000000000E+00 -0.00000000000E+00 -0.11735457760E+04  0.11735457760E+04  0.00000000000E+00 0.  1.
         25    1    1    2    0    0  0.59914067745E+02  0.11111770832E+03 -0.93001180448E+02  0.20052695625E+03  0.12500000000E+03 0.  0.
         25    1    1    2    0    0  0.81521860788E+02 -0.17151416872E+02 -0.71094613606E+03  0.72664254848E+03  0.12500000000E+03 0.  0.
         25    1    1    2    0    0 -0.14143592853E+03 -0.93966291449E+02 -0.27189920815E+03  0.34407552252E+03  0.12500000000E+03 0.  0.
</event>
<event>
 5    0  0.5653588E-005  0.3258003E+03  0.7546771E-02  0.1073010E+00
         21   -1    0    0  502  501  0.00000000000E+00  0.00000000000E+00  0.72985826337E+03  0.72985826337E+03  0.00000000000E+00 0. -1.
         21   -1    0    0  501  502 -0.00000000000E+00 -0.00000000000E+00 -0.14543350222E+03  0.14543350222E+03  0.00000000000E+00 0. -1.
         25    1    1    2    0    0 -0.61031575659E+02 -0.17730113343E+03  0.46494106326E+03  0.51667759526E+03  0.12500000000E+03 0.  0.
         25    1    1    2    0    0  0.48251507715E+02  0.15268079460E+03  0.10799215027E+03  0.23005855245E+03  0.12500000000E+03 0.  0.
         25    1    1    2    0    0  0.12780067944E+02  0.24620338832E+02  0.11491547626E+02  0.12855561788E+03  0.12500000000E+03 0.  0.
</event>
<event>
 5    0  0.5653588E-005  0.3002996E+03  0.7546771E-02  0.1085091E+00
         21   -1    0    0  502  501  0.00000000000E+00  0.00000000000E+00  0.16988934936E+03  0.16988934936E+03  0.00000000000E+00 0. -1.
         21   -1    0    0  501  502 -0.00000000000E+00 -0.00000000000E+00 -0.53081532002E+03  0.53081532002E+03  0.00000000000E+00 0. -1.
         25    1    1    2    0    0  0.96263875686E+02 -0.14865217366E+03 -0.93993803251E+02  0.23627111026E+03  0.12500000000E+03 0.  0.
         25    1    1    2    0    0  0.63275817980E+02  0.58436382483E+02 -0.15102478233E+03  0.21413109260E+03  0.12500000000E+03 0.  0.
         25    1    1    2    0    0 -0.15953969367E+03  0.90215791176E+02 -0.11590738508E+03  0.25030246653E+03  0.12500000000E+03 0.  0.
</event>
<event>
 5    0  0.5653588E-005  0.2448184E+03  0.7546771E-02  0.1116624E+00
         21   -1    0    0  502  501  0.00000000000E+00  0.00000000000E+00  0.16387665470E+04  0.16387665470E+04  0.00000000000E+00 0. -1.
         21   -1    0    0  501  502 -0.00000000000E+00 -0.00000000000E+00 -0.36573884566E+02  0.36573884566E+02  0.00000000000E+00 0. -1.
         25    1    1    2    0    0 -0.51545671079E+02 -0.63732953163E+02  0.49143224111E+03  0.51366282046E+03  0.12500000000E+03 0.  0.
         25    1    1    2    0    0 -0.11265941688E+02  0.77561765111E+02  0.25631160115E+03  0.29574209327E+03  0.12500000000E+03 0.  0.
         25    1    1    2    0    0  0.62811612767E+02 -0.13828811948E+02  0.85444882014E+03  0.86593551780E+03  0.12500000000E+03 0.  0.
</event>
<event>
 5    0  0.5653588E-005  0.4726557E+03  0.7546771E-02  0.1021173E+00
         21   -1    0    0  502  501  0.00000000000E+00  0.00000000000E+00  0.47508637103E+03  0.47508637103E+03  0.00000000000E+00 0. -1.
         21   -1    0    0  501  502 -0.00000000000E+00 -0.00000000000E+00 -0.47023748463E+03  0.47023748463E+03  0.00000000000E+00 0. -1.
         25    1    1    2    0    0 -0.10815382012E+01 -0.13562639821E+03 -0.49249334849E+02  0.19090884369E+03  0.12500000000E+03 0.  0.
         25    1    1    2    0    0 -0.13813651608E+03  0.32319354328E+03  0.22828683295E+03  0.43735070778E+03  0.12500000000E+03 0.  0.
         25    1    1    2    0    0  0.13921805428E+03 -0.18756714507E+03 -0.17418861170E+03  0.31706430419E+03  0.12500000000E+03 0.  0.
</event>
<event>
 5    0  0.5653588E-005  0.3385950E+03  0.7546771E-02  0.1067396E+00
         21   -1    0    0  502  501  0.00000000000E+00  0.00000000000E+00  0.72023718672E+02  0.72023718672E+02  0.00000000000E+00 0. -1.
         21   -1    0    0  501  502 -0.00000000000E+00 -0.00000000000E+00 -0.15917893402E+04  0.15917893402E+04  0.00000000000E+00 0. -1.
         25    1    1    2    0    0  0.14244588245E+03  0.43853997145E+02 -0.75816238882E+03  0.78271911330E+03  0.12500000000E+03 0.  0.
         25    1    1    2    0    0  0.21720308088E+02 -0.84844699047E+02 -0.59055832914E+03  0.60996273235E+03  0.12500000000E+03 0.  0.
         25    1    1    2    0    0 -0.16416619054E+03  0.40990701902E+02 -0.17104490361E+03  0.27113121327E+03  0.12500000000E+03 0.  0.
</event>
<event>
 5    0  0.5653588E-005  0.2888587E+03  0.7546771E-02  0.1090947E+00
         21   -1    0    0  502  501  0.00000000000E+00  0.00000000000E+00  0.10454500592E+03  0.10454500592E+03  0.00000000000E+00 0.  1.
         21   -1    0    0  501  502 -0.00000000000E+00 -0.00000000000E+00 -0.79811905710E+03  0.79811905710E+03  0.00000000000E+00 0.  1.
         25    1    1    2    0    0  0.80426681968E+02  0.80939069725E+02 -0.32956053903E+03  0.37047905888E+03  0.12500000000E+03 0.  0.
         25    1    1    2    0    0  0.12421958963E+02  0.36364948692E+02 -0.13973550493E+02  0.13151796330E+03  0.12500000000E+03 0.  0.
         25    1    1    2    0    0 -0.92848640930E+02 -0.11730401842E+03 -0.35003996165E+03  0.40066704084E+03  0.12500000000E+03 0.  0.
</event>
<event>
 5    0  0.5653588E-005  0.3545704E+03  0.7546771E-02  0.1060755E+00
         21   -1    0    0  502  501  0.00000000000E+00  0.00000000000E+00  0.97287805946E+02  0.97287805946E+02  0.00000000000E+00 0. -1.
         21   -1    0    0  501  502 -0.00000000000E+00 -0.00000000000E+00 -0.12922501281E+04  0.12922501281E+04  0.00000000000E+00 0. -1.
         25    1    1    2    0    0  0.54971173727E+02  0.22070874881E+03 -0.17091599953E+03  0.31075949002E+03  0.12500000000E+03 0.  0.
         25    1    1    2    0    0 -0.15042820501E+02 -0.10172741656E+03 -0.46804254338E+03  0.49524092737E+03  0.12500000000E+03 0.  0.
         25    1    1    2    0    0 -0.39928353226E+02 -0.11898133225E+03 -0.55600377926E+03  0.58353751667E+03  0.12500000000E+03 0.  0.
</event>
<event>
 5    0  0.7068692E-005  0.3090667E+03  0.7546771E-02  0.1080794E+00
         21   -1    0    0  502  501  0.00000000000E+00  0.00000000000E+00  0.18640678340E+03  0.18640678340E+03  0.00000000000E+00 0.  1.
         21   -1    0    0  501  502 -0.00000000000E+00 -0.00000000000E+00 -0.51243949405E+03  0.51243949405E+03  0.00000000000E+00 0.  1.
         25    1    1    2    0    0 -0.10851491125E+03 -0.55671419797E+02 -0.19153532690E+03  0.25920180246E+03  0.12500000000E+03 0.  0.
         25    1    1    2    0    0  0.68353921066E+01 -0.44823045099E+02 -0.19878342412E+03  0.23915617839E+03  0.12500000000E+03 0.  0.
         25    1    1    2    0    0  0.10167951914E+03  0.10049446490E+03  0.64286040368E+02  0.20048829660E+03  0.12500000000E+03 0.  0.
</event>
<event>
 5    0  0.5653588E-005  0.3011462E+03  0.7546771E-02  0.1084669E+00
         21   -1    0    0  502  501  0.00000000000E+00  0.00000000000E+00  0.79873266345E+03  0.79873266345E+03  0.00000000000E+00 0. -1.
         21   -1    0    0  501  502 -0.00000000000E+00 -0.00000000000E+00 -0.11354118641E+03  0.11354118641E+03  0.00000000000E+00 0. -1.
         25    1    1    2    0    0 -0.76429017446E+02  0.42061387686E+02  0.27464865834E+02  0.15488664854E+03  0.12500000000E+03 0.  0.
         25    1    1    2    0    0 -0.44943191516E-01  0.30212613482E+02  0.54229408513E+03  0.55733354358E+03  0.12500000000E+03 0.  0.
         25    1    1    2    0    0  0.76473960637E+02 -0.72274001169E+02  0.11543252608E+03  0.20005365774E+03  0.12500000000E+03 0.  0.
</event>
<event>
 5    0  0.5653588E-005  0.2724375E+03  0.7546771E-02  0.1099893E+00
         21   -1    0    0  502  501  0.00000000000E+00  0.00000000000E+00  0.17021091223E+03  0.17021091223E+03  0.00000000000E+00 0.  1.
         21   -1    0    0  501  502 -0.00000000000E+00 -0.00000000000E+00 -0.43606008543E+03  0.43606008543E+03  0.00000000000E+00 0.  1.
         25    1    1    2    0    0  0.49240364257E+02 -0.52545993347E+02 -0.17424913391E+03  0.22621550689E+03  0.12500000000E+03 0.  0.
         25    1    1    2    0    0 -0.73031835114E+02 -0.88730041224E+02 -0.84814659398E+02  0.18980304424E+03  0.12500000000E+03 0.  0.
         25    1    1    2    0    0  0.23791470857E+02  0.14127603457E+03 -0.67853798889E+01  0.19025244653E+03  0.12500000000E+03 0.  0.
</event>
<event>
 5    0  0.6928269E-005  0.2764392E+03  0.7546771E-02  0.1097650E+00
         21   -1    0    0  502  501  0.00000000000E+00  0.00000000000E+00  0.34581514276E+03  0.34581514276E+03  0.00000000000E+00 0. -1.
         21   -1    0    0  501  502 -0.00000000000E+00 -0.00000000000E+00 -0.22098114716E+03  0.22098114716E+03  0.00000000000E+00 0. -1.
         25    1    1    2    0    0 -0.28477134632E+02 -0.11246074205E+03  0.41160597178E+02  0.17543534552E+03  0.12500000000E+03 0.  0.
         25    1    1    2    0    0 -0.45559079535E+02 -0.46011187658E+02  0.10456426932E+03  0.17536061569E+03  0.12500000000E+03 0.  0.
         25    1    1    2    0    0  0.74036214167E+02  0.15847192970E+03 -0.20890870894E+02  0.21600032870E+03  0.12500000000E+03 0.  0.
</event>
<event>
 5    0  0.5653588E-005  0.2641982E+03  0.7546771E-02  0.1104647E+00
         21   -1    0    0  502  501  0.00000000000E+00  0.00000000000E+00  0.10697569294E+03  0.10697569294E+03  0.00000000000E+00 0.  1.
         21   -1    0    0  501  502 -0.00000000000E+00 -0.00000000000E+00 -0.65249090019E+03  0.65249090019E+03  0.00000000000E+00 0.  1.
         25    1    1    2    0    0  0.79613102395E+02 -0.21938974212E+02 -0.10109502587E+03  0.18073397278E+03  0.12500000000E+03 0.  0.
         25    1    1    2    0    0 -0.95501593712E+01  0.12716290870E+03 -0.14291554675E+03  0.22871699630E+03  0.12500000000E+03 0.  0.
         25    1    1    2    0    0 -0.70062943024E+02 -0.10522393449E+03 -0.30150463462E+03  0.35001562404E+03  0.12500000000E+03 0.  0.
</event>
<event>
 5    0  0.5653588E-005  0.2782675E+03  0.7546771E-02  0.1096639E+00
         21   -1    0    0  502  501  0.00000000000E+00  0.00000000000E+00  0.44141031217E+03  0.44141031217E+03  0.00000000000E+00 0. -1.
         21   -1    0    0  501  502 -0.00000000000E+00 -0.00000000000E+00 -0.17542136709E+03  0.17542136709E+03  0.00000000000E+00 0. -1.
         25    1    1    2    0    0 -0.61003626534E+01  0.45044753890E+02 -0.39496835101E+02  0.13874885319E+03  0.12500000000E+03 0.  0.
         25    1    1    2    0    0 -0.54159340157E+02  0.81000623521E+02  0.22223849252E+03  0.27296388533E+03  0.12500000000E+03 0.  0.
         25    1    1    2    0    0  0.60259702810E+02 -0.12604537741E+03  0.83247287670E+02  0.20511894075E+03  0.12500000000E+03 0.  0.
</event>
<event>
 5    0  0.5653588E-005  0.3020300E+03  0.7546771E-02  0.1084230E+00
         21   -1    0    0  502  501  0.00000000000E+00  0.00000000000E+00  0.11169254143E+04  0.11169254143E+04  0.00000000000E+00 0. -1.
         21   -1    0    0  501  502 -0.00000000000E+00 -0.00000000000E+00 -0.81672549686E+02  0.81672549686E+02  0.00000000000E+00 0. -1.
         25    1    1    2    0    0 -0.15868280645E+03 -0.38860466687E+01  0.51820149986E+03  0.55619522551E+03  0.12500000000E+03 0.  0.
         25    1    1    2    0    0  0.20719129345E+03  0.91948771139E+01  0.28159890282E+03  0.37139698426E+03  0.12500000000E+03 0.  0.
         25    1    1    2    0    0 -0.48508486997E+02 -0.53088304452E+01  0.23545246195E+03  0.27100575424E+03  0.12500000000E+03 0.  0.
</event>
<event>
 5    0  0.5653588E-005  0.3880204E+03  0.7546771E-02  0.1048009E+00
         21   -1    0    0  502  501  0.00000000000E+00  0.00000000000E+00  0.63272006281E+03  0.63272006281E+03  0.00000000000E+00 0.  1.
         21   -1    0    0  501  502 -0.00000000000E+00 -0.00000000000E+00 -0.23795650499E+03  0.23795650499E+03  0.00000000000E+00 0.  1.
         25    1    1    2    0    0  0.55415934202E+02  0.52451234140E+02 -0.98640865981E+02  0.17657032074E+03  0.12500000000E+03 0.  0.
         25    1    1    2    0    0 -0.16740525877E+03 -0.46281173258E+02  0.48010844194E+03  0.52563826315E+03  0.12500000000E+03 0.  0.
         25    1    1    2    0    0  0.11198932457E+03 -0.61700608818E+01  0.13295981863E+02  0.16846798391E+03  0.12500000000E+03 0.  0.
</event>
<event>
 5    0  0.5653588E-005  0.2719128E+03  0.7546771E-02  0.1100190E+00
         21   -1    0    0  502  501  0.00000000000E+00  0.00000000000E+00  0.78208772684E+03  0.78208772684E+03  0.00000000000E+00 0.  1.
         21   -1    0    0  501  502 -0.00000000000E+00 -0.00000000000E+00 -0.94537470863E+02  0.94537470863E+02  0.00000000000E+00 0.  1.
         25    1    1    2    0    0 -0.31484840058E+02  0.92300537549E+01  0.14763039334E+03  0.19620454144E+03  0.12500000000E+03 0.  0.
         25    1    1    2    0    0  0.16775324723E+03 -0.29094953490E+02  0.18977852834E+03  0.28395168267E+03  0.12500000000E+03 0.  0.
         25    1    1    2    0    0 -0.13626840717E+03  0.19864899735E+02  0.35014133430E+03  0.39646897359E+03  0.12500000000E+03 0.  0.
</event>
<event>
 5    0  0.5653588E-005  0.5462933E+03  0.7546771E-02  0.1002356E+00
         21   -1    0    0  502  501  0.00000000000E+00  0.00000000000E+00  0.10986890389E+04  0.10986890389E+04  0.00000000000E+00 0.  1.
         21   -1    0    0  501  502 -0.00000000000E+00 -0.00000000000E+00 -0.27162954921E+03  0.27162954921E+03  0.00000000000E+00 0.  1.
         25    1    1    2    0    0 -0.26187523709E+03 -0.17676027026E+03  0.15431681060E+03  0.37317758638E+03  0.12500000000E+03 0.  0.
         25    1    1    2    0    0 -0.72488028048E+02 -0.15449962933E+03  0.71240584651E+02  0.22321485295E+03  0.12500000000E+03 0.  0.
         25    1    1    2    0    0  0.33436326514E+03  0.33125989959E+03  0.60150209446E+03  0.77392614880E+03  0.12500000000E+03 0.  0.
</event>
<event>
 5    0  0.5653588E-005  0.3400356E+03  0.7546771E-02  0.1066781E+00
         21   -1    0    0  502  501  0.00000000000E+00  0.00000000000E+00  0.46508068599E+03  0.46508068599E+03  0.00000000000E+00 0.  1.
         21   -1    0    0  501  502 -0.00000000000E+00 -0.00000000000E+00 -0.24861113064E+03  0.24861113064E+03  0.00000000000E+00 0.  1.
         25    1    1    2    0    0  0.11231597666E+03 -0.87116717323E+02 -0.39940645262E+02  0.19345401571E+03  0.12500000000E+03 0.  0.
         25    1    1    2    0    0  0.10813631989E+03  0.10944983316E+03  0.11449669703E+03  0.22892623984E+03  0.12500000000E+03 0.  0.
         25    1    1    2    0    0 -0.22045229655E+03 -0.22333115835E+02  0.14191350359E+03  0.29131156108E+03  0.12500000000E+03 0.  0.
</event>
<event>
 5    0  0.5653588E-005  0.2588288E+03  0.7546771E-02  0.1107849E+00
         21   -1    0    0  502  501  0.00000000000E+00  0.00000000000E+00  0.82554526778E+03  0.82554526778E+03  0.00000000000E+00 0.  1.
         21   -1    0    0  501  502 -0.00000000000E+00 -0.00000000000E+00 -0.81149204748E+02  0.81149204748E+02  0.00000000000E+00 0.  1.
         25    1    1    2    0    0 -0.97653145529E+02  0.73248046824E+02  0.21188164611E+03  0.27462746613E+03  0.12500000000E+03 0.  0.
         25    1    1    2    0    0 -0.49074221465E+02 -0.33584564346E+02  0.27593819793E+03  0.30871198754E+03  0.12500000000E+03 0.  0.
         25    1    1    2    0    0  0.14672736699E+03 -0.39663482477E+02  0.25657621899E+03  0.32335501886E+03  0.12500000000E+03 0.  0.
</event>
<event>
 5    0  0.5653588E-005  0.2260980E+03  0.7546771E-02  0.1129417E+00
         21   -1    0    0  502  501  0.00000000000E+00  0.00000000000E+00  0.15542888397E+04  0.15542888397E+04  0.00000000000E+00 0. -1.
         21   -1    0    0  501  502 -0.00000000000E+00 -0.00000000000E+00 -0.32889844827E+02  0.32889844827E+02  0.00000000000E+00 0. -1.
         25    1    1    2    0    0  0.22816595016E+01  0.10984534609E+02  0.32188009699E+03  0.34548178362E+03  0.12500000000E+03 0.  0.
         25    1    1    2    0    0 -0.36146807909E+01  0.29950012394E+02  0.95878982031E+03  0.96737427539E+03  0.12500000000E+03 0.  0.
         25    1    1    2    0    0  0.13330212893E+01 -0.40934547003E+02  0.24072907757E+03  0.27432262552E+03  0.12500000000E+03 0.  0.
</event>
<event>
 5    0  0.5653588E-005  0.2583962E+03  0.7546771E-02  0.1108111E+00
         21   -1    0    0  502  501  0.00000000000E+00  0.00000000000E+00  0.23437456850E+03  0.23437456850E+03  0.00000000000E+00 0.  1.
         21   -1    0    0  501  502 -0.00000000000E+00 -0.00000000000E+00 -0.28487987882E+03  0.28487987882E+03  0.00000000000E+00 0.  1.
         25    1    1    2    0    0  0.63756220371E+02 -0.11760760844E+03  0.68062880871E+02  0.19533038921E+03  0.12500000000E+03 0.  0.
         25    1    1    2    0    0 -0.74214197621E+02  0.87819251360E+02 -0.45907162980E+02  0.17593304309E+03  0.12500000000E+03 0.  0.
         25    1    1    2    0    0  0.10457977251E+02  0.29788357076E+02 -0.72661028209E+02  0.14799101502E+03  0.12500000000E+03 0.  0.
</event>
<event>
 5    0  0.5653588E-005  0.2044452E+03  0.7546771E-02  0.1146042E+00
         21   -1    0    0  502  501  0.00000000000E+00  0.00000000000E+00  0.47848040672E+03  0.47848040672E+03  0.00000000000E+00 0.  1.
         21   -1    0    0  501  502 -0.00000000000E+00 -0.00000000000E+00 -0.87355420493E+02  0.87355420493E+02  0.00000000000E+00 0.  1.
         25    1    1    2    0    0 -0.56932932523E+02 -0.37542453242E+02  0.13027362938E+03  0.19299485256E+03  0.12500000000E+03 0.  0.
         25    1    1    2    0    0  0.55951425574E+01  0.31141112693E+02  0.10360234240E+03  0.16540713368E+03  0.12500000000E+03 0.  0.
         25    1    1    2    0    0  0.51337789966E+02  0.64013405491E+01  0.15724901444E+03  0.20743384098E+03  0.12500000000E+03 0.  0.
</event>
<event>
 5    0  0.6308454E-005  0.3796521E+03  0.7546771E-02  0.1051062E+00
         21   -1    0    0  502  501  0.00000000000E+00  0.00000000000E+00  0.41154724038E+03  0.41154724038E+03  0.00000000000E+00 0.  1.
         21   -1    0    0  501  502 -0.00000000000E+00 -0.00000000000E+00 -0.35022888360E+03  0.35022888360E+03  0.00000000000E+00 0.  1.
         25    1    1    2    0    0  0.84284563159E+02  0.52264818247E+02 -0.18357200338E+03  0.24322660060E+03  0.12500000000E+03 0.  0.
         25    1    1    2    0    0  0.46528717716E+01 -0.15686902248E+03 -0.12672217660E+02  0.20103513257E+03  0.12500000000E+03 0.  0.
         25    1    1    2    0    0 -0.88937434931E+02  0.10460420423E+03  0.25756257782E+03  0.31751439081E+03  0.12500000000E+03 0.  0.
</event>
<event>
 5    0  0.5653588E-005  0.1158603E+04  0.7546771E-02  0.9149883E-01
         21   -1    0    0  502  501  0.00000000000E+00  0.00000000000E+00  0.14755954695E+04  0.14755954695E+04  0.00000000000E+00 0. -1.
         21   -1    0    0  501  502 -0.00000000000E+00 -0.00000000000E+00 -0.90970849347E+03  0.90970849347E+03  0.00000000000E+00 0. -1.
         25    1    1    2    0    0 -0.45460691256E+02  0.62061824257E+02  0.23416469178E+02  0.14863268654E+03  0.12500000000E+03 0.  0.
         25    1    1    2    0    0 -0.97440034190E+03 -0.92917988628E+02 -0.14876656111E+03  0.99792097313E+03  0.12500000000E+03 0.  0.
         25    1    1    2    0    0  0.10198610332E+04  0.30856164371E+02  0.69123706800E+03  0.12387503033E+04  0.12500000000E+03 0.  0.
</event>
<event>
 5    0  0.5653588E-005  0.2071135E+03  0.7546771E-02  0.1143872E+00
         21   -1    0    0  502  501  0.00000000000E+00  0.00000000000E+00  0.26927085468E+02  0.26927085468E+02  0.00000000000E+00 0.  1.
         21   -1    0    0  501  502 -0.00000000000E+00 -0.00000000000E+00 -0.15930421773E+04  0.15930421773E+04  0.00000000000E+00 0.  1.
         25    1    1    2    0    0 -0.30596421643E+02 -0.48707332069E+02 -0.65370118695E+03  0.66802603769E+03  0.12500000000E+03 0.  0.
         25    1    1    2    0    0 -0.21604369815E+02 -0.11658023615E+01 -0.40598675089E+03  0.42534497739E+03  0.12500000000E+03 0.  0.
         25    1    1    2    0    0  0.52200791458E+02  0.49873134430E+02 -0.50642715397E+03  0.52659824766E+03  0.12500000000E+03 0.  0.
</event>
<event>
 5    0  0.5653588E-005  0.2379663E+03  0.7546771E-02  0.1121155E+00
         21   -1    0    0  502  501  0.00000000000E+00  0.00000000000E+00  0.14562297148E+03  0.14562297148E+03  0.00000000000E+00 0.  1.
         21   -1    0    0  501  502 -0.00000000000E+00 -0.00000000000E+00 -0.38886697940E+03  0.38886697940E+03  0.00000000000E+00 0.  1.
         25    1    1    2    0    0 -0.56544817764E+02 -0.17357445850E+02 -0.12001694041E+03  0.18310560704E+03  0.12500000000E+03 0.  0.
         25    1    1    2    0    0  0.18616262969E+02  0.27729720291E+02 -0.16876815482E+03  0.21265745394E+03  0.12500000000E+03 0.  0.
         25    1    1    2    0    0  0.37928554795E+02 -0.10372274441E+02  0.45541087316E+02  0.13872688989E+03  0.12500000000E+03 0.  0.
</event>
<event>
 5    0  0.5653588E-005  0.2549558E+03  0.7546771E-02  0.1110212E+00
         21   -1    0    0  502  501  0.00000000000E+00  0.00000000000E+00  0.27149554534E+03  0.27149554534E+03  0.00000000000E+00 0.  1.
         21   -1    0    0  501  502 -0.00000000000E+00 -0.00000000000E+00 -0.23942365164E+03  0.23942365164E+03  0.00000000000E+00 0.  1.
         25    1    1    2    0    0  0.11616416147E+03  0.64471269517E+02  0.11335140079E+03  0.21476544662E+03  0.12500000000E+03 0.  0.
         25    1    1    2    0    0 -0.46304656802E+02 -0.19729587169E+02 -0.37592954901E+02  0.13989856364E+03  0.12500000000E+03 0.  0.
         25    1    1    2    0    0 -0.69859504664E+02 -0.44741682348E+02 -0.43686552192E+02  0.15625518671E+03  0.12500000000E+03 0.  0.
</event>
<event>
 5    0  0.5874722E-005  0.3298746E+03  0.7546771E-02  0.1071192E+00
         21   -1    0    0  502  501  0.00000000000E+00  0.00000000000E+00  0.37401716468E+03  0.37401716468E+03  0.00000000000E+00 0. -1.
         21   -1    0    0  501  502 -0.00000000000E+00 -0.00000000000E+00 -0.29094187508E+03  0.29094187508E+03  0.00000000000E+00 0. -1.
         25    1    1    2    0    0  0.12868314140E+03 -0.81635614896E+02 -0.32907659332E+02  0.19982902327E+03  0.12500000000E+03 0.  0.
         25    1    1    2    0    0  0.39461503949E+02  0.46110631355E+01  0.18918635847E+03  0.23020632143E+03  0.12500000000E+03 0.  0.
         25    1    1    2    0    0 -0.16814464535E+03  0.77024551761E+02 -0.73203409529E+02  0.23492369506E+03  0.12500000000E+03 0.  0.
</event>
<event>
 5    0  0.5653588E-005  0.3815435E+03  0.7546771E-02  0.1050365E+00
         21   -1    0    0  502  501  0.00000000000E+00  0.00000000000E+00  0.24284997436E+03  0.24284997436E+03  0.00000000000E+00 0. -1.
         21   -1    0    0  501  502 -0.00000000000E+00 -0.00000000000E+00 -0.59944601597E+03  0.59944601597E+03  0.00000000000E+00 0. -1.
         25    1    1    2    0    0 -0.20204563850E+02 -0.23822295258E+01  0.84660464361E+02  0.15233612061E+03  0.12500000000E+03 0.  0.
         25    1    1    2    0    0  0.78775692381E+02 -0.77156169460E+02 -0.49461401130E+03  0.52194511624E+03  0.12500000000E+03 0.  0.
         25    1    1    2    0    0 -0.58571128531E+02  0.79538398986E+02  0.53357505321E+02  0.16801475347E+03  0.12500000000E+03 0.  0.
</event>
<event>
 5    0  0.5653588E-005  0.2333611E+03  0.7546771E-02  0.1124296E+00
         21   -1    0    0  502  501  0.00000000000E+00  0.00000000000E+00  0.10290095394E+04  0.10290095394E+04  0.00000000000E+00 0. -1.
         21   -1    0    0  501  502 -0.00000000000E+00 -0.00000000000E+00 -0.52922143631E+02  0.52922143631E+02  0.00000000000E+00 0. -1.
         25    1    1    2    0    0 -0.89984117554E+02 -0.30212233715E+02  0.43592592584E+03  0.46332098301E+03  0.12500000000E+03 0.  0.
         25    1    1    2    0    0  0.20410684423E+02  0.17116324405E+02  0.39170472059E+03  0.41202809702E+03  0.12500000000E+03 0.  0.
         25    1    1    2    0    0  0.69573433131E+02  0.13095909311E+02  0.14845674933E+03  0.20658260299E+03  0.12500000000E+03 0.  0.
</event>
<event>
 5    0  0.5653588E-005  0.2821304E+03  0.7546771E-02  0.1094531E+00
         21   -1    0    0  502  501  0.00000000000E+00  0.00000000000E+00  0.71359483858E+02  0.71359483858E+02  0.00000000000E+00 0. -1.
         21   -1    0    0  501  502 -0.00000000000E+00 -0.00000000000E+00 -0.11154445813E+04  0.11154445813E+04  0.00000000000E+00 0. -1.
         25    1    1    2    0    0  0.74267944425E+02 -0.47855044410E+02 -0.35042352080E+03  0.38239701460E+03  0.12500000000E+03 0.  0.
         25    1    1    2    0    0 -0.12796418648E+03 -0.78090634055E+02 -0.21135400050E+03  0.28769514017E+03  0.12500000000E+03 0.  0.
         25    1    1    2    0    0  0.53696242056E+02  0.12594567847E+03 -0.48230757612E+03  0.51671191037E+03  0.12500000000E+03 0.  0.
</event>
<event>
 5    0  0.6605658E-005  0.2734540E+03  0.7546771E-02  0.1099319E+00
         21   -1    0    0  502  501  0.00000000000E+00  0.00000000000E+00  0.63658032880E+03  0.63658032880E+03  0.00000000000E+00 0.  1.
         21   -1    0    0  501  502 -0.00000000000E+00 -0.00000000000E+00 -0.11746682697E+03  0.11746682697E+03  0.00000000000E+00 0.  1.
         25    1    1    2    0    0 -0.37100795886E+02  0.70168076977E+02  0.94203192703E+02  0.17549720681E+03  0.12500000000E+03 0.  0.
         25    1    1    2    0    0 -0.12108641051E+03 -0.43869552320E+01  0.24435594689E+03  0.30002665376E+03  0.12500000000E+03 0.  0.
         25    1    1    2    0    0  0.15818720639E+03 -0.65781121745E+02  0.18055436224E+03  0.27852329520E+03  0.12500000000E+03 0.  0.
</event>
<event>
 5    0  0.5653588E-005  0.2319917E+03  0.7546771E-02  0.1125246E+00
         21   -1    0    0  502  501  0.00000000000E+00  0.00000000000E+00  0.79242302965E+03  0.79242302965E+03  0.00000000000E+00 0. -1.
         21   -1    0    0  501  502 -0.00000000000E+00 -0.00000000000E+00 -0.67918438842E+02  0.67918438842E+02  0.00000000000E+00 0. -1.
         25    1    1    2    0    0  0.96848330204E+02  0.12166027056E+02  0.39204401273E+03  0.42290793229E+03  0.12500000000E+03 0.  0.
         25    1    1    2    0    0 -0.15611771197E+02  0.26052608636E+02  0.12742281959E+03  0.18106363735E+03  0.12500000000E+03 0.  0.
         25    1    1    2    0    0 -0.81236559007E+02 -0.38218635692E+02  0.20503775849E+03  0.25636989886E+03  0.12500000000E+03 0.  0.
</event>
<event>
 5    0  0.5653588E-005  0.6538708E+03  0.7546771E-02  0.9799543E-01
         21   -1    0    0  502  501  0.00000000000E+00  0.00000000000E+00  0.94646677071E+03  0.94646677071E+03  0.00000000000E+00 0. -1.
         21   -1    0    0  501  502 -0.00000000000E+00 -0.00000000000E+00 -0.45172950240E+03  0.45172950240E+03  0.00000000000E+00 0. -1.
         25    1    1    2    0    0 -0.48432857578E+03  0.18520298943E+03 -0.30578097093E+02  0.53426055127E+03  0.12500000000E+03 0.  0.
         25    1    1    2    0    0  0.30256995623E+03 -0.29374368158E+03  0.34663320303E+03  0.56001205909E+03  0.12500000000E+03 0.  0.
         25    1    1    2    0    0  0.18175861956E+03  0.10854069215E+03  0.17868216237E+03  0.30392366276E+03  0.12500000000E+03 0.  0.
</event>
<event>
 5    0  0.5653588E-005  0.3002269E+03  0.7546771E-02  0.1085127E+00
         21   -1    0    0  502  501  0.00000000000E+00  0.00000000000E+00  0.16090154663E+04  0.16090154663E+04  0.00000000000E+00 0.  1.
         21   -1    0    0  501  502 -0.00000000000E+00 -0.00000000000E+00 -0.56019478050E+02  0.56019478050E+02  0.00000000000E+00 0.  1.
         25    1    1    2    0    0 -0.90915350686E+02  0.25753378074E+02  0.40679034735E+03  0.43592685645E+03  0.12500000000E+03 0.  0.
         25    1    1    2    0    0  0.20677860959E+03  0.56788440190E+02  0.74928393184E+03  0.78932485760E+03  0.12500000000E+03 0.  0.
         25    1    1    2    0    0 -0.11586325891E+03 -0.82541818264E+02  0.39692170904E+03  0.43978323028E+03  0.12500000000E+03 0.  0.
</event>
<event>
 5    0  0.5653588E-005  0.3238237E+03  0.7546771E-02  0.1073903E+00
         21   -1    0    0  502  501  0.00000000000E+00  0.00000000000E+00  0.82349688586E+02  0.82349688586E+02  0.00000000000E+00 0.  1.
         21   -1    0    0  501  502 -0.00000000000E+00 -0.00000000000E+00 -0.12733721724E+04  0.12733721724E+04  0.00000000000E+00 0.  1.
         25    1    1    2    0    0  0.53316817998E+02  0.71964946918E+02 -0.50789151513E+02  0.16194497392E+03  0.12500000000E+03 0.  0.
         25    1    1    2    0    0 -0.93323372154E+02 -0.10544970246E+03 -0.41110362971E+03  0.45217262843E+03  0.12500000000E+03 0.  0.
         25    1    1    2    0    0  0.40006554155E+02  0.33484755544E+02 -0.72912970257E+03  0.74160425862E+03  0.12500000000E+03 0.  0.
</event>
<event>
 5    0  0.5653588E-005  0.3144702E+03  0.7546771E-02  0.1078223E+00
         21   -1    0    0  502  501  0.00000000000E+00  0.00000000000E+00  0.44843246275E+03  0.44843246275E+03  0.00000000000E+00 0. -1.
         21   -1    0    0  501  502 -0.00000000000E+00 -0.00000000000E+00 -0.22052706732E+03  0.22052706732E+03  0.00000000000E+00 0. -1.
         25    1    1    2    0    0  0.52232193531E+02  0.19183824492E+02  0.23198448290E+02  0.13877820134E+03  0.12500000000E+03 0.  0.
         25    1    1    2    0    0 -0.12198630512E+03  0.80431241007E+02  0.28045645985E+03  0.34004509853E+03  0.12500000000E+03 0.  0.
         25    1    1    2    0    0  0.69754111586E+02 -0.99615065499E+02 -0.75749512709E+02  0.19013623020E+03  0.12500000000E+03 0.  0.
</event>
<event>
 5    0  0.5653588E-005  0.4165493E+03  0.7546771E-02  0.1038195E+00
         21   -1    0    0  502  501  0.00000000000E+00  0.00000000000E+00  0.20687932211E+03  0.20687932211E+03  0.00000000000E+00 0. -1.
         21   -1    0    0  501  502 -0.00000000000E+00 -0.00000000000E+00 -0.83871767218E+03  0.83871767218E+03  0.00000000000E+00 0. -1.
         25    1    1    2    0    0  0.18589114757E+03  0.46513154086E+02 -0.51829751867E+03  0.56654771212E+03  0.12500000000E+03 0.  0.
         25    1    1    2    0    0 -0.15473490837E+03  0.49898651874E+02  0.86285205055E+02  0.22249248063E+03  0.12500000000E+03 0.  0.
         25    1    1    2    0    0 -0.31156239209E+02 -0.96411805960E+02 -0.19982603646E+03  0.25655680154E+03  0.12500000000E+03 0.  0.
</event>
<event>
 5    0  0.5653588E-005  0.2457031E+03  0.7546771E-02  0.1116051E+00
         21   -1    0    0  502  501  0.00000000000E+00  0.00000000000E+00  0.62522170991E+02  0.62522170991E+02  0.00000000000E+00 0. -1.
         21   -1    0    0  501  502 -0.00000000000E+00 -0.00000000000E+00 -0.96557732618E+03  0.96557732618E+03  0.00000000000E+00 0. -1.
         25    1    1    2    0    0  0.41130608993E+02  0.43832863194E+02 -0.44833370136E+03  0.46929857731E+03  0.12500000000E+03 0.  0.
         25    1    1    2    0    0 -0.90741421324E+02 -0.10103407231E+02 -0.11796867814E+03  0.19462192426E+03  0.12500000000E+03 0.  0.
         25    1    1    2    0    0  0.49610812331E+02 -0.33729455962E+02 -0.33675277569E+03  0.36417899560E+03  0.12500000000E+03 0.  0.
</event>
<event>
 5    0  0.5653588E-005  0.2783768E+03  0.7546771E-02  0.1096579E+00
         21   -1    0    0  502  501  0.00000000000E+00  0.00000000000E+00  0.30150335826E+03  0.30150335826E+03  0.00000000000E+00 0. -1.
         21   -1    0    0  501  502 -0.00000000000E+00 -0.00000000000E+00 -0.25702422641E+03  0.25702422641E+03  0.00000000000E+00 0. -1.
         25    1    1    2    0    0 -0.54010938366E+02 -0.15680504838E+03  0.83356496798E+02  0.22378183621E+03  0.12500000000E+03 0.  0.
         25    1    1    2    0    0  0.44505873713E+02  0.41258881209E+02 -0.78666148223E+02  0.15967601871E+03  0.12500000000E+03 0.  0.
         25    1    1    2    0    0  0.95050646532E+01  0.11554616717E+03  0.39788783279E+02  0.17506972976E+03  0.12500000000E+03 0.  0.
</event>
<event>
 5    0  0.5653588E-005  0.2277847E+03  0.7546771E-02  0.1128209E+00
         21   -1    0    0  502  501  0.00000000000E+00  0.00000000000E+00  0.81799351716E+02  0.81799351716E+02  0.00000000000E+00 0.  1.
         21   -1    0    0  501  502 -0.00000000000E+00 -0.00000000000E+00 -0.63430652818E+03  0.63430652818E+03  0.00000000000E+00 0.  1.
         25    1    1    2    0    0  0.79508054057E+01 -0.77241519204E+02 -0.32413887602E+03  0.35597819953E+03  0.12500000000E+03 0.  0.
         25    1    1    2    0    0 -0.34315375921E+02  0.51432634579E+02 -0.73242833730E+02  0.15751943885E+03  0.12500000000E+03 0.  0.
         25    1    1    2    0    0  0.26364570515E+02  0.25808884625E+02 -0.15512546672E+03  0.20260824151E+03  0.12500000000E+03 0.  0.
</event>
<event>
 5    0  0.5653588E-005  0.4070597E+03  0.7546771E-02  0.1041362E+00
         21   -1    0    0  502  501  0.00000000000E+00  0.00000000000E+00  0.12287567652E+04  0.12287567652E+04  0.00000000000E+00 0. -1.
         21   -1    0    0  501  502 -0.00000000000E+00 -0.00000000000E+00 -0.13484981364E+03  0.13484981364E+03  0.00000000000E+00 0. -1.
         25    1    1    2    0    0 -0.24509988507E+02 -0.15110167961E+03  0.99363765741E+03  0.10131008101E+04  0.12500000000E+03 0.  0.
         25    1    1    2    0    0 -0.10730539152E+02  0.13608913963E+03  0.11658828341E+03  0.21875380277E+03  0.12500000000E+03 0.  0.
         25    1    1    2    0    0  0.35240527659E+02  0.15012539976E+02 -0.16318989236E+02  0.13175196604E+03  0.12500000000E+03 0.  0.
</event>
<event>
 5    0  0.5653588E-005  0.3439330E+03  0.7546771E-02  0.1065133E+00
         21   -1    0    0  502  501  0.00000000000E+00  0.00000000000E+00  0.70490747492E+03  0.70490747492E+03  0.00000000000E+00 0.  1.
         21   -1    0    0  501  502 -0.00000000000E+00 -0.00000000000E+00 -0.16780914055E+03  0.16780914055E+03  0.00000000000E+00 0.  1.
         25    1    1    2    0    0 -0.43147569570E+02  0.67597205411E+02  0.33322251098E+03  0.36481959482E+03  0.12500000000E+03 0.  0.
         25    1    1    2    0    0 -0.32625980569E+02 -0.14246471653E+03 -0.56153608541E+02  0.20034689370E+03  0.12500000000E+03 0.  0.
         25    1    1    2    0    0  0.75773550139E+02  0.74867511115E+02  0.26002943193E+03  0.30755012696E+03  0.12500000000E+03 0.  0.
</event>
<event>
 5    0  0.5653588E-005  0.3171797E+03  0.7546771E-02  0.1076955E+00
         21   -1    0    0  502  501  0.00000000000E+00  0.00000000000E+00  0.38507047011E+03  0.38507047011E+03  0.00000000000E+00 0.  1.
         21   -1    0    0  501  502 -0.00000000000E+00 -0.00000000000E+00 -0.26125862673E+03  0.26125862673E+03  0.00000000000E+00 0.  1.
         25    1    1    2    0    0  0.20943140432E+03  0.19211381942E+02  0.13167666099E+03  0.27783868227E+03  0.12500000000E+03 0.  0.
         25    1    1    2    0    0 -0.20784946451E+03 -0.20299580327E+02 -0.57959873336E+01  0.24345855156E+03  0.12500000000E+03 0.  0.
         25    1    1    2    0    0 -0.15819398143E+01  0.10881983849E+01 -0.20688302812E+01  0.12503186301E+03  0.12500000000E+03 0.  0.
</event>
<event>
 5    0  0.5653588E-005  0.2298160E+03  0.7546771E-02  0.1126769E+00
         21   -1    0    0  502  501  0.00000000000E+00  0.00000000000E+00  0.63196859253E+02  0.63196859253E+02  0.00000000000E+00 0. -1.
         21   -1    0    0  501  502 -0.00000000000E+00 -0.00000000000E+00 -0.83572797911E+03  0.83572797911E+03  0.00000000000E+00 0. -1.
         25    1    1    2    0    0  0.24663575536E+02 -0.50902379369E+02 -0.16657529036E+03  0.21580470695E+03  0.12500000000E+03 0.  0.
         25    1    1    2    0    0  0.32991923382E+02  0.14979124450E+02 -0.46492462972E+03  0.48279680249E+03  0.12500000000E+03 0.  0.
         25    1    1    2    0    0 -0.57655498918E+02  0.35923254918E+02 -0.14103119979E+03  0.20032332893E+03  0.12500000000E+03 0.  0.
</event>
<event>
 5    0  0.9615481E-005  0.2979554E+03  0.7546771E-02  0.1086267E+00
         21   -1    0    0  502  501  0.00000000000E+00  0.00000000000E+00  0.22106880839E+03  0.22106880839E+03  0.00000000000E+00 0. -1.
         21   -1    0    0  501  502 -0.00000000000E+00 -0.00000000000E+00 -0.40158283731E+03  0.40158283731E+03  0.00000000000E+00 0. -1.
         25    1    1    2    0    0 -0.78881612952E+02  0.28612476433E+02  0.38178148651E+02  0.15531758981E+03  0.12500000000E+03 0.  0.
         25    1    1    2    0    0  0.20012134150E+03  0.29291428423E+01 -0.12086502454E+03  0.26512352848E+03  0.12500000000E+03 0.  0.
         25    1    1    2    0    0 -0.12123972854E+03 -0.31541619275E+02 -0.97827153031E+02  0.20221052741E+03  0.12500000000E+03 0.  0.
</event>
<event>
 5    0  0.5653588E-005  0.3425435E+03  0.7546771E-02  0.1065718E+00
         21   -1    0    0  502  501  0.00000000000E+00  0.00000000000E+00  0.10268109068E+03  0.10268109068E+03  0.00000000000E+00 0. -1.
         21   -1    0    0  501  502 -0.00000000000E+00 -0.00000000000E+00 -0.11427229610E+04  0.11427229610E+04  0.00000000000E+00 0. -1.
         25    1    1    2    0    0  0.11162758887E+03  0.37950021199E+02 -0.12420150409E+03  0.21201871692E+03  0.12500000000E+03 0.  0.
         25    1    1    2    0    0 -0.21592502068E+03 -0.13960368661E+03 -0.57766393524E+03  0.64454125232E+03  0.12500000000E+03 0.  0.
         25    1    1    2    0    0  0.10429743181E+03  0.10165366541E+03 -0.33817643094E+03  0.38884408240E+03  0.12500000000E+03 0.  0.
</event>
<event>
 5    0  0.5653588E-005  0.2966706E+03  0.7546771E-02  0.1086917E+00
         21   -1    0    0  502  501  0.00000000000E+00  0.00000000000E+00  0.25425152109E+03  0.25425152109E+03  0.00000000000E+00 0. -1.
         21   -1    0    0  501  502 -0.00000000000E+00 -0.00000000000E+00 -0.34616676170E+03  0.34616676170E+03  0.00000000000E+00 0. -1.
         25    1    1    2    0    0  0.44603288836E+02  0.88711800496E+02 -0.17152460857E+03  0.23431800671E+03  0.12500000000E+03 0.  0.
         25    1    1    2    0    0  0.94500918185E+02 -0.39988444990E+02  0.57225399624E+02  0.17154954279E+03  0.12500000000E+03 0.  0.
         25    1    1    2    0    0 -0.13910420702E+03 -0.48723355505E+02  0.22383968335E+02  0.19455073328E+03  0.12500000000E+03 0.  0.
</event>
<event>
 5    0  0.5653588E-005  0.4172160E+03  0.7546771E-02  0.1037976E+00
         21   -1    0    0  502  501  0.00000000000E+00  0.00000000000E+00  0.66416624078E+02  0.66416624078E+02  0.00000000000E+00 0. -1.
         21   -1    0    0  501  502 -0.00000000000E+00 -0.00000000000E+00 -0.26208673746E+04  0.26208673746E+04  0.00000000000E+00 0. -1.
         25    1    1    2    0    0  0.16446381940E+03  0.21409258729E+03 -0.62983291554E+03  0.69656190343E+03  0.12500000000E+03 0.  0.
         25    1    1    2    0    0 -0.64524554323E+02  0.40099356710E+02 -0.25225165238E+03  0.29159436320E+03  0.12500000000E+03 0.  0.
         25    1    1    2    0    0 -0.99939265075E+02 -0.25419194400E+03 -0.16723661826E+04  0.16991277320E+04  0.12500000000E+03 0.  0.
</event>
<event>
 5    0  0.5915372E-005  0.2401403E+03  0.7546771E-02  0.1119699E+00
         21   -1    0    0  502  501  0.00000000000E+00  0.00000000000E+00  0.38080208444E+03  0.38080208444E+03  0.00000000000E+00 0.  1.
         21   -1    0    0  501  502 -0.00000000000E+00 -0.00000000000E+00 -0.15143652594E+03  0.15143652594E+03  0.00000000000E+00 0.  1.
         25    1    1    2    0    0  0.28132289732E+02 -0.35289051467E+02  0.12944231890E+03  0.18551834626E+03  0.12500000000E+03 0.  0.
         25    1    1    2    0    0 -0.97906313271E+02 -0.38867189249E+01 -0.14254461549E+02  0.15946454915E+03  0.12500000000E+03 0.  0.
         25    1    1    2    0    0  0.69774023538E+02  0.39175770392E+02  0.11417770115E+03  0.18725571496E+03  0.12500000000E+03 0.  0.
</event>
<event>
 5    0  0.5653588E-005  0.3479658E+03  0.7546771E-02  0.1063453E+00
         21   -1    0    0  502  501  0.00000000000E+00  0.00000000000E+00  0.48113434281E+03  0.48113434281E+03  0.00000000000E+00 0.  1.
         21   -1    0    0  501  502 -0.00000000000E+00 -0.00000000000E+00 -0.25165565029E+03  0.25165565029E+03  0.00000000000E+00 0.  1.
         25    1    1    2    0    0 -0.55823279801E+02 -0.19289896293E+03  0.71180099719E+02  0.24701792458E+03  0.12500000000E+03 0.  0.
         25    1    1    2    0    0  0.12692410032E+03  0.18742262137E+02 -0.41899306251E+02  0.18396073358E+03  0.12500000000E+03 0.  0.
         25    1    1    2    0    0 -0.71100820524E+02  0.17415670080E+03  0.20019789906E+03  0.30181133494E+03  0.12500000000E+03 0.  0.
</event>
<event>
 5    0  0.5653588E-005  0.2371053E+03  0.7546771E-02  0.1121736E+00
         21   -1    0    0  502  501  0.00000000000E+00  0.00000000000E+00  0.66991683027E+02  0.66991683027E+02  0.00000000000E+00 0.  1.
         21   -1    0    0  501  502 -0.00000000000E+00 -0.00000000000E+00 -0.83919241412E+03  0.83919241412E+03  0.00000000000E+00 0. -1.
         25    1    1    2    0    0 -0.54803380822E+02 -0.63089775189E+02 -0.26179227370E+03  0.30190052145E+03  0.12500000000E+03 0.  0.
         25    1    1    2    0    0 -0.44829957991E+02 -0.32938307950E+02 -0.22624050422E+03  0.26439444588E+03  0.12500000000E+03 0.  0.
         25    1    1    2    0    0  0.99633338814E+02  0.96028083140E+02 -0.28416795317E+03  0.33988912981E+03  0.12500000000E+03 0.  0.
</event>
<event>
 5    0  0.5653588E-005  0.2716708E+03  0.7546771E-02  0.1100327E+00
         21   -1    0    0  502  501  0.00000000000E+00  0.00000000000E+00  0.69894398471E+02  0.69894398471E+02  0.00000000000E+00 0.  1.
         21   -1    0    0  501  502 -0.00000000000E+00 -0.00000000000E+00 -0.10559505729E+04  0.10559505729E+04  0.00000000000E+00 0.  1.
         25    1    1    2    0    0  0.12112277319E+03 -0.10672815842E+03 -0.61167342333E+03  0.64484959703E+03  0.12500000000E+03 0.  0.
         25    1    1    2    0    0 -0.74101513803E+02  0.37878784860E+02 -0.21155579502E+03  0.25943533125E+03  0.12500000000E+03 0.  0.
         25    1    1    2    0    0 -0.47021259389E+02  0.68849373556E+02 -0.16282695610E+03  0.22156004312E+03  0.12500000000E+03 0.  0.
</event>
<event>
 5    0  0.5653588E-005  0.3781442E+03  0.7546771E-02  0.1051622E+00
         21   -1    0    0  502  501  0.00000000000E+00  0.00000000000E+00  0.80497921372E+02  0.80497921372E+02  0.00000000000E+00 0. -1.
         21   -1    0    0  501  502 -0.00000000000E+00 -0.00000000000E+00 -0.17763570945E+04  0.17763570945E+04  0.00000000000E+00 0. -1.
         25    1    1    2    0    0  0.24129183801E+03 -0.12664409254E+03 -0.76605914250E+03  0.82263727551E+03  0.12500000000E+03 0.  0.
         25    1    1    2    0    0 -0.12441216554E+03  0.15890519664E+03 -0.31021566290E+03  0.39062514763E+03  0.12500000000E+03 0.  0.
         25    1    1    2    0    0 -0.11687967247E+03 -0.32261104099E+02 -0.61958436770E+03  0.64359259269E+03  0.12500000000E+03 0.  0.
</event>
<event>
 5    0  0.5975396E-005  0.3478436E+03  0.7546771E-02  0.1063504E+00
         21   -1    0    0  502  501  0.00000000000E+00  0.00000000000E+00  0.28535065502E+03  0.28535065502E+03  0.00000000000E+00 0.  1.
         21   -1    0    0  501  502 -0.00000000000E+00 -0.00000000000E+00 -0.42402273286E+03  0.42402273286E+03  0.00000000000E+00 0.  1.
         25    1    1    2    0    0  0.28533528414E+02 -0.15909329835E+03  0.19116957475E+02  0.20522012057E+03  0.12500000000E+03 0.  0.
         25    1    1    2    0    0  0.78881696067E+02  0.84595189558E+02 -0.24893635130E+03  0.30161726587E+03  0.12500000000E+03 0.  0.
         25    1    1    2    0    0 -0.10741522448E+03  0.74498108794E+02  0.91147315990E+02  0.20253600143E+03  0.12500000000E+03 0.  0.
</event>
<event>
 5    0  0.5653588E-005  0.2475513E+03  0.7546771E-02  0.1114862E+00
         21   -1    0    0  502  501  0.00000000000E+00  0.00000000000E+00  0.70205486351E+03  0.70205486351E+03  0.00000000000E+00 0. -1.
         21   -1    0    0  501  502 -0.00000000000E+00 -0.00000000000E+00 -0.87289002747E+02  0.87289002747E+02  0.00000000000E+00 0. -1.
         25    1    1    2    0    0  0.13301200114E+03  0.68800886328E+02  0.24657902465E+03  0.31440733103E+03  0.12500000000E+03 0.  0.
         25    1    1    2    0    0 -0.63718280276E+02 -0.80551948340E+01  0.21459545686E+03  0.25651728111E+03  0.12500000000E+03 0.  0.
         25    1    1    2    0    0 -0.69293720866E+02 -0.60745691494E+02  0.15359137925E+03  0.21841925411E+03  0.12500000000E+03 0.  0.
</event>
<event>
 5    0  0.5653588E-005  0.2469213E+03  0.7546771E-02  0.1115266E+00
         21   -1    0    0  502  501  0.00000000000E+00  0.00000000000E+00  0.14022503219E+04  0.14022503219E+04  0.00000000000E+00 0. -1.
         21   -1    0    0  501  502 -0.00000000000E+00 -0.00000000000E+00 -0.43480199796E+02  0.43480199796E+02  0.00000000000E+00 0. -1.
         25    1    1    2    0    0  0.57132116907E+02 -0.75305806289E+02  0.30949231611E+03  0.34690854267E+03  0.12500000000E+03 0.  0.
         25    1    1    2    0    0 -0.29284840000E+02  0.65619782477E+02  0.84723031210E+03  0.85941128655E+03  0.12500000000E+03 0.  0.
         25    1    1    2    0    0 -0.27847276907E+02  0.96860238119E+01  0.20204749393E+03  0.23941069252E+03  0.12500000000E+03 0.  0.
</event>
<event>
 5    0  0.5653588E-005  0.4520858E+03  0.7546771E-02  0.1027102E+00
         21   -1    0    0  502  501  0.00000000000E+00  0.00000000000E+00  0.79265616892E+03  0.79265616892E+03  0.00000000000E+00 0.  1.
         21   -1    0    0  501  502 -0.00000000000E+00 -0.00000000000E+00 -0.25784387726E+03  0.25784387726E+03  0.00000000000E+00 0.  1.
         25    1    1    2    0    0  0.19961095758E+03  0.47200410541E+02  0.23366900986E+03  0.33510986155E+03  0.12500000000E+03 0.  0.
         25    1    1    2    0    0 -0.22069362563E+03  0.67986786907E+02  0.42807891752E+03  0.50219960097E+03  0.12500000000E+03 0.  0.
         25    1    1    2    0    0  0.21082668054E+02 -0.11518719745E+03 -0.12693563572E+03  0.21319058366E+03  0.12500000000E+03 0.  0.
</event>
<event>
 5    0  0.5653588E-005  0.3645892E+03  0.7546771E-02  0.1056781E+00
         21   -1    0    0  502  501  0.00000000000E+00  0.00000000000E+00  0.22166620895E+03  0.22166620895E+03  0.00000000000E+00 0.  1.
         21   -1    0    0  501  502 -0.00000000000E+00 -0.00000000000E+00 -0.59966429345E+03  0.59966429345E+03  0.00000000000E+00 0.  1.
         25    1    1    2    0    0  0.95855718057E+02  0.13020776181E+02 -0.46232982114E+03  0.48860180394E+03  0.12500000000E+03 0.  0.
         25    1    1    2    0    0  0.42838610569E+02 -0.24602443088E+02  0.43313699851E+02  0.14121438792E+03  0.12500000000E+03 0.  0.
         25    1    1    2    0    0 -0.13869432863E+03  0.11581666907E+02  0.41018036791E+02  0.19151431055E+03  0.12500000000E+03 0.  0.
</event>
<event>
 5    0  0.5653588E-005  0.3021871E+03  0.7546771E-02  0.1084152E+00
         21   -1    0    0  502  501  0.00000000000E+00  0.00000000000E+00  0.12935794443E+04  0.12935794443E+04  0.00000000000E+00 0. -1.
         21   -1    0    0  501  502 -0.00000000000E+00 -0.00000000000E+00 -0.70592545590E+02  0.70592545590E+02  0.00000000000E+00 0. -1.
         25    1    1    2    0    0 -0.34517883464E+02  0.39736386643E+02  0.42793783071E+03  0.44891675359E+03  0.12500000000E+03 0.  0.
         25    1    1    2    0    0  0.19564553918E+03 -0.49980326568E+02  0.52917174758E+03  0.58001978283E+03  0.12500000000E+03 0.  0.
         25    1    1    2    0    0 -0.16112765572E+03  0.10243939926E+02  0.26587732040E+03  0.33523545345E+03  0.12500000000E+03 0.  0.
</event>
<event>
 5    0  0.5653588E-005  0.2381929E+03  0.7546771E-02  0.1121003E+00
         21   -1    0    0  502  501  0.00000000000E+00  0.00000000000E+00  0.98564534986E+03  0.98564534986E+03  0.00000000000E+00 0.  1.
         21   -1    0    0  501  502 -0.00000000000E+00 -0.00000000000E+00 -0.57562161669E+02  0.57562161669E+02  0.00000000000E+00 0.  1.
         25    1    1    2    0    0  0.67916475875E+02 -0.85050600611E+02  0.19678981908E+03  0.25728871964E+03  0.12500000000E+03 0.  0.
         25    1    1    2    0    0 -0.68226498330E+01  0.79689098075E+02  0.39376655252E+03  0.42080161453E+03  0.12500000000E+03 0.  0.
         25    1    1    2    0    0 -0.61093826042E+02  0.53615025359E+01  0.33752681658E+03  0.36511717736E+03  0.12500000000E+03 0.  0.
</event>
<event>
 5    0  0.5653588E-005  0.4957115E+03  0.7546771E-02  0.1014904E+00
         21   -1    0    0  502  501  0.00000000000E+00  0.00000000000E+00  0.11513018261E+03  0.11513018261E+03  0.00000000000E+00 0.  1.
         21   -1    0    0  501  502 -0.00000000000E+00 -0.00000000000E+00 -0.21343658954E+04  0.21343658954E+04  0.00000000000E+00 0.  1.
         25    1    1    2    0    0 -0.72247354628E+02 -0.52815143707E+02  0.51213597824E+02  0.16203997117E+03  0.12500000000E+03 0.  0.
         25    1    1    2    0    0  0.29139638589E+02  0.28402727459E+02 -0.10187042379E+04  0.10271509908E+04  0.12500000000E+03 0.  0.
         25    1    1    2    0    0  0.43107716040E+02  0.24412416249E+02 -0.10517450726E+04  0.10603051160E+04  0.12500000000E+03 0.  0.
</event>
<event>
 5    0  0.5819543E-005  0.2796509E+03  0.7546771E-02  0.1095880E+00
         21   -1    0    0  502  501  0.00000000000E+00  0.00000000000E+00  0.20511240487E+03  0.20511240487E+03  0.00000000000E+00 0.  1.
         21   -1    0    0  501  502 -0.00000000000E+00 -0.00000000000E+00 -0.38127685117E+03  0.38127685117E+03  0.00000000000E+00 0.  1.
         25    1    1    2    0    0  0.29879971175E+02 -0.30596005056E+02 -0.11042488293E+03  0.17218473502E+03  0.12500000000E+03 0.  0.
         25    1    1    2    0    0 -0.26490231652E+02  0.17553689221E+03 -0.44184799940E+02  0.22156766336E+03  0.12500000000E+03 0.  0.
         25    1    1    2    0    0 -0.33897395229E+01 -0.14494088716E+03 -0.21554763431E+02  0.19263685766E+03  0.12500000000E+03 0.  0.
</event>
<event>
 5    0  0.5653588E-005  0.2394862E+03  0.7546771E-02  0.1120136E+00
         21   -1    0    0  502  501  0.00000000000E+00  0.00000000000E+00  0.34299254122E+03  0.34299254122E+03  0.00000000000E+00 0.  1.
         21   -1    0    0  501  502 -0.00000000000E+00 -0.00000000000E+00 -0.16721542045E+03  0.16721542045E+03  0.00000000000E+00 0.  1.
         25    1    1    2    0    0 -0.11084657039E+02  0.76559784631E+02  0.52876508648E+02  0.15622162274E+03  0.12500000000E+03 0.  0.
         25    1    1    2    0    0  0.10545560364E+03 -0.33329688861E+02  0.40227520130E+02  0.17168286424E+03  0.12500000000E+03 0.  0.
         25    1    1    2    0    0 -0.94370946599E+02 -0.43230095769E+02  0.82673091989E+02  0.18230347468E+03  0.12500000000E+03 0.  0.
</event>
<event>
 5    0  0.5653588E-005  0.4171942E+03  0.7546771E-02  0.1037983E+00
         21   -1    0    0  502  501  0.00000000000E+00  0.00000000000E+00  0.10449627686E+04  0.10449627686E+04  0.00000000000E+00 0. -1.
         21   -1    0    0  501  502 -0.00000000000E+00 -0.00000000000E+00 -0.16656194184E+03  0.16656194184E+03  0.00000000000E+00 0. -1.
         25    1    1    2    0    0  0.13139305839E+03 -0.30302700031E+02  0.58851240920E+03  0.61656649699E+03  0.12500000000E+03 0.  0.
         25    1    1    2    0    0 -0.12254304615E+03  0.11510550638E+03  0.36891661667E+03  0.42425292670E+03  0.12500000000E+03 0.  0.
         25    1    1    2    0    0 -0.88500122415E+01 -0.84802806353E+02 -0.79028199085E+02  0.17070528677E+03  0.12500000000E+03 0.  0.
</event>
<event>
 5    0  0.5653588E-005  0.5654978E+03  0.7546771E-02  0.9979691E-01
         21   -1    0    0  502  501  0.00000000000E+00  0.00000000000E+00  0.12198865827E+04  0.12198865827E+04  0.00000000000E+00 0.  1.
         21   -1    0    0  501  502 -0.00000000000E+00 -0.00000000000E+00 -0.26214545742E+03  0.26214545742E+03  0.00000000000E+00 0.  1.
         25    1    1    2    0    0 -0.27845898656E+03  0.31819777080E+03  0.50244428861E+03  0.66847923805E+03  0.12500000000E+03 0.  0.
         25    1    1    2    0    0  0.72111428286E+02 -0.18718485215E+03 -0.47135742371E+02  0.24100830935E+03  0.12500000000E+03 0.  0.
         25    1    1    2    0    0  0.20634755828E+03 -0.13101291865E+03  0.50243257900E+03  0.57254449268E+03  0.12500000000E+03 0.  0.
</event>
<event>
 5    0  0.5653588E-005  0.2728167E+03  0.7546771E-02  0.1099678E+00
         21   -1    0    0  502  501  0.00000000000E+00  0.00000000000E+00  0.88725697582E+03  0.88725697582E+03  0.00000000000E+00 0.  1.
         21   -1    0    0  501  502 -0.00000000000E+00 -0.00000000000E+00 -0.83886595025E+02  0.83886595025E+02  0.00000000000E+00 0.  1.
         25    1    1    2    0    0  0.15063190661E+03  0.46867190243E+02  0.36907499637E+03  0.42039012566E+03  0.12500000000E+03 0.  0.
         25    1    1    2    0    0 -0.82493294267E+02 -0.78427598389E+02  0.33220061171E+03  0.37274425308E+03  0.12500000000E+03 0.  0.
         25    1    1    2    0    0 -0.68138612345E+02  0.31560408145E+02  0.10209477272E+03  0.17800919210E+03  0.12500000000E+03 0.  0.
</event>
<event>
 5    0  0.5653588E-005  0.2286510E+03  0.7546771E-02  0.1127593E+00
         21   -1    0    0  502  501  0.00000000000E+00  0.00000000000E+00  0.50512772260E+03  0.50512772260E+03  0.00000000000E+00 0. -1.
         21   -1    0    0  501  502 -0.00000000000E+00 -0.00000000000E+00 -0.10350113643E+03  0.10350113643E+03  0.00000000000E+00 0. -1.
         25    1    1    2    0    0 -0.45153416259E+02  0.22610830391E+02  0.17526467763E+03  0.22111713610E+03  0.12500000000E+03 0.  0.
         25    1    1    2    0    0 -0.85313350540E+01 -0.80453358702E+02  0.49288368933E+02  0.15684345672E+03  0.12500000000E+03 0.  0.
         25    1    1    2    0    0  0.53684751313E+02  0.57842528311E+02  0.17707353962E+03  0.23066826621E+03  0.12500000000E+03 0.  0.
</event>
<event>
 5    0  0.5653588E-005  0.3609534E+03  0.7546771E-02  0.1058207E+00
         21   -1    0    0  502  501  0.00000000000E+00  0.00000000000E+00  0.11875756470E+03  0.11875756470E+03  0.00000000000E+00 0. -1.
         21   -1    0    0  501  502 -0.00000000000E+00 -0.00000000000E+00 -0.10970868642E+04  0.10970868642E+04  0.00000000000E+00 0. -1.
         25    1    1    2    0    0 -0.26509162972E+02 -0.14449531010E+03 -0.70555034869E+03  0.73144235924E+03  0.12500000000E+03 0.  0.
         25    1    1    2    0    0  0.57199871509E+02 -0.63155313241E+02 -0.14109795791E+03  0.20686723428E+03  0.12500000000E+03 0.  0.
         25    1    1    2    0    0 -0.30690708537E+02  0.20765062334E+03 -0.13168099293E+03  0.27753483541E+03  0.12500000000E+03 0.  0.
</event>
<event>
 5    0  0.5653588E-005  0.2654191E+03  0.7546771E-02  0.1103930E+00
         21   -1    0    0  502  501  0.00000000000E+00  0.00000000000E+00  0.24227331265E+02  0.24227331265E+02  0.00000000000E+00 0. -1.
         21   -1    0    0  501  502 -0.00000000000E+00 -0.00000000000E+00 -0.29077608433E+04  0.29077608433E+04  0.00000000000E+00 0. -1.
         25    1    1    2    0    0 -0.64427615235E+02  0.10139157528E+03 -0.10284514650E+04  0.10429614495E+04  0.12500000000E+03 0.  0.
         25    1    1    2    0    0 -0.19279096050E+02 -0.15061651638E+03 -0.11140555116E+04  0.11312832102E+04  0.12500000000E+03 0.  0.
         25    1    1    2    0    0  0.83706711286E+02  0.49224941096E+02 -0.74102653535E+03  0.75774351494E+03  0.12500000000E+03 0.  0.
</event>
<event>
 5    0  0.5947755E-005  0.2619232E+03  0.7546771E-02  0.1105993E+00
         21   -1    0    0  502  501  0.00000000000E+00  0.00000000000E+00  0.11754595991E+03  0.11754595991E+03  0.00000000000E+00 0.  1.
         21   -1    0    0  501  502 -0.00000000000E+00 -0.00000000000E+00 -0.58363339653E+03  0.58363339653E+03  0.00000000000E+00 0.  1.
         25    1    1    2    0    0 -0.12001585353E+02  0.42875739548E+02 -0.91166330132E+02  0.16099275401E+03  0.12500000000E+03 0.  0.
         25    1    1    2    0    0  0.70454290931E+02 -0.12566258327E+03 -0.31544561563E+03  0.36862695014E+03  0.12500000000E+03 0.  0.
         25    1    1    2    0    0 -0.58452705577E+02  0.82786843727E+02 -0.59475490861E+02  0.17155965230E+03  0.12500000000E+03 0.  0.
</event>
<event>
 5    0  0.5653588E-005  0.3910289E+03  0.7546771E-02  0.1046931E+00
         21   -1    0    0  502  501  0.00000000000E+00  0.00000000000E+00  0.13575524948E+04  0.13575524948E+04  0.00000000000E+00 0.  1.
         21   -1    0    0  501  502 -0.00000000000E+00 -0.00000000000E+00 -0.11263180326E+03  0.11263180326E+03  0.00000000000E+00 0.  1.
         25    1    1    2    0    0  0.43473805967E+02 -0.13604620005E+03  0.11956228884E+03  0.22431825888E+03  0.12500000000E+03 0.  0.
         25    1    1    2    0    0  0.81263273502E+02  0.25239711320E+03  0.44069977158E+03  0.52929132908E+03  0.12500000000E+03 0.  0.
         25    1    1    2    0    0 -0.12473707947E+03 -0.11635091315E+03  0.68465863109E+03  0.71657471007E+03  0.12500000000E+03 0.  0.
</event>
<event>
 5    0  0.5653588E-005  0.3409647E+03  0.7546771E-02  0.1066386E+00
         21   -1    0    0  502  501  0.00000000000E+00  0.00000000000E+00  0.54507342950E+03  0.54507342950E+03  0.00000000000E+00 0. -1.
         21   -1    0    0  501  502 -0.00000000000E+00 -0.00000000000E+00 -0.21328666583E+03  0.21328666583E+03  0.00000000000E+00 0. -1.
         25    1    1    2    0    0 -0.19755150510E+03  0.43171379039E+02  0.17989830190E+03  0.29812541683E+03  0.12500000000E+03 0.  0.
         25    1    1    2    0    0  0.24275639537E+03 -0.95074678288E+02  0.77610160720E+02  0.29936298868E+03  0.12500000000E+03 0.  0.
         25    1    1    2    0    0 -0.45204890268E+02  0.51903299249E+02  0.74278301058E+02  0.16087168982E+03  0.12500000000E+03 0.  0.
</event>
<event>
 5    0  0.5653588E-005  0.4047385E+03  0.7546771E-02  0.1042151E+00
         21   -1    0    0  502  501  0.00000000000E+00  0.00000000000E+00  0.22953637103E+03  0.22953637103E+03  0.00000000000E+00 0.  1.
         21   -1    0    0  501  502 -0.00000000000E+00 -0.00000000000E+00 -0.71367018557E+03  0.71367018557E+03  0.00000000000E+00 0.  1.
         25    1    1    2    0    0 -0.89990314039E+02  0.15958820318E+03 -0.55164998850E+03  0.59456653204E+03  0.12500000000E+03 0.  0.
         25    1    1    2    0    0  0.60178891920E+01 -0.12519572546E+03 -0.69689981069E+01  0.17715459802E+03  0.12500000000E+03 0.  0.
         25    1    1    2    0    0  0.83972424847E+02 -0.34392477722E+02  0.74485172063E+02  0.17148542654E+03  0.12500000000E+03 0.  0.
</event>
<event>
 5    0  0.5653588E-005  0.2856105E+03  0.7546771E-02  0.1092663E+00
         21   -1    0    0  502  501  0.00000000000E+00  0.00000000000E+00  0.72097494109E+03  0.72097494109E+03  0.00000000000E+00 0. -1.
         21   -1    0    0  501  502 -0.00000000000E+00 -0.00000000000E+00 -0.11314314655E+03  0.11314314655E+03  0.00000000000E+00 0. -1.
         25    1    1    2    0    0 -0.46377612950E+02  0.10984903195E+03  0.29303008319E+03  0.34016073033E+03  0.12500000000E+03 0.  0.
         25    1    1    2    0    0 -0.51428201237E+02  0.55685790229E+02  0.16292151075E+03  0.21889309213E+03  0.12500000000E+03 0.  0.
         25    1    1    2    0    0  0.97805814187E+02 -0.16553482218E+03  0.15188020060E+03  0.27506426518E+03  0.12500000000E+03 0.  0.
</event>
<event>
 5    0  0.5801667E-005  0.4058950E+03  0.7546771E-02  0.1041757E+00
         21   -1    0    0  502  501  0.00000000000E+00  0.00000000000E+00  0.53934436900E+03  0.53934436900E+03  0.00000000000E+00 0. -1.
         21   -1    0    0  501  502 -0.00000000000E+00 -0.00000000000E+00 -0.30546491234E+03  0.30546491234E+03  0.00000000000E+00 0. -1.
         25    1    1    2    0    0 -0.18338908471E+03  0.20418726697E+03  0.69233123377E+02  0.30942240022E+03  0.12500000000E+03 0.  0.
         25    1    1    2    0    0  0.19860275682E+03 -0.59978664049E+02 -0.50473463425E+02  0.24741274354E+03  0.12500000000E+03 0.  0.
         25    1    1    2    0    0 -0.15213672108E+02 -0.14420860292E+03  0.21511979671E+03  0.28797413757E+03  0.12500000000E+03 0.  0.
</event>
<event>
 5    0  0.5653588E-005  0.2349333E+03  0.7546771E-02  0.1123215E+00
         21   -1    0    0  502  501  0.00000000000E+00  0.00000000000E+00  0.90995607755E+03  0.90995607755E+03  0.00000000000E+00 0.  1.
         21   -1    0    0  501  502 -0.00000000000E+00 -0.00000000000E+00 -0.60655294427E+02  0.60655294427E+02  0.00000000000E+00 0.  1.
         25    1    1    2    0    0  0.67999776932E+02 -0.15397439069E+01  0.26073582777E+03  0.29704294699E+03  0.12500000000E+03 0.  0.
         25    1    1    2    0    0  0.34709159781E+02 -0.48042081137E+02  0.38358821113E+03  0.40777160648E+03  0.12500000000E+03 0.  0.
         25    1    1    2    0    0 -0.10270893671E+03  0.49581825044E+02  0.20497674422E+03  0.26579681850E+03  0.12500000000E+03 0.  0.
</event>
<event>
 5    0  0.5653588E-005  0.2941172E+03  0.7546771E-02  0.1088219E+00
         21   -1    0    0  502  501  0.00000000000E+00  0.00000000000E+00  0.50062091352E+02  0.50062091352E+02  0.00000000000E+00 0. -1.
         21   -1    0    0  501  502 -0.00000000000E+00 -0.00000000000E+00 -0.17279526841E+04  0.17279526841E+04  0.00000000000E+00 0. -1.
         25    1    1    2    0    0  0.28441151102E+02 -0.12646879563E+03 -0.49363060835E+03  0.52545164654E+03  0.12500000000E+03 0.  0.
         25    1    1    2    0    0 -0.43334046765E+02  0.71848602974E+02 -0.10494694131E+04  0.10602127665E+04  0.12500000000E+03 0.  0.
         25    1    1    2    0    0  0.14892895664E+02  0.54620192651E+02 -0.13479057130E+03  0.19235036235E+03  0.12500000000E+03 0.  0.
</event>
<event>
 5    0  0.5653588E-005  0.3601616E+03  0.7546771E-02  0.1058520E+00
         21   -1    0    0  502  501  0.00000000000E+00  0.00000000000E+00  0.25995604038E+03  0.25995604038E+03  0.00000000000E+00 0. -1.
         21   -1    0    0  501  502 -0.00000000000E+00 -0.00000000000E+00 -0.49899344985E+03  0.49899344985E+03  0.00000000000E+00 0. -1.
         25    1    1    2    0    0  0.86725718594E+02 -0.16638833108E+03 -0.91796518835E+02  0.24342971851E+03  0.12500000000E+03 0.  0.
         25    1    1    2    0    0  0.41784016011E+02  0.25388462288E+03 -0.13317303951E+03  0.31553662891E+03  0.12500000000E+03 0.  0.
         25    1    1    2    0    0 -0.12850973461E+03 -0.87496291803E+02 -0.14067851120E+02  0.19998314280E+03  0.12500000000E+03 0.  0.
</event>
<event>
 5    0  0.6494463E-005  0.2602535E+03  0.7546771E-02  0.1106991E+00
         21   -1    0    0  502  501  0.00000000000E+00  0.00000000000E+00  0.17507632345E+03  0.17507632345E+03  0.00000000000E+00 0. -1.
         21   -1    0    0  501  502 -0.00000000000E+00 -0.00000000000E+00 -0.38687067102E+03  0.38687067102E+03  0.00000000000E+00 0. -1.
         25    1    1    2    0    0  0.16749603059E+02  0.71500038772E+02 -0.47500264622E+02  0.15255844744E+03  0.12500000000E+03 0.  0.
         25    1    1    2    0    0 -0.44550845680E+02  0.71757719405E+02  0.83249597609E+01  0.15109021510E+03  0.12500000000E+03 0.  0.
         25    1    1    2    0    0  0.27801242620E+02 -0.14325775818E+03 -0.17261904271E+03  0.25829833193E+03  0.12500000000E+03 0.  0.
</event>
<event>
 5    0  0.5653588E-005  0.1938854E+03  0.7546771E-02  0.1155003E+00
         21   -1    0    0  502  501  0.00000000000E+00  0.00000000000E+00  0.20678629517E+03  0.20678629517E+03  0.00000000000E+00 0. -1.
         21   -1    0    0  501  502 -0.00000000000E+00 -0.00000000000E+00 -0.18178935232E+03  0.18178935232E+03  0.00000000000E+00 0. -1.
         25    1    1    2    0    0  0.11639959418E+02 -0.80685850936E+01  0.49855585536E+02  0.13531877227E+03  0.12500000000E+03 0.  0.
         25    1    1    2    0    0  0.79955637529E+01  0.77273823405E+01 -0.11431369048E+02  0.12601316469E+03  0.12500000000E+03 0.  0.
         25    1    1    2    0    0 -0.19635523171E+02  0.34120275303E+00 -0.13427273636E+02  0.12724371052E+03  0.12500000000E+03 0.  0.
</event>
<event>
 5    0  0.5653588E-005  0.3606509E+03  0.7546771E-02  0.1058326E+00
         21   -1    0    0  502  501  0.00000000000E+00  0.00000000000E+00  0.21270878356E+04  0.21270878356E+04  0.00000000000E+00 0.  1.
         21   -1    0    0  501  502 -0.00000000000E+00 -0.00000000000E+00 -0.61148880750E+02  0.61148880750E+02  0.00000000000E+00 0.  1.
         25    1    1    2    0    0  0.54816232393E+02  0.16084516101E+03  0.57490120458E+03  0.61238254399E+03  0.12500000000E+03 0.  0.
         25    1    1    2    0    0  0.12324854487E+03 -0.22227199504E+03  0.78719931342E+03  0.83660193799E+03  0.12500000000E+03 0.  0.
         25    1    1    2    0    0 -0.17806477726E+03  0.61426834031E+02  0.70383843681E+03  0.73925223434E+03  0.12500000000E+03 0.  0.
</event>
<event>
 5    0  0.5653588E-005  0.3541179E+03  0.7546771E-02  0.1060937E+00
         21   -1    0    0  502  501  0.00000000000E+00  0.00000000000E+00  0.18828364418E+03  0.18828364418E+03  0.00000000000E+00 0. -1.
         21   -1    0    0  501  502 -0.00000000000E+00 -0.00000000000E+00 -0.66601375282E+03  0.66601375282E+03  0.00000000000E+00 0. -1.
         25    1    1    2    0    0  0.46513836153E+02  0.12037800432E+03 -0.37507956440E+03  0.41588950517E+03  0.12500000000E+03 0.  0.
         25    1    1    2    0    0 -0.66296772328E+02 -0.15270016021E+03  0.72035651820E+02  0.22028784824E+03  0.12500000000E+03 0.  0.
         25    1    1    2    0    0  0.19782936175E+02  0.32322155886E+02 -0.17468619605E+03  0.21812004359E+03  0.12500000000E+03 0.  0.
</event>
<event>
 5    0  0.6787460E-005  0.3461483E+03  0.7546771E-02  0.1064207E+00
         21   -1    0    0  502  501  0.00000000000E+00  0.00000000000E+00  0.14450443315E+03  0.14450443315E+03  0.00000000000E+00 0.  1.
         21   -1    0    0  501  502 -0.00000000000E+00 -0.00000000000E+00 -0.82916938510E+03  0.82916938510E+03  0.00000000000E+00 0.  1.
         25    1    1    2    0    0 -0.68534298613E+02  0.40578842002E+02  0.33328269365E+02  0.15191894564E+03  0.12500000000E+03 0.  0.
         25    1    1    2    0    0 -0.34394019021E+02  0.10044810466E+03 -0.44612251015E+03  0.47531364838E+03  0.12500000000E+03 0.  0.
         25    1    1    2    0    0  0.10292831763E+03 -0.14102694666E+03 -0.27187071117E+03  0.34644122423E+03  0.12500000000E+03 0.  0.
</event>
<event>
 5    0  0.5653588E-005  0.6555081E+03  0.7546771E-02  0.9796498E-01
         21   -1    0    0  502  501  0.00000000000E+00  0.00000000000E+00  0.77566592851E+03  0.77566592851E+03  0.00000000000E+00 0.  1.
         21   -1    0    0  501  502 -0.00000000000E+00 -0.00000000000E+00 -0.55396389666E+03  0.55396389666E+03  0.00000000000E+00 0.  1.
         25    1    1    2    0    0  0.12331794587E+03  0.10819623603E+03 -0.13226378306E+03  0.24501520274E+03  0.12500000000E+03 0.  0.
         25    1    1    2    0    0  0.43035457253E+03 -0.95626271239E+01  0.17714081786E+03  0.48197548826E+03  0.12500000000E+03 0.  0.
         25    1    1    2    0    0 -0.55367251840E+03 -0.98633608904E+02  0.17682499705E+03  0.60263913416E+03  0.12500000000E+03 0.  0.
</event>
<event>
 5    0  0.5653588E-005  0.3125286E+03  0.7546771E-02  0.1079140E+00
         21   -1    0    0  502  501  0.00000000000E+00  0.00000000000E+00  0.10581367884E+04  0.10581367884E+04  0.00000000000E+00 0. -1.
         21   -1    0    0  501  502 -0.00000000000E+00 -0.00000000000E+00 -0.92307661468E+02  0.92307661468E+02  0.00000000000E+00 0. -1.
         25    1    1    2    0    0  0.27089917313E+02 -0.37203393467E+02  0.38934647891E+03  0.41150168499E+03  0.12500000000E+03 0.  0.
         25    1    1    2    0    0 -0.16178197840E+03  0.31195411189E+02  0.49762319608E+03  0.53888812150E+03  0.12500000000E+03 0.  0.
         25    1    1    2    0    0  0.13469206109E+03  0.60079822781E+01  0.78859451906E+02  0.20005464335E+03  0.12500000000E+03 0.  0.
</event>
<event>
 5    0  0.5653588E-005  0.3245094E+03  0.7546771E-02  0.1073592E+00
         21   -1    0    0  502  501  0.00000000000E+00  0.00000000000E+00  0.20648995047E+04  0.20648995047E+04  0.00000000000E+00 0. -1.
         21   -1    0    0  501  502 -0.00000000000E+00 -0.00000000000E+00 -0.50998284623E+02  0.50998284623E+02  0.00000000000E+00 0. -1.
         25    1    1    2    0    0  0.95187320314E+01 -0.14538008741E+03  0.14516434930E+04  0.14642813277E+04  0.12500000000E+03 0.  0.
         25    1    1    2    0    0 -0.38898879664E+02  0.26828653383E+02  0.13480110845E+03  0.18981369372E+03  0.12500000000E+03 0.  0.
         25    1    1    2    0    0  0.29380147632E+02  0.11855143403E+03  0.42745661869E+03  0.46180276790E+03  0.12500000000E+03 0.  0.
</event>
<event>
 5    0  0.5653588E-005  0.2010051E+03  0.7546771E-02  0.1148894E+00
         21   -1    0    0  502  501  0.00000000000E+00  0.00000000000E+00  0.26500190233E+03  0.26500190233E+03  0.00000000000E+00 0.  1.
         21   -1    0    0  501  502 -0.00000000000E+00 -0.00000000000E+00 -0.15246319362E+03  0.15246319362E+03  0.00000000000E+00 0.  1.
         25    1    1    2    0    0  0.57463054807E+01 -0.49490466113E+01  0.28146491531E+02  0.12835395621E+03  0.12500000000E+03 0.  0.
         25    1    1    2    0    0 -0.32175908209E+02 -0.15319368430E+02  0.92440295674E+02  0.15949978176E+03  0.12500000000E+03 0.  0.
         25    1    1    2    0    0  0.26429602728E+02  0.20268415041E+02 -0.80480784920E+01  0.12961135797E+03  0.12500000000E+03 0.  0.
</event>
<event>
 5    0  0.6901420E-005  0.2745247E+03  0.7546771E-02  0.1098718E+00
         21   -1    0    0  502  501  0.00000000000E+00  0.00000000000E+00  0.26814514630E+03  0.26814514630E+03  0.00000000000E+00 0.  1.
         21   -1    0    0  501  502 -0.00000000000E+00 -0.00000000000E+00 -0.28105594835E+03  0.28105594835E+03  0.00000000000E+00 0.  1.
         25    1    1    2    0    0 -0.54391322563E+02 -0.98605489641E+02  0.90144447715E+01  0.16848655368E+03  0.12500000000E+03 0.  0.
         25    1    1    2    0    0  0.15572716950E+02  0.15947965650E+03 -0.88608865451E+02  0.22170431071E+03  0.12500000000E+03 0.  0.
         25    1    1    2    0    0  0.38818605614E+02 -0.60874166860E+02  0.66683618630E+02  0.15901023026E+03  0.12500000000E+03 0.  0.
</event>
<event>
 5    0  0.5653588E-005  0.2916136E+03  0.7546771E-02  0.1089510E+00
         21   -1    0    0  502  501  0.00000000000E+00  0.00000000000E+00  0.50027562836E+03  0.50027562836E+03  0.00000000000E+00 0.  1.
         21   -1    0    0  501  502 -0.00000000000E+00 -0.00000000000E+00 -0.16998331609E+03  0.16998331609E+03  0.00000000000E+00 0.  1.
         25    1    1    2    0    0 -0.52059685450E+02 -0.29304117771E+01  0.31629207875E+02  0.13908344601E+03  0.12500000000E+03 0.  0.
         25    1    1    2    0    0  0.10353547323E+03 -0.13353946392E+03  0.48388963880E+02  0.21568234621E+03  0.12500000000E+03 0.  0.
         25    1    1    2    0    0 -0.51475787781E+02  0.13646987569E+03  0.25027414051E+03  0.31549315224E+03  0.12500000000E+03 0.  0.
</event>
<event>
 5    0  0.5653588E-005  0.2715655E+03  0.7546771E-02  0.1100387E+00
         21   -1    0    0  502  501  0.00000000000E+00  0.00000000000E+00  0.90255214452E+02  0.90255214452E+02  0.00000000000E+00 0.  1.
         21   -1    0    0  501  502 -0.00000000000E+00 -0.00000000000E+00 -0.81710302078E+03  0.81710302078E+03  0.00000000000E+00 0.  1.
         25    1    1    2    0    0 -0.29992683834E+02 -0.40308082116E+02 -0.48110157109E+03  0.49960787050E+03  0.12500000000E+03 0.  0.
         25    1    1    2    0    0  0.90552995474E+02  0.89015933587E+02 -0.13550750150E+03  0.22385478414E+03  0.12500000000E+03 0.  0.
         25    1    1    2    0    0 -0.60560311640E+02 -0.48707851470E+02 -0.11023873374E+03  0.18389558058E+03  0.12500000000E+03 0.  0.
</event>
<event>
 5    0  0.5653588E-005  0.4643866E+03  0.7546771E-02  0.1023517E+00
         21   -1    0    0  502  501  0.00000000000E+00  0.00000000000E+00  0.63295011394E+02  0.63295011394E+02  0.00000000000E+00 0. -1.
         21   -1    0    0  501  502 -0.00000000000E+00 -0.00000000000E+00 -0.34071390081E+04  0.34071390081E+04  0.00000000000E+00 0. -1.
         25    1    1    2    0    0  0.15210569585E+03  0.24594020299E+03 -0.13905953926E+04  0.14258342372E+04  0.12500000000E+03 0.  0.
         25    1    1    2    0    0 -0.14073601826E+03 -0.23724087819E+03 -0.49056184388E+03  0.57651173777E+03  0.12500000000E+03 0.  0.
         25    1    1    2    0    0 -0.11369677593E+02 -0.86993248039E+01 -0.14626867602E+04  0.14680880445E+04  0.12500000000E+03 0.  0.
</event>
<event>
 5    0  0.5653588E-005  0.4030349E+03  0.7546771E-02  0.1042734E+00
         21   -1    0    0  502  501  0.00000000000E+00  0.00000000000E+00  0.62040645466E+03  0.62040645466E+03  0.00000000000E+00 0. -1.
         21   -1    0    0  501  502 -0.00000000000E+00 -0.00000000000E+00 -0.26182375072E+03  0.26182375072E+03  0.00000000000E+00 0. -1.
         25    1    1    2    0    0 -0.24876837126E+03 -0.31161140457E+02 -0.44445604107E+02  0.28364966233E+03  0.12500000000E+03 0.  0.
         25    1    1    2    0    0 -0.74074518246E+01 -0.39161628016E+02  0.52428346909E+02  0.14128777375E+03  0.12500000000E+03 0.  0.
         25    1    1    2    0    0  0.25617582309E+03  0.70322768473E+02  0.35059996114E+03  0.45729276930E+03  0.12500000000E+03 0.  0.
</event>
<event>
 5    0  0.6742678E-005  0.3053882E+03  0.7546771E-02  0.1082578E+00
         21   -1    0    0  502  501  0.00000000000E+00  0.00000000000E+00  0.20902455647E+03  0.20902455647E+03  0.00000000000E+00 0.  1.
         21   -1    0    0  501  502 -0.00000000000E+00 -0.00000000000E+00 -0.44617695179E+03  0.44617695179E+03  0.00000000000E+00 0.  1.
         25    1    1    2    0    0 -0.77667823322E+02  0.52726040482E+02 -0.10705880658E+02  0.15669059323E+03  0.12500000000E+03 0.  0.
         25    1    1    2    0    0  0.13769716008E+03 -0.12605158314E+03 -0.19884340294E+01  0.22467412707E+03  0.12500000000E+03 0.  0.
         25    1    1    2    0    0 -0.60029336755E+02  0.73325542655E+02 -0.22445808063E+03  0.27383678796E+03  0.12500000000E+03 0.  0.
</event>
<event>
 5    0  0.5653588E-005  0.2749662E+03  0.7546771E-02  0.1098470E+00
         21   -1    0    0  502  501  0.00000000000E+00  0.00000000000E+00  0.48865517473E+03  0.48865517473E+03  0.00000000000E+00 0.  1.
         21   -1    0    0  501  502 -0.00000000000E+00 -0.00000000000E+00 -0.15472343879E+03  0.15472343879E+03  0.00000000000E+00 0.  1.
         25    1    1    2    0    0  0.58753268800E+02  0.82310961468E+02  0.12452889849E+03  0.20337032117E+03  0.12500000000E+03 0.  0.
         25    1    1    2    0    0 -0.56714454793E+02 -0.20101770471E+02 -0.48306766837E+02  0.14689844887E+03  0.12500000000E+03 0.  0.
         25    1    1    2    0    0 -0.20388140065E+01 -0.62209190997E+02  0.25770960429E+03  0.29310984349E+03  0.12500000000E+03 0.  0.
</event>
<event>
 5    0  0.5653588E-005  0.2318633E+03  0.7546771E-02  0.1125335E+00
         21   -1    0    0  502  501  0.00000000000E+00  0.00000000000E+00  0.10434006158E+04  0.10434006158E+04  0.00000000000E+00 0. -1.
         21   -1    0    0  501  502 -0.00000000000E+00 -0.00000000000E+00 -0.51524401333E+02  0.51524401333E+02  0.00000000000E+00 0. -1.
         25    1    1    2    0    0  0.93227909344E+02 -0.36203640123E+02  0.33065221646E+03  0.36736634970E+03  0.12500000000E+03 0.  0.
         25    1    1    2    0    0 -0.59670314902E+02 -0.48487289970E+02  0.36468741102E+03  0.39310745544E+03  0.12500000000E+03 0.  0.
         25    1    1    2    0    0 -0.33557594443E+02  0.84690930093E+02  0.29653658701E+03  0.33445121202E+03  0.12500000000E+03 0.  0.
</event>
<event>
 5    0  0.5653588E-005  0.3903928E+03  0.7546771E-02  0.1047158E+00
         21   -1    0    0  502  501  0.00000000000E+00  0.00000000000E+00  0.45446950360E+03  0.45446950360E+03  0.00000000000E+00 0. -1.
         21   -1    0    0  501  502 -0.00000000000E+00 -0.00000000000E+00 -0.33535036521E+03  0.33535036521E+03  0.00000000000E+00 0. -1.
         25    1    1    2    0    0  0.12475927553E+03 -0.24588273943E+02  0.77886973979E+02  0.19457862360E+03  0.12500000000E+03 0.  0.
         25    1    1    2    0    0 -0.23826236573E+03  0.20968700857E+03 -0.12777187995E+01  0.34112201490E+03  0.12500000000E+03 0.  0.
         25    1    1    2    0    0  0.11350309020E+03 -0.18509873463E+03  0.42509883209E+02  0.25411923032E+03  0.12500000000E+03 0.  0.
</event>
<event>
 5    0  0.5653588E-005  0.3022067E+03  0.7546771E-02  0.1084143E+00
         21   -1    0    0  502  501  0.00000000000E+00  0.00000000000E+00  0.79017340342E+02  0.79017340342E+02  0.00000000000E+00 0.  1.
         21   -1    0    0  501  502 -0.00000000000E+00 -0.00000000000E+00 -0.11558082774E+04  0.11558082774E+04  0.00000000000E+00 0.  1.
         25    1    1    2    0    0 -0.13283666920E+03  0.57843743166E+02 -0.67825679752E+03  0.70473311451E+03  0.12500000000E+03 0.  0.
         25    1    1    2    0    0  0.75306470000E+02  0.59639848323E+02 -0.12074874369E+03  0.19857803261E+03  0.12500000000E+03 0.  0.
         25    1    1    2    0    0  0.57530199205E+02 -0.11748359149E+03 -0.27778539589E+03  0.33151447067E+03  0.12500000000E+03 0.  0.
</event>
<event>
 5    0  0.7214747E-005  0.4124645E+03  0.7546771E-02  0.1039547E+00
         21   -1    0    0  502  501  0.00000000000E+00  0.00000000000E+00  0.21933513118E+03  0.21933513118E+03  0.00000000000E+00 0. -1.
         21   -1    0    0  501  502 -0.00000000000E+00 -0.00000000000E+00 -0.77564848081E+03  0.77564848081E+03  0.00000000000E+00 0. -1.
         25    1    1    2    0    0 -0.15403552582E+03  0.14932480770E+03 -0.16285886674E+03  0.29693913835E+03  0.12500000000E+03 0.  0.
         25    1    1    2    0    0  0.11431127420E+03 -0.70545031776E+02 -0.48582576205E+03  0.51932200029E+03  0.12500000000E+03 0.  0.
         25    1    1    2    0    0  0.39724251620E+02 -0.78779775926E+02  0.92371279164E+02  0.17872247334E+03  0.12500000000E+03 0.  0.
</event>
<event>
 5    0  0.5653588E-005  0.3467235E+03  0.7546771E-02  0.1063968E+00
         21   -1    0    0  502  501  0.00000000000E+00  0.00000000000E+00  0.33280281159E+03  0.33280281159E+03  0.00000000000E+00 0.  1.
         21   -1    0    0  501  502 -0.00000000000E+00 -0.00000000000E+00 -0.36122643798E+03  0.36122643798E+03  0.00000000000E+00 0.  1.
         25    1    1    2    0    0  0.31723279174E+02  0.32735065254E+02  0.18198183602E+03  0.22543367002E+03  0.12500000000E+03 0.  0.
         25    1    1    2    0    0 -0.11494260495E+03  0.96719442764E+02 -0.18429500107E+03  0.26861887584E+03  0.12500000000E+03 0.  0.
         25    1    1    2    0    0  0.83219325780E+02 -0.12945450802E+03 -0.26110461346E+02  0.19997670370E+03  0.12500000000E+03 0.  0.
</event>
<event>
 5    0  0.5653588E-005  0.3007353E+03  0.7546771E-02  0.1084874E+00
         21   -1    0    0  502  501  0.00000000000E+00  0.00000000000E+00  0.55071273167E+02  0.55071273167E+02  0.00000000000E+00 0.  1.
         21   -1    0    0  501  502 -0.00000000000E+00 -0.00000000000E+00 -0.16422664113E+04  0.16422664113E+04  0.00000000000E+00 0.  1.
         25    1    1    2    0    0  0.50627282848E+02 -0.13587956947E+02 -0.87895157961E+02  0.16154972342E+03  0.12500000000E+03 0.  0.
         25    1    1    2    0    0 -0.73441014617E+02  0.16065762361E+02 -0.12229173915E+04  0.12315858224E+04  0.12500000000E+03 0.  0.
         25    1    1    2    0    0  0.22813731769E+02 -0.24778054148E+01 -0.27638258865E+03  0.30420213869E+03  0.12500000000E+03 0.  0.
</event>
<event>
 5    0  0.5653588E-005  0.2701027E+03  0.7546771E-02  0.1101221E+00
         21   -1    0    0  502  501  0.00000000000E+00  0.00000000000E+00  0.25204444448E+03  0.25204444448E+03  0.00000000000E+00 0.  1.
         21   -1    0    0  501  502 -0.00000000000E+00 -0.00000000000E+00 -0.28945468541E+03  0.28945468541E+03  0.00000000000E+00 0.  1.
         25    1    1    2    0    0  0.93369049486E+02 -0.97792480047E+02 -0.99832049087E+02  0.20945783962E+03  0.12500000000E+03 0.  0.
         25    1    1    2    0    0 -0.11603517707E+03  0.10408442333E+02  0.19459142692E+02  0.17197719681E+03  0.12500000000E+03 0.  0.
         25    1    1    2    0    0  0.22666127584E+02  0.87384037713E+02  0.42962665469E+02  0.16006409345E+03  0.12500000000E+03 0.  0.
</event>
<event>
 5    0  0.5653588E-005  0.4092614E+03  0.7546771E-02  0.1040619E+00
         21   -1    0    0  502  501  0.00000000000E+00  0.00000000000E+00  0.11061357352E+04  0.11061357352E+04  0.00000000000E+00 0. -1.
         21   -1    0    0  501  502 -0.00000000000E+00 -0.00000000000E+00 -0.15142346488E+03  0.15142346488E+03  0.00000000000E+00 0. -1.
         25    1    1    2    0    0 -0.18646935429E+03  0.72172221916E+02  0.21577643625E+03  0.31963122524E+03  0.12500000000E+03 0.  0.
         25    1    1    2    0    0  0.20208215214E+03 -0.10542575064E+03  0.76244030781E+03  0.80553833434E+03  0.12500000000E+03 0.  0.
         25    1    1    2    0    0 -0.15612797843E+02  0.33253528728E+02 -0.23504473729E+02  0.13238964051E+03  0.12500000000E+03 0.  0.
</event>
<event>
 5    0  0.5653588E-005  0.3970230E+03  0.7546771E-02  0.1044815E+00
         21   -1    0    0  502  501  0.00000000000E+00  0.00000000000E+00  0.14872560467E+03  0.14872560467E+03  0.00000000000E+00 0. -1.
         21   -1    0    0  501  502 -0.00000000000E+00 -0.00000000000E+00 -0.10598528103E+04  0.10598528103E+04  0.00000000000E+00 0.  1.
         25    1    1    2    0    0 -0.12095049491E+03  0.20653481682E+03 -0.62725791845E+03  0.68290786277E+03  0.12500000000E+03 0.  0.
         25    1    1    2    0    0  0.69927243641E+02  0.45088091133E+02 -0.14259916824E+03  0.20708036640E+03  0.12500000000E+03 0.  0.
         25    1    1    2    0    0  0.51023251268E+02 -0.25162290795E+03 -0.14127011891E+03  0.31859018578E+03  0.12500000000E+03 0.  0.
</event>
<event>
 5    0  0.5653588E-005  0.2540527E+03  0.7546771E-02  0.1110770E+00
         21   -1    0    0  502  501  0.00000000000E+00  0.00000000000E+00  0.34679255784E+03  0.34679255784E+03  0.00000000000E+00 0. -1.
         21   -1    0    0  501  502 -0.00000000000E+00 -0.00000000000E+00 -0.18611346318E+03  0.18611346318E+03  0.00000000000E+00 0. -1.
         25    1    1    2    0    0 -0.23878965383E+02 -0.38238950446E+02  0.23183049708E+02  0.13488838391E+03  0.12500000000E+03 0.  0.
         25    1    1    2    0    0 -0.30804182259E+02  0.35703241948E+02 -0.69108599768E+02  0.15041481873E+03  0.12500000000E+03 0.  0.
         25    1    1    2    0    0  0.54683147642E+02  0.25357084977E+01  0.20660464472E+03  0.24760281839E+03  0.12500000000E+03 0.  0.
</event>
<event>
 5    0  0.5912811E-005  0.2677780E+03  0.7546771E-02  0.1102558E+00
         21   -1    0    0  502  501  0.00000000000E+00  0.00000000000E+00  0.18806241184E+03  0.18806241184E+03  0.00000000000E+00 0.  1.
         21   -1    0    0  501  502 -0.00000000000E+00 -0.00000000000E+00 -0.38128323844E+03  0.38128323844E+03  0.00000000000E+00 0.  1.
         25    1    1    2    0    0 -0.64152641862E+02 -0.12473165489E+03 -0.62833003064E+02  0.19810737862E+03  0.12500000000E+03 0.  0.
         25    1    1    2    0    0 -0.11723395166E+02  0.60441094277E+01 -0.13285280994E+03  0.18289023583E+03  0.12500000000E+03 0.  0.
         25    1    1    2    0    0  0.75876037029E+02  0.11868754546E+03  0.24649864072E+01  0.18834803583E+03  0.12500000000E+03 0.  0.
</event>
<event>
 5    0  0.5653588E-005  0.4740082E+03  0.7546771E-02  0.1020795E+00
         21   -1    0    0  502  501  0.00000000000E+00  0.00000000000E+00  0.50889392302E+03  0.50889392302E+03  0.00000000000E+00 0. -1.
         21   -1    0    0  501  502 -0.00000000000E+00 -0.00000000000E+00 -0.44151390960E+03  0.44151390960E+03  0.00000000000E+00 0. -1.
         25    1    1    2    0    0 -0.65063816440E+02  0.70868031934E+02 -0.40305674125E+02  0.16280394813E+03  0.12500000000E+03 0.  0.
         25    1    1    2    0    0 -0.32993058813E+03 -0.77305316393E+02  0.72725998061E+01  0.36125918069E+03  0.12500000000E+03 0.  0.
         25    1    1    2    0    0  0.39499440457E+03  0.64372844588E+01  0.10041308774E+03  0.42634470380E+03  0.12500000000E+03 0.  0.
</event>
<event>
 5    0  0.5653588E-005  0.3205595E+03  0.7546771E-02  0.1075392E+00
         21   -1    0    0  502  501  0.00000000000E+00  0.00000000000E+00  0.46993107651E+03  0.46993107651E+03  0.00000000000E+00 0. -1.
         21   -1    0    0  501  502 -0.00000000000E+00 -0.00000000000E+00 -0.21866691418E+03  0.21866691418E+03  0.00000000000E+00 0. -1.
         25    1    1    2    0    0 -0.11232183994E+03 -0.17661429257E+03  0.20686571657E+03  0.31972993098E+03  0.12500000000E+03 0.  0.
         25    1    1    2    0    0  0.89102394149E+02  0.91668019105E+02 -0.54321180303E+02  0.18686372842E+03  0.12500000000E+03 0.  0.
         25    1    1    2    0    0  0.23219445795E+02  0.84946273469E+02  0.98719626069E+02  0.18200433130E+03  0.12500000000E+03 0.  0.
</event>
<event>
 5    0  0.5657709E-005  0.2793457E+03  0.7546771E-02  0.1096047E+00
         21   -1    0    0  502  501  0.00000000000E+00  0.00000000000E+00  0.10194126697E+03  0.10194126697E+03  0.00000000000E+00 0.  1.
         21   -1    0    0  501  502 -0.00000000000E+00 -0.00000000000E+00 -0.76547998232E+03  0.76547998232E+03  0.00000000000E+00 0.  1.
         25    1    1    2    0    0 -0.99709955596E+01  0.66340555888E+02 -0.26909954070E+03  0.30420396597E+03  0.12500000000E+03 0.  0.
         25    1    1    2    0    0  0.11264368366E+03  0.76175550755E+02 -0.15602981046E+03  0.24178836976E+03  0.12500000000E+03 0.  0.
         25    1    1    2    0    0 -0.10267268810E+03 -0.14251610664E+03 -0.23840936419E+03  0.32142891355E+03  0.12500000000E+03 0.  0.
</event>
<event>
 5    0  0.5653588E-005  0.4434100E+03  0.7546771E-02  0.1029706E+00
         21   -1    0    0  502  501  0.00000000000E+00  0.00000000000E+00  0.13032668865E+03  0.13032668865E+03  0.00000000000E+00 0.  1.
         21   -1    0    0  501  502 -0.00000000000E+00 -0.00000000000E+00 -0.15086118904E+04  0.15086118904E+04  0.00000000000E+00 0.  1.
         25    1    1    2    0    0 -0.88809627834E+02 -0.25485620270E+03 -0.66076309828E+03  0.72461831753E+03  0.12500000000E+03 0.  0.
         25    1    1    2    0    0  0.18609141742E+03  0.24188071345E+03 -0.23138510986E+03  0.40286519363E+03  0.12500000000E+03 0.  0.
         25    1    1    2    0    0 -0.97281789590E+02  0.12975489247E+02 -0.48613699364E+03  0.51145506791E+03  0.12500000000E+03 0.  0.
</event>
<event>
 5    0  0.5653588E-005  0.3600857E+03  0.7546771E-02  0.1058550E+00
         21   -1    0    0  502  501  0.00000000000E+00  0.00000000000E+00  0.12709583842E+03  0.12709583842E+03  0.00000000000E+00 0.  1.
         21   -1    0    0  501  502 -0.00000000000E+00 -0.00000000000E+00 -0.10201887499E+04  0.10201887499E+04  0.00000000000E+00 0.  1.
         25    1    1    2    0    0  0.12996351628E+03 -0.52527009770E+02 -0.10712335926E+03  0.21621752107E+03  0.12500000000E+03 0.  0.
         25    1    1    2    0    0 -0.18745815066E+03  0.11053664716E+03 -0.18488856444E+03  0.31171732366E+03  0.12500000000E+03 0.  0.
         25    1    1    2    0    0  0.57494634379E+02 -0.58009637385E+02 -0.60108098777E+03  0.61934974358E+03  0.12500000000E+03 0.  0.
</event>
<event>
 5    0  0.5653588E-005  0.2354424E+03  0.7546771E-02  0.1122867E+00
         21   -1    0    0  502  501  0.00000000000E+00  0.00000000000E+00  0.86338037009E+03  0.86338037009E+03  0.00000000000E+00 0.  1.
         21   -1    0    0  501  502 -0.00000000000E+00 -0.00000000000E+00 -0.64204732279E+02  0.64204732279E+02  0.00000000000E+00 0.  1.
         25    1    1    2    0    0 -0.10961171051E+03 -0.20028412890E+02  0.40567018351E+03  0.43887260361E+03  0.12500000000E+03 0.  0.
         25    1    1    2    0    0  0.90443908697E+02 -0.23190263034E+02  0.21982052494E+03  0.26956251984E+03  0.12500000000E+03 0.  0.
         25    1    1    2    0    0  0.19167801810E+02  0.43218675924E+02  0.17368492936E+03  0.21914997892E+03  0.12500000000E+03 0.  0.
</event>
<event>
 5    0  0.5653588E-005  0.2415238E+03  0.7546771E-02  0.1118782E+00
         21   -1    0    0  502  501  0.00000000000E+00  0.00000000000E+00  0.13075822984E+04  0.13075822984E+04  0.00000000000E+00 0. -1.
         21   -1    0    0  501  502 -0.00000000000E+00 -0.00000000000E+00 -0.44611922206E+02  0.44611922206E+02  0.00000000000E+00 0. -1.
         25    1    1    2    0    0 -0.92897738242E+00 -0.36208194192E+02  0.34054951960E+03  0.36456943321E+03  0.12500000000E+03 0.  0.
         25    1    1    2    0    0  0.11056627312E+03 -0.29567561341E+02  0.52877418200E+03  0.55527135437E+03  0.12500000000E+03 0.  0.
         25    1    1    2    0    0 -0.10963729574E+03  0.65775755533E+02  0.39364667458E+03  0.43235343301E+03  0.12500000000E+03 0.  0.
</event>
<event>
 5    0  0.5653588E-005  0.4309504E+03  0.7546771E-02  0.1033560E+00
         21   -1    0    0  502  501  0.00000000000E+00  0.00000000000E+00  0.14988957970E+03  0.14988957970E+03  0.00000000000E+00 0. -1.
         21   -1    0    0  501  502 -0.00000000000E+00 -0.00000000000E+00 -0.12390336961E+04  0.12390336961E+04  0.00000000000E+00 0. -1.
         25    1    1    2    0    0 -0.62478642448E+02 -0.15075916343E+02 -0.12099766535E+03  0.18546239251E+03  0.12500000000E+03 0.  0.
         25    1    1    2    0    0  0.38611349821E+01  0.28247882426E+03 -0.80258078023E+03  0.85998261803E+03  0.12500000000E+03 0.  0.
         25    1    1    2    0    0  0.58617507466E+02 -0.26740290792E+03 -0.16556567081E+03  0.34347826524E+03  0.12500000000E+03 0.  0.
</event>
<event>
 5    0  0.5653588E-005  0.2262556E+03  0.7546771E-02  0.1129303E+00
         21   -1    0    0  502  501  0.00000000000E+00  0.00000000000E+00  0.80921521282E+02  0.80921521282E+02  0.00000000000E+00 0. -1.
         21   -1    0    0  501  502 -0.00000000000E+00 -0.00000000000E+00 -0.63260783500E+03  0.63260783500E+03  0.00000000000E+00 0. -1.
         25    1    1    2    0    0  0.42494345574E+02 -0.91563574159E+02 -0.14628205448E+03  0.21728574960E+03  0.12500000000E+03 0.  0.
         25    1    1    2    0    0  0.26435493726E+02  0.46440523585E+02 -0.17775812494E+03  0.22378227933E+03  0.12500000000E+03 0.  0.
         25    1    1    2    0    0 -0.68929839301E+02  0.45123050573E+02 -0.22764613430E+03  0.27246132735E+03  0.12500000000E+03 0.  0.
</event>
<event>
 5    0  0.5653588E-005  0.3942815E+03  0.7546771E-02  0.1045778E+00
         21   -1    0    0  502  501  0.00000000000E+00  0.00000000000E+00  0.12769849676E+04  0.12769849676E+04  0.00000000000E+00 0. -1.
         21   -1    0    0  501  502 -0.00000000000E+00 -0.00000000000E+00 -0.12173826228E+03  0.12173826228E+03  0.00000000000E+00 0. -1.
         25    1    1    2    0    0  0.15820606917E+03 -0.17077244873E+03  0.40944212241E+03  0.48729892384E+03  0.12500000000E+03 0.  0.
         25    1    1    2    0    0 -0.37095626095E+02  0.23300462951E+03  0.65113108877E+03  0.70374991127E+03  0.12500000000E+03 0.  0.
         25    1    1    2    0    0 -0.12111044308E+03 -0.62232180778E+02  0.94673494120E+02  0.20767439475E+03  0.12500000000E+03 0.  0.
</event>
<event>
 5    0  0.5653588E-005  0.3613898E+03  0.7546771E-02  0.1058035E+00
         21   -1    0    0  502  501  0.00000000000E+00  0.00000000000E+00  0.37308916244E+03  0.37308916244E+03  0.00000000000E+00 0.  1.
         21   -1    0    0  501  502 -0.00000000000E+00 -0.00000000000E+00 -0.35005724165E+03  0.35005724165E+03  0.00000000000E+00 0.  1.
         25    1    1    2    0    0 -0.20926530753E+03  0.14809310245E+03 -0.61276156758E+02  0.29172470467E+03  0.12500000000E+03 0.  0.
         25    1    1    2    0    0  0.19001070826E+03 -0.18297558167E+03  0.58650942921E+02  0.29773992988E+03  0.12500000000E+03 0.  0.
         25    1    1    2    0    0  0.19254599271E+02  0.34882479219E+02  0.25657134628E+02  0.13368176954E+03  0.12500000000E+03 0.  0.
</event>
<event>
 5    0  0.5653588E-005  0.2756831E+03  0.7546771E-02  0.1098070E+00
         21   -1    0    0  502  501  0.00000000000E+00  0.00000000000E+00  0.34141879876E+02  0.34141879876E+02  0.00000000000E+00 0.  1.
         21   -1    0    0  501  502 -0.00000000000E+00 -0.00000000000E+00 -0.22260400645E+04  0.22260400645E+04  0.00000000000E+00 0.  1.
         25    1    1    2    0    0 -0.60239911621E+02  0.11433241862E+03 -0.56084889293E+03  0.58896284229E+03  0.12500000000E+03 0.  0.
         25    1    1    2    0    0  0.29984845228E+02 -0.17852691943E+03 -0.10280711486E+04  0.10513449665E+04  0.12500000000E+03 0.  0.
         25    1    1    2    0    0  0.30255066393E+02  0.64194500812E+02 -0.60297814310E+03  0.61987413563E+03  0.12500000000E+03 0.  0.
</event>
<event>
 5    0  0.5653588E-005  0.5230159E+03  0.7546771E-02  0.1007940E+00
         21   -1    0    0  502  501  0.00000000000E+00  0.00000000000E+00  0.38100573624E+03  0.38100573624E+03  0.00000000000E+00 0.  1.
         21   -1    0    0  501  502 -0.00000000000E+00 -0.00000000000E+00 -0.71795681504E+03  0.71795681504E+03  0.00000000000E+00 0.  1.
         25    1    1    2    0    0 -0.23070744247E+02  0.25211574112E+02 -0.33839292628E+03  0.36235708254E+03  0.12500000000E+03 0.  0.
         25    1    1    2    0    0 -0.13268208019E+03  0.91839007391E+02 -0.29609087069E+03  0.35963000624E+03  0.12500000000E+03 0.  0.
         25    1    1    2    0    0  0.15575282444E+03 -0.11705058150E+03  0.29753271816E+03  0.37697546250E+03  0.12500000000E+03 0.  0.
</event>
<event>
 5    0  0.6647585E-005  0.3784074E+03  0.7546771E-02  0.1051524E+00
         21   -1    0    0  502  501  0.00000000000E+00  0.00000000000E+00  0.17903978245E+03  0.17903978245E+03  0.00000000000E+00 0. -1.
         21   -1    0    0  501  502 -0.00000000000E+00 -0.00000000000E+00 -0.79977865693E+03  0.79977865693E+03  0.00000000000E+00 0. -1.
         25    1    1    2    0    0 -0.14444885226E+03 -0.17674173138E+03 -0.13578323560E+03  0.29353909041E+03  0.12500000000E+03 0.  0.
         25    1    1    2    0    0  0.79705454153E+02  0.45722644934E+02  0.88054391156E+01  0.15539001075E+03  0.12500000000E+03 0.  0.
         25    1    1    2    0    0  0.64743398108E+02  0.13101908644E+03 -0.49376107800E+03  0.52988933822E+03  0.12500000000E+03 0.  0.
</event>
<event>
 5    0  0.5653588E-005  0.3070569E+03  0.7546771E-02  0.1081765E+00
         21   -1    0    0  502  501  0.00000000000E+00  0.00000000000E+00  0.56985815671E+02  0.56985815671E+02  0.00000000000E+00 0. -1.
         21   -1    0    0  501  502 -0.00000000000E+00 -0.00000000000E+00 -0.16545159280E+04  0.16545159280E+04  0.00000000000E+00 0. -1.
         25    1    1    2    0    0 -0.62162752238E+02 -0.13590775408E+03 -0.53249791617E+03  0.56702218308E+03  0.12500000000E+03 0.  0.
         25    1    1    2    0    0  0.13556164416E+03  0.18014504985E+03 -0.78243696936E+03  0.82380932829E+03  0.12500000000E+03 0.  0.
         25    1    1    2    0    0 -0.73398891927E+02 -0.44237295771E+02 -0.28259522679E+03  0.32067023230E+03  0.12500000000E+03 0.  0.
</event>
<event>
 5    0  0.5653588E-005  0.2780953E+03  0.7546771E-02  0.1096734E+00
         21   -1    0    0  502  501  0.00000000000E+00  0.00000000000E+00  0.67374932834E+03  0.67374932834E+03  0.00000000000E+00 0. -1.
         21   -1    0    0  501  502 -0.00000000000E+00 -0.00000000000E+00 -0.11478602363E+03  0.11478602363E+03  0.00000000000E+00 0. -1.
         25    1    1    2    0    0  0.16085180371E+02 -0.56185425280E+02  0.10120706063E+03  0.17112394386E+03  0.12500000000E+03 0.  0.
         25    1    1    2    0    0 -0.13480694143E+03 -0.72837154403E+02  0.19535321393E+03  0.27796769725E+03  0.12500000000E+03 0.  0.
         25    1    1    2    0    0  0.11872176106E+03  0.12902257968E+03  0.26240303014E+03  0.33944371086E+03  0.12500000000E+03 0.  0.
</event>
<event>
 5    0  0.6604290E-005  0.3753031E+03  0.7546771E-02  0.1052684E+00
         21   -1    0    0  502  501  0.00000000000E+00  0.00000000000E+00  0.59249762259E+03  0.59249762259E+03  0.00000000000E+00 0.  1.
         21   -1    0    0  501  502 -0.00000000000E+00 -0.00000000000E+00 -0.23772649790E+03  0.23772649790E+03  0.00000000000E+00 0.  1.
         25    1    1    2    0    0 -0.21320400138E+03  0.50961252058E+02  0.75542918360E+02  0.26340980986E+03  0.12500000000E+03 0.  0.
         25    1    1    2    0    0  0.12812644694E+03  0.75412962102E+02 -0.33568834395E+02  0.19711764990E+03  0.12500000000E+03 0.  0.
         25    1    1    2    0    0  0.85077554438E+02 -0.12637421416E+03  0.31279704073E+03  0.36969666074E+03  0.12500000000E+03 0.  0.
</event>
<event>
 5    0  0.5653588E-005  0.2486816E+03  0.7546771E-02  0.1114141E+00
         21   -1    0    0  502  501  0.00000000000E+00  0.00000000000E+00  0.32481327557E+03  0.32481327557E+03  0.00000000000E+00 0.  1.
         21   -1    0    0  501  502 -0.00000000000E+00 -0.00000000000E+00 -0.19039405352E+03  0.19039405352E+03  0.00000000000E+00 0.  1.
         25    1    1    2    0    0 -0.41208488799E+02  0.65119173927E+02  0.18973436997E+03  0.23992244061E+03  0.12500000000E+03 0.  0.
         25    1    1    2    0    0 -0.16002793406E+01 -0.27466380035E+02 -0.22685903394E+01  0.12801214563E+03  0.12500000000E+03 0.  0.
         25    1    1    2    0    0  0.42808768140E+02 -0.37652793892E+02 -0.53046557579E+02  0.14727274286E+03  0.12500000000E+03 0.  0.
</event>
<event>
 5    0  0.5653588E-005  0.4516219E+03  0.7546771E-02  0.1027239E+00
         21   -1    0    0  502  501  0.00000000000E+00  0.00000000000E+00  0.40839054805E+03  0.40839054805E+03  0.00000000000E+00 0.  1.
         21   -1    0    0  501  502 -0.00000000000E+00 -0.00000000000E+00 -0.49942971562E+03  0.49942971562E+03  0.00000000000E+00 0.  1.
         25    1    1    2    0    0  0.12885161602E+03 -0.11928379495E+02  0.25458819099E+03  0.31174536433E+03  0.12500000000E+03 0.  0.
         25    1    1    2    0    0  0.70244949364E+02  0.37580221005E+02 -0.32680255856E+03  0.35884751386E+03  0.12500000000E+03 0.  0.
         25    1    1    2    0    0 -0.19909656539E+03 -0.25651841510E+02 -0.18824799999E+02  0.23722738547E+03  0.12500000000E+03 0.  0.
</event>
<event>
 5    0  0.5653588E-005  0.3967888E+03  0.7546771E-02  0.1044897E+00
         21   -1    0    0  502  501  0.00000000000E+00  0.00000000000E+00  0.38255575155E+03  0.38255575155E+03  0.00000000000E+00 0.  1.
         21   -1    0    0  501  502 -0.00000000000E+00 -0.00000000000E+00 -0.41155131482E+03  0.41155131482E+03  0.00000000000E+00 0.  1.
         25    1    1    2    0    0  0.10162855809E+03  0.85735772135E+02  0.15355984726E+03  0.23850495411E+03  0.12500000000E+03 0.  0.
         25    1    1    2    0    0  0.61391043498E-01 -0.18698090170E+03  0.73455892329E+02  0.23660648657E+03  0.12500000000E+03 0.  0.
         25    1    1    2    0    0 -0.10168994913E+03  0.10124512957E+03 -0.25601130286E+03  0.31899562569E+03  0.12500000000E+03 0.  0.
</event>
<event>
 5    0  0.5653588E-005  0.3069534E+03  0.7546771E-02  0.1081815E+00
         21   -1    0    0  502  501  0.00000000000E+00  0.00000000000E+00  0.35947044429E+03  0.35947044429E+03  0.00000000000E+00 0. -1.
         21   -1    0    0  501  502 -0.00000000000E+00 -0.00000000000E+00 -0.26210884762E+03  0.26210884762E+03  0.00000000000E+00 0. -1.
         25    1    1    2    0    0  0.11250549008E+03  0.45723909159E+02 -0.10105154894E+03  0.20145614091E+03  0.12500000000E+03 0.  0.
         25    1    1    2    0    0  0.29855201011E+02 -0.11112168598E+03  0.91807437227E+02  0.19311387224E+03  0.12500000000E+03 0.  0.
         25    1    1    2    0    0 -0.14236069109E+03  0.65397776818E+02  0.10660570838E+03  0.22700927875E+03  0.12500000000E+03 0.  0.
</event>
<event>
 5    0  0.5653588E-005  0.2906374E+03  0.7546771E-02  0.1090017E+00
         21   -1    0    0  502  501  0.00000000000E+00  0.00000000000E+00  0.33517068018E+04  0.33517068018E+04  0.00000000000E+00 0. -1.
         21   -1    0    0  501  502 -0.00000000000E+00 -0.00000000000E+00 -0.25202111245E+02  0.25202111245E+02  0.00000000000E+00 0. -1.
         25    1    1    2    0    0 -0.16239572445E+02 -0.82223132550E+02  0.47675020705E+03  0.49994012357E+03  0.12500000000E+03 0.  0.
         25    1    1    2    0    0 -0.13724391881E+03  0.24461133156E+02  0.12386011891E+04  0.12526739983E+04  0.12500000000E+03 0.  0.
         25    1    1    2    0    0  0.15348349126E+03  0.57761999394E+02  0.16111532944E+04  0.16242947912E+04  0.12500000000E+03 0.  0.
</event>
<event>
 5    0  0.5653588E-005  0.2316852E+03  0.7546771E-02  0.1125459E+00
         21   -1    0    0  502  501  0.00000000000E+00  0.00000000000E+00  0.22460548763E+03  0.22460548763E+03  0.00000000000E+00 0. -1.
         21   -1    0    0  501  502 -0.00000000000E+00 -0.00000000000E+00 -0.23898800781E+03  0.23898800781E+03  0.00000000000E+00 0. -1.
         25    1    1    2    0    0 -0.42908703651E+02  0.46174870036E+02 -0.75549389241E+02  0.15907855194E+03  0.12500000000E+03 0.  0.
         25    1    1    2    0    0  0.23346864591E+02 -0.61787326223E+02  0.97759946208E+02  0.17188588322E+03  0.12500000000E+03 0.  0.
         25    1    1    2    0    0  0.19561839060E+02  0.15612456188E+02 -0.36593077152E+02  0.13262906028E+03  0.12500000000E+03 0.  0.
</event>
<event>
 5    0  0.5653588E-005  0.5182833E+03  0.7546771E-02  0.1009114E+00
         21   -1    0    0  502  501  0.00000000000E+00  0.00000000000E+00  0.48263893231E+03  0.48263893231E+03  0.00000000000E+00 0.  1.
         21   -1    0    0  501  502 -0.00000000000E+00 -0.00000000000E+00 -0.55656003626E+03  0.55656003626E+03  0.00000000000E+00 0.  1.
         25    1    1    2    0    0 -0.15107978055E+03 -0.16074407071E+03  0.25290030873E+03  0.35811635332E+03  0.12500000000E+03 0.  0.
         25    1    1    2    0    0 -0.44136039864E+02 -0.10882102563E+03  0.33655707490E+02  0.17477903845E+03  0.12500000000E+03 0.  0.
         25    1    1    2    0    0  0.19521582042E+03  0.26956509634E+03 -0.36047712018E+03  0.50630357680E+03  0.12500000000E+03 0.  0.
</event>
<event>
 5    0  0.5653588E-005  0.2371878E+03  0.7546771E-02  0.1121680E+00
         21   -1    0    0  502  501  0.00000000000E+00  0.00000000000E+00  0.40077115723E+03  0.40077115723E+03  0.00000000000E+00 0.  1.
         21   -1    0    0  501  502 -0.00000000000E+00 -0.00000000000E+00 -0.14037455813E+03  0.14037455813E+03  0.00000000000E+00 0.  1.
         25    1    1    2    0    0 -0.73551547472E+02  0.24464138888E+02  0.11910294294E+03  0.18925864642E+03  0.12500000000E+03 0.  0.
         25    1    1    2    0    0  0.11077794740E+01 -0.21511304119E+02  0.16216765027E+03  0.20588178689E+03  0.12500000000E+03 0.  0.
         25    1    1    2    0    0  0.72443767998E+02 -0.29528347682E+01 -0.20873994117E+02  0.14600528205E+03  0.12500000000E+03 0.  0.
</event>
<event>
 5    0  0.6192692E-005  0.5121381E+03  0.7546771E-02  0.1010658E+00
         21   -1    0    0  502  501  0.00000000000E+00  0.00000000000E+00  0.11788517119E+04  0.11788517119E+04  0.00000000000E+00 0. -1.
         21   -1    0    0  501  502 -0.00000000000E+00 -0.00000000000E+00 -0.22249227998E+03  0.22249227998E+03  0.00000000000E+00 0. -1.
         25    1    1    2    0    0  0.14381616637E+01 -0.12018264202E+03  0.81787261858E+03  0.83605415852E+03  0.12500000000E+03 0.  0.
         25    1    1    2    0    0 -0.12927694218E+02 -0.14201862948E+03 -0.75719391735E+02  0.20419315043E+03  0.12500000000E+03 0.  0.
         25    1    1    2    0    0  0.11489532555E+02  0.26220127149E+03  0.21420620504E+03  0.36109668291E+03  0.12500000000E+03 0.  0.
</event>
<event>
 5    0  0.5653588E-005  0.3437705E+03  0.7546771E-02  0.1065201E+00
         21   -1    0    0  502  501  0.00000000000E+00  0.00000000000E+00  0.86163156476E+02  0.86163156476E+02  0.00000000000E+00 0. -1.
         21   -1    0    0  501  502 -0.00000000000E+00 -0.00000000000E+00 -0.13715625518E+04  0.13715625518E+04  0.00000000000E+00 0. -1.
         25    1    1    2    0    0 -0.11619670446E+03 -0.21712565265E+03 -0.29580612644E+03  0.40468690071E+03  0.12500000000E+03 0.  0.
         25    1    1    2    0    0  0.59399492593E+02  0.60037798534E+02 -0.44300992151E+03  0.46799105497E+03  0.12500000000E+03 0.  0.
         25    1    1    2    0    0  0.56797211869E+02  0.15708785412E+03 -0.54658334733E+03  0.58504775255E+03  0.12500000000E+03 0.  0.
</event>
<event>
 5    0  0.5653588E-005  0.2444612E+03  0.7546771E-02  0.1116856E+00
         21   -1    0    0  502  501  0.00000000000E+00  0.00000000000E+00  0.45400044692E+02  0.45400044692E+02  0.00000000000E+00 0. -1.
         21   -1    0    0  501  502 -0.00000000000E+00 -0.00000000000E+00 -0.13163262358E+04  0.13163262358E+04  0.00000000000E+00 0. -1.
         25    1    1    2    0    0  0.10316505198E+03 -0.19084947565E+02 -0.27083136159E+03  0.31619912966E+03  0.12500000000E+03 0.  0.
         25    1    1    2    0    0 -0.85243443542E+02  0.67629728664E+02 -0.63166707361E+03  0.65304557019E+03  0.12500000000E+03 0.  0.
         25    1    1    2    0    0 -0.17921608443E+02 -0.48544781098E+02 -0.36842775592E+03  0.39248158065E+03  0.12500000000E+03 0.  0.
</event>
<event>
 5    0  0.5653588E-005  0.3600984E+03  0.7546771E-02  0.1058545E+00
         21   -1    0    0  502  501  0.00000000000E+00  0.00000000000E+00  0.16878521711E+04  0.16878521711E+04  0.00000000000E+00 0.  1.
         21   -1    0    0  501  502 -0.00000000000E+00 -0.00000000000E+00 -0.76825938254E+02  0.76825938254E+02  0.00000000000E+00 0.  1.
         25    1    1    2    0    0  0.18289780267E+02 -0.15604555868E+03  0.61685833154E+03  0.64870943699E+03  0.12500000000E+03 0.  0.
         25    1    1    2    0    0 -0.29065833148E+02  0.25225710286E+03  0.33716165142E+03  0.44020614237E+03  0.12500000000E+03 0.  0.
         25    1    1    2    0    0  0.10776052882E+02 -0.96211544181E+02  0.65700624991E+03  0.67576253001E+03  0.12500000000E+03 0.  0.
</event>
<event>
 5    0  0.5653588E-005  0.3097104E+03  0.7546771E-02  0.1080485E+00
         21   -1    0    0  502  501  0.00000000000E+00  0.00000000000E+00  0.22151027074E+04  0.22151027074E+04  0.00000000000E+00 0. -1.
         21   -1    0    0  501  502 -0.00000000000E+00 -0.00000000000E+00 -0.43302968860E+02  0.43302968860E+02  0.00000000000E+00 0. -1.
         25    1    1    2    0    0 -0.19239042801E+02 -0.20307954501E+02  0.16317029380E+04  0.16367229550E+04  0.12500000000E+03 0.  0.
         25    1    1    2    0    0  0.33866915912E+02  0.73647881279E+02  0.16425328462E+03  0.22175463900E+03  0.12500000000E+03 0.  0.
         25    1    1    2    0    0 -0.14627873111E+02 -0.53339926778E+02  0.37584351592E+03  0.39992808218E+03  0.12500000000E+03 0.  0.
</event>
<event>
 5    0  0.5653588E-005  0.2909973E+03  0.7546771E-02  0.1089830E+00
         21   -1    0    0  502  501  0.00000000000E+00  0.00000000000E+00  0.12122933240E+04  0.12122933240E+04  0.00000000000E+00 0.  1.
         21   -1    0    0  501  502 -0.00000000000E+00 -0.00000000000E+00 -0.69850615313E+02  0.69850615313E+02  0.00000000000E+00 0.  1.
         25    1    1    2    0    0  0.16523419097E+03 -0.75335257167E+02  0.63724083638E+03  0.67429861514E+03  0.12500000000E+03 0.  0.
         25    1    1    2    0    0 -0.10394967631E+03  0.88300460405E+02  0.36834453709E+03  0.41219559013E+03  0.12500000000E+03 0.  0.
         25    1    1    2    0    0 -0.61284514665E+02 -0.12965203237E+02  0.13685733525E+03  0.19564973408E+03  0.12500000000E+03 0.  0.
</event>
<event>
 5    0  0.5653588E-005  0.2474110E+03  0.7546771E-02  0.1114952E+00
         21   -1    0    0  502  501  0.00000000000E+00  0.00000000000E+00  0.14927146634E+03  0.14927146634E+03  0.00000000000E+00 0.  1.
         21   -1    0    0  501  502 -0.00000000000E+00 -0.00000000000E+00 -0.41007298937E+03  0.41007298937E+03  0.00000000000E+00 0.  1.
         25    1    1    2    0    0 -0.55500319577E+01  0.18931936610E+02 -0.49370019585E+02  0.13583673992E+03  0.12500000000E+03 0.  0.
         25    1    1    2    0    0  0.25047444272E+02 -0.13955544760E+03 -0.82176475878E+02  0.20610936565E+03  0.12500000000E+03 0.  0.
         25    1    1    2    0    0 -0.19497412314E+02  0.12062351099E+03 -0.12925502756E+03  0.21739835014E+03  0.12500000000E+03 0.  0.
</event>
<event>
 5    0  0.5653588E-005  0.4916577E+03  0.7546771E-02  0.1015980E+00
         21   -1    0    0  502  501  0.00000000000E+00  0.00000000000E+00  0.19953271647E+03  0.19953271647E+03  0.00000000000E+00 0.  1.
         21   -1    0    0  501  502 -0.00000000000E+00 -0.00000000000E+00 -0.12114668904E+04  0.12114668904E+04  0.00000000000E+00 0.  1.
         25    1    1    2    0    0  0.93107686956E+02  0.11206174367E+03 -0.58149289617E+02  0.20058219175E+03  0.12500000000E+03 0.  0.
         25    1    1    2    0    0 -0.25431234336E+03 -0.16575057741E+03 -0.11867558856E+03  0.34908010143E+03  0.12500000000E+03 0.  0.
         25    1    1    2    0    0  0.16120465640E+03  0.53688833739E+02 -0.83510929578E+03  0.86133731372E+03  0.12500000000E+03 0.  0.
</event>
<event>
 5    0  0.5653588E-005  0.2829788E+03  0.7546771E-02  0.1094073E+00
         21   -1    0    0  502  501  0.00000000000E+00  0.00000000000E+00  0.57527748840E+02  0.57527748840E+02  0.00000000000E+00 0.  1.
         21   -1    0    0  501  502 -0.00000000000E+00 -0.00000000000E+00 -0.13919712961E+04  0.13919712961E+04  0.00000000000E+00 0.  1.
         25    1    1    2    0    0  0.14426344256E+03 -0.48990929258E+02 -0.25562170263E+03  0.32276850352E+03  0.12500000000E+03 0.  0.
         25    1    1    2    0    0 -0.66261038520E+02 -0.40523166349E+02 -0.39540308837E+03  0.42190194895E+03  0.12500000000E+03 0.  0.
         25    1    1    2    0    0 -0.78002404044E+02  0.89514095608E+02 -0.68341875624E+03  0.70482859245E+03  0.12500000000E+03 0.  0.
</event>
<event>
 5    0  0.6883656E-005  0.2993000E+03  0.7546771E-02  0.1085591E+00
         21   -1    0    0  502  501  0.00000000000E+00  0.00000000000E+00  0.20400505585E+03  0.20400505585E+03  0.00000000000E+00 0. -1.
         21   -1    0    0  501  502 -0.00000000000E+00 -0.00000000000E+00 -0.43910927168E+03  0.43910927168E+03  0.00000000000E+00 0. -1.
         25    1    1    2    0    0  0.71642011120E+02  0.71051369789E+02 -0.73354103504E+00  0.16064374556E+03  0.12500000000E+03 0.  0.
         25    1    1    2    0    0 -0.42311245794E+01 -0.33660091136E+02  0.68026161834E+02  0.14629922366E+03  0.12500000000E+03 0.  0.
         25    1    1    2    0    0 -0.67410886541E+02 -0.37391278653E+02 -0.30239683662E+03  0.33617135830E+03  0.12500000000E+03 0.  0.
</event>
<event>
 5    0  0.5653588E-005  0.6847308E+03  0.7546771E-02  0.9743707E-01
         21   -1    0    0  502  501  0.00000000000E+00  0.00000000000E+00  0.12836482126E+04  0.12836482126E+04  0.00000000000E+00 0. -1.
         21   -1    0    0  501  502 -0.00000000000E+00 -0.00000000000E+00 -0.36525295760E+03  0.36525295760E+03  0.00000000000E+00 0. -1.
         25    1    1    2    0    0  0.17175792673E+02  0.16550499537E+03  0.10494351371E+04  0.10698719635E+04  0.12500000000E+03 0.  0.
         25    1    1    2    0    0  0.66089677723E+02  0.39271004153E+02  0.14335802058E+03  0.20515013852E+03  0.12500000000E+03 0.  0.
         25    1    1    2    0    0 -0.83265470396E+02 -0.20477599952E+03 -0.27439790274E+03  0.37387906811E+03  0.12500000000E+03 0.  0.
</event>
<event>
 5    0  0.5653588E-005  0.3352700E+03  0.7546771E-02  0.1068829E+00
         21   -1    0    0  502  501  0.00000000000E+00  0.00000000000E+00  0.43380559132E+03  0.43380559132E+03  0.00000000000E+00 0.  1.
         21   -1    0    0  501  502 -0.00000000000E+00 -0.00000000000E+00 -0.25911602435E+03  0.25911602435E+03  0.00000000000E+00 0.  1.
         25    1    1    2    0    0 -0.18903267318E+03  0.55699523517E+02  0.30557776061E+02  0.23536050248E+03  0.12500000000E+03 0.  0.
         25    1    1    2    0    0  0.22229611883E+03  0.44150785768E+01  0.17790234839E+03  0.31098119384E+03  0.12500000000E+03 0.  0.
         25    1    1    2    0    0 -0.33263445640E+02 -0.60114602094E+02 -0.33770557484E+02  0.14657991934E+03  0.12500000000E+03 0.  0.
</event>
<event>
 5    0  0.5653588E-005  0.2861144E+03  0.7546771E-02  0.1092395E+00
         21   -1    0    0  502  501  0.00000000000E+00  0.00000000000E+00  0.17473361544E+03  0.17473361544E+03  0.00000000000E+00 0. -1.
         21   -1    0    0  501  502 -0.00000000000E+00 -0.00000000000E+00 -0.46849278681E+03  0.46849278681E+03  0.00000000000E+00 0. -1.
         25    1    1    2    0    0 -0.13166270355E+02 -0.52734872562E+02 -0.58713381124E+02  0.14841353908E+03  0.12500000000E+03 0.  0.
         25    1    1    2    0    0  0.12795747647E+02 -0.25671829658E+02 -0.30547935045E+03  0.33130862885E+03  0.12500000000E+03 0.  0.
         25    1    1    2    0    0  0.37052270823E+00  0.78406702220E+02  0.70433560207E+02  0.16350423433E+03  0.12500000000E+03 0.  0.
</event>
<event>
 5    0  0.5977561E-005  0.2639982E+03  0.7546771E-02  0.1104765E+00
         21   -1    0    0  502  501  0.00000000000E+00  0.00000000000E+00  0.14149906724E+03  0.14149906724E+03  0.00000000000E+00 0. -1.
         21   -1    0    0  501  502 -0.00000000000E+00 -0.00000000000E+00 -0.49254781869E+03  0.49254781869E+03  0.00000000000E+00 0. -1.
         25    1    1    2    0    0 -0.25767658950E+02 -0.71468217894E+02 -0.85442264974E+02  0.16940206333E+03  0.12500000000E+03 0.  0.
         25    1    1    2    0    0  0.15317990031E+01  0.48580614840E+02 -0.30184245098E+03  0.33029727180E+03  0.12500000000E+03 0.  0.
         25    1    1    2    0    0  0.24235859947E+02  0.22887603054E+02  0.36235964500E+02  0.13434755079E+03  0.12500000000E+03 0.  0.
</event>
<event>
 5    0  0.5653588E-005  0.4459841E+03  0.7546771E-02  0.1028926E+00
         21   -1    0    0  502  501  0.00000000000E+00  0.00000000000E+00  0.11709951424E+03  0.11709951424E+03  0.00000000000E+00 0.  1.
         21   -1    0    0  501  502 -0.00000000000E+00 -0.00000000000E+00 -0.16985705635E+04  0.16985705635E+04  0.00000000000E+00 0.  1.
         25    1    1    2    0    0  0.23988358823E+03 -0.47271344407E+02 -0.35772265911E+03  0.45096476219E+03  0.12500000000E+03 0.  0.
         25    1    1    2    0    0 -0.28993332672E+02 -0.18227842753E+03 -0.76067839198E+03  0.79266806074E+03  0.12500000000E+03 0.  0.
         25    1    1    2    0    0 -0.21089025555E+03  0.22954977194E+03 -0.46306999817E+03  0.57203725481E+03  0.12500000000E+03 0.  0.
</event>
<event>
 5    0  0.5653588E-005  0.4180523E+03  0.7546771E-02  0.1037702E+00
         21   -1    0    0  502  501  0.00000000000E+00  0.00000000000E+00  0.64130409403E+03  0.64130409403E+03  0.00000000000E+00 0. -1.
         21   -1    0    0  501  502 -0.00000000000E+00 -0.00000000000E+00 -0.27251929895E+03  0.27251929895E+03  0.00000000000E+00 0. -1.
         25    1    1    2    0    0 -0.10203643161E+03 -0.84824154583E+02  0.33188144346E+03  0.37865137408E+03  0.12500000000E+03 0.  0.
         25    1    1    2    0    0 -0.14905114898E+03 -0.58169596121E+02 -0.48930948533E+02  0.20885206403E+03  0.12500000000E+03 0.  0.
         25    1    1    2    0    0  0.25108758059E+03  0.14299375070E+03  0.85834300157E+02  0.32631995487E+03  0.12500000000E+03 0.  0.
</event>
<event>
 5    0  0.5653588E-005  0.2702927E+03  0.7546771E-02  0.1101112E+00
         21   -1    0    0  502  501  0.00000000000E+00  0.00000000000E+00  0.16027863783E+03  0.16027863783E+03  0.00000000000E+00 0. -1.
         21   -1    0    0  501  502 -0.00000000000E+00 -0.00000000000E+00 -0.45581973132E+03  0.45581973132E+03  0.00000000000E+00 0. -1.
         25    1    1    2    0    0  0.89832060211E+02 -0.48932231312E+02 -0.12965921041E+03  0.20712477676E+03  0.12500000000E+03 0.  0.
         25    1    1    2    0    0 -0.12548551920E+02  0.10878448854E+03 -0.18553635213E+03  0.24907884106E+03  0.12500000000E+03 0.  0.
         25    1    1    2    0    0 -0.77283508291E+02 -0.59852257231E+02  0.19654469046E+02  0.15989475133E+03  0.12500000000E+03 0.  0.
</event>
<event>
 5    0  0.6535717E-005  0.3118652E+03  0.7546771E-02  0.1079455E+00
         21   -1    0    0  502  501  0.00000000000E+00  0.00000000000E+00  0.35263126829E+03  0.35263126829E+03  0.00000000000E+00 0.  1.
         21   -1    0    0  501  502 -0.00000000000E+00 -0.00000000000E+00 -0.27581195925E+03  0.27581195925E+03  0.00000000000E+00 0.  1.
         25    1    1    2    0    0 -0.44133568922E+02 -0.99405903313E+01  0.17105735559E+03  0.21663842260E+03  0.12500000000E+03 0.  0.
         25    1    1    2    0    0 -0.18412584201E+02  0.14174430733E+03  0.15569554495E+02  0.19052003292E+03  0.12500000000E+03 0.  0.
         25    1    1    2    0    0  0.62546153123E+02 -0.13180371700E+03 -0.10980760105E+03  0.22128477203E+03  0.12500000000E+03 0.  0.
</event>
<event>
 5    0  0.5653588E-005  0.7096455E+03  0.7546771E-02  0.9700878E-01
         21   -1    0    0  502  501  0.00000000000E+00  0.00000000000E+00  0.10078404474E+04  0.10078404474E+04  0.00000000000E+00 0.  1.
         21   -1    0    0  501  502 -0.00000000000E+00 -0.00000000000E+00 -0.49967896063E+03  0.49967896063E+03  0.00000000000E+00 0. -1.
         25    1    1    2    0    0  0.16980768358E+02 -0.12528283372E+03  0.25636153914E+03  0.31197816217E+03  0.12500000000E+03 0.  0.
         25    1    1    2    0    0  0.29488273099E+03 -0.19832279580E+03 -0.29378042484E+03  0.47772344969E+03  0.12500000000E+03 0.  0.
         25    1    1    2    0    0 -0.31186349935E+03  0.32360562952E+03  0.54558037247E+03  0.71781779618E+03  0.12500000000E+03 0.  0.
</event>
<event>
 5    0  0.5653588E-005  0.5055268E+03  0.7546771E-02  0.1012346E+00
         21   -1    0    0  502  501  0.00000000000E+00  0.00000000000E+00  0.12734580986E+03  0.12734580986E+03  0.00000000000E+00 0. -1.
         21   -1    0    0  501  502 -0.00000000000E+00 -0.00000000000E+00 -0.20067982642E+04  0.20067982642E+04  0.00000000000E+00 0. -1.
         25    1    1    2    0    0  0.80142740578E+02  0.40318109220E+03 -0.52754914380E+03  0.68037559561E+03  0.12500000000E+03 0.  0.
         25    1    1    2    0    0  0.46142557498E+02 -0.27577129586E+03 -0.92059265300E+03  0.97020347143E+03  0.12500000000E+03 0.  0.
         25    1    1    2    0    0 -0.12628529808E+03 -0.12740979634E+03 -0.43131065759E+03  0.48356500707E+03  0.12500000000E+03 0.  0.
</event>
<event>
 5    0  0.5653588E-005  0.2691700E+03  0.7546771E-02  0.1101756E+00
         21   -1    0    0  502  501  0.00000000000E+00  0.00000000000E+00  0.27327698787E+03  0.27327698787E+03  0.00000000000E+00 0.  1.
         21   -1    0    0  501  502 -0.00000000000E+00 -0.00000000000E+00 -0.26512466875E+03  0.26512466875E+03  0.00000000000E+00 0.  1.
         25    1    1    2    0    0 -0.10017843981E+03 -0.54690135138E+02 -0.43444857861E+01  0.16932396535E+03  0.12500000000E+03 0.  0.
         25    1    1    2    0    0  0.95063495626E+02  0.12875933882E+03  0.66946290488E+02  0.21382900024E+03  0.12500000000E+03 0.  0.
         25    1    1    2    0    0  0.51149441869E+01 -0.74069203685E+02 -0.54449485581E+02  0.15524869104E+03  0.12500000000E+03 0.  0.
</event>
<event>
 5    0  0.5653588E-005  0.3775138E+03  0.7546771E-02  0.1051856E+00
         21   -1    0    0  502  501  0.00000000000E+00  0.00000000000E+00  0.19247947177E+03  0.19247947177E+03  0.00000000000E+00 0. -1.
         21   -1    0    0  501  502 -0.00000000000E+00 -0.00000000000E+00 -0.74042543442E+03  0.74042543442E+03  0.00000000000E+00 0. -1.
         25    1    1    2    0    0 -0.26340668765E+03  0.14492939306E+03 -0.34134325823E+03  0.47172855755E+03  0.12500000000E+03 0.  0.
         25    1    1    2    0    0  0.61002733542E+02 -0.87005076014E+02 -0.11223271224E+03  0.19877725838E+03  0.12500000000E+03 0.  0.
         25    1    1    2    0    0  0.20240395410E+03 -0.57924317050E+02 -0.94369992185E+02  0.26239909026E+03  0.12500000000E+03 0.  0.
</event>
<event>
 5    0  0.5653588E-005  0.2949226E+03  0.7546771E-02  0.1087807E+00
         21   -1    0    0  502  501  0.00000000000E+00  0.00000000000E+00  0.54360978723E+03  0.54360978723E+03  0.00000000000E+00 0.  1.
         21   -1    0    0  501  502 -0.00000000000E+00 -0.00000000000E+00 -0.16000330850E+03  0.16000330850E+03  0.00000000000E+00 0.  1.
         25    1    1    2    0    0 -0.94499159602E+02  0.93788054900E+02  0.11873792614E+03  0.21783017585E+03  0.12500000000E+03 0.  0.
         25    1    1    2    0    0  0.89383446734E+02  0.22782436147E+02 -0.16818148510E+02  0.15625712805E+03  0.12500000000E+03 0.  0.
         25    1    1    2    0    0  0.51157128688E+01 -0.11657049105E+03  0.28168670110E+03  0.32952579183E+03  0.12500000000E+03 0.  0.
</event>
<event>
 5    0  0.5653588E-005  0.2647788E+03  0.7546771E-02  0.1104306E+00
         21   -1    0    0  502  501  0.00000000000E+00  0.00000000000E+00  0.13124815229E+04  0.13124815229E+04  0.00000000000E+00 0.  1.
         21   -1    0    0  501  502 -0.00000000000E+00 -0.00000000000E+00 -0.53416212988E+02  0.53416212988E+02  0.00000000000E+00 0.  1.
         25    1    1    2    0    0  0.12084684529E+01  0.30210383765E+02  0.51959402333E+03  0.53527289933E+03  0.12500000000E+03 0.  0.
         25    1    1    2    0    0 -0.97656216203E+02  0.14166170526E+01  0.58989269401E+03  0.61084951814E+03  0.12500000000E+03 0.  0.
         25    1    1    2    0    0  0.96447747750E+02 -0.31627000818E+02  0.14957859257E+03  0.21977531841E+03  0.12500000000E+03 0.  0.
</event>
<event>
 5    0  0.5653588E-005  0.2709141E+03  0.7546771E-02  0.1100758E+00
         21   -1    0    0  502  501  0.00000000000E+00  0.00000000000E+00  0.39458125616E+03  0.39458125616E+03  0.00000000000E+00 0.  1.
         21   -1    0    0  501  502 -0.00000000000E+00 -0.00000000000E+00 -0.18600589710E+03  0.18600589710E+03  0.00000000000E+00 0.  1.
         25    1    1    2    0    0  0.97873624106E+02 -0.15354031433E+03  0.11278366971E+03  0.24798998079E+03  0.12500000000E+03 0.  0.
         25    1    1    2    0    0 -0.79116997789E+02  0.99208437099E+02  0.32107190136E+02  0.18099084228E+03  0.12500000000E+03 0.  0.
         25    1    1    2    0    0 -0.18756626318E+02  0.54331877233E+02  0.63684499214E+02  0.15160633019E+03  0.12500000000E+03 0.  0.
</event>
<event>
 5    0  0.5653588E-005  0.3344118E+03  0.7546771E-02  0.1069201E+00
         21   -1    0    0  502  501  0.00000000000E+00  0.00000000000E+00  0.15809549933E+03  0.15809549933E+03  0.00000000000E+00 0. -1.
         21   -1    0    0  501  502 -0.00000000000E+00 -0.00000000000E+00 -0.70736533373E+03  0.70736533373E+03  0.00000000000E+00 0. -1.
         25    1    1    2    0    0  0.29325264035E+02 -0.10951626167E+03 -0.50491604110E+03  0.53237110294E+03  0.12500000000E+03 0.  0.
         25    1    1    2    0    0  0.43265811075E+02  0.10412487182E+02  0.40004055467E+02  0.13858454009E+03  0.12500000000E+03 0.  0.
         25    1    1    2    0    0 -0.72591075110E+02  0.99103774487E+02 -0.84357848763E+02  0.19450519004E+03  0.12500000000E+03 0.  0.
</event>
<event>
 5    0  0.5653588E-005  0.2487617E+03  0.7546771E-02  0.1114090E+00
         21   -1    0    0  502  501  0.00000000000E+00  0.00000000000E+00  0.30329298046E+02  0.30329298046E+02  0.00000000000E+00 0. -1.
         21   -1    0    0  501  502 -0.00000000000E+00 -0.00000000000E+00 -0.20403497598E+04  0.20403497598E+04  0.00000000000E+00 0. -1.
         25    1    1    2    0    0 -0.88619764494E+01 -0.16886811494E+02 -0.20460424660E+03  0.24052358877E+03  0.12500000000E+03 0.  0.
         25    1    1    2    0    0 -0.58616543483E+00  0.88945402367E+02 -0.10317437099E+04  0.10430875855E+04  0.12500000000E+03 0.  0.
         25    1    1    2    0    0  0.94481418842E+01 -0.72058590873E+02 -0.77367250526E+03  0.78706788354E+03  0.12500000000E+03 0.  0.
</event>
<event>
 5    0  0.5653588E-005  0.3073025E+03  0.7546771E-02  0.1081646E+00
         21   -1    0    0  502  501  0.00000000000E+00  0.00000000000E+00  0.52962129006E+03  0.52962129006E+03  0.00000000000E+00 0.  1.
         21   -1    0    0  501  502 -0.00000000000E+00 -0.00000000000E+00 -0.17830627856E+03  0.17830627856E+03  0.00000000000E+00 0.  1.
         25    1    1    2    0    0 -0.10620012648E+03 -0.22841459215E+02  0.13360211352E+03  0.21277857942E+03  0.12500000000E+03 0.  0.
         25    1    1    2    0    0  0.95053255401E+02 -0.61101341326E+02 -0.60148486295E+02  0.17891711958E+03  0.12500000000E+03 0.  0.
         25    1    1    2    0    0  0.11146871078E+02  0.83942800541E+02  0.27786138427E+03  0.31623186962E+03  0.12500000000E+03 0.  0.
</event>
<event>
 5    0  0.5653588E-005  0.2820999E+03  0.7546771E-02  0.1094548E+00
         21   -1    0    0  502  501  0.00000000000E+00  0.00000000000E+00  0.49376585352E+03  0.49376585352E+03  0.00000000000E+00 0.  1.
         21   -1    0    0  501  502 -0.00000000000E+00 -0.00000000000E+00 -0.16117019522E+03  0.16117019522E+03  0.00000000000E+00 0.  1.
         25    1    1    2    0    0 -0.26469798232E+02 -0.94672439090E+02  0.16232381848E+03  0.22723895570E+03  0.12500000000E+03 0.  0.
         25    1    1    2    0    0  0.14778343434E+03  0.94333428276E+02  0.11949362227E+03  0.24625690837E+03  0.12500000000E+03 0.  0.
         25    1    1    2    0    0 -0.12131363611E+03  0.33901081411E+00  0.50778217538E+02  0.18144018467E+03  0.12500000000E+03 0.  0.
</event>
<event>
 5    0  0.5653588E-005  0.2396954E+03  0.7546771E-02  0.1119996E+00
         21   -1    0    0  502  501  0.00000000000E+00  0.00000000000E+00  0.27536398003E+03  0.27536398003E+03  0.00000000000E+00 0.  1.
         21   -1    0    0  501  502 -0.00000000000E+00 -0.00000000000E+00 -0.20864711528E+03  0.20864711528E+03  0.00000000000E+00 0.  1.
         25    1    1    2    0    0  0.97937799280E+02 -0.23189656341E+02 -0.29885488568E+02  0.16324127884E+03  0.12500000000E+03 0.  0.
         25    1    1    2    0    0  0.26623993303E+02  0.17533089601E+02  0.33563666515E+02  0.13329578373E+03  0.12500000000E+03 0.  0.
         25    1    1    2    0    0 -0.12456179258E+03  0.56565667405E+01  0.63038686797E+02  0.18747403274E+03  0.12500000000E+03 0.  0.
</event>
<event>
 5    0  0.5653588E-005  0.5106781E+03  0.7546771E-02  0.1011029E+00
         21   -1    0    0  502  501  0.00000000000E+00  0.00000000000E+00  0.74841895103E+03  0.74841895103E+03  0.00000000000E+00 0. -1.
         21   -1    0    0  501  502 -0.00000000000E+00 -0.00000000000E+00 -0.34845737192E+03  0.34845737192E+03  0.00000000000E+00 0. -1.
         25    1    1    2    0    0 -0.14395936549E+03  0.32809602715E+03  0.22750433020E+01  0.37947526634E+03  0.12500000000E+03 0.  0.
         25    1    1    2    0    0  0.10973905807E+02  0.56257225367E+02  0.21306417286E+03  0.25358754656E+03  0.12500000000E+03 0.  0.
         25    1    1    2    0    0  0.13298545968E+03 -0.38435325251E+03  0.18462236295E+03  0.46381351005E+03  0.12500000000E+03 0.  0.
</event>
<event>
 5    0  0.5653588E-005  0.3489242E+03  0.7546771E-02  0.1063057E+00
         21   -1    0    0  502  501  0.00000000000E+00  0.00000000000E+00  0.14214775492E+03  0.14214775492E+03  0.00000000000E+00 0.  1.
         21   -1    0    0  501  502 -0.00000000000E+00 -0.00000000000E+00 -0.85648966774E+03  0.85648966774E+03  0.00000000000E+00 0.  1.
         25    1    1    2    0    0 -0.33746368269E+02 -0.37169669822E+02 -0.71291725267E+02  0.15240705961E+03  0.12500000000E+03 0.  0.
         25    1    1    2    0    0 -0.15761162823E+03  0.16267169522E+03 -0.18119086839E+03  0.31584590637E+03  0.12500000000E+03 0.  0.
         25    1    1    2    0    0  0.19135799650E+03 -0.12550202540E+03 -0.46185931916E+03  0.53038445669E+03  0.12500000000E+03 0.  0.
</event>
<event>
 5    0  0.5653588E-005  0.2956193E+03  0.7546771E-02  0.1087451E+00
         21   -1    0    0  502  501  0.00000000000E+00  0.00000000000E+00  0.34327222596E+03  0.34327222596E+03  0.00000000000E+00 0.  1.
         21   -1    0    0  501  502 -0.00000000000E+00 -0.00000000000E+00 -0.25458151537E+03  0.25458151537E+03  0.00000000000E+00 0.  1.
         25    1    1    2    0    0 -0.16827618939E+03 -0.37776861067E+02 -0.39223931729E+02  0.21658135646E+03  0.12500000000E+03 0.  0.
         25    1    1    2    0    0  0.58166846360E+02 -0.57276613604E+02 -0.25431492760E+01  0.14931664371E+03  0.12500000000E+03 0.  0.
         25    1    1    2    0    0  0.11010934303E+03  0.95053474671E+02  0.13045779159E+03  0.23195574116E+03  0.12500000000E+03 0.  0.
</event>
<event>
 5    0  0.5653588E-005  0.2378742E+03  0.7546771E-02  0.1121217E+00
         21   -1    0    0  502  501  0.00000000000E+00  0.00000000000E+00  0.40641646059E+02  0.40641646059E+02  0.00000000000E+00 0. -1.
         21   -1    0    0  501  502 -0.00000000000E+00 -0.00000000000E+00 -0.13922702893E+04  0.13922702893E+04  0.00000000000E+00 0. -1.
         25    1    1    2    0    0  0.58648450136E+02  0.51860320390E+00 -0.22063758502E+03  0.26028033652E+03  0.12500000000E+03 0.  0.
         25    1    1    2    0    0  0.29364596753E+02  0.43938090458E+02 -0.70317112570E+03  0.71614765751E+03  0.12500000000E+03 0.  0.
         25    1    1    2    0    0 -0.88013046889E+02 -0.44456693662E+02 -0.42781993249E+03  0.45648394131E+03  0.12500000000E+03 0.  0.
</event>
<event>
 5    0  0.5653588E-005  0.3216607E+03  0.7546771E-02  0.1074888E+00
         21   -1    0    0  502  501  0.00000000000E+00  0.00000000000E+00  0.21834967245E+03  0.21834967245E+03  0.00000000000E+00 0. -1.
         21   -1    0    0  501  502 -0.00000000000E+00 -0.00000000000E+00 -0.47385276292E+03  0.47385276292E+03  0.00000000000E+00 0. -1.
         25    1    1    2    0    0  0.15517567312E+03 -0.25184654119E+02 -0.23017269590E+03  0.30548032059E+03  0.12500000000E+03 0.  0.
         25    1    1    2    0    0 -0.20907283029E+03  0.29979740007E+02  0.11250671017E+02  0.24568640739E+03  0.12500000000E+03 0.  0.
         25    1    1    2    0    0  0.53897157174E+02 -0.47950858877E+01 -0.36581065586E+02  0.14103570739E+03  0.12500000000E+03 0.  0.
</event>
<event>
 5    0  0.5653588E-005  0.3508413E+03  0.7546771E-02  0.1062270E+00
         21   -1    0    0  502  501  0.00000000000E+00  0.00000000000E+00  0.36146008418E+03  0.36146008418E+03  0.00000000000E+00 0. -1.
         21   -1    0    0  501  502 -0.00000000000E+00 -0.00000000000E+00 -0.34053443402E+03  0.34053443402E+03  0.00000000000E+00 0. -1.
         25    1    1    2    0    0 -0.42541353833E+02 -0.46660649789E+02 -0.46894392455E+01  0.14012128270E+03  0.12500000000E+03 0.  0.
         25    1    1    2    0    0  0.10907474609E+03  0.10301304426E+03  0.23331704534E+03  0.30425454995E+03  0.12500000000E+03 0.  0.
         25    1    1    2    0    0 -0.66533392259E+02 -0.56352394475E+02 -0.20770195593E+03  0.25761868555E+03  0.12500000000E+03 0.  0.
</event>
<event>
 5    0  0.5653588E-005  0.5757994E+03  0.7546771E-02  0.9956927E-01
         21   -1    0    0  502  501  0.00000000000E+00  0.00000000000E+00  0.27036674884E+03  0.27036674884E+03  0.00000000000E+00 0.  1.
         21   -1    0    0  501  502 -0.00000000000E+00 -0.00000000000E+00 -0.12262783597E+04  0.12262783597E+04  0.00000000000E+00 0.  1.
         25    1    1    2    0    0  0.12027675909E+03 -0.11984821938E+03  0.22697793145E+01  0.21085598489E+03  0.12500000000E+03 0.  0.
         25    1    1    2    0    0 -0.26991346446E+03 -0.56837213871E+02 -0.11318004859E+02  0.30304594439E+03  0.12500000000E+03 0.  0.
         25    1    1    2    0    0  0.14963670538E+03  0.17668543325E+03 -0.94686338528E+03  0.98274317922E+03  0.12500000000E+03 0.  0.
</event>
<event>
 5    0  0.5653588E-005  0.2569616E+03  0.7546771E-02  0.1108983E+00
         21   -1    0    0  502  501  0.00000000000E+00  0.00000000000E+00  0.12633669049E+03  0.12633669049E+03  0.00000000000E+00 0. -1.
         21   -1    0    0  501  502 -0.00000000000E+00 -0.00000000000E+00 -0.52264508149E+03  0.52264508149E+03  0.00000000000E+00 0. -1.
         25    1    1    2    0    0 -0.76270906466E+02 -0.44769459752E+02 -0.45352928735E+02  0.15969797696E+03  0.12500000000E+03 0.  0.
         25    1    1    2    0    0  0.49584382570E+02  0.11209704764E+03 -0.10529779964E+03  0.20429631836E+03  0.12500000000E+03 0.  0.
         25    1    1    2    0    0  0.26686523896E+02 -0.67327587888E+02 -0.24565766262E+03  0.28498747666E+03  0.12500000000E+03 0.  0.
</event>
<event>
 5    0  0.5653588E-005  0.5970287E+03  0.7546771E-02  0.9911590E-01
         21   -1    0    0  502  501  0.00000000000E+00  0.00000000000E+00  0.31906170432E+03  0.31906170432E+03  0.00000000000E+00 0. -1.
         21   -1    0    0  501  502 -0.00000000000E+00 -0.00000000000E+00 -0.11171608195E+04  0.11171608195E+04  0.00000000000E+00 0. -1.
         25    1    1    2    0    0  0.32623042095E+03  0.69609867155E+02 -0.75922972708E+03  0.83864569375E+03  0.12500000000E+03 0.  0.
         25    1    1    2    0    0 -0.13916845537E+03 -0.39349048696E+02  0.19400886679E+03  0.27236124357E+03  0.12500000000E+03 0.  0.
         25    1    1    2    0    0 -0.18706196559E+03 -0.30260818460E+02 -0.23287825489E+03  0.32521558650E+03  0.12500000000E+03 0.  0.
</event>
<event>
 5    0  0.5653588E-005  0.3403412E+03  0.7546771E-02  0.1066651E+00
         21   -1    0    0  502  501  0.00000000000E+00  0.00000000000E+00  0.28184901478E+03  0.28184901478E+03  0.00000000000E+00 0.  1.
         21   -1    0    0  501  502 -0.00000000000E+00 -0.00000000000E+00 -0.41097226970E+03  0.41097226970E+03  0.00000000000E+00 0.  1.
         25    1    1    2    0    0 -0.15096344018E+03  0.57906428338E+02 -0.26877219514E+03  0.33764864518E+03  0.12500000000E+03 0.  0.
         25    1    1    2    0    0  0.10004061396E+03 -0.92765698922E+02  0.59483282056E+02  0.19436270265E+03  0.12500000000E+03 0.  0.
         25    1    1    2    0    0  0.50922826219E+02  0.34859270584E+02  0.80165658157E+02  0.16080993664E+03  0.12500000000E+03 0.  0.
</event>
<event>
 5    0  0.5653588E-005  0.3429656E+03  0.7546771E-02  0.1065540E+00
         21   -1    0    0  502  501  0.00000000000E+00  0.00000000000E+00  0.14730178977E+03  0.14730178977E+03  0.00000000000E+00 0. -1.
         21   -1    0    0  501  502 -0.00000000000E+00 -0.00000000000E+00 -0.79853360917E+03  0.79853360917E+03  0.00000000000E+00 0. -1.
         25    1    1    2    0    0  0.85701776140E+02  0.84022091406E+02 -0.11530492751E+03  0.20814594060E+03  0.12500000000E+03 0.  0.
         25    1    1    2    0    0  0.14927000868E+03 -0.13223272764E+03 -0.22540363788E+03  0.32588161918E+03  0.12500000000E+03 0.  0.
         25    1    1    2    0    0 -0.23497178482E+03  0.48210636235E+02 -0.31052325401E+03  0.41180783915E+03  0.12500000000E+03 0.  0.
</event>
<event>
 5    0  0.5653588E-005  0.3363443E+03  0.7546771E-02  0.1068364E+00
         21   -1    0    0  502  501  0.00000000000E+00  0.00000000000E+00  0.32801497866E+03  0.32801497866E+03  0.00000000000E+00 0. -1.
         21   -1    0    0  501  502 -0.00000000000E+00 -0.00000000000E+00 -0.34488513260E+03  0.34488513260E+03  0.00000000000E+00 0. -1.
         25    1    1    2    0    0 -0.17214052762E+03  0.14414691122E+03 -0.95694994753E+02  0.27421383132E+03  0.12500000000E+03 0.  0.
         25    1    1    2    0    0  0.16172960546E+03 -0.57204452252E+02 -0.25549037972E+02  0.21379094457E+03  0.12500000000E+03 0.  0.
         25    1    1    2    0    0  0.10410922163E+02 -0.86942458970E+02  0.10437387878E+03  0.18489533537E+03  0.12500000000E+03 0.  0.
</event>
<event>
 5    0  0.5653588E-005  0.2367261E+03  0.7546771E-02  0.1121993E+00
         21   -1    0    0  502  501  0.00000000000E+00  0.00000000000E+00  0.37413149255E+02  0.37413149255E+02  0.00000000000E+00 0. -1.
         21   -1    0    0  501  502 -0.00000000000E+00 -0.00000000000E+00 -0.14978486779E+04  0.14978486779E+04  0.00000000000E+00 0. -1.
         25    1    1    2    0    0  0.69920053779E+02 -0.16591687716E+02 -0.89405491991E+03  0.90560659110E+03  0.12500000000E+03 0.  0.
         25    1    1    2    0    0 -0.24527543374E+02  0.35683173834E+02 -0.20365694326E+03  0.24284982976E+03  0.12500000000E+03 0.  0.
         25    1    1    2    0    0 -0.45392510406E+02 -0.19091486118E+02 -0.36272366551E+03  0.38680540633E+03  0.12500000000E+03 0.  0.
</event>
<event>
 5    0  0.5653588E-005  0.5869923E+03  0.7546771E-02  0.9932766E-01
         21   -1    0    0  502  501  0.00000000000E+00  0.00000000000E+00  0.73557313241E+02  0.73557313241E+02  0.00000000000E+00 0. -1.
         21   -1    0    0  501  502 -0.00000000000E+00 -0.00000000000E+00 -0.46842385455E+04  0.46842385455E+04  0.00000000000E+00 0. -1.
         25    1    1    2    0    0 -0.14416089272E+03  0.13842729932E+03 -0.22250806121E+03  0.32415940136E+03  0.12500000000E+03 0.  0.
         25    1    1    2    0    0 -0.77316984699E+02  0.17115815132E+03 -0.12775252192E+04  0.12972928407E+04  0.12500000000E+03 0.  0.
         25    1    1    2    0    0  0.22147787742E+03 -0.30958545064E+03 -0.31106479518E+04  0.31363436166E+04  0.12500000000E+03 0.  0.
</event>
<event>
 5    0  0.5653588E-005  0.2481679E+03  0.7546771E-02  0.1114468E+00
         21   -1    0    0  502  501  0.00000000000E+00  0.00000000000E+00  0.15370189354E+03  0.15370189354E+03  0.00000000000E+00 0. -1.
         21   -1    0    0  501  502 -0.00000000000E+00 -0.00000000000E+00 -0.40069326189E+03  0.40069326189E+03  0.00000000000E+00 0. -1.
         25    1    1    2    0    0  0.26497311126E+02  0.10850315967E+03  0.61266343552E+01  0.16774259687E+03  0.12500000000E+03 0.  0.
         25    1    1    2    0    0  0.28534104067E+02 -0.80535930883E+02 -0.15103846902E+03  0.21386409325E+03  0.12500000000E+03 0.  0.
         25    1    1    2    0    0 -0.55031415194E+02 -0.27967228791E+02 -0.10207953368E+03  0.17278846530E+03  0.12500000000E+03 0.  0.
</event>
<event>
 5    0  0.5653588E-005  0.2440304E+03  0.7546771E-02  0.1117137E+00
         21   -1    0    0  502  501  0.00000000000E+00  0.00000000000E+00  0.26676667361E+03  0.26676667361E+03  0.00000000000E+00 0.  1.
         21   -1    0    0  501  502 -0.00000000000E+00 -0.00000000000E+00 -0.22323193454E+03  0.22323193454E+03  0.00000000000E+00 0.  1.
         25    1    1    2    0    0 -0.58368276084E+02 -0.38023181709E+02  0.23112699314E+02  0.14495452690E+03  0.12500000000E+03 0.  0.
         25    1    1    2    0    0  0.11961492068E+03 -0.23888430461E+02 -0.43250568614E+02  0.17992775785E+03  0.12500000000E+03 0.  0.
         25    1    1    2    0    0 -0.61246644601E+02  0.61911612170E+02  0.63672608366E+02  0.16511632340E+03  0.12500000000E+03 0.  0.
</event>
<event>
 5    0  0.5653588E-005  0.4201784E+03  0.7546771E-02  0.1037008E+00
         21   -1    0    0  502  501  0.00000000000E+00  0.00000000000E+00  0.25731297530E+03  0.25731297530E+03  0.00000000000E+00 0. -1.
         21   -1    0    0  501  502 -0.00000000000E+00 -0.00000000000E+00 -0.68612906070E+03  0.68612906070E+03  0.00000000000E+00 0. -1.
         25    1    1    2    0    0  0.19762171001E+03  0.91976663794E+02 -0.18050900318E+03  0.30939060615E+03  0.12500000000E+03 0.  0.
         25    1    1    2    0    0  0.31721685081E+02  0.76305975515E+02 -0.28418820714E+03  0.32127372174E+03  0.12500000000E+03 0.  0.
         25    1    1    2    0    0 -0.22934339509E+03 -0.16828263931E+03  0.35881124914E+02  0.31277770811E+03  0.12500000000E+03 0.  0.
</event>
<event>
 5    0  0.5653588E-005  0.2449613E+03  0.7546771E-02  0.1116531E+00
         21   -1    0    0  502  501  0.00000000000E+00  0.00000000000E+00  0.54869636958E+03  0.54869636958E+03  0.00000000000E+00 0.  1.
         21   -1    0    0  501  502 -0.00000000000E+00 -0.00000000000E+00 -0.10936112702E+03  0.10936112702E+03  0.00000000000E+00 0.  1.
         25    1    1    2    0    0  0.43056860094E+02  0.12139457755E+03  0.11372545278E+03  0.21248297642E+03  0.12500000000E+03 0.  0.
         25    1    1    2    0    0 -0.41346764662E+02 -0.15064810948E+02  0.19530176084E+03  0.23601754440E+03  0.12500000000E+03 0.  0.
         25    1    1    2    0    0 -0.17100954322E+01 -0.10632976660E+03  0.13030802895E+03  0.20955697578E+03  0.12500000000E+03 0.  0.
</event>
<event>
 5    0  0.5653588E-005  0.2839240E+03  0.7546771E-02  0.1093565E+00
         21   -1    0    0  502  501  0.00000000000E+00  0.00000000000E+00  0.11217347647E+04  0.11217347647E+04  0.00000000000E+00 0. -1.
         21   -1    0    0  501  502 -0.00000000000E+00 -0.00000000000E+00 -0.71864447259E+02  0.71864447259E+02  0.00000000000E+00 0. -1.
         25    1    1    2    0    0  0.37578392917E+01 -0.30148910426E+02  0.63361823290E+03  0.64654477278E+03  0.12500000000E+03 0.  0.
         25    1    1    2    0    0 -0.10477587442E+03 -0.25149354652E+02  0.11494697501E+03  0.20111757995E+03  0.12500000000E+03 0.  0.
         25    1    1    2    0    0  0.10101803513E+03  0.55298265078E+02  0.30130510957E+03  0.34593685926E+03  0.12500000000E+03 0.  0.
</event>
<event>
 5    0  0.5653588E-005  0.5343449E+03  0.7546771E-02  0.1005184E+00
         21   -1    0    0  502  501  0.00000000000E+00  0.00000000000E+00  0.13160927900E+04  0.13160927900E+04  0.00000000000E+00 0. -1.
         21   -1    0    0  501  502 -0.00000000000E+00 -0.00000000000E+00 -0.21694856869E+03  0.21694856869E+03  0.00000000000E+00 0. -1.
         25    1    1    2    0    0  0.30460604639E+03  0.62173013845E+02  0.25311104460E+03  0.41992919409E+03  0.12500000000E+03 0.  0.
         25    1    1    2    0    0  0.14150463557E+03 -0.10836985084E+03  0.45768512672E+03  0.50682172574E+03  0.12500000000E+03 0.  0.
         25    1    1    2    0    0 -0.44611068197E+03  0.46196836994E+02  0.38834804995E+03  0.60629043883E+03  0.12500000000E+03 0.  0.
</event>
<event>
 5    0  0.7392083E-005  0.6385642E+03  0.7546771E-02  0.9828477E-01
         21   -1    0    0  502  501  0.00000000000E+00  0.00000000000E+00  0.66055937060E+03  0.66055937060E+03  0.00000000000E+00 0. -1.
         21   -1    0    0  501  502 -0.00000000000E+00 -0.00000000000E+00 -0.61730148046E+03  0.61730148046E+03  0.00000000000E+00 0. -1.
         25    1    1    2    0    0 -0.23515614846E+03  0.24018070956E+03  0.29347408551E+03  0.46339748194E+03  0.12500000000E+03 0.  0.
         25    1    1    2    0    0 -0.18539670612E+03 -0.21847202947E+03 -0.77359942018E+01  0.31270882928E+03  0.12500000000E+03 0.  0.
         25    1    1    2    0    0  0.42055285458E+03 -0.21708680084E+02 -0.24248020117E+03  0.50175453984E+03  0.12500000000E+03 0.  0.
</event>
<event>
 5    0  0.5653588E-005  0.3697654E+03  0.7546771E-02  0.1054783E+00
         21   -1    0    0  502  501  0.00000000000E+00  0.00000000000E+00  0.13864016023E+03  0.13864016023E+03  0.00000000000E+00 0.  1.
         21   -1    0    0  501  502 -0.00000000000E+00 -0.00000000000E+00 -0.98619662325E+03  0.98619662325E+03  0.00000000000E+00 0.  1.
         25    1    1    2    0    0 -0.62145994735E+02  0.23832441221E+03 -0.16266688819E+03  0.32054042902E+03  0.12500000000E+03 0.  0.
         25    1    1    2    0    0  0.47773278792E+01  0.17066183517E+02 -0.15217503529E+03  0.19772789092E+03  0.12500000000E+03 0.  0.
         25    1    1    2    0    0  0.57368666856E+02 -0.25539059573E+03 -0.53271453954E+03  0.60656846354E+03  0.12500000000E+03 0.  0.
</event>
<event>
 5    0  0.5964761E-005  0.2723556E+03  0.7546771E-02  0.1099939E+00
         21   -1    0    0  502  501  0.00000000000E+00  0.00000000000E+00  0.12099554383E+04  0.12099554383E+04  0.00000000000E+00 0. -1.
         21   -1    0    0  501  502 -0.00000000000E+00 -0.00000000000E+00 -0.61306044629E+02  0.61306044629E+02  0.00000000000E+00 0. -1.
         25    1    1    2    0    0 -0.17039973236E+02  0.37355459410E+02  0.11755940286E+03  0.17643980343E+03  0.12500000000E+03 0.  0.
         25    1    1    2    0    0  0.79383399318E+02 -0.43192962965E+02  0.86071903311E+03  0.87443102077E+03  0.12500000000E+03 0.  0.
         25    1    1    2    0    0 -0.62343426081E+02  0.58375035550E+01  0.17037095772E+03  0.22039065874E+03  0.12500000000E+03 0.  0.
</event>
<event>
 5    0  0.6902703E-005  0.3439191E+03  0.7546771E-02  0.1065139E+00
         21   -1    0    0  502  501  0.00000000000E+00  0.00000000000E+00  0.64836988216E+03  0.64836988216E+03  0.00000000000E+00 0.  1.
         21   -1    0    0  501  502 -0.00000000000E+00 -0.00000000000E+00 -0.18242730789E+03  0.18242730789E+03  0.00000000000E+00 0.  1.
         25    1    1    2    0    0  0.22320747490E+02 -0.17173453481E+02 -0.61097669965E+02  0.14195445942E+03  0.12500000000E+03 0.  0.
         25    1    1    2    0    0  0.10358109205E+03  0.14352658558E+03  0.33207526434E+03  0.39651974048E+03  0.12500000000E+03 0.  0.
         25    1    1    2    0    0 -0.12590183954E+03 -0.12635313210E+03  0.19496497989E+03  0.29232299016E+03  0.12500000000E+03 0.  0.
</event>
<event>
 5    0  0.6469610E-005  0.4231655E+03  0.7546771E-02  0.1036041E+00
         21   -1    0    0  502  501  0.00000000000E+00  0.00000000000E+00  0.66357774412E+03  0.66357774412E+03  0.00000000000E+00 0. -1.
         21   -1    0    0  501  502 -0.00000000000E+00 -0.00000000000E+00 -0.26985392982E+03  0.26985392982E+03  0.00000000000E+00 0. -1.
         25    1    1    2    0    0  0.36650863698E+02  0.68017272991E+02  0.40853453151E+03  0.43416022235E+03  0.12500000000E+03 0.  0.
         25    1    1    2    0    0  0.16567582693E+02  0.15601375116E+03 -0.99498111254E+02  0.22391884577E+03  0.12500000000E+03 0.  0.
         25    1    1    2    0    0 -0.53218446391E+02 -0.22403102416E+03  0.84687394037E+02  0.27535260582E+03  0.12500000000E+03 0.  0.
</event>
<event>
 5    0  0.5653588E-005  0.2890656E+03  0.7546771E-02  0.1090838E+00
         21   -1    0    0  502  501  0.00000000000E+00  0.00000000000E+00  0.25751127596E+03  0.25751127596E+03  0.00000000000E+00 0.  1.
         21   -1    0    0  501  502 -0.00000000000E+00 -0.00000000000E+00 -0.32448634317E+03  0.32448634317E+03  0.00000000000E+00 0.  1.
         25    1    1    2    0    0 -0.37964667602E+02  0.73109250763E+02  0.11860185650E+03  0.19099130582E+03  0.12500000000E+03 0.  0.
         25    1    1    2    0    0 -0.10510842181E+02 -0.57097429614E+02 -0.21254155434E+03  0.25331700810E+03  0.12500000000E+03 0.  0.
         25    1    1    2    0    0  0.48475509782E+02 -0.16011821150E+02  0.26964630633E+02  0.13768930521E+03  0.12500000000E+03 0.  0.
</event>
<event>
 5    0  0.5653588E-005  0.3967608E+03  0.7546771E-02  0.1044907E+00
         21   -1    0    0  502  501  0.00000000000E+00  0.00000000000E+00  0.60027475066E+03  0.60027475066E+03  0.00000000000E+00 0. -1.
         21   -1    0    0  501  502 -0.00000000000E+00 -0.00000000000E+00 -0.26224509331E+03  0.26224509331E+03  0.00000000000E+00 0. -1.
         25    1    1    2    0    0  0.75597452338E+01 -0.15906988779E+03  0.39632642662E+03  0.44503934139E+03  0.12500000000E+03 0.  0.
         25    1    1    2    0    0 -0.26941904531E+02  0.14455968007E+03 -0.16301107711E+03  0.25262814290E+03  0.12500000000E+03 0.  0.
         25    1    1    2    0    0  0.19382159297E+02  0.14510207712E+02  0.10471430784E+03  0.16485235969E+03  0.12500000000E+03 0.  0.
</event>
<event>
 5    0  0.5653588E-005  0.3276124E+03  0.7546771E-02  0.1072198E+00
         21   -1    0    0  502  501  0.00000000000E+00  0.00000000000E+00  0.92670643717E+03  0.92670643717E+03  0.00000000000E+00 0.  1.
         21   -1    0    0  501  502 -0.00000000000E+00 -0.00000000000E+00 -0.11581864791E+03  0.11581864791E+03  0.00000000000E+00 0.  1.
         25    1    1    2    0    0  0.92332673165E+02 -0.13519264547E+02  0.15574343686E+02  0.15676623753E+03  0.12500000000E+03 0.  0.
         25    1    1    2    0    0 -0.80115582517E+01 -0.28892221186E+01  0.67512145413E+02  0.14232154597E+03  0.12500000000E+03 0.  0.
         25    1    1    2    0    0 -0.84321114914E+02  0.16408486665E+02  0.72780130016E+03  0.74343730157E+03  0.12500000000E+03 0.  0.
</event>
<event>
 5    0  0.5653588E-005  0.5467871E+03  0.7546771E-02  0.1002240E+00
         21   -1    0    0  502  501  0.00000000000E+00  0.00000000000E+00  0.11954143747E+04  0.11954143747E+04  0.00000000000E+00 0.  1.
         21   -1    0    0  501  502 -0.00000000000E+00 -0.00000000000E+00 -0.25010251573E+03  0.25010251573E+03  0.00000000000E+00 0.  1.
         25    1    1    2    0    0  0.15213049109E+03  0.25883767667E+03  0.17428601253E+03  0.36897322850E+03  0.12500000000E+03 0.  0.
         25    1    1    2    0    0 -0.27078742466E+03 -0.21153090266E+03  0.81432550319E+03  0.89264896644E+03  0.12500000000E+03 0.  0.
         25    1    1    2    0    0  0.11865693357E+03 -0.47306774009E+02 -0.43299656754E+02  0.18389469548E+03  0.12500000000E+03 0.  0.
</event>
<event>
 5    0  0.5653588E-005  0.3834839E+03  0.7546771E-02  0.1049654E+00
         21   -1    0    0  502  501  0.00000000000E+00  0.00000000000E+00  0.10975071622E+03  0.10975071622E+03  0.00000000000E+00 0.  1.
         21   -1    0    0  501  502 -0.00000000000E+00 -0.00000000000E+00 -0.13399450340E+04  0.13399450340E+04  0.00000000000E+00 0.  1.
         25    1    1    2    0    0 -0.12044943146E+03 -0.18849811679E+03 -0.11368141604E+03  0.28033563799E+03  0.12500000000E+03 0.  0.
         25    1    1    2    0    0  0.81633060742E+02  0.59796077008E+02 -0.44336381674E+03  0.47163121337E+03  0.12500000000E+03 0.  0.
         25    1    1    2    0    0  0.38816370721E+02  0.12870203978E+03 -0.67314908499E+03  0.69772889886E+03  0.12500000000E+03 0.  0.
</event>
<event>
 5    0  0.5653588E-005  0.2796072E+03  0.7546771E-02  0.1095904E+00
         21   -1    0    0  502  501  0.00000000000E+00  0.00000000000E+00  0.86274655807E+02  0.86274655807E+02  0.00000000000E+00 0.  1.
         21   -1    0    0  501  502 -0.00000000000E+00 -0.00000000000E+00 -0.90617787323E+03  0.90617787323E+03  0.00000000000E+00 0.  1.
         25    1    1    2    0    0 -0.13636601545E+03  0.51090290875E+02 -0.24382927591E+03  0.31029602605E+03  0.12500000000E+03 0.  0.
         25    1    1    2    0    0  0.80472707836E+02 -0.11576010854E+03 -0.43970054874E+03  0.47836997397E+03  0.12500000000E+03 0.  0.
         25    1    1    2    0    0  0.55893307611E+02  0.64669817665E+02 -0.13637339277E+03  0.20378652902E+03  0.12500000000E+03 0.  0.
</event>
<event>
 5    0  0.5653588E-005  0.4040177E+03  0.7546771E-02  0.1042397E+00
         21   -1    0    0  502  501  0.00000000000E+00  0.00000000000E+00  0.12480687213E+04  0.12480687213E+04  0.00000000000E+00 0.  1.
         21   -1    0    0  501  502 -0.00000000000E+00 -0.00000000000E+00 -0.13078628318E+03  0.13078628318E+03  0.00000000000E+00 0.  1.
         25    1    1    2    0    0  0.90226612814E+02  0.16081823798E+03  0.11193597301E+03  0.24931508053E+03  0.12500000000E+03 0.  0.
         25    1    1    2    0    0  0.15981328677E+03 -0.10528770339E+03  0.40747619761E+03  0.46721262690E+03  0.12500000000E+03 0.  0.
         25    1    1    2    0    0 -0.25003989959E+03 -0.55530534586E+02  0.59787026745E+03  0.66232729701E+03  0.12500000000E+03 0.  0.
</event>
<event>
 5    0  0.5653588E-005  0.4319961E+03  0.7546771E-02  0.1033231E+00
         21   -1    0    0  502  501  0.00000000000E+00  0.00000000000E+00  0.25569776604E+03  0.25569776604E+03  0.00000000000E+00 0. -1.
         21   -1    0    0  501  502 -0.00000000000E+00 -0.00000000000E+00 -0.72984840139E+03  0.72984840139E+03  0.00000000000E+00 0. -1.
         25    1    1    2    0    0 -0.29531373475E+03  0.20990789716E+03 -0.14347378855E+03  0.40924473757E+03  0.12500000000E+03 0.  0.
         25    1    1    2    0    0  0.18764668333E+03 -0.16423994746E+03 -0.11694297985E+03  0.30246768198E+03  0.12500000000E+03 0.  0.
         25    1    1    2    0    0  0.10766705142E+03 -0.45667949701E+02 -0.21373386696E+03  0.27383374787E+03  0.12500000000E+03 0.  0.
</event>
<event>
 5    0  0.5653588E-005  0.4652620E+03  0.7546771E-02  0.1023266E+00
         21   -1    0    0  502  501  0.00000000000E+00  0.00000000000E+00  0.26862782678E+03  0.26862782678E+03  0.00000000000E+00 0. -1.
         21   -1    0    0  501  502 -0.00000000000E+00 -0.00000000000E+00 -0.80583144252E+03  0.80583144252E+03  0.00000000000E+00 0. -1.
         25    1    1    2    0    0 -0.28822402435E+03  0.71622088779E+02 -0.15242307387E+03  0.35645561472E+03  0.12500000000E+03 0.  0.
         25    1    1    2    0    0  0.40304752591E+03 -0.88359032359E+02 -0.31390608040E+03  0.53330727920E+03  0.12500000000E+03 0.  0.
         25    1    1    2    0    0 -0.11482350156E+03  0.16736943581E+02 -0.70874461466E+02  0.18469637538E+03  0.12500000000E+03 0.  0.
</event>
<event>
 5    0  0.5653588E-005  0.2504058E+03  0.7546771E-02  0.1113049E+00
         21   -1    0    0  502  501  0.00000000000E+00  0.00000000000E+00  0.17744291885E+04  0.17744291885E+04  0.00000000000E+00 0. -1.
         21   -1    0    0  501  502 -0.00000000000E+00 -0.00000000000E+00 -0.35337036433E+02  0.35337036433E+02  0.00000000000E+00 0. -1.
         25    1    1    2    0    0  0.16958492666E+01 -0.46907610973E+02  0.87168433039E+03  0.88185133199E+03  0.12500000000E+03 0.  0.
         25    1    1    2    0    0 -0.59076528257E+02 -0.11577314222E+02  0.64635068164E+03  0.66107357688E+03  0.12500000000E+03 0.  0.
         25    1    1    2    0    0  0.57380678990E+02  0.58484925195E+02  0.22105714000E+03  0.26684131603E+03  0.12500000000E+03 0.  0.
</event>
<event>
 5    0  0.5653588E-005  0.3094415E+03  0.7546771E-02  0.1080614E+00
         21   -1    0    0  502  501  0.00000000000E+00  0.00000000000E+00  0.12138457526E+03  0.12138457526E+03  0.00000000000E+00 0.  1.
         21   -1    0    0  501  502 -0.00000000000E+00 -0.00000000000E+00 -0.78884831312E+03  0.78884831312E+03  0.00000000000E+00 0.  1.
         25    1    1    2    0    0  0.19666401838E+03 -0.51530006547E+02 -0.29570741334E+03  0.37999993685E+03  0.12500000000E+03 0.  0.
         25    1    1    2    0    0 -0.64827912004E+02 -0.67882086164E+02 -0.19579038801E+03  0.25053844382E+03  0.12500000000E+03 0.  0.
         25    1    1    2    0    0 -0.13183610637E+03  0.11941209271E+03 -0.17596593651E+03  0.27969450771E+03  0.12500000000E+03 0.  0.
</event>
<event>
 5    0  0.6237089E-005  0.2971071E+03  0.7546771E-02  0.1086696E+00
         21   -1    0    0  502  501  0.00000000000E+00  0.00000000000E+00  0.23327839363E+03  0.23327839363E+03  0.00000000000E+00 0. -1.
         21   -1    0    0  501  502 -0.00000000000E+00 -0.00000000000E+00 -0.37840031216E+03  0.37840031216E+03  0.00000000000E+00 0. -1.
         25    1    1    2    0    0 -0.74716007998E+01  0.25336273099E+02 -0.12461339851E+03  0.17846918681E+03  0.12500000000E+03 0.  0.
         25    1    1    2    0    0  0.12104017709E+03  0.11838524166E+03 -0.20468649723E+02  0.21144681491E+03  0.12500000000E+03 0.  0.
         25    1    1    2    0    0 -0.11356857629E+03 -0.14372151476E+03 -0.39870293444E-01  0.22176270407E+03  0.12500000000E+03 0.  0.
</event>
<event>
 5    0  0.5653588E-005  0.2472646E+03  0.7546771E-02  0.1115046E+00
         21   -1    0    0  502  501  0.00000000000E+00  0.00000000000E+00  0.79010017081E+03  0.79010017081E+03  0.00000000000E+00 0. -1.
         21   -1    0    0  501  502 -0.00000000000E+00 -0.00000000000E+00 -0.77382323227E+02  0.77382323227E+02  0.00000000000E+00 0. -1.
         25    1    1    2    0    0  0.71676097571E+02  0.97897143183E+02  0.15713835579E+03  0.23460344513E+03  0.12500000000E+03 0.  0.
         25    1    1    2    0    0 -0.32141787042E+02 -0.11180442797E+03  0.29538841365E+03  0.34119296521E+03  0.12500000000E+03 0.  0.
         25    1    1    2    0    0 -0.39534310528E+02  0.13907284789E+02  0.26019107815E+03  0.29168608370E+03  0.12500000000E+03 0.  0.
</event>
<event>
 5    0  0.5653588E-005  0.3999453E+03  0.7546771E-02  0.1043799E+00
         21   -1    0    0  502  501  0.00000000000E+00  0.00000000000E+00  0.35268367358E+03  0.35268367358E+03  0.00000000000E+00 0. -1.
         21   -1    0    0  501  502 -0.00000000000E+00 -0.00000000000E+00 -0.45354021092E+03  0.45354021092E+03  0.00000000000E+00 0. -1.
         25    1    1    2    0    0 -0.13923511530E+03 -0.14767591178E+03 -0.26145862476E+03  0.35380814676E+03  0.12500000000E+03 0.  0.
         25    1    1    2    0    0  0.13964754694E+03  0.18157234108E+03  0.18597367867E+03  0.32043901381E+03  0.12500000000E+03 0.  0.
         25    1    1    2    0    0 -0.41243163995E+00 -0.33896429294E+02 -0.25371591251E+02  0.13197672394E+03  0.12500000000E+03 0.  0.
</event>
<event>
 5    0  0.5653588E-005  0.4141333E+03  0.7546771E-02  0.1038993E+00
         21   -1    0    0  502  501  0.00000000000E+00  0.00000000000E+00  0.89281369392E+02  0.89281369392E+02  0.00000000000E+00 0. -1.
         21   -1    0    0  501  502 -0.00000000000E+00 -0.00000000000E+00 -0.19209650623E+04  0.19209650623E+04  0.00000000000E+00 0.  1.
         25    1    1    2    0    0  0.27533387121E+02 -0.11231340490E+03 -0.42811866288E+03  0.46074176914E+03  0.12500000000E+03 0.  0.
         25    1    1    2    0    0  0.10520290581E+03 -0.14875459201E+03 -0.17943656817E+03  0.28463671940E+03  0.12500000000E+03 0.  0.
         25    1    1    2    0    0 -0.13273629293E+03  0.26106799691E+03 -0.12241284618E+04  0.12648679431E+04  0.12500000000E+03 0.  0.
</event>
<event>
 5    0  0.5653588E-005  0.3290303E+03  0.7546771E-02  0.1071567E+00
         21   -1    0    0  502  501  0.00000000000E+00  0.00000000000E+00  0.15067712294E+03  0.15067712294E+03  0.00000000000E+00 0. -1.
         21   -1    0    0  501  502 -0.00000000000E+00 -0.00000000000E+00 -0.71849599851E+03  0.71849599851E+03  0.00000000000E+00 0. -1.
         25    1    1    2    0    0 -0.13552423208E+03 -0.62049234579E+02 -0.40411720823E+03  0.44850043811E+03  0.12500000000E+03 0.  0.
         25    1    1    2    0    0 -0.67301621431E+02  0.63965582035E+01 -0.72755539868E+02  0.15965209922E+03  0.12500000000E+03 0.  0.
         25    1    1    2    0    0  0.20282585351E+03  0.55652676376E+02 -0.90946127471E+02  0.26102058413E+03  0.12500000000E+03 0.  0.
</event>
<event>
 5    0  0.5653588E-005  0.2613352E+03  0.7546771E-02  0.1106344E+00
         21   -1    0    0  502  501  0.00000000000E+00  0.00000000000E+00  0.46975688187E+03  0.46975688187E+03  0.00000000000E+00 0.  1.
         21   -1    0    0  501  502 -0.00000000000E+00 -0.00000000000E+00 -0.14538598504E+03  0.14538598504E+03  0.00000000000E+00 0.  1.
         25    1    1    2    0    0 -0.93094074300E+02  0.10479650226E+03  0.55393861616E+02  0.19581188284E+03  0.12500000000E+03 0.  0.
         25    1    1    2    0    0 -0.28173090435E+02 -0.44640916315E+02  0.13592000208E+03  0.19205671402E+03  0.12500000000E+03 0.  0.
         25    1    1    2    0    0  0.12126716473E+03 -0.60155585941E+02  0.13305703314E+03  0.22727427006E+03  0.12500000000E+03 0.  0.
</event>
<event>
 5    0  0.5653588E-005  0.3204835E+03  0.7546771E-02  0.1075427E+00
         21   -1    0    0  502  501  0.00000000000E+00  0.00000000000E+00  0.54637858094E+03  0.54637858094E+03  0.00000000000E+00 0. -1.
         21   -1    0    0  501  502 -0.00000000000E+00 -0.00000000000E+00 -0.18798258627E+03  0.18798258627E+03  0.00000000000E+00 0.  1.
         25    1    1    2    0    0  0.25413416282E+02 -0.25163504100E+01  0.53284261463E+02  0.13826202033E+03  0.12500000000E+03 0.  0.
         25    1    1    2    0    0 -0.11515808400E+03 -0.11073199913E+03  0.34565778129E+03  0.40078331016E+03  0.12500000000E+03 0.  0.
         25    1    1    2    0    0  0.89744667716E+02  0.11324834954E+03 -0.40546048083E+02  0.19531583672E+03  0.12500000000E+03 0.  0.
</event>
<event>
 5    0  0.6855388E-005  0.2592143E+03  0.7546771E-02  0.1107616E+00
         21   -1    0    0  502  501  0.00000000000E+00  0.00000000000E+00  0.23476922856E+03  0.23476922856E+03  0.00000000000E+00 0.  1.
         21   -1    0    0  501  502 -0.00000000000E+00 -0.00000000000E+00 -0.28620462488E+03  0.28620462488E+03  0.00000000000E+00 0.  1.
         25    1    1    2    0    0 -0.72093562178E+02 -0.75283513448E+02 -0.14927896626E+03  0.22084904091E+03  0.12500000000E+03 0.  0.
         25    1    1    2    0    0  0.53814514663E+02  0.78734215980E+02  0.58669474959E+02  0.16781592906E+03  0.12500000000E+03 0.  0.
         25    1    1    2    0    0  0.18279047515E+02 -0.34507025322E+01  0.39174094974E+02  0.13230888346E+03  0.12500000000E+03 0.  0.
</event>
<event>
 5    0  0.5653588E-005  0.3104336E+03  0.7546771E-02  0.1080138E+00
         21   -1    0    0  502  501  0.00000000000E+00  0.00000000000E+00  0.52865111135E+03  0.52865111135E+03  0.00000000000E+00 0.  1.
         21   -1    0    0  501  502 -0.00000000000E+00 -0.00000000000E+00 -0.18229226275E+03  0.18229226275E+03  0.00000000000E+00 0.  1.
         25    1    1    2    0    0  0.16180970456E+03 -0.74555271400E+02  0.13104692290E+03  0.25404559627E+03  0.12500000000E+03 0.  0.
         25    1    1    2    0    0 -0.18917156402E+03  0.10658091405E+03  0.68924276861E+02  0.25984789361E+03  0.12500000000E+03 0.  0.
         25    1    1    2    0    0  0.27361859469E+02 -0.32025642650E+02  0.14638764884E+03  0.19704988422E+03  0.12500000000E+03 0.  0.
</event>
<event>
 5    0  0.5653588E-005  0.3201313E+03  0.7546771E-02  0.1075589E+00
         21   -1    0    0  502  501  0.00000000000E+00  0.00000000000E+00  0.93817100492E+02  0.93817100492E+02  0.00000000000E+00 0. -1.
         21   -1    0    0  501  502 -0.00000000000E+00 -0.00000000000E+00 -0.10923810543E+04  0.10923810543E+04  0.00000000000E+00 0. -1.
         25    1    1    2    0    0 -0.77878606014E+02 -0.18320057060E+03 -0.28736344001E+03  0.37125499727E+03  0.12500000000E+03 0.  0.
         25    1    1    2    0    0  0.15113667231E+03  0.53286796474E+02 -0.37045913340E+03  0.42254792145E+03  0.12500000000E+03 0.  0.
         25    1    1    2    0    0 -0.73258066299E+02  0.12991377413E+03 -0.34074138043E+03  0.39239523611E+03  0.12500000000E+03 0.  0.
</event>
<event>
 5    0  0.6536362E-005  0.3512353E+03  0.7546771E-02  0.1062109E+00
         21   -1    0    0  502  501  0.00000000000E+00  0.00000000000E+00  0.31670523128E+03  0.31670523128E+03  0.00000000000E+00 0.  1.
         21   -1    0    0  501  502 -0.00000000000E+00 -0.00000000000E+00 -0.38953024177E+03  0.38953024177E+03  0.00000000000E+00 0.  1.
         25    1    1    2    0    0 -0.35697394688E+02  0.13190324050E+03  0.71366362961E+02  0.19847147554E+03  0.12500000000E+03 0.  0.
         25    1    1    2    0    0  0.16571948482E+03  0.38964645232E+02  0.16553224471E+02  0.21184947597E+03  0.12500000000E+03 0.  0.
         25    1    1    2    0    0 -0.13002209014E+03 -0.17086788573E+03 -0.16074459792E+03  0.29591452154E+03  0.12500000000E+03 0.  0.
</event>
<event>
 5    0  0.5653588E-005  0.2489138E+03  0.7546771E-02  0.1113993E+00
         21   -1    0    0  502  501  0.00000000000E+00  0.00000000000E+00  0.45929510101E+02  0.45929510101E+02  0.00000000000E+00 0. -1.
         21   -1    0    0  501  502 -0.00000000000E+00 -0.00000000000E+00 -0.13489824067E+04  0.13489824067E+04  0.00000000000E+00 0. -1.
         25    1    1    2    0    0 -0.68689639767E+02  0.99044437255E+02 -0.29330102240E+03  0.34084975708E+03  0.12500000000E+03 0.  0.
         25    1    1    2    0    0  0.84943527938E+02 -0.89691179419E+02 -0.60891003178E+03  0.63376362897E+03  0.12500000000E+03 0.  0.
         25    1    1    2    0    0 -0.16253888171E+02 -0.93532578362E+01 -0.40084184237E+03  0.42029853070E+03  0.12500000000E+03 0.  0.
</event>
<event>
 5    0  0.5653588E-005  0.3791784E+03  0.7546771E-02  0.1051238E+00
         21   -1    0    0  502  501  0.00000000000E+00  0.00000000000E+00  0.64520308797E+03  0.64520308797E+03  0.00000000000E+00 0.  1.
         21   -1    0    0  501  502 -0.00000000000E+00 -0.00000000000E+00 -0.22283881324E+03  0.22283881324E+03  0.00000000000E+00 0.  1.
         25    1    1    2    0    0 -0.15542545728E+03  0.48562408535E+02 -0.48478474894E+02  0.21092781424E+03  0.12500000000E+03 0.  0.
         25    1    1    2    0    0 -0.54353737004E+02  0.95503610580E+02  0.11580636255E+03  0.20275941894E+03  0.12500000000E+03 0.  0.
         25    1    1    2    0    0  0.20977919428E+03 -0.14406601912E+03  0.35503638707E+03  0.45435466803E+03  0.12500000000E+03 0.  0.
</event>
<event>
 5    0  0.5653588E-005  0.3999384E+03  0.7546771E-02  0.1043801E+00
         21   -1    0    0  502  501  0.00000000000E+00  0.00000000000E+00  0.27046211214E+03  0.27046211214E+03  0.00000000000E+00 0.  1.
         21   -1    0    0  501  502 -0.00000000000E+00 -0.00000000000E+00 -0.59139777513E+03  0.59139777513E+03  0.00000000000E+00 0.  1.
         25    1    1    2    0    0  0.11335027345E+02  0.93383822112E+01 -0.82258868385E+02  0.15035694083E+03  0.12500000000E+03 0.  0.
         25    1    1    2    0    0 -0.22503367218E+03  0.21530659996E+03 -0.10755418729E+03  0.35240599996E+03  0.12500000000E+03 0.  0.
         25    1    1    2    0    0  0.21369864484E+03 -0.22464498218E+03 -0.13112260732E+03  0.35909694648E+03  0.12500000000E+03 0.  0.
</event>
<event>
 5    0  0.5653588E-005  0.2944654E+03  0.7546771E-02  0.1088041E+00
         21   -1    0    0  502  501  0.00000000000E+00  0.00000000000E+00  0.11958698368E+03  0.11958698368E+03  0.00000000000E+00 0. -1.
         21   -1    0    0  501  502 -0.00000000000E+00 -0.00000000000E+00 -0.72507769756E+03  0.72507769756E+03  0.00000000000E+00 0. -1.
         25    1    1    2    0    0  0.11865876131E+03  0.11055730363E+03 -0.10296197965E+03  0.22919203362E+03  0.12500000000E+03 0.  0.
         25    1    1    2    0    0 -0.39455371849E+01 -0.10334929704E+03 -0.13669677964E+03  0.21215007431E+03  0.12500000000E+03 0.  0.
         25    1    1    2    0    0 -0.11471322412E+03 -0.72080065862E+01 -0.36583195459E+03  0.40332257332E+03  0.12500000000E+03 0.  0.
</event>
<event>
 5    0  0.5653588E-005  0.3560445E+03  0.7546771E-02  0.1060161E+00
         21   -1    0    0  502  501  0.00000000000E+00  0.00000000000E+00  0.16017750869E+04  0.16017750869E+04  0.00000000000E+00 0.  1.
         21   -1    0    0  501  502 -0.00000000000E+00 -0.00000000000E+00 -0.79141995114E+02  0.79141995114E+02  0.00000000000E+00 0.  1.
         25    1    1    2    0    0  0.35465551609E+02 -0.16309908244E+02  0.42024194890E+02  0.13753127431E+03  0.12500000000E+03 0.  0.
         25    1    1    2    0    0 -0.10351318125E+03 -0.36969646740E+02  0.23184983396E+03  0.28541387314E+03  0.12500000000E+03 0.  0.
         25    1    1    2    0    0  0.68047629644E+02  0.53279554984E+02  0.12487590630E+04  0.12579719346E+04  0.12500000000E+03 0.  0.
</event>
<event>
 5    0  0.5653588E-005  0.3163297E+03  0.7546771E-02  0.1077351E+00
         21   -1    0    0  502  501  0.00000000000E+00  0.00000000000E+00  0.91837334573E+03  0.91837334573E+03  0.00000000000E+00 0. -1.
         21   -1    0    0  501  502 -0.00000000000E+00 -0.00000000000E+00 -0.10895839602E+03  0.10895839602E+03  0.00000000000E+00 0. -1.
         25    1    1    2    0    0 -0.19295790465E+02 -0.52897549777E+01  0.21167406523E+03  0.24663985673E+03  0.12500000000E+03 0.  0.
         25    1    1    2    0    0 -0.12150159549E+03 -0.14797426716E+03  0.42542701514E+03  0.48298257387E+03  0.12500000000E+03 0.  0.
         25    1    1    2    0    0  0.14079738596E+03  0.15326402214E+03  0.17231386935E+03  0.29770931115E+03  0.12500000000E+03 0.  0.
</event>
<event>
 5    0  0.6323696E-005  0.3396972E+03  0.7546771E-02  0.1066925E+00
         21   -1    0    0  502  501  0.00000000000E+00  0.00000000000E+00  0.29211233508E+03  0.29211233508E+03  0.00000000000E+00 0. -1.
         21   -1    0    0  501  502 -0.00000000000E+00 -0.00000000000E+00 -0.39503359950E+03  0.39503359950E+03  0.00000000000E+00 0. -1.
         25    1    1    2    0    0  0.71362417417E+02  0.19066211413E+03 -0.66384418555E+01  0.23898473862E+03  0.12500000000E+03 0.  0.
         25    1    1    2    0    0 -0.10323340533E+02 -0.12540650370E+03 -0.19650492758E+03  0.26471220050E+03  0.12500000000E+03 0.  0.
         25    1    1    2    0    0 -0.61039076885E+02 -0.65255610431E+02  0.10022210501E+03  0.18344899545E+03  0.12500000000E+03 0.  0.
</event>
<event>
 5    0  0.5653588E-005  0.4360054E+03  0.7546771E-02  0.1031980E+00
         21   -1    0    0  502  501  0.00000000000E+00  0.00000000000E+00  0.43572465655E+03  0.43572465655E+03  0.00000000000E+00 0. -1.
         21   -1    0    0  501  502 -0.00000000000E+00 -0.00000000000E+00 -0.43628623598E+03  0.43628623598E+03  0.00000000000E+00 0. -1.
         25    1    1    2    0    0 -0.94418348984E+02  0.21626851271E+03  0.84253125219E+02  0.28001871960E+03  0.12500000000E+03 0.  0.
         25    1    1    2    0    0  0.16461160777E+03  0.17439651016E+02  0.12902942700E+03  0.24428408845E+03  0.12500000000E+03 0.  0.
         25    1    1    2    0    0 -0.70193258785E+02 -0.23370816373E+03 -0.21384413165E+03  0.34770808448E+03  0.12500000000E+03 0.  0.
</event>
<event>
 5    0  0.5653588E-005  0.2137693E+03  0.7546771E-02  0.1138615E+00
         21   -1    0    0  502  501  0.00000000000E+00  0.00000000000E+00  0.17187322830E+03  0.17187322830E+03  0.00000000000E+00 0.  1.
         21   -1    0    0  501  502 -0.00000000000E+00 -0.00000000000E+00 -0.26587791962E+03  0.26587791962E+03  0.00000000000E+00 0.  1.
         25    1    1    2    0    0 -0.62070461249E+02  0.37799891014E+02 -0.73991703503E+02  0.16242335456E+03  0.12500000000E+03 0.  0.
         25    1    1    2    0    0  0.54347800017E+01 -0.14746374983E+02  0.26239385498E+02  0.12868759754E+03  0.12500000000E+03 0.  0.
         25    1    1    2    0    0  0.56635681247E+02 -0.23053516031E+02 -0.46252373322E+02  0.14664019582E+03  0.12500000000E+03 0.  0.
</event>
<event>
 5    0  0.5653588E-005  0.2683568E+03  0.7546771E-02  0.1102224E+00
         21   -1    0    0  502  501  0.00000000000E+00  0.00000000000E+00  0.15722247443E+03  0.15722247443E+03  0.00000000000E+00 0. -1.
         21   -1    0    0  501  502 -0.00000000000E+00 -0.00000000000E+00 -0.45804753694E+03  0.45804753694E+03  0.00000000000E+00 0. -1.
         25    1    1    2    0    0 -0.77606628369E+01 -0.84890741374E+02 -0.42838164334E+02  0.15724749341E+03  0.12500000000E+03 0.  0.
         25    1    1    2    0    0 -0.21712359198E+02 -0.94121684226E+02 -0.10107405733E+03  0.18754008385E+03  0.12500000000E+03 0.  0.
         25    1    1    2    0    0  0.29473022035E+02  0.17901242560E+03 -0.15691284083E+03  0.27048243412E+03  0.12500000000E+03 0.  0.
</event>
<event>
 5    0  0.5653588E-005  0.2865087E+03  0.7546771E-02  0.1092186E+00
         21   -1    0    0  502  501  0.00000000000E+00  0.00000000000E+00  0.14959670316E+04  0.14959670316E+04  0.00000000000E+00 0. -1.
         21   -1    0    0  501  502 -0.00000000000E+00 -0.00000000000E+00 -0.54872349635E+02  0.54872349635E+02  0.00000000000E+00 0. -1.
         25    1    1    2    0    0  0.73922839868E+02 -0.94860917627E+02  0.43191563226E+03  0.46544526353E+03  0.12500000000E+03 0.  0.
         25    1    1    2    0    0 -0.24493599651E+02  0.14452376303E+03  0.26546018570E+03  0.32799567786E+03  0.12500000000E+03 0.  0.
         25    1    1    2    0    0 -0.49429240217E+02 -0.49662845408E+02  0.74371886397E+03  0.75739843981E+03  0.12500000000E+03 0.  0.
</event>
<event>
 5    0  0.5653588E-005  0.2382430E+03  0.7546771E-02  0.1120969E+00
         21   -1    0    0  502  501  0.00000000000E+00  0.00000000000E+00  0.99988474239E+03  0.99988474239E+03  0.00000000000E+00 0.  1.
         21   -1    0    0  501  502 -0.00000000000E+00 -0.00000000000E+00 -0.56766286001E+02  0.56766286001E+02  0.00000000000E+00 0.  1.
         25    1    1    2    0    0  0.22809939633E+02  0.25677391261E+02  0.10675899380E+03  0.16793482225E+03  0.12500000000E+03 0.  0.
         25    1    1    2    0    0  0.25668659352E+02  0.59339015739E+02  0.35619232304E+03  0.38298560007E+03  0.12500000000E+03 0.  0.
         25    1    1    2    0    0 -0.48478598985E+02 -0.85016407001E+02  0.48016713955E+03  0.50573060607E+03  0.12500000000E+03 0.  0.
</event>
<event>
 5    0  0.7047480E-005  0.2949013E+03  0.7546771E-02  0.1087818E+00
         21   -1    0    0  502  501  0.00000000000E+00  0.00000000000E+00  0.91877103606E+03  0.91877103606E+03  0.00000000000E+00 0. -1.
         21   -1    0    0  501  502 -0.00000000000E+00 -0.00000000000E+00 -0.94655535733E+02  0.94655535733E+02  0.00000000000E+00 0. -1.
         25    1    1    2    0    0 -0.62679606725E+00  0.16951197750E+03  0.51217859244E+03  0.55379293418E+03  0.12500000000E+03 0.  0.
         25    1    1    2    0    0 -0.74888243383E+02 -0.90042866085E+02  0.15556136837E+03  0.23138778286E+03  0.12500000000E+03 0.  0.
         25    1    1    2    0    0  0.75515039450E+02 -0.79469111415E+02  0.15637553952E+03  0.22824585475E+03  0.12500000000E+03 0.  0.
</event>
<event>
 5    0  0.5653588E-005  0.3488546E+03  0.7546771E-02  0.1063086E+00
         21   -1    0    0  502  501  0.00000000000E+00  0.00000000000E+00  0.19188503622E+03  0.19188503622E+03  0.00000000000E+00 0. -1.
         21   -1    0    0  501  502 -0.00000000000E+00 -0.00000000000E+00 -0.63423135089E+03  0.63423135089E+03  0.00000000000E+00 0. -1.
         25    1    1    2    0    0  0.12016411403E+03 -0.17591162928E+03 -0.30702162669E+03  0.39404516857E+03  0.12500000000E+03 0.  0.
         25    1    1    2    0    0 -0.12131906434E+03  0.10631858278E+03  0.37728483101E+02  0.20753408119E+03  0.12500000000E+03 0.  0.
         25    1    1    2    0    0  0.11549503050E+01  0.69593046496E+02 -0.17305317108E+03  0.22453713735E+03  0.12500000000E+03 0.  0.
</event>
<event>
 5    0  0.5653588E-005  0.3484195E+03  0.7546771E-02  0.1063266E+00
         21   -1    0    0  502  501  0.00000000000E+00  0.00000000000E+00  0.33103807741E+03  0.33103807741E+03  0.00000000000E+00 0. -1.
         21   -1    0    0  501  502 -0.00000000000E+00 -0.00000000000E+00 -0.36671356843E+03  0.36671356843E+03  0.00000000000E+00 0. -1.
         25    1    1    2    0    0  0.22488246040E+02 -0.14421393830E+03 -0.12620370933E+03  0.22990380044E+03  0.12500000000E+03 0.  0.
         25    1    1    2    0    0 -0.12024298169E+03 -0.73653572136E+02  0.21809973768E+02  0.18969422313E+03  0.12500000000E+03 0.  0.
         25    1    1    2    0    0  0.97754735649E+02  0.21786751043E+03  0.68718244545E+02  0.27815362226E+03  0.12500000000E+03 0.  0.
</event>
<event>
 5    0  0.5653588E-005  0.3887415E+03  0.7546771E-02  0.1047749E+00
         21   -1    0    0  502  501  0.00000000000E+00  0.00000000000E+00  0.33628959677E+03  0.33628959677E+03  0.00000000000E+00 0.  1.
         21   -1    0    0  501  502 -0.00000000000E+00 -0.00000000000E+00 -0.44937443785E+03  0.44937443785E+03  0.00000000000E+00 0.  1.
         25    1    1    2    0    0 -0.21759866708E+03  0.72669140460E+01  0.17856374293E+02  0.25168599099E+03  0.12500000000E+03 0.  0.
         25    1    1    2    0    0  0.27606877608E+03  0.15723457500E+02 -0.21395747791E+03  0.37130041556E+03  0.12500000000E+03 0.  0.
         25    1    1    2    0    0 -0.58470109004E+02 -0.22990371546E+02  0.83016262536E+02  0.16267762808E+03  0.12500000000E+03 0.  0.
</event>
<event>
 5    0  0.5653588E-005  0.2380868E+03  0.7546771E-02  0.1121074E+00
         21   -1    0    0  502  501  0.00000000000E+00  0.00000000000E+00  0.56895105439E+03  0.56895105439E+03  0.00000000000E+00 0. -1.
         21   -1    0    0  501  502 -0.00000000000E+00 -0.00000000000E+00 -0.99631246994E+02  0.99631246994E+02  0.00000000000E+00 0. -1.
         25    1    1    2    0    0  0.33852450194E+02  0.86417207146E+02  0.20576646194E+03  0.25802860100E+03  0.12500000000E+03 0.  0.
         25    1    1    2    0    0  0.51388762033E+02 -0.58035397700E+02  0.68998023050E+02  0.16246427125E+03  0.12500000000E+03 0.  0.
         25    1    1    2    0    0 -0.85241212227E+02 -0.28381809446E+02  0.19455532241E+03  0.24808942913E+03  0.12500000000E+03 0.  0.
</event>
<event>
 5    0  0.5653588E-005  0.2565399E+03  0.7546771E-02  0.1109240E+00
         21   -1    0    0  502  501  0.00000000000E+00  0.00000000000E+00  0.17374182763E+03  0.17374182763E+03  0.00000000000E+00 0.  1.
         21   -1    0    0  501  502 -0.00000000000E+00 -0.00000000000E+00 -0.37879603140E+03  0.37879603140E+03  0.00000000000E+00 0.  1.
         25    1    1    2    0    0  0.27958328504E+01 -0.89319208853E+02 -0.16306344539E+03  0.22405451340E+03  0.12500000000E+03 0.  0.
         25    1    1    2    0    0  0.50452933443E+02 -0.16105667697E+02 -0.72378555932E+02  0.15384585267E+03  0.12500000000E+03 0.  0.
         25    1    1    2    0    0 -0.53248766294E+02  0.10542487655E+03  0.30387797557E+02  0.17463749296E+03  0.12500000000E+03 0.  0.
</event>
<event>
 5    0  0.5653588E-005  0.2550346E+03  0.7546771E-02  0.1110164E+00
         21   -1    0    0  502  501  0.00000000000E+00  0.00000000000E+00  0.17487646997E+03  0.17487646997E+03  0.00000000000E+00 0.  1.
         21   -1    0    0  501  502 -0.00000000000E+00 -0.00000000000E+00 -0.37193480444E+03  0.37193480444E+03  0.00000000000E+00 0.  1.
         25    1    1    2    0    0 -0.20854190044E+01 -0.10383596620E+03  0.10014990807E+02  0.16282369879E+03  0.12500000000E+03 0.  0.
         25    1    1    2    0    0 -0.46111087277E+02  0.12925982545E+03 -0.10176363523E+03  0.21169594305E+03  0.12500000000E+03 0.  0.
         25    1    1    2    0    0  0.48196506281E+02 -0.25423859259E+02 -0.10530969004E+03  0.17229163257E+03  0.12500000000E+03 0.  0.
</event>
<event>
 5    0  0.5653588E-005  0.2679088E+03  0.7546771E-02  0.1102482E+00
         21   -1    0    0  502  501  0.00000000000E+00  0.00000000000E+00  0.23904950772E+03  0.23904950772E+03  0.00000000000E+00 0. -1.
         21   -1    0    0  501  502 -0.00000000000E+00 -0.00000000000E+00 -0.30025215981E+03  0.30025215981E+03  0.00000000000E+00 0. -1.
         25    1    1    2    0    0 -0.75900734182E+02  0.11539509112E+03  0.49062310126E+02  0.19263711683E+03  0.12500000000E+03 0.  0.
         25    1    1    2    0    0 -0.72485003761E+01 -0.12334323755E+03 -0.80901920123E+02  0.19348440683E+03  0.12500000000E+03 0.  0.
         25    1    1    2    0    0  0.83149234558E+02  0.79481464236E+01 -0.29363042091E+02  0.15318014388E+03  0.12500000000E+03 0.  0.
</event>
<event>
 5    0  0.5653588E-005  0.2971291E+03  0.7546771E-02  0.1086685E+00
         21   -1    0    0  502  501  0.00000000000E+00  0.00000000000E+00  0.10582256750E+03  0.10582256750E+03  0.00000000000E+00 0. -1.
         21   -1    0    0  501  502 -0.00000000000E+00 -0.00000000000E+00 -0.83428036596E+03  0.83428036596E+03  0.00000000000E+00 0. -1.
         25    1    1    2    0    0  0.76337345438E+02 -0.35145214428E+02 -0.29051990484E+03  0.32724515507E+03  0.12500000000E+03 0.  0.
         25    1    1    2    0    0  0.12510550713E+03  0.30586226477E+02 -0.11864334038E+03  0.21514680425E+03  0.12500000000E+03 0.  0.
         25    1    1    2    0    0 -0.20144285256E+03  0.45589879512E+01 -0.31929455324E+03  0.39771097414E+03  0.12500000000E+03 0.  0.
</event>
<event>
 5    0  0.5653588E-005  0.2908636E+03  0.7546771E-02  0.1089899E+00
         21   -1    0    0  502  501  0.00000000000E+00  0.00000000000E+00  0.80840467482E+03  0.80840467482E+03  0.00000000000E+00 0.  1.
         21   -1    0    0  501  502 -0.00000000000E+00 -0.00000000000E+00 -0.10465257033E+03  0.10465257033E+03  0.00000000000E+00 0.  1.
         25    1    1    2    0    0  0.54549821694E+02  0.82300709093E+02  0.34731993884E+03  0.38210630678E+03  0.12500000000E+03 0.  0.
         25    1    1    2    0    0  0.85823602080E+02 -0.12903600112E+03  0.19697330651E+03  0.28007046209E+03  0.12500000000E+03 0.  0.
         25    1    1    2    0    0 -0.14037342377E+03  0.46735292029E+02  0.15945885913E+03  0.25088047628E+03  0.12500000000E+03 0.  0.
</event>
<event>
 5    0  0.5653588E-005  0.3218019E+03  0.7546771E-02  0.1074823E+00
         21   -1    0    0  502  501  0.00000000000E+00  0.00000000000E+00  0.31669129928E+03  0.31669129928E+03  0.00000000000E+00 0. -1.
         21   -1    0    0  501  502 -0.00000000000E+00 -0.00000000000E+00 -0.32699494600E+03  0.32699494600E+03  0.00000000000E+00 0. -1.
         25    1    1    2    0    0 -0.17067365178E+03  0.12171274246E+03 -0.88712532406E+02  0.25968904577E+03  0.12500000000E+03 0.  0.
         25    1    1    2    0    0  0.11678707085E+03  0.27206914229E+02  0.22762470197E+02  0.17470708672E+03  0.12500000000E+03 0.  0.
         25    1    1    2    0    0  0.53886580927E+02 -0.14891965669E+03  0.55646415488E+02  0.20929011278E+03  0.12500000000E+03 0.  0.
</event>
<event>
 5    0  0.5653588E-005  0.3086598E+03  0.7546771E-02  0.1080990E+00
         21   -1    0    0  502  501  0.00000000000E+00  0.00000000000E+00  0.54109187851E+03  0.54109187851E+03  0.00000000000E+00 0.  1.
         21   -1    0    0  501  502 -0.00000000000E+00 -0.00000000000E+00 -0.17607151278E+03  0.17607151278E+03  0.00000000000E+00 0.  1.
         25    1    1    2    0    0  0.60559532447E+02 -0.87750364411E+02  0.34176378812E+03  0.37920320449E+03  0.12500000000E+03 0.  0.
         25    1    1    2    0    0 -0.10794170482E+03  0.19461905863E+02 -0.46144955118E+02  0.17258196401E+03  0.12500000000E+03 0.  0.
         25    1    1    2    0    0  0.47382172371E+02  0.68288458548E+02  0.69401532733E+02  0.16537822280E+03  0.12500000000E+03 0.  0.
</event>
<event>
 5    0  0.5653588E-005  0.3940920E+03  0.7546771E-02  0.1045845E+00
         21   -1    0    0  502  501  0.00000000000E+00  0.00000000000E+00  0.13222116015E+03  0.13222116015E+03  0.00000000000E+00 0. -1.
         21   -1    0    0  501  502 -0.00000000000E+00 -0.00000000000E+00 -0.11746118540E+04  0.11746118540E+04  0.00000000000E+00 0. -1.
         25    1    1    2    0    0 -0.20478916886E+03  0.95186347328E+02 -0.24092136917E+03  0.35308235657E+03  0.12500000000E+03 0.  0.
         25    1    1    2    0    0  0.28404633800E+03  0.48110288603E+01 -0.34761706402E+03  0.46601297335E+03  0.12500000000E+03 0.  0.
         25    1    1    2    0    0 -0.79257169140E+02 -0.99997376188E+02 -0.45385226067E+03  0.48773768423E+03  0.12500000000E+03 0.  0.
</event>
<event>
 5    0  0.5653588E-005  0.3076528E+03  0.7546771E-02  0.1081476E+00
         21   -1    0    0  502  501  0.00000000000E+00  0.00000000000E+00  0.32657692308E+03  0.32657692308E+03  0.00000000000E+00 0. -1.
         21   -1    0    0  501  502 -0.00000000000E+00 -0.00000000000E+00 -0.28982521938E+03  0.28982521938E+03  0.00000000000E+00 0. -1.
         25    1    1    2    0    0 -0.96392700676E+02  0.13694472274E+03 -0.57704954948E+02  0.21679546041E+03  0.12500000000E+03 0.  0.
         25    1    1    2    0    0  0.99493606782E+02 -0.18964374203E+03  0.31294369215E+02  0.24993612029E+03  0.12500000000E+03 0.  0.
         25    1    1    2    0    0 -0.31009061057E+01  0.52699019283E+02  0.63162289425E+02  0.14967056176E+03  0.12500000000E+03 0.  0.
</event>
<event>
 5    0  0.5653588E-005  0.2860957E+03  0.7546771E-02  0.1092405E+00
         21   -1    0    0  502  501  0.00000000000E+00  0.00000000000E+00  0.89158629454E+03  0.89158629454E+03  0.00000000000E+00 0.  1.
         21   -1    0    0  501  502 -0.00000000000E+00 -0.00000000000E+00 -0.91803493442E+02  0.91803493442E+02  0.00000000000E+00 0.  1.
         25    1    1    2    0    0 -0.16857937911E+03  0.80976046859E+02  0.30647839545E+03  0.38017119052E+03  0.12500000000E+03 0.  0.
         25    1    1    2    0    0  0.91045770853E+02  0.27952240130E+02  0.16861609410E+03  0.23049305262E+03  0.12500000000E+03 0.  0.
         25    1    1    2    0    0  0.77533608259E+02 -0.10892828699E+03  0.32468831155E+03  0.37272554483E+03  0.12500000000E+03 0.  0.
</event>
<event>
 5    0  0.5653588E-005  0.3576069E+03  0.7546771E-02  0.1059535E+00
         21   -1    0    0  502  501  0.00000000000E+00  0.00000000000E+00  0.31640753430E+03  0.31640753430E+03  0.00000000000E+00 0.  1.
         21   -1    0    0  501  502 -0.00000000000E+00 -0.00000000000E+00 -0.40417087824E+03  0.40417087824E+03  0.00000000000E+00 0.  1.
         25    1    1    2    0    0 -0.32682011667E+01  0.88291879501E+02 -0.70585882364E+02  0.16856305619E+03  0.12500000000E+03 0.  0.
         25    1    1    2    0    0 -0.36786380099E+02 -0.42828116811E+02 -0.24754695746E+03  0.28300526762E+03  0.12500000000E+03 0.  0.
         25    1    1    2    0    0  0.40054581266E+02 -0.45463762689E+02  0.23036949589E+03  0.26901008872E+03  0.12500000000E+03 0.  0.
</event>
<event>
 5    0  0.5653588E-005  0.2976190E+03  0.7546771E-02  0.1086437E+00
         21   -1    0    0  502  501  0.00000000000E+00  0.00000000000E+00  0.47643677384E+03  0.47643677384E+03  0.00000000000E+00 0. -1.
         21   -1    0    0  501  502 -0.00000000000E+00 -0.00000000000E+00 -0.18591567082E+03  0.18591567082E+03  0.00000000000E+00 0. -1.
         25    1    1    2    0    0  0.22374023185E+02 -0.95380787473E+02  0.19049820265E+03  0.24801745250E+03  0.12500000000E+03 0.  0.
         25    1    1    2    0    0 -0.90715315522E+02  0.28794024714E+02  0.17916039019E+03  0.23828934039E+03  0.12500000000E+03 0.  0.
         25    1    1    2    0    0  0.68341292337E+02  0.66586762759E+02 -0.79137489818E+02  0.17604565177E+03  0.12500000000E+03 0.  0.
</event>
<event>
 5    0  0.5653588E-005  0.3532093E+03  0.7546771E-02  0.1061305E+00
         21   -1    0    0  502  501  0.00000000000E+00  0.00000000000E+00  0.16950313107E+03  0.16950313107E+03  0.00000000000E+00 0. -1.
         21   -1    0    0  501  502 -0.00000000000E+00 -0.00000000000E+00 -0.73601459570E+03  0.73601459570E+03  0.00000000000E+00 0. -1.
         25    1    1    2    0    0 -0.93904024130E+02  0.14278951950E+03 -0.33953698444E+03  0.40014644373E+03  0.12500000000E+03 0.  0.
         25    1    1    2    0    0  0.11081145598E+03  0.40830758404E+02 -0.22423566244E+03  0.28258266387E+03  0.12500000000E+03 0.  0.
         25    1    1    2    0    0 -0.16907431852E+02 -0.18362027791E+03 -0.27388177417E+01  0.22278861917E+03  0.12500000000E+03 0.  0.
</event>
<event>
 5    0  0.5653588E-005  0.3240631E+03  0.7546771E-02  0.1073794E+00
         21   -1    0    0  502  501  0.00000000000E+00  0.00000000000E+00  0.18139823855E+03  0.18139823855E+03  0.00000000000E+00 0.  1.
         21   -1    0    0  501  502 -0.00000000000E+00 -0.00000000000E+00 -0.57893004574E+03  0.57893004574E+03  0.00000000000E+00 0.  1.
         25    1    1    2    0    0 -0.71904552619E+02 -0.11489404686E+03 -0.20756825967E+03  0.27763373195E+03  0.12500000000E+03 0.  0.
         25    1    1    2    0    0 -0.71952577531E+02 -0.84937645003E+02 -0.64300358317E+02  0.17930731450E+03  0.12500000000E+03 0.  0.
         25    1    1    2    0    0  0.14385713015E+03  0.19983169187E+03 -0.12566318920E+03  0.30338723785E+03  0.12500000000E+03 0.  0.
</event>
<event>
 5    0  0.5653588E-005  0.2364638E+03  0.7546771E-02  0.1122171E+00
         21   -1    0    0  502  501  0.00000000000E+00  0.00000000000E+00  0.21012691235E+03  0.21012691235E+03  0.00000000000E+00 0.  1.
         21   -1    0    0  501  502 -0.00000000000E+00 -0.00000000000E+00 -0.26610174782E+03  0.26610174782E+03  0.00000000000E+00 0.  1.
         25    1    1    2    0    0 -0.63945673082E+02  0.49436196000E+02  0.66957601796E+02  0.16322164997E+03  0.12500000000E+03 0.  0.
         25    1    1    2    0    0 -0.78379388639E+01  0.17987471585E+02 -0.35409910747E+02  0.13139194876E+03  0.12500000000E+03 0.  0.
         25    1    1    2    0    0  0.71783611946E+02 -0.67423667585E+02 -0.87522526515E+02  0.18161506144E+03  0.12500000000E+03 0.  0.
</event>
<event>
 5    0  0.5653588E-005  0.7722283E+03  0.7546771E-02  0.9601109E-01
         21   -1    0    0  502  501  0.00000000000E+00  0.00000000000E+00  0.31804211452E+03  0.31804211452E+03  0.00000000000E+00 0.  1.
         21   -1    0    0  501  502 -0.00000000000E+00 -0.00000000000E+00 -0.18750238693E+04  0.18750238693E+04  0.00000000000E+00 0.  1.
         25    1    1    2    0    0 -0.18411089903E+02  0.46314517633E+02 -0.57765323466E+03  0.59312078221E+03  0.12500000000E+03 0.  0.
         25    1    1    2    0    0  0.18388447187E+03 -0.55440504588E+03 -0.84526436942E+03  0.10350243032E+04  0.12500000000E+03 0.  0.
         25    1    1    2    0    0 -0.16547338196E+03  0.50809052825E+03 -0.13406415071E+03  0.56492089848E+03  0.12500000000E+03 0.  0.
</event>
<event>
 5    0  0.5653588E-005  0.3435468E+03  0.7546771E-02  0.1065295E+00
         21   -1    0    0  502  501  0.00000000000E+00  0.00000000000E+00  0.11329370916E+04  0.11329370916E+04  0.00000000000E+00 0.  1.
         21   -1    0    0  501  502 -0.00000000000E+00 -0.00000000000E+00 -0.10417557193E+03  0.10417557193E+03  0.00000000000E+00 0.  1.
         25    1    1    2    0    0  0.17814202102E+03 -0.17740531113E+01  0.73315026189E+03  0.76476926810E+03  0.12500000000E+03 0.  0.
         25    1    1    2    0    0 -0.12151507653E+02  0.67752475081E+02  0.71230799004E+02  0.15948944713E+03  0.12500000000E+03 0.  0.
         25    1    1    2    0    0 -0.16599051336E+03 -0.65978421970E+02  0.22438045877E+03  0.31285394830E+03  0.12500000000E+03 0.  0.
</event>
<event>
 5    0  0.5653588E-005  0.3736867E+03  0.7546771E-02  0.1053292E+00
         21   -1    0    0  502  501  0.00000000000E+00  0.00000000000E+00  0.27417174566E+03  0.27417174566E+03  0.00000000000E+00 0. -1.
         21   -1    0    0  501  502 -0.00000000000E+00 -0.00000000000E+00 -0.50932209750E+03  0.50932209750E+03  0.00000000000E+00 0. -1.
         25    1    1    2    0    0  0.14365183745E+03  0.25366213658E+01  0.78802921318E+02  0.20609993998E+03  0.12500000000E+03 0.  0.
         25    1    1    2    0    0  0.97427911373E+02 -0.10316555739E+03 -0.80985400272E+02  0.20571573883E+03  0.12500000000E+03 0.  0.
         25    1    1    2    0    0 -0.24107974883E+03  0.10062893602E+03 -0.23296787288E+03  0.37167816435E+03  0.12500000000E+03 0.  0.
</event>
<event>
 5    0  0.5653588E-005  0.3138465E+03  0.7546771E-02  0.1078517E+00
         21   -1    0    0  502  501  0.00000000000E+00  0.00000000000E+00  0.34306238486E+03  0.34306238486E+03  0.00000000000E+00 0.  1.
         21   -1    0    0  501  502 -0.00000000000E+00 -0.00000000000E+00 -0.28711877758E+03  0.28711877758E+03  0.00000000000E+00 0.  1.
         25    1    1    2    0    0 -0.67369420622E+02  0.39811430129E+02 -0.34451409397E+02  0.15144467113E+03  0.12500000000E+03 0.  0.
         25    1    1    2    0    0  0.44996310466E+02  0.20290153470E+02  0.23902512524E+03  0.27421591635E+03  0.12500000000E+03 0.  0.
         25    1    1    2    0    0  0.22373110156E+02 -0.60101583599E+02 -0.14863010856E+03  0.20452057496E+03  0.12500000000E+03 0.  0.
</event>
<event>
 5    0  0.5653588E-005  0.4154722E+03  0.7546771E-02  0.1038550E+00
         21   -1    0    0  502  501  0.00000000000E+00  0.00000000000E+00  0.92947150280E+03  0.92947150280E+03  0.00000000000E+00 0.  1.
         21   -1    0    0  501  502 -0.00000000000E+00 -0.00000000000E+00 -0.18571538077E+03  0.18571538077E+03  0.00000000000E+00 0.  1.
         25    1    1    2    0    0 -0.15315721321E+03 -0.22778857840E+03  0.46178020529E+03  0.55155301323E+03  0.12500000000E+03 0.  0.
         25    1    1    2    0    0  0.23174602006E+02  0.31800994068E+01  0.24126259408E+03  0.27272662964E+03  0.12500000000E+03 0.  0.
         25    1    1    2    0    0  0.12998261120E+03  0.22460847899E+03  0.40713322652E+02  0.29090724070E+03  0.12500000000E+03 0.  0.
</event>
<event>
 5    0  0.5653588E-005  0.2344951E+03  0.7546771E-02  0.1123515E+00
         21   -1    0    0  502  501  0.00000000000E+00  0.00000000000E+00  0.36753110807E+03  0.36753110807E+03  0.00000000000E+00 0. -1.
         21   -1    0    0  501  502 -0.00000000000E+00 -0.00000000000E+00 -0.14961438793E+03  0.14961438793E+03  0.00000000000E+00 0. -1.
         25    1    1    2    0    0  0.79897479877E+02  0.20736804766E+02  0.82529678833E+02  0.17102564209E+03  0.12500000000E+03 0.  0.
         25    1    1    2    0    0 -0.98980136626E+02  0.69066439991E+01  0.14593485478E+03  0.21625621613E+03  0.12500000000E+03 0.  0.
         25    1    1    2    0    0  0.19082656749E+02 -0.27643448765E+02 -0.10547813469E+02  0.12986363778E+03  0.12500000000E+03 0.  0.
</event>
<event>
 5    0  0.5653588E-005  0.2552237E+03  0.7546771E-02  0.1110047E+00
         21   -1    0    0  502  501  0.00000000000E+00  0.00000000000E+00  0.18782197722E+04  0.18782197722E+04  0.00000000000E+00 0.  1.
         21   -1    0    0  501  502 -0.00000000000E+00 -0.00000000000E+00 -0.34681325059E+02  0.34681325059E+02  0.00000000000E+00 0.  1.
         25    1    1    2    0    0 -0.90887882000E+02  0.70327547248E+02  0.72668758291E+03  0.74626162581E+03  0.12500000000E+03 0.  0.
         25    1    1    2    0    0 -0.31197787390E+01 -0.86196150963E+02  0.31720275630E+03  0.35168465714E+03  0.12500000000E+03 0.  0.
         25    1    1    2    0    0  0.94007660738E+02  0.15868603715E+02  0.79964810797E+03  0.81495481435E+03  0.12500000000E+03 0.  0.
</event>
<event>
 5    0  0.5653588E-005  0.7323058E+03  0.7546771E-02  0.9663526E-01
         21   -1    0    0  502  501  0.00000000000E+00  0.00000000000E+00  0.75564022983E+03  0.75564022983E+03  0.00000000000E+00 0.  1.
         21   -1    0    0  501  502 -0.00000000000E+00 -0.00000000000E+00 -0.70969190592E+03  0.70969190592E+03  0.00000000000E+00 0.  1.
         25    1    1    2    0    0 -0.47493978007E+03 -0.44303305852E+03 -0.10482969516E+03  0.66967182308E+03  0.12500000000E+03 0.  0.
         25    1    1    2    0    0  0.38558936969E+03  0.40609745341E+03 -0.49470376557E+01  0.57379767938E+03  0.12500000000E+03 0.  0.
         25    1    1    2    0    0  0.89350410381E+02  0.36935605110E+02  0.15572505673E+03  0.22186263330E+03  0.12500000000E+03 0.  0.
</event>
<event>
 5    0  0.5653588E-005  0.3450533E+03  0.7546771E-02  0.1064664E+00
         21   -1    0    0  502  501  0.00000000000E+00  0.00000000000E+00  0.10398123063E+03  0.10398123063E+03  0.00000000000E+00 0. -1.
         21   -1    0    0  501  502 -0.00000000000E+00 -0.00000000000E+00 -0.11450311519E+04  0.11450311519E+04  0.00000000000E+00 0.  1.
         25    1    1    2    0    0 -0.22606555507E+03  0.34471637813E+02 -0.58108215945E+03  0.63684802350E+03  0.12500000000E+03 0.  0.
         25    1    1    2    0    0  0.20711659135E+03  0.26923858283E+02 -0.37761783703E+03  0.44926874741E+03  0.12500000000E+03 0.  0.
         25    1    1    2    0    0  0.18948963726E+02 -0.61395496096E+02 -0.82349924760E+02  0.16289561159E+03  0.12500000000E+03 0.  0.
</event>
<event>
 5    0  0.5653588E-005  0.4000833E+03  0.7546771E-02  0.1043751E+00
         21   -1    0    0  502  501  0.00000000000E+00  0.00000000000E+00  0.45247030509E+03  0.45247030509E+03  0.00000000000E+00 0. -1.
         21   -1    0    0  501  502 -0.00000000000E+00 -0.00000000000E+00 -0.35376173800E+03  0.35376173800E+03  0.00000000000E+00 0. -1.
         25    1    1    2    0    0 -0.19330687018E+03 -0.12022277844E+03 -0.16301068673E+03  0.30662443885E+03  0.12500000000E+03 0.  0.
         25    1    1    2    0    0  0.10130030092E+02 -0.50612301786E+02  0.35838780444E+02  0.13990582828E+03  0.12500000000E+03 0.  0.
         25    1    1    2    0    0  0.18317684008E+03  0.17083508023E+03  0.22588047338E+03  0.35970177597E+03  0.12500000000E+03 0.  0.
</event>
<event>
 5    0  0.6135392E-005  0.4848581E+03  0.7546771E-02  0.1017808E+00
         21   -1    0    0  502  501  0.00000000000E+00  0.00000000000E+00  0.86039682701E+03  0.86039682701E+03  0.00000000000E+00 0.  1.
         21   -1    0    0  501  502 -0.00000000000E+00 -0.00000000000E+00 -0.27323138687E+03  0.27323138687E+03  0.00000000000E+00 0.  1.
         25    1    1    2    0    0  0.10679865386E+03 -0.27569495933E+03  0.94148415543E+02  0.33451844077E+03  0.12500000000E+03 0.  0.
         25    1    1    2    0    0  0.37504173699E+02  0.35699544755E+03  0.17279766732E+03  0.41753604209E+03  0.12500000000E+03 0.  0.
         25    1    1    2    0    0 -0.14430282756E+03 -0.81300488216E+02  0.32021935729E+03  0.38157373102E+03  0.12500000000E+03 0.  0.
</event>
<event>
 5    0  0.5653588E-005  0.2292168E+03  0.7546771E-02  0.1127192E+00
         21   -1    0    0  502  501  0.00000000000E+00  0.00000000000E+00  0.81030551350E+03  0.81030551350E+03  0.00000000000E+00 0.  1.
         21   -1    0    0  501  502 -0.00000000000E+00 -0.00000000000E+00 -0.64840183505E+02  0.64840183505E+02  0.00000000000E+00 0.  1.
         25    1    1    2    0    0 -0.20212781921E+02 -0.71377497395E+02  0.15742088323E+03  0.21426534523E+03  0.12500000000E+03 0.  0.
         25    1    1    2    0    0 -0.64008071970E+02  0.48503910296E+02  0.31073338723E+03  0.34442691610E+03  0.12500000000E+03 0.  0.
         25    1    1    2    0    0  0.84220853891E+02  0.22873587099E+02  0.27731105953E+03  0.31645343569E+03  0.12500000000E+03 0.  0.
</event>
<event>
 5    0  0.5653588E-005  0.3466147E+03  0.7546771E-02  0.1064013E+00
         21   -1    0    0  502  501  0.00000000000E+00  0.00000000000E+00  0.13721134446E+04  0.13721134446E+04  0.00000000000E+00 0.  1.
         21   -1    0    0  501  502 -0.00000000000E+00 -0.00000000000E+00 -0.87559611210E+02  0.87559611210E+02  0.00000000000E+00 0.  1.
         25    1    1    2    0    0  0.19549107001E+03 -0.62374156732E+02  0.93751478327E+03  0.96781520071E+03  0.12500000000E+03 0.  0.
         25    1    1    2    0    0 -0.11832090784E+03 -0.30419172148E+02  0.17215110703E+03  0.24532869159E+03  0.12500000000E+03 0.  0.
         25    1    1    2    0    0 -0.77170162168E+02  0.92793328880E+02  0.17488794305E+03  0.24652916347E+03  0.12500000000E+03 0.  0.
</event>
<event>
 5    0  0.5653588E-005  0.2898618E+03  0.7546771E-02  0.1090421E+00
         21   -1    0    0  502  501  0.00000000000E+00  0.00000000000E+00  0.28909033315E+02  0.28909033315E+02  0.00000000000E+00 0. -1.
         21   -1    0    0  501  502 -0.00000000000E+00 -0.00000000000E+00 -0.29063525974E+04  0.29063525974E+04  0.00000000000E+00 0. -1.
         25    1    1    2    0    0  0.15581510343E+03  0.13950573933E+02 -0.12241192387E+04  0.12403894048E+04  0.12500000000E+03 0.  0.
         25    1    1    2    0    0 -0.19413058993E+03 -0.86120824674E+01 -0.12395770645E+04  0.12609271005E+04  0.12500000000E+03 0.  0.
         25    1    1    2    0    0  0.38315486509E+02 -0.53384914654E+01 -0.41374726086E+03  0.43394512541E+03  0.12500000000E+03 0.  0.
</event>
<event>
 5    0  0.5653588E-005  0.4480236E+03  0.7546771E-02  0.1028313E+00
         21   -1    0    0  502  501  0.00000000000E+00  0.00000000000E+00  0.28985570172E+03  0.28985570172E+03  0.00000000000E+00 0. -1.
         21   -1    0    0  501  502 -0.00000000000E+00 -0.00000000000E+00 -0.69250010164E+03  0.69250010164E+03  0.00000000000E+00 0. -1.
         25    1    1    2    0    0  0.99796451915E+02 -0.15606403345E+03 -0.44306924096E+03  0.49623650272E+03  0.12500000000E+03 0.  0.
         25    1    1    2    0    0  0.16126827600E+02 -0.55911429807E+02  0.13994920793E+03  0.19646104793E+03  0.12500000000E+03 0.  0.
         25    1    1    2    0    0 -0.11592327951E+03  0.21197546326E+03 -0.99524366904E+02  0.28965825271E+03  0.12500000000E+03 0.  0.
</event>
<event>
 5    0  0.7608644E-005  0.4217164E+03  0.7546771E-02  0.1036509E+00
         21   -1    0    0  502  501  0.00000000000E+00  0.00000000000E+00  0.62515793286E+03  0.62515793286E+03  0.00000000000E+00 0. -1.
         21   -1    0    0  501  502 -0.00000000000E+00 -0.00000000000E+00 -0.28447969636E+03  0.28447969636E+03  0.00000000000E+00 0. -1.
         25    1    1    2    0    0 -0.16920573969E+03  0.10341598795E+03 -0.15678346829E+01  0.23442036391E+03  0.12500000000E+03 0.  0.
         25    1    1    2    0    0  0.29058006390E+03  0.35846047577E+02  0.74896846542E+02  0.32704166445E+03  0.12500000000E+03 0.  0.
         25    1    1    2    0    0 -0.12137432420E+03 -0.13926203553E+03  0.26734922464E+03  0.34817560086E+03  0.12500000000E+03 0.  0.
</event>
<event>
 5    0  0.5653588E-005  0.3857845E+03  0.7546771E-02  0.1048816E+00
         21   -1    0    0  502  501  0.00000000000E+00  0.00000000000E+00  0.11650658969E+04  0.11650658969E+04  0.00000000000E+00 0. -1.
         21   -1    0    0  501  502 -0.00000000000E+00 -0.00000000000E+00 -0.12774354255E+03  0.12774354255E+03  0.00000000000E+00 0. -1.
         25    1    1    2    0    0  0.16238185073E+03 -0.26391136249E+03  0.64976395470E+03  0.73064031474E+03  0.12500000000E+03 0.  0.
         25    1    1    2    0    0 -0.11433068884E+03  0.11074400674E+03  0.17013204409E+03  0.26439677355E+03  0.12500000000E+03 0.  0.
         25    1    1    2    0    0 -0.48051161896E+02  0.15316735575E+03  0.21742635557E+03  0.29777235117E+03  0.12500000000E+03 0.  0.
</event>
<event>
 5    0  0.6110878E-005  0.2790069E+03  0.7546771E-02  0.1096233E+00
         21   -1    0    0  502  501  0.00000000000E+00  0.00000000000E+00  0.65632547155E+03  0.65632547155E+03  0.00000000000E+00 0. -1.
         21   -1    0    0  501  502 -0.00000000000E+00 -0.00000000000E+00 -0.11860705417E+03  0.11860705417E+03  0.00000000000E+00 0. -1.
         25    1    1    2    0    0 -0.25902915743E+02 -0.88423206189E+02  0.27890716564E+03  0.31922379529E+03  0.12500000000E+03 0.  0.
         25    1    1    2    0    0  0.64152320925E+02  0.14542132280E+03  0.23684185008E+03  0.31141924050E+03  0.12500000000E+03 0.  0.
         25    1    1    2    0    0 -0.38249405182E+02 -0.56998116611E+02  0.21969401659E+02  0.14428948993E+03  0.12500000000E+03 0.  0.
</event>
<event>
 5    0  0.6262994E-005  0.2837534E+03  0.7546771E-02  0.1093656E+00
         21   -1    0    0  502  501  0.00000000000E+00  0.00000000000E+00  0.35066325334E+03  0.35066325334E+03  0.00000000000E+00 0.  1.
         21   -1    0    0  501  502 -0.00000000000E+00 -0.00000000000E+00 -0.22961054068E+03  0.22961054068E+03  0.00000000000E+00 0.  1.
         25    1    1    2    0    0  0.81474436093E+02  0.78259470932E+02  0.89380062579E+02  0.19072604467E+03  0.12500000000E+03 0.  0.
         25    1    1    2    0    0  0.92450368909E+02 -0.44267970455E+02  0.56554431891E+02  0.17126040899E+03  0.12500000000E+03 0.  0.
         25    1    1    2    0    0 -0.17392480500E+03 -0.33991500477E+02 -0.24881781806E+02  0.21828734037E+03  0.12500000000E+03 0.  0.
</event>
<event>
 5    0  0.5653588E-005  0.2846355E+03  0.7546771E-02  0.1093184E+00
         21   -1    0    0  502  501  0.00000000000E+00  0.00000000000E+00  0.92186536745E+02  0.92186536745E+02  0.00000000000E+00 0. -1.
         21   -1    0    0  501  502 -0.00000000000E+00 -0.00000000000E+00 -0.87884146394E+03  0.87884146394E+03  0.00000000000E+00 0. -1.
         25    1    1    2    0    0  0.23838713286E+02  0.15967092813E+03 -0.29618058256E+03  0.35973744179E+03  0.12500000000E+03 0.  0.
         25    1    1    2    0    0 -0.11204201872E+02 -0.18755038193E+03 -0.23842054437E+03  0.32828346879E+03  0.12500000000E+03 0.  0.
         25    1    1    2    0    0 -0.12634511414E+02  0.27879453799E+02 -0.25205380026E+03  0.28300709010E+03  0.12500000000E+03 0.  0.
</event>
<event>
 5    0  0.5653588E-005  0.3382707E+03  0.7546771E-02  0.1067535E+00
         21   -1    0    0  502  501  0.00000000000E+00  0.00000000000E+00  0.22333423215E+03  0.22333423215E+03  0.00000000000E+00 0. -1.
         21   -1    0    0  501  502 -0.00000000000E+00 -0.00000000000E+00 -0.51235800854E+03  0.51235800854E+03  0.00000000000E+00 0. -1.
         25    1    1    2    0    0  0.11121475487E+03  0.11251397168E+02 -0.10258351790E+03  0.19657999334E+03  0.12500000000E+03 0.  0.
         25    1    1    2    0    0 -0.59838708281E+02  0.16895374944E+03 -0.22149990839E+03  0.31114827635E+03  0.12500000000E+03 0.  0.
         25    1    1    2    0    0 -0.51376046586E+02 -0.18020514660E+03  0.35059649901E+02  0.22796397100E+03  0.12500000000E+03 0.  0.
</event>
<event>
 5    0  0.5653588E-005  0.3311696E+03  0.7546771E-02  0.1070621E+00
         21   -1    0    0  502  501  0.00000000000E+00  0.00000000000E+00  0.65595372608E+03  0.65595372608E+03  0.00000000000E+00 0.  1.
         21   -1    0    0  501  502 -0.00000000000E+00 -0.00000000000E+00 -0.16719667302E+03  0.16719667302E+03  0.00000000000E+00 0.  1.
         25    1    1    2    0    0 -0.24345918772E+03  0.82687348584E+02  0.14262532961E+03  0.31949422272E+03  0.12500000000E+03 0.  0.
         25    1    1    2    0    0  0.11131569127E+03 -0.43593314698E+02  0.21548388180E+03  0.27631479064E+03  0.12500000000E+03 0.  0.
         25    1    1    2    0    0  0.13214349646E+03 -0.39094033886E+02  0.13064784165E+03  0.22734138574E+03  0.12500000000E+03 0.  0.
</event>
<event>
 5    0  0.5653588E-005  0.3858327E+03  0.7546771E-02  0.1048799E+00
         21   -1    0    0  502  501  0.00000000000E+00  0.00000000000E+00  0.77210372336E+03  0.77210372336E+03  0.00000000000E+00 0.  1.
         21   -1    0    0  501  502 -0.00000000000E+00 -0.00000000000E+00 -0.19280680034E+03  0.19280680034E+03  0.00000000000E+00 0.  1.
         25    1    1    2    0    0  0.28395695921E+03  0.27908470042E+02  0.23889317335E+03  0.39256258821E+03  0.12500000000E+03 0.  0.
         25    1    1    2    0    0 -0.84862922901E+02 -0.13240494616E+03  0.17565272110E+03  0.26685513651E+03  0.12500000000E+03 0.  0.
         25    1    1    2    0    0 -0.19909403631E+03  0.10449647612E+03  0.16475102857E+03  0.30549279898E+03  0.12500000000E+03 0.  0.
</event>
<event>
 5    0  0.5725078E-005  0.4383402E+03  0.7546771E-02  0.1031257E+00
         21   -1    0    0  502  501  0.00000000000E+00  0.00000000000E+00  0.32265131364E+03  0.32265131364E+03  0.00000000000E+00 0.  1.
         21   -1    0    0  501  502 -0.00000000000E+00 -0.00000000000E+00 -0.59551016096E+03  0.59551016096E+03  0.00000000000E+00 0.  1.
         25    1    1    2    0    0 -0.13023988177E+03  0.11565366506E+02 -0.30732471788E+03  0.35660856233E+03  0.12500000000E+03 0.  0.
         25    1    1    2    0    0  0.64125320366E+02  0.22729667616E+03  0.82909576447E+02  0.27977639924E+03  0.12500000000E+03 0.  0.
         25    1    1    2    0    0  0.66114561406E+02 -0.23886204267E+03 -0.48443705892E+02  0.28177651303E+03  0.12500000000E+03 0.  0.
</event>
<event>
 5    0  0.5653588E-005  0.2521495E+03  0.7546771E-02  0.1111954E+00
         21   -1    0    0  502  501  0.00000000000E+00  0.00000000000E+00  0.13930007086E+03  0.13930007086E+03  0.00000000000E+00 0.  1.
         21   -1    0    0  501  502 -0.00000000000E+00 -0.00000000000E+00 -0.45642023212E+03  0.45642023212E+03  0.00000000000E+00 0.  1.
         25    1    1    2    0    0  0.34630942065E+02 -0.44119889621E+02 -0.12334260566E+03  0.18434821718E+03  0.12500000000E+03 0.  0.
         25    1    1    2    0    0 -0.10080858559E+03  0.12163528878E+03 -0.10199729090E+03  0.22580071247E+03  0.12500000000E+03 0.  0.
         25    1    1    2    0    0  0.66177643520E+02 -0.77515399156E+02 -0.91780264705E+02  0.18557137332E+03  0.12500000000E+03 0.  0.
</event>
<event>
 5    0  0.5653588E-005  0.4204659E+03  0.7546771E-02  0.1036915E+00
         21   -1    0    0  502  501  0.00000000000E+00  0.00000000000E+00  0.80852010614E+03  0.80852010614E+03  0.00000000000E+00 0.  1.
         21   -1    0    0  501  502 -0.00000000000E+00 -0.00000000000E+00 -0.21866070346E+03  0.21866070346E+03  0.00000000000E+00 0.  1.
         25    1    1    2    0    0  0.20466254944E+03 -0.24849933933E+03  0.31013425097E+03  0.46416261635E+03  0.12500000000E+03 0.  0.
         25    1    1    2    0    0 -0.65701237075E+02 -0.23921763875E+02  0.23977404252E+02  0.14521989965E+03  0.12500000000E+03 0.  0.
         25    1    1    2    0    0 -0.13896131237E+03  0.27242110320E+03  0.25574774745E+03  0.41779829359E+03  0.12500000000E+03 0.  0.
</event>
<event>
 5    0  0.6102975E-005  0.2705791E+03  0.7546771E-02  0.1100949E+00
         21   -1    0    0  502  501  0.00000000000E+00  0.00000000000E+00  0.24406369076E+03  0.24406369076E+03  0.00000000000E+00 0. -1.
         21   -1    0    0  501  502 -0.00000000000E+00 -0.00000000000E+00 -0.29997520862E+03  0.29997520862E+03  0.00000000000E+00 0. -1.
         25    1    1    2    0    0 -0.24211319236E+01  0.10785662692E+03 -0.80927536805E+02  0.18388360466E+03  0.12500000000E+03 0.  0.
         25    1    1    2    0    0 -0.16844066429E+02 -0.68620615953E+02 -0.10242096206E+03  0.17637336810E+03  0.12500000000E+03 0.  0.
         25    1    1    2    0    0  0.19265198352E+02 -0.39236010970E+02  0.12743698100E+03  0.18378192662E+03  0.12500000000E+03 0.  0.
</event>
<event>
 5    0  0.5653588E-005  0.1955547E+03  0.7546771E-02  0.1153545E+00
         21   -1    0    0  502  501  0.00000000000E+00  0.00000000000E+00  0.10229573905E+03  0.10229573905E+03  0.00000000000E+00 0.  1.
         21   -1    0    0  501  502 -0.00000000000E+00 -0.00000000000E+00 -0.37383415826E+03  0.37383415826E+03  0.00000000000E+00 0.  1.
         25    1    1    2    0    0 -0.27071618208E+02 -0.74729145463E+01 -0.50501259851E+02  0.13771018194E+03  0.12500000000E+03 0.  0.
         25    1    1    2    0    0  0.35676751910E+02 -0.63456197494E+01 -0.11595943439E+03  0.17431204187E+03  0.12500000000E+03 0.  0.
         25    1    1    2    0    0 -0.86051337023E+01  0.13818534296E+02 -0.10507772497E+03  0.16410767350E+03  0.12500000000E+03 0.  0.
</event>
<event>
 5    0  0.5653588E-005  0.2393754E+03  0.7546771E-02  0.1120210E+00
         21   -1    0    0  502  501  0.00000000000E+00  0.00000000000E+00  0.50527607724E+03  0.50527607724E+03  0.00000000000E+00 0.  1.
         21   -1    0    0  501  502 -0.00000000000E+00 -0.00000000000E+00 -0.11340449263E+03  0.11340449263E+03  0.00000000000E+00 0.  1.
         25    1    1    2    0    0 -0.13803112692E+02 -0.83647174975E+02  0.98841674243E+02  0.18050499264E+03  0.12500000000E+03 0.  0.
         25    1    1    2    0    0  0.77936807685E+02  0.12516865215E+02  0.66054188660E+02  0.16192274005E+03  0.12500000000E+03 0.  0.
         25    1    1    2    0    0 -0.64133694994E+02  0.71130309760E+02  0.22697572171E+03  0.27625283718E+03  0.12500000000E+03 0.  0.
</event>
<event>
 5    0  0.5653588E-005  0.4711610E+03  0.7546771E-02  0.1021593E+00
         21   -1    0    0  502  501  0.00000000000E+00  0.00000000000E+00  0.73745324842E+03  0.73745324842E+03  0.00000000000E+00 0. -1.
         21   -1    0    0  501  502 -0.00000000000E+00 -0.00000000000E+00 -0.30102612391E+03  0.30102612391E+03  0.00000000000E+00 0. -1.
         25    1    1    2    0    0 -0.19847274636E+03  0.98479209420E+02  0.75033630484E+02  0.26522562365E+03  0.12500000000E+03 0.  0.
         25    1    1    2    0    0  0.11418495301E+03 -0.30223070208E+03  0.18584184617E+02  0.34691781835E+03  0.12500000000E+03 0.  0.
         25    1    1    2    0    0  0.84287793344E+02  0.20375149266E+03  0.34280930941E+03  0.42633593033E+03  0.12500000000E+03 0.  0.
</event>
